Protein in INSANE! Membrane UpperLeaflet>POPC=1.0 LowerLeaflet>POPC=1.0
243957
    1AU     AUC    1  17.927  17.661   7.506
    1AU     AUC    2  18.201  17.642   7.351
    1AU     AUC    3  18.187  17.641   7.678
    1AU     AUC    4  17.665  17.678   7.337
    1AU     AUC    5  17.658  17.683   7.666
    1AU     AUC    6  17.782  17.939   7.499
    1AU     AUC    7  18.112  17.915   7.512
    1AU     AUC    8  17.742  17.405   7.502
    1AU     AUC    9  18.072  17.379   7.506
    1AU     AUC   10  17.908  17.500   7.771
    1AU     AUC   11  17.932  17.828   7.773
    1AU     AUC   12  17.925  17.496   7.240
    1AU     AUC   13  17.950  17.826   7.238
    1AU     AUC   14  18.472  17.629   7.214
    1AU     AUC   15  18.466  17.614   7.520
    1AU     AUC   16  18.431  17.617   7.846
    1AU     AUC   17  17.416  17.686   7.167
    1AU     AUC   18  17.385  17.692   7.503
    1AU     AUC   19  17.402  17.707   7.827
    1AU     AUC   20  17.652  18.217   7.488
    1AU     AUC   21  17.963  18.201   7.493
    1AU     AUC   22  18.288  18.157   7.520
    1AU     AUC   23  17.561  17.160   7.504
    1AU     AUC   24  17.889  17.117   7.492
    1AU     AUC   25  18.212  17.102   7.514
    1AU     AUC   26  17.894  17.344   8.031
    1AU     AUC   27  17.906  17.668   8.057
    1AU     AUC   28  17.938  17.992   8.031
    1AU     AUC   29  17.932  17.337   6.987
    1AU     AUC   30  17.971  17.668   6.964
    1AU     AUC   31  17.981  17.984   6.976
    1AU     AUC   32  18.162  17.473   7.950
    1AU     AUC   33  18.198  17.813   7.958
    1AU     AUC   34  18.206  17.477   7.081
    1AU     AUC   35  18.241  17.833   7.085
    1AU     AUC   36  17.640  17.521   7.944
    1AU     AUC   37  17.659  17.853   7.940
    1AU     AUC   38  17.659  17.509   7.070
    1AU     AUC   39  17.683  17.830   7.052
    1AU     AUC   40  18.397  17.897   7.366
    1AU     AUC   41  18.379  17.904   7.701
    1AU     AUC   42  17.512  17.965   7.319
    1AU     AUC   43  17.509  17.977   7.663
    1AU     AUC   44  18.355  17.347   7.350
    1AU     AUC   45  18.337  17.346   7.677
    1AU     AUC   46  17.460  17.417   7.341
    1AU     AUC   47  17.467  17.412   7.680
    1AU     AUC   48  17.795  18.123   7.764
    1AU     AUC   49  18.123  18.088   7.785
    1AU     AUC   50  17.730  17.238   7.777
    1AU     AUC   51  18.062  17.211   7.777
    1AU     AUC   52  17.797  18.110   7.225
    1AU     AUC   53  18.130  18.094   7.234
    1AU     AUC   54  17.729  17.226   7.227
    1AU     AUC   55  18.065  17.203   7.230
    1AU    AUSL   56  18.323  17.579   8.147
    1AU    AUSL   57  18.200  17.225   8.117
    1AU     AUL   58  18.598  17.403   8.253
    1AU       S   59  18.496  16.894   8.332
    1AU     LIG   60  18.384  16.503   8.527
    1AU     LIG   61  18.638  16.181   8.742
    1AU     LIG   62  18.921  15.999   9.068
    1AU     LIG   63  19.191  16.054   9.446
    1AU       S   64  18.302  17.264   8.647
    1AU     LIG   65  18.507  17.394   9.045
    1AU     LIG   66  18.790  17.362   9.420
    1AU     LIG   67  19.089  17.330   9.775
    1AU     LIG   68  19.499  17.403   9.998
    1AU    AUSL   69  18.000  17.476   8.266
    1AU    AUSL   70  17.780  17.828   8.277
    1AU     AUL   71  18.048  17.723   8.560
    1AU       S   72  17.967  17.225   8.643
    1AU     LIG   73  18.001  17.239   9.105
    1AU     LIG   74  18.313  17.144   9.461
    1AU     LIG   75  18.574  17.137   9.863
    1AU     LIG   76  18.554  17.063  10.340
    1AU       S   77  17.581  17.668   8.746
    1AU     LIG   78  17.582  17.566   9.197
    1AU     LIG   79  17.284  17.614   9.563
    1AU     LIG   80  17.030  17.684   9.962
    1AU     LIG   81  16.942  17.873  10.394
    1AU    AUSL   82  18.118  17.867   8.241
    1AU    AUSL   83  18.498  17.881   8.032
    1AU     AUL   84  18.437  17.759   8.418
    1AU       S   85  18.111  18.224   8.591
    1AU     LIG   86  18.439  18.191   8.917
    1AU     LIG   87  18.717  18.354   9.258
    1AU     LIG   88  18.730  18.414   9.728
    1AU     LIG   89  18.558  18.459  10.174
    1AU       S   90  18.759  18.142   8.322
    1AU     LIG   91  19.197  18.235   8.377
    1AU     LIG   92  19.409  18.401   8.735
    1AU     LIG   93  19.563  18.614   9.106
    1AU     LIG   94  19.784  18.820   9.453
    1AU    AUSL   95  18.407  17.683   6.946
    1AU    AUSL   96  18.284  18.112   6.931
    1AU     AUL   97  18.516  17.914   6.726
    1AU       S   98  18.563  17.547   6.378
    1AU     LIG   99  18.894  17.523   6.093
    1AU     LIG  100  18.941  17.445   5.647
    1AU     LIG  101  19.009  17.417   5.184
    1AU     LIG  102  19.345  17.267   4.874
    1AU       S  103  18.662  18.386   6.695
    1AU     LIG  104  18.778  18.534   6.273
    1AU     LIG  105  19.010  18.824   6.002
    1AU     LIG  106  19.244  19.102   5.727
    1AU     LIG  107  19.375  19.386   5.398
    1AU    AUSL  108  18.191  17.479   6.775
    1AU    AUSL  109  18.467  17.338   7.035
    1AU     AUL  110  18.669  17.554   6.863
    1AU       S  111  18.647  17.091   6.654
    1AU     LIG  112  18.948  16.894   6.361
    1AU     LIG  113  19.071  16.473   6.196
    1AU     LIG  114  19.352  16.125   6.090
    1AU     LIG  115  19.702  16.126   5.808
    1AU       S  116  18.386  17.412   6.365
    1AU     LIG  117  18.555  17.144   6.020
    1AU     LIG  118  18.528  17.164   5.532
    1AU     LIG  119  18.535  17.241   5.051
    1AU     LIG  120  18.638  17.194   4.586
    1AU    AUSL  121  18.147  17.837   6.747
    1AU    AUSL  122  17.820  17.503   6.801
    1AU     AUL  123  17.950  17.615   6.506
    1AU       S  124  17.443  17.524   6.334
    1AU     LIG  125  17.369  17.169   6.044
    1AU     LIG  126  17.260  17.111   5.587
    1AU     LIG  127  17.086  17.159   5.143
    1AU     LIG  128  17.156  17.164   4.667
    1AU       S  129  18.371  17.755   6.266
    1AU     LIG  130  18.461  17.614   5.823
    1AU     LIG  131  18.560  17.660   5.358
    1AU     LIG  132  18.649  17.746   4.900
    1AU     LIG  133  18.686  18.095   4.566
    1AU    AUSL  134  17.457  17.768   8.138
    1AU    AUSL  135  17.656  18.097   8.065
    1AU     AUL  136  17.552  18.066   8.409
    1AU       S  137  17.314  17.656   8.640
    1AU     LIG  138  17.106  17.492   9.024
    1AU     LIG  139  16.842  17.393   9.401
    1AU     LIG  140  16.616  17.419   9.807
    1AU     LIG  141  16.526  17.644  10.207
    1AU       S  142  17.223  18.428   8.209
    1AU     LIG  143  17.243  18.610   8.634
    1AU     LIG  144  17.181  18.801   9.039
    1AU     LIG  145  16.853  18.997   9.278
    1AU     LIG  146  16.485  19.250   9.426
    1AU    AUSL  147  17.648  17.498   8.224
    1AU    AUSL  148  17.381  17.415   7.978
    1AU     AUL  149  17.185  17.587   8.162
    1AU       S  150  17.209  17.127   8.382
    1AU     LIG  151  16.777  17.004   8.486
    1AU     LIG  152  16.465  16.669   8.480
    1AU     LIG  153  16.273  16.311   8.685
    1AU     LIG  154  16.076  16.223   9.088
    1AU       S  155  17.522  17.449   8.603
    1AU     LIG  156  17.474  17.141   8.925
    1AU     LIG  157  17.303  17.134   9.365
    1AU     LIG  158  17.097  17.185   9.803
    1AU     LIG  159  16.883  17.255  10.229
    1AU    AUSL  160  17.510  17.650   6.837
    1AU    AUSL  161  17.615  17.245   6.933
    1AU     AUL  162  17.752  17.272   6.620
    1AU       S  163  17.264  17.650   6.486
    1AU     LIG  164  16.954  17.410   6.212
    1AU     LIG  165  16.843  17.369   5.738
    1AU     LIG  166  16.651  17.438   5.296
    1AU     LIG  167  16.258  17.403   4.995
    1AU       S  168  17.252  17.138   6.597
    1AU     LIG  169  17.002  16.875   6.285
    1AU     LIG  170  16.803  16.454   6.191
    1AU     LIG  171  16.610  16.137   5.901
    1AU     LIG  172  16.497  16.083   5.444
    1AU    AUSL  173  17.800  17.851   6.748
    1AU    AUSL  174  17.378  17.956   6.996
    1AU     AUL  175  17.550  18.038   6.661
    1AU       S  176  17.053  18.138   6.720
    1AU     LIG  177  16.725  18.397   6.514
    1AU     LIG  178  16.621  18.572   6.100
    1AU     LIG  179  16.517  18.704   5.659
    1AU     LIG  180  16.187  18.846   5.347
    1AU       S  181  17.522  17.757   6.254
    1AU     LIG  182  17.280  17.637   5.855
    1AU     LIG  183  17.187  17.596   5.394
    1AU     LIG  184  17.294  17.624   4.927
    1AU     LIG  185  17.358  17.938   4.567
    1AU    AUSL  186  18.598  18.061   7.508
    1AU    AUSL  187  18.580  17.949   7.138
    1AU     AUL  188  18.663  18.365   7.399
    1AU       S  189  18.903  18.161   6.936
    1AU     LIG  190  19.107  18.204   6.523
    1AU     LIG  191  19.319  18.497   6.251
    1AU     LIG  192  19.553  18.765   5.974
    1AU     LIG  193  19.679  18.845   5.546
    1AU       S  194  19.108  18.121   7.381
    1AU     LIG  195  19.542  18.352   7.377
    1AU     LIG  196  20.025  18.385   7.392
    1AU     LIG  197  20.446  18.526   7.527
    1AU     LIG  198  20.631  18.741   7.890
    1AU    AUSL  199  18.717  17.733   7.392
    1AU    AUSL  200  18.653  17.449   7.660
    1AU     AUL  201  18.935  17.616   7.784
    1AU       S  202  19.099  17.807   7.277
    1AU     LIG  203  19.577  17.885   7.197
    1AU     LIG  204  20.040  17.962   7.100
    1AU     LIG  205  20.461  18.103   7.243
    1AU     LIG  206  20.813  18.423   7.143
    1AU       S  207  19.141  17.217   7.525
    1AU     LIG  208  19.549  16.962   7.612
    1AU     LIG  209  20.003  16.809   7.653
    1AU     LIG  210  20.443  16.766   7.702
    1AU     LIG  211  20.655  16.726   8.121
    1AU    AUSL  212  18.638  17.790   7.724
    1AU    AUSL  213  18.453  18.197   7.805
    1AU     AUL  214  18.791  18.064   7.825
    1AU       S  215  18.743  18.430   8.173
    1AU     LIG  216  19.033  18.732   8.389
    1AU     LIG  217  19.352  18.922   8.660
    1AU     LIG  218  19.535  19.332   8.749
    1AU     LIG  219  19.414  19.794   8.668
    1AU       S  220  19.194  17.949   7.528
    1AU     LIG  221  19.534  18.086   7.811
    1AU     LIG  222  20.003  18.094   7.817
    1AU     LIG  223  20.486  18.102   7.797
    1AU     LIG  224  20.745  18.295   8.136
    1AU    AUSL  225  17.368  18.197   7.514
    1AU    AUSL  226  17.343  18.015   7.915
    1AU     AUL  227  17.056  18.219   7.685
    1AU       S  228  17.066  18.174   8.204
    1AU     LIG  229  16.866  18.264   8.613
    1AU     LIG  230  16.737  18.545   8.968
    1AU     LIG  231  16.414  18.733   9.256
    1AU     LIG  232  16.096  18.866   9.580
    1AU       S  233  17.270  18.666   7.484
    1AU     LIG  234  16.820  18.771   7.288
    1AU     LIG  235  16.330  18.872   7.313
    1AU     LIG  236  15.873  19.069   7.325
    1AU     LIG  237  15.553  19.416   7.230
    1AU    AUSL  238  17.233  17.862   7.288
    1AU    AUSL  239  17.482  18.255   7.191
    1AU     AUL  240  17.118  18.176   7.240
    1AU       S  241  16.860  17.742   6.937
    1AU     LIG  242  16.514  18.109   6.889
    1AU     LIG  243  16.113  18.426   6.842
    1AU     LIG  244  15.661  18.663   6.767
    1AU     LIG  245  15.178  18.716   6.670
    1AU       S  246  17.246  18.615   6.992
    1AU     LIG  247  16.906  18.831   6.739
    1AU     LIG  248  16.775  19.019   6.319
    1AU     LIG  249  16.728  19.319   5.945
    1AU     LIG  250  16.654  19.765   5.761
    1AU    AUSL  251  17.191  17.866   7.654
    1AU    AUSL  252  17.148  17.542   7.353
    1AU     AUL  253  16.917  17.899   7.424
    1AU       S  254  16.680  17.445   7.434
    1AU     LIG  255  16.334  17.314   7.184
    1AU     LIG  256  15.884  17.286   7.243
    1AU     LIG  257  15.437  17.140   7.290
    1AU     LIG  258  14.990  16.967   7.294
    1AU       S  259  16.773  17.858   7.934
    1AU     LIG  260  16.312  17.997   7.953
    1AU     LIG  261  15.892  18.247   7.950
    1AU     LIG  262  15.428  18.377   7.900
    1AU     LIG  263  15.045  18.652   7.916
    1AU    AUSL  264  18.538  17.131   7.560
    1AU    AUSL  265  18.463  17.328   7.926
    1AU     AUL  266  18.794  17.268   7.902
    1AU       S  267  19.004  16.964   7.548
    1AU     LIG  268  19.270  16.651   7.328
    1AU     LIG  269  19.741  16.568   7.286
    1AU     LIG  270  20.168  16.372   7.454
    1AU     LIG  271  20.402  16.291   7.872
    1AU       S  272  18.669  16.859   8.161
    1AU     LIG  273  18.889  16.541   8.419
    1AU     LIG  274  19.156  16.264   8.679
    1AU     LIG  275  19.431  16.030   8.977
    1AU     LIG  276  19.709  16.063   9.361
    1AU    AUSL  277  18.657  17.401   7.315
    1AU    AUSL  278  18.343  17.067   7.235
    1AU     AUL  279  18.653  17.043   7.205
    1AU       S  280  19.088  17.292   7.298
    1AU     LIG  281  19.468  17.076   7.113
    1AU     LIG  282  19.922  17.061   7.224
    1AU     LIG  283  20.340  16.881   7.203
    1AU     LIG  284  20.771  16.742   7.244
    1AU       S  285  18.611  16.846   6.744
    1AU     LIG  286  18.785  16.430   6.620
    1AU     LIG  287  18.981  16.023   6.456
    1AU     LIG  288  19.191  15.642   6.270
    1AU     LIG  289  19.495  15.509   5.948
    1AU    AUSL  290  17.258  17.232   7.526
    1AU    AUSL  291  17.326  17.438   7.059
    1AU     AUL  292  17.076  17.190   7.238
    1AU       S  293  17.057  17.298   6.739
    1AU     LIG  294  16.658  17.133   6.567
    1AU     LIG  295  16.444  16.747   6.428
    1AU     LIG  296  16.270  16.399   6.180
    1AU     LIG  297  16.128  16.313   5.743
    1AU       S  298  16.691  17.201   7.561
    1AU     LIG  299  16.290  16.942   7.542
    1AU     LIG  300  15.846  16.812   7.444
    1AU     LIG  301  15.401  16.659   7.484
    1AU     LIG  302  14.964  16.484   7.486
    1AU    AUSL  303  17.174  17.529   7.713
    1AU    AUSL  304  17.431  17.100   7.810
    1AU     AUL  305  17.098  17.207   7.864
    1AU       S  306  17.216  16.891   8.240
    1AU     LIG  307  16.924  16.548   8.265
    1AU     LIG  308  16.615  16.207   8.284
    1AU     LIG  309  16.425  15.853   8.491
    1AU     LIG  310  16.132  15.774   8.834
    1AU       S  311  16.689  17.455   7.663
    1AU     LIG  312  16.193  17.423   7.680
    1AU     LIG  313  15.731  17.225   7.732
    1AU     LIG  314  15.257  17.069   7.766
    1AU     LIG  315  14.803  16.910   7.768
    1AU    AUSL  316  17.934  18.309   7.958
    1AU    AUSL  317  17.566  18.301   7.800
    1AU     AUL  318  17.729  18.367   8.227
    1AU       S  319  17.340  18.617   7.971
    1AU     LIG  320  17.030  18.883   8.247
    1AU     LIG  321  16.843  18.961   8.675
    1AU     LIG  322  16.601  19.268   8.919
    1AU     LIG  323  16.455  19.681   9.085
    1AU       S  324  17.834  18.806   8.014
    1AU     LIG  325  18.078  19.025   8.349
    1AU     LIG  326  18.338  19.387   8.492
    1AU     LIG  327  18.298  19.818   8.645
    1AU     LIG  328  18.179  20.075   9.016
    1AU    AUSL  329  17.847  18.445   7.616
    1AU    AUSL  330  18.121  18.402   7.346
    1AU     AUL  331  18.301  18.619   7.532
    1AU       S  332  17.749  18.842   7.711
    1AU     LIG  333  17.811  19.314   7.992
    1AU     LIG  334  18.085  19.698   8.157
    1AU     LIG  335  18.034  20.188   8.165
    1AU     LIG  336  17.779  20.599   7.989
    1AU       S  337  18.005  18.895   7.225
    1AU     LIG  338  18.290  19.274   7.049
    1AU     LIG  339  18.539  19.677   6.929
    1AU     LIG  340  18.666  20.099   6.771
    1AU     LIG  341  18.702  20.436   6.452
    1AU    AUSL  342  18.162  18.349   7.694
    1AU    AUSL  343  18.227  18.134   8.067
    1AU     AUL  344  18.270  18.490   7.987
    1AU       S  345  18.543  18.312   8.388
    1AU     LIG  346  18.860  18.407   8.737
    1AU     LIG  347  19.062  18.678   9.013
    1AU     LIG  348  19.276  19.056   9.159
    1AU     LIG  349  19.134  19.418   9.413
    1AU       S  350  18.016  18.905   7.819
    1AU     LIG  351  18.335  19.249   7.964
    1AU     LIG  352  18.636  19.581   8.122
    1AU     LIG  353  18.553  20.004   8.237
    1AU     LIG  354  18.800  20.374   8.291
    1AU    AUSL  355  17.930  17.040   7.936
    1AU    AUSL  356  18.286  17.035   7.824
    1AU     AUL  357  18.021  16.939   8.202
    1AU       S  358  18.077  16.488   7.994
    1AU     LIG  359  18.061  16.126   8.255
    1AU     LIG  360  17.799  15.746   8.328
    1AU     LIG  361  17.691  15.295   8.352
    1AU     LIG  362  17.765  14.851   8.408
    1AU       S  363  18.505  16.754   7.997
    1AU     LIG  364  18.556  16.308   8.092
    1AU     LIG  365  18.858  16.021   8.310
    1AU     LIG  366  19.078  15.749   8.632
    1AU     LIG  367  19.343  15.372   8.720
    1AU    AUSL  368  17.713  16.973   7.666
    1AU    AUSL  369  17.653  17.189   8.079
    1AU     AUL  370  17.642  16.819   7.976
    1AU       S  371  17.907  16.394   7.788
    1AU     LIG  372  17.740  15.959   7.847
    1AU     LIG  373  17.576  15.513   7.897
    1AU     LIG  374  17.365  15.092   7.998
    1AU     LIG  375  17.249  14.781   8.315
    1AU       S  376  17.458  16.994   8.430
    1AU     LIG  377  17.150  16.721   8.713
    1AU     LIG  378  16.803  16.371   8.749
    1AU     LIG  379  16.574  16.008   8.976
    1AU     LIG  380  16.301  15.827   9.324
    1AU    AUSL  381  18.033  16.875   7.646
    1AU    AUSL  382  17.686  16.917   7.321
    1AU     AUL  383  17.580  16.717   7.607
    1AU       S  384  17.710  16.443   7.200
    1AU     LIG  385  17.463  16.058   7.126
    1AU     LIG  386  17.465  15.590   7.146
    1AU     LIG  387  17.543  15.154   7.003
    1AU     LIG  388  17.278  14.822   6.824
    1AU       S  389  18.171  16.497   7.719
    1AU     LIG  390  18.245  16.012   7.785
    1AU     LIG  391  18.099  15.570   7.938
    1AU     LIG  392  18.095  15.111   8.079
    1AU     LIG  393  18.277  14.828   8.425
    1AU    AUSL  394  17.998  18.296   7.023
    1AU    AUSL  395  18.393  18.207   7.252
    1AU     AUL  396  18.314  18.481   7.053
    1AU       S  397  17.960  18.820   6.934
    1AU     LIG  398  18.196  19.042   6.604
    1AU     LIG  399  18.386  19.450   6.483
    1AU     LIG  400  18.250  19.860   6.297
    1AU     LIG  401  18.063  20.031   5.877
    1AU       S  402  18.814  18.412   6.921
    1AU     LIG  403  19.072  18.722   6.649
    1AU     LIG  404  19.324  19.027   6.360
    1AU     LIG  405  19.747  19.210   6.196
    1AU     LIG  406  20.207  19.392   6.265
    1AU    AUSL  407  17.772  18.408   7.279
    1AU    AUSL  408  17.702  18.101   6.971
    1AU     AUL  409  17.700  18.398   6.879
    1AU       S  410  17.717  18.829   7.194
    1AU     LIG  411  17.786  19.279   6.935
    1AU     LIG  412  18.033  19.672   6.781
    1AU     LIG  413  18.091  20.151   6.730
    1AU     LIG  414  17.863  20.586   6.815
    1AU       S  415  17.214  18.416   6.736
    1AU     LIG  416  17.127  18.629   6.300
    1AU     LIG  417  16.995  18.848   5.878
    1AU     LIG  418  16.836  19.084   5.489
    1AU     LIG  419  16.762  19.487   5.250
    1AU    AUSL  420  17.876  17.014   7.026
    1AU    AUSL  421  17.427  17.128   7.216
    1AU     AUL  422  17.546  16.884   6.973
    1AU       S  423  17.095  16.999   6.778
    1AU     LIG  424  16.846  16.606   6.708
    1AU     LIG  425  16.553  16.237   6.588
    1AU     LIG  426  16.395  15.851   6.333
    1AU     LIG  427  16.172  15.433   6.191
    1AU       S  428  17.848  16.469   6.953
    1AU     LIG  429  17.825  16.015   6.767
    1AU     LIG  430  17.695  15.546   6.679
    1AU     LIG  431  17.604  15.107   6.482
    1AU     LIG  432  17.766  14.761   6.165
    1AU    AUSL  433  18.046  16.901   7.315
    1AU    AUSL  434  18.168  17.172   6.928
    1AU     AUL  435  18.205  16.817   7.031
    1AU       S  436  17.976  16.425   7.267
    1AU     LIG  437  17.941  15.931   7.273
    1AU     LIG  438  17.964  15.450   7.118
    1AU     LIG  439  18.026  15.057   6.823
    1AU     LIG  440  18.346  14.714   6.698
    1AU       S  441  18.369  16.979   6.576
    1AU     LIG  442  18.503  16.671   6.256
    1AU     LIG  443  18.619  16.235   6.144
    1AU     LIG  444  18.904  15.933   5.929
    1AU     LIG  445  19.266  15.854   5.637
    2AU     AUC  446   6.333   3.915   7.502
    2AU     AUC  447   6.608   3.895   7.347
    2AU     AUC  448   6.594   3.895   7.674
    2AU     AUC  449   6.070   3.932   7.333
    2AU     AUC  450   6.063   3.938   7.662
    2AU     AUC  451   6.189   4.193   7.494
    2AU     AUC  452   6.519   4.168   7.506
    2AU     AUC  453   6.146   3.659   7.499
    2AU     AUC  454   6.476   3.633   7.503
    2AU     AUC  455   6.312   3.754   7.767
    2AU     AUC  456   6.339   4.083   7.768
    2AU     AUC  457   6.330   3.749   7.237
    2AU     AUC  458   6.357   4.078   7.233
    2AU     AUC  459   6.880   3.880   7.210
    2AU     AUC  460   6.875   3.868   7.516
    2AU     AUC  461   6.838   3.870   7.841
    2AU     AUC  462   5.820   3.942   7.163
    2AU     AUC  463   5.789   3.950   7.499
    2AU     AUC  464   5.808   3.966   7.822
    2AU     AUC  465   6.059   4.470   7.483
    2AU     AUC  466   6.371   4.452   7.486
    2AU     AUC  467   6.697   4.410   7.512
    2AU     AUC  468   5.963   3.415   7.501
    2AU     AUC  469   6.291   3.370   7.491
    2AU     AUC  470   6.613   3.355   7.513
    2AU     AUC  471   6.297   3.597   8.027
    2AU     AUC  472   6.313   3.924   8.052
    2AU     AUC  473   6.347   4.248   8.025
    2AU     AUC  474   6.337   3.589   6.984
    2AU     AUC  475   6.376   3.920   6.959
    2AU     AUC  476   6.387   4.235   6.970
    2AU     AUC  477   6.565   3.725   7.945
    2AU     AUC  478   6.605   4.067   7.953
    2AU     AUC  479   6.613   3.729   7.079
    2AU     AUC  480   6.647   4.084   7.080
    2AU     AUC  481   6.045   3.779   7.940
    2AU     AUC  482   6.066   4.111   7.935
    2AU     AUC  483   6.064   3.763   7.067
    2AU     AUC  484   6.087   4.083   7.047
    2AU     AUC  485   6.805   4.150   7.359
    2AU     AUC  486   6.789   4.156   7.695
    2AU     AUC  487   5.917   4.219   7.314
    2AU     AUC  488   5.915   4.233   7.659
    2AU     AUC  489   6.762   3.601   7.349
    2AU     AUC  490   6.738   3.600   7.674
    2AU     AUC  491   5.863   3.673   7.338
    2AU     AUC  492   5.871   3.670   7.676
    2AU     AUC  493   6.203   4.377   7.758
    2AU     AUC  494   6.532   4.341   7.779
    2AU     AUC  495   6.133   3.492   7.774
    2AU     AUC  496   6.462   3.462   7.774
    2AU     AUC  497   6.204   4.360   7.220
    2AU     AUC  498   6.539   4.347   7.228
    2AU     AUC  499   6.134   3.481   7.224
    2AU     AUC  500   6.471   3.457   7.228
    2AU    AUSL  501   6.726   3.831   8.140
    2AU    AUSL  502   6.600   3.475   8.111
    2AU     AUL  503   6.992   3.650   8.256
    2AU       S  504   6.922   3.135   8.295
    2AU     LIG  505   6.860   2.876   8.635
    2AU     LIG  506   7.077   2.518   8.793
    2AU     LIG  507   7.341   2.229   9.038
    2AU     LIG  508   7.331   2.089   9.485
    2AU       S  509   6.695   3.502   8.640
    2AU     LIG  510   6.917   3.591   9.039
    2AU     LIG  511   7.192   3.534   9.418
    2AU     LIG  512   7.487   3.451   9.779
    2AU     LIG  513   7.892   3.449  10.040
    2AU    AUSL  514   6.402   3.729   8.260
    2AU    AUSL  515   6.189   4.085   8.271
    2AU     AUL  516   6.454   3.972   8.553
    2AU       S  517   6.352   3.477   8.637
    2AU     LIG  518   6.434   3.369   9.079
    2AU     LIG  519   6.776   3.209   9.365
    2AU     LIG  520   7.013   3.181   9.767
    2AU     LIG  521   6.962   3.051  10.214
    2AU       S  522   5.980   3.941   8.736
    2AU     LIG  523   5.855   3.880   9.178
    2AU     LIG  524   5.671   3.910   9.613
    2AU     LIG  525   5.511   3.978  10.050
    2AU     LIG  526   5.525   4.225  10.454
    2AU    AUSL  527   6.527   4.122   8.237
    2AU    AUSL  528   6.905   4.133   8.025
    2AU     AUL  529   6.846   4.008   8.412
    2AU       S  530   6.523   4.472   8.593
    2AU     LIG  531   6.779   4.559   8.984
    2AU     LIG  532   6.895   4.717   9.427
    2AU     LIG  533   6.912   4.823   9.900
    2AU     LIG  534   7.069   4.846  10.355
    2AU       S  535   7.156   4.401   8.320
    2AU     LIG  536   7.581   4.463   8.425
    2AU     LIG  537   7.864   4.702   8.682
    2AU     LIG  538   8.056   4.952   9.023
    2AU     LIG  539   8.223   5.223   9.369
    2AU    AUSL  540   6.813   3.934   6.941
    2AU    AUSL  541   6.691   4.362   6.925
    2AU     AUL  542   6.920   4.162   6.717
    2AU       S  543   6.956   3.794   6.371
    2AU     LIG  544   7.296   3.762   6.113
    2AU     LIG  545   7.357   3.619   5.695
    2AU     LIG  546   7.441   3.586   5.239
    2AU     LIG  547   7.615   3.723   4.830
    2AU       S  548   7.076   4.630   6.690
    2AU     LIG  549   7.201   4.717   6.252
    2AU     LIG  550   7.423   5.009   5.974
    2AU     LIG  551   7.557   5.205   5.574
    2AU     LIG  552   7.708   5.359   5.153
    2AU    AUSL  553   6.596   3.729   6.773
    2AU    AUSL  554   6.877   3.591   7.035
    2AU     AUL  555   7.074   3.801   6.853
    2AU       S  556   7.049   3.338   6.640
    2AU     LIG  557   7.323   3.102   6.318
    2AU     LIG  558   7.582   2.706   6.215
    2AU     LIG  559   7.912   2.412   6.009
    2AU     LIG  560   8.213   2.229   5.674
    2AU       S  561   6.784   3.654   6.353
    2AU     LIG  562   6.973   3.363   6.028
    2AU     LIG  563   6.980   3.306   5.541
    2AU     LIG  564   7.013   3.369   5.054
    2AU     LIG  565   7.209   3.478   4.624
    2AU    AUSL  566   6.551   4.087   6.743
    2AU    AUSL  567   6.224   3.756   6.798
    2AU     AUL  568   6.355   3.864   6.504
    2AU       S  569   5.851   3.773   6.329
    2AU     LIG  570   5.770   3.409   6.044
    2AU     LIG  571   5.741   3.300   5.588
    2AU     LIG  572   5.569   3.298   5.148
    2AU     LIG  573   5.427   3.347   4.710
    2AU       S  574   6.772   4.003   6.258
    2AU     LIG  575   6.864   3.819   5.829
    2AU     LIG  576   6.983   3.800   5.377
    2AU     LIG  577   7.113   3.878   4.940
    2AU     LIG  578   6.973   3.934   4.493
    2AU    AUSL  579   5.864   4.031   8.134
    2AU    AUSL  580   6.066   4.356   8.058
    2AU     AUL  581   5.975   4.337   8.400
    2AU       S  582   5.713   3.949   8.624
    2AU     LIG  583   5.441   3.734   8.906
    2AU     LIG  584   5.328   3.642   9.344
    2AU     LIG  585   5.146   3.759   9.758
    2AU     LIG  586   4.919   3.844  10.161
    2AU       S  587   5.638   4.695   8.208
    2AU     LIG  588   5.711   4.949   8.589
    2AU     LIG  589   5.559   5.249   8.894
    2AU     LIG  590   5.375   5.243   9.315
    2AU     LIG  591   5.167   5.356   9.717
    2AU    AUSL  592   6.050   3.757   8.219
    2AU    AUSL  593   5.787   3.674   7.974
    2AU     AUL  594   5.588   3.848   8.150
    2AU       S  595   5.614   3.393   8.382
    2AU     LIG  596   5.184   3.303   8.496
    2AU     LIG  597   4.854   2.985   8.515
    2AU     LIG  598   4.650   2.631   8.726
    2AU     LIG  599   4.280   2.345   8.779
    2AU       S  600   5.914   3.723   8.599
    2AU     LIG  601   5.851   3.423   8.923
    2AU     LIG  602   5.788   3.408   9.385
    2AU     LIG  603   5.561   3.443   9.795
    2AU     LIG  604   5.322   3.508  10.193
    2AU    AUSL  605   5.914   3.903   6.833
    2AU    AUSL  606   6.019   3.499   6.933
    2AU     AUL  607   6.155   3.522   6.620
    2AU       S  608   5.672   3.896   6.484
    2AU     LIG  609   5.364   3.661   6.209
    2AU     LIG  610   5.318   3.553   5.741
    2AU     LIG  611   5.177   3.615   5.280
    2AU     LIG  612   4.855   3.852   5.020
    2AU       S  613   5.657   3.388   6.594
    2AU     LIG  614   5.470   3.056   6.308
    2AU     LIG  615   5.171   2.687   6.270
    2AU     LIG  616   4.911   2.339   6.086
    2AU     LIG  617   4.947   2.021   5.719
    2AU    AUSL  618   6.204   4.103   6.742
    2AU    AUSL  619   5.782   4.212   6.992
    2AU     AUL  620   5.947   4.290   6.658
    2AU       S  621   5.455   4.416   6.715
    2AU     LIG  622   5.222   4.758   6.449
    2AU     LIG  623   5.061   4.961   6.052
    2AU     LIG  624   4.743   4.966   5.691
    2AU     LIG  625   4.383   4.969   5.373
    2AU       S  626   5.931   4.008   6.251
    2AU     LIG  627   5.708   3.882   5.847
    2AU     LIG  628   5.660   3.772   5.390
    2AU     LIG  629   5.667   3.763   4.918
    2AU     LIG  630   5.840   3.900   4.495
    2AU    AUSL  631   7.004   4.310   7.501
    2AU    AUSL  632   6.985   4.201   7.132
    2AU     AUL  633   7.075   4.613   7.400
    2AU       S  634   7.305   4.413   6.925
    2AU     LIG  635   7.523   4.409   6.521
    2AU     LIG  636   7.744   4.672   6.205
    2AU     LIG  637   7.933   4.959   5.870
    2AU     LIG  638   8.026   5.028   5.408
    2AU       S  639   7.519   4.370   7.362
    2AU     LIG  640   7.994   4.539   7.348
    2AU     LIG  641   8.441   4.634   7.544
    2AU     LIG  642   8.756   4.891   7.814
    2AU     LIG  643   9.176   5.107   7.738
    2AU    AUSL  644   7.125   3.985   7.381
    2AU    AUSL  645   7.054   3.702   7.659
    2AU     AUL  646   7.360   3.860   7.741
    2AU       S  647   7.508   4.059   7.258
    2AU     LIG  648   7.998   4.036   7.243
    2AU     LIG  649   8.453   4.229   7.209
    2AU     LIG  650   8.869   4.396   7.006
    2AU     LIG  651   9.304   4.654   7.002
    2AU       S  652   7.513   3.385   7.574
    2AU     LIG  653   7.946   3.245   7.757
    2AU     LIG  654   8.373   3.025   7.751
    2AU     LIG  655   8.847   2.987   7.815
    2AU     LIG  656   9.306   3.001   7.979
    2AU    AUSL  657   7.057   4.042   7.720
    2AU    AUSL  658   6.861   4.452   7.798
    2AU     AUL  659   7.198   4.323   7.820
    2AU       S  660   7.150   4.689   8.171
    2AU     LIG  661   7.477   4.968   8.413
    2AU     LIG  662   7.818   5.220   8.643
    2AU     LIG  663   8.172   5.453   8.876
    2AU     LIG  664   8.543   5.775   8.837
    2AU       S  665   7.601   4.228   7.521
    2AU     LIG  666   8.024   4.205   7.733
    2AU     LIG  667   8.488   4.138   7.719
    2AU     LIG  668   8.925   4.286   7.754
    2AU     LIG  669   9.199   4.615   7.927
    2AU    AUSL  670   5.775   4.455   7.509
    2AU    AUSL  671   5.751   4.276   7.911
    2AU     AUL  672   5.464   4.481   7.683
    2AU       S  673   5.479   4.432   8.205
    2AU     LIG  674   5.421   4.506   8.665
    2AU     LIG  675   5.294   4.803   9.014
    2AU     LIG  676   4.980   4.902   9.370
    2AU     LIG  677   4.543   5.002   9.526
    2AU       S  678   5.684   4.930   7.488
    2AU     LIG  679   5.376   5.295   7.351
    2AU     LIG  680   4.945   5.554   7.397
    2AU     LIG  681   4.452   5.616   7.398
    2AU     LIG  682   3.964   5.646   7.351
    2AU    AUSL  683   5.638   4.120   7.285
    2AU    AUSL  684   5.889   4.509   7.185
    2AU     AUL  685   5.523   4.435   7.236
    2AU       S  686   5.268   4.007   6.927
    2AU     LIG  687   4.819   4.256   6.940
    2AU     LIG  688   4.328   4.418   7.013
    2AU     LIG  689   3.861   4.622   7.026
    2AU     LIG  690   3.474   4.921   7.011
    2AU       S  691   5.672   4.876   6.997
    2AU     LIG  692   5.355   5.142   6.800
    2AU     LIG  693   5.224   5.342   6.395
    2AU     LIG  694   5.051   5.771   6.240
    2AU     LIG  695   5.015   6.246   6.218
    2AU    AUSL  696   5.594   4.126   7.652
    2AU    AUSL  697   5.552   3.800   7.348
    2AU     AUL  698   5.320   4.153   7.420
    2AU       S  699   5.067   3.701   7.429
    2AU     LIG  700   4.578   3.634   7.358
    2AU     LIG  701   4.095   3.566   7.274
    2AU     LIG  702   3.618   3.524   7.187
    2AU     LIG  703   3.193   3.313   7.073
    2AU       S  704   5.169   4.126   7.931
    2AU     LIG  705   4.669   4.211   7.979
    2AU     LIG  706   4.198   4.414   8.056
    2AU     LIG  707   3.774   4.675   8.156
    2AU     LIG  708   3.373   4.874   7.927
    2AU    AUSL  709   6.938   3.387   7.566
    2AU    AUSL  710   6.863   3.576   7.920
    2AU     AUL  711   7.193   3.570   7.922
    2AU       S  712   7.328   3.177   7.612
    2AU     LIG  713   7.663   2.872   7.536
    2AU     LIG  714   8.091   2.698   7.475
    2AU     LIG  715   8.570   2.610   7.509
    2AU     LIG  716   9.042   2.504   7.470
    2AU       S  717   7.105   3.112   8.106
    2AU     LIG  718   7.326   2.807   8.403
    2AU     LIG  719   7.586   2.527   8.683
    2AU     LIG  720   7.836   2.432   9.069
    2AU     LIG  721   8.212   2.545   9.345
    2AU    AUSL  722   7.069   3.649   7.316
    2AU    AUSL  723   6.751   3.326   7.241
    2AU     AUL  724   7.065   3.298   7.200
    2AU       S  725   7.506   3.495   7.349
    2AU     LIG  726   7.922   3.225   7.251
    2AU     LIG  727   8.381   3.038   7.224
    2AU     LIG  728   8.857   2.916   7.203
    2AU     LIG  729   9.310   2.789   7.091
    2AU       S  730   7.011   3.106   6.735
    2AU     LIG  731   7.190   2.696   6.608
    2AU     LIG  732   7.380   2.293   6.458
    2AU     LIG  733   7.702   2.012   6.264
    2AU     LIG  734   8.088   1.871   6.035
    2AU    AUSL  735   5.660   3.490   7.524
    2AU    AUSL  736   5.729   3.693   7.054
    2AU     AUL  737   5.476   3.454   7.234
    2AU       S  738   5.451   3.545   6.730
    2AU     LIG  739   5.077   3.320   6.502
    2AU     LIG  740   4.767   2.946   6.464
    2AU     LIG  741   4.413   2.654   6.303
    2AU     LIG  742   4.174   2.447   5.940
    2AU       S  743   5.101   3.469   7.563
    2AU     LIG  744   4.759   3.188   7.535
    2AU     LIG  745   4.301   3.158   7.529
    2AU     LIG  746   3.972   2.915   7.735
    2AU     LIG  747   3.894   2.478   7.671
    2AU    AUSL  748   5.578   3.788   7.709
    2AU    AUSL  749   5.833   3.359   7.808
    2AU     AUL  750   5.506   3.464   7.864
    2AU       S  751   5.618   3.155   8.247
    2AU     LIG  752   5.295   2.834   8.277
    2AU     LIG  753   4.962   2.507   8.323
    2AU     LIG  754   4.720   2.160   8.517
    2AU     LIG  755   4.668   1.742   8.711
    2AU       S  756   5.103   3.716   7.666
    2AU     LIG  757   4.689   3.607   7.856
    2AU     LIG  758   4.222   3.594   7.776
    2AU     LIG  759   3.786   3.403   7.671
    2AU     LIG  760   3.393   3.319   7.917
    2AU    AUSL  761   6.343   4.565   7.948
    2AU    AUSL  762   5.973   4.559   7.794
    2AU     AUL  763   6.146   4.634   8.215
    2AU       S  764   5.740   4.880   7.977
    2AU     LIG  765   5.400   5.153   8.244
    2AU     LIG  766   5.360   5.574   8.496
    2AU     LIG  767   5.213   6.040   8.613
    2AU     LIG  768   4.846   6.364   8.762
    2AU       S  769   6.237   5.071   7.990
    2AU     LIG  770   6.291   5.324   8.354
    2AU     LIG  771   6.331   5.735   8.528
    2AU     LIG  772   6.370   6.016   8.886
    2AU     LIG  773   6.286   6.282   9.259
    2AU    AUSL  774   6.255   4.696   7.610
    2AU    AUSL  775   6.530   4.656   7.338
    2AU     AUL  776   6.712   4.872   7.528
    2AU       S  777   6.136   5.101   7.707
    2AU     LIG  778   6.207   5.603   7.911
    2AU     LIG  779   6.163   6.026   8.131
    2AU     LIG  780   6.040   6.493   8.065
    2AU     LIG  781   6.011   6.974   7.940
    2AU       S  782   6.390   5.144   7.241
    2AU     LIG  783   6.485   5.590   7.071
    2AU     LIG  784   6.598   6.033   6.865
    2AU     LIG  785   6.635   6.528   6.768
    2AU     LIG  786   6.794   7.006   6.729
    2AU    AUSL  787   6.570   4.600   7.684
    2AU    AUSL  788   6.634   4.390   8.061
    2AU     AUL  789   6.676   4.751   7.973
    2AU       S  790   6.943   4.570   8.376
    2AU     LIG  791   7.223   4.677   8.745
    2AU     LIG  792   7.517   4.953   8.971
    2AU     LIG  793   7.707   5.167   9.343
    2AU     LIG  794   7.847   5.264   9.789
    2AU       S  795   6.404   5.160   7.792
    2AU     LIG  796   6.674   5.457   8.036
    2AU     LIG  797   6.662   5.909   8.165
    2AU     LIG  798   6.572   6.385   8.168
    2AU     LIG  799   6.736   6.853   8.127
    2AU    AUSL  800   6.328   3.288   7.936
    2AU    AUSL  801   6.684   3.284   7.820
    2AU     AUL  802   6.436   3.186   8.203
    2AU       S  803   6.465   2.736   7.991
    2AU     LIG  804   6.384   2.377   8.268
    2AU     LIG  805   6.104   2.009   8.357
    2AU     LIG  806   6.009   1.555   8.429
    2AU     LIG  807   6.094   1.093   8.470
    2AU       S  808   6.908   2.994   7.977
    2AU     LIG  809   6.916   2.574   8.200
    2AU     LIG  810   7.245   2.262   8.386
    2AU     LIG  811   7.492   1.907   8.625
    2AU     LIG  812   7.694   1.448   8.649
    2AU    AUSL  813   6.112   3.225   7.663
    2AU    AUSL  814   6.056   3.446   8.077
    2AU     AUL  815   6.035   3.074   7.972
    2AU       S  816   6.291   2.640   7.787
    2AU     LIG  817   6.104   2.189   7.857
    2AU     LIG  818   5.943   1.713   7.939
    2AU     LIG  819   5.790   1.243   8.054
    2AU     LIG  820   5.647   0.883   8.348
    2AU       S  821   5.867   3.260   8.432
    2AU     LIG  822   5.546   3.006   8.723
    2AU     LIG  823   5.191   2.674   8.763
    2AU     LIG  824   4.979   2.288   8.953
    2AU     LIG  825   4.983   1.959   9.307
    2AU    AUSL  826   6.430   3.124   7.644
    2AU    AUSL  827   6.090   3.174   7.317
    2AU     AUL  828   5.979   2.969   7.594
    2AU       S  829   6.122   2.704   7.182
    2AU     LIG  830   5.835   2.387   7.023
    2AU     LIG  831   5.754   1.943   7.107
    2AU     LIG  832   5.697   1.524   6.924
    2AU     LIG  833   5.812   1.099   6.811
    2AU       S  834   6.557   2.744   7.714
    2AU     LIG  835   6.626   2.260   7.835
    2AU     LIG  836   6.448   1.831   8.012
    2AU     LIG  837   6.332   1.350   8.067
    2AU     LIG  838   6.531   0.938   8.244
    2AU    AUSL  839   6.405   4.544   7.019
    2AU    AUSL  840   6.804   4.467   7.242
    2AU     AUL  841   6.710   4.738   7.030
    2AU       S  842   6.346   5.088   6.953
    2AU     LIG  843   6.368   5.413   6.600
    2AU     LIG  844   6.441   5.835   6.393
    2AU     LIG  845   6.357   6.205   6.118
    2AU     LIG  846   6.340   6.435   5.697
    2AU       S  847   7.218   4.668   6.920
    2AU     LIG  848   7.505   4.919   6.617
    2AU     LIG  849   7.784   5.175   6.327
    2AU     LIG  850   8.167   5.440   6.217
    2AU     LIG  851   8.458   5.810   6.329
    2AU    AUSL  852   6.181   4.654   7.274
    2AU    AUSL  853   6.107   4.354   6.965
    2AU     AUL  854   6.119   4.648   6.868
    2AU       S  855   6.107   5.061   7.205
    2AU     LIG  856   5.959   5.406   6.918
    2AU     LIG  857   6.128   5.833   6.798
    2AU     LIG  858   6.207   6.269   6.613
    2AU     LIG  859   6.081   6.715   6.757
    2AU       S  860   5.633   4.687   6.746
    2AU     LIG  861   5.668   5.019   6.412
    2AU     LIG  862   5.534   5.187   5.991
    2AU     LIG  863   5.501   5.382   5.557
    2AU     LIG  864   5.236   5.630   5.251
    2AU    AUSL  865   6.284   3.267   7.021
    2AU    AUSL  866   5.827   3.384   7.215
    2AU     AUL  867   5.946   3.144   6.974
    2AU       S  868   5.495   3.254   6.779
    2AU     LIG  869   5.216   2.881   6.751
    2AU     LIG  870   4.926   2.507   6.693
    2AU     LIG  871   4.600   2.229   6.508
    2AU     LIG  872   4.169   2.118   6.358
    2AU       S  873   6.263   2.748   6.933
    2AU     LIG  874   6.238   2.370   6.700
    2AU     LIG  875   6.074   1.945   6.706
    2AU     LIG  876   6.110   1.488   6.619
    2AU     LIG  877   5.995   1.139   6.335
    2AU    AUSL  878   6.451   3.159   7.314
    2AU    AUSL  879   6.577   3.423   6.931
    2AU     AUL  880   6.629   3.070   7.051
    2AU       S  881   6.375   2.672   7.252
    2AU     LIG  882   6.268   2.168   7.183
    2AU     LIG  883   6.190   1.657   7.121
    2AU     LIG  884   6.318   1.196   7.004
    2AU     LIG  885   6.670   0.901   6.821
    2AU       S  886   6.758   3.230   6.583
    2AU     LIG  887   6.842   2.918   6.274
    2AU     LIG  888   7.090   2.574   6.112
    2AU     LIG  889   7.406   2.294   5.933
    2AU     LIG  890   7.698   2.186   5.589
    3AU     AUC  891   4.066  14.169   7.504
    3AU     AUC  892   4.339  14.151   7.348
    3AU     AUC  893   4.326  14.152   7.675
    3AU     AUC  894   3.804  14.183   7.335
    3AU     AUC  895   3.797  14.189   7.664
    3AU     AUC  896   3.920  14.445   7.495
    3AU     AUC  897   4.250  14.423   7.506
    3AU     AUC  898   3.882  13.911   7.502
    3AU     AUC  899   4.210  13.888   7.506
    3AU     AUC  900   4.047  14.008   7.770
    3AU     AUC  901   4.071  14.336   7.770
    3AU     AUC  902   4.064  14.002   7.239
    3AU     AUC  903   4.088  14.332   7.234
    3AU     AUC  904   4.610  14.137   7.211
    3AU     AUC  905   4.606  14.126   7.517
    3AU     AUC  906   4.570  14.131   7.843
    3AU     AUC  907   3.555  14.189   7.165
    3AU     AUC  908   3.524  14.197   7.502
    3AU     AUC  909   3.542  14.213   7.826
    3AU     AUC  910   3.787  14.721   7.483
    3AU     AUC  911   4.098  14.706   7.486
    3AU     AUC  912   4.425  14.666   7.511
    3AU     AUC  913   3.702  13.665   7.505
    3AU     AUC  914   4.028  13.623   7.495
    3AU     AUC  915   4.349  13.612   7.518
    3AU     AUC  916   4.033  13.851   8.031
    3AU     AUC  917   4.046  14.178   8.055
    3AU     AUC  918   4.077  14.502   8.027
    3AU     AUC  919   4.072  13.841   6.986
    3AU     AUC  920   4.110  14.172   6.961
    3AU     AUC  921   4.117  14.489   6.971
    3AU     AUC  922   4.299  13.984   7.949
    3AU     AUC  923   4.337  14.325   7.954
    3AU     AUC  924   4.345  13.983   7.081
    3AU     AUC  925   4.378  14.341   7.080
    3AU     AUC  926   3.779  14.028   7.943
    3AU     AUC  927   3.798  14.361   7.938
    3AU     AUC  928   3.799  14.014   7.068
    3AU     AUC  929   3.820  14.333   7.048
    3AU     AUC  930   4.535  14.408   7.358
    3AU     AUC  931   4.519  14.415   7.694
    3AU     AUC  932   3.649  14.468   7.315
    3AU     AUC  933   3.647  14.482   7.661
    3AU     AUC  934   4.494  13.859   7.352
    3AU     AUC  935   4.472  13.859   7.678
    3AU     AUC  936   3.600  13.923   7.342
    3AU     AUC  937   3.607  13.918   7.680
    3AU     AUC  938   3.932  14.629   7.759
    3AU     AUC  939   4.261  14.596   7.779
    3AU     AUC  940   3.870  13.743   7.778
    3AU     AUC  941   4.198  13.718   7.779
    3AU     AUC  942   3.932  14.614   7.219
    3AU     AUC  943   4.266  14.602   7.227
    3AU     AUC  944   3.871  13.732   7.227
    3AU     AUC  945   4.205  13.711   7.231
    3AU    AUSL  946   4.460  14.093   8.144
    3AU    AUSL  947   4.338  13.736   8.118
    3AU     AUL  948   4.727  13.910   8.262
    3AU       S  949   4.648  13.394   8.305
    3AU     LIG  950   4.548  13.017   8.515
    3AU     LIG  951   4.810  12.722   8.747
    3AU     LIG  952   5.102  12.528   9.054
    3AU     LIG  953   5.395  12.199   9.208
    3AU       S  954   4.436  13.788   8.661
    3AU     LIG  955   4.588  14.037   9.056
    3AU     LIG  956   4.890  14.027   9.421
    3AU     LIG  957   5.226  13.891   9.732
    3AU     LIG  958   5.596  13.786  10.005
    3AU    AUSL  959   4.138  13.987   8.266
    3AU    AUSL  960   3.920  14.337   8.272
    3AU     AUL  961   4.183  14.238   8.555
    3AU       S  962   4.097  13.744   8.650
    3AU     LIG  963   4.132  13.772   9.109
    3AU     LIG  964   4.473  13.687   9.428
    3AU     LIG  965   4.737  13.720   9.814
    3AU     LIG  966   4.825  13.676  10.266
    3AU       S  967   3.716  14.180   8.739
    3AU     LIG  968   3.716  14.097   9.184
    3AU     LIG  969   3.393  14.118   9.523
    3AU     LIG  970   3.177  14.163   9.935
    3AU     LIG  971   3.034  14.425  10.294
    3AU    AUSL  972   4.258  14.381   8.238
    3AU    AUSL  973   4.637  14.394   8.024
    3AU     AUL  974   4.580  14.273   8.411
    3AU       S  975   4.262  14.734   8.597
    3AU     LIG  976   4.562  14.593   8.952
    3AU     LIG  977   4.691  14.516   9.403
    3AU     LIG  978   4.613  14.646   9.861
    3AU     LIG  979   4.542  14.751  10.327
    3AU       S  980   4.892  14.664   8.318
    3AU     LIG  981   5.311  14.727   8.452
    3AU     LIG  982   5.625  14.911   8.720
    3AU     LIG  983   5.792  15.187   9.054
    3AU     LIG  984   5.854  15.372   9.482
    3AU    AUSL  985   4.545  14.189   6.944
    3AU    AUSL  986   4.418  14.619   6.922
    3AU     AUL  987   4.658  14.418   6.730
    3AU       S  988   4.697  14.057   6.377
    3AU     LIG  989   5.008  14.071   6.078
    3AU     LIG  990   5.055  14.032   5.635
    3AU     LIG  991   5.144  14.028   5.187
    3AU     LIG  992   5.508  13.997   4.889
    3AU       S  993   4.785  14.895   6.670
    3AU     LIG  994   4.919  15.096   6.257
    3AU     LIG  995   5.167  15.390   5.979
    3AU     LIG  996   5.395  15.526   5.593
    3AU     LIG  997   5.606  15.693   5.197
    3AU    AUSL  998   4.330  13.983   6.775
    3AU    AUSL  999   4.608  13.846   7.037
    3AU     AUL 1000   4.809  14.056   6.861
    3AU       S 1001   4.781  13.592   6.651
    3AU     LIG 1002   5.066  13.396   6.340
    3AU     LIG 1003   5.205  13.003   6.138
    3AU     LIG 1004   5.558  12.770   5.972
    3AU     LIG 1005   6.011  12.819   5.849
    3AU       S 1006   4.525  13.916   6.371
    3AU     LIG 1007   4.708  13.642   6.058
    3AU     LIG 1008   4.720  13.645   5.591
    3AU     LIG 1009   4.752  13.688   5.125
    3AU     LIG 1010   4.814  13.439   4.733
    3AU    AUSL 1011   4.285  14.340   6.743
    3AU    AUSL 1012   3.960  14.006   6.798
    3AU     AUL 1013   4.088  14.117   6.504
    3AU       S 1014   3.587  14.020   6.326
    3AU     LIG 1015   3.488  13.659   6.035
    3AU     LIG 1016   3.449  13.616   5.568
    3AU     LIG 1017   3.241  13.608   5.141
    3AU     LIG 1018   3.277  13.608   4.652
    3AU       S 1019   4.509  14.264   6.270
    3AU     LIG 1020   4.550  14.083   5.838
    3AU     LIG 1021   4.623  14.132   5.375
    3AU     LIG 1022   4.798  14.398   5.038
    3AU     LIG 1023   4.845  14.705   4.689
    3AU    AUSL 1024   3.596  14.278   8.137
    3AU    AUSL 1025   3.796  14.605   8.061
    3AU     AUL 1026   3.699  14.579   8.406
    3AU       S 1027   3.444  14.182   8.631
    3AU     LIG 1028   3.251  13.988   9.001
    3AU     LIG 1029   3.024  13.797   9.355
    3AU     LIG 1030   2.820  13.844   9.755
    3AU     LIG 1031   2.733  13.971  10.193
    3AU       S 1032   3.364  14.939   8.210
    3AU     LIG 1033   3.323  15.072   8.653
    3AU     LIG 1034   3.197  15.341   9.001
    3AU     LIG 1035   2.905  15.645   9.174
    3AU     LIG 1036   2.683  15.725   9.572
    3AU    AUSL 1037   3.785  14.007   8.222
    3AU    AUSL 1038   3.520  13.921   7.978
    3AU     AUL 1039   3.322  14.097   8.153
    3AU       S 1040   3.349  13.640   8.380
    3AU     LIG 1041   2.920  13.537   8.503
    3AU     LIG 1042   2.581  13.234   8.486
    3AU     LIG 1043   2.383  12.904   8.732
    3AU     LIG 1044   2.205  12.570   9.005
    3AU       S 1045   3.651  13.968   8.601
    3AU     LIG 1046   3.634  13.657   8.920
    3AU     LIG 1047   3.519  13.639   9.363
    3AU     LIG 1048   3.305  13.669   9.787
    3AU     LIG 1049   3.033  13.547  10.159
    3AU    AUSL 1050   3.650  14.151   6.833
    3AU    AUSL 1051   3.755  13.750   6.933
    3AU     AUL 1052   3.891  13.771   6.620
    3AU       S 1053   3.409  14.149   6.478
    3AU     LIG 1054   3.091  13.902   6.229
    3AU     LIG 1055   3.011  13.796   5.769
    3AU     LIG 1056   2.829  13.883   5.334
    3AU     LIG 1057   2.469  14.067   5.080
    3AU       S 1058   3.391  13.644   6.592
    3AU     LIG 1059   3.121  13.361   6.302
    3AU     LIG 1060   2.918  12.933   6.193
    3AU     LIG 1061   2.708  12.615   5.902
    3AU     LIG 1062   2.505  12.411   5.520
    3AU    AUSL 1063   3.938  14.353   6.744
    3AU    AUSL 1064   3.514  14.454   6.992
    3AU     AUL 1065   3.688  14.540   6.655
    3AU       S 1066   3.189  14.617   6.717
    3AU     LIG 1067   2.800  14.794   6.550
    3AU     LIG 1068   2.661  14.991   6.155
    3AU     LIG 1069   2.511  15.292   5.832
    3AU     LIG 1070   2.315  15.315   5.405
    3AU       S 1071   3.663  14.258   6.248
    3AU     LIG 1072   3.404  14.134   5.857
    3AU     LIG 1073   3.302  14.079   5.395
    3AU     LIG 1074   3.278  14.075   4.916
    3AU     LIG 1075   3.383  14.211   4.470
    3AU    AUSL 1076   4.735  14.572   7.498
    3AU    AUSL 1077   4.716  14.460   7.128
    3AU     AUL 1078   4.803  14.875   7.384
    3AU       S 1079   5.042  14.686   6.909
    3AU     LIG 1080   5.219  14.714   6.465
    3AU     LIG 1081   5.449  15.006   6.168
    3AU     LIG 1082   5.742  15.315   5.926
    3AU     LIG 1083   6.140  15.563   5.783
    3AU       S 1084   5.246  14.631   7.352
    3AU     LIG 1085   5.719  14.810   7.348
    3AU     LIG 1086   6.179  14.975   7.465
    3AU     LIG 1087   6.623  15.159   7.515
    3AU     LIG 1088   6.911  15.508   7.649
    3AU    AUSL 1089   4.854  14.244   7.380
    3AU    AUSL 1090   4.787  13.963   7.660
    3AU     AUL 1091   5.091  14.128   7.744
    3AU       S 1092   5.234  14.318   7.253
    3AU     LIG 1093   5.715  14.293   7.257
    3AU     LIG 1094   6.147  14.500   7.261
    3AU     LIG 1095   6.596  14.690   7.283
    3AU     LIG 1096   7.012  14.806   7.082
    3AU       S 1097   5.238  13.658   7.563
    3AU     LIG 1098   5.602  13.423   7.730
    3AU     LIG 1099   6.049  13.285   7.752
    3AU     LIG 1100   6.398  13.054   7.982
    3AU     LIG 1101   6.853  13.139   8.073
    3AU    AUSL 1102   4.785  14.304   7.717
    3AU    AUSL 1103   4.590  14.710   7.796
    3AU     AUL 1104   4.928  14.582   7.819
    3AU       S 1105   4.878  14.949   8.167
    3AU     LIG 1106   5.176  15.219   8.430
    3AU     LIG 1107   5.533  15.419   8.660
    3AU     LIG 1108   5.776  15.750   8.872
    3AU     LIG 1109   5.928  16.198   8.773
    3AU       S 1110   5.322  14.494   7.509
    3AU     LIG 1111   5.720  14.488   7.744
    3AU     LIG 1112   6.180  14.556   7.770
    3AU     LIG 1113   6.619  14.714   7.799
    3AU     LIG 1114   6.966  14.813   8.097
    3AU    AUSL 1115   3.504  14.701   7.510
    3AU    AUSL 1116   3.482  14.524   7.916
    3AU     AUL 1117   3.194  14.724   7.688
    3AU       S 1118   3.206  14.676   8.208
    3AU     LIG 1119   3.086  14.615   8.653
    3AU     LIG 1120   2.942  14.889   9.012
    3AU     LIG 1121   2.691  15.186   9.282
    3AU     LIG 1122   2.301  15.398   9.448
    3AU       S 1123   3.404  15.168   7.478
    3AU     LIG 1124   2.972  15.304   7.275
    3AU     LIG 1125   2.534  15.523   7.199
    3AU     LIG 1126   2.100  15.736   7.299
    3AU     LIG 1127   1.719  15.646   7.557
    3AU    AUSL 1128   3.373  14.365   7.287
    3AU    AUSL 1129   3.615  14.757   7.185
    3AU     AUL 1130   3.254  14.677   7.236
    3AU       S 1131   2.976  14.248   6.957
    3AU     LIG 1132   2.630  14.613   7.010
    3AU     LIG 1133   2.129  14.711   7.047
    3AU     LIG 1134   1.686  14.849   6.899
    3AU     LIG 1135   1.321  15.176   6.817
    3AU       S 1136   3.369  15.113   6.982
    3AU     LIG 1137   2.965  15.262   6.746
    3AU     LIG 1138   2.774  15.469   6.347
    3AU     LIG 1139   2.574  15.882   6.162
    3AU     LIG 1140   2.443  16.357   6.206
    3AU    AUSL 1141   3.332  14.371   7.656
    3AU    AUSL 1142   3.289  14.044   7.351
    3AU     AUL 1143   3.067  14.406   7.434
    3AU       S 1144   2.819  13.952   7.415
    3AU     LIG 1145   2.369  13.848   7.324
    3AU     LIG 1146   1.928  13.865   7.220
    3AU     LIG 1147   1.598  13.536   7.177
    3AU     LIG 1148   1.188  13.449   6.937
    3AU       S 1149   2.898  14.369   7.933
    3AU     LIG 1150   2.409  14.469   7.941
    3AU     LIG 1151   1.998  14.702   7.856
    3AU     LIG 1152   1.595  14.927   7.919
    3AU     LIG 1153   1.164  15.030   8.085
    3AU    AUSL 1154   4.672  13.648   7.570
    3AU    AUSL 1155   4.599  13.840   7.925
    3AU     AUL 1156   4.928  13.835   7.925
    3AU       S 1157   5.061  13.441   7.616
    3AU     LIG 1158   5.337  13.194   7.349
    3AU     LIG 1159   5.775  13.072   7.361
    3AU     LIG 1160   6.061  12.805   7.577
    3AU     LIG 1161   6.400  12.579   7.435
    3AU       S 1162   4.841  13.380   8.116
    3AU     LIG 1163   5.052  13.089   8.416
    3AU     LIG 1164   5.321  12.839   8.695
    3AU     LIG 1165   5.620  12.599   8.961
    3AU     LIG 1166   6.000  12.585   9.241
    3AU    AUSL 1167   4.799  13.908   7.317
    3AU    AUSL 1168   4.484  13.583   7.246
    3AU     AUL 1169   4.795  13.553   7.204
    3AU       S 1170   5.233  13.765   7.344
    3AU     LIG 1171   5.679  13.578   7.247
    3AU     LIG 1172   6.151  13.420   7.234
    3AU     LIG 1173   6.617  13.304   7.042
    3AU     LIG 1174   6.922  13.034   6.780
    3AU       S 1175   4.749  13.354   6.740
    3AU     LIG 1176   4.941  12.947   6.589
    3AU     LIG 1177   5.156  12.552   6.423
    3AU     LIG 1178   5.326  12.098   6.352
    3AU     LIG 1179   5.657  11.745   6.335
    3AU    AUSL 1180   3.399  13.739   7.527
    3AU    AUSL 1181   3.464  13.944   7.058
    3AU     AUL 1182   3.219  13.682   7.243
    3AU       S 1183   3.188  13.819   6.747
    3AU     LIG 1184   2.787  13.646   6.577
    3AU     LIG 1185   2.593  13.248   6.439
    3AU     LIG 1186   2.390  12.940   6.156
    3AU     LIG 1187   2.242  12.809   5.728
    3AU       S 1188   2.830  13.725   7.561
    3AU     LIG 1189   2.444  13.477   7.649
    3AU     LIG 1190   2.045  13.367   7.418
    3AU     LIG 1191   1.680  13.095   7.510
    3AU     LIG 1192   1.325  13.001   7.820
    3AU    AUSL 1193   3.312  14.035   7.712
    3AU    AUSL 1194   3.571  13.607   7.810
    3AU     AUL 1195   3.237  13.709   7.862
    3AU       S 1196   3.354  13.403   8.248
    3AU     LIG 1197   3.042  13.073   8.290
    3AU     LIG 1198   2.724  12.738   8.374
    3AU     LIG 1199   2.474  12.405   8.587
    3AU     LIG 1200   2.273  11.987   8.681
    3AU       S 1201   2.836  13.968   7.656
    3AU     LIG 1202   2.396  13.973   7.809
    3AU     LIG 1203   1.986  13.762   7.723
    3AU     LIG 1204   1.535  13.570   7.700
    3AU     LIG 1205   1.059  13.538   7.802
    3AU    AUSL 1206   4.071  14.819   7.950
    3AU    AUSL 1207   3.702  14.806   7.796
    3AU     AUL 1208   3.872  14.875   8.224
    3AU       S 1209   3.476  15.123   7.970
    3AU     LIG 1210   3.245  15.431   8.287
    3AU     LIG 1211   3.009  15.669   8.645
    3AU     LIG 1212   2.840  16.077   8.857
    3AU     LIG 1213   2.718  16.558   8.880
    3AU       S 1214   3.963  15.308   7.995
    3AU     LIG 1215   4.102  15.526   8.360
    3AU     LIG 1216   4.326  15.885   8.529
    3AU     LIG 1217   4.316  16.330   8.643
    3AU     LIG 1218   4.200  16.735   8.840
    3AU    AUSL 1219   3.980  14.948   7.609
    3AU    AUSL 1220   4.255  14.911   7.338
    3AU     AUL 1221   4.433  15.130   7.534
    3AU       S 1222   3.865  15.337   7.697
    3AU     LIG 1223   3.809  15.777   7.982
    3AU     LIG 1224   3.988  16.156   8.239
    3AU     LIG 1225   3.997  16.631   8.357
    3AU     LIG 1226   3.836  17.094   8.375
    3AU       S 1227   4.124  15.395   7.231
    3AU     LIG 1228   4.426  15.726   7.070
    3AU     LIG 1229   4.575  16.083   6.795
    3AU     LIG 1230   4.549  16.543   6.643
    3AU     LIG 1231   4.567  17.040   6.658
    3AU    AUSL 1232   4.295  14.853   7.684
    3AU    AUSL 1233   4.365  14.648   8.060
    3AU     AUL 1234   4.406  15.007   7.968
    3AU       S 1235   4.676  14.830   8.370
    3AU     LIG 1236   4.921  14.919   8.759
    3AU     LIG 1237   5.249  15.145   8.985
    3AU     LIG 1238   5.427  15.516   9.198
    3AU     LIG 1239   5.480  15.724   9.616
    3AU       S 1240   4.128  15.417   7.803
    3AU     LIG 1241   4.327  15.813   7.999
    3AU     LIG 1242   4.496  16.230   8.167
    3AU     LIG 1243   4.514  16.691   8.304
    3AU     LIG 1244   4.704  17.104   8.442
    3AU    AUSL 1245   4.068  13.542   7.940
    3AU    AUSL 1246   4.421  13.547   7.827
    3AU     AUL 1247   4.164  13.460   8.214
    3AU       S 1248   4.232  13.008   8.015
    3AU     LIG 1249   4.174  12.696   8.334
    3AU     LIG 1250   3.923  12.328   8.460
    3AU     LIG 1251   3.906  11.863   8.489
    3AU     LIG 1252   4.021  11.405   8.576
    3AU       S 1253   4.654  13.271   7.981
    3AU     LIG 1254   4.739  12.837   8.081
    3AU     LIG 1255   5.052  12.573   8.320
    3AU     LIG 1256   5.311  12.320   8.631
    3AU     LIG 1257   5.526  11.926   8.780
    3AU    AUSL 1258   3.852  13.473   7.668
    3AU    AUSL 1259   3.793  13.696   8.079
    3AU     AUL 1260   3.772  13.325   7.974
    3AU       S 1261   4.060  12.909   7.835
    3AU     LIG 1262   3.854  12.510   7.967
    3AU     LIG 1263   3.672  12.086   8.068
    3AU     LIG 1264   3.678  11.613   8.095
    3AU     LIG 1265   3.420  11.211   8.075
    3AU       S 1266   3.603  13.509   8.431
    3AU     LIG 1267   3.301  13.271   8.736
    3AU     LIG 1268   2.926  12.986   8.788
    3AU     LIG 1269   2.728  12.619   8.995
    3AU     LIG 1270   2.538  12.462   9.402
    3AU    AUSL 1271   4.175  13.379   7.648
    3AU    AUSL 1272   3.826  13.424   7.321
    3AU     AUL 1273   3.743  13.201   7.593
    3AU       S 1274   3.858  12.950   7.164
    3AU     LIG 1275   3.615  12.598   6.973
    3AU     LIG 1276   3.599  12.128   7.022
    3AU     LIG 1277   3.597  11.667   6.902
    3AU     LIG 1278   3.459  11.305   6.615
    3AU       S 1279   4.312  12.999   7.724
    3AU     LIG 1280   4.369  12.519   7.889
    3AU     LIG 1281   4.190  12.103   8.074
    3AU     LIG 1282   4.227  11.624   8.155
    3AU     LIG 1283   4.494  11.261   8.357
    3AU    AUSL 1284   4.130  14.801   7.016
    3AU    AUSL 1285   4.529  14.719   7.242
    3AU     AUL 1286   4.442  14.991   7.038
    3AU       S 1287   4.083  15.333   6.932
    3AU     LIG 1288   4.263  15.619   6.597
    3AU     LIG 1289   4.310  16.019   6.358
    3AU     LIG 1290   4.254  16.464   6.214
    3AU     LIG 1291   4.195  16.753   5.832
    3AU       S 1292   4.939  14.929   6.901
    3AU     LIG 1293   5.249  15.199   6.636
    3AU     LIG 1294   5.528  15.490   6.361
    3AU     LIG 1295   5.887  15.780   6.177
    3AU     LIG 1296   6.230  16.132   6.055
    3AU    AUSL 1297   3.905  14.910   7.272
    3AU    AUSL 1298   3.836  14.604   6.966
    3AU     AUL 1299   3.830  14.904   6.873
    3AU       S 1300   3.841  15.336   7.186
    3AU     LIG 1301   3.927  15.809   6.958
    3AU     LIG 1302   4.090  16.254   6.764
    3AU     LIG 1303   4.068  16.738   6.627
    3AU     LIG 1304   3.801  17.038   6.373
    3AU       S 1305   3.340  14.904   6.734
    3AU     LIG 1306   3.172  15.068   6.318
    3AU     LIG 1307   3.030  15.281   5.924
    3AU     LIG 1308   2.892  15.387   5.490
    3AU     LIG 1309   2.745  15.619   5.116
    3AU    AUSL 1310   4.018  13.518   7.024
    3AU    AUSL 1311   3.570  13.640   7.218
    3AU     AUL 1312   3.674  13.395   6.980
    3AU       S 1313   3.241  13.540   6.765
    3AU     LIG 1314   2.982  13.187   6.777
    3AU     LIG 1315   2.763  12.808   6.680
    3AU     LIG 1316   2.569  12.520   6.397
    3AU     LIG 1317   2.249  12.423   6.077
    3AU       S 1318   4.005  13.009   6.929
    3AU     LIG 1319   4.004  12.684   6.634
    3AU     LIG 1320   3.849  12.267   6.598
    3AU     LIG 1321   3.879  11.816   6.499
    3AU     LIG 1322   3.858  11.444   6.226
    3AU    AUSL 1323   4.186  13.412   7.317
    3AU    AUSL 1324   4.310  13.677   6.933
    3AU     AUL 1325   4.368  13.329   7.055
    3AU       S 1326   4.120  12.931   7.254
    3AU     LIG 1327   4.085  12.451   7.092
    3AU     LIG 1328   4.094  11.970   6.948
    3AU     LIG 1329   4.312  11.560   6.760
    3AU     LIG 1330   4.743  11.282   6.718
    3AU       S 1331   4.494  13.480   6.582
    3AU     LIG 1332   4.609  13.169   6.261
    3AU     LIG 1333   4.760  12.755   6.118
    3AU     LIG 1334   5.101  12.519   5.910
    3AU     LIG 1335   5.428  12.444   5.583
    4AU     AUC 1336   6.883  24.789   7.500
    4AU     AUC 1337   7.154  24.773   7.340
    4AU     AUC 1338   7.149  24.773   7.668
    4AU     AUC 1339   6.617  24.803   7.334
    4AU     AUC 1340   6.616  24.808   7.664
    4AU     AUC 1341   6.736  25.066   7.492
    4AU     AUC 1342   7.067  25.044   7.501
    4AU     AUC 1343   6.700  24.531   7.501
    4AU     AUC 1344   7.029  24.510   7.500
    4AU     AUC 1345   6.870  24.629   7.767
    4AU     AUC 1346   6.892  24.957   7.765
    4AU     AUC 1347   6.879  24.623   7.235
    4AU     AUC 1348   6.896  24.951   7.229
    4AU     AUC 1349   7.417  24.768   7.186
    4AU     AUC 1350   7.429  24.751   7.504
    4AU     AUC 1351   7.399  24.752   7.831
    4AU     AUC 1352   6.363  24.807   7.169
    4AU     AUC 1353   6.340  24.816   7.506
    4AU     AUC 1354   6.363  24.831   7.829
    4AU     AUC 1355   6.604  25.341   7.483
    4AU     AUC 1356   6.915  25.329   7.480
    4AU     AUC 1357   7.241  25.287   7.502
    4AU     AUC 1358   6.521  24.284   7.504
    4AU     AUC 1359   6.850  24.245   7.489
    4AU     AUC 1360   7.170  24.233   7.505
    4AU     AUC 1361   6.859  24.472   8.030
    4AU     AUC 1362   6.871  24.798   8.050
    4AU     AUC 1363   6.901  25.121   8.022
    4AU     AUC 1364   6.888  24.468   6.983
    4AU     AUC 1365   6.910  24.789   6.956
    4AU     AUC 1366   6.913  25.100   6.963
    4AU     AUC 1367   7.127  24.606   7.943
    4AU     AUC 1368   7.163  24.946   7.945
    4AU     AUC 1369   7.161  24.621   7.066
    4AU     AUC 1370   7.181  24.953   7.070
    4AU     AUC 1371   6.603  24.645   7.943
    4AU     AUC 1372   6.621  24.979   7.937
    4AU     AUC 1373   6.610  24.635   7.067
    4AU     AUC 1374   6.622  24.952   7.043
    4AU     AUC 1375   7.348  25.029   7.347
    4AU     AUC 1376   7.350  25.031   7.685
    4AU     AUC 1377   6.462  25.088   7.318
    4AU     AUC 1378   6.465  25.101   7.663
    4AU     AUC 1379   7.307  24.481   7.338
    4AU     AUC 1380   7.291  24.480   7.670
    4AU     AUC 1381   6.413  24.540   7.342
    4AU     AUC 1382   6.428  24.535   7.681
    4AU     AUC 1383   6.752  25.249   7.757
    4AU     AUC 1384   7.081  25.216   7.772
    4AU     AUC 1385   6.693  24.364   7.777
    4AU     AUC 1386   7.023  24.342   7.773
    4AU     AUC 1387   6.741  25.232   7.211
    4AU     AUC 1388   7.076  25.220   7.224
    4AU     AUC 1389   6.685  24.354   7.229
    4AU     AUC 1390   7.027  24.334   7.223
    4AU    AUSL 1391   7.288  24.718   8.132
    4AU    AUSL 1392   7.167  24.363   8.114
    4AU     AUL 1393   7.564  24.555   8.248
    4AU       S 1394   7.486  24.033   8.314
    4AU     LIG 1395   7.404  23.606   8.499
    4AU     LIG 1396   7.537  23.291   8.816
    4AU     LIG 1397   7.864  23.050   9.011
    4AU     LIG 1398   8.032  22.698   9.244
    4AU       S 1399   7.282  24.409   8.643
    4AU     LIG 1400   7.530  24.454   9.044
    4AU     LIG 1401   7.814  24.402   9.427
    4AU     LIG 1402   8.081  24.351   9.821
    4AU     LIG 1403   8.495  24.389  10.054
    4AU    AUSL 1404   6.969  24.614   8.264
    4AU    AUSL 1405   6.746  24.953   8.272
    4AU     AUL 1406   7.016  24.867   8.555
    4AU       S 1407   6.952  24.370   8.647
    4AU     LIG 1408   7.031  24.274   9.095
    4AU     LIG 1409   7.353  24.137   9.421
    4AU     LIG 1410   7.633  24.070   9.796
    4AU     LIG 1411   7.816  23.943  10.208
    4AU       S 1412   6.552  24.783   8.740
    4AU     LIG 1413   6.525  24.713   9.198
    4AU     LIG 1414   6.292  24.710   9.609
    4AU     LIG 1415   6.193  24.829  10.055
    4AU     LIG 1416   6.259  25.145  10.418
    4AU    AUSL 1417   7.081  25.002   8.230
    4AU    AUSL 1418   7.467  25.013   8.005
    4AU     AUL 1419   7.403  24.903   8.399
    4AU       S 1420   7.085  25.368   8.578
    4AU     LIG 1421   7.360  25.464   8.943
    4AU     LIG 1422   7.440  25.537   9.406
    4AU     LIG 1423   7.461  25.522   9.880
    4AU     LIG 1424   7.374  25.669  10.320
    4AU       S 1425   7.740  25.267   8.295
    4AU     LIG 1426   8.168  25.366   8.352
    4AU     LIG 1427   8.391  25.594   8.672
    4AU     LIG 1428   8.582  25.843   9.018
    4AU     LIG 1429   8.722  26.142   9.346
    4AU    AUSL 1430   7.361  24.883   6.876
    4AU    AUSL 1431   7.219  25.212   6.937
    4AU     AUL 1432   7.133  25.247   6.626
    4AU       S 1433   7.565  24.925   6.463
    4AU     LIG 1434   7.882  24.765   6.167
    4AU     LIG 1435   7.952  24.554   5.766
    4AU     LIG 1436   8.085  24.541   5.310
    4AU     LIG 1437   8.434  24.399   5.008
    4AU       S 1438   7.624  25.368   6.670
    4AU     LIG 1439   7.719  25.548   6.258
    4AU     LIG 1440   7.947  25.889   6.030
    4AU     LIG 1441   8.268  26.131   5.783
    4AU     LIG 1442   8.345  26.390   5.387
    4AU    AUSL 1443   7.171  24.606   6.787
    4AU    AUSL 1444   7.407  24.486   7.030
    4AU     AUL 1445   7.632  24.661   6.893
    4AU       S 1446   7.599  24.216   6.637
    4AU     LIG 1447   7.906  23.991   6.362
    4AU     LIG 1448   8.041  23.584   6.184
    4AU     LIG 1449   8.366  23.320   5.992
    4AU     LIG 1450   8.750  23.371   5.710
    4AU       S 1451   7.454  24.624   6.395
    4AU     LIG 1452   7.587  24.303   6.091
    4AU     LIG 1453   7.567  24.250   5.613
    4AU     LIG 1454   7.658  24.302   5.134
    4AU     LIG 1455   7.782  24.178   4.675
    4AU    AUSL 1456   7.056  24.924   6.731
    4AU    AUSL 1457   6.776  24.626   6.780
    4AU     AUL 1458   6.959  24.600   6.494
    4AU       S 1459   6.475  24.662   6.305
    4AU     LIG 1460   6.506  24.355   5.979
    4AU     LIG 1461   6.263  24.197   5.629
    4AU     LIG 1462   6.065  24.222   5.203
    4AU     LIG 1463   6.088  24.187   4.723
    4AU       S 1464   7.338  24.900   6.306
    4AU     LIG 1465   7.456  24.748   5.873
    4AU     LIG 1466   7.602  24.733   5.431
    4AU     LIG 1467   7.708  24.835   4.997
    4AU     LIG 1468   7.613  25.207   4.701
    4AU    AUSL 1469   6.422  24.891   8.139
    4AU    AUSL 1470   6.620  25.221   8.062
    4AU     AUL 1471   6.521  25.188   8.410
    4AU       S 1472   6.285  24.777   8.642
    4AU     LIG 1473   6.080  24.551   8.998
    4AU     LIG 1474   5.861  24.489   9.420
    4AU     LIG 1475   5.613  24.466   9.836
    4AU     LIG 1476   5.186  24.567  10.068
    4AU       S 1477   6.188  25.551   8.216
    4AU     LIG 1478   6.213  25.724   8.646
    4AU     LIG 1479   6.137  25.984   9.006
    4AU     LIG 1480   5.815  26.201   9.236
    4AU     LIG 1481   5.541  26.516   9.444
    4AU    AUSL 1482   6.615  24.621   8.222
    4AU    AUSL 1483   6.346  24.536   7.980
    4AU     AUL 1484   6.152  24.709   8.166
    4AU       S 1485   6.157  24.240   8.370
    4AU     LIG 1486   5.692  24.140   8.336
    4AU     LIG 1487   5.346  23.829   8.360
    4AU     LIG 1488   5.058  23.497   8.518
    4AU     LIG 1489   4.817  23.233   8.793
    4AU       S 1490   6.489  24.558   8.594
    4AU     LIG 1491   6.507  24.267   8.934
    4AU     LIG 1492   6.329  24.249   9.368
    4AU     LIG 1493   6.121  24.247   9.801
    4AU     LIG 1494   6.033  24.059  10.228
    4AU    AUSL 1495   6.453  24.750   6.835
    4AU    AUSL 1496   6.566  24.382   6.946
    4AU     AUL 1497   6.676  24.355   6.642
    4AU       S 1498   6.269  24.695   6.435
    4AU     LIG 1499   6.019  24.443   6.117
    4AU     LIG 1500   5.846  24.492   5.663
    4AU     LIG 1501   5.602  24.478   5.241
    4AU     LIG 1502   5.307  24.642   4.890
    4AU       S 1503   6.181  24.240   6.613
    4AU     LIG 1504   6.134  23.842   6.378
    4AU     LIG 1505   5.825  23.508   6.317
    4AU     LIG 1506   5.504  23.223   6.146
    4AU     LIG 1507   5.492  22.848   5.849
    4AU    AUSL 1508   6.723  24.972   6.730
    4AU    AUSL 1509   6.315  25.075   7.004
    4AU     AUL 1510   6.421  25.119   6.667
    4AU       S 1511   5.957  25.310   6.747
    4AU     LIG 1512   5.697  25.585   6.464
    4AU     LIG 1513   5.599  25.796   6.046
    4AU     LIG 1514   5.345  25.903   5.652
    4AU     LIG 1515   4.984  26.057   5.387
    4AU       S 1516   6.582  24.892   6.253
    4AU     LIG 1517   6.293  24.807   5.854
    4AU     LIG 1518   6.260  24.668   5.405
    4AU     LIG 1519   6.193  24.666   4.939
    4AU     LIG 1520   6.226  24.939   4.552
    4AU    AUSL 1521   7.550  25.182   7.493
    4AU    AUSL 1522   7.524  25.078   7.116
    4AU     AUL 1523   7.653  25.475   7.346
    4AU       S 1524   7.812  25.201   6.861
    4AU     LIG 1525   8.042  25.190   6.446
    4AU     LIG 1526   8.241  25.475   6.126
    4AU     LIG 1527   8.566  25.713   5.877
    4AU     LIG 1528   8.945  25.790   5.598
    4AU       S 1529   8.094  25.240   7.430
    4AU     LIG 1530   8.518  25.422   7.606
    4AU     LIG 1531   8.978  25.567   7.625
    4AU     LIG 1532   9.335  25.869   7.516
    4AU     LIG 1533   9.432  26.349   7.485
    4AU    AUSL 1534   7.666  24.869   7.348
    4AU    AUSL 1535   7.591  24.574   7.646
    4AU     AUL 1536   7.918  24.607   7.492
    4AU       S 1537   8.073  25.036   7.263
    4AU     LIG 1538   8.563  25.065   7.244
    4AU     LIG 1539   9.012  25.263   7.224
    4AU     LIG 1540   9.491  25.431   7.242
    4AU     LIG 1541   9.973  25.436   7.119
    4AU       S 1542   7.957  24.095   7.688
    4AU     LIG 1543   8.396  24.049   7.834
    4AU     LIG 1544   8.864  24.101   7.750
    4AU     LIG 1545   9.269  23.981   7.941
    4AU     LIG 1546   9.628  23.751   7.736
    4AU    AUSL 1547   7.650  24.906   7.711
    4AU    AUSL 1548   7.402  25.334   7.782
    4AU     AUL 1549   7.723  25.234   7.795
    4AU       S 1550   7.700  25.570   8.168
    4AU     LIG 1551   8.002  25.854   8.398
    4AU     LIG 1552   8.267  26.099   8.693
    4AU     LIG 1553   8.569  26.386   8.899
    4AU     LIG 1554   8.730  26.838   8.836
    4AU       S 1555   8.154  25.031   7.630
    4AU     LIG 1556   8.605  24.925   7.743
    4AU     LIG 1557   9.046  25.059   7.768
    4AU     LIG 1558   9.431  25.347   7.757
    4AU     LIG 1559   9.849  25.369   7.980
    4AU    AUSL 1560   6.323  25.322   7.515
    4AU    AUSL 1561   6.305  25.139   7.918
    4AU     AUL 1562   6.013  25.341   7.690
    4AU       S 1563   6.036  25.297   8.208
    4AU     LIG 1564   5.828  25.388   8.597
    4AU     LIG 1565   5.710  25.713   8.900
    4AU     LIG 1566   5.378  25.975   9.097
    4AU     LIG 1567   5.011  25.939   9.402
    4AU       S 1568   6.212  25.791   7.494
    4AU     LIG 1569   5.727  25.953   7.431
    4AU     LIG 1570   5.233  26.126   7.450
    4AU     LIG 1571   4.749  26.325   7.464
    4AU     LIG 1572   4.285  26.511   7.567
    4AU    AUSL 1573   6.184  24.988   7.301
    4AU    AUSL 1574   6.431  25.378   7.188
    4AU     AUL 1575   6.068  25.302   7.251
    4AU       S 1576   5.810  24.876   6.942
    4AU     LIG 1577   5.435  25.211   6.881
    4AU     LIG 1578   4.957  25.391   6.942
    4AU     LIG 1579   4.462  25.511   7.032
    4AU     LIG 1580   3.985  25.659   7.114
    4AU       S 1581   6.193  25.744   7.000
    4AU     LIG 1582   5.907  26.003   6.701
    4AU     LIG 1583   5.771  26.223   6.288
    4AU     LIG 1584   5.608  26.616   6.042
    4AU     LIG 1585   5.452  27.076   6.013
    4AU    AUSL 1586   6.145  24.989   7.663
    4AU    AUSL 1587   6.100  24.668   7.361
    4AU     AUL 1588   5.867  25.023   7.434
    4AU       S 1589   5.631  24.569   7.469
    4AU     LIG 1590   5.187  24.639   7.435
    4AU     LIG 1591   4.837  24.396   7.268
    4AU     LIG 1592   4.469  24.140   7.162
    4AU     LIG 1593   4.177  23.987   6.827
    4AU       S 1594   5.733  24.986   7.951
    4AU     LIG 1595   5.258  25.079   7.987
    4AU     LIG 1596   4.837  25.341   8.030
    4AU     LIG 1597   4.358  25.483   8.033
    4AU     LIG 1598   3.900  25.523   8.201
    4AU    AUSL 1599   7.481  24.267   7.547
    4AU    AUSL 1600   7.433  24.459   7.925
    4AU     AUL 1601   7.772  24.509   7.870
    4AU       S 1602   7.745  23.940   7.592
    4AU     LIG 1603   8.139  23.636   7.609
    4AU     LIG 1604   8.626  23.664   7.566
    4AU     LIG 1605   9.108  23.642   7.579
    4AU     LIG 1606   9.449  23.357   7.424
    4AU       S 1607   7.682  24.052   8.108
    4AU     LIG 1608   7.889  23.690   8.312
    4AU     LIG 1609   8.015  23.429   8.672
    4AU     LIG 1610   8.326  23.288   8.992
    4AU     LIG 1611   8.705  23.423   9.245
    4AU    AUSL 1612   7.607  24.529   7.308
    4AU    AUSL 1613   7.312  24.189   7.220
    4AU     AUL 1614   7.643  24.239   7.170
    4AU       S 1615   8.030  24.112   7.444
    4AU     LIG 1616   8.491  24.118   7.338
    4AU     LIG 1617   8.916  23.975   7.240
    4AU     LIG 1618   9.299  23.753   7.099
    4AU     LIG 1619   9.755  23.705   7.184
    4AU       S 1620   7.573  23.967   6.751
    4AU     LIG 1621   7.746  23.549   6.619
    4AU     LIG 1622   7.916  23.143   6.441
    4AU     LIG 1623   8.087  22.760   6.203
    4AU     LIG 1624   8.458  22.444   6.144
    4AU    AUSL 1625   6.218  24.357   7.528
    4AU    AUSL 1626   6.268  24.557   7.064
    4AU     AUL 1627   6.023  24.326   7.245
    4AU       S 1628   5.989  24.398   6.733
    4AU     LIG 1629   5.668  24.035   6.501
    4AU     LIG 1630   5.347  23.654   6.444
    4AU     LIG 1631   4.958  23.389   6.298
    4AU     LIG 1632   4.561  23.223   6.051
    4AU       S 1633   5.651  24.328   7.583
    4AU     LIG 1634   5.244  24.135   7.515
    4AU     LIG 1635   4.835  23.920   7.474
    4AU     LIG 1636   4.503  23.645   7.600
    4AU     LIG 1637   4.181  23.360   7.474
    4AU    AUSL 1638   6.136  24.652   7.719
    4AU    AUSL 1639   6.396  24.219   7.808
    4AU     AUL 1640   6.070  24.326   7.861
    4AU       S 1641   6.166  23.980   8.212
    4AU     LIG 1642   5.808  23.647   8.193
    4AU     LIG 1643   5.438  23.319   8.215
    4AU     LIG 1644   5.104  22.991   8.354
    4AU     LIG 1645   4.919  22.731   8.706
    4AU       S 1646   5.662  24.580   7.691
    4AU     LIG 1647   5.277  24.480   7.915
    4AU     LIG 1648   4.845  24.352   7.778
    4AU     LIG 1649   4.416  24.155   7.694
    4AU     LIG 1650   4.095  23.963   7.979
    4AU    AUSL 1651   6.894  25.437   7.948
    4AU    AUSL 1652   6.520  25.424   7.799
    4AU     AUL 1653   6.691  25.487   8.223
    4AU       S 1654   6.288  25.742   7.984
    4AU     LIG 1655   5.948  25.981   8.290
    4AU     LIG 1656   5.762  26.181   8.696
    4AU     LIG 1657   5.586  26.562   8.927
    4AU     LIG 1658   5.522  27.039   9.031
    4AU       S 1659   6.787  25.923   8.008
    4AU     LIG 1660   6.908  26.148   8.385
    4AU     LIG 1661   7.044  26.561   8.552
    4AU     LIG 1662   7.062  26.913   8.869
    4AU     LIG 1663   7.004  27.079   9.323
    4AU    AUSL 1664   6.791  25.572   7.608
    4AU    AUSL 1665   7.076  25.535   7.322
    4AU     AUL 1666   7.234  25.763   7.529
    4AU       S 1667   6.680  25.957   7.707
    4AU     LIG 1668   6.613  26.386   8.001
    4AU     LIG 1669   6.738  26.809   8.196
    4AU     LIG 1670   6.516  27.250   8.226
    4AU     LIG 1671   6.284  27.681   8.269
    4AU       S 1672   6.957  26.019   7.193
    4AU     LIG 1673   7.143  26.438   6.966
    4AU     LIG 1674   7.383  26.826   6.763
    4AU     LIG 1675   7.772  27.157   6.713
    4AU     LIG 1676   8.057  27.504   6.504
    4AU    AUSL 1677   7.108  25.478   7.673
    4AU    AUSL 1678   7.192  25.266   8.053
    4AU     AUL 1679   7.230  25.625   7.963
    4AU       S 1680   7.513  25.444   8.364
    4AU     LIG 1681   7.827  25.509   8.727
    4AU     LIG 1682   8.052  25.764   9.027
    4AU     LIG 1683   8.214  26.149   9.220
    4AU     LIG 1684   8.333  26.400   9.591
    4AU       S 1685   6.942  26.038   7.823
    4AU     LIG 1686   7.127  26.443   8.030
    4AU     LIG 1687   7.292  26.864   8.203
    4AU     LIG 1688   7.592  27.254   8.226
    4AU     LIG 1689   7.755  27.685   8.370
    4AU    AUSL 1690   6.897  24.168   7.938
    4AU    AUSL 1691   7.247  24.171   7.822
    4AU     AUL 1692   6.998  24.078   8.210
    4AU       S 1693   7.053  23.627   7.998
    4AU     LIG 1694   6.954  23.369   8.345
    4AU     LIG 1695   6.759  22.969   8.357
    4AU     LIG 1696   6.723  22.522   8.426
    4AU     LIG 1697   6.589  22.084   8.560
    4AU       S 1698   7.478  23.899   8.007
    4AU     LIG 1699   7.533  23.457   8.035
    4AU     LIG 1700   7.698  23.165   8.347
    4AU     LIG 1701   8.072  22.930   8.545
    4AU     LIG 1702   8.284  22.588   8.799
    4AU    AUSL 1703   6.683  24.101   7.666
    4AU    AUSL 1704   6.615  24.312   8.080
    4AU     AUL 1705   6.616  23.946   7.983
    4AU       S 1706   6.889  23.523   7.790
    4AU     LIG 1707   6.640  23.133   7.872
    4AU     LIG 1708   6.386  22.744   8.061
    4AU     LIG 1709   6.310  22.279   8.176
    4AU     LIG 1710   6.471  21.821   8.132
    4AU       S 1711   6.388  24.105   8.425
    4AU     LIG 1712   5.995  23.839   8.655
    4AU     LIG 1713   5.624  23.510   8.664
    4AU     LIG 1714   5.334  23.150   8.801
    4AU     LIG 1715   5.191  22.879   9.163
    4AU    AUSL 1716   7.002  24.004   7.643
    4AU    AUSL 1717   6.643  24.044   7.322
    4AU     AUL 1718   6.553  23.842   7.618
    4AU       S 1719   6.635  23.580   7.193
    4AU     LIG 1720   6.361  23.270   6.948
    4AU     LIG 1721   6.220  22.810   6.955
    4AU     LIG 1722   6.257  22.349   6.829
    4AU     LIG 1723   6.227  21.875   6.752
    4AU       S 1724   7.153  23.619   7.728
    4AU     LIG 1725   7.150  23.115   7.957
    4AU     LIG 1726   6.875  22.681   7.944
    4AU     LIG 1727   6.818  22.199   8.040
    4AU     LIG 1728   6.947  21.789   8.294
    4AU    AUSL 1729   6.938  25.412   7.010
    4AU    AUSL 1730   7.350  25.344   7.237
    4AU     AUL 1731   7.260  25.590   6.995
    4AU       S 1732   6.905  25.950   6.924
    4AU     LIG 1733   6.940  26.228   6.548
    4AU     LIG 1734   7.081  26.631   6.359
    4AU     LIG 1735   7.112  26.909   5.969
    4AU     LIG 1736   7.259  27.271   5.690
    4AU       S 1737   7.756  25.496   6.854
    4AU     LIG 1738   8.093  25.697   6.576
    4AU     LIG 1739   8.375  25.977   6.297
    4AU     LIG 1740   8.522  26.420   6.166
    4AU     LIG 1741   8.677  26.883   6.260
    4AU    AUSL 1742   6.723  25.531   7.271
    4AU    AUSL 1743   6.631  25.229   6.943
    4AU     AUL 1744   6.646  25.529   6.873
    4AU       S 1745   6.662  25.948   7.197
    4AU     LIG 1746   6.628  26.371   6.947
    4AU     LIG 1747   6.768  26.795   6.763
    4AU     LIG 1748   6.560  27.251   6.722
    4AU     LIG 1749   6.247  27.643   6.728
    4AU       S 1750   6.160  25.552   6.746
    4AU     LIG 1751   6.167  25.757   6.330
    4AU     LIG 1752   6.074  25.978   5.943
    4AU     LIG 1753   5.749  26.220   5.736
    4AU     LIG 1754   5.576  26.584   5.499
    4AU    AUSL 1755   6.832  24.149   7.029
    4AU    AUSL 1756   6.376  24.245   7.218
    4AU     AUL 1757   6.519  24.025   6.960
    4AU       S 1758   6.044  24.088   6.814
    4AU     LIG 1759   5.878  23.645   6.811
    4AU     LIG 1760   5.581  23.276   6.716
    4AU     LIG 1761   5.250  22.985   6.528
    4AU     LIG 1762   5.052  22.592   6.340
    4AU       S 1763   6.794  23.597   6.981
    4AU     LIG 1764   6.847  23.228   6.752
    4AU     LIG 1765   6.594  22.905   6.614
    4AU     LIG 1766   6.673  22.485   6.502
    4AU     LIG 1767   6.908  22.138   6.289
    4AU    AUSL 1768   7.010  24.031   7.311
    4AU    AUSL 1769   7.122  24.299   6.921
    4AU     AUL 1770   7.150  23.947   7.007
    4AU       S 1771   6.926  23.561   7.272
    4AU     LIG 1772   6.721  23.094   7.273
    4AU     LIG 1773   6.718  22.674   7.055
    4AU     LIG 1774   6.916  22.268   6.897
    4AU     LIG 1775   6.998  21.800   6.778
    4AU       S 1776   7.335  24.140   6.562
    4AU     LIG 1777   7.436  23.807   6.272
    4AU     LIG 1778   7.564  23.397   6.146
    4AU     LIG 1779   7.864  23.148   5.906
    4AU     LIG 1780   8.150  23.209   5.533
    5AU     AUC 1781  17.239  38.590   7.504
    5AU     AUC 1782  17.514  38.572   7.349
    5AU     AUC 1783  17.498  38.571   7.677
    5AU     AUC 1784  16.977  38.605   7.335
    5AU     AUC 1785  16.969  38.610   7.663
    5AU     AUC 1786  17.094  38.866   7.496
    5AU     AUC 1787  17.424  38.844   7.508
    5AU     AUC 1788  17.054  38.333   7.501
    5AU     AUC 1789  17.384  38.308   7.506
    5AU     AUC 1790  17.219  38.428   7.769
    5AU     AUC 1791  17.243  38.757   7.771
    5AU     AUC 1792  17.239  38.424   7.239
    5AU     AUC 1793  17.263  38.754   7.235
    5AU     AUC 1794  17.786  38.560   7.213
    5AU     AUC 1795  17.777  38.546   7.519
    5AU     AUC 1796  17.741  38.548   7.846
    5AU     AUC 1797  16.728  38.613   7.164
    5AU     AUC 1798  16.695  38.620   7.499
    5AU     AUC 1799  16.713  38.636   7.823
    5AU     AUC 1800  16.962  39.141   7.484
    5AU     AUC 1801  17.275  39.127   7.488
    5AU     AUC 1802  17.601  39.088   7.514
    5AU     AUC 1803  16.872  38.089   7.501
    5AU     AUC 1804  17.201  38.046   7.492
    5AU     AUC 1805  17.524  38.031   7.516
    5AU     AUC 1806  17.203  38.270   8.029
    5AU     AUC 1807  17.217  38.597   8.055
    5AU     AUC 1808  17.249  38.921   8.028
    5AU     AUC 1809  17.247  38.264   6.987
    5AU     AUC 1810  17.285  38.596   6.962
    5AU     AUC 1811  17.293  38.911   6.973
    5AU     AUC 1812  17.471  38.400   7.948
    5AU     AUC 1813  17.509  38.742   7.957
    5AU     AUC 1814  17.522  38.406   7.081
    5AU     AUC 1815  17.555  38.763   7.082
    5AU     AUC 1816  16.950  38.450   7.942
    5AU     AUC 1817  16.970  38.782   7.937
    5AU     AUC 1818  16.973  38.437   7.068
    5AU     AUC 1819  16.995  38.756   7.049
    5AU     AUC 1820  17.710  38.831   7.362
    5AU     AUC 1821  17.689  38.836   7.698
    5AU     AUC 1822  16.823  38.891   7.315
    5AU     AUC 1823  16.819  38.903   7.660
    5AU     AUC 1824  17.669  38.278   7.352
    5AU     AUC 1825  17.647  38.277   7.677
    5AU     AUC 1826  16.771  38.345   7.339
    5AU     AUC 1827  16.778  38.341   7.677
    5AU     AUC 1828  17.106  39.049   7.760
    5AU     AUC 1829  17.434  39.016   7.782
    5AU     AUC 1830  17.040  38.166   7.776
    5AU     AUC 1831  17.371  38.137   7.777
    5AU     AUC 1832  17.108  39.034   7.221
    5AU     AUC 1833  17.444  39.025   7.230
    5AU     AUC 1834  17.043  38.155   7.226
    5AU     AUC 1835  17.381  38.132   7.230
    5AU    AUSL 1836  17.631  38.507   8.145
    5AU    AUSL 1837  17.508  38.149   8.114
    5AU     AUL 1838  17.897  38.323   8.261
    5AU       S 1839  17.834  37.806   8.302
    5AU     LIG 1840  17.763  37.464   8.582
    5AU     LIG 1841  17.989  37.112   8.774
    5AU     LIG 1842  18.266  36.825   9.022
    5AU     LIG 1843  18.561  36.715   9.376
    5AU       S 1844  17.600  38.182   8.648
    5AU     LIG 1845  17.822  38.246   9.056
    5AU     LIG 1846  18.099  38.203   9.446
    5AU     LIG 1847  18.512  38.268   9.684
    5AU     LIG 1848  18.924  38.371   9.910
    5AU    AUSL 1849  17.308  38.401   8.263
    5AU    AUSL 1850  17.092  38.757   8.273
    5AU     AUL 1851  17.355  38.646   8.556
    5AU       S 1852  17.261  38.148   8.638
    5AU     LIG 1853  17.297  38.118   9.105
    5AU     LIG 1854  17.606  37.990   9.452
    5AU     LIG 1855  17.817  37.911   9.868
    5AU     LIG 1856  17.768  37.901  10.343
    5AU       S 1857  16.883  38.606   8.741
    5AU     LIG 1858  16.812  38.493   9.194
    5AU     LIG 1859  16.690  38.456   9.656
    5AU     LIG 1860  16.644  38.454  10.128
    5AU     LIG 1861  16.715  38.762  10.501
    5AU    AUSL 1862  17.429  38.797   8.240
    5AU    AUSL 1863  17.807  38.812   8.031
    5AU     AUL 1864  17.750  38.686   8.417
    5AU       S 1865  17.422  39.146   8.592
    5AU     LIG 1866  17.662  39.245   8.977
    5AU     LIG 1867  17.683  39.346   9.436
    5AU     LIG 1868  17.735  39.230   9.884
    5AU     LIG 1869  17.828  39.332  10.328
    5AU       S 1870  18.057  39.082   8.323
    5AU     LIG 1871  18.478  39.143   8.447
    5AU     LIG 1872  18.780  39.373   8.689
    5AU     LIG 1873  18.993  39.636   9.002
    5AU     LIG 1874  19.182  39.759   9.411
    5AU    AUSL 1875  17.724  38.613   6.944
    5AU    AUSL 1876  17.597  39.041   6.927
    5AU     AUL 1877  17.829  38.846   6.723
    5AU       S 1878  17.875  38.478   6.377
    5AU     LIG 1879  18.188  38.443   6.085
    5AU     LIG 1880  18.211  38.294   5.664
    5AU     LIG 1881  18.308  38.321   5.216
    5AU     LIG 1882  18.615  38.250   4.874
    5AU       S 1883  17.983  39.314   6.687
    5AU     LIG 1884  18.140  39.453   6.257
    5AU     LIG 1885  18.448  39.705   5.994
    5AU     LIG 1886  18.684  39.876   5.614
    5AU     LIG 1887  18.690  40.166   5.230
    5AU    AUSL 1888  17.507  38.406   6.776
    5AU    AUSL 1889  17.784  38.268   7.037
    5AU     AUL 1890  17.985  38.478   6.861
    5AU       S 1891  17.963  38.014   6.647
    5AU     LIG 1892  18.216  37.742   6.330
    5AU     LIG 1893  18.393  37.305   6.224
    5AU     LIG 1894  18.690  37.011   6.001
    5AU     LIG 1895  18.932  37.005   5.598
    5AU       S 1896  17.702  38.337   6.366
    5AU     LIG 1897  17.873  38.034   6.060
    5AU     LIG 1898  17.837  37.949   5.592
    5AU     LIG 1899  17.918  37.990   5.123
    5AU     LIG 1900  18.031  37.995   4.664
    5AU    AUSL 1901  17.461  38.764   6.746
    5AU    AUSL 1902  17.135  38.430   6.800
    5AU     AUL 1903  17.267  38.539   6.506
    5AU       S 1904  16.767  38.448   6.329
    5AU     LIG 1905  16.713  38.080   6.046
    5AU     LIG 1906  16.706  37.957   5.594
    5AU     LIG 1907  16.516  37.964   5.166
    5AU     LIG 1908  16.150  37.923   4.877
    5AU       S 1909  17.685  38.680   6.263
    5AU     LIG 1910  17.736  38.472   5.831
    5AU     LIG 1911  17.810  38.435   5.360
    5AU     LIG 1912  17.924  38.480   4.893
    5AU     LIG 1913  17.916  38.761   4.506
    5AU    AUSL 1914  16.767  38.700   8.135
    5AU    AUSL 1915  16.968  39.026   8.061
    5AU     AUL 1916  16.873  39.004   8.403
    5AU       S 1917  16.616  38.614   8.626
    5AU     LIG 1918  16.385  38.366   8.913
    5AU     LIG 1919  16.349  38.227   9.349
    5AU     LIG 1920  16.161  38.284   9.773
    5AU     LIG 1921  15.749  38.417   9.965
    5AU       S 1922  16.537  39.366   8.208
    5AU     LIG 1923  16.545  39.541   8.638
    5AU     LIG 1924  16.439  39.819   8.989
    5AU     LIG 1925  16.268  40.201   9.164
    5AU     LIG 1926  16.168  40.496   9.493
    5AU    AUSL 1927  16.956  38.428   8.221
    5AU    AUSL 1928  16.692  38.344   7.974
    5AU     AUL 1929  16.494  38.515   8.152
    5AU       S 1930  16.520  38.058   8.378
    5AU     LIG 1931  16.097  37.958   8.505
    5AU     LIG 1932  15.770  37.642   8.527
    5AU     LIG 1933  15.555  37.308   8.751
    5AU     LIG 1934  15.355  36.966   9.000
    5AU       S 1935  16.819  38.387   8.602
    5AU     LIG 1936  16.795  38.060   8.922
    5AU     LIG 1937  16.811  38.005   9.388
    5AU     LIG 1938  16.582  37.975   9.809
    5AU     LIG 1939  16.505  37.941  10.279
    5AU    AUSL 1940  16.824  38.575   6.834
    5AU    AUSL 1941  16.929  38.173   6.934
    5AU     AUL 1942  17.068  38.195   6.622
    5AU       S 1943  16.584  38.571   6.478
    5AU     LIG 1944  16.291  38.307   6.207
    5AU     LIG 1945  16.264  38.186   5.745
    5AU     LIG 1946  16.097  38.250   5.296
    5AU     LIG 1947  15.707  38.293   5.012
    5AU       S 1948  16.569  38.061   6.592
    5AU     LIG 1949  16.339  37.749   6.298
    5AU     LIG 1950  16.139  37.306   6.221
    5AU     LIG 1951  15.928  36.983   5.925
    5AU     LIG 1952  15.770  36.930   5.468
    5AU    AUSL 1953  17.114  38.778   6.744
    5AU    AUSL 1954  16.689  38.881   6.992
    5AU     AUL 1955  16.858  38.963   6.659
    5AU       S 1956  16.363  39.075   6.712
    5AU     LIG 1957  16.060  39.387   6.517
    5AU     LIG 1958  15.993  39.696   6.156
    5AU     LIG 1959  15.719  39.844   5.779
    5AU     LIG 1960  15.341  39.855   5.467
    5AU       S 1961  16.845  38.685   6.250
    5AU     LIG 1962  16.617  38.554   5.853
    5AU     LIG 1963  16.585  38.430   5.401
    5AU     LIG 1964  16.619  38.494   4.932
    5AU     LIG 1965  16.662  38.822   4.575
    5AU    AUSL 1966  17.909  38.994   7.504
    5AU    AUSL 1967  17.893  38.881   7.136
    5AU     AUL 1968  17.988  39.292   7.396
    5AU       S 1969  18.217  39.093   6.930
    5AU     LIG 1970  18.424  39.098   6.513
    5AU     LIG 1971  18.711  39.341   6.236
    5AU     LIG 1972  18.986  39.598   5.936
    5AU     LIG 1973  19.273  39.656   5.546
    5AU       S 1974  18.433  39.044   7.371
    5AU     LIG 1975  18.953  39.128   7.395
    5AU     LIG 1976  19.466  39.240   7.445
    5AU     LIG 1977  19.791  39.596   7.532
    5AU     LIG 1978  19.825  39.942   7.854
    5AU    AUSL 1979  18.028  38.666   7.391
    5AU    AUSL 1980  17.964  38.385   7.664
    5AU     AUL 1981  18.245  38.565   7.787
    5AU       S 1982  18.405  38.727   7.272
    5AU     LIG 1983  18.873  38.626   7.242
    5AU     LIG 1984  19.313  38.825   7.184
    5AU     LIG 1985  19.741  39.026   7.028
    5AU     LIG 1986  20.010  39.183   6.655
    5AU       S 1987  18.439  38.142   7.557
    5AU     LIG 1988  18.881  38.033   7.693
    5AU     LIG 1989  19.326  37.887   7.677
    5AU     LIG 1990  19.758  37.847   7.776
    5AU     LIG 1991  20.091  37.974   8.050
    5AU    AUSL 1992  17.943  38.725   7.721
    5AU    AUSL 1993  17.765  39.129   7.802
    5AU     AUL 1994  18.105  38.995   7.824
    5AU       S 1995  18.051  39.366   8.170
    5AU     LIG 1996  18.372  39.645   8.412
    5AU     LIG 1997  18.719  39.886   8.632
    5AU     LIG 1998  19.011  40.167   8.864
    5AU     LIG 1999  19.224  40.599   8.833
    5AU       S 2000  18.503  38.879   7.513
    5AU     LIG 2001  18.890  38.746   7.736
    5AU     LIG 2002  19.341  38.816   7.710
    5AU     LIG 2003  19.772  38.954   7.865
    5AU     LIG 2004  20.048  39.333   7.913
    5AU    AUSL 2005  16.678  39.123   7.509
    5AU    AUSL 2006  16.654  38.945   7.912
    5AU     AUL 2007  16.365  39.147   7.680
    5AU       S 2008  16.384  39.101   8.198
    5AU     LIG 2009  16.251  39.114   8.627
    5AU     LIG 2010  16.088  39.451   8.896
    5AU     LIG 2011  15.907  39.813   9.124
    5AU     LIG 2012  15.515  39.931   9.365
    5AU       S 2013  16.577  39.591   7.481
    5AU     LIG 2014  16.136  39.743   7.314
    5AU     LIG 2015  15.665  39.920   7.366
    5AU     LIG 2016  15.218  40.124   7.456
    5AU     LIG 2017  14.845  40.410   7.544
    5AU    AUSL 2018  16.545  38.791   7.285
    5AU    AUSL 2019  16.792  39.180   7.186
    5AU     AUL 2020  16.428  39.103   7.235
    5AU       S 2021  16.170  38.680   6.931
    5AU     LIG 2022  15.823  39.064   6.881
    5AU     LIG 2023  15.378  39.342   6.938
    5AU     LIG 2024  14.914  39.589   7.008
    5AU     LIG 2025  14.412  39.656   7.069
    5AU       S 2026  16.558  39.545   6.986
    5AU     LIG 2027  16.322  39.822   6.654
    5AU     LIG 2028  16.216  40.148   6.308
    5AU     LIG 2029  15.939  40.446   6.044
    5AU     LIG 2030  15.575  40.769   5.983
    5AU    AUSL 2031  16.501  38.795   7.651
    5AU    AUSL 2032  16.458  38.470   7.348
    5AU     AUL 2033  16.228  38.825   7.422
    5AU       S 2034  15.977  38.374   7.420
    5AU     LIG 2035  15.514  38.328   7.280
    5AU     LIG 2036  15.049  38.222   7.202
    5AU     LIG 2037  14.708  37.905   7.173
    5AU     LIG 2038  14.398  37.640   7.385
    5AU       S 2039  16.078  38.791   7.932
    5AU     LIG 2040  15.598  38.901   7.933
    5AU     LIG 2041  15.184  39.183   7.979
    5AU     LIG 2042  14.728  39.398   7.991
    5AU     LIG 2043  14.247  39.337   7.973
    5AU    AUSL 2044  17.852  38.068   7.569
    5AU    AUSL 2045  17.770  38.255   7.922
    5AU     AUL 2046  18.099  38.240   7.928
    5AU       S 2047  18.278  37.893   7.598
    5AU     LIG 2048  18.613  37.686   7.388
    5AU     LIG 2049  19.038  37.562   7.412
    5AU     LIG 2050  19.454  37.369   7.505
    5AU     LIG 2051  19.644  36.956   7.619
    5AU       S 2052  18.012  37.781   8.105
    5AU     LIG 2053  18.227  37.438   8.361
    5AU     LIG 2054  18.478  37.132   8.618
    5AU     LIG 2055  18.740  37.037   8.983
    5AU     LIG 2056  19.031  36.981   9.338
    5AU    AUSL 2057  17.972  38.333   7.319
    5AU    AUSL 2058  17.663  38.000   7.242
    5AU     AUL 2059  17.979  37.980   7.206
    5AU       S 2060  18.414  38.214   7.332
    5AU     LIG 2061  18.880  38.091   7.195
    5AU     LIG 2062  19.337  37.903   7.168
    5AU     LIG 2063  19.759  37.703   7.271
    5AU     LIG 2064  20.163  37.595   7.086
    5AU       S 2065  17.925  37.776   6.745
    5AU     LIG 2066  18.037  37.339   6.609
    5AU     LIG 2067  18.165  36.898   6.483
    5AU     LIG 2068  18.323  36.497   6.286
    5AU     LIG 2069  18.608  36.436   5.926
    5AU    AUSL 2070  16.568  38.162   7.523
    5AU    AUSL 2071  16.638  38.365   7.055
    5AU     AUL 2072  16.385  38.119   7.237
    5AU       S 2073  16.369  38.227   6.736
    5AU     LIG 2074  15.985  38.035   6.541
    5AU     LIG 2075  15.793  37.629   6.436
    5AU     LIG 2076  15.611  37.257   6.231
    5AU     LIG 2077  15.432  37.124   5.819
    5AU       S 2078  15.998  38.139   7.559
    5AU     LIG 2079  15.583  37.911   7.569
    5AU     LIG 2080  15.181  37.749   7.379
    5AU     LIG 2081  14.851  37.413   7.346
    5AU     LIG 2082  14.536  37.190   7.605
    5AU    AUSL 2083  16.484  38.458   7.709
    5AU    AUSL 2084  16.739  38.029   7.807
    5AU     AUL 2085  16.408  38.134   7.859
    5AU       S 2086  16.521  37.819   8.239
    5AU     LIG 2087  16.198  37.489   8.272
    5AU     LIG 2088  15.861  37.153   8.353
    5AU     LIG 2089  15.606  36.814   8.566
    5AU     LIG 2090  15.486  36.478   8.872
    5AU       S 2091  16.005  38.388   7.659
    5AU     LIG 2092  15.549  38.378   7.788
    5AU     LIG 2093  15.117  38.150   7.708
    5AU     LIG 2094  14.768  37.802   7.700
    5AU     LIG 2095  14.317  37.702   7.881
    5AU    AUSL 2096  17.244  39.238   7.952
    5AU    AUSL 2097  16.875  39.227   7.796
    5AU     AUL 2098  17.044  39.300   8.221
    5AU       S 2099  16.648  39.543   7.969
    5AU     LIG 2100  16.482  39.896   8.268
    5AU     LIG 2101  16.281  40.170   8.631
    5AU     LIG 2102  16.033  40.538   8.844
    5AU     LIG 2103  15.656  40.852   8.906
    5AU       S 2104  17.135  39.735   7.994
    5AU     LIG 2105  17.159  39.969   8.366
    5AU     LIG 2106  17.402  40.283   8.578
    5AU     LIG 2107  17.332  40.716   8.683
    5AU     LIG 2108  17.104  41.076   8.847
    5AU    AUSL 2109  17.156  39.367   7.612
    5AU    AUSL 2110  17.433  39.334   7.341
    5AU     AUL 2111  17.612  39.549   7.540
    5AU       S 2112  17.034  39.753   7.702
    5AU     LIG 2113  16.941  40.197   7.932
    5AU     LIG 2114  17.079  40.512   8.255
    5AU     LIG 2115  17.001  40.954   8.338
    5AU     LIG 2116  16.596  41.170   8.298
    5AU       S 2117  17.288  39.814   7.252
    5AU     LIG 2118  17.515  40.189   7.115
    5AU     LIG 2119  17.671  40.459   6.780
    5AU     LIG 2120  17.568  40.889   6.665
    5AU     LIG 2121  17.721  41.328   6.672
    5AU    AUSL 2122  17.470  39.273   7.687
    5AU    AUSL 2123  17.536  39.066   8.063
    5AU     AUL 2124  17.577  39.427   7.974
    5AU       S 2125  17.843  39.250   8.379
    5AU     LIG 2126  18.111  39.367   8.750
    5AU     LIG 2127  18.429  39.628   8.967
    5AU     LIG 2128  18.659  39.967   9.199
    5AU     LIG 2129  18.869  40.132   9.590
    5AU       S 2130  17.296  39.837   7.798
    5AU     LIG 2131  17.458  40.218   8.029
    5AU     LIG 2132  17.586  40.627   8.228
    5AU     LIG 2133  17.512  41.075   8.356
    5AU     LIG 2134  17.494  41.553   8.410
    5AU    AUSL 2135  17.236  37.962   7.939
    5AU    AUSL 2136  17.595  37.961   7.821
    5AU     AUL 2137  17.350  37.855   8.203
    5AU       S 2138  17.361  37.403   7.987
    5AU     LIG 2139  17.284  36.983   8.204
    5AU     LIG 2140  17.049  36.553   8.299
    5AU     LIG 2141  17.020  36.089   8.469
    5AU     LIG 2142  16.941  35.746   8.813
    5AU       S 2143  17.815  37.670   7.977
    5AU     LIG 2144  17.820  37.229   8.122
    5AU     LIG 2145  18.105  36.907   8.315
    5AU     LIG 2146  18.382  36.612   8.561
    5AU     LIG 2147  18.684  36.524   8.911
    5AU    AUSL 2148  17.022  37.902   7.664
    5AU    AUSL 2149  16.962  38.118   8.077
    5AU     AUL 2150  16.945  37.747   7.972
    5AU       S 2151  17.196  37.314   7.770
    5AU     LIG 2152  17.027  36.855   7.759
    5AU     LIG 2153  16.892  36.382   7.811
    5AU     LIG 2154  16.858  35.942   7.999
    5AU     LIG 2155  16.771  35.621   8.345
    5AU       S 2156  16.771  37.928   8.427
    5AU     LIG 2157  16.469  37.667   8.718
    5AU     LIG 2158  16.127  37.333   8.758
    5AU     LIG 2159  15.889  37.003   8.983
    5AU     LIG 2160  15.683  37.089   9.385
    5AU    AUSL 2161  17.339  37.800   7.646
    5AU    AUSL 2162  17.001  37.848   7.319
    5AU     AUL 2163  16.880  37.653   7.599
    5AU       S 2164  17.026  37.373   7.198
    5AU     LIG 2165  16.785  36.981   7.117
    5AU     LIG 2166  16.779  36.512   7.223
    5AU     LIG 2167  16.795  36.043   7.113
    5AU     LIG 2168  16.814  35.732   6.766
    5AU       S 2169  17.463  37.425   7.716
    5AU     LIG 2170  17.544  36.948   7.758
    5AU     LIG 2171  17.397  36.533   7.933
    5AU     LIG 2172  17.429  36.103   8.131
    5AU     LIG 2173  17.697  35.774   8.367
    5AU    AUSL 2174  17.308  39.222   7.021
    5AU    AUSL 2175  17.710  39.148   7.244
    5AU     AUL 2176  17.614  39.417   7.030
    5AU       S 2177  17.242  39.763   6.963
    5AU     LIG 2178  17.296  40.106   6.656
    5AU     LIG 2179  17.287  40.502   6.431
    5AU     LIG 2180  17.304  40.898   6.222
    5AU     LIG 2181  17.316  41.184   5.862
    5AU       S 2182  18.124  39.351   6.914
    5AU     LIG 2183  18.454  39.601   6.631
    5AU     LIG 2184  18.801  39.843   6.364
    5AU     LIG 2185  19.213  40.107   6.254
    5AU     LIG 2186  19.521  40.503   6.275
    5AU    AUSL 2187  17.082  39.327   7.276
    5AU    AUSL 2188  17.013  39.027   6.967
    5AU     AUL 2189  17.016  39.325   6.872
    5AU       S 2190  17.002  39.742   7.204
    5AU     LIG 2191  16.993  40.212   7.069
    5AU     LIG 2192  17.203  40.600   6.932
    5AU     LIG 2193  17.050  41.000   6.748
    5AU     LIG 2194  16.647  41.252   6.786
    5AU       S 2195  16.527  39.344   6.747
    5AU     LIG 2196  16.526  39.484   6.317
    5AU     LIG 2197  16.479  39.806   6.008
    5AU     LIG 2198  16.186  40.065   5.788
    5AU     LIG 2199  15.998  40.363   5.494
    5AU    AUSL 2200  17.194  37.943   7.025
    5AU    AUSL 2201  16.738  38.056   7.215
    5AU     AUL 2202  16.859  37.816   6.974
    5AU       S 2203  16.411  37.931   6.776
    5AU     LIG 2204  16.184  37.528   6.749
    5AU     LIG 2205  15.905  37.154   6.656
    5AU     LIG 2206  15.775  36.772   6.399
    5AU     LIG 2207  15.552  36.360   6.296
    5AU       S 2208  17.170  37.417   6.952
    5AU     LIG 2209  17.162  37.035   6.755
    5AU     LIG 2210  16.973  36.635   6.757
    5AU     LIG 2211  16.968  36.201   6.637
    5AU     LIG 2212  17.108  35.859   6.343
    5AU    AUSL 2213  17.362  37.834   7.317
    5AU    AUSL 2214  17.487  38.099   6.932
    5AU     AUL 2215  17.534  37.748   7.046
    5AU       S 2216  17.291  37.347   7.256
    5AU     LIG 2217  17.254  36.834   7.238
    5AU     LIG 2218  17.248  36.342   7.082
    5AU     LIG 2219  17.371  35.932   6.816
    5AU     LIG 2220  17.718  35.711   6.558
    5AU       S 2221  17.677  37.905   6.582
    5AU     LIG 2222  17.731  37.579   6.264
    5AU     LIG 2223  17.901  37.178   6.118
    5AU     LIG 2224  18.200  36.870   5.958
    5AU     LIG 2225  18.446  36.790   5.584
    6AU     AUC 2226  24.117  10.901   7.502
    6AU     AUC 2227  24.392  10.880   7.347
    6AU     AUC 2228  24.376  10.881   7.675
    6AU     AUC 2229  23.856  10.918   7.331
    6AU     AUC 2230  23.846  10.922   7.660
    6AU     AUC 2231  23.973  11.178   7.494
    6AU     AUC 2232  24.303  11.153   7.507
    6AU     AUC 2233  23.931  10.645   7.497
    6AU     AUC 2234  24.261  10.620   7.504
    6AU     AUC 2235  24.095  10.740   7.768
    6AU     AUC 2236  24.121  11.067   7.769
    6AU     AUC 2237  24.116  10.735   7.236
    6AU     AUC 2238  24.142  11.064   7.233
    6AU     AUC 2239  24.665  10.865   7.210
    6AU     AUC 2240  24.657  10.854   7.518
    6AU     AUC 2241  24.619  10.858   7.844
    6AU     AUC 2242  23.606  10.929   7.159
    6AU     AUC 2243  23.573  10.935   7.495
    6AU     AUC 2244  23.589  10.948   7.819
    6AU     AUC 2245  23.845  11.456   7.484
    6AU     AUC 2246  24.155  11.440   7.488
    6AU     AUC 2247  24.481  11.395   7.514
    6AU     AUC 2248  23.748  10.401   7.497
    6AU     AUC 2249  24.077  10.359   7.489
    6AU     AUC 2250  24.400  10.343   7.515
    6AU     AUC 2251  24.079  10.582   8.028
    6AU     AUC 2252  24.092  10.908   8.054
    6AU     AUC 2253  24.126  11.230   8.028
    6AU     AUC 2254  24.124  10.575   6.983
    6AU     AUC 2255  24.162  10.905   6.959
    6AU     AUC 2256  24.174  11.220   6.970
    6AU     AUC 2257  24.347  10.713   7.948
    6AU     AUC 2258  24.386  11.053   7.955
    6AU     AUC 2259  24.400  10.715   7.078
    6AU     AUC 2260  24.434  11.068   7.079
    6AU     AUC 2261  23.825  10.760   7.938
    6AU     AUC 2262  23.845  11.092   7.935
    6AU     AUC 2263  23.850  10.749   7.064
    6AU     AUC 2264  23.874  11.070   7.045
    6AU     AUC 2265  24.590  11.134   7.361
    6AU     AUC 2266  24.570  11.143   7.697
    6AU     AUC 2267  23.704  11.206   7.312
    6AU     AUC 2268  23.697  11.216   7.658
    6AU     AUC 2269  24.547  10.587   7.350
    6AU     AUC 2270  24.523  10.588   7.677
    6AU     AUC 2271  23.649  10.659   7.334
    6AU     AUC 2272  23.654  10.653   7.673
    6AU     AUC 2273  23.984  11.360   7.760
    6AU     AUC 2274  24.312  11.324   7.782
    6AU     AUC 2275  23.916  10.478   7.773
    6AU     AUC 2276  24.247  10.451   7.776
    6AU     AUC 2277  23.991  11.348   7.220
    6AU     AUC 2278  24.324  11.331   7.229
    6AU     AUC 2279  23.919  10.467   7.222
    6AU     AUC 2280  24.257  10.443   7.228
    6AU    AUSL 2281  24.507  10.820   8.145
    6AU    AUSL 2282  24.384  10.465   8.116
    6AU     AUL 2283  24.775  10.642   8.260
    6AU       S 2284  24.699  10.129   8.308
    6AU     LIG 2285  24.599   9.792   8.568
    6AU     LIG 2286  24.851   9.476   8.770
    6AU     LIG 2287  25.133   9.201   9.010
    6AU     LIG 2288  25.396   9.070   9.371
    6AU       S 2289  24.482  10.500   8.650
    6AU     LIG 2290  24.669  10.521   9.084
    6AU     LIG 2291  24.938  10.491   9.471
    6AU     LIG 2292  25.252  10.407   9.816
    6AU     LIG 2293  25.600  10.256  10.107
    6AU    AUSL 2294  24.184  10.715   8.265
    6AU    AUSL 2295  23.965  11.066   8.273
    6AU     AUL 2296  24.233  10.962   8.556
    6AU       S 2297  24.149  10.466   8.651
    6AU     LIG 2298  24.163  10.406   9.127
    6AU     LIG 2299  24.439  10.302   9.518
    6AU     LIG 2300  24.758  10.203   9.872
    6AU     LIG 2301  25.080  10.144  10.232
    6AU       S 2302  23.764  10.904   8.737
    6AU     LIG 2303  23.821  10.803   9.178
    6AU     LIG 2304  23.580  10.815   9.582
    6AU     LIG 2305  23.384  10.815  10.014
    6AU     LIG 2306  23.375  11.017  10.445
    6AU    AUSL 2307  24.302  11.109   8.239
    6AU    AUSL 2308  24.686  11.120   8.029
    6AU     AUL 2309  24.622  11.000   8.416
    6AU       S 2310  24.301  11.462   8.596
    6AU     LIG 2311  24.551  11.550   8.990
    6AU     LIG 2312  24.604  11.652   9.462
    6AU     LIG 2313  24.635  11.766   9.935
    6AU     LIG 2314  24.657  11.948  10.382
    6AU       S 2315  24.936  11.388   8.323
    6AU     LIG 2316  25.361  11.443   8.421
    6AU     LIG 2317  25.641  11.677   8.680
    6AU     LIG 2318  25.833  11.943   9.003
    6AU     LIG 2319  26.019  12.243   9.296
    6AU    AUSL 2320  24.603  10.920   6.936
    6AU    AUSL 2321  24.479  11.344   6.923
    6AU     AUL 2322  24.693  11.153   6.696
    6AU       S 2323  24.754  10.765   6.374
    6AU     LIG 2324  25.079  10.721   6.097
    6AU     LIG 2325  25.135  10.554   5.685
    6AU     LIG 2326  25.249  10.543   5.234
    6AU     LIG 2327  25.570  10.666   4.915
    6AU       S 2328  24.879  11.610   6.696
    6AU     LIG 2329  24.980  11.712   6.262
    6AU     LIG 2330  25.265  11.975   6.023
    6AU     LIG 2331  25.557  12.255   5.799
    6AU     LIG 2332  25.716  12.503   5.431
    6AU    AUSL 2333  24.384  10.713   6.773
    6AU    AUSL 2334  24.663  10.576   7.037
    6AU     AUL 2335  24.862  10.786   6.858
    6AU       S 2336  24.844  10.319   6.651
    6AU     LIG 2337  25.125  10.070   6.345
    6AU     LIG 2338  25.287   9.644   6.187
    6AU     LIG 2339  25.553   9.387   5.884
    6AU     LIG 2340  25.871   9.436   5.523
    6AU       S 2341  24.572  10.633   6.364
    6AU     LIG 2342  24.756  10.314   6.080
    6AU     LIG 2343  24.765  10.203   5.618
    6AU     LIG 2344  24.864  10.194   5.146
    6AU     LIG 2345  24.925  10.114   4.674
    6AU    AUSL 2346  24.336  11.069   6.743
    6AU    AUSL 2347  24.011  10.743   6.795
    6AU     AUL 2348  24.144  10.851   6.503
    6AU       S 2349  23.646  10.761   6.320
    6AU     LIG 2350  23.607  10.427   5.987
    6AU     LIG 2351  23.599  10.317   5.523
    6AU     LIG 2352  23.458  10.368   5.080
    6AU     LIG 2353  23.211  10.474   4.707
    6AU       S 2354  24.563  10.959   6.247
    6AU     LIG 2355  24.641  10.739   5.823
    6AU     LIG 2356  24.749  10.670   5.362
    6AU     LIG 2357  24.899  10.794   4.928
    6AU     LIG 2358  24.818  11.062   4.535
    6AU    AUSL 2359  23.641  11.006   8.130
    6AU    AUSL 2360  23.843  11.332   8.060
    6AU     AUL 2361  23.725  11.299   8.402
    6AU       S 2362  23.495  10.884   8.632
    6AU     LIG 2363  23.336  10.722   9.041
    6AU     LIG 2364  23.158  10.557   9.437
    6AU     LIG 2365  22.953  10.538   9.867
    6AU     LIG 2366  22.533  10.596  10.104
    6AU       S 2367  23.416  11.685   8.202
    6AU     LIG 2368  23.479  11.930   8.602
    6AU     LIG 2369  23.459  12.174   8.993
    6AU     LIG 2370  23.109  12.371   9.213
    6AU     LIG 2371  22.837  12.360   9.610
    6AU    AUSL 2372  23.831  10.736   8.218
    6AU    AUSL 2373  23.565  10.655   7.970
    6AU     AUL 2374  23.368  10.829   8.152
    6AU       S 2375  23.385  10.366   8.369
    6AU     LIG 2376  22.950  10.231   8.474
    6AU     LIG 2377  22.619   9.906   8.483
    6AU     LIG 2378  22.398   9.570   8.715
    6AU     LIG 2379  22.067   9.268   8.848
    6AU       S 2380  23.702  10.685   8.594
    6AU     LIG 2381  23.683  10.370   8.911
    6AU     LIG 2382  23.651  10.345   9.370
    6AU     LIG 2383  23.455  10.350   9.800
    6AU     LIG 2384  23.242  10.237  10.205
    6AU    AUSL 2385  23.701  10.890   6.830
    6AU    AUSL 2386  23.806  10.485   6.929
    6AU     AUL 2387  23.941  10.508   6.618
    6AU       S 2388  23.465  10.881   6.472
    6AU     LIG 2389  23.177  10.621   6.183
    6AU     LIG 2390  23.158  10.544   5.698
    6AU     LIG 2391  23.032  10.610   5.228
    6AU     LIG 2392  22.735  10.637   4.851
    6AU       S 2393  23.442  10.370   6.584
    6AU     LIG 2394  23.184  10.025   6.326
    6AU     LIG 2395  22.920   9.611   6.269
    6AU     LIG 2396  22.685   9.273   6.023
    6AU     LIG 2397  22.678   8.896   5.724
    6AU    AUSL 2398  23.990  11.091   6.740
    6AU    AUSL 2399  23.570  11.202   6.990
    6AU     AUL 2400  23.730  11.278   6.660
    6AU       S 2401  23.244  11.424   6.710
    6AU     LIG 2402  23.063  11.813   6.436
    6AU     LIG 2403  22.907  12.004   6.026
    6AU     LIG 2404  22.557  11.945   5.679
    6AU     LIG 2405  22.183  11.878   5.370
    6AU       S 2406  23.725  11.003   6.248
    6AU     LIG 2407  23.501  10.910   5.845
    6AU     LIG 2408  23.496  10.806   5.387
    6AU     LIG 2409  23.405  10.882   4.945
    6AU     LIG 2410  23.459  10.928   4.488
    6AU    AUSL 2411  24.790  11.300   7.502
    6AU    AUSL 2412  24.773  11.183   7.131
    6AU     AUL 2413  24.847  11.608   7.388
    6AU       S 2414  25.092  11.373   6.919
    6AU     LIG 2415  25.319  11.400   6.509
    6AU     LIG 2416  25.607  11.660   6.239
    6AU     LIG 2417  25.913  11.937   5.994
    6AU     LIG 2418  26.083  12.300   5.736
    6AU       S 2419  25.288  11.362   7.365
    6AU     LIG 2420  25.712  11.562   7.297
    6AU     LIG 2421  26.127  11.674   7.493
    6AU     LIG 2422  26.417  11.952   7.716
    6AU     LIG 2423  26.769  12.216   7.620
    6AU    AUSL 2424  24.908  10.971   7.386
    6AU    AUSL 2425  24.840  10.691   7.663
    6AU     AUL 2426  25.138  10.861   7.760
    6AU       S 2427  25.300  11.042   7.267
    6AU     LIG 2428  25.811  11.058   7.282
    6AU     LIG 2429  26.271  11.254   7.224
    6AU     LIG 2430  26.766  11.313   7.168
    6AU     LIG 2431  27.161  11.554   7.064
    6AU       S 2432  25.310  10.402   7.574
    6AU     LIG 2433  25.770  10.285   7.733
    6AU     LIG 2434  26.238  10.144   7.796
    6AU     LIG 2435  26.676   9.941   7.920
    6AU     LIG 2436  27.135   9.892   7.918
    6AU    AUSL 2437  24.831  11.032   7.720
    6AU    AUSL 2438  24.643  11.435   7.799
    6AU     AUL 2439  24.981  11.305   7.826
    6AU       S 2440  24.931  11.673   8.173
    6AU     LIG 2441  25.251  11.946   8.409
    6AU     LIG 2442  25.589  12.195   8.626
    6AU     LIG 2443  25.855  12.497   8.863
    6AU     LIG 2444  26.016  12.923   8.760
    6AU       S 2445  25.375  11.216   7.512
    6AU     LIG 2446  25.762  11.301   7.739
    6AU     LIG 2447  26.210  11.228   7.737
    6AU     LIG 2448  26.606  11.469   7.660
    6AU     LIG 2449  26.896  11.783   7.870
    6AU    AUSL 2450  23.560  11.439   7.507
    6AU    AUSL 2451  23.528  11.256   7.911
    6AU     AUL 2452  23.246  11.463   7.675
    6AU       S 2453  23.250  11.420   8.193
    6AU     LIG 2454  23.120  11.554   8.620
    6AU     LIG 2455  23.017  11.907   8.913
    6AU     LIG 2456  22.698  12.032   9.234
    6AU     LIG 2457  22.330  12.049   9.535
    6AU       S 2458  23.469  11.912   7.487
    6AU     LIG 2459  23.077  12.167   7.323
    6AU     LIG 2460  22.606  12.337   7.374
    6AU     LIG 2461  22.141  12.531   7.370
    6AU     LIG 2462  21.675  12.529   7.254
    6AU    AUSL 2463  23.425  11.109   7.281
    6AU    AUSL 2464  23.681  11.498   7.186
    6AU     AUL 2465  23.314  11.427   7.229
    6AU       S 2466  23.056  11.002   6.919
    6AU     LIG 2467  22.557  11.136   6.949
    6AU     LIG 2468  22.061  11.301   6.928
    6AU     LIG 2469  21.620  11.486   6.762
    6AU     LIG 2470  21.188  11.667   6.598
    6AU       S 2471  23.470  11.874   6.997
    6AU     LIG 2472  23.264  12.250   6.795
    6AU     LIG 2473  23.172  12.438   6.364
    6AU     LIG 2474  23.034  12.834   6.156
    6AU     LIG 2475  22.842  13.204   6.362
    6AU    AUSL 2476  23.378  11.109   7.646
    6AU    AUSL 2477  23.337  10.788   7.342
    6AU     AUL 2478  23.108  11.147   7.412
    6AU       S 2479  22.863  10.697   7.417
    6AU     LIG 2480  22.412  10.640   7.323
    6AU     LIG 2481  21.978  10.474   7.334
    6AU     LIG 2482  21.542  10.454   7.158
    6AU     LIG 2483  21.274  10.106   7.229
    6AU       S 2484  22.951  11.106   7.922
    6AU     LIG 2485  22.454  11.154   7.957
    6AU     LIG 2486  22.039  11.393   8.082
    6AU     LIG 2487  21.549  11.455   8.083
    6AU     LIG 2488  21.078  11.513   8.066
    6AU    AUSL 2489  24.725  10.376   7.570
    6AU    AUSL 2490  24.647  10.568   7.924
    6AU     AUL 2491  24.976  10.557   7.927
    6AU       S 2492  25.129  10.178   7.613
    6AU     LIG 2493  25.483   9.913   7.502
    6AU     LIG 2494  25.932   9.822   7.529
    6AU     LIG 2495  26.390   9.706   7.550
    6AU     LIG 2496  26.610   9.296   7.474
    6AU       S 2497  24.885  10.104   8.117
    6AU     LIG 2498  25.094   9.793   8.402
    6AU     LIG 2499  25.366   9.519   8.665
    6AU     LIG 2500  25.623   9.397   9.032
    6AU     LIG 2501  25.921   9.509   9.383
    6AU    AUSL 2502  24.852  10.637   7.319
    6AU    AUSL 2503  24.538  10.308   7.241
    6AU     AUL 2504  24.852  10.285   7.208
    6AU       S 2505  25.287  10.504   7.348
    6AU     LIG 2506  25.717  10.295   7.230
    6AU     LIG 2507  26.190  10.164   7.255
    6AU     LIG 2508  26.539   9.861   7.092
    6AU     LIG 2509  26.906   9.756   6.814
    6AU       S 2510  24.808  10.078   6.749
    6AU     LIG 2511  25.002   9.659   6.638
    6AU     LIG 2512  25.200   9.241   6.520
    6AU     LIG 2513  25.355   8.812   6.370
    6AU     LIG 2514  25.455   8.618   5.966
    6AU    AUSL 2515  23.445  10.477   7.517
    6AU    AUSL 2516  23.515  10.680   7.050
    6AU     AUL 2517  23.264  10.436   7.231
    6AU       S 2518  23.245  10.539   6.729
    6AU     LIG 2519  22.853  10.355   6.538
    6AU     LIG 2520  22.598   9.963   6.454
    6AU     LIG 2521  22.342   9.591   6.292
    6AU     LIG 2522  21.921   9.440   6.079
    6AU       S 2523  22.880  10.465   7.550
    6AU     LIG 2524  22.526  10.201   7.583
    6AU     LIG 2525  22.101  10.086   7.668
    6AU     LIG 2526  21.843   9.709   7.658
    6AU     LIG 2527  21.734   9.462   7.273
    6AU    AUSL 2528  23.361  10.772   7.704
    6AU    AUSL 2529  23.615  10.340   7.801
    6AU     AUL 2530  23.285  10.446   7.853
    6AU       S 2531  23.388  10.119   8.226
    6AU     LIG 2532  23.084   9.757   8.294
    6AU     LIG 2533  22.765   9.398   8.396
    6AU     LIG 2534  22.460   9.050   8.574
    6AU     LIG 2535  22.224   8.780   8.908
    6AU       S 2536  22.884  10.704   7.652
    6AU     LIG 2537  22.452  10.643   7.835
    6AU     LIG 2538  21.985  10.559   7.847
    6AU     LIG 2539  21.531  10.531   8.016
    6AU     LIG 2540  21.110  10.342   8.041
    6AU    AUSL 2541  24.123  11.547   7.957
    6AU    AUSL 2542  23.754  11.537   7.797
    6AU     AUL 2543  23.916  11.587   8.231
    6AU       S 2544  23.534  11.850   7.972
    6AU     LIG 2545  23.360  12.227   8.201
    6AU     LIG 2546  23.239  12.426   8.608
    6AU     LIG 2547  23.167  12.813   8.867
    6AU     LIG 2548  22.889  13.176   9.031
    6AU       S 2549  24.032  12.021   8.024
    6AU     LIG 2550  24.233  12.235   8.380
    6AU     LIG 2551  24.203  12.669   8.532
    6AU     LIG 2552  24.009  13.073   8.674
    6AU     LIG 2553  23.960  13.367   9.026
    6AU    AUSL 2554  24.031  11.683   7.617
    6AU    AUSL 2555  24.324  11.647   7.342
    6AU     AUL 2556  24.473  11.873   7.562
    6AU       S 2557  23.913  12.075   7.730
    6AU     LIG 2558  23.822  12.429   8.153
    6AU     LIG 2559  23.888  12.876   8.192
    6AU     LIG 2560  23.800  13.313   8.266
    6AU     LIG 2561  23.642  13.738   8.361
    6AU       S 2562  24.209  12.126   7.214
    6AU     LIG 2563  24.478  12.456   6.960
    6AU     LIG 2564  24.547  12.926   6.874
    6AU     LIG 2565  24.781  13.364   6.835
    6AU     LIG 2566  24.949  13.762   6.605
    6AU    AUSL 2567  24.345  11.579   7.687
    6AU    AUSL 2568  24.417  11.376   8.063
    6AU     AUL 2569  24.465  11.734   7.965
    6AU       S 2570  24.721  11.559   8.378
    6AU     LIG 2571  25.000  11.657   8.748
    6AU     LIG 2572  25.293  11.937   8.960
    6AU     LIG 2573  25.495  12.297   9.173
    6AU     LIG 2574  25.708  12.629   9.427
    6AU       S 2575  24.161  12.148   7.835
    6AU     LIG 2576  24.279  12.580   7.994
    6AU     LIG 2577  24.408  13.002   8.159
    6AU     LIG 2578  24.747  13.354   8.123
    6AU     LIG 2579  24.894  13.732   8.340
    6AU    AUSL 2580  24.113  10.276   7.937
    6AU    AUSL 2581  24.470  10.276   7.825
    6AU     AUL 2582  24.215  10.181   8.208
    6AU       S 2583  24.258   9.732   7.992
    6AU     LIG 2584  24.219   9.385   8.265
    6AU     LIG 2585  23.944   9.020   8.339
    6AU     LIG 2586  23.896   8.560   8.349
    6AU     LIG 2587  24.020   8.204   8.634
    6AU       S 2588  24.694   9.992   7.987
    6AU     LIG 2589  24.724   9.552   8.132
    6AU     LIG 2590  25.041   9.266   8.343
    6AU     LIG 2591  25.347   8.988   8.588
    6AU     LIG 2592  25.502   8.538   8.690
    6AU    AUSL 2593  23.900  10.215   7.661
    6AU    AUSL 2594  23.834  10.427   8.073
    6AU     AUL 2595  23.822  10.059   7.969
    6AU       S 2596  24.093   9.640   7.786
    6AU     LIG 2597  23.888   9.242   7.863
    6AU     LIG 2598  23.668   8.827   7.935
    6AU     LIG 2599  23.509   8.393   8.010
    6AU     LIG 2600  23.619   7.936   7.906
    6AU       S 2601  23.633  10.233   8.418
    6AU     LIG 2602  23.336   9.982   8.717
    6AU     LIG 2603  22.966   9.677   8.793
    6AU     LIG 2604  22.765   9.269   8.924
    6AU     LIG 2605  22.624   8.925   9.209
    6AU    AUSL 2606  24.219  10.117   7.644
    6AU    AUSL 2607  23.874  10.160   7.316
    6AU     AUL 2608  23.767   9.959   7.598
    6AU       S 2609  23.888   9.679   7.190
    6AU     LIG 2610  23.651   9.268   7.092
    6AU     LIG 2611  23.517   8.815   7.023
    6AU     LIG 2612  23.575   8.417   6.775
    6AU     LIG 2613  23.313   8.009   6.679
    6AU       S 2614  24.356   9.738   7.718
    6AU     LIG 2615  24.409   9.253   7.803
    6AU     LIG 2616  24.200   8.832   7.926
    6AU     LIG 2617  24.197   8.361   7.980
    6AU     LIG 2618  24.413   8.128   8.294
    6AU    AUSL 2619  24.197  11.530   7.023
    6AU    AUSL 2620  24.584  11.440   7.243
    6AU     AUL 2621  24.514  11.714   7.035
    6AU       S 2622  24.151  12.058   6.934
    6AU     LIG 2623  24.015  12.252   6.542
    6AU     LIG 2624  24.063  12.648   6.314
    6AU     LIG 2625  24.037  12.974   5.983
    6AU     LIG 2626  24.317  13.261   5.708
    6AU       S 2627  25.025  11.634   6.919
    6AU     LIG 2628  25.309  11.906   6.608
    6AU     LIG 2629  25.621  12.178   6.344
    6AU     LIG 2630  26.017  12.441   6.227
    6AU     LIG 2631  26.268  12.863   6.169
    6AU    AUSL 2632  23.973  11.645   7.277
    6AU    AUSL 2633  23.897  11.341   6.965
    6AU     AUL 2634  23.911  11.631   6.873
    6AU       S 2635  23.917  12.065   7.202
    6AU     LIG 2636  23.977  12.520   6.982
    6AU     LIG 2637  24.019  12.936   6.744
    6AU     LIG 2638  23.668  13.278   6.730
    6AU     LIG 2639  23.490  13.711   6.810
    6AU       S 2640  23.434  11.692   6.744
    6AU     LIG 2641  23.536  12.039   6.417
    6AU     LIG 2642  23.436  12.215   5.991
    6AU     LIG 2643  23.223  12.562   5.756
    6AU     LIG 2644  22.906  12.674   5.426
    6AU    AUSL 2645  24.069  10.254   7.021
    6AU    AUSL 2646  23.614  10.370   7.209
    6AU     AUL 2647  23.736  10.127   6.968
    6AU       S 2648  23.286  10.244   6.773
    6AU     LIG 2649  22.984   9.890   6.791
    6AU     LIG 2650  22.696   9.519   6.723
    6AU     LIG 2651  22.530   9.138   6.498
    6AU     LIG 2652  22.373   8.704   6.345
    6AU       S 2653  24.044   9.721   6.954
    6AU     LIG 2654  24.007   9.327   6.729
    6AU     LIG 2655  23.809   8.925   6.611
    6AU     LIG 2656  23.916   8.538   6.382
    6AU     LIG 2657  24.031   8.409   5.933
    6AU    AUSL 2658  24.235  10.146   7.314
    6AU    AUSL 2659  24.365  10.408   6.930
    6AU     AUL 2660  24.407  10.058   7.041
    6AU       S 2661  24.159   9.676   7.266
    6AU     LIG 2662  24.143   9.212   7.229
    6AU     LIG 2663  24.034   8.783   7.046
    6AU     LIG 2664  24.156   8.370   6.837
    6AU     LIG 2665  24.544   8.084   6.777
    6AU       S 2666  24.564  10.204   6.581
    6AU     LIG 2667  24.659   9.850   6.295
    6AU     LIG 2668  24.822   9.426   6.196
    6AU     LIG 2669  25.122   9.125   6.010
    6AU     LIG 2670  25.305   8.969   5.612
    7AU     AUC 2671  19.262  27.284   7.500
    7AU     AUC 2672  19.536  27.265   7.345
    7AU     AUC 2673  19.521  27.265   7.672
    7AU     AUC 2674  19.000  27.301   7.331
    7AU     AUC 2675  18.991  27.304   7.659
    7AU     AUC 2676  19.117  27.563   7.493
    7AU     AUC 2677  19.447  27.539   7.505
    7AU     AUC 2678  19.075  27.027   7.496
    7AU     AUC 2679  19.405  27.002   7.501
    7AU     AUC 2680  19.240  27.121   7.765
    7AU     AUC 2681  19.266  27.451   7.767
    7AU     AUC 2682  19.260  27.118   7.235
    7AU     AUC 2683  19.286  27.448   7.232
    7AU     AUC 2684  19.809  27.251   7.208
    7AU     AUC 2685  19.803  27.239   7.516
    7AU     AUC 2686  19.765  27.242   7.841
    7AU     AUC 2687  18.752  27.310   7.161
    7AU     AUC 2688  18.718  27.315   7.496
    7AU     AUC 2689  18.734  27.328   7.819
    7AU     AUC 2690  18.987  27.840   7.483
    7AU     AUC 2691  19.298  27.826   7.486
    7AU     AUC 2692  19.623  27.782   7.512
    7AU     AUC 2693  18.893  26.781   7.495
    7AU     AUC 2694  19.221  26.738   7.487
    7AU     AUC 2695  19.543  26.726   7.512
    7AU     AUC 2696  19.225  26.963   8.024
    7AU     AUC 2697  19.239  27.289   8.050
    7AU     AUC 2698  19.271  27.614   8.024
    7AU     AUC 2699  19.269  26.959   6.981
    7AU     AUC 2700  19.307  27.289   6.958
    7AU     AUC 2701  19.317  27.605   6.970
    7AU     AUC 2702  19.493  27.095   7.944
    7AU     AUC 2703  19.532  27.437   7.951
    7AU     AUC 2704  19.544  27.100   7.076
    7AU     AUC 2705  19.578  27.454   7.078
    7AU     AUC 2706  18.971  27.141   7.936
    7AU     AUC 2707  18.992  27.474   7.933
    7AU     AUC 2708  18.995  27.132   7.064
    7AU     AUC 2709  19.019  27.452   7.047
    7AU     AUC 2710  19.733  27.521   7.358
    7AU     AUC 2711  19.716  27.528   7.694
    7AU     AUC 2712  18.848  27.588   7.313
    7AU     AUC 2713  18.842  27.598   7.657
    7AU     AUC 2714  19.691  26.973   7.348
    7AU     AUC 2715  19.668  26.971   7.673
    7AU     AUC 2716  18.793  27.040   7.334
    7AU     AUC 2717  18.798  27.034   7.672
    7AU     AUC 2718  19.128  27.745   7.758
    7AU     AUC 2719  19.457  27.712   7.778
    7AU     AUC 2720  19.061  26.857   7.769
    7AU     AUC 2721  19.391  26.831   7.772
    7AU     AUC 2722  19.134  27.733   7.220
    7AU     AUC 2723  19.467  27.718   7.227
    7AU     AUC 2724  19.064  26.849   7.220
    7AU     AUC 2725  19.401  26.827   7.225
    7AU    AUSL 2726  19.654  27.203   8.140
    7AU    AUSL 2727  19.529  26.847   8.111
    7AU     AUL 2728  19.922  27.022   8.254
    7AU       S 2729  19.839  26.507   8.302
    7AU     LIG 2730  19.756  26.183   8.583
    7AU     LIG 2731  20.025  25.881   8.785
    7AU     LIG 2732  20.310  25.633   9.048
    7AU     LIG 2733  20.451  25.492   9.470
    7AU       S 2734  19.630  26.881   8.644
    7AU     LIG 2735  19.860  26.951   9.047
    7AU     LIG 2736  20.149  26.886   9.421
    7AU     LIG 2737  20.454  26.778   9.776
    7AU     LIG 2738  20.877  26.796   9.998
    7AU    AUSL 2739  19.331  27.099   8.261
    7AU    AUSL 2740  19.114  27.446   8.270
    7AU     AUL 2741  19.384  27.347   8.552
    7AU       S 2742  19.299  26.852   8.643
    7AU     LIG 2743  19.349  26.812   9.103
    7AU     LIG 2744  19.666  26.651   9.427
    7AU     LIG 2745  19.985  26.518   9.754
    7AU     LIG 2746  20.202  26.516  10.168
    7AU       S 2747  18.917  27.279   8.734
    7AU     LIG 2748  18.925  27.160   9.175
    7AU     LIG 2749  18.614  27.171   9.526
    7AU     LIG 2750  18.410  27.206   9.953
    7AU     LIG 2751  18.256  27.495  10.288
    7AU    AUSL 2752  19.450  27.492   8.234
    7AU    AUSL 2753  19.831  27.505   8.024
    7AU     AUL 2754  19.771  27.382   8.411
    7AU       S 2755  19.443  27.847   8.587
    7AU     LIG 2756  19.711  27.884   8.965
    7AU     LIG 2757  19.793  27.972   9.423
    7AU     LIG 2758  19.735  28.007   9.895
    7AU     LIG 2759  19.792  27.913  10.360
    7AU       S 2760  20.084  27.772   8.319
    7AU     LIG 2761  20.507  27.830   8.429
    7AU     LIG 2762  20.802  28.083   8.654
    7AU     LIG 2763  20.985  28.291   9.014
    7AU     LIG 2764  21.161  28.528   9.372
    7AU    AUSL 2765  19.749  27.307   6.933
    7AU    AUSL 2766  19.621  27.731   6.924
    7AU     AUL 2767  19.836  27.544   6.694
    7AU       S 2768  19.913  27.157   6.370
    7AU     LIG 2769  20.239  26.996   6.097
    7AU     LIG 2770  20.324  26.905   5.647
    7AU     LIG 2771  20.427  26.968   5.190
    7AU     LIG 2772  20.730  26.903   4.839
    7AU       S 2773  20.018  28.003   6.692
    7AU     LIG 2774  20.155  28.116   6.255
    7AU     LIG 2775  20.453  28.328   5.967
    7AU     LIG 2776  20.690  28.680   5.796
    7AU     LIG 2777  20.738  28.935   5.413
    7AU    AUSL 2778  19.528  27.100   6.771
    7AU    AUSL 2779  19.806  26.963   7.033
    7AU     AUL 2780  20.008  27.172   6.857
    7AU       S 2781  19.983  26.705   6.648
    7AU     LIG 2782  20.235  26.507   6.299
    7AU     LIG 2783  20.427  26.133   6.079
    7AU     LIG 2784  20.750  25.898   5.816
    7AU     LIG 2785  21.135  25.868   5.539
    7AU       S 2786  19.719  27.029   6.375
    7AU     LIG 2787  19.814  26.708   6.087
    7AU     LIG 2788  19.896  26.623   5.654
    7AU     LIG 2789  20.071  26.596   5.230
    7AU     LIG 2790  20.192  26.686   4.784
    7AU    AUSL 2791  19.480  27.456   6.742
    7AU    AUSL 2792  19.156  27.126   6.794
    7AU     AUL 2793  19.284  27.240   6.500
    7AU       S 2794  18.780  27.146   6.325
    7AU     LIG 2795  18.698  26.800   6.014
    7AU     LIG 2796  18.631  26.690   5.559
    7AU     LIG 2797  18.593  26.759   5.106
    7AU     LIG 2798  18.461  26.674   4.677
    7AU       S 2799  19.707  27.344   6.248
    7AU     LIG 2800  19.831  27.146   5.823
    7AU     LIG 2801  19.935  27.086   5.362
    7AU     LIG 2802  20.063  27.252   4.934
    7AU     LIG 2803  20.017  27.605   4.602
    7AU    AUSL 2804  18.790  27.388   8.130
    7AU    AUSL 2805  18.990  27.716   8.059
    7AU     AUL 2806  18.887  27.682   8.405
    7AU       S 2807  18.645  27.271   8.631
    7AU     LIG 2808  18.459  27.035   8.994
    7AU     LIG 2809  18.216  26.877   9.364
    7AU     LIG 2810  18.003  26.958   9.771
    7AU     LIG 2811  17.923  27.100  10.203
    7AU       S 2812  18.557  28.045   8.212
    7AU     LIG 2813  18.597  28.208   8.655
    7AU     LIG 2814  18.471  28.519   8.977
    7AU     LIG 2815  18.233  28.859   9.182
    7AU     LIG 2816  17.881  28.990   9.451
    7AU    AUSL 2817  18.978  27.117   8.215
    7AU    AUSL 2818  18.709  27.035   7.969
    7AU     AUL 2819  18.515  27.213   8.151
    7AU       S 2820  18.531  26.751   8.368
    7AU     LIG 2821  18.102  26.616   8.493
    7AU     LIG 2822  17.769  26.297   8.468
    7AU     LIG 2823  17.554  25.957   8.690
    7AU     LIG 2824  17.407  25.670   9.017
    7AU       S 2825  18.850  27.065   8.594
    7AU     LIG 2826  18.856  26.731   8.904
    7AU     LIG 2827  18.714  26.695   9.342
    7AU     LIG 2828  18.499  26.722   9.767
    7AU     LIG 2829  18.253  26.694  10.160
    7AU    AUSL 2830  18.846  27.273   6.830
    7AU    AUSL 2831  18.951  26.869   6.929
    7AU     AUL 2832  19.086  26.894   6.615
    7AU       S 2833  18.600  27.276   6.482
    7AU     LIG 2834  18.293  27.032   6.209
    7AU     LIG 2835  18.225  26.949   5.734
    7AU     LIG 2836  18.120  26.977   5.257
    7AU     LIG 2837  17.934  27.059   4.821
    7AU       S 2838  18.587  26.762   6.588
    7AU     LIG 2839  18.334  26.494   6.286
    7AU     LIG 2840  18.071  26.095   6.240
    7AU     LIG 2841  17.874  25.782   5.962
    7AU     LIG 2842  17.863  25.668   5.502
    7AU    AUSL 2843  19.135  27.474   6.743
    7AU    AUSL 2844  18.715  27.579   6.990
    7AU     AUL 2845  18.889  27.664   6.657
    7AU       S 2846  18.390  27.756   6.710
    7AU     LIG 2847  18.098  28.032   6.467
    7AU     LIG 2848  18.043  28.271   6.058
    7AU     LIG 2849  17.765  28.369   5.674
    7AU     LIG 2850  17.324  28.282   5.488
    7AU       S 2851  18.856  27.384   6.251
    7AU     LIG 2852  18.608  27.285   5.857
    7AU     LIG 2853  18.567  27.192   5.394
    7AU     LIG 2854  18.450  27.215   4.920
    7AU     LIG 2855  18.461  27.442   4.509
    7AU    AUSL 2856  19.932  27.682   7.501
    7AU    AUSL 2857  19.915  27.571   7.130
    7AU     AUL 2858  20.003  27.985   7.394
    7AU       S 2859  20.232  27.767   6.921
    7AU     LIG 2860  20.458  27.784   6.518
    7AU     LIG 2861  20.751  28.035   6.260
    7AU     LIG 2862  20.996  28.293   5.947
    7AU     LIG 2863  21.168  28.583   5.606
    7AU       S 2864  20.446  27.739   7.361
    7AU     LIG 2865  20.932  27.878   7.338
    7AU     LIG 2866  21.397  27.991   7.477
    7AU     LIG 2867  21.826  28.168   7.452
    7AU     LIG 2868  21.975  28.570   7.255
    7AU    AUSL 2869  20.052  27.356   7.383
    7AU    AUSL 2870  19.983  27.074   7.659
    7AU     AUL 2871  20.285  27.233   7.750
    7AU       S 2872  20.434  27.425   7.263
    7AU     LIG 2873  20.914  27.363   7.262
    7AU     LIG 2874  21.358  27.553   7.230
    7AU     LIG 2875  21.713  27.854   7.051
    7AU     LIG 2876  22.182  28.046   7.090
    7AU       S 2877  20.454  26.766   7.567
    7AU     LIG 2878  20.918  26.548   7.647
    7AU     LIG 2879  21.351  26.301   7.683
    7AU     LIG 2880  21.839  26.357   7.689
    7AU     LIG 2881  22.154  26.488   8.049
    7AU    AUSL 2882  19.983  27.414   7.720
    7AU    AUSL 2883  19.785  27.824   7.796
    7AU     AUL 2884  20.123  27.697   7.819
    7AU       S 2885  20.077  28.061   8.173
    7AU     LIG 2886  20.408  28.339   8.415
    7AU     LIG 2887  20.738  28.610   8.653
    7AU     LIG 2888  20.891  29.045   8.812
    7AU     LIG 2889  21.012  29.514   8.680
    7AU       S 2890  20.528  27.595   7.522
    7AU     LIG 2891  20.951  27.562   7.739
    7AU     LIG 2892  21.410  27.619   7.823
    7AU     LIG 2893  21.804  27.866   7.926
    7AU     LIG 2894  22.058  28.252   7.911
    7AU    AUSL 2895  18.703  27.820   7.508
    7AU    AUSL 2896  18.676  27.636   7.908
    7AU     AUL 2897  18.390  27.843   7.677
    7AU       S 2898  18.403  27.787   8.192
    7AU     LIG 2899  18.198  27.887   8.570
    7AU     LIG 2900  18.075  28.264   8.771
    7AU     LIG 2901  17.853  28.536   9.066
    7AU     LIG 2902  17.510  28.579   9.375
    7AU       S 2903  18.608  28.290   7.489
    7AU     LIG 2904  18.150  28.469   7.443
    7AU     LIG 2905  17.693  28.669   7.519
    7AU     LIG 2906  17.267  28.911   7.642
    7AU     LIG 2907  16.858  29.132   7.826
    7AU    AUSL 2908  18.571  27.487   7.282
    7AU    AUSL 2909  18.819  27.880   7.187
    7AU     AUL 2910  18.455  27.802   7.232
    7AU       S 2911  18.205  27.357   6.925
    7AU     LIG 2912  17.837  27.651   6.854
    7AU     LIG 2913  17.369  27.751   6.939
    7AU     LIG 2914  16.911  27.889   6.910
    7AU     LIG 2915  16.598  28.199   7.026
    7AU       S 2916  18.587  28.245   6.991
    7AU     LIG 2917  18.308  28.477   6.665
    7AU     LIG 2918  18.172  28.722   6.283
    7AU     LIG 2919  17.964  29.110   6.085
    7AU     LIG 2920  17.720  29.540   6.145
    7AU    AUSL 2921  18.522  27.490   7.647
    7AU    AUSL 2922  18.481  27.168   7.344
    7AU     AUL 2923  18.252  27.526   7.412
    7AU       S 2924  17.993  27.083   7.409
    7AU     LIG 2925  17.524  27.212   7.322
    7AU     LIG 2926  17.085  26.981   7.309
    7AU     LIG 2927  16.679  26.710   7.259
    7AU     LIG 2928  16.391  26.377   7.031
    7AU       S 2929  18.092  27.489   7.920
    7AU     LIG 2930  17.603  27.580   7.836
    7AU     LIG 2931  17.165  27.824   7.875
    7AU     LIG 2932  16.763  28.095   7.920
    7AU     LIG 2933  16.359  28.199   8.128
    7AU    AUSL 2934  19.868  26.759   7.565
    7AU    AUSL 2935  19.792  26.950   7.921
    7AU     AUL 2936  20.123  26.935   7.919
    7AU       S 2937  20.265  26.554   7.604
    7AU     LIG 2938  20.554  26.235   7.459
    7AU     LIG 2939  20.974  26.037   7.451
    7AU     LIG 2940  21.354  25.769   7.571
    7AU     LIG 2941  21.614  25.447   7.825
    7AU       S 2942  20.028  26.485   8.118
    7AU     LIG 2943  20.259  26.213   8.433
    7AU     LIG 2944  20.544  25.974   8.727
    7AU     LIG 2945  20.785  25.840   9.117
    7AU     LIG 2946  21.030  25.989   9.504
    7AU    AUSL 2947  19.996  27.021   7.316
    7AU    AUSL 2948  19.681  26.697   7.241
    7AU     AUL 2949  19.991  26.667   7.199
    7AU       S 2950  20.424  26.884   7.343
    7AU     LIG 2951  20.773  26.608   7.165
    7AU     LIG 2952  21.218  26.420   7.192
    7AU     LIG 2953  21.706  26.379   7.124
    7AU     LIG 2954  22.115  26.518   6.854
    7AU       S 2955  19.952  26.459   6.738
    7AU     LIG 2956  20.184  26.061   6.557
    7AU     LIG 2957  20.405  25.678   6.343
    7AU     LIG 2958  20.696  25.290   6.250
    7AU     LIG 2959  21.063  25.000   6.145
    7AU    AUSL 2960  18.588  26.858   7.516
    7AU    AUSL 2961  18.661  27.061   7.052
    7AU     AUL 2962  18.404  26.820   7.232
    7AU       S 2963  18.396  26.918   6.729
    7AU     LIG 2964  17.990  26.767   6.553
    7AU     LIG 2965  17.714  26.409   6.437
    7AU     LIG 2966  17.506  26.039   6.238
    7AU     LIG 2967  17.357  25.673   5.990
    7AU       S 2968  18.011  26.845   7.546
    7AU     LIG 2969  17.550  26.713   7.441
    7AU     LIG 2970  17.145  26.470   7.508
    7AU     LIG 2971  16.974  26.175   7.849
    7AU     LIG 2972  16.686  25.795   7.815
    7AU    AUSL 2973  18.503  27.153   7.704
    7AU    AUSL 2974  18.759  26.722   7.798
    7AU     AUL 2975  18.424  26.825   7.847
    7AU       S 2976  18.536  26.510   8.229
    7AU     LIG 2977  18.241  26.152   8.289
    7AU     LIG 2978  17.933  25.791   8.385
    7AU     LIG 2979  17.627  25.440   8.548
    7AU     LIG 2980  17.327  25.192   8.826
    7AU       S 2981  18.022  27.088   7.648
    7AU     LIG 2982  17.570  27.061   7.812
    7AU     LIG 2983  17.115  26.882   7.818
    7AU     LIG 2984  16.720  26.623   7.781
    7AU     LIG 2985  16.463  26.258   7.958
    7AU    AUSL 2986  19.266  27.932   7.950
    7AU    AUSL 2987  18.897  27.922   7.797
    7AU     AUL 2988  19.063  27.983   8.222
    7AU       S 2989  18.657  28.238   7.984
    7AU     LIG 2990  18.322  28.476   8.319
    7AU     LIG 2991  18.127  28.771   8.671
    7AU     LIG 2992  17.961  29.195   8.864
    7AU     LIG 2993  17.813  29.657   8.740
    7AU       S 2994  19.149  28.424   8.010
    7AU     LIG 2995  19.313  28.663   8.364
    7AU     LIG 2996  19.439  29.085   8.500
    7AU     LIG 2997  19.445  29.543   8.567
    7AU     LIG 2998  19.436  29.955   8.758
    7AU    AUSL 2999  19.174  28.070   7.612
    7AU    AUSL 3000  19.461  28.029   7.335
    7AU     AUL 3001  19.608  28.265   7.534
    7AU       S 3002  19.064  28.461   7.707
    7AU     LIG 3003  19.039  28.923   7.986
    7AU     LIG 3004  19.191  29.385   8.136
    7AU     LIG 3005  19.094  29.893   8.169
    7AU     LIG 3006  18.739  30.255   8.098
    7AU       S 3007  19.341  28.523   7.188
    7AU     LIG 3008  19.545  28.946   6.969
    7AU     LIG 3009  19.693  29.398   6.797
    7AU     LIG 3010  19.895  29.867   6.775
    7AU     LIG 3011  20.171  30.244   6.620
    7AU    AUSL 3012  19.493  27.976   7.685
    7AU    AUSL 3013  19.560  27.759   8.059
    7AU     AUL 3014  19.602  28.118   7.975
    7AU       S 3015  19.869  27.938   8.378
    7AU     LIG 3016  20.148  28.049   8.745
    7AU     LIG 3017  20.455  28.313   8.967
    7AU     LIG 3018  20.682  28.679   9.170
    7AU     LIG 3019  20.837  28.892   9.557
    7AU       S 3020  19.327  28.534   7.842
    7AU     LIG 3021  19.551  28.948   8.003
    7AU     LIG 3022  19.725  29.375   8.164
    7AU     LIG 3023  19.788  29.842   8.309
    7AU     LIG 3024  19.662  30.303   8.397
    7AU    AUSL 3025  19.258  26.655   7.932
    7AU    AUSL 3026  19.614  26.658   7.820
    7AU     AUL 3027  19.356  26.569   8.204
    7AU       S 3028  19.418  26.118   8.002
    7AU     LIG 3029  19.371  25.800   8.315
    7AU     LIG 3030  19.075  25.460   8.430
    7AU     LIG 3031  19.021  25.012   8.493
    7AU     LIG 3032  19.108  24.581   8.619
    7AU       S 3033  19.844  26.374   7.978
    7AU     LIG 3034  19.912  25.943   8.159
    7AU     LIG 3035  20.272  25.684   8.382
    7AU     LIG 3036  20.616  25.454   8.659
    7AU     LIG 3037  20.908  25.068   8.780
    7AU    AUSL 3038  19.043  26.589   7.658
    7AU    AUSL 3039  18.980  26.808   8.069
    7AU     AUL 3040  18.961  26.438   7.961
    7AU       S 3041  19.246  26.021   7.822
    7AU     LIG 3042  19.045  25.610   7.932
    7AU     LIG 3043  18.860  25.165   8.026
    7AU     LIG 3044  18.754  24.710   8.160
    7AU     LIG 3045  18.970  24.293   8.237
    7AU       S 3046  18.783  26.615   8.414
    7AU     LIG 3047  18.495  26.376   8.725
    7AU     LIG 3048  18.118  26.087   8.785
    7AU     LIG 3049  17.930  25.673   8.904
    7AU     LIG 3050  17.774  25.372   9.227
    7AU    AUSL 3051  19.366  26.494   7.640
    7AU    AUSL 3052  19.019  26.542   7.310
    7AU     AUL 3053  18.935  26.318   7.579
    7AU       S 3054  19.038  26.058   7.148
    7AU     LIG 3055  18.794  25.667   6.963
    7AU     LIG 3056  18.647  25.200   6.899
    7AU     LIG 3057  18.619  24.724   6.802
    7AU     LIG 3058  18.903  24.339   6.699
    7AU       S 3059  19.500  26.114   7.713
    7AU     LIG 3060  19.569  25.638   7.870
    7AU     LIG 3061  19.374  25.234   8.072
    7AU     LIG 3062  19.260  24.763   8.106
    7AU     LIG 3063  19.472  24.364   8.235
    7AU    AUSL 3064  19.335  27.917   7.015
    7AU    AUSL 3065  19.732  27.833   7.242
    7AU     AUL 3066  19.650  28.103   7.031
    7AU       S 3067  19.290  28.446   6.912
    7AU     LIG 3068  19.359  28.732   6.543
    7AU     LIG 3069  19.464  29.159   6.371
    7AU     LIG 3070  19.516  29.437   5.977
    7AU     LIG 3071  19.483  29.836   5.722
    7AU       S 3072  20.160  28.029   6.918
    7AU     LIG 3073  20.465  28.293   6.624
    7AU     LIG 3074  20.749  28.568   6.321
    7AU     LIG 3075  21.023  28.943   6.141
    7AU     LIG 3076  21.281  29.385   6.190
    7AU    AUSL 3077  19.111  28.031   7.272
    7AU    AUSL 3078  19.038  27.722   6.969
    7AU     AUL 3079  19.037  28.018   6.872
    7AU       S 3080  19.051  28.448   7.188
    7AU     LIG 3081  19.038  28.890   6.932
    7AU     LIG 3082  19.167  29.351   6.777
    7AU     LIG 3083  19.093  29.861   6.718
    7AU     LIG 3084  19.116  30.305   6.497
    7AU       S 3085  18.548  28.035   6.743
    7AU     LIG 3086  18.562  28.195   6.308
    7AU     LIG 3087  18.506  28.484   5.959
    7AU     LIG 3088  18.162  28.711   5.754
    7AU     LIG 3089  17.957  28.820   5.350
    7AU    AUSL 3090  19.216  26.637   7.016
    7AU    AUSL 3091  18.756  26.751   7.209
    7AU     AUL 3092  18.878  26.514   6.966
    7AU       S 3093  18.426  26.625   6.773
    7AU     LIG 3094  18.123  26.274   6.726
    7AU     LIG 3095  17.792  25.929   6.656
    7AU     LIG 3096  17.439  25.617   6.531
    7AU     LIG 3097  17.196  25.211   6.511
    7AU       S 3098  19.202  26.123   6.919
    7AU     LIG 3099  19.169  25.786   6.624
    7AU     LIG 3100  19.030  25.351   6.583
    7AU     LIG 3101  19.012  24.879   6.522
    7AU     LIG 3102  18.845  24.527   6.231
    7AU    AUSL 3103  19.379  26.528   7.310
    7AU    AUSL 3104  19.510  26.793   6.928
    7AU     AUL 3105  19.565  26.445   7.050
    7AU       S 3106  19.308  26.052   7.245
    7AU     LIG 3107  19.279  25.585   7.092
    7AU     LIG 3108  19.144  25.117   7.023
    7AU     LIG 3109  19.208  24.651   6.963
    7AU     LIG 3110  19.527  24.352   6.789
    7AU       S 3111  19.697  26.592   6.581
    7AU     LIG 3112  19.780  26.242   6.291
    7AU     LIG 3113  19.979  25.879   6.099
    7AU     LIG 3114  20.285  25.668   5.824
    7AU     LIG 3115  20.552  25.568   5.445
    8AU     AUC 3116  42.619  37.443   7.508
    8AU     AUC 3117  42.891  37.426   7.349
    8AU     AUC 3118  42.880  37.426   7.677
    8AU     AUC 3119  42.356  37.458   7.342
    8AU     AUC 3120  42.351  37.463   7.671
    8AU     AUC 3121  42.472  37.721   7.501
    8AU     AUC 3122  42.802  37.699   7.509
    8AU     AUC 3123  42.435  37.185   7.507
    8AU     AUC 3124  42.764  37.163   7.508
    8AU     AUC 3125  42.602  37.282   7.774
    8AU     AUC 3126  42.626  37.611   7.774
    8AU     AUC 3127  42.615  37.277   7.242
    8AU     AUC 3128  42.638  37.608   7.239
    8AU     AUC 3129  43.160  37.412   7.209
    8AU     AUC 3130  43.159  37.401   7.516
    8AU     AUC 3131  43.126  37.405   7.842
    8AU     AUC 3132  42.105  37.464   7.174
    8AU     AUC 3133  42.077  37.471   7.511
    8AU     AUC 3134  42.098  37.486   7.835
    8AU     AUC 3135  42.339  37.997   7.492
    8AU     AUC 3136  42.650  37.984   7.491
    8AU     AUC 3137  42.976  37.942   7.513
    8AU     AUC 3138  42.255  36.939   7.511
    8AU     AUC 3139  42.581  36.897   7.497
    8AU     AUC 3140  42.902  36.887   7.517
    8AU     AUC 3141  42.591  37.124   8.035
    8AU     AUC 3142  42.605  37.451   8.059
    8AU     AUC 3143  42.634  37.775   8.031
    8AU     AUC 3144  42.620  37.117   6.989
    8AU     AUC 3145  42.656  37.448   6.964
    8AU     AUC 3146  42.664  37.765   6.975
    8AU     AUC 3147  42.857  37.257   7.950
    8AU     AUC 3148  42.894  37.599   7.955
    8AU     AUC 3149  42.895  37.260   7.080
    8AU     AUC 3150  42.926  37.616   7.081
    8AU     AUC 3151  42.337  37.301   7.950
    8AU     AUC 3152  42.355  37.634   7.945
    8AU     AUC 3153  42.347  37.289   7.074
    8AU     AUC 3154  42.369  37.609   7.056
    8AU     AUC 3155  43.085  37.682   7.359
    8AU     AUC 3156  43.073  37.689   7.695
    8AU     AUC 3157  42.200  37.744   7.324
    8AU     AUC 3158  42.201  37.756   7.669
    8AU     AUC 3159  43.046  37.134   7.351
    8AU     AUC 3160  43.027  37.133   7.676
    8AU     AUC 3161  42.152  37.197   7.349
    8AU     AUC 3162  42.162  37.192   7.688
    8AU     AUC 3163  42.486  37.904   7.766
    8AU     AUC 3164  42.815  37.872   7.782
    8AU     AUC 3165  42.425  37.017   7.783
    8AU     AUC 3166  42.754  36.992   7.780
    8AU     AUC 3167  42.482  37.891   7.227
    8AU     AUC 3168  42.816  37.878   7.230
    8AU     AUC 3169  42.421  37.007   7.232
    8AU     AUC 3170  42.756  36.986   7.232
    8AU    AUSL 3171  43.020  37.365   8.143
    8AU    AUSL 3172  42.896  37.008   8.117
    8AU     AUL 3173  43.288  37.186   8.256
    8AU       S 3174  43.213  36.670   8.303
    8AU     LIG 3175  43.116  36.305   8.538
    8AU     LIG 3176  43.382  36.001   8.750
    8AU     LIG 3177  43.654  35.806   9.067
    8AU     LIG 3178  43.828  35.532   9.395
    8AU       S 3179  43.002  37.043   8.649
    8AU     LIG 3180  43.213  37.178   9.044
    8AU     LIG 3181  43.495  37.141   9.419
    8AU     LIG 3182  43.792  37.089   9.774
    8AU     LIG 3183  44.172  37.225  10.017
    8AU    AUSL 3184  42.701  37.260   8.268
    8AU    AUSL 3185  42.482  37.609   8.280
    8AU     AUL 3186  42.756  37.507   8.558
    8AU       S 3187  42.669  37.011   8.649
    8AU     LIG 3188  42.721  36.997   9.108
    8AU     LIG 3189  43.039  36.892   9.449
    8AU     LIG 3190  43.330  36.822   9.820
    8AU     LIG 3191  43.389  36.595  10.240
    8AU       S 3192  42.291  37.447   8.749
    8AU     LIG 3193  42.171  37.388   9.186
    8AU     LIG 3194  41.906  37.405   9.580
    8AU     LIG 3195  41.836  37.385  10.059
    8AU     LIG 3196  41.986  37.486  10.519
    8AU    AUSL 3197  42.819  37.654   8.240
    8AU    AUSL 3198  43.193  37.668   8.024
    8AU     AUL 3199  43.142  37.544   8.412
    8AU       S 3200  42.814  38.007   8.595
    8AU     LIG 3201  43.088  37.970   8.978
    8AU     LIG 3202  43.194  37.993   9.443
    8AU     LIG 3203  43.143  37.982   9.923
    8AU     LIG 3204  43.104  37.977  10.402
    8AU       S 3205  43.443  37.941   8.317
    8AU     LIG 3206  43.863  37.993   8.419
    8AU     LIG 3207  44.168  38.226   8.648
    8AU     LIG 3208  44.321  38.401   9.041
    8AU     LIG 3209  44.450  38.671   9.395
    8AU    AUSL 3210  43.093  37.466   6.940
    8AU    AUSL 3211  42.965  37.894   6.925
    8AU     AUL 3212  43.190  37.700   6.716
    8AU       S 3213  43.241  37.333   6.372
    8AU     LIG 3214  43.559  37.401   6.089
    8AU     LIG 3215  43.630  37.232   5.678
    8AU     LIG 3216  43.678  37.076   5.238
    8AU     LIG 3217  43.953  36.921   4.880
    8AU       S 3218  43.352  38.165   6.681
    8AU     LIG 3219  43.487  38.268   6.244
    8AU     LIG 3220  43.742  38.470   5.917
    8AU     LIG 3221  43.940  38.826   5.695
    8AU     LIG 3222  43.888  39.132   5.332
    8AU    AUSL 3223  42.876  37.260   6.775
    8AU    AUSL 3224  43.158  37.123   7.034
    8AU     AUL 3225  43.355  37.335   6.855
    8AU       S 3226  43.331  36.871   6.643
    8AU     LIG 3227  43.630  36.656   6.339
    8AU     LIG 3228  43.798  36.266   6.131
    8AU     LIG 3229  44.099  35.990   5.897
    8AU     LIG 3230  44.424  35.922   5.567
    8AU       S 3231  43.065  37.192   6.362
    8AU     LIG 3232  43.299  36.929   6.056
    8AU     LIG 3233  43.300  36.844   5.591
    8AU     LIG 3234  43.234  36.827   5.120
    8AU     LIG 3235  43.314  36.720   4.665
    8AU    AUSL 3236  42.827  37.617   6.745
    8AU    AUSL 3237  42.504  37.283   6.802
    8AU     AUL 3238  42.630  37.394   6.506
    8AU       S 3239  42.117  37.305   6.339
    8AU     LIG 3240  41.983  36.976   6.035
    8AU     LIG 3241  41.977  36.946   5.557
    8AU     LIG 3242  41.883  36.991   5.084
    8AU     LIG 3243  41.738  37.046   4.629
    8AU       S 3244  43.047  37.533   6.258
    8AU     LIG 3245  43.120  37.344   5.823
    8AU     LIG 3246  43.222  37.305   5.359
    8AU     LIG 3247  43.322  37.295   4.894
    8AU     LIG 3248  43.269  37.510   4.466
    8AU    AUSL 3249  42.157  37.548   8.146
    8AU    AUSL 3250  42.353  37.876   8.070
    8AU     AUL 3251  42.256  37.845   8.417
    8AU       S 3252  42.017  37.433   8.650
    8AU     LIG 3253  41.763  37.166   8.950
    8AU     LIG 3254  41.540  37.104   9.373
    8AU     LIG 3255  41.358  37.213   9.794
    8AU     LIG 3256  40.947  37.238  10.044
    8AU       S 3257  41.920  38.199   8.224
    8AU     LIG 3258  41.791  38.285   8.665
    8AU     LIG 3259  41.683  38.510   9.055
    8AU     LIG 3260  41.468  38.873   9.253
    8AU     LIG 3261  41.252  38.953   9.666
    8AU    AUSL 3262  42.348  37.279   8.229
    8AU    AUSL 3263  42.078  37.195   7.988
    8AU     AUL 3264  41.885  37.370   8.171
    8AU       S 3265  41.909  36.913   8.394
    8AU     LIG 3266  41.476  36.805   8.518
    8AU     LIG 3267  41.123  36.508   8.484
    8AU     LIG 3268  40.892  36.185   8.718
    8AU     LIG 3269  40.726  35.835   8.982
    8AU       S 3270  42.225  37.234   8.609
    8AU     LIG 3271  42.217  36.931   8.935
    8AU     LIG 3272  42.026  36.919   9.358
    8AU     LIG 3273  41.827  36.939   9.786
    8AU     LIG 3274  41.573  36.930  10.182
    8AU    AUSL 3275  42.195  37.429   6.843
    8AU    AUSL 3276  42.303  37.025   6.939
    8AU     AUL 3277  42.429  37.051   6.622
    8AU       S 3278  41.943  37.433   6.501
    8AU     LIG 3279  41.616  37.288   6.202
    8AU     LIG 3280  41.567  37.214   5.720
    8AU     LIG 3281  41.451  37.242   5.247
    8AU     LIG 3282  41.118  37.191   4.903
    8AU       S 3283  41.928  36.922   6.606
    8AU     LIG 3284  41.604  36.697   6.321
    8AU     LIG 3285  41.383  36.275   6.225
    8AU     LIG 3286  41.168  35.962   5.946
    8AU     LIG 3287  41.171  35.783   5.499
    8AU    AUSL 3288  42.482  37.630   6.751
    8AU    AUSL 3289  42.063  37.732   7.003
    8AU     AUL 3290  42.235  37.820   6.666
    8AU       S 3291  41.732  37.889   6.726
    8AU     LIG 3292  41.362  38.097   6.541
    8AU     LIG 3293  41.232  38.271   6.127
    8AU     LIG 3294  40.892  38.260   5.784
    8AU     LIG 3295  40.565  38.487   5.512
    8AU       S 3296  42.198  37.537   6.262
    8AU     LIG 3297  42.013  37.447   5.836
    8AU     LIG 3298  41.922  37.428   5.368
    8AU     LIG 3299  41.878  37.489   4.891
    8AU     LIG 3300  41.913  37.835   4.545
    8AU    AUSL 3301  43.286  37.846   7.498
    8AU    AUSL 3302  43.264  37.734   7.128
    8AU     AUL 3303  43.347  38.152   7.391
    8AU       S 3304  43.584  37.942   6.912
    8AU     LIG 3305  43.781  37.924   6.493
    8AU     LIG 3306  44.051  38.187   6.221
    8AU     LIG 3307  44.268  38.462   5.902
    8AU     LIG 3308  44.448  38.745   5.577
    8AU       S 3309  43.789  37.909   7.352
    8AU     LIG 3310  44.259  38.026   7.274
    8AU     LIG 3311  44.700  38.205   7.330
    8AU     LIG 3312   0.098  38.438   7.413
    8AU     LIG 3313   0.206  38.617   7.817
    8AU    AUSL 3314  43.404  37.518   7.377
    8AU    AUSL 3315  43.341  37.237   7.657
    8AU     AUL 3316  43.647  37.399   7.737
    8AU       S 3317  43.783  37.592   7.248
    8AU     LIG 3318  44.251  37.505   7.299
    8AU     LIG 3319  44.687  37.691   7.264
    8AU     LIG 3320   0.114  37.916   7.214
    8AU     LIG 3321   0.520  38.138   7.314
    8AU       S 3322  43.790  36.919   7.565
    8AU     LIG 3323  44.152  36.670   7.748
    8AU     LIG 3324  44.580  36.473   7.789
    8AU     LIG 3325   0.042  36.378   7.752
    8AU     LIG 3326   0.475  36.188   7.862
    8AU    AUSL 3327  43.341  37.578   7.716
    8AU    AUSL 3328  43.143  37.986   7.795
    8AU     AUL 3329  43.481  37.859   7.819
    8AU       S 3330  43.435  38.228   8.166
    8AU     LIG 3331  43.768  38.497   8.420
    8AU     LIG 3332  44.094  38.747   8.687
    8AU     LIG 3333  44.240  39.140   8.941
    8AU     LIG 3334  44.316  39.628   9.004
    8AU       S 3335  43.866  37.770   7.498
    8AU     LIG 3336  44.244  37.802   7.739
    8AU     LIG 3337  44.692  37.887   7.741
    8AU     LIG 3338   0.133  38.027   7.714
    8AU     LIG 3339   0.573  37.933   7.796
    8AU    AUSL 3340  42.055  37.975   7.520
    8AU    AUSL 3341  42.039  37.793   7.924
    8AU     AUL 3342  41.746  37.992   7.698
    8AU       S 3343  41.767  37.946   8.216
    8AU     LIG 3344  41.385  38.084   8.402
    8AU     LIG 3345  41.279  38.328   8.771
    8AU     LIG 3346  41.171  38.457   9.197
    8AU     LIG 3347  40.863  38.675   9.469
    8AU       S 3348  41.941  38.439   7.492
    8AU     LIG 3349  41.448  38.463   7.341
    8AU     LIG 3350  40.935  38.488   7.368
    8AU     LIG 3351  40.536  38.791   7.318
    8AU     LIG 3352  40.276  39.209   7.240
    8AU    AUSL 3353  41.923  37.639   7.297
    8AU    AUSL 3354  42.165  38.034   7.196
    8AU     AUL 3355  41.805  37.951   7.246
    8AU       S 3356  41.536  37.507   6.962
    8AU     LIG 3357  41.195  37.845   6.984
    8AU     LIG 3358  40.811  38.081   7.061
    8AU     LIG 3359  40.413  38.324   7.003
    8AU     LIG 3360  40.001  38.554   6.922
    8AU       S 3361  41.914  38.391   6.995
    8AU     LIG 3362  41.561  38.582   6.705
    8AU     LIG 3363  41.386  38.906   6.373
    8AU     LIG 3364  41.165  39.345   6.242
    8AU     LIG 3365  40.856  39.726   6.161
    8AU    AUSL 3366  41.885  37.644   7.664
    8AU    AUSL 3367  41.841  37.319   7.363
    8AU     AUL 3368  41.613  37.682   7.442
    8AU       S 3369  41.373  37.232   7.425
    8AU     LIG 3370  41.077  37.001   7.184
    8AU     LIG 3371  40.652  36.992   7.178
    8AU     LIG 3372  40.223  36.842   7.275
    8AU     LIG 3373  39.853  36.961   7.070
    8AU       S 3374  41.464  37.635   7.952
    8AU     LIG 3375  41.021  37.792   8.051
    8AU     LIG 3376  40.683  38.104   7.958
    8AU     LIG 3377  40.221  38.173   7.945
    8AU     LIG 3378  39.776  38.162   8.181
    8AU    AUSL 3379  43.226  36.923   7.567
    8AU    AUSL 3380  43.155  37.112   7.922
    8AU     AUL 3381  43.484  37.112   7.921
    8AU       S 3382  43.607  36.714   7.614
    8AU     LIG 3383  43.850  36.385   7.442
    8AU     LIG 3384  44.279  36.240   7.424
    8AU     LIG 3385  44.718  36.080   7.470
    8AU     LIG 3386  44.950  35.841   7.811
    8AU       S 3387  43.401  36.654   8.109
    8AU     LIG 3388  43.620  36.366   8.414
    8AU     LIG 3389  43.891  36.117   8.706
    8AU     LIG 3390  44.163  35.857   8.996
    8AU     LIG 3391  44.452  35.773   9.358
    8AU    AUSL 3392  43.351  37.182   7.314
    8AU    AUSL 3393  43.037  36.859   7.243
    8AU     AUL 3394  43.347  36.830   7.198
    8AU       S 3395  43.784  37.035   7.345
    8AU     LIG 3396  44.171  36.750   7.245
    8AU     LIG 3397  44.625  36.587   7.286
    8AU     LIG 3398   0.057  36.427   7.194
    8AU     LIG 3399   0.469  36.506   6.964
    8AU       S 3400  43.299  36.631   6.735
    8AU     LIG 3401  43.487  36.221   6.576
    8AU     LIG 3402  43.690  35.832   6.386
    8AU     LIG 3403  43.969  35.541   6.149
    8AU     LIG 3404  44.147  35.129   5.985
    8AU    AUSL 3405  41.953  37.012   7.537
    8AU    AUSL 3406  42.014  37.216   7.068
    8AU     AUL 3407  41.770  36.961   7.255
    8AU       S 3408  41.735  37.082   6.756
    8AU     LIG 3409  41.298  36.949   6.669
    8AU     LIG 3410  41.056  36.582   6.477
    8AU     LIG 3411  40.813  36.217   6.269
    8AU     LIG 3412  40.385  35.979   6.170
    8AU       S 3413  41.389  36.998   7.580
    8AU     LIG 3414  41.012  36.732   7.617
    8AU     LIG 3415  40.644  36.532   7.417
    8AU     LIG 3416  40.233  36.336   7.514
    8AU     LIG 3417  39.915  36.099   7.807
    8AU    AUSL 3418  41.869  37.308   7.724
    8AU    AUSL 3419  42.126  36.880   7.819
    8AU     AUL 3420  41.795  36.985   7.877
    8AU       S 3421  41.911  36.672   8.258
    8AU     LIG 3422  41.588  36.338   8.304
    8AU     LIG 3423  41.255  36.003   8.394
    8AU     LIG 3424  40.912  35.683   8.526
    8AU     LIG 3425  40.537  35.359   8.579
    8AU       S 3426  41.388  37.240   7.667
    8AU     LIG 3427  40.904  37.230   7.651
    8AU     LIG 3428  40.528  36.953   7.684
    8AU     LIG 3429  40.053  36.873   7.760
    8AU     LIG 3430  39.628  36.786   7.957
    8AU    AUSL 3431  42.625  38.093   7.956
    8AU    AUSL 3432  42.254  38.079   7.806
    8AU     AUL 3433  42.425  38.146   8.231
    8AU       S 3434  42.017  38.391   7.985
    8AU     LIG 3435  41.641  38.597   8.274
    8AU     LIG 3436  41.493  38.800   8.677
    8AU     LIG 3437  41.304  39.194   8.857
    8AU     LIG 3438  40.980  39.544   8.856
    8AU       S 3439  42.511  38.582   8.009
    8AU     LIG 3440  42.683  38.776   8.373
    8AU     LIG 3441  42.789  39.183   8.539
    8AU     LIG 3442  42.771  39.615   8.700
    8AU     LIG 3443  42.735  39.834   9.119
    8AU    AUSL 3444  42.529  38.227   7.618
    8AU    AUSL 3445  42.808  38.190   7.340
    8AU     AUL 3446  42.972  38.415   7.540
    8AU       S 3447  42.414  38.618   7.716
    8AU     LIG 3448  42.387  39.066   8.026
    8AU     LIG 3449  42.491  39.508   8.253
    8AU     LIG 3450  42.341  39.978   8.389
    8AU     LIG 3451  42.047  40.394   8.369
    8AU       S 3452  42.683  38.682   7.219
    8AU     LIG 3453  42.879  39.118   7.023
    8AU     LIG 3454  43.027  39.557   6.806
    8AU     LIG 3455  43.164  40.050   6.745
    8AU     LIG 3456  43.481  40.418   6.599
    8AU    AUSL 3457  42.846  38.130   7.687
    8AU    AUSL 3458  42.921  37.923   8.061
    8AU     AUL 3459  42.961  38.283   7.968
    8AU       S 3460  43.227  38.104   8.368
    8AU     LIG 3461  43.467  38.227   8.735
    8AU     LIG 3462  43.800  38.416   8.960
    8AU     LIG 3463  43.979  38.762   9.195
    8AU     LIG 3464  44.031  39.124   9.467
    8AU       S 3465  42.680  38.696   7.827
    8AU     LIG 3466  42.900  39.094   8.029
    8AU     LIG 3467  43.053  39.511   8.237
    8AU     LIG 3468  43.385  39.870   8.324
    8AU     LIG 3469  43.492  40.337   8.346
    8AU    AUSL 3470  42.624  36.815   7.942
    8AU    AUSL 3471  42.977  36.819   7.824
    8AU     AUL 3472  42.728  36.725   8.212
    8AU       S 3473  42.781  36.272   8.009
    8AU     LIG 3474  42.733  35.909   8.297
    8AU     LIG 3475  42.441  35.548   8.431
    8AU     LIG 3476  42.301  35.102   8.547
    8AU     LIG 3477  42.397  34.662   8.715
    8AU       S 3478  43.209  36.540   7.979
    8AU     LIG 3479  43.280  36.108   8.100
    8AU     LIG 3480  43.616  35.854   8.319
    8AU     LIG 3481  43.860  35.604   8.637
    8AU     LIG 3482  44.098  35.338   8.952
    8AU    AUSL 3483  42.406  36.749   7.672
    8AU    AUSL 3484  42.351  36.968   8.086
    8AU     AUL 3485  42.330  36.598   7.981
    8AU       S 3486  42.605  36.178   7.818
    8AU     LIG 3487  42.400  35.762   7.924
    8AU     LIG 3488  42.222  35.319   8.024
    8AU     LIG 3489  42.065  34.884   8.141
    8AU     LIG 3490  42.235  34.478   8.268
    8AU       S 3491  42.162  36.779   8.440
    8AU     LIG 3492  41.858  36.560   8.758
    8AU     LIG 3493  41.465  36.282   8.800
    8AU     LIG 3494  41.256  35.869   8.901
    8AU     LIG 3495  41.106  35.585   9.240
    8AU    AUSL 3496  42.727  36.653   7.649
    8AU    AUSL 3497  42.379  36.699   7.325
    8AU     AUL 3498  42.286  36.484   7.601
    8AU       S 3499  42.399  36.218   7.178
    8AU     LIG 3500  42.181  35.814   7.004
    8AU     LIG 3501  42.090  35.327   6.938
    8AU     LIG 3502  42.064  34.842   6.841
    8AU     LIG 3503  41.850  34.403   6.741
    8AU       S 3504  42.863  36.278   7.723
    8AU     LIG 3505  42.931  35.797   7.835
    8AU     LIG 3506  42.747  35.399   8.044
    8AU     LIG 3507  42.594  34.950   8.153
    8AU     LIG 3508  42.741  34.496   8.202
    8AU    AUSL 3509  42.678  38.078   7.021
    8AU    AUSL 3510  43.078  37.994   7.243
    8AU     AUL 3511  42.994  38.265   7.035
    8AU       S 3512  42.632  38.607   6.936
    8AU     LIG 3513  42.729  38.904   6.586
    8AU     LIG 3514  42.815  39.311   6.370
    8AU     LIG 3515  42.840  39.508   5.926
    8AU     LIG 3516  42.760  39.850   5.608
    8AU       S 3517  43.499  38.191   6.913
    8AU     LIG 3518  43.803  38.431   6.618
    8AU     LIG 3519  44.024  38.708   6.284
    8AU     LIG 3520  44.306  39.015   6.034
    8AU     LIG 3521  44.499  39.475   6.061
    8AU    AUSL 3522  42.457  38.188   7.281
    8AU    AUSL 3523  42.384  37.881   6.975
    8AU     AUL 3524  42.375  38.181   6.882
    8AU       S 3525  42.391  38.602   7.205
    8AU     LIG 3526  42.373  39.035   6.959
    8AU     LIG 3527  42.503  39.473   6.811
    8AU     LIG 3528  42.309  39.932   6.829
    8AU     LIG 3529  42.070  40.356   6.765
    8AU       S 3530  41.883  38.178   6.747
    8AU     LIG 3531  41.762  38.317   6.308
    8AU     LIG 3532  41.604  38.616   5.976
    8AU     LIG 3533  41.580  38.824   5.540
    8AU     LIG 3534  41.522  39.167   5.205
    8AU    AUSL 3535  42.569  36.794   7.028
    8AU    AUSL 3536  42.119  36.910   7.225
    8AU     AUL 3537  42.229  36.669   6.981
    8AU       S 3538  41.776  36.790   6.789
    8AU     LIG 3539  41.465  36.448   6.764
    8AU     LIG 3540  41.170  36.096   6.659
    8AU     LIG 3541  40.980  35.751   6.403
    8AU     LIG 3542  40.582  35.513   6.298
    8AU       S 3543  42.553  36.278   6.948
    8AU     LIG 3544  42.527  35.981   6.636
    8AU     LIG 3545  42.379  35.570   6.581
    8AU     LIG 3546  42.353  35.124   6.511
    8AU     LIG 3547  42.538  34.737   6.323
    8AU    AUSL 3548  42.739  36.688   7.319
    8AU    AUSL 3549  42.860  36.954   6.932
    8AU     AUL 3550  42.918  36.605   7.051
    8AU       S 3551  42.671  36.212   7.263
    8AU     LIG 3552  42.679  35.755   7.082
    8AU     LIG 3553  42.606  35.285   6.951
    8AU     LIG 3554  42.622  34.809   6.831
    8AU     LIG 3555  42.826  34.382   6.682
    8AU       S 3556  43.043  36.761   6.581
    8AU     LIG 3557  43.155  36.466   6.255
    8AU     LIG 3558  43.322  36.070   6.096
    8AU     LIG 3559  43.621  35.810   5.853
    8AU     LIG 3560  43.953  35.551   5.630
    9AU     AUC 3561  14.963   6.603   7.501
    9AU     AUC 3562  15.236   6.586   7.344
    9AU     AUC 3563  15.223   6.585   7.672
    9AU     AUC 3564  14.700   6.618   7.334
    9AU     AUC 3565  14.694   6.623   7.662
    9AU     AUC 3566  14.817   6.880   7.495
    9AU     AUC 3567  15.146   6.859   7.505
    9AU     AUC 3568  14.779   6.346   7.498
    9AU     AUC 3569  15.109   6.323   7.501
    9AU     AUC 3570  14.945   6.441   7.766
    9AU     AUC 3571  14.968   6.770   7.768
    9AU     AUC 3572  14.961   6.438   7.235
    9AU     AUC 3573  14.985   6.767   7.233
    9AU     AUC 3574  15.507   6.573   7.204
    9AU     AUC 3575  15.502   6.561   7.512
    9AU     AUC 3576  15.467   6.564   7.839
    9AU     AUC 3577  14.450   6.627   7.164
    9AU     AUC 3578  14.419   6.632   7.500
    9AU     AUC 3579  14.438   6.645   7.824
    9AU     AUC 3580  14.685   7.156   7.486
    9AU     AUC 3581  14.996   7.144   7.487
    9AU     AUC 3582  15.322   7.102   7.510
    9AU     AUC 3583  14.598   6.100   7.499
    9AU     AUC 3584  14.926   6.059   7.488
    9AU     AUC 3585  15.249   6.047   7.510
    9AU     AUC 3586  14.932   6.283   8.026
    9AU     AUC 3587  14.944   6.609   8.052
    9AU     AUC 3588  14.974   6.934   8.026
    9AU     AUC 3589  14.968   6.278   6.981
    9AU     AUC 3590  15.004   6.609   6.958
    9AU     AUC 3591  15.013   6.925   6.971
    9AU     AUC 3592  15.198   6.416   7.944
    9AU     AUC 3593  15.234   6.757   7.952
    9AU     AUC 3594  15.243   6.421   7.073
    9AU     AUC 3595  15.275   6.775   7.076
    9AU     AUC 3596  14.678   6.460   7.940
    9AU     AUC 3597  14.695   6.793   7.937
    9AU     AUC 3598  14.694   6.450   7.065
    9AU     AUC 3599  14.716   6.770   7.049
    9AU     AUC 3600  15.431   6.842   7.356
    9AU     AUC 3601  15.415   6.849   7.693
    9AU     AUC 3602  14.545   6.904   7.316
    9AU     AUC 3603  14.543   6.915   7.661
    9AU     AUC 3604  15.393   6.294   7.345
    9AU     AUC 3605  15.372   6.292   7.671
    9AU     AUC 3606  14.495   6.357   7.337
    9AU     AUC 3607  14.504   6.352   7.676
    9AU     AUC 3608  14.828   7.063   7.760
    9AU     AUC 3609  15.156   7.031   7.779
    9AU     AUC 3610  14.768   6.177   7.772
    9AU     AUC 3611  15.098   6.152   7.773
    9AU     AUC 3612  14.830   7.050   7.222
    9AU     AUC 3613  15.165   7.038   7.227
    9AU     AUC 3614  14.766   6.168   7.222
    9AU     AUC 3615  15.104   6.148   7.225
    9AU    AUSL 3616  15.360   6.524   8.140
    9AU    AUSL 3617  15.238   6.166   8.112
    9AU     AUL 3618  15.629   6.343   8.253
    9AU       S 3619  15.550   5.828   8.306
    9AU     LIG 3620  15.432   5.436   8.492
    9AU     LIG 3621  15.688   5.104   8.689
    9AU     LIG 3622  16.000   4.837   8.932
    9AU     LIG 3623  16.285   4.755   9.300
    9AU       S 3624  15.338   6.203   8.645
    9AU     LIG 3625  15.538   6.321   9.054
    9AU     LIG 3626  15.809   6.288   9.438
    9AU     LIG 3627  16.134   6.241   9.770
    9AU     LIG 3628  16.568   6.343   9.941
    9AU    AUSL 3629  15.039   6.417   8.261
    9AU    AUSL 3630  14.820   6.767   8.273
    9AU     AUL 3631  15.090   6.664   8.553
    9AU       S 3632  15.006   6.167   8.642
    9AU     LIG 3633  15.035   6.171   9.106
    9AU     LIG 3634  15.332   6.080   9.474
    9AU     LIG 3635  15.633   5.979   9.839
    9AU     LIG 3636  15.670   5.747  10.265
    9AU       S 3637  14.624   6.602   8.737
    9AU     LIG 3638  14.625   6.503   9.179
    9AU     LIG 3639  14.338   6.543   9.540
    9AU     LIG 3640  14.161   6.620   9.967
    9AU     LIG 3641  14.054   6.975  10.267
    9AU    AUSL 3642  15.156   6.812   8.236
    9AU    AUSL 3643  15.533   6.828   8.022
    9AU     AUL 3644  15.479   6.703   8.410
    9AU       S 3645  15.155   7.163   8.594
    9AU     LIG 3646  15.425   7.176   8.992
    9AU     LIG 3647  15.493   7.196   9.476
    9AU     LIG 3648  15.482   7.354   9.937
    9AU     LIG 3649  15.435   7.472  10.397
    9AU       S 3650  15.784   7.098   8.311
    9AU     LIG 3651  16.209   7.152   8.403
    9AU     LIG 3652  16.484   7.336   8.702
    9AU     LIG 3653  16.673   7.634   9.002
    9AU     LIG 3654  16.836   7.972   9.293
    9AU    AUSL 3655  15.445   6.628   6.930
    9AU    AUSL 3656  15.316   7.052   6.922
    9AU     AUL 3657  15.530   6.864   6.690
    9AU       S 3658  15.596   6.475   6.365
    9AU     LIG 3659  15.924   6.426   6.070
    9AU     LIG 3660  15.982   6.331   5.623
    9AU     LIG 3661  16.036   6.242   5.164
    9AU     LIG 3662  16.250   6.285   4.740
    9AU       S 3663  15.707   7.325   6.686
    9AU     LIG 3664  15.853   7.430   6.241
    9AU     LIG 3665  16.110   7.621   5.898
    9AU     LIG 3666  16.349   7.973   5.725
    9AU     LIG 3667  16.368   8.194   5.319
    9AU    AUSL 3668  15.225   6.419   6.768
    9AU    AUSL 3669  15.506   6.284   7.029
    9AU     AUL 3670  15.704   6.493   6.848
    9AU       S 3671  15.684   6.025   6.639
    9AU     LIG 3672  15.961   5.751   6.337
    9AU     LIG 3673  16.163   5.317   6.231
    9AU     LIG 3674  16.476   5.055   5.980
    9AU     LIG 3675  16.936   4.944   5.862
    9AU       S 3676  15.408   6.338   6.359
    9AU     LIG 3677  15.595   6.028   6.058
    9AU     LIG 3678  15.620   5.970   5.569
    9AU     LIG 3679  15.609   5.957   5.074
    9AU     LIG 3680  15.648   5.750   4.633
    9AU    AUSL 3681  15.176   6.776   6.740
    9AU    AUSL 3682  14.853   6.445   6.795
    9AU     AUL 3683  14.980   6.560   6.499
    9AU       S 3684  14.467   6.461   6.331
    9AU     LIG 3685  14.314   6.105   6.055
    9AU     LIG 3686  14.197   6.001   5.607
    9AU     LIG 3687  14.108   6.035   5.146
    9AU     LIG 3688  14.014   6.072   4.687
    9AU       S 3689  15.400   6.664   6.242
    9AU     LIG 3690  15.485   6.464   5.804
    9AU     LIG 3691  15.565   6.431   5.324
    9AU     LIG 3692  15.700   6.519   4.872
    9AU     LIG 3693  16.014   6.713   4.567
    9AU    AUSL 3694  14.495   6.707   8.136
    9AU    AUSL 3695  14.692   7.035   8.064
    9AU     AUL 3696  14.592   7.004   8.408
    9AU       S 3697  14.354   6.592   8.634
    9AU     LIG 3698  14.155   6.390   9.003
    9AU     LIG 3699  13.906   6.300   9.390
    9AU     LIG 3700  13.722   6.391   9.813
    9AU     LIG 3701  13.472   6.288  10.202
    9AU       S 3702  14.259   7.364   8.214
    9AU     LIG 3703  14.275   7.521   8.652
    9AU     LIG 3704  14.197   7.791   9.005
    9AU     LIG 3705  13.898   8.044   9.233
    9AU     LIG 3706  13.838   8.206   9.667
    9AU    AUSL 3707  14.686   6.436   8.219
    9AU    AUSL 3708  14.419   6.353   7.975
    9AU     AUL 3709  14.222   6.527   8.156
    9AU       S 3710  14.247   6.067   8.379
    9AU     LIG 3711  13.809   5.947   8.469
    9AU     LIG 3712  13.499   5.607   8.482
    9AU     LIG 3713  13.320   5.239   8.695
    9AU     LIG 3714  13.189   5.114   9.117
    9AU       S 3715  14.561   6.386   8.599
    9AU     LIG 3716  14.541   6.066   8.916
    9AU     LIG 3717  14.383   6.058   9.356
    9AU     LIG 3718  14.178   6.112   9.786
    9AU     LIG 3719  13.954   6.099  10.193
    9AU    AUSL 3720  14.543   6.592   6.834
    9AU    AUSL 3721  14.651   6.186   6.930
    9AU     AUL 3722  14.782   6.214   6.615
    9AU       S 3723  14.298   6.595   6.492
    9AU     LIG 3724  13.960   6.423   6.227
    9AU     LIG 3725  13.852   6.342   5.766
    9AU     LIG 3726  13.731   6.359   5.301
    9AU     LIG 3727  13.544   6.249   4.885
    9AU       S 3728  14.284   6.069   6.591
    9AU     LIG 3729  14.085   5.691   6.333
    9AU     LIG 3730  13.889   5.242   6.268
    9AU     LIG 3731  13.675   4.913   5.986
    9AU     LIG 3732  13.329   4.920   5.680
    9AU    AUSL 3733  14.830   6.792   6.745
    9AU    AUSL 3734  14.411   6.897   6.994
    9AU     AUL 3735  14.585   6.985   6.659
    9AU       S 3736  14.088   7.081   6.719
    9AU     LIG 3737  13.786   7.353   6.499
    9AU     LIG 3738  13.738   7.595   6.109
    9AU     LIG 3739  13.529   7.662   5.701
    9AU     LIG 3740  13.236   7.954   5.515
    9AU       S 3741  14.546   6.700   6.256
    9AU     LIG 3742  14.309   6.584   5.856
    9AU     LIG 3743  14.225   6.482   5.402
    9AU     LIG 3744  14.078   6.524   4.948
    9AU     LIG 3745  13.998   6.778   4.556
    9AU    AUSL 3746  15.630   7.005   7.497
    9AU    AUSL 3747  15.611   6.893   7.127
    9AU     AUL 3748  15.702   7.306   7.391
    9AU       S 3749  15.925   7.089   6.918
    9AU     LIG 3750  16.140   7.090   6.511
    9AU     LIG 3751  16.398   7.343   6.222
    9AU     LIG 3752  16.652   7.605   5.918
    9AU     LIG 3753  16.885   7.720   5.516
    9AU       S 3754  16.149   7.065   7.354
    9AU     LIG 3755  16.664   7.162   7.367
    9AU     LIG 3756  17.165   7.225   7.473
    9AU     LIG 3757  17.571   7.504   7.522
    9AU     LIG 3758  17.888   7.858   7.662
    9AU    AUSL 3759  15.751   6.679   7.380
    9AU    AUSL 3760  15.686   6.397   7.654
    9AU     AUL 3761  15.982   6.565   7.755
    9AU       S 3762  16.128   6.746   7.258
    9AU     LIG 3763  16.594   6.654   7.269
    9AU     LIG 3764  17.030   6.829   7.172
    9AU     LIG 3765  17.473   7.022   7.091
    9AU     LIG 3766  17.838   7.351   7.094
    9AU       S 3767  16.142   6.112   7.547
    9AU     LIG 3768  16.488   5.965   7.808
    9AU     LIG 3769  16.882   5.724   7.828
    9AU     LIG 3770  17.341   5.714   7.760
    9AU     LIG 3771  17.737   5.967   7.946
    9AU    AUSL 3772  15.678   6.737   7.715
    9AU    AUSL 3773  15.485   7.145   7.795
    9AU     AUL 3774  15.825   7.014   7.814
    9AU       S 3775  15.769   7.381   8.159
    9AU     LIG 3776  16.079   7.647   8.385
    9AU     LIG 3777  16.463   7.832   8.555
    9AU     LIG 3778  16.652   8.131   8.837
    9AU     LIG 3779  16.907   8.476   9.013
    9AU       S 3780  16.221   6.916   7.505
    9AU     LIG 3781  16.597   6.841   7.761
    9AU     LIG 3782  17.054   6.854   7.827
    9AU     LIG 3783  17.460   7.056   7.885
    9AU     LIG 3784  17.818   7.335   7.946
    9AU    AUSL 3785  14.401   7.135   7.513
    9AU    AUSL 3786  14.378   6.953   7.913
    9AU     AUL 3787  14.089   7.156   7.683
    9AU       S 3788  14.105   7.106   8.201
    9AU     LIG 3789  13.864   7.228   8.565
    9AU     LIG 3790  13.759   7.545   8.885
    9AU     LIG 3791  13.470   7.752   9.195
    9AU     LIG 3792  13.134   7.686   9.542
    9AU       S 3793  14.304   7.604   7.489
    9AU     LIG 3794  13.871   7.741   7.304
    9AU     LIG 3795  13.409   7.896   7.391
    9AU     LIG 3796  12.977   8.116   7.488
    9AU     LIG 3797  12.523   8.249   7.471
    9AU    AUSL 3798  14.267   6.802   7.286
    9AU    AUSL 3799  14.514   7.195   7.190
    9AU     AUL 3800  14.150   7.115   7.240
    9AU       S 3801  13.894   6.687   6.932
    9AU     LIG 3802  13.544   7.064   6.879
    9AU     LIG 3803  13.087   7.317   6.926
    9AU     LIG 3804  12.603   7.516   6.985
    9AU     LIG 3805  12.102   7.550   6.987
    9AU       S 3806  14.281   7.556   6.996
    9AU     LIG 3807  13.958   7.791   6.731
    9AU     LIG 3808  13.838   8.056   6.346
    9AU     LIG 3809  13.713   8.504   6.203
    9AU     LIG 3810  13.459   8.915   6.174
    9AU    AUSL 3811  14.223   6.804   7.653
    9AU    AUSL 3812  14.183   6.482   7.350
    9AU     AUL 3813  13.949   6.833   7.423
    9AU       S 3814  13.702   6.381   7.437
    9AU     LIG 3815  13.247   6.230   7.354
    9AU     LIG 3816  12.796   6.142   7.247
    9AU     LIG 3817  12.399   5.938   7.155
    9AU     LIG 3818  12.049   5.657   7.283
    9AU       S 3819  13.795   6.802   7.932
    9AU     LIG 3820  13.306   6.944   7.934
    9AU     LIG 3821  12.840   7.162   7.906
    9AU     LIG 3822  12.396   7.415   7.830
    9AU     LIG 3823  11.955   7.666   7.861
    9AU    AUSL 3824  15.573   6.081   7.562
    9AU    AUSL 3825  15.498   6.272   7.918
    9AU     AUL 3826  15.826   6.258   7.917
    9AU       S 3827  15.983   5.884   7.596
    9AU     LIG 3828  16.309   5.561   7.542
    9AU     LIG 3829  16.697   5.312   7.596
    9AU     LIG 3830  17.103   5.216   7.818
    9AU     LIG 3831  17.342   4.797   7.803
    9AU       S 3832  15.736   5.807   8.112
    9AU     LIG 3833  15.934   5.470   8.367
    9AU     LIG 3834  16.201   5.191   8.607
    9AU     LIG 3835  16.506   4.973   8.883
    9AU     LIG 3836  16.747   5.015   9.284
    9AU    AUSL 3837  15.696   6.345   7.310
    9AU    AUSL 3838  15.385   6.019   7.238
    9AU     AUL 3839  15.698   5.993   7.196
    9AU       S 3840  16.137   6.213   7.332
    9AU     LIG 3841  16.566   5.939   7.299
    9AU     LIG 3842  16.982   5.656   7.328
    9AU     LIG 3843  17.435   5.556   7.199
    9AU     LIG 3844  17.771   5.457   6.849
    9AU       S 3845  15.648   5.787   6.736
    9AU     LIG 3846  15.802   5.348   6.632
    9AU     LIG 3847  15.976   4.918   6.516
    9AU     LIG 3848  16.316   4.697   6.310
    9AU     LIG 3849  16.347   4.336   6.030
    9AU    AUSL 3850  14.295   6.172   7.522
    9AU    AUSL 3851  14.360   6.379   7.054
    9AU     AUL 3852  14.108   6.136   7.235
    9AU       S 3853  14.089   6.236   6.732
    9AU     LIG 3854  13.732   6.030   6.495
    9AU     LIG 3855  13.552   5.608   6.410
    9AU     LIG 3856  13.348   5.222   6.247
    9AU     LIG 3857  12.969   5.131   5.981
    9AU       S 3858  13.731   6.143   7.567
    9AU     LIG 3859  13.372   5.924   7.748
    9AU     LIG 3860  12.925   5.840   7.644
    9AU     LIG 3861  12.526   5.625   7.539
    9AU     LIG 3862  12.293   5.224   7.494
    9AU    AUSL 3863  14.211   6.467   7.711
    9AU    AUSL 3864  14.471   6.039   7.804
    9AU     AUL 3865  14.142   6.139   7.860
    9AU       S 3866  14.256   5.828   8.240
    9AU     LIG 3867  13.956   5.490   8.259
    9AU     LIG 3868  13.645   5.149   8.277
    9AU     LIG 3869  13.422   4.792   8.447
    9AU     LIG 3870  13.156   4.700   8.809
    9AU       S 3871  13.737   6.391   7.669
    9AU     LIG 3872  13.301   6.432   7.819
    9AU     LIG 3873  12.843   6.338   7.721
    9AU     LIG 3874  12.408   6.123   7.643
    9AU     LIG 3875  11.939   5.977   7.673
    9AU    AUSL 3876  14.964   7.252   7.952
    9AU    AUSL 3877  14.597   7.239   7.800
    9AU     AUL 3878  14.767   7.307   8.225
    9AU       S 3879  14.364   7.553   7.981
    9AU     LIG 3880  14.064   7.821   8.294
    9AU     LIG 3881  13.848   8.014   8.690
    9AU     LIG 3882  13.536   8.296   8.931
    9AU     LIG 3883  13.206   8.670   8.931
    9AU       S 3884  14.848   7.751   8.010
    9AU     LIG 3885  14.898   8.058   8.361
    9AU     LIG 3886  14.993   8.503   8.504
    9AU     LIG 3887  15.050   8.977   8.547
    9AU     LIG 3888  15.102   9.306   8.893
    9AU    AUSL 3889  14.873   7.387   7.614
    9AU    AUSL 3890  15.157   7.350   7.338
    9AU     AUL 3891  15.319   7.575   7.547
    9AU       S 3892  14.756   7.772   7.702
    9AU     LIG 3893  14.668   8.235   7.926
    9AU     LIG 3894  14.826   8.691   8.060
    9AU     LIG 3895  14.916   9.162   8.089
    9AU     LIG 3896  14.708   9.613   8.130
    9AU       S 3897  15.020   7.832   7.229
    9AU     LIG 3898  15.285   8.176   7.033
    9AU     LIG 3899  15.307   8.581   6.797
    9AU     LIG 3900  15.269   9.045   6.685
    9AU     LIG 3901  15.456   9.460   6.545
    9AU    AUSL 3902  15.188   7.288   7.685
    9AU    AUSL 3903  15.260   7.082   8.059
    9AU     AUL 3904  15.295   7.443   7.970
    9AU       S 3905  15.570   7.264   8.370
    9AU     LIG 3906  15.850   7.357   8.740
    9AU     LIG 3907  16.144   7.655   8.920
    9AU     LIG 3908  16.322   7.960   9.206
    9AU     LIG 3909  16.332   8.157   9.624
    9AU       S 3910  15.014   7.858   7.822
    9AU     LIG 3911  15.175   8.295   8.002
    9AU     LIG 3912  15.322   8.735   8.160
    9AU     LIG 3913  15.437   9.196   8.179
    9AU     LIG 3914  15.591   9.660   8.252
    9AU    AUSL 3915  14.968   5.976   7.933
    9AU    AUSL 3916  15.323   5.978   7.819
    9AU     AUL 3917  15.068   5.882   8.202
    9AU       S 3918  15.126   5.432   7.992
    9AU     LIG 3919  15.107   5.074   8.261
    9AU     LIG 3920  14.796   4.756   8.405
    9AU     LIG 3921  14.811   4.306   8.511
    9AU     LIG 3922  15.097   3.948   8.663
    9AU       S 3923  15.553   5.691   7.981
    9AU     LIG 3924  15.605   5.222   8.065
    9AU     LIG 3925  15.895   4.890   8.271
    9AU     LIG 3926  16.261   4.691   8.501
    9AU     LIG 3927  16.531   4.437   8.784
    9AU    AUSL 3928  14.752   5.911   7.660
    9AU    AUSL 3929  14.692   6.127   8.074
    9AU     AUL 3930  14.677   5.757   7.968
    9AU       S 3931  14.959   5.343   7.800
    9AU     LIG 3932  14.753   4.949   7.896
    9AU     LIG 3933  14.564   4.532   7.995
    9AU     LIG 3934  14.367   4.200   8.251
    9AU     LIG 3935  14.109   3.808   8.254
    9AU       S 3936  14.497   5.931   8.424
    9AU     LIG 3937  14.179   5.667   8.711
    9AU     LIG 3938  13.846   5.303   8.739
    9AU     LIG 3939  13.644   4.897   8.915
    9AU     LIG 3940  13.424   4.673   9.267
    9AU    AUSL 3941  15.074   5.817   7.640
    9AU    AUSL 3942  14.723   5.861   7.314
    9AU     AUL 3943  14.632   5.647   7.591
    9AU       S 3944  14.742   5.379   7.169
    9AU     LIG 3945  14.500   4.970   7.048
    9AU     LIG 3946  14.416   4.485   7.013
    9AU     LIG 3947  14.183   4.110   6.812
    9AU     LIG 3948  14.108   3.653   6.629
    9AU       S 3949  15.215   5.439   7.707
    9AU     LIG 3950  15.267   4.951   7.779
    9AU     LIG 3951  15.098   4.586   8.031
    9AU     LIG 3952  15.193   4.163   8.191
    9AU     LIG 3953  15.411   3.754   8.291
    9AU    AUSL 3954  15.030   7.236   7.019
    9AU    AUSL 3955  15.428   7.156   7.240
    9AU     AUL 3956  15.341   7.427   7.029
    9AU       S 3957  14.973   7.769   6.941
    9AU     LIG 3958  15.086   8.030   6.577
    9AU     LIG 3959  15.064   8.436   6.367
    9AU     LIG 3960  15.015   8.885   6.270
    9AU     LIG 3961  15.005   9.349   6.299
    9AU       S 3962  15.849   7.348   6.913
    9AU     LIG 3963  16.151   7.598   6.625
    9AU     LIG 3964  16.365   7.858   6.281
    9AU     LIG 3965  16.705   8.128   6.093
    9AU     LIG 3966  16.991   8.518   6.169
    9AU    AUSL 3967  14.806   7.345   7.276
    9AU    AUSL 3968  14.734   7.041   6.971
    9AU     AUL 3969  14.734   7.336   6.874
    9AU       S 3970  14.735   7.771   7.190
    9AU     LIG 3971  14.779   8.241   6.945
    9AU     LIG 3972  14.809   8.712   6.742
    9AU     LIG 3973  14.778   9.200   6.742
    9AU     LIG 3974  14.549   9.618   6.796
    9AU       S 3975  14.245   7.357   6.749
    9AU     LIG 3976  14.226   7.581   6.340
    9AU     LIG 3977  14.155   7.867   5.980
    9AU     LIG 3978  13.818   8.084   5.741
    9AU     LIG 3979  13.639   8.206   5.310
    9AU    AUSL 3980  14.917   5.956   7.018
    9AU    AUSL 3981  14.460   6.069   7.212
    9AU     AUL 3982  14.582   5.830   6.970
    9AU       S 3983  14.130   5.941   6.779
    9AU     LIG 3984  13.886   5.548   6.794
    9AU     LIG 3985  13.624   5.164   6.703
    9AU     LIG 3986  13.552   4.762   6.462
    9AU     LIG 3987  13.362   4.489   6.122
    9AU       S 3988  14.904   5.438   6.938
    9AU     LIG 3989  14.841   5.119   6.658
    9AU     LIG 3990  14.710   4.701   6.650
    9AU     LIG 3991  14.668   4.252   6.610
    9AU     LIG 3992  14.819   3.941   6.302
    9AU    AUSL 3993  15.084   5.850   7.310
    9AU    AUSL 3994  15.210   6.113   6.926
    9AU     AUL 3995  15.266   5.766   7.048
    9AU       S 3996  15.012   5.374   7.254
    9AU     LIG 3997  15.004   4.909   7.107
    9AU     LIG 3998  15.009   4.434   6.984
    9AU     LIG 3999  15.266   4.015   6.920
    9AU     LIG 4000  15.436   3.550   6.923
    9AU       S 4001  15.396   5.909   6.577
    9AU     LIG 4002  15.486   5.563   6.280
    9AU     LIG 4003  15.680   5.154   6.153
    9AU     LIG 4004  15.975   4.839   5.965
    9AU     LIG 4005  16.283   4.682   5.651
   10AU     AUC 4006  26.541  44.091   7.496
   10AU     AUC 4007  26.817  44.075   7.341
   10AU     AUC 4008  26.803  44.074   7.668
   10AU     AUC 4009  26.279  44.105   7.326
   10AU     AUC 4010  26.270  44.110   7.655
   10AU     AUC 4011  26.394  44.366   7.487
   10AU     AUC 4012  26.725  44.346   7.500
   10AU     AUC 4013  26.357  43.833   7.492
   10AU     AUC 4014  26.686  43.811   7.498
   10AU     AUC 4015  26.521  43.930   7.762
   10AU     AUC 4016  26.545  44.258   7.762
   10AU     AUC 4017  26.541  43.926   7.231
   10AU     AUC 4018  26.564  44.255   7.227
   10AU     AUC 4019  27.088  44.063   7.205
   10AU     AUC 4020  27.087  44.051   7.509
   10AU     AUC 4021  27.048  44.054   7.835
   10AU     AUC 4022  26.031  44.111   7.155
   10AU     AUC 4023  25.997  44.118   7.491
   10AU     AUC 4024  26.013  44.133   7.815
   10AU     AUC 4025  26.259  44.639   7.475
   10AU     AUC 4026  26.572  44.627   7.480
   10AU     AUC 4027  26.899  44.590   7.505
   10AU     AUC 4028  26.177  43.587   7.492
   10AU     AUC 4029  26.505  43.546   7.484
   10AU     AUC 4030  26.823  43.535   7.510
   10AU     AUC 4031  26.507  43.774   8.023
   10AU     AUC 4032  26.518  44.100   8.046
   10AU     AUC 4033  26.549  44.423   8.019
   10AU     AUC 4034  26.553  43.767   6.978
   10AU     AUC 4035  26.588  44.097   6.953
   10AU     AUC 4036  26.593  44.413   6.964
   10AU     AUC 4037  26.774  43.907   7.941
   10AU     AUC 4038  26.812  44.247   7.946
   10AU     AUC 4039  26.825  43.911   7.073
   10AU     AUC 4040  26.856  44.266   7.074
   10AU     AUC 4041  26.252  43.949   7.934
   10AU     AUC 4042  26.269  44.281   7.929
   10AU     AUC 4043  26.277  43.936   7.059
   10AU     AUC 4044  26.297  44.255   7.039
   10AU     AUC 4045  27.010  44.333   7.350
   10AU     AUC 4046  26.999  44.334   7.688
   10AU     AUC 4047  26.123  44.389   7.305
   10AU     AUC 4048  26.118  44.402   7.651
   10AU     AUC 4049  26.973  43.783   7.346
   10AU     AUC 4050  26.946  43.781   7.671
   10AU     AUC 4051  26.075  43.843   7.330
   10AU     AUC 4052  26.081  43.839   7.668
   10AU     AUC 4053  26.405  44.548   7.751
   10AU     AUC 4054  26.735  44.518   7.772
   10AU     AUC 4055  26.344  43.665   7.767
   10AU     AUC 4056  26.673  43.642   7.770
   10AU     AUC 4057  26.406  44.534   7.212
   10AU     AUC 4058  26.743  44.527   7.222
   10AU     AUC 4059  26.347  43.655   7.217
   10AU     AUC 4060  26.682  43.636   7.222
   10AU    AUSL 4061  26.935  44.018   8.135
   10AU    AUSL 4062  26.811  43.662   8.111
   10AU     AUL 4063  27.206  43.845   8.250
   10AU       S 4064  27.122  43.331   8.308
   10AU     LIG 4065  27.029  42.985   8.559
   10AU     LIG 4066  27.289  42.675   8.761
   10AU     LIG 4067  27.561  42.472   9.074
   10AU     LIG 4068  27.531  42.248   9.488
   10AU       S 4069  26.916  43.702   8.641
   10AU     LIG 4070  27.186  43.699   9.020
   10AU     LIG 4071  27.470  43.698   9.401
   10AU     LIG 4072  27.613  43.713   9.847
   10AU     LIG 4073  27.829  43.799  10.251
   10AU    AUSL 4074  26.613  43.913   8.259
   10AU    AUSL 4075  26.390  44.259   8.266
   10AU     AUL 4076  26.660  44.163   8.550
   10AU       S 4077  26.584  43.667   8.647
   10AU     LIG 4078  26.661  43.618   9.113
   10AU     LIG 4079  26.983  43.505   9.465
   10AU     LIG 4080  27.211  43.378   9.871
   10AU     LIG 4081  27.381  43.399  10.315
   10AU       S 4082  26.192  44.100   8.733
   10AU     LIG 4083  26.238  43.983   9.179
   10AU     LIG 4084  25.995  43.988   9.589
   10AU     LIG 4085  25.896  44.144  10.032
   10AU     LIG 4086  25.992  44.412  10.430
   10AU    AUSL 4087  26.727  44.303   8.229
   10AU    AUSL 4088  27.116  44.316   8.012
   10AU     AUL 4089  27.049  44.201   8.403
   10AU       S 4090  26.723  44.663   8.579
   10AU     LIG 4091  26.986  44.692   8.964
   10AU     LIG 4092  27.104  44.805   9.410
   10AU     LIG 4093  27.078  44.869   9.887
   10AU     LIG 4094  27.118  44.986  10.353
   10AU       S 4095  27.383  44.573   8.303
   10AU     LIG 4096  27.812  44.652   8.413
   10AU     LIG 4097  28.085  44.715   8.766
   10AU     LIG 4098  28.268   0.038   9.051
   10AU     LIG 4099  28.448   0.374   9.324
   10AU    AUSL 4100  27.029  44.120   6.935
   10AU    AUSL 4101  26.895  44.547   6.922
   10AU     AUL 4102  27.130  44.358   6.716
   10AU       S 4103  27.208  43.987   6.377
   10AU     LIG 4104  27.571  43.840   6.149
   10AU     LIG 4105  27.632  43.661   5.726
   10AU     LIG 4106  27.697  43.631   5.244
   10AU     LIG 4107  27.849  43.801   4.834
   10AU       S 4108  27.280  44.828   6.686
   10AU     LIG 4109  27.444  44.916   6.244
   10AU     LIG 4110  27.698   0.167   5.932
   10AU     LIG 4111  27.940   0.541   5.781
   10AU     LIG 4112  27.947   0.915   5.477
   10AU    AUSL 4113  26.816  43.912   6.770
   10AU    AUSL 4114  27.088  43.776   7.032
   10AU     AUL 4115  27.294  43.990   6.866
   10AU       S 4116  27.276  43.528   6.651
   10AU     LIG 4117  27.585  43.366   6.350
   10AU     LIG 4118  27.860  43.025   6.228
   10AU     LIG 4119  28.065  42.696   5.974
   10AU     LIG 4120  28.329  42.674   5.578
   10AU       S 4121  27.022  43.851   6.369
   10AU     LIG 4122  27.168  43.533   6.072
   10AU     LIG 4123  27.165  43.470   5.606
   10AU     LIG 4124  27.214  43.479   5.131
   10AU     LIG 4125  27.437  43.502   4.721
   10AU    AUSL 4126  26.764  44.268   6.738
   10AU    AUSL 4127  26.441  43.930   6.788
   10AU     AUL 4128  26.577  44.039   6.497
   10AU       S 4129  26.078  43.945   6.319
   10AU     LIG 4130  26.057  43.578   6.037
   10AU     LIG 4131  26.068  43.433   5.599
   10AU     LIG 4132  25.848  43.463   5.199
   10AU     LIG 4133  25.630  43.584   4.795
   10AU       S 4134  26.999  44.181   6.259
   10AU     LIG 4135  27.172  43.990   5.850
   10AU     LIG 4136  27.302  43.929   5.406
   10AU     LIG 4137  27.366  43.969   4.948
   10AU     LIG 4138  27.296  44.213   4.543
   10AU    AUSL 4139  26.067  44.196   8.127
   10AU    AUSL 4140  26.266  44.525   8.052
   10AU     AUL 4141  26.156  44.497   8.395
   10AU       S 4142  25.925  44.085   8.629
   10AU     LIG 4143  25.760  43.888   9.020
   10AU     LIG 4144  25.588  43.714   9.419
   10AU     LIG 4145  25.375  43.649   9.832
   10AU     LIG 4146  25.008  43.717  10.128
   10AU       S 4147  25.843  44.871   8.185
   10AU     LIG 4148  25.936   0.211   8.493
   10AU     LIG 4149  25.852   0.351   8.916
   10AU     LIG 4150  25.560   0.594   9.167
   10AU     LIG 4151  25.575   0.924   9.506
   10AU    AUSL 4152  26.260  43.927   8.214
   10AU    AUSL 4153  25.993  43.841   7.968
   10AU     AUL 4154  25.797  44.015   8.151
   10AU       S 4155  25.819  43.553   8.370
   10AU     LIG 4156  25.389  43.390   8.464
   10AU     LIG 4157  25.091  43.058   8.397
   10AU     LIG 4158  24.882  42.739   8.623
   10AU     LIG 4159  24.690  42.497   8.949
   10AU       S 4160  26.132  43.878   8.593
   10AU     LIG 4161  26.132  43.555   8.908
   10AU     LIG 4162  26.071  43.521   9.363
   10AU     LIG 4163  25.896  43.505   9.802
   10AU     LIG 4164  25.857  43.216  10.180
   10AU    AUSL 4165  26.128  44.071   6.824
   10AU    AUSL 4166  26.234  43.675   6.926
   10AU     AUL 4167  26.373  43.690   6.616
   10AU       S 4168  25.890  44.062   6.462
   10AU     LIG 4169  25.615  43.780   6.179
   10AU     LIG 4170  25.608  43.656   5.708
   10AU     LIG 4171  25.393  43.697   5.271
   10AU     LIG 4172  24.971  43.649   5.022
   10AU       S 4173  25.873  43.555   6.580
   10AU     LIG 4174  25.631  43.219   6.303
   10AU     LIG 4175  25.385  42.779   6.270
   10AU     LIG 4176  25.129  42.394   6.091
   10AU     LIG 4177  24.950  42.235   5.681
   10AU    AUSL 4178  26.417  44.277   6.734
   10AU    AUSL 4179  25.989  44.377   6.982
   10AU     AUL 4180  26.158  44.456   6.649
   10AU       S 4181  25.663  44.568   6.699
   10AU     LIG 4182  25.375  44.869   6.465
   10AU     LIG 4183  25.296   0.129   6.069
   10AU     LIG 4184  25.055   0.325   5.702
   10AU     LIG 4185  24.626   0.387   5.504
   10AU       S 4186  26.156  44.181   6.238
   10AU     LIG 4187  25.929  44.050   5.846
   10AU     LIG 4188  25.945  43.917   5.406
   10AU     LIG 4189  25.989  43.932   4.940
   10AU     LIG 4190  26.093  44.224   4.576
   10AU    AUSL 4191  27.204  44.484   7.494
   10AU    AUSL 4192  27.190  44.391   7.126
   10AU     AUL 4193  27.287  44.786   7.407
   10AU       S 4194  27.507  44.621   6.926
   10AU     LIG 4195  27.740  44.601   6.539
   10AU     LIG 4196  27.980  44.850   6.228
   10AU     LIG 4197  28.221   0.107   5.907
   10AU     LIG 4198  28.400   0.402   5.575
   10AU       S 4199  27.734  44.546   7.358
   10AU     LIG 4200  28.249  44.621   7.386
   10AU     LIG 4201  28.713  44.697   7.515
   10AU     LIG 4202  28.931   0.073   7.728
   10AU     LIG 4203  29.291   0.384   7.759
   10AU    AUSL 4204  27.332  44.168   7.362
   10AU    AUSL 4205  27.254  43.880   7.651
   10AU     AUL 4206  27.574  44.007   7.675
   10AU       S 4207  27.728  44.264   7.233
   10AU     LIG 4208  28.185  44.268   7.026
   10AU     LIG 4209  28.659  44.484   7.044
   10AU     LIG 4210  29.165  44.596   7.008
   10AU     LIG 4211  29.570  44.708   6.732
   10AU       S 4212  27.700  43.514   7.568
   10AU     LIG 4213  28.168  43.418   7.563
   10AU     LIG 4214  28.590  43.389   7.797
   10AU     LIG 4215  29.066  43.447   7.890
   10AU     LIG 4216  29.511  43.244   7.912
   10AU    AUSL 4217  27.284  44.219   7.714
   10AU    AUSL 4218  27.062  44.633   7.789
   10AU     AUL 4219  27.397  44.521   7.801
   10AU       S 4220  27.348  44.864   8.168
   10AU     LIG 4221  27.638   0.133   8.417
   10AU     LIG 4222  28.046   0.223   8.613
   10AU     LIG 4223  28.279   0.539   8.855
   10AU     LIG 4224  28.393   0.992   8.905
   10AU       S 4225  27.820  44.409   7.541
   10AU     LIG 4226  28.202  44.337   7.819
   10AU     LIG 4227  28.667  44.277   7.880
   10AU     LIG 4228  29.046  44.536   7.883
   10AU     LIG 4229  29.347  44.890   8.004
   10AU    AUSL 4230  25.974  44.621   7.498
   10AU    AUSL 4231  25.951  44.442   7.905
   10AU     AUL 4232  25.662  44.639   7.673
   10AU       S 4233  25.673  44.615   8.195
   10AU     LIG 4234  25.572  44.854   8.608
   10AU     LIG 4235  25.383   0.141   8.922
   10AU     LIG 4236  25.090   0.200   9.287
   10AU     LIG 4237  24.670   0.142   9.519
   10AU       S 4238  25.861   0.088   7.476
   10AU     LIG 4239  25.419   0.270   7.646
   10AU     LIG 4240  24.926   0.408   7.708
   10AU     LIG 4241  24.472   0.603   7.830
   10AU     LIG 4242  24.189   1.014   7.833
   10AU    AUSL 4243  25.847  44.289   7.276
   10AU    AUSL 4244  26.088  44.677   7.174
   10AU     AUL 4245  25.725  44.599   7.221
   10AU       S 4246  25.477  44.170   6.920
   10AU     LIG 4247  25.142  44.538   6.834
   10AU     LIG 4248  24.698  44.779   6.873
   10AU     LIG 4249  24.234  44.972   6.944
   10AU     LIG 4250  23.768  44.942   7.077
   10AU       S 4251  25.858   0.037   6.977
   10AU     LIG 4252  25.615   0.304   6.662
   10AU     LIG 4253  25.564   0.537   6.253
   10AU     LIG 4254  25.371   0.934   6.089
   10AU     LIG 4255  25.091   1.286   6.277
   10AU    AUSL 4256  25.801  44.290   7.643
   10AU    AUSL 4257  25.763  43.968   7.339
   10AU     AUL 4258  25.529  44.323   7.411
   10AU       S 4259  25.280  43.872   7.418
   10AU     LIG 4260  24.794  43.882   7.388
   10AU     LIG 4261  24.308  43.790   7.366
   10AU     LIG 4262  23.935  43.508   7.314
   10AU     LIG 4263  23.550  43.495   7.069
   10AU       S 4264  25.381  44.282   7.926
   10AU     LIG 4265  24.920  44.427   7.916
   10AU     LIG 4266  24.540  44.739   7.929
   10AU     LIG 4267  24.073  44.894   7.947
   10AU     LIG 4268  23.640  44.788   8.110
   10AU    AUSL 4269  27.143  43.565   7.564
   10AU    AUSL 4270  27.075  43.762   7.921
   10AU     AUL 4271  27.409  43.756   7.907
   10AU       S 4272  27.505  43.326   7.617
   10AU     LIG 4273  27.850  43.013   7.589
   10AU     LIG 4274  28.299  42.943   7.455
   10AU     LIG 4275  28.759  43.037   7.463
   10AU     LIG 4276  29.137  42.934   7.715
   10AU       S 4277  27.312  43.312   8.122
   10AU     LIG 4278  27.530  43.015   8.410
   10AU     LIG 4279  27.797  42.761   8.691
   10AU     LIG 4280  28.063  42.649   9.056
   10AU     LIG 4281  28.345  42.866   9.386
   10AU    AUSL 4282  27.285  43.828   7.311
   10AU    AUSL 4283  26.958  43.511   7.236
   10AU     AUL 4284  27.260  43.476   7.202
   10AU       S 4285  27.718  43.616   7.339
   10AU     LIG 4286  27.952  43.245   7.132
   10AU     LIG 4287  28.415  43.176   7.007
   10AU     LIG 4288  28.910  43.203   7.001
   10AU     LIG 4289  29.390  43.228   6.929
   10AU       S 4290  27.245  43.288   6.739
   10AU     LIG 4291  27.527  42.917   6.615
   10AU     LIG 4292  27.770  42.530   6.415
   10AU     LIG 4293  27.948  42.070   6.346
   10AU     LIG 4294  28.271  41.713   6.438
   10AU    AUSL 4295  25.873  43.658   7.513
   10AU    AUSL 4296  25.941  43.863   7.046
   10AU     AUL 4297  25.688  43.620   7.227
   10AU       S 4298  25.676  43.720   6.724
   10AU     LIG 4299  25.292  43.538   6.523
   10AU     LIG 4300  25.062  43.143   6.438
   10AU     LIG 4301  24.838  42.762   6.290
   10AU     LIG 4302  24.623  42.531   5.944
   10AU       S 4303  25.304  43.635   7.553
   10AU     LIG 4304  24.880  43.437   7.624
   10AU     LIG 4305  24.424  43.309   7.526
   10AU     LIG 4306  24.007  43.055   7.539
   10AU     LIG 4307  23.696  42.730   7.366
   10AU    AUSL 4308  25.788  43.953   7.700
   10AU    AUSL 4309  26.046  43.528   7.797
   10AU     AUL 4310  25.715  43.625   7.850
   10AU       S 4311  25.829  43.311   8.230
   10AU     LIG 4312  25.578  42.921   8.277
   10AU     LIG 4313  25.285  42.546   8.354
   10AU     LIG 4314  24.943  42.240   8.488
   10AU     LIG 4315  24.748  41.878   8.697
   10AU       S 4316  25.320  43.882   7.648
   10AU     LIG 4317  24.946  43.897   7.880
   10AU     LIG 4318  24.514  43.747   7.835
   10AU     LIG 4319  24.084  43.572   7.809
   10AU     LIG 4320  23.675  43.381   7.782
   10AU    AUSL 4321  26.544  44.737   7.944
   10AU    AUSL 4322  26.172  44.724   7.785
   10AU     AUL 4323  26.341  44.792   8.212
   10AU       S 4324  25.942   0.044   7.958
   10AU     LIG 4325  25.557   0.276   8.156
   10AU     LIG 4326  25.506   0.510   8.562
   10AU     LIG 4327  25.454   0.923   8.774
   10AU     LIG 4328  25.296   1.354   8.914
   10AU       S 4329  26.431   0.232   7.996
   10AU     LIG 4330  26.344   0.500   8.351
   10AU     LIG 4331  26.411   0.927   8.465
   10AU     LIG 4332  26.624   1.262   8.699
   10AU     LIG 4333  26.510   1.550   9.036
   10AU    AUSL 4334  26.452  44.866   7.603
   10AU    AUSL 4335  26.725  44.834   7.332
   10AU     AUL 4336  26.906   0.052   7.519
   10AU       S 4337  26.333   0.243   7.696
   10AU     LIG 4338  26.255   0.689   7.860
   10AU     LIG 4339  26.430   1.073   7.977
   10AU     LIG 4340  26.414   1.417   8.252
   10AU     LIG 4341  26.057   1.680   8.350
   10AU       S 4342  26.569   0.316   7.244
   10AU     LIG 4343  26.746   0.714   7.111
   10AU     LIG 4344  26.936   1.013   6.833
   10AU     LIG 4345  26.823   1.413   6.643
   10AU     LIG 4346  26.849   1.874   6.645
   10AU    AUSL 4347  26.769  44.780   7.679
   10AU    AUSL 4348  26.840  44.568   8.054
   10AU     AUL 4349  26.876  44.927   7.971
   10AU       S 4350  27.154  44.744   8.371
   10AU     LIG 4351  27.440  44.801   8.750
   10AU     LIG 4352  27.739   0.048   8.981
   10AU     LIG 4353  27.930   0.400   9.215
   10AU     LIG 4354  28.088   0.628   9.597
   10AU       S 4355  26.598   0.332   7.795
   10AU     LIG 4356  26.741   0.679   8.083
   10AU     LIG 4357  26.860   1.104   8.263
   10AU     LIG 4358  26.901   1.571   8.335
   10AU     LIG 4359  26.987   2.030   8.204
   10AU    AUSL 4360  26.542  43.465   7.930
   10AU    AUSL 4361  26.895  43.470   7.822
   10AU     AUL 4362  26.638  43.381   8.206
   10AU       S 4363  26.697  42.928   8.004
   10AU     LIG 4364  26.637  42.574   8.286
   10AU     LIG 4365  26.494  42.117   8.288
   10AU     LIG 4366  26.631  41.668   8.439
   10AU     LIG 4367  26.621  41.266   8.725
   10AU       S 4368  27.124  43.192   7.987
   10AU     LIG 4369  27.180  42.758   8.128
   10AU     LIG 4370  27.509  42.485   8.340
   10AU     LIG 4371  27.786  42.244   8.656
   10AU     LIG 4372  28.131  41.945   8.817
   10AU    AUSL 4373  26.329  43.397   7.655
   10AU    AUSL 4374  26.265  43.617   8.069
   10AU     AUL 4375  26.251  43.246   7.960
   10AU       S 4376  26.530  42.825   7.811
   10AU     LIG 4377  26.243  42.464   7.954
   10AU     LIG 4378  25.892  42.114   8.013
   10AU     LIG 4379  25.773  41.650   8.045
   10AU     LIG 4380  25.727  41.198   8.203
   10AU       S 4381  26.072  43.424   8.416
   10AU     LIG 4382  25.784  43.166   8.716
   10AU     LIG 4383  25.410  42.862   8.761
   10AU     LIG 4384  25.227  42.437   8.869
   10AU     LIG 4385  24.986  42.121   9.113
   10AU    AUSL 4386  26.651  43.302   7.639
   10AU    AUSL 4387  26.305  43.348   7.308
   10AU     AUL 4388  26.216  43.129   7.582
   10AU       S 4389  26.332  42.869   7.157
   10AU     LIG 4390  26.089  42.478   7.033
   10AU     LIG 4391  26.061  42.007   7.117
   10AU     LIG 4392  25.993  41.550   7.022
   10AU     LIG 4393  25.781  41.254   6.718
   10AU       S 4394  26.787  42.926   7.717
   10AU     LIG 4395  26.862  42.441   7.846
   10AU     LIG 4396  26.896  41.968   7.986
   10AU     LIG 4397  26.850  41.500   8.010
   10AU     LIG 4398  26.946  41.180   8.336
   10AU    AUSL 4399  26.602  44.723   7.013
   10AU    AUSL 4400  27.010  44.659   7.239
   10AU     AUL 4401  26.900  44.924   7.021
   10AU       S 4402  26.523   0.268   6.954
   10AU     LIG 4403  26.546   0.613   6.637
   10AU     LIG 4404  26.677   0.983   6.392
   10AU     LIG 4405  26.518   1.375   6.211
   10AU     LIG 4406  26.524   1.563   5.788
   10AU       S 4407  27.412  44.877   6.926
   10AU     LIG 4408  27.725   0.113   6.625
   10AU     LIG 4409  27.999   0.365   6.305
   10AU     LIG 4410  28.378   0.576   6.089
   10AU     LIG 4411  28.775   0.857   6.126
   10AU    AUSL 4412  26.376  44.826   7.268
   10AU    AUSL 4413  26.311  44.525   6.956
   10AU     AUL 4414  26.315  44.822   6.862
   10AU       S 4415  26.287   0.237   7.199
   10AU     LIG 4416  26.230   0.696   7.060
   10AU     LIG 4417  26.422   1.062   6.853
   10AU     LIG 4418  26.307   1.452   6.681
   10AU     LIG 4419  26.198   1.878   6.566
   10AU       S 4420  25.830  44.840   6.722
   10AU     LIG 4421  25.828   0.033   6.281
   10AU     LIG 4422  25.752   0.248   5.868
   10AU     LIG 4423  25.514   0.600   5.680
   10AU     LIG 4424  25.553   0.912   5.319
   10AU    AUSL 4425  26.501  43.444   7.015
   10AU    AUSL 4426  26.041  43.555   7.205
   10AU     AUL 4427  26.166  43.318   6.962
   10AU       S 4428  25.713  43.423   6.769
   10AU     LIG 4429  25.450  43.032   6.754
   10AU     LIG 4430  25.132  42.673   6.710
   10AU     LIG 4431  24.884  42.292   6.551
   10AU     LIG 4432  24.586  42.114   6.242
   10AU       S 4433  26.487  42.924   6.923
   10AU     LIG 4434  26.445  42.557   6.665
   10AU     LIG 4435  26.315  42.112   6.678
   10AU     LIG 4436  26.321  41.632   6.629
   10AU     LIG 4437  26.445  41.215   6.424
   10AU    AUSL 4438  26.664  43.333   7.308
   10AU    AUSL 4439  26.792  43.604   6.921
   10AU     AUL 4440  26.848  43.254   7.038
   10AU       S 4441  26.601  42.855   7.247
   10AU     LIG 4442  26.572  42.357   7.129
   10AU     LIG 4443  26.566  41.850   7.049
   10AU     LIG 4444  26.684  41.376   6.920
   10AU     LIG 4445  26.729  40.916   6.753
   10AU       S 4446  26.991  43.413   6.574
   10AU     LIG 4447  27.141  43.074   6.294
   10AU     LIG 4448  27.420  42.765   6.120
   10AU     LIG 4449  27.615  42.545   5.768
   10AU     LIG 4450  27.663  42.584   5.304
   11POPC   NC3 4451  12.069  13.483   9.786
   11POPC   PO4 4452  11.872  13.950   9.412
   11POPC   GL1 4453  12.049  13.612   9.180
   11POPC   GL2 4454  12.163  13.892   8.965
   11POPC   C1A 4455  12.246  13.401   8.840
   11POPC   D2A 4456  12.299  13.691   8.513
   11POPC   C3A 4457  12.206  13.728   8.109
   11POPC   C4A 4458  12.012  13.507   7.791
   11POPC   C1B 4459  11.807  13.746   8.756
   11POPC   C2B 4460  11.761  13.737   8.351
   11POPC   C3B 4461  11.785  13.951   7.933
   11POPC   C4B 4462  11.784  13.843   7.476
   12POPC   NC3 4463  22.379  13.674   9.607
   12POPC   PO4 4464  21.881  13.359   9.587
   12POPC   GL1 4465  22.010  13.666   9.226
   12POPC   GL2 4466  22.380  13.748   9.105
   12POPC   C1A 4467  21.970  13.775   8.776
   12POPC   D2A 4468  21.864  13.945   8.359
   12POPC   C3A 4469  21.915  13.706   7.969
   12POPC   C4A 4470  22.258  13.762   7.713
   12POPC   C1B 4471  22.486  13.769   8.661
   12POPC   C2B 4472  22.379  13.700   8.216
   12POPC   C3B 4473  22.622  13.455   7.891
   12POPC   C4B 4474  22.660  13.425   7.427
   13POPC   NC3 4475  38.269  18.160   9.495
   13POPC   PO4 4476  38.979  18.126   9.492
   13POPC   GL1 4477  38.728  18.285   9.153
   13POPC   GL2 4478  38.482  18.553   9.034
   13POPC   C1A 4479  38.582  18.156   8.754
   13POPC   D2A 4480  38.449  18.418   8.460
   13POPC   C3A 4481  38.486  18.128   8.161
   13POPC   C4A 4482  38.615  18.235   7.796
   13POPC   C1B 4483  38.150  18.739   8.750
   13POPC   C2B 4484  38.195  18.826   8.285
   13POPC   C3B 4485  38.167  18.471   7.957
   13POPC   C4B 4486  38.165  18.011   7.769
   14POPC   NC3 4487  32.801  39.239   9.691
   14POPC   PO4 4488  33.402  39.455   9.554
   14POPC   GL1 4489  33.053  39.333   9.251
   14POPC   GL2 4490  32.949  38.960   9.235
   14POPC   C1A 4491  32.813  39.323   8.884
   14POPC   D2A 4492  32.857  39.481   8.472
   14POPC   C3A 4493  32.975  39.345   8.078
   14POPC   C4A 4494  33.160  39.642   7.853
   14POPC   C1B 4495  33.102  38.909   8.829
   14POPC   C2B 4496  32.914  38.977   8.488
   14POPC   C3B 4497  32.769  38.890   8.134
   14POPC   C4B 4498  32.888  38.937   7.755
   15POPC   NC3 4499  29.406   1.380   9.466
   15POPC   PO4 4500  28.728   1.266   9.431
   15POPC   GL1 4501  29.005   1.433   9.079
   15POPC   GL2 4502  29.215   1.140   9.073
   15POPC   C1A 4503  29.336   1.496   8.729
   15POPC   D2A 4504  29.444   1.296   8.302
   15POPC   C3A 4505  29.170   1.334   7.930
   15POPC   C4A 4506  28.959   1.592   7.629
   15POPC   C1B 4507  29.525   1.024   8.789
   15POPC   C2B 4508  29.564   0.770   8.449
   15POPC   C3B 4509  29.562   0.798   8.040
   15POPC   C4B 4510  29.601   1.118   7.775
   16POPC   NC3 4511  12.861  38.877   9.431
   16POPC   PO4 4512  13.098  38.234   9.550
   16POPC   GL1 4513  12.839  38.187   9.154
   16POPC   GL2 4514  12.816  38.540   9.020
   16POPC   C1A 4515  12.665  38.153   8.710
   16POPC   D2A 4516  12.784  38.469   8.404
   16POPC   C3A 4517  12.837  38.436   7.992
   16POPC   C4A 4518  13.004  38.830   7.889
   16POPC   C1B 4519  13.132  38.336   8.736
   16POPC   C2B 4520  13.381  38.362   8.348
   16POPC   C3B 4521  13.344  38.401   7.901
   16POPC   C4B 4522  13.166  38.005   7.862
   17POPC   NC3 4523  16.231  42.420   9.338
   17POPC   PO4 4524  16.903  42.418   9.405
   17POPC   GL1 4525  16.886  42.553   9.011
   17POPC   GL2 4526  16.548  42.438   8.945
   17POPC   C1A 4527  16.875  42.508   8.567
   17POPC   D2A 4528  16.927  42.175   8.300
   17POPC   C3A 4529  17.085  42.265   7.924
   17POPC   C4A 4530  16.892  42.397   7.588
   17POPC   C1B 4531  16.362  42.479   8.534
   17POPC   C2B 4532  16.509  42.549   8.113
   17POPC   C3B 4533  16.524  42.177   7.886
   17POPC   C4B 4534  16.771  41.877   7.641
   18POPC   NC3 4535  31.446  40.178   9.519
   18POPC   PO4 4536  31.984  39.868   9.411
   18POPC   GL1 4537  31.680  39.978   9.101
   18POPC   GL2 4538  31.346  39.831   9.142
   18POPC   C1A 4539  31.536  40.197   8.731
   18POPC   D2A 4540  31.625  40.492   8.395
   18POPC   C3A 4541  31.546  40.263   8.004
   18POPC   C4A 4542  31.700  39.852   7.913
   18POPC   C1B 4543  31.155  39.844   8.746
   18POPC   C2B 4544  31.339  39.899   8.341
   18POPC   C3B 4545  31.183  39.839   7.954
   18POPC   C4B 4546  31.296  39.639   7.584
   19POPC   NC3 4547  27.056  23.145   9.445
   19POPC   PO4 4548  26.902  22.479   9.495
   19POPC   GL1 4549  26.690  22.732   9.148
   19POPC   GL2 4550  26.848  23.045   9.011
   19POPC   C1A 4551  26.662  22.720   8.691
   19POPC   D2A 4552  26.980  22.992   8.491
   19POPC   C3A 4553  27.123  23.019   8.056
   19POPC   C4A 4554  26.903  22.966   7.656
   19POPC   C1B 4555  26.684  23.341   8.741
   19POPC   C2B 4556  26.537  23.465   8.360
   19POPC   C3B 4557  26.710  23.342   7.973
   19POPC   C4B 4558  26.669  23.524   7.573
   20POPC   NC3 4559  10.720  26.555   9.524
   20POPC   PO4 4560  10.691  27.237   9.388
   20POPC   GL1 4561  10.404  27.104   9.108
   20POPC   GL2 4562  10.440  26.776   9.167
   20POPC   C1A 4563  10.352  26.934   8.683
   20POPC   D2A 4564  10.643  26.895   8.322
   20POPC   C3A 4565  10.463  27.021   7.937
   20POPC   C4A 4566  10.298  26.965   7.492
   20POPC   C1B 4567  10.651  26.563   8.815
   20POPC   C2B 4568  10.564  26.369   8.383
   20POPC   C3B 4569  10.574  26.513   7.954
   20POPC   C4B 4570  10.758  26.768   7.605
   21POPC   NC3 4571  22.226  41.365   9.424
   21POPC   PO4 4572  21.985  41.978   9.267
   21POPC   GL1 4573  22.070  41.708   8.998
   21POPC   GL2 4574  22.371  41.648   9.012
   21POPC   C1A 4575  22.059  41.693   8.585
   21POPC   D2A 4576  22.106  41.522   8.217
   21POPC   C3A 4577  22.080  41.816   7.937
   21POPC   C4A 4578  21.989  41.868   7.491
   21POPC   C1B 4579  22.275  41.267   8.765
   21POPC   C2B 4580  22.469  41.178   8.382
   21POPC   C3B 4581  22.458  41.288   7.940
   21POPC   C4B 4582  22.113  41.380   7.684
   22POPC   NC3 4583  24.945  31.361   9.302
   22POPC   PO4 4584  24.277  31.289   9.533
   22POPC   GL1 4585  24.347  31.264   9.118
   22POPC   GL2 4586  24.421  31.606   9.146
   22POPC   C1A 4587  24.356  31.178   8.668
   22POPC   D2A 4588  24.701  31.062   8.375
   22POPC   C3A 4589  24.748  31.299   7.980
   22POPC   C4A 4590  24.498  31.297   7.612
   22POPC   C1B 4591  24.175  31.671   8.806
   22POPC   C2B 4592  24.307  31.726   8.404
   22POPC   C3B 4593  24.304  31.645   7.986
   22POPC   C4B 4594  24.616  31.795   7.736
   23POPC   NC3 4595   2.498  21.035   9.765
   23POPC   PO4 4596   2.934  21.598   9.664
   23POPC   GL1 4597   2.794  21.462   9.266
   23POPC   GL2 4598   2.801  21.116   9.254
   23POPC   C1A 4599   2.617  21.605   8.854
   23POPC   D2A 4600   2.458  21.411   8.458
   23POPC   C3A 4601   2.577  21.591   8.053
   23POPC   C4A 4602   2.861  21.511   7.675
   23POPC   C1B 4603   2.721  21.102   8.796
   23POPC   C2B 4604   2.795  21.019   8.375
   23POPC   C3B 4605   2.648  21.101   7.965
   23POPC   C4B 4606   2.862  21.006   7.615
   24POPC   NC3 4607  35.692   6.806   9.423
   24POPC   PO4 4608  35.160   6.323   9.302
   24POPC   GL1 4609  35.375   6.658   9.055
   24POPC   GL2 4610  35.089   6.826   8.964
   24POPC   C1A 4611  35.507   6.830   8.632
   24POPC   D2A 4612  35.506   7.083   8.256
   24POPC   C3A 4613  35.439   6.919   7.847
   24POPC   C4A 4614  35.539   6.601   7.549
   24POPC   C1B 4615  35.147   6.465   8.649
   24POPC   C2B 4616  35.304   6.334   8.260
   24POPC   C3B 4617  35.177   6.455   7.866
   24POPC   C4B 4618  35.146   6.311   7.419
   25POPC   NC3 4619  21.167  17.508   9.475
   25POPC   PO4 4620  21.461  18.059   9.694
   25POPC   GL1 4621  21.347  17.927   9.241
   25POPC   GL2 4622  21.669  17.905   9.089
   25POPC   C1A 4623  21.257  17.716   8.805
   25POPC   D2A 4624  21.087  17.392   8.503
   25POPC   C3A 4625  21.154  17.376   8.058
   25POPC   C4A 4626  21.062  17.528   7.637
   25POPC   C1B 4627  21.774  17.754   8.662
   25POPC   C2B 4628  21.592  17.569   8.297
   25POPC   C3B 4629  21.501  17.680   7.868
   25POPC   C4B 4630  21.533  17.366   7.517
   26POPC   NC3 4631  12.193  10.311   9.529
   26POPC   PO4 4632  11.888  10.851   9.511
   26POPC   GL1 4633  11.973  10.602   9.158
   26POPC   GL2 4634  11.791  10.267   9.214
   26POPC   C1A 4635  12.099  10.761   8.728
   26POPC   D2A 4636  12.237  10.657   8.296
   26POPC   C3A 4637  12.242  10.689   7.836
   26POPC   C4A 4638  12.055  10.441   7.505
   26POPC   C1B 4639  11.637  10.129   8.814
   26POPC   C2B 4640  11.717  10.365   8.431
   26POPC   C3B 4641  11.854  10.314   8.021
   26POPC   C4B 4642  11.792  10.031   7.698
   27POPC   NC3 4643   4.085  20.968   9.703
   27POPC   PO4 4644   4.395  20.409   9.479
   27POPC   GL1 4645   4.275  20.595   9.143
   27POPC   GL2 4646   4.423  20.895   9.139
   27POPC   C1A 4647   4.202  20.432   8.755
   27POPC   D2A 4648   4.375  20.565   8.390
   27POPC   C3A 4649   4.275  20.404   8.015
   27POPC   C4A 4650   3.977  20.517   7.721
   27POPC   C1B 4651   4.623  20.833   8.754
   27POPC   C2B 4652   4.707  20.964   8.328
   27POPC   C3B 4653   4.417  20.881   7.999
   27POPC   C4B 4654   4.453  20.702   7.585
   28POPC   NC3 4655  16.595  34.769   9.410
   28POPC   PO4 4656  16.689  34.085   9.340
   28POPC   GL1 4657  16.739  34.426   9.054
   28POPC   GL2 4658  16.395  34.573   8.985
   28POPC   C1A 4659  16.832  34.568   8.648
   28POPC   D2A 4660  16.664  34.683   8.254
   28POPC   C3A 4661  16.908  34.720   7.877
   28POPC   C4A 4662  17.183  35.000   7.683
   28POPC   C1B 4663  16.401  34.190   8.727
   28POPC   C2B 4664  16.491  34.104   8.300
   28POPC   C3B 4665  16.605  34.299   7.910
   28POPC   C4B 4666  16.560  34.494   7.458
   29POPC   NC3 4667  22.417  42.099   9.384
   29POPC   PO4 4668  21.855  42.435   9.629
   29POPC   GL1 4669  21.965  42.474   9.170
   29POPC   GL2 4670  22.327  42.491   9.068
   29POPC   C1A 4671  21.962  42.458   8.724
   29POPC   D2A 4672  22.264  42.669   8.439
   29POPC   C3A 4673  22.127  42.637   8.008
   29POPC   C4A 4674  21.992  42.298   7.753
   29POPC   C1B 4675  22.345  42.129   8.735
   29POPC   C2B 4676  22.137  42.149   8.345
   29POPC   C3B 4677  22.420  42.206   8.043
   29POPC   C4B 4678  22.428  42.046   7.662
   30POPC   NC3 4679  40.794  27.889   9.756
   30POPC   PO4 4680  40.606  27.795   9.107
   30POPC   GL1 4681  40.865  27.509   8.917
   30POPC   GL2 4682  41.112  27.715   8.808
   30POPC   C1A 4683  40.820  27.527   8.463
   30POPC   D2A 4684  40.426  27.593   8.321
   30POPC   C3A 4685  40.519  27.701   7.944
   30POPC   C4A 4686  40.680  27.503   7.639
   30POPC   C1B 4687  41.267  27.263   8.717
   30POPC   C2B 4688  41.462  27.194   8.335
   30POPC   C3B 4689  41.202  27.433   8.061
   30POPC   C4B 4690  41.166  27.829   7.871
   31POPC   NC3 4691   3.092   0.248   9.456
   31POPC   PO4 4692   2.504   0.655   9.665
   31POPC   GL1 4693   2.754   0.558   9.233
   31POPC   GL2 4694   2.772   0.161   9.065
   31POPC   C1A 4695   2.826   0.561   8.774
   31POPC   D2A 4696   2.712   0.592   8.344
   31POPC   C3A 4697   2.911   0.465   7.986
   31POPC   C4A 4698   2.664   0.666   7.711
   31POPC   C1B 4699   2.515   0.190   8.635
   31POPC   C2B 4700   2.589   0.029   8.239
   31POPC   C3B 4701   2.475   0.057   7.823
   31POPC   C4B 4702   2.452   0.308   7.447
   32POPC   NC3 4703  26.952   4.057   9.413
   32POPC   PO4 4704  26.936   4.740   9.439
   32POPC   GL1 4705  26.886   4.494   9.101
   32POPC   GL2 4706  26.565   4.366   9.247
   32POPC   C1A 4707  27.058   4.494   8.673
   32POPC   D2A 4708  26.957   4.664   8.240
   32POPC   C3A 4709  27.152   4.535   7.825
   32POPC   C4A 4710  27.213   4.357   7.377
   32POPC   C1B 4711  26.551   4.214   8.835
   32POPC   C2B 4712  26.695   4.235   8.420
   32POPC   C3B 4713  26.531   4.365   8.040
   32POPC   C4B 4714  26.745   4.197   7.683
   33POPC   NC3 4715  40.930  26.882   9.598
   33POPC   PO4 4716  41.694  26.951   9.492
   33POPC   GL1 4717  41.484  26.834   9.111
   33POPC   GL2 4718  41.198  26.675   9.146
   33POPC   C1A 4719  41.671  26.893   8.700
   33POPC   D2A 4720  41.969  26.800   8.366
   33POPC   C3A 4721  41.764  26.762   7.973
   33POPC   C4A 4722  41.494  27.077   7.838
   33POPC   C1B 4723  41.328  26.512   8.737
   33POPC   C2B 4724  41.342  26.668   8.295
   33POPC   C3B 4725  41.286  26.621   7.829
   33POPC   C4B 4726  41.219  26.884   7.461
   34POPC   NC3 4727  25.712  29.046   9.436
   34POPC   PO4 4728  26.285  28.746   9.525
   34POPC   GL1 4729  26.143  28.953   9.156
   34POPC   GL2 4730  26.144  29.289   9.057
   34POPC   C1A 4731  26.057  28.866   8.745
   34POPC   D2A 4732  26.283  28.826   8.369
   34POPC   C3A 4733  26.038  29.051   8.108
   34POPC   C4A 4734  26.016  28.993   7.684
   34POPC   C1B 4735  26.058  29.392   8.631
   34POPC   C2B 4736  25.752  29.432   8.297
   34POPC   C3B 4737  25.731  29.395   7.834
   34POPC   C4B 4738  26.078  29.451   7.505
   35POPC   NC3 4739  34.783  36.453   9.508
   35POPC   PO4 4740  34.593  37.087   9.604
   35POPC   GL1 4741  34.767  36.888   9.228
   35POPC   GL2 4742  34.475  36.661   9.122
   35POPC   C1A 4743  34.800  36.804   8.782
   35POPC   D2A 4744  34.652  37.075   8.475
   35POPC   C3A 4745  34.657  36.996   8.052
   35POPC   C4A 4746  34.466  37.320   7.800
   35POPC   C1B 4747  34.257  36.913   8.769
   35POPC   C2B 4748  34.178  36.958   8.306
   35POPC   C3B 4749  34.171  36.887   7.861
   35POPC   C4B 4750  34.119  36.598   7.518
   36POPC   NC3 4751  23.031   3.338   9.490
   36POPC   PO4 4752  22.499   3.689   9.686
   36POPC   GL1 4753  22.780   3.720   9.267
   36POPC   GL2 4754  22.826   3.420   9.043
   36POPC   C1A 4755  22.951   3.848   8.822
   36POPC   D2A 4756  22.957   3.626   8.421
   36POPC   C3A 4757  22.923   3.871   8.036
   36POPC   C4A 4758  22.905   3.758   7.587
   36POPC   C1B 4759  22.562   3.244   8.738
   36POPC   C2B 4760  22.671   3.202   8.327
   36POPC   C3B 4761  22.962   3.051   8.045
   36POPC   C4B 4762  22.712   3.095   7.688
   37POPC   NC3 4763  34.666  16.753   9.519
   37POPC   PO4 4764  34.962  16.274   9.191
   37POPC   GL1 4765  34.555  16.486   9.059
   37POPC   GL2 4766  34.440  16.876   9.064
   37POPC   C1A 4767  34.432  16.597   8.636
   37POPC   D2A 4768  34.347  16.888   8.305
   37POPC   C3A 4769  34.515  16.806   7.869
   37POPC   C4A 4770  34.440  16.581   7.478
   37POPC   C1B 4771  34.675  17.104   8.700
   37POPC   C2B 4772  34.872  17.051   8.263
   37POPC   C3B 4773  34.925  17.142   7.806
   37POPC   C4B 4774  34.598  17.177   7.505
   38POPC   NC3 4775   5.230  43.940   9.559
   38POPC   PO4 4776   5.372  43.419   9.226
   38POPC   GL1 4777   5.187  43.816   9.057
   38POPC   GL2 4778   4.860  43.989   9.176
   38POPC   C1A 4779   5.158  43.776   8.620
   38POPC   D2A 4780   4.811  43.608   8.367
   38POPC   C3A 4781   4.966  43.612   7.956
   38POPC   C4A 4782   5.324  43.784   7.708
   38POPC   C1B 4783   4.884  44.191   8.762
   38POPC   C2B 4784   4.929  44.110   8.308
   38POPC   C3B 4785   4.832  44.091   7.882
   38POPC   C4B 4786   4.929  43.928   7.444
   39POPC   NC3 4787  27.876  36.313   9.476
   39POPC   PO4 4788  27.242  36.414   9.275
   39POPC   GL1 4789  27.437  36.083   9.065
   39POPC   GL2 4790  27.693  36.281   9.015
   39POPC   C1A 4791  27.470  36.050   8.614
   39POPC   D2A 4792  27.553  36.224   8.232
   39POPC   C3A 4793  27.246  36.084   7.962
   39POPC   C4A 4794  27.228  35.670   7.798
   39POPC   C1B 4795  27.955  36.342   8.687
   39POPC   C2B 4796  28.123  36.318   8.277
   39POPC   C3B 4797  27.890  36.439   7.907
   39POPC   C4B 4798  27.544  36.357   7.673
   40POPC   NC3 4799  36.605  30.587   9.412
   40POPC   PO4 4800  37.115  30.899   9.592
   40POPC   GL1 4801  36.933  30.910   9.171
   40POPC   GL2 4802  36.987  30.567   9.072
   40POPC   C1A 4803  36.772  31.058   8.782
   40POPC   D2A 4804  36.680  31.004   8.390
   40POPC   C3A 4805  37.002  30.954   8.109
   40POPC   C4A 4806  36.967  30.821   7.713
   40POPC   C1B 4807  36.887  30.588   8.658
   40POPC   C2B 4808  36.725  30.419   8.330
   40POPC   C3B 4809  36.908  30.389   7.976
   40POPC   C4B 4810  36.782  30.341   7.531
   41POPC   NC3 4811  37.157  43.042   9.345
   41POPC   PO4 4812  37.827  43.329   9.534
   41POPC   GL1 4813  37.632  43.135   9.181
   41POPC   GL2 4814  37.350  43.349   9.018
   41POPC   C1A 4815  37.558  42.934   8.781
   41POPC   D2A 4816  37.669  43.112   8.381
   41POPC   C3A 4817  37.805  42.833   8.074
   41POPC   C4A 4818  37.712  42.961   7.665
   41POPC   C1B 4819  37.277  43.382   8.615
   41POPC   C2B 4820  37.340  43.501   8.211
   41POPC   C3B 4821  37.585  43.433   7.844
   41POPC   C4B 4822  37.452  43.353   7.416
   42POPC   NC3 4823  21.660  28.031   9.775
   42POPC   PO4 4824  22.218  27.667   9.682
   42POPC   GL1 4825  22.342  27.438   9.269
   42POPC   GL2 4826  21.985  27.375   9.249
   42POPC   C1A 4827  22.561  27.544   8.826
   42POPC   D2A 4828  22.480  27.799   8.442
   42POPC   C3A 4829  22.423  27.743   8.005
   42POPC   C4A 4830  22.229  27.871   7.603
   42POPC   C1B 4831  22.091  27.342   8.797
   42POPC   C2B 4832  22.291  27.325   8.356
   42POPC   C3B 4833  22.087  27.370   7.916
   42POPC   C4B 4834  22.122  27.188   7.520
   43POPC   NC3 4835  30.591  35.084   9.669
   43POPC   PO4 4836  30.916  35.644   9.429
   43POPC   GL1 4837  30.706  35.407   9.078
   43POPC   GL2 4838  30.533  35.067   9.150
   43POPC   C1A 4839  30.792  35.419   8.594
   43POPC   D2A 4840  31.096  35.272   8.240
   43POPC   C3A 4841  31.071  35.406   7.784
   43POPC   C4A 4842  31.068  35.229   7.328
   43POPC   C1B 4843  30.328  35.239   8.790
   43POPC   C2B 4844  30.420  35.126   8.361
   43POPC   C3B 4845  30.649  35.127   7.975
   43POPC   C4B 4846  30.581  35.340   7.586
   44POPC   NC3 4847  42.203  17.577   9.482
   44POPC   PO4 4848  42.855  17.528   9.328
   44POPC   GL1 4849  42.486  17.421   9.057
   44POPC   GL2 4850  42.206  17.177   9.141
   44POPC   C1A 4851  42.233  17.678   8.727
   44POPC   D2A 4852  42.154  17.550   8.270
   44POPC   C3A 4853  42.382  17.801   7.950
   44POPC   C4A 4854  42.707  17.714   7.655
   44POPC   C1B 4855  42.090  17.198   8.692
   44POPC   C2B 4856  41.889  17.045   8.296
   44POPC   C3B 4857  41.980  17.217   7.893
   44POPC   C4B 4858  42.442  17.298   7.858
   45POPC   NC3 4859  34.310  25.380   9.373
   45POPC   PO4 4860  33.704  25.372   9.620
   45POPC   GL1 4861  33.840  25.253   9.177
   45POPC   GL2 4862  33.995  24.942   9.112
   45POPC   C1A 4863  33.671  25.140   8.745
   45POPC   D2A 4864  33.833  25.139   8.333
   45POPC   C3A 4865  33.650  25.319   7.978
   45POPC   C4A 4866  33.325  25.157   7.807
   45POPC   C1B 4867  34.201  25.101   8.720
   45POPC   C2B 4868  34.327  25.156   8.265
   45POPC   C3B 4869  34.087  24.997   7.894
   45POPC   C4B 4870  33.732  24.934   7.618
   46POPC   NC3 4871   4.690  40.151   9.477
   46POPC   PO4 4872   4.061  39.829   9.555
   46POPC   GL1 4873   4.165  39.783   9.145
   46POPC   GL2 4874   3.897  40.045   9.070
   46POPC   C1A 4875   4.387  39.877   8.725
   46POPC   D2A 4876   4.512  40.040   8.301
   46POPC   C3A 4877   4.262  40.125   7.921
   46POPC   C4A 4878   4.356  39.877   7.592
   46POPC   C1B 4879   3.894  39.765   8.732
   46POPC   C2B 4880   4.010  39.968   8.382
   46POPC   C3B 4881   3.958  39.741   8.053
   46POPC   C4B 4882   3.833  39.873   7.694
   47POPC   NC3 4883  30.951   7.798   9.452
   47POPC   PO4 4884  30.474   8.161   9.296
   47POPC   GL1 4885  30.530   8.017   8.917
   47POPC   GL2 4886  30.897   7.908   8.955
   47POPC   C1A 4887  30.507   8.266   8.549
   47POPC   D2A 4888  30.917   8.415   8.355
   47POPC   C3A 4889  30.803   8.498   7.943
   47POPC   C4A 4890  30.380   8.523   7.834
   47POPC   C1B 4891  30.865   7.907   8.510
   47POPC   C2B 4892  30.563   7.913   8.177
   47POPC   C3B 4893  30.463   8.023   7.784
   47POPC   C4B 4894  30.874   8.102   7.623
   48POPC   NC3 4895  26.141  32.725   9.339
   48POPC   PO4 4896  25.885  33.328   9.430
   48POPC   GL1 4897  25.923  33.116   9.045
   48POPC   GL2 4898  26.265  33.099   8.996
   48POPC   C1A 4899  25.922  32.950   8.618
   48POPC   D2A 4900  26.047  32.827   8.212
   48POPC   C3A 4901  25.961  33.094   7.876
   48POPC   C4A 4902  26.019  33.023   7.451
   48POPC   C1B 4903  26.414  33.080   8.566
   48POPC   C2B 4904  26.444  33.154   8.128
   48POPC   C3B 4905  26.421  32.892   7.770
   48POPC   C4B 4906  26.622  32.813   7.379
   49POPC   NC3 4907  28.872  15.051   9.332
   49POPC   PO4 4908  28.369  15.267   9.812
   49POPC   GL1 4909  28.498  15.387   9.332
   49POPC   GL2 4910  28.799  15.507   9.152
   49POPC   C1A 4911  28.295  15.381   8.871
   49POPC   D2A 4912  28.007  15.315   8.497
   49POPC   C3A 4913  28.139  15.291   8.040
   49POPC   C4A 4914  28.332  14.999   7.711
   49POPC   C1B 4915  28.774  15.305   8.738
   49POPC   C2B 4916  28.519  15.099   8.423
   49POPC   C3B 4917  28.671  15.237   8.009
   49POPC   C4B 4918  28.484  15.619   7.845
   50POPC   NC3 4919  21.462  40.097   9.576
   50POPC   PO4 4920  21.002  39.624   9.479
   50POPC   GL1 4921  21.158  39.906   9.143
   50POPC   GL2 4922  21.349  40.222   9.106
   50POPC   C1A 4923  21.305  39.909   8.714
   50POPC   D2A 4924  21.286  39.586   8.442
   50POPC   C3A 4925  21.203  39.636   8.018
   50POPC   C4A 4926  21.463  39.778   7.674
   50POPC   C1B 4927  21.546  40.384   8.735
   50POPC   C2B 4928  21.557  40.174   8.333
   50POPC   C3B 4929  21.414  40.250   7.908
   50POPC   C4B 4930  21.356  40.630   7.657
   51POPC   NC3 4931  42.503   7.640   9.529
   51POPC   PO4 4932  42.598   6.943   9.479
   51POPC   GL1 4933  42.441   7.196   9.135
   51POPC   GL2 4934  42.653   7.490   9.064
   51POPC   C1A 4935  42.182   7.284   8.757
   51POPC   D2A 4936  42.223   7.444   8.329
   51POPC   C3A 4937  42.254   7.329   7.919
   51POPC   C4A 4938  42.602   7.115   7.712
   51POPC   C1B 4939  42.346   7.755   8.825
   51POPC   C2B 4940  42.149   7.913   8.459
   51POPC   C3B 4941  42.340   7.882   8.077
   51POPC   C4B 4942  42.072   7.779   7.720
   52POPC   NC3 4943  26.941  37.948   9.363
   52POPC   PO4 4944  26.868  37.294   9.290
   52POPC   GL1 4945  26.613  37.535   9.077
   52POPC   GL2 4946  26.624  37.856   8.995
   52POPC   C1A 4947  26.696  37.487   8.662
   52POPC   D2A 4948  26.520  37.517   8.305
   52POPC   C3A 4949  26.781  37.497   7.955
   52POPC   C4A 4950  26.643  37.683   7.593
   52POPC   C1B 4951  26.846  37.964   8.598
   52POPC   C2B 4952  27.042  38.115   8.244
   52POPC   C3B 4953  27.038  37.952   7.851
   52POPC   C4B 4954  26.898  38.077   7.425
   53POPC   NC3 4955  43.461  11.248   9.480
   53POPC   PO4 4956  44.030  10.998   9.332
   53POPC   GL1 4957  43.934  11.299   9.023
   53POPC   GL2 4958  43.578  11.454   9.030
   53POPC   C1A 4959  44.109  11.212   8.614
   53POPC   D2A 4960  44.079  10.958   8.248
   53POPC   C3A 4961  43.994  11.233   7.924
   53POPC   C4A 4962  43.788  11.259   7.525
   53POPC   C1B 4963  43.737  11.563   8.654
   53POPC   C2B 4964  43.848  11.643   8.263
   53POPC   C3B 4965  43.598  11.543   7.927
   53POPC   C4B 4966  43.473  11.641   7.547
   54POPC   NC3 4967  41.338   6.922   9.315
   54POPC   PO4 4968  41.770   6.521   9.491
   54POPC   GL1 4969  41.704   6.612   9.083
   54POPC   GL2 4970  41.379   6.640   8.906
   54POPC   C1A 4971  41.876   6.362   8.771
   54POPC   D2A 4972  42.056   6.535   8.380
   54POPC   C3A 4973  41.796   6.724   8.066
   54POPC   C4A 4974  41.730   6.541   7.670
   54POPC   C1B 4975  41.604   6.733   8.575
   54POPC   C2B 4976  41.341   6.615   8.285
   54POPC   C3B 4977  41.268   6.543   7.873
   54POPC   C4B 4978  41.291   6.631   7.414
   55POPC   NC3 4979  28.644   1.707   9.463
   55POPC   PO4 4980  28.235   2.233   9.466
   55POPC   GL1 4981  28.445   2.033   9.125
   55POPC   GL2 4982  28.255   1.746   9.098
   55POPC   C1A 4983  28.671   1.815   8.796
   55POPC   D2A 4984  28.625   2.046   8.416
   55POPC   C3A 4985  28.710   1.877   8.041
   55POPC   C4A 4986  28.464   1.994   7.706
   55POPC   C1B 4987  28.180   1.956   8.677
   55POPC   C2B 4988  28.191   1.871   8.200
   55POPC   C3B 4989  28.042   1.731   7.776
   55POPC   C4B 4990  28.022   1.881   7.341
   56POPC   NC3 4991  32.344   2.374   9.521
   56POPC   PO4 4992  31.998   1.802   9.564
   56POPC   GL1 4993  32.191   1.833   9.159
   56POPC   GL2 4994  32.192   2.143   9.099
   56POPC   C1A 4995  32.063   1.875   8.706
   56POPC   D2A 4996  32.296   1.951   8.336
   56POPC   C3A 4997  32.008   1.823   8.070
   56POPC   C4A 4998  31.885   1.936   7.691
   56POPC   C1B 4999  32.277   2.355   8.667
   56POPC   C2B 5000  32.370   2.444   8.207
   56POPC   C3B 5001  32.336   2.197   7.788
   56POPC   C4B 5002  32.462   2.321   7.341
   57POPC   NC3 5003   4.353   7.133   9.378
   57POPC   PO4 5004   4.324   7.777   9.472
   57POPC   GL1 5005   4.303   7.565   9.106
   57POPC   GL2 5006   4.016   7.366   9.059
   57POPC   C1A 5007   4.226   7.680   8.702
   57POPC   D2A 5008   4.031   7.551   8.388
   57POPC   C3A 5009   4.200   7.763   8.093
   57POPC   C4A 5010   4.157   7.568   7.751
   57POPC   C1B 5011   4.231   7.159   8.746
   57POPC   C2B 5012   4.422   7.239   8.388
   57POPC   C3B 5013   4.301   7.144   7.993
   57POPC   C4B 5014   4.062   6.929   7.665
   58POPC   NC3 5015   2.551  19.329   9.445
   58POPC   PO4 5016   2.989  18.912   9.426
   58POPC   GL1 5017   2.856  18.975   9.045
   58POPC   GL2 5018   2.532  19.000   9.059
   58POPC   C1A 5019   2.995  19.034   8.626
   58POPC   D2A 5020   3.115  19.207   8.222
   58POPC   C3A 5021   2.884  18.955   7.895
   58POPC   C4A 5022   2.805  18.894   7.453
   58POPC   C1B 5023   2.520  19.252   8.671
   58POPC   C2B 5024   2.606  19.223   8.282
   58POPC   C3B 5025   2.423  19.403   7.980
   58POPC   C4B 5026   2.550  19.293   7.611
   59POPC   NC3 5027  35.673  20.292   9.216
   59POPC   PO4 5028  35.234  19.862   9.498
   59POPC   GL1 5029  35.387  19.805   9.082
   59POPC   GL2 5030  35.753  19.838   8.994
   59POPC   C1A 5031  35.181  19.714   8.695
   59POPC   D2A 5032  34.964  19.923   8.349
   59POPC   C3A 5033  35.257  19.882   8.004
   59POPC   C4A 5034  35.371  19.827   7.587
   59POPC   C1B 5035  35.522  20.087   8.648
   59POPC   C2B 5036  35.384  20.289   8.315
   59POPC   C3B 5037  35.544  20.344   7.932
   59POPC   C4B 5038  35.747  20.169   7.640
   60POPC   NC3 5039  24.687  36.215   9.419
   60POPC   PO4 5040  24.221  35.800   9.480
   60POPC   GL1 5041  24.361  35.984   9.111
   60POPC   GL2 5042  24.161  36.295   9.178
   60POPC   C1A 5043  24.670  35.981   8.750
   60POPC   D2A 5044  24.616  35.926   8.328
   60POPC   C3A 5045  24.877  35.955   7.985
   60POPC   C4A 5046  24.813  36.361   7.888
   60POPC   C1B 5047  24.374  36.444   8.804
   60POPC   C2B 5048  24.510  36.464   8.376
   60POPC   C3B 5049  24.306  36.252   8.065
   60POPC   C4B 5050  24.392  35.952   7.829
   61POPC   NC3 5051  32.597   9.133   9.917
   61POPC   PO4 5052  31.983   9.042   9.564
   61POPC   GL1 5053  32.264   9.159   9.219
   61POPC   GL2 5054  32.155   8.909   8.985
   61POPC   C1A 5055  32.440   9.260   8.795
   61POPC   D2A 5056  32.391   8.997   8.435
   61POPC   C3A 5057  32.646   9.083   8.109
   61POPC   C4A 5058  32.499   8.914   7.731
   61POPC   C1B 5059  31.809   8.785   8.697
   61POPC   C2B 5060  31.929   8.761   8.315
   61POPC   C3B 5061  32.077   9.018   8.005
   61POPC   C4B 5062  31.980   8.895   7.575
   62POPC   NC3 5063  34.314  27.230   9.497
   62POPC   PO4 5064  34.761  26.761   9.424
   62POPC   GL1 5065  34.535  26.922   9.080
   62POPC   GL2 5066  34.233  26.700   9.147
   62POPC   C1A 5067  34.654  26.986   8.640
   62POPC   D2A 5068  34.541  26.837   8.238
   62POPC   C3A 5069  34.595  27.087   7.853
   62POPC   C4A 5070  34.521  26.774   7.548
   62POPC   C1B 5071  34.301  26.575   8.716
   62POPC   C2B 5072  34.293  26.391   8.300
   62POPC   C3B 5073  34.180  26.598   7.946
   62POPC   C4B 5074  34.070  26.495   7.570
   63POPC   NC3 5075  30.460  37.906   9.403
   63POPC   PO4 5076  30.938  37.434   9.438
   63POPC   GL1 5077  30.660  37.500   9.091
   63POPC   GL2 5078  30.602  37.846   8.935
   63POPC   C1A 5079  30.740  37.468   8.644
   63POPC   D2A 5080  31.016  37.689   8.351
   63POPC   C3A 5081  30.953  37.569   7.921
   63POPC   C4A 5082  30.881  37.681   7.514
   63POPC   C1B 5083  30.482  38.095   8.599
   63POPC   C2B 5084  30.456  37.898   8.197
   63POPC   C3B 5085  30.521  37.986   7.753
   63POPC   C4B 5086  30.437  37.883   7.309
   64POPC   NC3 5087  17.532  13.046   9.548
   64POPC   PO4 5088  17.467  12.376   9.472
   64POPC   GL1 5089  17.458  12.716   9.140
   64POPC   GL2 5090  17.646  13.024   9.034
   64POPC   C1A 5091  17.532  12.657   8.702
   64POPC   D2A 5092  17.516  12.864   8.340
   64POPC   C3A 5093  17.371  12.563   8.056
   64POPC   C4A 5094  17.658  12.647   7.772
   64POPC   C1B 5095  17.252  13.064   8.761
   64POPC   C2B 5096  17.107  13.170   8.311
   64POPC   C3B 5097  17.341  13.072   7.903
   64POPC   C4B 5098  17.767  13.180   7.822
   65POPC   NC3 5099  41.955  29.079   9.558
   65POPC   PO4 5100  42.633  29.238   9.476
   65POPC   GL1 5101  42.312  29.025   9.186
   65POPC   GL2 5102  42.244  29.322   9.084
   65POPC   C1A 5103  42.062  28.902   8.788
   65POPC   D2A 5104  42.071  29.136   8.337
   65POPC   C3A 5105  42.248  29.116   7.904
   65POPC   C4A 5106  42.262  29.272   7.448
   65POPC   C1B 5107  42.473  29.149   8.670
   65POPC   C2B 5108  42.491  28.858   8.306
   65POPC   C3B 5109  42.659  28.798   7.920
   65POPC   C4B 5110  42.657  28.972   7.527
   66POPC   NC3 5111   5.394   9.530   9.708
   66POPC   PO4 5112   5.533   8.964   9.422
   66POPC   GL1 5113   5.433   9.171   9.104
   66POPC   GL2 5114   5.107   9.187   9.168
   66POPC   C1A 5115   5.259   8.997   8.725
   66POPC   D2A 5116   5.451   8.877   8.381
   66POPC   C3A 5117   5.370   9.093   8.062
   66POPC   C4A 5118   5.362   8.821   7.728
   66POPC   C1B 5119   4.794   9.238   8.818
   66POPC   C2B 5120   4.705   9.041   8.412
   66POPC   C3B 5121   4.898   8.930   8.029
   66POPC   C4B 5122   5.033   9.200   7.683
   67POPC   NC3 5123   2.293   3.503   9.585
   67POPC   PO4 5124   2.907   3.256   9.804
   67POPC   GL1 5125   2.802   3.286   9.329
   67POPC   GL2 5126   2.636   3.590   9.236
   67POPC   C1A 5127   2.972   3.450   8.893
   67POPC   D2A 5128   2.778   3.627   8.510
   67POPC   C3A 5129   2.959   3.566   8.092
   67POPC   C4A 5130   2.896   3.305   7.757
   67POPC   C1B 5131   2.467   3.391   8.879
   67POPC   C2B 5132   2.335   3.382   8.450
   67POPC   C3B 5133   2.489   3.347   8.076
   67POPC   C4B 5134   2.400   3.401   7.686
   68POPC   NC3 5135  33.550  18.233   9.569
   68POPC   PO4 5136  34.052  18.745   9.414
   68POPC   GL1 5137  33.942  18.552   8.983
   68POPC   GL2 5138  33.709  18.239   8.935
   68POPC   C1A 5139  33.975  18.460   8.559
   68POPC   D2A 5140  33.752  18.145   8.380
   68POPC   C3A 5141  33.499  18.382   8.123
   68POPC   C4A 5142  33.595  18.236   7.735
   68POPC   C1B 5143  34.096  17.996   8.735
   68POPC   C2B 5144  34.307  18.137   8.348
   68POPC   C3B 5145  34.095  18.101   7.959
   68POPC   C4B 5146  34.220  17.912   7.555
   69POPC   NC3 5147  38.854  17.780   9.214
   69POPC   PO4 5148  39.306  17.335   9.515
   69POPC   GL1 5149  39.328  17.567   9.146
   69POPC   GL2 5150  39.653  17.632   9.081
   69POPC   C1A 5151  39.184  17.565   8.718
   69POPC   D2A 5152  39.139  17.325   8.402
   69POPC   C3A 5153  39.083  17.453   8.014
   69POPC   C4A 5154  38.862  17.267   7.760
   69POPC   C1B 5155  39.588  17.861   8.701
   69POPC   C2B 5156  39.401  17.768   8.288
   69POPC   C3B 5157  39.578  17.421   8.075
   69POPC   C4B 5158  39.580  17.303   7.650
   70POPC   NC3 5159  42.906  23.480   9.568
   70POPC   PO4 5160  43.056  22.796   9.405
   70POPC   GL1 5161  42.934  23.031   9.094
   70POPC   GL2 5162  42.673  23.262   9.165
   70POPC   C1A 5163  43.099  22.942   8.705
   70POPC   D2A 5164  43.428  22.795   8.448
   70POPC   C3A 5165  43.214  22.838   8.070
   70POPC   C4A 5166  43.070  22.762   7.657
   70POPC   C1B 5167  42.586  23.128   8.710
   70POPC   C2B 5168  42.751  23.110   8.284
   70POPC   C3B 5169  42.894  23.213   7.876
   70POPC   C4B 5170  42.905  23.191   7.427
   71POPC   NC3 5171  36.744  17.112   9.427
   71POPC   PO4 5172  36.682  16.392   9.448
   71POPC   GL1 5173  36.705  16.694   9.151
   71POPC   GL2 5174  37.058  16.870   9.120
   71POPC   C1A 5175  36.749  16.720   8.743
   71POPC   D2A 5176  36.994  16.594   8.415
   71POPC   C3A 5177  36.866  16.744   8.000
   71POPC   C4A 5178  36.585  16.537   7.702
   71POPC   C1B 5179  37.176  17.034   8.717
   71POPC   C2B 5180  37.405  16.873   8.347
   71POPC   C3B 5181  37.344  16.936   7.896
   71POPC   C4B 5182  37.060  16.792   7.511
   72POPC   NC3 5183  31.101  29.921   9.294
   72POPC   PO4 5184  30.709  30.372   9.535
   72POPC   GL1 5185  30.666  30.110   9.158
   72POPC   GL2 5186  30.807  30.379   9.000
   72POPC   C1A 5187  30.786  29.939   8.728
   72POPC   D2A 5188  30.889  30.118   8.337
   72POPC   C3A 5189  30.970  29.888   7.965
   72POPC   C4A 5190  30.597  29.699   7.765
   72POPC   C1B 5191  30.396  30.288   8.797
   72POPC   C2B 5192  30.350  30.107   8.438
   72POPC   C3B 5193  30.448  30.152   8.030
   72POPC   C4B 5194  30.218  30.033   7.668
   73POPC   NC3 5195  20.676  40.699   9.719
   73POPC   PO4 5196  20.830  41.319   9.575
   73POPC   GL1 5197  20.704  41.010   9.253
   73POPC   GL2 5198  20.841  40.684   9.222
   73POPC   C1A 5199  20.723  41.050   8.789
   73POPC   D2A 5200  20.681  41.022   8.318
   73POPC   C3A 5201  20.545  41.024   7.862
   73POPC   C4A 5202  20.362  40.878   7.461
   73POPC   C1B 5203  20.674  40.518   8.830
   73POPC   C2B 5204  20.701  40.521   8.364
   73POPC   C3B 5205  20.687  40.460   7.893
   73POPC   C4B 5206  20.996  40.286   7.599
   74POPC   NC3 5207  10.498  22.363   9.570
   74POPC   PO4 5208  10.478  22.997   9.633
   74POPC   GL1 5209  10.650  22.900   9.218
   74POPC   GL2 5210  10.510  22.617   9.068
   74POPC   C1A 5211  10.799  22.978   8.789
   74POPC   D2A 5212  10.558  23.015   8.418
   74POPC   C3A 5213  10.610  23.089   7.997
   74POPC   C4A 5214  10.273  23.032   7.669
   74POPC   C1B 5215  10.796  22.451   8.721
   74POPC   C2B 5216  10.685  22.523   8.327
   74POPC   C3B 5217  10.874  22.650   7.975
   74POPC   C4B 5218  10.689  22.734   7.620
   75POPC   NC3 5219  36.433  26.198   9.349
   75POPC   PO4 5220  36.080  25.635   9.327
   75POPC   GL1 5221  36.061  25.990   9.010
   75POPC   GL2 5222  35.742  26.200   8.999
   75POPC   C1A 5223  36.271  25.996   8.583
   75POPC   D2A 5224  36.063  26.042   8.160
   75POPC   C3A 5225  36.116  26.025   7.707
   75POPC   C4A 5226  36.368  26.124   7.342
   75POPC   C1B 5227  35.819  26.236   8.579
   75POPC   C2B 5228  35.815  26.472   8.180
   75POPC   C3B 5229  35.797  26.441   7.757
   75POPC   C4B 5230  35.522  26.226   7.509
   76POPC   NC3 5231  44.232  40.928   9.473
   76POPC   PO4 5232  44.896  40.928   9.398
   76POPC   GL1 5233  44.658  40.906   9.064
   76POPC   GL2 5234  44.360  40.713   9.054
   76POPC   C1A 5235  44.840  40.860   8.688
   76POPC   D2A 5236  44.679  41.046   8.320
   76POPC   C3A 5237  44.848  40.877   7.960
   76POPC   C4A 5238  44.974  41.169   7.662
   76POPC   C1B 5239  44.341  40.808   8.640
   76POPC   C2B 5240  44.421  40.622   8.248
   76POPC   C3B 5241  44.346  40.714   7.839
   76POPC   C4B 5242  44.303  41.104   7.599
   77POPC   NC3 5243  44.767  24.169   9.611
   77POPC   PO4 5244  44.359  23.592   9.717
   77POPC   GL1 5245  44.656  23.561   9.338
   77POPC   GL2 5246  44.646  23.899   9.157
   77POPC   C1A 5247  44.856  23.476   8.910
   77POPC   D2A 5248  44.941  23.694   8.496
   77POPC   C3A 5249  44.797  23.504   8.108
   77POPC   C4A 5250  44.921  23.536   7.695
   77POPC   C1B 5251  44.479  23.804   8.720
   77POPC   C2B 5252  44.398  23.789   8.267
   77POPC   C3B 5253  44.424  23.769   7.796
   77POPC   C4B 5254  44.288  23.951   7.366
   78POPC   NC3 5255  26.226  14.998   9.330
   78POPC   PO4 5256  25.658  15.390   9.450
   78POPC   GL1 5257  25.914  15.364   9.074
   78POPC   GL2 5258  26.288  15.437   9.067
   78POPC   C1A 5259  25.896  15.091   8.699
   78POPC   D2A 5260  25.990  15.183   8.254
   78POPC   C3A 5261  26.036  14.949   7.904
   78POPC   C4A 5262  25.728  14.876   7.548
   78POPC   C1B 5263  26.249  15.447   8.614
   78POPC   C2B 5264  26.216  15.614   8.189
   78POPC   C3B 5265  26.283  15.497   7.741
   78POPC   C4B 5266  26.469  15.449   7.277
   79POPC   NC3 5267  24.813  23.103   9.423
   79POPC   PO4 5268  25.448  23.198   9.540
   79POPC   GL1 5269  25.410  23.058   9.153
   79POPC   GL2 5270  25.110  22.848   9.084
   79POPC   C1A 5271  25.514  22.940   8.760
   79POPC   D2A 5272  25.172  22.721   8.580
   79POPC   C3A 5273  25.165  22.803   8.172
   79POPC   C4A 5274  25.532  22.854   7.876
   79POPC   C1B 5275  25.091  23.229   8.781
   79POPC   C2B 5276  25.025  23.314   8.325
   79POPC   C3B 5277  25.082  23.200   7.864
   79POPC   C4B 5278  25.006  22.797   7.684
   80POPC   NC3 5279   2.824   0.956   9.806
   80POPC   PO4 5280   2.578   1.538   9.462
   80POPC   GL1 5281   2.774   1.454   9.076
   80POPC   GL2 5282   2.468   1.323   8.975
   80POPC   C1A 5283   2.857   1.522   8.632
   80POPC   D2A 5284   3.040   1.190   8.387
   80POPC   C3A 5285   2.915   1.020   7.996
   80POPC   C4A 5286   2.886   1.331   7.719
   80POPC   C1B 5287   2.686   1.046   8.736
   80POPC   C2B 5288   2.557   1.086   8.353
   80POPC   C3B 5289   2.357   0.888   8.068
   80POPC   C4B 5290   2.405   1.095   7.701
   81POPC   NC3 5291   3.816  32.420   9.527
   81POPC   PO4 5292   3.248  32.185   9.186
   81POPC   GL1 5293   3.689  32.267   9.062
   81POPC   GL2 5294   3.837  31.968   9.173
   81POPC   C1A 5295   3.870  32.480   8.717
   81POPC   D2A 5296   3.501  32.523   8.493
   81POPC   C3A 5297   3.406  32.514   8.063
   81POPC   C4A 5298   3.312  32.278   7.708
   81POPC   C1B 5299   4.038  31.997   8.744
   81POPC   C2B 5300   3.911  32.100   8.316
   81POPC   C3B 5301   3.810  32.026   7.884
   81POPC   C4B 5302   3.876  32.438   7.793
   82POPC   NC3 5303  38.529  23.549   9.551
   82POPC   PO4 5304  38.203  24.204   9.645
   82POPC   GL1 5305  38.422  23.949   9.248
   82POPC   GL2 5306  38.140  23.930   9.002
   82POPC   C1A 5307  38.594  23.722   8.836
   82POPC   D2A 5308  38.859  23.680   8.447
   82POPC   C3A 5309  38.633  23.721   8.050
   82POPC   C4A 5310  38.727  24.080   7.785
   82POPC   C1B 5311  38.116  23.594   8.707
   82POPC   C2B 5312  38.235  23.525   8.311
   82POPC   C3B 5313  38.124  23.507   7.906
   82POPC   C4B 5314  38.041  23.759   7.566
   83POPC   NC3 5315  14.560  43.509   9.463
   83POPC   PO4 5316  14.132  44.009   9.556
   83POPC   GL1 5317  14.281  43.840   9.180
   83POPC   GL2 5318  14.567  44.055   9.222
   83POPC   C1A 5319  14.302  43.657   8.762
   83POPC   D2A 5320  14.221  43.882   8.375
   83POPC   C3A 5321  14.291  43.740   7.954
   83POPC   C4A 5322  14.392  43.494   7.609
   83POPC   C1B 5323  14.387  44.175   8.787
   83POPC   C2B 5324  14.467  44.320   8.343
   83POPC   C3B 5325  14.397  44.252   7.887
   83POPC   C4B 5326  14.532  44.260   7.420
   84POPC   NC3 5327  36.806  40.835   9.486
   84POPC   PO4 5328  37.181  40.315   9.536
   84POPC   GL1 5329  37.066  40.544   9.132
   84POPC   GL2 5330  36.703  40.493   9.125
   84POPC   C1A 5331  36.900  40.759   8.731
   84POPC   D2A 5332  36.872  41.041   8.330
   84POPC   C3A 5333  36.897  40.872   7.898
   84POPC   C4A 5334  37.121  40.890   7.496
   84POPC   C1B 5335  36.540  40.367   8.785
   84POPC   C2B 5336  36.845  40.265   8.503
   84POPC   C3B 5337  36.790  40.404   8.128
   84POPC   C4B 5338  36.492  40.535   7.854
   85POPC   NC3 5339  20.080   4.224   9.304
   85POPC   PO4 5340  20.754   4.271   9.459
   85POPC   GL1 5341  20.633   4.369   9.034
   85POPC   GL2 5342  20.433   4.626   9.051
   85POPC   C1A 5343  20.427   4.233   8.643
   85POPC   D2A 5344  20.400   4.254   8.176
   85POPC   C3A 5345  20.751   4.140   7.953
   85POPC   C4A 5346  20.925   3.928   7.572
   85POPC   C1B 5347  20.680   4.724   8.658
   85POPC   C2B 5348  20.736   4.649   8.202
   85POPC   C3B 5349  20.503   4.593   7.801
   85POPC   C4B 5350  20.508   4.615   7.336
   86POPC   NC3 5351  22.278  43.481   9.432
   86POPC   PO4 5352  22.075  44.128   9.280
   86POPC   GL1 5353  21.954  43.755   9.082
   86POPC   GL2 5354  21.895  43.993   8.798
   86POPC   C1A 5355  21.947  43.501   8.721
   86POPC   D2A 5356  21.852  43.579   8.301
   86POPC   C3A 5357  22.219  43.697   8.070
   86POPC   C4A 5358  22.041  43.553   7.738
   86POPC   C1B 5359  22.340  43.987   8.634
   86POPC   C2B 5360  22.610  43.979   8.256
   86POPC   C3B 5361  22.503  44.141   7.887
   86POPC   C4B 5362  22.061  44.141   7.822
   87POPC   NC3 5363   1.964   9.437   9.513
   87POPC   PO4 5364   1.989  10.094   9.498
   87POPC   GL1 5365   1.924   9.800   9.165
   87POPC   GL2 5366   2.246   9.660   9.145
   87POPC   C1A 5367   1.709   9.805   8.765
   87POPC   D2A 5368   1.542   9.566   8.423
   87POPC   C3A 5369   1.667   9.736   8.020
   87POPC   C4A 5370   1.983   9.513   7.789
   87POPC   C1B 5371   2.162   9.579   8.738
   87POPC   C2B 5372   2.053   9.663   8.342
   87POPC   C3B 5373   2.364   9.780   8.051
   87POPC   C4B 5374   2.476   9.560   7.709
   88POPC   NC3 5375  13.716  12.186   9.562
   88POPC   PO4 5376  13.567  11.611   9.246
   88POPC   GL1 5377  13.551  12.011   9.109
   88POPC   GL2 5378  13.910  12.054   9.122
   88POPC   C1A 5379  13.505  12.051   8.693
   88POPC   D2A 5380  13.284  11.797   8.406
   88POPC   C3A 5381  13.546  11.904   8.066
   88POPC   C4A 5382  13.928  11.809   7.816
   88POPC   C1B 5383  13.974  12.275   8.768
   88POPC   C2B 5384  13.913  12.086   8.384
   88POPC   C3B 5385  13.910  12.275   8.021
   88POPC   C4B 5386  14.148  12.246   7.669
   89POPC   NC3 5387  29.177   7.190   9.439
   89POPC   PO4 5388  29.551   7.779   9.341
   89POPC   GL1 5389  29.253   7.570   9.093
   89POPC   GL2 5390  28.905   7.671   9.117
   89POPC   C1A 5391  29.153   7.541   8.666
   89POPC   D2A 5392  29.208   7.400   8.271
   89POPC   C3A 5393  29.380   7.549   7.913
   89POPC   C4A 5394  29.360   7.132   7.765
   89POPC   C1B 5395  28.704   7.782   8.705
   89POPC   C2B 5396  28.710   7.550   8.322
   89POPC   C3B 5397  28.873   7.654   7.944
   89POPC   C4B 5398  29.068   7.960   7.750
   90POPC   NC3 5399  10.064  28.400   9.633
   90POPC   PO4 5400   9.561  28.754   9.480
   90POPC   GL1 5401   9.764  28.457   9.211
   90POPC   GL2 5402  10.114  28.576   9.148
   90POPC   C1A 5403   9.631  28.366   8.795
   90POPC   D2A 5404   9.440  28.148   8.462
   90POPC   C3A 5405   9.588  28.309   8.049
   90POPC   C4A 5406   9.814  28.572   7.786
   90POPC   C1B 5407  10.113  28.226   8.880
   90POPC   C2B 5408   9.979  28.158   8.446
   90POPC   C3B 5409  10.201  28.009   8.077
   90POPC   C4B 5410   9.924  28.037   7.739
   91POPC   NC3 5411  36.436  19.786   9.550
   91POPC   PO4 5412  37.038  19.948   9.479
   91POPC   GL1 5413  37.067  19.580   9.246
   91POPC   GL2 5414  36.729  19.499   9.158
   91POPC   C1A 5415  37.111  19.576   8.802
   91POPC   D2A 5416  37.262  19.781   8.428
   91POPC   C3A 5417  36.997  19.782   8.057
   91POPC   C4A 5418  37.100  19.981   7.664
   91POPC   C1B 5419  36.696  19.865   8.854
   91POPC   C2B 5420  36.698  20.016   8.409
   91POPC   C3B 5421  36.718  20.198   7.939
   91POPC   C4B 5422  36.653  20.190   7.457
   92POPC   NC3 5423  13.638  21.016   9.427
   92POPC   PO4 5424  13.749  21.779   9.452
   92POPC   GL1 5425  13.712  21.624   9.077
   92POPC   GL2 5426  13.512  21.368   9.101
   92POPC   C1A 5427  13.614  21.704   8.691
   92POPC   D2A 5428  13.828  21.676   8.345
   92POPC   C3A 5429  13.655  21.805   8.022
   92POPC   C4A 5430  13.534  21.489   7.825
   92POPC   C1B 5431  13.671  21.115   8.739
   92POPC   C2B 5432  13.894  21.108   8.325
   92POPC   C3B 5433  13.745  21.027   7.903
   92POPC   C4B 5434  13.396  20.886   7.654
   93POPC   NC3 5435  28.482  11.146   9.611
   93POPC   PO4 5436  28.711  11.718   9.343
   93POPC   GL1 5437  28.452  11.391   9.164
   93POPC   GL2 5438  28.594  11.017   9.139
   93POPC   C1A 5439  28.364  11.322   8.747
   93POPC   D2A 5440  28.341  11.575   8.384
   93POPC   C3A 5441  28.311  11.306   8.072
   93POPC   C4A 5442  28.440  11.137   7.696
   93POPC   C1B 5443  28.790  11.043   8.756
   93POPC   C2B 5444  28.728  11.155   8.368
   93POPC   C3B 5445  28.776  10.935   8.009
   93POPC   C4B 5446  28.853  10.819   7.575
   94POPC   NC3 5447   1.708  18.973   9.541
   94POPC   PO4 5448   2.197  19.462   9.693
   94POPC   GL1 5449   2.081  19.177   9.265
   94POPC   GL2 5450   1.759  19.297   9.149
   94POPC   C1A 5451   2.118  18.989   8.791
   94POPC   D2A 5452   2.097  19.108   8.316
   94POPC   C3A 5453   2.148  19.011   7.840
   94POPC   C4A 5454   2.061  19.332   7.480
   94POPC   C1B 5455   1.655  18.887   8.899
   94POPC   C2B 5456   1.762  18.729   8.494
   94POPC   C3B 5457   1.714  18.836   8.074
   94POPC   C4B 5458   1.657  19.053   7.697
   95POPC   NC3 5459  22.431  18.941   9.962
   95POPC   PO4 5460  22.203  19.380   9.453
   95POPC   GL1 5461  22.311  19.239   9.049
   95POPC   GL2 5462  21.965  19.232   9.000
   95POPC   C1A 5463  22.313  19.069   8.611
   95POPC   D2A 5464  22.585  18.936   8.231
   95POPC   C3A 5465  22.341  19.087   7.929
   95POPC   C4A 5466  22.150  18.887   7.598
   95POPC   C1B 5467  21.914  18.825   8.792
   95POPC   C2B 5468  22.004  18.733   8.371
   95POPC   C3B 5469  21.824  18.835   7.986
   95POPC   C4B 5470  21.732  18.609   7.604
   96POPC   NC3 5471  33.985   3.775   9.892
   96POPC   PO4 5472  34.619   3.738   9.570
   96POPC   GL1 5473  34.389   3.678   9.146
   96POPC   GL2 5474  34.684   3.503   9.105
   96POPC   C1A 5475  34.501   3.694   8.673
   96POPC   D2A 5476  34.652   3.589   8.241
   96POPC   C3A 5477  34.458   3.791   7.892
   96POPC   C4A 5478  34.099   3.843   7.666
   96POPC   C1B 5479  34.753   3.252   8.758
   96POPC   C2B 5480  34.644   3.067   8.375
   96POPC   C3B 5481  34.815   3.160   8.023
   96POPC   C4B 5482  34.772   3.457   7.690
   97POPC   NC3 5483  44.821  14.606   9.220
   97POPC   PO4 5484  44.362  14.169   9.406
   97POPC   GL1 5485  44.386  14.390   9.080
   97POPC   GL2 5486  44.414  14.755   8.956
   97POPC   C1A 5487  44.553  14.286   8.699
   97POPC   D2A 5488  44.560  14.539   8.354
   97POPC   C3A 5489  44.537  14.291   7.986
   97POPC   C4A 5490  44.508  14.263   7.530
   97POPC   C1B 5491  44.810  14.902   8.679
   97POPC   C2B 5492  44.997  14.920   8.276
   97POPC   C3B 5493  44.843  14.706   7.961
   97POPC   C4B 5494  44.954  14.407   7.706
   98POPC   NC3 5495  39.026  30.420   9.796
   98POPC   PO4 5496  39.394  31.007   9.693
   98POPC   GL1 5497  39.423  31.027   9.218
   98POPC   GL2 5498  39.059  30.991   9.014
   98POPC   C1A 5499  39.539  31.031   8.777
   98POPC   D2A 5500  39.197  30.931   8.505
   98POPC   C3A 5501  39.243  30.791   8.101
   98POPC   C4A 5502  39.025  30.858   7.737
   98POPC   C1B 5503  38.857  30.618   8.738
   98POPC   C2B 5504  38.907  30.450   8.313
   98POPC   C3B 5505  39.131  30.282   7.938
   98POPC   C4B 5506  39.582  30.300   7.831
   99POPC   NC3 5507   7.043  43.839   9.271
   99POPC   PO4 5508   6.332  44.020   9.433
   99POPC   GL1 5509   6.549  43.851   9.108
   99POPC   GL2 5510   6.428  44.106   8.917
   99POPC   C1A 5511   6.726  43.664   8.732
   99POPC   D2A 5512   6.861  43.775   8.321
   99POPC   C3A 5513   6.720  43.498   8.017
   99POPC   C4A 5514   6.828  43.808   7.782
   99POPC   C1B 5515   6.734  44.172   8.614
   99POPC   C2B 5516   7.024  44.300   8.274
   99POPC   C3B 5517   6.950  44.307   7.865
   99POPC   C4B 5518   6.559  44.239   7.733
  100POPC   NC3 5519  11.307  40.453   9.654
  100POPC   PO4 5520  11.077  41.094   9.535
  100POPC   GL1 5521  11.439  40.914   9.263
  100POPC   GL2 5522  11.559  40.556   9.189
  100POPC   C1A 5523  11.486  40.900   8.803
  100POPC   D2A 5524  11.360  40.720   8.390
  100POPC   C3A 5525  11.107  40.893   8.069
  100POPC   C4A 5526  11.276  40.800   7.685
  100POPC   C1B 5527  11.410  40.397   8.768
  100POPC   C2B 5528  11.074  40.278   8.494
  100POPC   C3B 5529  11.157  40.374   8.068
  100POPC   C4B 5530  11.184  40.295   7.661
  101POPC   NC3 5531  37.438  19.790   9.618
  101POPC   PO4 5532  38.066  19.592   9.676
  101POPC   GL1 5533  37.799  19.719   9.225
  101POPC   GL2 5534  37.456  19.914   9.129
  101POPC   C1A 5535  37.642  19.621   8.778
  101POPC   D2A 5536  37.733  19.491   8.361
  101POPC   C3A 5537  37.898  19.753   8.006
  101POPC   C4A 5538  38.001  19.780   7.593
  101POPC   C1B 5539  37.717  20.140   8.824
  101POPC   C2B 5540  37.733  20.003   8.408
  101POPC   C3B 5541  37.486  20.030   8.001
  101POPC   C4B 5542  37.583  20.202   7.565
  102POPC   NC3 5543  39.888  43.468   9.515
  102POPC   PO4 5544  40.011  44.085   9.547
  102POPC   GL1 5545  40.074  43.810   9.189
  102POPC   GL2 5546  39.722  43.859   9.115
  102POPC   C1A 5547  40.133  43.888   8.748
  102POPC   D2A 5548  40.272  44.190   8.433
  102POPC   C3A 5549  40.237  44.005   8.018
  102POPC   C4A 5550  40.058  44.185   7.638
  102POPC   C1B 5551  39.689  44.156   8.761
  102POPC   C2B 5552  39.782  44.029   8.342
  102POPC   C3B 5553  39.664  44.051   7.922
  102POPC   C4B 5554  39.673  43.891   7.467
  103POPC   NC3 5555  41.279  34.062   9.495
  103POPC   PO4 5556  41.783  33.675   9.725
  103POPC   GL1 5557  41.532  33.649   9.336
  103POPC   GL2 5558  41.681  33.916   9.135
  103POPC   C1A 5559  41.345  33.601   8.907
  103POPC   D2A 5560  41.504  33.667   8.499
  103POPC   C3A 5561  41.338  33.701   8.103
  103POPC   C4A 5562  41.369  33.578   7.722
  103POPC   C1B 5563  41.624  34.098   8.723
  103POPC   C2B 5564  41.348  34.143   8.365
  103POPC   C3B 5565  41.520  34.143   7.948
  103POPC   C4B 5566  41.470  34.080   7.535
  104POPC   NC3 5567   0.938  40.976   9.530
  104POPC   PO4 5568   1.254  40.406   9.581
  104POPC   GL1 5569   1.264  40.618   9.155
  104POPC   GL2 5570   1.197  40.994   9.089
  104POPC   C1A 5571   1.336  40.656   8.691
  104POPC   D2A 5572   1.234  40.966   8.346
  104POPC   C3A 5573   1.358  40.865   7.898
  104POPC   C4A 5574   1.516  40.994   7.489
  104POPC   C1B 5575   0.875  40.897   8.766
  104POPC   C2B 5576   0.712  40.977   8.367
  104POPC   C3B 5577   0.855  40.906   7.969
  104POPC   C4B 5578   0.963  40.827   7.512
  105POPC   NC3 5579  23.108  32.496  10.010
  105POPC   PO4 5580  22.932  32.154   9.438
  105POPC   GL1 5581  23.031  32.174   9.030
  105POPC   GL2 5582  23.235  31.883   9.068
  105POPC   C1A 5583  22.985  32.423   8.641
  105POPC   D2A 5584  22.618  32.582   8.376
  105POPC   C3A 5585  22.749  32.587   7.943
  105POPC   C4A 5586  23.138  32.704   7.814
  105POPC   C1B 5587  23.081  31.854   8.645
  105POPC   C2B 5588  22.994  32.062   8.244
  105POPC   C3B 5589  23.030  32.116   7.801
  105POPC   C4B 5590  23.287  31.920   7.432
  106POPC   NC3 5591  14.404  23.808   9.358
  106POPC   PO4 5592  14.656  23.121   9.384
  106POPC   GL1 5593  14.526  23.394   9.053
  106POPC   GL2 5594  14.158  23.464   9.087
  106POPC   C1A 5595  14.679  23.403   8.605
  106POPC   D2A 5596  14.839  23.643   8.222
  106POPC   C3A 5597  14.516  23.771   7.899
  106POPC   C4A 5598  14.234  24.047   7.626
  106POPC   C1B 5599  14.190  23.692   8.710
  106POPC   C2B 5600  14.266  23.547   8.310
  106POPC   C3B 5601  14.099  23.374   7.944
  106POPC   C4B 5602  14.112  23.549   7.535
  107POPC   NC3 5603  24.743  21.588   9.355
  107POPC   PO4 5604  24.079  21.508   9.401
  107POPC   GL1 5605  24.317  21.213   9.134
  107POPC   GL2 5606  24.653  21.048   9.200
  107POPC   C1A 5607  24.415  21.425   8.762
  107POPC   D2A 5608  24.166  21.597   8.433
  107POPC   C3A 5609  24.435  21.543   8.098
  107POPC   C4A 5610  24.661  21.715   7.722
  107POPC   C1B 5611  24.613  20.954   8.741
  107POPC   C2B 5612  24.375  21.076   8.371
  107POPC   C3B 5613  24.566  21.072   7.999
  107POPC   C4B 5614  24.506  21.255   7.652
  108POPC   NC3 5615   7.619  28.202   9.539
  108POPC   PO4 5616   8.241  27.955   9.504
  108POPC   GL1 5617   8.487  27.918   9.119
  108POPC   GL2 5618   8.409  27.594   9.066
  108POPC   C1A 5619   8.578  27.870   8.647
  108POPC   D2A 5620   8.292  27.824   8.252
  108POPC   C3A 5621   8.442  27.519   7.905
  108POPC   C4A 5622   8.545  27.387   7.482
  108POPC   C1B 5623   8.192  27.532   8.676
  108POPC   C2B 5624   8.126  27.337   8.277
  108POPC   C3B 5625   7.937  27.521   7.911
  108POPC   C4B 5626   7.739  27.688   7.553
  109POPC   NC3 5627   2.298  34.169   9.349
  109POPC   PO4 5628   1.867  33.576   9.470
  109POPC   GL1 5629   1.741  33.688   9.072
  109POPC   GL2 5630   1.974  33.935   9.012
  109POPC   C1A 5631   1.566  33.749   8.649
  109POPC   D2A 5632   1.850  33.852   8.320
  109POPC   C3A 5633   1.927  33.641   7.937
  109POPC   C4A 5634   1.688  33.772   7.595
  109POPC   C1B 5635   2.247  34.075   8.639
  109POPC   C2B 5636   2.511  34.033   8.259
  109POPC   C3B 5637   2.436  33.851   7.855
  109POPC   C4B 5638   2.157  33.911   7.519
  110POPC   NC3 5639  27.366   5.268   9.798
  110POPC   PO4 5640  27.850   4.868   9.823
  110POPC   GL1 5641  27.728   5.188   9.404
  110POPC   GL2 5642  27.619   5.395   9.255
  110POPC   C1A 5643  27.644   5.116   8.816
  110POPC   D2A 5644  27.465   4.903   8.404
  110POPC   C3A 5645  27.643   4.903   7.955
  110POPC   C4A 5646  27.655   4.977   7.471
  110POPC   C1B 5647  27.673   5.607   8.888
  110POPC   C2B 5648  27.715   5.576   8.470
  110POPC   C3B 5649  27.523   5.372   8.146
  110POPC   C4B 5650  27.534   5.369   7.737
  111POPC   NC3 5651  22.955  27.036   9.570
  111POPC   PO4 5652  23.038  26.407   9.642
  111POPC   GL1 5653  23.122  26.657   9.214
  111POPC   GL2 5654  22.853  26.910   9.106
  111POPC   C1A 5655  23.274  26.829   8.765
  111POPC   D2A 5656  23.377  26.843   8.298
  111POPC   C3A 5657  23.054  26.886   7.957
  111POPC   C4A 5658  23.114  26.902   7.503
  111POPC   C1B 5659  22.808  26.617   8.783
  111POPC   C2B 5660  22.916  26.587   8.360
  111POPC   C3B 5661  22.681  26.508   7.967
  111POPC   C4B 5662  22.775  26.480   7.523
  112POPC   NC3 5663  37.129  41.605   9.352
  112POPC   PO4 5664  37.716  41.739   9.421
  112POPC   GL1 5665  37.714  41.513   9.081
  112POPC   GL2 5666  37.408  41.615   8.908
  112POPC   C1A 5667  38.035  41.408   8.788
  112POPC   D2A 5668  38.216  41.582   8.426
  112POPC   C3A 5669  38.071  41.301   8.113
  112POPC   C4A 5670  37.816  41.415   7.762
  112POPC   C1B 5671  37.553  41.181   8.728
  112POPC   C2B 5672  37.604  40.961   8.322
  112POPC   C3B 5673  37.305  41.148   8.046
  112POPC   C4B 5674  37.307  41.355   7.674
  113POPC   NC3 5675  13.237  29.822   9.427
  113POPC   PO4 5676  12.581  30.030   9.533
  113POPC   GL1 5677  12.802  29.933   9.144
  113POPC   GL2 5678  12.633  29.629   8.978
  113POPC   C1A 5679  12.886  30.139   8.742
  113POPC   D2A 5680  12.910  30.365   8.342
  113POPC   C3A 5681  12.749  30.087   8.045
  113POPC   C4A 5682  12.590  29.720   7.800
  113POPC   C1B 5683  12.918  29.640   8.618
  113POPC   C2B 5684  13.001  29.660   8.159
  113POPC   C3B 5685  13.139  29.797   7.748
  113POPC   C4B 5686  13.313  29.917   7.328
  114POPC   NC3 5687  20.513  34.704   9.342
  114POPC   PO4 5688  20.681  35.382   9.461
  114POPC   GL1 5689  20.587  35.184   9.104
  114POPC   GL2 5690  20.833  34.946   9.040
  114POPC   C1A 5691  20.544  35.346   8.698
  114POPC   D2A 5692  20.316  35.519   8.352
  114POPC   C3A 5693  20.423  35.257   8.027
  114POPC   C4A 5694  20.814  35.429   7.855
  114POPC   C1B 5695  20.717  34.849   8.658
  114POPC   C2B 5696  20.804  35.038   8.291
  114POPC   C3B 5697  20.777  34.930   7.875
  114POPC   C4B 5698  20.383  34.883   7.658
  115POPC   NC3 5699   0.232  23.379   9.487
  115POPC   PO4 5700   0.929  23.276   9.576
  115POPC   GL1 5701   0.754  22.989   9.260
  115POPC   GL2 5702   0.416  23.024   9.186
  115POPC   C1A 5703   0.752  22.853   8.848
  115POPC   D2A 5704   0.759  23.100   8.496
  115POPC   C3A 5705   0.736  22.868   8.113
  115POPC   C4A 5706   0.677  23.113   7.759
  115POPC   C1B 5707   0.212  22.874   8.829
  115POPC   C2B 5708   0.299  22.864   8.412
  115POPC   C3B 5709   0.224  22.704   8.043
  115POPC   C4B 5710   0.169  22.775   7.645
  116POPC   NC3 5711  37.994  20.766   9.610
  116POPC   PO4 5712  37.710  20.158   9.496
  116POPC   GL1 5713  37.718  20.544   9.186
  116POPC   GL2 5714  37.911  20.877   9.131
  116POPC   C1A 5715  37.564  20.679   8.769
  116POPC   D2A 5716  37.546  20.464   8.383
  116POPC   C3A 5717  37.723  20.500   7.984
  116POPC   C4A 5718  37.573  20.720   7.616
  116POPC   C1B 5719  38.067  20.734   8.750
  116POPC   C2B 5720  37.888  20.848   8.349
  116POPC   C3B 5721  37.901  20.971   7.928
  116POPC   C4B 5722  38.108  20.817   7.595
  117POPC   NC3 5723  20.902  30.020   9.595
  117POPC   PO4 5724  21.121  29.501   9.343
  117POPC   GL1 5725  20.851  29.783   9.112
  117POPC   GL2 5726  20.547  29.972   9.214
  117POPC   C1A 5727  20.565  29.765   8.731
  117POPC   D2A 5728  20.382  30.011   8.382
  117POPC   C3A 5729  20.521  29.894   7.960
  117POPC   C4A 5730  20.311  29.778   7.566
  117POPC   C1B 5731  20.491  30.255   8.847
  117POPC   C2B 5732  20.662  30.434   8.443
  117POPC   C3B 5733  20.783  30.345   7.988
  117POPC   C4B 5734  20.683  30.159   7.550
  118POPC   NC3 5735  31.137  31.909   9.440
  118POPC   PO4 5736  31.720  31.538   9.587
  118POPC   GL1 5737  31.397  31.430   9.219
  118POPC   GL2 5738  31.395  31.655   9.061
  118POPC   C1A 5739  31.411  31.242   8.767
  118POPC   D2A 5740  31.364  31.400   8.289
  118POPC   C3A 5741  31.394  31.254   7.821
  118POPC   C4A 5742  31.638  31.117   7.398
  118POPC   C1B 5743  31.628  31.690   8.655
  118POPC   C2B 5744  31.668  31.841   8.228
  118POPC   C3B 5745  31.429  31.779   7.852
  118POPC   C4B 5746  31.260  32.005   7.501
  119POPC   NC3 5747   6.606  41.768   9.568
  119POPC   PO4 5748   7.009  41.329   9.327
  119POPC   GL1 5749   6.664  41.481   9.116
  119POPC   GL2 5750   6.689  41.826   9.071
  119POPC   C1A 5751   6.603  41.451   8.685
  119POPC   D2A 5752   6.808  41.619   8.329
  119POPC   C3A 5753   6.831  41.331   7.997
  119POPC   C4A 5754   6.451  41.090   7.961
  119POPC   C1B 5755   6.758  42.003   8.674
  119POPC   C2B 5756   6.844  42.198   8.250
  119POPC   C3B 5757   6.785  41.913   7.924
  119POPC   C4B 5758   6.389  41.626   8.017
  120POPC   NC3 5759  26.453  19.522   9.393
  120POPC   PO4 5760  25.929  19.958   9.439
  120POPC   GL1 5761  25.756  19.849   9.068
  120POPC   GL2 5762  25.932  19.514   9.010
  120POPC   C1A 5763  25.662  19.758   8.665
  120POPC   D2A 5764  25.789  19.823   8.275
  120POPC   C3A 5765  25.954  19.523   8.057
  120POPC   C4A 5766  25.908  19.807   7.742
  120POPC   C1B 5767  26.187  19.836   8.797
  120POPC   C2B 5768  26.248  20.038   8.395
  120POPC   C3B 5769  26.348  19.908   7.972
  120POPC   C4B 5770  26.336  19.487   7.736
  121POPC   NC3 5771  14.456  26.421   9.496
  121POPC   PO4 5772  14.652  25.696   9.518
  121POPC   GL1 5773  14.418  25.979   9.213
  121POPC   GL2 5774  14.681  26.173   9.136
  121POPC   C1A 5775  14.323  26.093   8.784
  121POPC   D2A 5776  14.499  26.006   8.362
  121POPC   C3A 5777  14.299  26.165   7.961
  121POPC   C4A 5778  14.202  26.265   7.504
  121POPC   C1B 5779  14.844  26.346   8.785
  121POPC   C2B 5780  14.947  26.281   8.395
  121POPC   C3B 5781  14.837  26.185   7.990
  121POPC   C4B 5782  14.670  26.020   7.623
  122POPC   NC3 5783  31.583  13.095   9.494
  122POPC   PO4 5784  31.420  13.799   9.544
  122POPC   GL1 5785  31.547  13.673   9.155
  122POPC   GL2 5786  31.518  13.350   9.083
  122POPC   C1A 5787  31.570  13.867   8.758
  122POPC   D2A 5788  31.499  13.642   8.374
  122POPC   C3A 5789  31.508  13.866   7.976
  122POPC   C4A 5790  31.468  13.901   7.513
  122POPC   C1B 5791  31.328  13.272   8.730
  122POPC   C2B 5792  31.474  13.122   8.369
  122POPC   C3B 5793  31.647  13.282   8.035
  122POPC   C4B 5794  31.402  13.421   7.730
  123POPC   NC3 5795   1.043  30.895   9.685
  123POPC   PO4 5796   1.487  30.478   9.719
  123POPC   GL1 5797   1.311  30.576   9.295
  123POPC   GL2 5798   1.251  30.937   9.203
  123POPC   C1A 5799   1.371  30.535   8.827
  123POPC   D2A 5800   1.128  30.552   8.409
  123POPC   C3A 5801   1.322  30.584   7.994
  123POPC   C4A 5802   1.245  30.983   7.816
  123POPC   C1B 5803   0.984  30.884   8.808
  123POPC   C2B 5804   0.956  31.109   8.380
  123POPC   C3B 5805   0.781  31.087   7.950
  123POPC   C4B 5806   0.876  31.067   7.466
  124POPC   NC3 5807  11.389  17.532   9.651
  124POPC   PO4 5808  10.900  17.323   9.297
  124POPC   GL1 5809  11.292  17.543   9.151
  124POPC   GL2 5810  11.461  17.233   9.239
  124POPC   C1A 5811  11.459  17.807   8.802
  124POPC   D2A 5812  11.269  17.824   8.386
  124POPC   C3A 5813  11.487  17.683   7.997
  124POPC   C4A 5814  11.352  17.465   7.607
  124POPC   C1B 5815  11.340  17.124   8.817
  124POPC   C2B 5816  11.267  17.291   8.410
  124POPC   C3B 5817  11.403  17.167   8.024
  124POPC   C4B 5818  11.787  17.304   7.829
  125POPC   NC3 5819  22.538  15.597   9.524
  125POPC   PO4 5820  22.115  14.988   9.500
  125POPC   GL1 5821  22.201  15.099   9.083
  125POPC   GL2 5822  22.290  15.411   9.108
  125POPC   C1A 5823  22.214  14.982   8.654
  125POPC   D2A 5824  21.855  14.978   8.345
  125POPC   C3A 5825  22.030  15.032   7.944
  125POPC   C4A 5826  22.165  15.102   7.542
  125POPC   C1B 5827  22.390  15.520   8.693
  125POPC   C2B 5828  22.251  15.374   8.295
  125POPC   C3B 5829  22.362  15.451   7.881
  125POPC   C4B 5830  22.156  15.674   7.578
  126POPC   NC3 5831  44.103  13.795   9.542
  126POPC   PO4 5832  43.670  13.257   9.489
  126POPC   GL1 5833  43.675  13.552   9.131
  126POPC   GL2 5834  43.995  13.711   9.071
  126POPC   C1A 5835  43.818  13.467   8.689
  126POPC   D2A 5836  44.062  13.559   8.335
  126POPC   C3A 5837  43.883  13.553   7.903
  126POPC   C4A 5838  43.759  13.853   7.530
  126POPC   C1B 5839  43.990  13.953   8.691
  126POPC   C2B 5840  44.135  14.123   8.287
  126POPC   C3B 5841  44.126  14.043   7.807
  126POPC   C4B 5842  44.239  13.875   7.337
  127POPC   NC3 5843  24.489  40.486   9.419
  127POPC   PO4 5844  24.132  41.129   9.333
  127POPC   GL1 5845  24.264  40.976   8.947
  127POPC   GL2 5846  24.326  40.626   8.974
  127POPC   C1A 5847  24.648  40.899   8.702
  127POPC   D2A 5848  24.766  40.816   8.311
  127POPC   C3A 5849  24.521  41.055   8.080
  127POPC   C4A 5850  24.599  41.072   7.651
  127POPC   C1B 5851  24.509  40.395   8.677
  127POPC   C2B 5852  24.439  40.417   8.258
  127POPC   C3B 5853  24.520  40.589   7.881
  127POPC   C4B 5854  24.333  40.619   7.504
  128POPC   NC3 5855   1.456   1.495   9.506
  128POPC   PO4 5856   0.924   1.065   9.441
  128POPC   GL1 5857   1.128   1.051   9.059
  128POPC   GL2 5858   1.442   1.180   9.108
  128POPC   C1A 5859   1.224   1.095   8.643
  128POPC   D2A 5860   1.392   0.977   8.286
  128POPC   C3A 5861   1.251   1.196   7.952
  128POPC   C4A 5862   1.063   1.015   7.602
  128POPC   C1B 5863   1.495   1.500   8.800
  128POPC   C2B 5864   1.647   1.462   8.383
  128POPC   C3B 5865   1.511   1.637   7.994
  128POPC   C4B 5866   1.352   1.529   7.581
  129POPC   NC3 5867  28.708  30.314   9.503
  129POPC   PO4 5868  28.384  30.899   9.670
  129POPC   GL1 5869  28.355  30.895   9.224
  129POPC   GL2 5870  28.176  30.575   9.177
  129POPC   C1A 5871  28.473  30.739   8.784
  129POPC   D2A 5872  28.668  30.644   8.383
  129POPC   C3A 5873  28.372  30.651   8.053
  129POPC   C4A 5874  28.245  30.765   7.645
  129POPC   C1B 5875  27.999  30.888   8.842
  129POPC   C2B 5876  27.903  30.731   8.440
  129POPC   C3B 5877  27.919  30.891   8.048
  129POPC   C4B 5878  27.799  30.997   7.653
  130POPC   NC3 5879   1.022  29.259   9.392
  130POPC   PO4 5880   1.630  28.948   9.342
  130POPC   GL1 5881   1.452  29.214   9.092
  130POPC   GL2 5882   1.179  28.937   9.002
  130POPC   C1A 5883   1.321  29.315   8.710
  130POPC   D2A 5884   1.205  29.084   8.393
  130POPC   C3A 5885   1.330  29.230   8.030
  130POPC   C4A 5886   1.158  29.277   7.627
  130POPC   C1B 5887   1.325  28.650   8.650
  130POPC   C2B 5888   1.524  28.735   8.209
  130POPC   C3B 5889   1.356  28.795   7.773
  130POPC   C4B 5890   1.419  28.838   7.306
  131POPC   NC3 5891   9.524  22.026   9.448
  131POPC   PO4 5892  10.132  22.071   9.481
  131POPC   GL1 5893   9.911  21.991   9.081
  131POPC   GL2 5894   9.594  21.793   9.002
  131POPC   C1A 5895   9.844  22.110   8.644
  131POPC   D2A 5896   9.771  21.965   8.231
  131POPC   C3A 5897   9.969  22.090   7.891
  131POPC   C4A 5898   9.829  22.453   7.701
  131POPC   C1B 5899   9.773  21.606   8.634
  131POPC   C2B 5900   9.517  21.536   8.272
  131POPC   C3B 5901   9.482  21.749   7.882
  131POPC   C4B 5902   9.546  22.052   7.578
  132POPC   NC3 5903  26.357  14.099   9.485
  132POPC   PO4 5904  25.952  14.634   9.235
  132POPC   GL1 5905  26.148  14.302   8.989
  132POPC   GL2 5906  26.503  14.261   9.016
  132POPC   C1A 5907  26.156  14.338   8.540
  132POPC   D2A 5908  25.903  14.674   8.371
  132POPC   C3A 5909  25.708  14.581   8.002
  132POPC   C4A 5910  25.973  14.470   7.701
  132POPC   C1B 5911  26.451  13.944   8.702
  132POPC   C2B 5912  26.541  14.032   8.289
  132POPC   C3B 5913  26.290  14.251   8.031
  132POPC   C4B 5914  26.255  14.054   7.658
  133POPC   NC3 5915  38.814   3.871   9.569
  133POPC   PO4 5916  38.335   3.342   9.436
  133POPC   GL1 5917  38.448   3.685   9.180
  133POPC   GL2 5918  38.788   3.622   9.125
  133POPC   C1A 5919  38.370   3.506   8.786
  133POPC   D2A 5920  38.319   3.221   8.476
  133POPC   C3A 5921  38.188   3.414   8.105
  133POPC   C4A 5922  38.274   3.350   7.696
  133POPC   C1B 5923  38.862   3.556   8.701
  133POPC   C2B 5924  38.634   3.639   8.324
  133POPC   C3B 5925  38.703   3.595   7.888
  133POPC   C4B 5926  38.763   3.868   7.540
  134POPC   NC3 5927  12.874  22.543   9.827
  134POPC   PO4 5928  13.053  23.137   9.555
  134POPC   GL1 5929  12.836  22.890   9.244
  134POPC   GL2 5930  13.046  22.946   9.045
  134POPC   C1A 5931  12.604  22.961   8.829
  134POPC   D2A 5932  12.770  23.165   8.475
  134POPC   C3A 5933  12.800  22.934   8.088
  134POPC   C4A 5934  12.627  22.931   7.680
  134POPC   C1B 5935  13.200  23.368   8.882
  134POPC   C2B 5936  13.310  23.398   8.474
  134POPC   C3B 5937  13.079  23.374   8.126
  134POPC   C4B 5938  13.166  23.133   7.757
  135POPC   NC3 5939  34.440  41.159   9.417
  135POPC   PO4 5940  34.627  40.513   9.306
  135POPC   GL1 5941  34.688  40.897   9.066
  135POPC   GL2 5942  34.341  40.979   8.938
  135POPC   C1A 5943  34.893  40.962   8.705
  135POPC   D2A 5944  34.700  40.676   8.443
  135POPC   C3A 5945  34.579  40.904   8.103
  135POPC   C4A 5946  34.747  41.183   7.783
  135POPC   C1B 5947  34.236  40.587   8.689
  135POPC   C2B 5948  34.225  40.504   8.222
  135POPC   C3B 5949  34.162  40.769   7.846
  135POPC   C4B 5950  34.097  40.690   7.432
  136POPC   NC3 5951  24.953  36.823   9.323
  136POPC   PO4 5952  24.267  36.796   9.407
  136POPC   GL1 5953  24.506  36.942   9.071
  136POPC   GL2 5954  24.677  37.263   9.156
  136POPC   C1A 5955  24.453  36.948   8.623
  136POPC   D2A 5956  24.183  36.871   8.269
  136POPC   C3A 5957  24.410  36.717   7.895
  136POPC   C4A 5958  24.762  36.749   7.590
  136POPC   C1B 5959  24.321  37.381   8.865
  136POPC   C2B 5960  24.183  37.405   8.417
  136POPC   C3B 5961  24.179  37.291   7.976
  136POPC   C4B 5962  24.456  37.160   7.654
  137POPC   NC3 5963  32.690  22.258   9.426
  137POPC   PO4 5964  33.299  22.143   9.698
  137POPC   GL1 5965  33.190  22.270   9.287
  137POPC   GL2 5966  33.047  21.961   9.200
  137POPC   C1A 5967  33.124  22.319   8.820
  137POPC   D2A 5968  33.200  22.436   8.357
  137POPC   C3A 5969  32.925  22.169   8.107
  137POPC   C4A 5970  32.965  22.004   7.709
  137POPC   C1B 5971  33.185  21.789   8.806
  137POPC   C2B 5972  33.352  21.920   8.402
  137POPC   C3B 5973  33.410  22.030   7.983
  137POPC   C4B 5974  33.430  21.724   7.664
  138POPC   NC3 5975   4.437  31.696   9.472
  138POPC   PO4 5976   4.110  31.119   9.358
  138POPC   GL1 5977   4.414  31.343   9.116
  138POPC   GL2 5978   4.182  31.607   9.055
  138POPC   C1A 5979   4.709  31.374   8.765
  138POPC   D2A 5980   4.507  31.464   8.365
  138POPC   C3A 5981   4.637  31.584   7.948
  138POPC   C4A 5982   4.476  31.431   7.518
  138POPC   C1B 5983   4.053  31.481   8.671
  138POPC   C2B 5984   4.028  31.607   8.256
  138POPC   C3B 5985   4.110  31.563   7.854
  138POPC   C4B 5986   4.049  31.722   7.454
  139POPC   NC3 5987  11.546   2.981   9.555
  139POPC   PO4 5988  10.856   3.082   9.441
  139POPC   GL1 5989  11.164   3.024   9.132
  139POPC   GL2 5990  11.323   2.724   9.165
  139POPC   C1A 5991  11.170   2.842   8.698
  139POPC   D2A 5992  11.084   2.672   8.294
  139POPC   C3A 5993  11.405   2.894   8.061
  139POPC   C4A 5994  11.437   2.982   7.607
  139POPC   C1B 5995  11.600   2.619   8.818
  139POPC   C2B 5996  11.553   2.492   8.386
  139POPC   C3B 5997  11.804   2.488   8.017
  139POPC   C4B 5998  11.785   2.590   7.583
  140POPC   NC3 5999  32.403  31.115   9.565
  140POPC   PO4 6000  32.402  30.476   9.542
  140POPC   GL1 6001  32.082  30.655   9.265
  140POPC   GL2 6002  32.238  30.966   9.105
  140POPC   C1A 6003  31.992  30.639   8.826
  140POPC   D2A 6004  32.199  30.801   8.465
  140POPC   C3A 6005  32.038  30.698   8.076
  140POPC   C4A 6006  31.945  30.969   7.763
  140POPC   C1B 6007  32.503  30.646   8.853
  140POPC   C2B 6008  32.683  30.546   8.436
  140POPC   C3B 6009  32.554  30.711   8.030
  140POPC   C4B 6010  32.423  30.871   7.607
  141POPC   NC3 6011  30.526  23.117   9.483
  141POPC   PO4 6012  31.180  22.984   9.590
  141POPC   GL1 6013  30.965  23.055   9.214
  141POPC   GL2 6014  30.876  22.721   9.073
  141POPC   C1A 6015  30.787  23.166   8.819
  141POPC   D2A 6016  30.818  22.839   8.505
  141POPC   C3A 6017  30.797  23.026   8.107
  141POPC   C4A 6018  30.954  23.155   7.712
  141POPC   C1B 6019  30.442  22.772   8.884
  141POPC   C2B 6020  30.263  22.615   8.494
  141POPC   C3B 6021  30.467  22.604   8.115
  141POPC   C4B 6022  30.502  22.523   7.701
  142POPC   NC3 6023  12.383  15.890   9.606
  142POPC   PO4 6024  13.042  15.730   9.707
  142POPC   GL1 6025  13.002  15.875   9.288
  142POPC   GL2 6026  12.722  15.722   9.185
  142POPC   C1A 6027  12.871  16.152   8.916
  142POPC   D2A 6028  13.022  16.249   8.495
  142POPC   C3A 6029  12.838  16.160   8.109
  142POPC   C4A 6030  12.780  16.126   7.681
  142POPC   C1B 6031  12.923  15.681   8.762
  142POPC   C2B 6032  12.781  15.711   8.352
  142POPC   C3B 6033  12.664  15.697   7.933
  142POPC   C4B 6034  12.812  15.671   7.508
  143POPC   NC3 6035  23.268  44.450   9.606
  143POPC   PO4 6036  23.440   0.022   9.439
  143POPC   GL1 6037  23.149  44.771   9.141
  143POPC   GL2 6038  22.767  44.813   9.137
  143POPC   C1A 6039  23.066  44.878   8.687
  143POPC   D2A 6040  23.216   0.035   8.277
  143POPC   C3A 6041  23.187  44.843   7.834
  143POPC   C4A 6042  22.926  44.958   7.467
  143POPC   C1B 6043  22.819  44.462   8.827
  143POPC   C2B 6044  22.901  44.403   8.375
  143POPC   C3B 6045  22.773  44.575   7.982
  143POPC   C4B 6046  22.904  44.460   7.591
  144POPC   NC3 6047  16.154  12.548   9.448
  144POPC   PO4 6048  15.731  13.086   9.370
  144POPC   GL1 6049  15.922  12.828   9.112
  144POPC   GL2 6050  16.283  12.921   9.102
  144POPC   C1A 6051  15.916  12.676   8.732
  144POPC   D2A 6052  15.724  12.746   8.388
  144POPC   C3A 6053  15.919  12.751   8.074
  144POPC   C4A 6054  16.050  12.777   7.686
  144POPC   C1B 6055  16.093  13.176   8.797
  144POPC   C2B 6056  15.989  13.188   8.379
  144POPC   C3B 6057  16.174  13.196   7.977
  144POPC   C4B 6058  15.986  13.252   7.563
  145POPC   NC3 6059  33.275  33.465   9.555
  145POPC   PO4 6060  33.116  34.176   9.605
  145POPC   GL1 6061  33.227  34.050   9.185
  145POPC   GL2 6062  33.172  33.703   9.044
  145POPC   C1A 6063  33.125  34.167   8.772
  145POPC   D2A 6064  33.038  34.334   8.385
  145POPC   C3A 6065  32.995  34.033   8.076
  145POPC   C4A 6066  32.948  33.814   7.691
  145POPC   C1B 6067  33.278  33.488   8.616
  145POPC   C2B 6068  33.223  33.578   8.130
  145POPC   C3B 6069  33.377  33.569   7.682
  145POPC   C4B 6070  33.270  33.400   7.220
  146POPC   NC3 6071   2.590  41.546   9.543
  146POPC   PO4 6072   3.007  42.034   9.459
  146POPC   GL1 6073   2.708  41.957   9.115
  146POPC   GL2 6074   2.416  41.752   9.120
  146POPC   C1A 6075   2.610  41.815   8.679
  146POPC   D2A 6076   2.730  41.699   8.311
  146POPC   C3A 6077   2.484  41.744   8.026
  146POPC   C4A 6078   2.835  41.686   7.770
  146POPC   C1B 6079   2.637  41.375   8.907
  146POPC   C2B 6080   2.597  41.248   8.463
  146POPC   C3B 6081   2.672  41.259   7.983
  146POPC   C4B 6082   2.597  41.341   7.502
  147POPC   NC3 6083   6.054  38.677   9.467
  147POPC   PO4 6084   5.797  38.043   9.392
  147POPC   GL1 6085   5.958  38.297   9.067
  147POPC   GL2 6086   5.764  38.596   9.061
  147POPC   C1A 6087   5.765  38.319   8.643
  147POPC   D2A 6088   5.860  38.511   8.276
  147POPC   C3A 6089   5.949  38.196   8.018
  147POPC   C4A 6090   6.192  38.025   7.696
  147POPC   C1B 6091   5.811  38.854   8.683
  147POPC   C2B 6092   5.766  39.096   8.358
  147POPC   C3B 6093   5.570  38.972   8.017
  147POPC   C4B 6094   5.723  38.750   7.714
  148POPC   NC3 6095  38.340  36.457   9.455
  148POPC   PO4 6096  38.417  35.802   9.419
  148POPC   GL1 6097  38.535  36.114   9.133
  148POPC   GL2 6098  38.797  35.927   9.060
  148POPC   C1A 6099  38.482  36.293   8.708
  148POPC   D2A 6100  38.562  36.170   8.280
  148POPC   C3A 6101  38.398  36.307   7.906
  148POPC   C4A 6102  38.519  36.247   7.447
  148POPC   C1B 6103  38.510  35.724   8.773
  148POPC   C2B 6104  38.412  35.673   8.374
  148POPC   C3B 6105  38.644  35.738   8.012
  148POPC   C4B 6106  38.584  35.788   7.610
  149POPC   NC3 6107  37.254  11.598   9.269
  149POPC   PO4 6108  36.798  11.265   9.651
  149POPC   GL1 6109  36.778  11.294   9.211
  149POPC   GL2 6110  36.647  11.592   9.203
  149POPC   C1A 6111  36.969  11.210   8.790
  149POPC   D2A 6112  37.244  11.241   8.426
  149POPC   C3A 6113  37.009  11.247   8.052
  149POPC   C4A 6114  37.170  11.111   7.668
  149POPC   C1B 6115  36.699  11.670   8.784
  149POPC   C2B 6116  36.929  11.673   8.406
  149POPC   C3B 6117  37.015  11.787   7.981
  149POPC   C4B 6118  36.859  11.546   7.643
  150POPC   NC3 6119   8.113  18.833   9.528
  150POPC   PO4 6120   8.082  19.469   9.291
  150POPC   GL1 6121   8.319  19.327   9.050
  150POPC   GL2 6122   8.267  18.992   9.063
  150POPC   C1A 6123   8.218  19.309   8.636
  150POPC   D2A 6124   8.100  19.114   8.281
  150POPC   C3A 6125   8.105  19.440   8.005
  150POPC   C4A 6126   8.444  19.498   7.742
  150POPC   C1B 6127   8.312  18.789   8.664
  150POPC   C2B 6128   8.007  18.614   8.365
  150POPC   C3B 6129   8.092  18.728   7.951
  150POPC   C4B 6130   8.260  19.021   7.705
  151POPC   NC3 6131  41.784  40.644   9.681
  151POPC   PO4 6132  42.438  40.856   9.645
  151POPC   GL1 6133  42.390  40.829   9.168
  151POPC   GL2 6134  42.021  40.806   9.139
  151POPC   C1A 6135  42.337  40.707   8.724
  151POPC   D2A 6136  42.571  40.806   8.349
  151POPC   C3A 6137  42.362  40.626   8.001
  151POPC   C4A 6138  42.354  40.354   7.622
  151POPC   C1B 6139  41.981  41.073   8.784
  151POPC   C2B 6140  42.057  40.964   8.342
  151POPC   C3B 6141  41.946  41.097   7.921
  151POPC   C4B 6142  42.050  40.775   7.637
  152POPC   NC3 6143  28.044  15.253   9.489
  152POPC   PO4 6144  27.445  15.033   9.508
  152POPC   GL1 6145  27.634  15.273   9.172
  152POPC   GL2 6146  27.900  15.084   9.035
  152POPC   C1A 6147  27.537  15.275   8.725
  152POPC   D2A 6148  27.478  14.998   8.343
  152POPC   C3A 6149  27.617  15.248   7.987
  152POPC   C4A 6150  27.684  15.589   7.711
  152POPC   C1B 6151  27.839  14.838   8.679
  152POPC   C2B 6152  27.987  14.843   8.265
  152POPC   C3B 6153  27.756  14.760   7.927
  152POPC   C4B 6154  27.842  15.012   7.580
  153POPC   NC3 6155  21.943  33.796   9.624
  153POPC   PO4 6156  22.496  33.436   9.717
  153POPC   GL1 6157  22.371  33.682   9.269
  153POPC   GL2 6158  22.049  33.905   9.144
  153POPC   C1A 6159  22.325  33.680   8.768
  153POPC   D2A 6160  22.236  33.479   8.349
  153POPC   C3A 6161  21.992  33.696   8.026
  153POPC   C4A 6162  22.220  33.676   7.654
  153POPC   C1B 6163  22.084  34.206   8.800
  153POPC   C2B 6164  22.197  34.112   8.391
  153POPC   C3B 6165  22.375  34.031   7.998
  153POPC   C4B 6166  22.157  34.222   7.670
  154POPC   NC3 6167  21.691  40.871   9.847
  154POPC   PO4 6168  22.345  40.782   9.526
  154POPC   GL1 6169  22.250  40.882   9.127
  154POPC   GL2 6170  21.930  40.701   9.068
  154POPC   C1A 6171  22.363  40.748   8.733
  154POPC   D2A 6172  22.269  40.713   8.317
  154POPC   C3A 6173  22.034  41.022   8.110
  154POPC   C4A 6174  22.188  40.885   7.726
  154POPC   C1B 6175  21.874  40.902   8.663
  154POPC   C2B 6176  21.750  40.652   8.329
  154POPC   C3B 6177  21.822  40.564   7.898
  154POPC   C4B 6178  21.808  40.591   7.419
  155POPC   NC3 6179  23.809  36.694   9.439
  155POPC   PO4 6180  23.730  37.225   9.782
  155POPC   GL1 6181  23.897  37.148   9.256
  155POPC   GL2 6182  23.621  36.905   9.040
  155POPC   C1A 6183  23.967  37.052   8.750
  155POPC   D2A 6184  23.692  36.851   8.450
  155POPC   C3A 6185  23.708  37.033   8.038
  155POPC   C4A 6186  23.961  36.904   7.706
  155POPC   C1B 6187  23.837  36.531   8.825
  155POPC   C2B 6188  23.971  36.378   8.448
  155POPC   C3B 6189  23.867  36.519   8.071
  155POPC   C4B 6190  23.587  36.525   7.782
  156POPC   NC3 6191  43.349  12.829   9.504
  156POPC   PO4 6192  42.706  13.028   9.594
  156POPC   GL1 6193  42.978  12.952   9.191
  156POPC   GL2 6194  43.239  13.232   9.167
  156POPC   C1A 6195  43.198  12.682   8.828
  156POPC   D2A 6196  43.483  12.647   8.420
  156POPC   C3A 6197  43.373  12.855   7.995
  156POPC   C4A 6198  42.985  12.716   7.756
  156POPC   C1B 6199  43.038  13.195   8.768
  156POPC   C2B 6200  43.086  12.985   8.413
  156POPC   C3B 6201  42.887  13.106   8.077
  156POPC   C4B 6202  43.005  13.240   7.696
  157POPC   NC3 6203  40.382  34.487   9.454
  157POPC   PO4 6204  41.061  34.495   9.467
  157POPC   GL1 6205  40.891  34.652   9.076
  157POPC   GL2 6206  40.530  34.567   8.979
  157POPC   C1A 6207  40.868  34.678   8.628
  157POPC   D2A 6208  40.776  34.466   8.263
  157POPC   C3A 6209  40.706  34.754   7.936
  157POPC   C4A 6210  40.744  34.656   7.510
  157POPC   C1B 6211  40.402  34.348   8.588
  157POPC   C2B 6212  40.408  34.096   8.215
  157POPC   C3B 6213  40.598  34.259   7.828
  157POPC   C4B 6214  40.436  34.264   7.421
  158POPC   NC3 6215  27.266  10.354   9.862
  158POPC   PO4 6216  27.735   9.904   9.508
  158POPC   GL1 6217  27.679   9.738   9.128
  158POPC   GL2 6218  27.366   9.586   9.272
  158POPC   C1A 6219  27.745   9.622   8.693
  158POPC   D2A 6220  27.542   9.826   8.348
  158POPC   C3A 6221  27.667   9.789   7.941
  158POPC   C4A 6222  27.494   9.806   7.547
  158POPC   C1B 6223  27.251   9.687   8.829
  158POPC   C2B 6224  27.091   9.633   8.408
  158POPC   C3B 6225  27.304   9.431   8.059
  158POPC   C4B 6226  27.038   9.439   7.717
  159POPC   NC3 6227  30.523  43.877   9.570
  159POPC   PO4 6228  30.511  44.533   9.590
  159POPC   GL1 6229  30.590  44.254   9.234
  159POPC   GL2 6230  30.923  44.051   9.221
  159POPC   C1A 6231  30.670  44.153   8.805
  159POPC   D2A 6232  30.611  43.857   8.473
  159POPC   C3A 6233  30.702  43.961   8.059
  159POPC   C4A 6234  30.514  44.181   7.698
  159POPC   C1B 6235  31.009  43.781   8.820
  159POPC   C2B 6236  31.097  43.691   8.383
  159POPC   C3B 6237  31.058  43.606   7.943
  159POPC   C4B 6238  30.971  43.982   7.628
  160POPC   NC3 6239  27.171  25.893   9.549
  160POPC   PO4 6240  27.784  26.104   9.763
  160POPC   GL1 6241  27.615  26.054   9.322
  160POPC   GL2 6242  27.927  25.866   9.289
  160POPC   C1A 6243  27.444  26.146   8.866
  160POPC   D2A 6244  27.600  26.378   8.498
  160POPC   C3A 6245  27.599  26.108   8.174
  160POPC   C4A 6246  27.649  26.104   7.752
  160POPC   C1B 6247  27.808  25.785   8.873
  160POPC   C2B 6248  27.856  25.587   8.497
  160POPC   C3B 6249  27.969  25.772   8.119
  160POPC   C4B 6250  27.830  25.630   7.736
  161POPC   NC3 6251  25.095  37.922   9.570
  161POPC   PO4 6252  25.114  37.235   9.525
  161POPC   GL1 6253  25.177  37.408   9.114
  161POPC   GL2 6254  25.338  37.699   9.137
  161POPC   C1A 6255  25.261  37.497   8.661
  161POPC   D2A 6256  25.046  37.761   8.359
  161POPC   C3A 6257  25.134  37.659   7.972
  161POPC   C4A 6258  25.020  37.967   7.636
  161POPC   C1B 6259  25.619  37.835   8.785
  161POPC   C2B 6260  25.565  37.763   8.318
  161POPC   C3B 6261  25.679  37.832   7.888
  161POPC   C4B 6262  25.416  37.648   7.567
  162POPC   NC3 6263  12.512   8.038   9.504
  162POPC   PO4 6264  11.832   7.981   9.524
  162POPC   GL1 6265  11.876   8.292   9.171
  162POPC   GL2 6266  12.240   8.400   9.070
  162POPC   C1A 6267  11.912   8.200   8.731
  162POPC   D2A 6268  12.171   8.369   8.375
  162POPC   C3A 6269  11.924   8.515   8.054
  162POPC   C4A 6270  11.724   8.183   7.845
  162POPC   C1B 6271  12.406   8.678   8.739
  162POPC   C2B 6272  12.614   8.639   8.331
  162POPC   C3B 6273  12.521   8.444   7.959
  162POPC   C4B 6274  12.230   8.111   7.871
  163POPC   NC3 6275   0.798  34.581   9.475
  163POPC   PO4 6276   1.445  34.319   9.455
  163POPC   GL1 6277   1.280  34.463   9.080
  163POPC   GL2 6278   1.077  34.727   9.049
  163POPC   C1A 6279   1.377  34.561   8.668
  163POPC   D2A 6280   1.260  34.736   8.279
  163POPC   C3A 6281   1.497  34.562   7.940
  163POPC   C4A 6282   1.380  34.699   7.549
  163POPC   C1B 6283   0.943  34.852   8.677
  163POPC   C2B 6284   0.744  34.909   8.266
  163POPC   C3B 6285   0.950  34.872   7.881
  163POPC   C4B 6286   1.006  34.439   7.772
  164POPC   NC3 6287  31.103  20.752   9.342
  164POPC   PO4 6288  31.628  20.555   9.664
  164POPC   GL1 6289  31.587  20.520   9.168
  164POPC   GL2 6290  31.379  20.764   8.922
  164POPC   C1A 6291  31.750  20.505   8.717
  164POPC   D2A 6292  31.519  20.752   8.391
  164POPC   C3A 6293  31.574  20.661   7.963
  164POPC   C4A 6294  31.884  20.840   7.712
  164POPC   C1B 6295  31.221  20.420   8.643
  164POPC   C2B 6296  31.212  20.303   8.199
  164POPC   C3B 6297  31.029  20.528   7.837
  164POPC   C4B 6298  31.006  20.513   7.368
  165POPC   NC3 6299   9.066  41.427   9.401
  165POPC   PO4 6300   8.850  42.090   9.407
  165POPC   GL1 6301   9.177  41.854   9.110
  165POPC   GL2 6302   9.094  41.492   8.918
  165POPC   C1A 6303   9.195  41.896   8.668
  165POPC   D2A 6304   8.860  41.685   8.450
  165POPC   C3A 6305   9.000  41.619   8.059
  165POPC   C4A 6306   8.849  41.625   7.681
  165POPC   C1B 6307   8.747  41.243   8.749
  165POPC   C2B 6308   8.543  41.224   8.352
  165POPC   C3B 6309   8.728  41.189   7.963
  165POPC   C4B 6310   9.152  41.217   7.751
  166POPC   NC3 6311  21.130   2.253   9.343
  166POPC   PO4 6312  21.556   1.784   9.497
  166POPC   GL1 6313  21.433   1.929   9.113
  166POPC   GL2 6314  21.622   2.236   9.086
  166POPC   C1A 6315  21.072   1.887   8.806
  166POPC   D2A 6316  20.999   1.621   8.478
  166POPC   C3A 6317  21.082   1.734   8.081
  166POPC   C4A 6318  21.239   1.971   7.748
  166POPC   C1B 6319  21.466   2.172   8.660
  166POPC   C2B 6320  21.341   2.153   8.232
  166POPC   C3B 6321  21.635   2.227   7.888
  166POPC   C4B 6322  21.770   2.096   7.488
  167POPC   NC3 6323  28.794  40.927   9.586
  167POPC   PO4 6324  29.258  40.486   9.562
  167POPC   GL1 6325  29.045  40.596   9.205
  167POPC   GL2 6326  29.394  40.723   9.136
  167POPC   C1A 6327  29.048  40.673   8.760
  167POPC   D2A 6328  28.959  40.684   8.337
  167POPC   C3A 6329  29.102  41.009   8.041
  167POPC   C4A 6330  29.148  40.953   7.583
  167POPC   C1B 6331  29.527  40.492   8.790
  167POPC   C2B 6332  29.491  40.646   8.365
  167POPC   C3B 6333  29.479  40.690   7.929
  167POPC   C4B 6334  29.431  40.500   7.507
  168POPC   NC3 6335  24.132  12.815   9.719
  168POPC   PO4 6336  23.789  12.552   9.523
  168POPC   GL1 6337  23.825  12.746   9.098
  168POPC   GL2 6338  23.592  13.020   9.054
  168POPC   C1A 6339  23.684  12.682   8.662
  168POPC   D2A 6340  23.408  12.870   8.369
  168POPC   C3A 6341  23.466  12.697   7.942
  168POPC   C4A 6342  23.855  12.594   7.670
  168POPC   C1B 6343  23.500  13.322   8.720
  168POPC   C2B 6344  23.279  13.376   8.338
  168POPC   C3B 6345  23.414  13.199   7.955
  168POPC   C4B 6346  23.793  13.115   7.744
  169POPC   NC3 6347  35.269   5.903   9.501
  169POPC   PO4 6348  35.176   5.245   9.314
  169POPC   GL1 6349  35.358   5.620   9.080
  169POPC   GL2 6350  35.075   5.874   9.030
  169POPC   C1A 6351  35.466   5.931   8.739
  169POPC   D2A 6352  35.377   5.810   8.328
  169POPC   C3A 6353  35.690   5.807   8.019
  169POPC   C4A 6354  35.634   6.195   7.838
  169POPC   C1B 6355  34.846   6.052   8.676
  169POPC   C2B 6356  34.781   6.192   8.233
  169POPC   C3B 6357  35.029   5.976   7.903
  169POPC   C4B 6358  35.214   5.555   7.919
  170POPC   NC3 6359   0.822  20.429   9.445
  170POPC   PO4 6360   1.356  20.203   9.701
  170POPC   GL1 6361   1.276  20.415   9.264
  170POPC   GL2 6362   1.089  20.094   9.153
  170POPC   C1A 6363   1.424  20.631   8.880
  170POPC   D2A 6364   1.520  20.401   8.524
  170POPC   C3A 6365   1.432  20.598   8.139
  170POPC   C4A 6366   1.387  20.408   7.770
  170POPC   C1B 6367   0.991  20.348   8.800
  170POPC   C2B 6368   0.995  20.576   8.415
  170POPC   C3B 6369   0.935  20.613   7.964
  170POPC   C4B 6370   0.928  20.992   7.752
  171POPC   NC3 6371  27.438   7.582   9.462
  171POPC   PO4 6372  28.028   7.205   9.494
  171POPC   GL1 6373  27.777   7.314   9.164
  171POPC   GL2 6374  27.876   7.670   9.158
  171POPC   C1A 6375  27.640   7.091   8.784
  171POPC   D2A 6376  27.760   7.032   8.347
  171POPC   C3A 6377  27.648   7.346   8.063
  171POPC   C4A 6378  27.821   7.244   7.687
  171POPC   C1B 6379  27.833   7.972   8.804
  171POPC   C2B 6380  27.765   7.741   8.394
  171POPC   C3B 6381  27.901   7.811   7.947
  171POPC   C4B 6382  27.701   7.720   7.555
  172POPC   NC3 6383  18.499   2.116   9.472
  172POPC   PO4 6384  17.915   1.635   9.495
  172POPC   GL1 6385  18.094   1.952   9.176
  172POPC   GL2 6386  18.411   1.904   9.030
  172POPC   C1A 6387  18.090   2.182   8.772
  172POPC   D2A 6388  18.285   1.925   8.476
  172POPC   C3A 6389  18.191   2.127   8.110
  172POPC   C4A 6390  18.212   2.128   7.673
  172POPC   C1B 6391  18.701   1.723   8.735
  172POPC   C2B 6392  18.617   1.500   8.367
  172POPC   C3B 6393  18.409   1.651   8.007
  172POPC   C4B 6394  18.605   1.803   7.672
  173POPC   NC3 6395  41.562  30.154   9.528
  173POPC   PO4 6396  41.874  29.541   9.460
  173POPC   GL1 6397  41.707  29.734   9.072
  173POPC   GL2 6398  41.408  29.985   9.080
  173POPC   C1A 6399  41.413  29.646   8.706
  173POPC   D2A 6400  41.386  29.940   8.374
  173POPC   C3A 6401  41.705  29.965   8.004
  173POPC   C4A 6402  41.854  30.038   7.541
  173POPC   C1B 6403  41.727  30.137   8.757
  173POPC   C2B 6404  41.685  30.399   8.376
  173POPC   C3B 6405  41.343  30.340   8.072
  173POPC   C4B 6406  41.384  30.146   7.653
  174POPC   NC3 6407  16.432  44.387   9.344
  174POPC   PO4 6408  17.073  44.410   9.510
  174POPC   GL1 6409  16.910  44.392   9.101
  174POPC   GL2 6410  16.764  44.733   9.099
  174POPC   C1A 6411  16.834  44.489   8.645
  174POPC   D2A 6412  16.551  44.427   8.310
  174POPC   C3A 6413  16.745  44.119   8.098
  174POPC   C4A 6414  16.995  44.173   7.773
  174POPC   C1B 6415  16.901  44.990   8.731
  174POPC   C2B 6416  16.853  44.896   8.267
  174POPC   C3B 6417  16.732  44.650   7.859
  174POPC   C4B 6418  16.562  44.638   7.416
  175POPC   NC3 6419   7.481  41.358   9.311
  175POPC   PO4 6420   7.100  41.857   9.547
  175POPC   GL1 6421   7.219  41.797   9.140
  175POPC   GL2 6422   7.552  41.788   9.050
  175POPC   C1A 6423   7.089  41.629   8.765
  175POPC   D2A 6424   7.150  41.281   8.503
  175POPC   C3A 6425   7.379  41.429   8.170
  175POPC   C4A 6426   7.221  41.640   7.821
  175POPC   C1B 6427   7.583  41.522   8.661
  175POPC   C2B 6428   7.856  41.310   8.336
  175POPC   C3B 6429   7.774  41.134   7.925
  175POPC   C4B 6430   7.577  41.353   7.587
  176POPC   NC3 6431   5.938  28.200   9.520
  176POPC   PO4 6432   5.531  28.767   9.495
  176POPC   GL1 6433   5.860  28.590   9.165
  176POPC   GL2 6434   5.758  28.318   9.047
  176POPC   C1A 6435   6.119  28.503   8.766
  176POPC   D2A 6436   6.019  28.672   8.355
  176POPC   C3A 6437   5.704  28.608   8.036
  176POPC   C4A 6438   5.972  28.660   7.688
  176POPC   C1B 6439   5.649  28.372   8.609
  176POPC   C2B 6440   5.601  28.164   8.254
  176POPC   C3B 6441   5.820  28.177   7.861
  176POPC   C4B 6442   5.598  28.325   7.503
  177POPC   NC3 6443   9.266  17.415   9.416
  177POPC   PO4 6444   8.601  17.599   9.500
  177POPC   GL1 6445   8.803  17.427   9.166
  177POPC   GL2 6446   8.958  17.763   9.143
  177POPC   C1A 6447   8.851  17.216   8.764
  177POPC   D2A 6448   9.138  17.326   8.405
  177POPC   C3A 6449   8.996  17.332   7.962
  177POPC   C4A 6450   8.569  17.342   7.722
  177POPC   C1B 6451   9.116  17.956   8.763
  177POPC   C2B 6452   8.925  17.837   8.394
  177POPC   C3B 6453   8.864  17.812   7.985
  177POPC   C4B 6454   9.168  17.797   7.696
  178POPC   NC3 6455  11.740  40.091   9.415
  178POPC   PO4 6456  12.350  39.910   9.483
  178POPC   GL1 6457  12.175  40.045   9.115
  178POPC   GL2 6458  11.971  39.759   9.067
  178POPC   C1A 6459  12.238  40.039   8.675
  178POPC   D2A 6460  12.413  39.960   8.290
  178POPC   C3A 6461  12.141  40.176   7.972
  178POPC   C4A 6462  12.083  40.065   7.539
  178POPC   C1B 6463  11.960  39.566   8.653
  178POPC   C2B 6464  11.930  39.792   8.269
  178POPC   C3B 6465  11.881  39.723   7.857
  178POPC   C4B 6466  11.873  39.622   7.403
  179POPC   NC3 6467  29.247  17.996   9.770
  179POPC   PO4 6468  29.163  18.507   9.200
  179POPC   GL1 6469  29.025  18.254   8.934
  179POPC   GL2 6470  28.801  18.404   8.805
  179POPC   C1A 6471  29.181  18.123   8.569
  179POPC   D2A 6472  29.058  18.421   8.289
  179POPC   C3A 6473  29.031  18.294   7.885
  179POPC   C4A 6474  29.282  18.139   7.571
  179POPC   C1B 6475  28.901  18.799   8.665
  179POPC   C2B 6476  28.826  18.990   8.300
  179POPC   C3B 6477  28.970  18.816   7.960
  179POPC   C4B 6478  28.806  18.638   7.585
  180POPC   NC3 6479  38.313  19.928  10.053
  180POPC   PO4 6480  38.599  19.701   9.469
  180POPC   GL1 6481  38.500  19.895   9.064
  180POPC   GL2 6482  38.698  20.197   9.081
  180POPC   C1A 6483  38.144  19.749   8.782
  180POPC   D2A 6484  38.235  19.850   8.365
  180POPC   C3A 6485  38.409  19.891   7.939
  180POPC   C4A 6486  38.644  20.247   7.752
  180POPC   C1B 6487  38.854  19.943   8.719
  180POPC   C2B 6488  38.783  19.904   8.303
  180POPC   C3B 6489  38.963  19.897   7.929
  180POPC   C4B 6490  38.799  19.637   7.674
  181POPC   NC3 6491  19.414  23.623   9.397
  181POPC   PO4 6492  20.032  23.435   9.602
  181POPC   GL1 6493  19.895  23.452   9.153
  181POPC   GL2 6494  19.780  23.779   9.066
  181POPC   C1A 6495  20.063  23.543   8.720
  181POPC   D2A 6496  20.246  23.689   8.321
  181POPC   C3A 6497  19.924  23.769   8.005
  181POPC   C4A 6498  19.925  24.000   7.585
  181POPC   C1B 6499  19.468  23.646   8.729
  181POPC   C2B 6500  19.407  23.851   8.300
  181POPC   C3B 6501  19.470  23.984   7.862
  181POPC   C4B 6502  19.456  23.772   7.470
  182POPC   NC3 6503  36.883   8.410   9.594
  182POPC   PO4 6504  37.439   8.006   9.865
  182POPC   GL1 6505  37.256   8.162   9.422
  182POPC   GL2 6506  36.988   7.941   9.290
  182POPC   C1A 6507  37.217   8.306   8.959
  182POPC   D2A 6508  37.357   8.277   8.492
  182POPC   C3A 6509  37.055   8.335   8.113
  182POPC   C4A 6510  36.670   8.441   7.844
  182POPC   C1B 6511  36.973   7.765   8.855
  182POPC   C2B 6512  36.818   7.795   8.439
  182POPC   C3B 6513  36.570   8.051   8.184
  182POPC   C4B 6514  36.514   7.959   7.766
  183POPC   NC3 6515   7.270  13.956   9.696
  183POPC   PO4 6516   7.444  14.552   9.555
  183POPC   GL1 6517   7.460  14.467   9.146
  183POPC   GL2 6518   7.497  14.135   9.200
  183POPC   C1A 6519   7.410  14.487   8.688
  183POPC   D2A 6520   7.506  14.392   8.252
  183POPC   C3A 6521   7.420  14.686   7.906
  183POPC   C4A 6522   7.100  14.413   7.680
  183POPC   C1B 6523   7.816  14.217   8.875
  183POPC   C2B 6524   7.974  14.324   8.463
  183POPC   C3B 6525   7.902  14.154   8.052
  183POPC   C4B 6526   7.626  14.261   7.746
  184POPC   NC3 6527  21.334  38.523   9.630
  184POPC   PO4 6528  21.797  38.189   9.598
  184POPC   GL1 6529  21.634  38.393   9.191
  184POPC   GL2 6530  21.253  38.402   9.134
  184POPC   C1A 6531  21.581  38.536   8.748
  184POPC   D2A 6532  21.399  38.739   8.399
  184POPC   C3A 6533  21.658  38.679   8.061
  184POPC   C4A 6534  21.734  38.357   7.760
  184POPC   C1B 6535  21.124  38.368   8.702
  184POPC   C2B 6536  21.383  38.223   8.372
  184POPC   C3B 6537  21.286  38.339   7.992
  184POPC   C4B 6538  20.963  38.315   7.740
  185POPC   NC3 6539   5.891   7.508   9.643
  185POPC   PO4 6540   5.492   7.968   9.342
  185POPC   GL1 6541   5.815   7.635   9.162
  185POPC   GL2 6542   5.604   7.362   9.166
  185POPC   C1A 6543   6.039   7.540   8.718
  185POPC   D2A 6544   6.134   7.390   8.263
  185POPC   C3A 6545   5.999   7.499   7.822
  185POPC   C4A 6546   6.019   7.195   7.462
  185POPC   C1B 6547   5.531   7.631   8.762
  185POPC   C2B 6548   5.681   7.687   8.337
  185POPC   C3B 6549   5.621   7.313   8.090
  185POPC   C4B 6550   5.501   7.149   7.705
  186POPC   NC3 6551   6.765  42.911   9.423
  186POPC   PO4 6552   6.759  43.589   9.539
  186POPC   GL1 6553   6.692  43.350   9.160
  186POPC   GL2 6554   7.028  43.343   9.041
  186POPC   C1A 6555   6.536  43.177   8.744
  186POPC   D2A 6556   6.362  43.278   8.320
  186POPC   C3A 6557   6.473  43.046   7.919
  186POPC   C4A 6558   6.480  43.169   7.500
  186POPC   C1B 6559   7.000  42.953   8.790
  186POPC   C2B 6560   6.852  42.870   8.377
  186POPC   C3B 6561   6.959  43.015   7.982
  186POPC   C4B 6562   6.964  43.021   7.536
  187POPC   NC3 6563  23.404  13.614   9.360
  187POPC   PO4 6564  22.838  13.646   9.629
  187POPC   GL1 6565  22.901  13.701   9.182
  187POPC   GL2 6566  23.103  13.974   9.134
  187POPC   C1A 6567  22.983  13.588   8.732
  187POPC   D2A 6568  22.880  13.718   8.302
  187POPC   C3A 6569  23.114  13.616   7.906
  187POPC   C4A 6570  23.534  13.645   7.722
  187POPC   C1B 6571  23.346  13.933   8.765
  187POPC   C2B 6572  23.298  14.112   8.364
  187POPC   C3B 6573  23.026  14.108   8.023
  187POPC   C4B 6574  23.220  14.067   7.664
  188POPC   NC3 6575  22.696  23.977   9.363
  188POPC   PO4 6576  23.158  23.376   9.434
  188POPC   GL1 6577  22.933  23.612   9.119
  188POPC   GL2 6578  22.562  23.522   9.122
  188POPC   C1A 6579  22.978  23.904   8.740
  188POPC   D2A 6580  23.280  23.899   8.395
  188POPC   C3A 6581  23.110  23.862   7.990
  188POPC   C4A 6582  23.149  23.589   7.684
  188POPC   C1B 6583  22.476  23.736   8.754
  188POPC   C2B 6584  22.680  23.805   8.342
  188POPC   C3B 6585  22.589  23.845   7.921
  188POPC   C4B 6586  22.388  23.529   7.693
  189POPC   NC3 6587  37.371  36.390   9.694
  189POPC   PO4 6588  36.729  36.201   9.431
  189POPC   GL1 6589  36.998  36.220   9.101
  189POPC   GL2 6590  36.719  36.382   8.919
  189POPC   C1A 6591  37.124  36.141   8.658
  189POPC   D2A 6592  37.024  36.252   8.219
  189POPC   C3A 6593  37.210  36.346   7.779
  189POPC   C4A 6594  37.216  36.343   7.288
  189POPC   C1B 6595  36.668  35.955   8.780
  189POPC   C2B 6596  36.756  35.827   8.371
  189POPC   C3B 6597  36.635  36.021   7.964
  189POPC   C4B 6598  36.453  35.785   7.653
  190POPC   NC3 6599  29.688  31.165   9.932
  190POPC   PO4 6600  29.781  31.564   9.393
  190POPC   GL1 6601  30.054  31.454   9.065
  190POPC   GL2 6602  30.349  31.671   9.165
  190POPC   C1A 6603  29.959  31.428   8.600
  190POPC   D2A 6604  29.714  31.666   8.272
  190POPC   C3A 6605  29.658  31.347   7.949
  190POPC   C4A 6606  29.975  31.275   7.663
  190POPC   C1B 6607  30.199  31.845   8.781
  190POPC   C2B 6608  30.267  31.782   8.349
  190POPC   C3B 6609  30.104  31.770   7.925
  190POPC   C4B 6610  29.727  31.800   7.736
  191POPC   NC3 6611  23.337  22.935   9.526
  191POPC   PO4 6612  22.614  22.887   9.607
  191POPC   GL1 6613  22.852  22.800   9.233
  191POPC   GL2 6614  22.870  23.107   9.081
  191POPC   C1A 6615  22.720  22.724   8.781
  191POPC   D2A 6616  22.740  22.986   8.391
  191POPC   C3A 6617  22.889  22.838   7.997
  191POPC   C4A 6618  23.153  22.755   7.611
  191POPC   C1B 6619  22.853  23.383   8.695
  191POPC   C2B 6620  23.057  23.426   8.321
  191POPC   C3B 6621  22.812  23.390   8.012
  191POPC   C4B 6622  22.783  23.199   7.644
  192POPC   NC3 6623  20.442   3.971   9.640
  192POPC   PO4 6624  20.476   3.351   9.734
  192POPC   GL1 6625  20.701   3.582   9.278
  192POPC   GL2 6626  20.571   3.888   9.152
  192POPC   C1A 6627  20.836   3.789   8.763
  192POPC   D2A 6628  20.594   3.801   8.356
  192POPC   C3A 6629  20.768   3.635   7.974
  192POPC   C4A 6630  20.701   3.458   7.569
  192POPC   C1B 6631  20.350   3.686   8.789
  192POPC   C2B 6632  20.288   3.346   8.510
  192POPC   C3B 6633  20.159   3.403   8.078
  192POPC   C4B 6634  20.278   3.817   7.933
  193POPC   NC3 6635   3.750  38.237   9.538
  193POPC   PO4 6636   3.117  38.626   9.577
  193POPC   GL1 6637   3.499  38.574   9.232
  193POPC   GL2 6638   3.541  38.194   9.096
  193POPC   C1A 6639   3.780  38.538   8.839
  193POPC   D2A 6640   3.790  38.243   8.445
  193POPC   C3A 6641   3.600  38.400   8.050
  193POPC   C4A 6642   3.680  38.617   7.674
  193POPC   C1B 6643   3.350  38.269   8.718
  193POPC   C2B 6644   3.306  38.071   8.323
  193POPC   C3B 6645   3.234  38.045   7.901
  193POPC   C4B 6646   3.518  38.135   7.566
  194POPC   NC3 6647  44.485   6.927   9.763
  194POPC   PO4 6648  44.918   6.549   9.383
  194POPC   GL1 6649  44.849   6.402   9.015
  194POPC   GL2 6650  44.523   6.415   9.056
  194POPC   C1A 6651  44.839   6.412   8.562
  194POPC   D2A 6652  44.638   6.676   8.232
  194POPC   C3A 6653  44.895   6.649   7.904
  194POPC   C4A 6654   0.045   6.287   7.740
  194POPC   C1B 6655  44.494   6.722   8.750
  194POPC   C2B 6656  44.567   7.100   8.516
  194POPC   C3B 6657  44.447   7.153   8.097
  194POPC   C4B 6658  44.519   6.916   7.697
  195POPC   NC3 6659  43.267  17.660   9.473
  195POPC   PO4 6660  43.151  18.291   9.543
  195POPC   GL1 6661  43.183  18.111   9.166
  195POPC   GL2 6662  43.506  18.018   9.194
  195POPC   C1A 6663  43.113  18.334   8.795
  195POPC   D2A 6664  43.084  18.618   8.461
  195POPC   C3A 6665  43.066  18.469   8.059
  195POPC   C4A 6666  43.005  18.746   7.725
  195POPC   C1B 6667  43.584  18.127   8.789
  195POPC   C2B 6668  43.364  18.130   8.392
  195POPC   C3B 6669  43.442  18.131   7.957
  195POPC   C4B 6670  43.222  18.280   7.582
  196POPC   NC3 6671  36.122  28.791   9.546
  196POPC   PO4 6672  36.243  29.459   9.390
  196POPC   GL1 6673  36.088  29.076   9.129
  196POPC   GL2 6674  36.358  28.832   9.098
  196POPC   C1A 6675  35.892  28.753   8.835
  196POPC   D2A 6676  35.991  28.703   8.395
  196POPC   C3A 6677  35.956  29.082   8.167
  196POPC   C4A 6678  35.969  29.366   7.832
  196POPC   C1B 6679  36.288  29.052   8.672
  196POPC   C2B 6680  36.455  29.187   8.286
  196POPC   C3B 6681  36.399  29.007   7.918
  196POPC   C4B 6682  36.477  28.809   7.554
  197POPC   NC3 6683  14.154   2.299   9.391
  197POPC   PO4 6684  14.433   1.711   9.367
  197POPC   GL1 6685  14.279   1.963   9.035
  197POPC   GL2 6686  14.451   2.286   8.979
  197POPC   C1A 6687  14.127   2.066   8.640
  197POPC   D2A 6688  14.321   2.145   8.252
  197POPC   C3A 6689  14.174   1.942   7.905
  197POPC   C4A 6690  14.330   1.918   7.497
  197POPC   C1B 6691  14.658   2.121   8.632
  197POPC   C2B 6692  14.826   1.999   8.231
  197POPC   C3B 6693  14.648   2.141   7.845
  197POPC   C4B 6694  14.393   2.431   7.554
  198POPC   NC3 6695  25.688  15.839   9.381
  198POPC   PO4 6696  26.289  16.164   9.490
  198POPC   GL1 6697  26.149  15.923   9.171
  198POPC   GL2 6698  26.140  16.253   9.010
  198POPC   C1A 6699  25.969  15.825   8.782
  198POPC   D2A 6700  26.180  16.093   8.506
  198POPC   C3A 6701  26.264  16.086   8.083
  198POPC   C4A 6702  26.369  15.993   7.692
  198POPC   C1B 6703  25.778  16.335   8.776
  198POPC   C2B 6704  25.818  16.448   8.362
  198POPC   C3B 6705  25.767  16.195   8.044
  198POPC   C4B 6706  25.860  15.840   7.815
  199POPC   NC3 6707  36.622  39.114   9.587
  199POPC   PO4 6708  37.293  39.016   9.433
  199POPC   GL1 6709  37.051  39.189   9.129
  199POPC   GL2 6710  36.769  39.001   9.115
  199POPC   C1A 6711  37.054  39.058   8.699
  199POPC   D2A 6712  37.173  39.288   8.350
  199POPC   C3A 6713  36.907  39.380   8.011
  199POPC   C4A 6714  36.976  39.241   7.632
  199POPC   C1B 6715  36.593  39.230   8.765
  199POPC   C2B 6716  36.532  39.109   8.295
  199POPC   C3B 6717  36.683  38.907   7.878
  199POPC   C4B 6718  36.627  39.005   7.369
  200POPC   NC3 6719  41.690  27.495   9.555
  200POPC   PO4 6720  40.981  27.438   9.530
  200POPC   GL1 6721  41.351  27.424   9.185
  200POPC   GL2 6722  41.713  27.276   9.110
  200POPC   C1A 6723  41.602  27.659   8.832
  200POPC   D2A 6724  41.424  27.716   8.429
  200POPC   C3A 6725  41.651  27.740   8.099
  200POPC   C4A 6726  41.598  27.559   7.743
  200POPC   C1B 6727  41.988  27.314   8.777
  200POPC   C2B 6728  41.975  27.506   8.414
  200POPC   C3B 6729  41.926  27.258   8.079
  200POPC   C4B 6730  42.002  27.291   7.683
  201POPC   NC3 6731  32.680  35.909   9.450
  201POPC   PO4 6732  33.264  36.164   9.619
  201POPC   GL1 6733  33.235  36.223   9.165
  201POPC   GL2 6734  32.903  36.132   9.033
  201POPC   C1A 6735  33.278  36.203   8.710
  201POPC   D2A 6736  32.955  36.141   8.393
  201POPC   C3A 6737  33.136  36.206   7.990
  201POPC   C4A 6738  33.234  36.536   7.710
  201POPC   C1B 6739  32.559  35.979   8.783
  201POPC   C2B 6740  32.411  35.949   8.372
  201POPC   C3B 6741  32.602  36.058   7.993
  201POPC   C4B 6742  32.773  36.309   7.639
  202POPC   NC3 6743  33.040  39.945   9.454
  202POPC   PO4 6744  33.665  40.246   9.368
  202POPC   GL1 6745  33.375  40.156   9.059
  202POPC   GL2 6746  33.238  39.791   9.027
  202POPC   C1A 6747  33.253  40.139   8.638
  202POPC   D2A 6748  33.085  39.907   8.299
  202POPC   C3A 6749  33.049  40.137   7.917
  202POPC   C4A 6750  33.406  40.055   7.714
  202POPC   C1B 6751  32.831  39.878   8.791
  202POPC   C2B 6752  32.587  39.913   8.368
  202POPC   C3B 6753  32.675  39.781   7.930
  202POPC   C4B 6754  32.917  39.868   7.486
  203POPC   NC3 6755  43.673   2.879   9.944
  203POPC   PO4 6756  44.252   2.772   9.582
  203POPC   GL1 6757  43.900   2.808   9.315
  203POPC   GL2 6758  43.863   3.177   9.410
  203POPC   C1A 6759  43.845   2.712   8.858
  203POPC   D2A 6760  44.014   2.537   8.433
  203POPC   C3A 6761  43.816   2.671   8.002
  203POPC   C4A 6762  43.767   2.675   7.519
  203POPC   C1B 6763  44.096   3.153   9.007
  203POPC   C2B 6764  43.963   3.116   8.554
  203POPC   C3B 6765  43.831   3.238   8.132
  203POPC   C4B 6766  43.960   3.114   7.721
  204POPC   NC3 6767  29.533  19.554   9.493
  204POPC   PO4 6768  30.169  19.892   9.492
  204POPC   GL1 6769  29.913  19.711   9.175
  204POPC   GL2 6770  29.589  19.878   9.077
  204POPC   C1A 6771  29.985  19.706   8.756
  204POPC   D2A 6772  30.142  19.559   8.378
  204POPC   C3A 6773  30.053  19.772   7.998
  204POPC   C4A 6774  29.972  19.668   7.562
  204POPC   C1B 6775  29.664  20.103   8.668
  204POPC   C2B 6776  29.680  20.073   8.197
  204POPC   C3B 6777  29.676  20.329   7.823
  204POPC   C4B 6778  29.638  20.262   7.365
  205POPC   NC3 6779  23.787  37.678   9.616
  205POPC   PO4 6780  23.393  37.287   9.276
  205POPC   GL1 6781  23.666  37.573   9.129
  205POPC   GL2 6782  23.914  37.844   9.134
  205POPC   C1A 6783  23.809  37.549   8.739
  205POPC   D2A 6784  23.593  37.349   8.442
  205POPC   C3A 6785  23.763  37.556   8.147
  205POPC   C4A 6786  23.784  37.616   7.755
  205POPC   C1B 6787  23.508  37.950   8.866
  205POPC   C2B 6788  23.432  37.862   8.433
  205POPC   C3B 6789  23.494  37.986   7.992
  205POPC   C4B 6790  23.535  37.992   7.540
  206POPC   NC3 6791  30.284  10.627   9.584
  206POPC   PO4 6792  29.680  10.402   9.569
  206POPC   GL1 6793  29.847  10.295   9.145
  206POPC   GL2 6794  30.226  10.237   9.193
  206POPC   C1A 6795  29.643  10.287   8.708
  206POPC   D2A 6796  29.451  10.443   8.287
  206POPC   C3A 6797  29.749  10.435   7.930
  206POPC   C4A 6798  30.158  10.656   7.835
  206POPC   C1B 6799  30.137  10.156   8.741
  206POPC   C2B 6800  29.972  10.087   8.319
  206POPC   C3B 6801  30.166  10.126   7.920
  206POPC   C4B 6802  30.534  10.334   7.706
  207POPC   NC3 6803   1.939  42.722   9.553
  207POPC   PO4 6804   2.096  43.399   9.595
  207POPC   GL1 6805   2.010  43.139   9.244
  207POPC   GL2 6806   1.855  43.434   9.136
  207POPC   C1A 6807   1.946  42.979   8.825
  207POPC   D2A 6808   2.177  43.007   8.461
  207POPC   C3A 6809   2.015  42.936   8.061
  207POPC   C4A 6810   2.322  42.939   7.755
  207POPC   C1B 6811   2.110  43.465   8.786
  207POPC   C2B 6812   1.946  43.458   8.393
  207POPC   C3B 6813   2.116  43.416   7.988
  207POPC   C4B 6814   1.875  43.259   7.640
  208POPC   NC3 6815   9.966  32.958   9.517
  208POPC   PO4 6816   9.461  33.250   9.208
  208POPC   GL1 6817   9.894  33.185   9.040
  208POPC   GL2 6818   9.975  32.817   9.035
  208POPC   C1A 6819   9.927  33.057   8.591
  208POPC   D2A 6820   9.732  32.886   8.263
  208POPC   C3A 6821   9.857  33.199   8.002
  208POPC   C4A 6822   9.979  32.978   7.699
  208POPC   C1B 6823   9.740  32.571   8.718
  208POPC   C2B 6824   9.360  32.476   8.456
  208POPC   C3B 6825   9.288  32.699   8.076
  208POPC   C4B 6826   9.450  33.012   7.767
  209POPC   NC3 6827   3.550  26.759   9.801
  209POPC   PO4 6828   3.090  27.249   9.541
  209POPC   GL1 6829   3.409  27.000   9.337
  209POPC   GL2 6830   3.335  26.673   9.242
  209POPC   C1A 6831   3.574  26.934   8.888
  209POPC   D2A 6832   3.446  27.076   8.472
  209POPC   C3A 6833   3.771  27.083   8.160
  209POPC   C4A 6834   3.819  27.001   7.723
  209POPC   C1B 6835   3.234  26.463   8.871
  209POPC   C2B 6836   3.401  26.557   8.499
  209POPC   C3B 6837   3.477  26.580   8.078
  209POPC   C4B 6838   3.733  26.488   7.724
  210POPC   NC3 6839  29.729   5.792   9.308
  210POPC   PO4 6840  30.242   6.351   9.095
  210POPC   GL1 6841  29.954   6.083   8.980
  210POPC   GL2 6842  29.984   5.695   8.893
  210POPC   C1A 6843  29.605   6.044   8.721
  210POPC   D2A 6844  29.787   5.776   8.428
  210POPC   C3A 6845  29.950   5.942   8.081
  210POPC   C4A 6846  29.813   5.967   7.685
  210POPC   C1B 6847  30.099   5.347   8.637
  210POPC   C2B 6848  30.134   5.478   8.196
  210POPC   C3B 6849  30.058   5.533   7.768
  210POPC   C4B 6850  30.004   5.650   7.325
  211POPC   NC3 6851   7.484  32.726   9.963
  211POPC   PO4 6852   7.345  32.114   9.547
  211POPC   GL1 6853   7.543  32.209   9.167
  211POPC   GL2 6854   7.438  32.506   9.074
  211POPC   C1A 6855   7.381  32.095   8.741
  211POPC   D2A 6856   7.056  32.190   8.427
  211POPC   C3A 6857   7.268  32.166   8.018
  211POPC   C4A 6858   7.419  32.238   7.587
  211POPC   C1B 6859   7.195  32.581   8.748
  211POPC   C2B 6860   7.166  32.691   8.335
  211POPC   C3B 6861   7.415  32.685   7.919
  211POPC   C4B 6862   7.395  32.721   7.422
  212POPC   NC3 6863  12.365  13.995   9.412
  212POPC   PO4 6864  12.091  14.580   9.659
  212POPC   GL1 6865  12.055  14.411   9.257
  212POPC   GL2 6866  11.814  14.613   9.160
  212POPC   C1A 6867  12.169  14.411   8.814
  212POPC   D2A 6868  12.074  14.140   8.472
  212POPC   C3A 6869  12.191  14.241   8.045
  212POPC   C4A 6870  12.263  13.975   7.665
  212POPC   C1B 6871  11.758  14.779   8.756
  212POPC   C2B 6872  11.896  14.626   8.365
  212POPC   C3B 6873  11.883  14.629   7.922
  212POPC   C4B 6874  11.845  14.859   7.510
  213POPC   NC3 6875   1.498   8.072   9.303
  213POPC   PO4 6876   1.006   8.485   9.687
  213POPC   GL1 6877   0.928   8.314   9.221
  213POPC   GL2 6878   1.019   8.003   9.130
  213POPC   C1A 6879   1.051   8.364   8.730
  213POPC   D2A 6880   1.348   8.458   8.390
  213POPC   C3A 6881   1.151   8.410   7.985
  213POPC   C4A 6882   1.191   8.244   7.549
  213POPC   C1B 6883   1.187   7.872   8.740
  213POPC   C2B 6884   1.042   8.014   8.318
  213POPC   C3B 6885   1.255   7.907   7.933
  213POPC   C4B 6886   1.087   7.724   7.579
  214POPC   NC3 6887  18.645  42.739   9.644
  214POPC   PO4 6888  19.038  43.265   9.685
  214POPC   GL1 6889  18.971  43.166   9.242
  214POPC   GL2 6890  18.859  42.820   9.191
  214POPC   C1A 6891  18.842  43.162   8.799
  214POPC   D2A 6892  18.978  43.176   8.369
  214POPC   C3A 6893  18.974  43.519   8.107
  214POPC   C4A 6894  18.955  43.314   7.739
  214POPC   C1B 6895  19.154  42.741   8.867
  214POPC   C2B 6896  19.267  42.736   8.441
  214POPC   C3B 6897  19.225  42.865   8.024
  214POPC   C4B 6898  19.431  42.607   7.773
  215POPC   NC3 6899  35.237  21.766   9.531
  215POPC   PO4 6900  34.930  22.342   9.486
  215POPC   GL1 6901  35.256  22.171   9.188
  215POPC   GL2 6902  35.619  22.053   9.278
  215POPC   C1A 6903  35.248  22.200   8.739
  215POPC   D2A 6904  35.160  21.974   8.360
  215POPC   C3A 6905  35.293  22.158   7.999
  215POPC   C4A 6906  35.175  22.458   7.730
  215POPC   C1B 6907  35.728  21.980   8.837
  215POPC   C2B 6908  35.656  22.167   8.422
  215POPC   C3B 6909  35.775  21.998   8.032
  215POPC   C4B 6910  35.722  22.283   7.680
  216POPC   NC3 6911  33.387  14.278   9.565
  216POPC   PO4 6912  33.712  14.841   9.618
  216POPC   GL1 6913  33.709  14.564   9.238
  216POPC   GL2 6914  33.756  14.184   9.228
  216POPC   C1A 6915  33.839  14.614   8.797
  216POPC   D2A 6916  34.117  14.669   8.429
  216POPC   C3A 6917  33.943  14.578   8.017
  216POPC   C4A 6918  33.552  14.376   7.898
  216POPC   C1B 6919  33.950  14.112   8.819
  216POPC   C2B 6920  33.817  14.237   8.398
  216POPC   C3B 6921  33.925  14.044   8.002
  216POPC   C4B 6922  34.004  14.001   7.549
  217POPC   NC3 6923  39.233  17.785   9.664
  217POPC   PO4 6924  39.452  18.373   9.414
  217POPC   GL1 6925  39.213  18.428   9.064
  217POPC   GL2 6926  39.255  18.072   9.045
  217POPC   C1A 6927  38.920  18.537   8.717
  217POPC   D2A 6928  38.935  18.362   8.247
  217POPC   C3A 6929  39.040  18.532   7.801
  217POPC   C4A 6930  38.735  18.557   7.437
  217POPC   C1B 6931  39.119  18.076   8.642
  217POPC   C2B 6932  38.884  17.838   8.356
  217POPC   C3B 6933  38.994  17.936   7.949
  217POPC   C4B 6934  39.336  17.791   7.688
  218POPC   NC3 6935  31.490  28.730   9.497
  218POPC   PO4 6936  31.605  28.074   9.547
  218POPC   GL1 6937  31.522  28.337   9.138
  218POPC   GL2 6938  31.376  28.691   9.013
  218POPC   C1A 6939  31.408  28.290   8.704
  218POPC   D2A 6940  31.592  28.255   8.332
  218POPC   C3A 6941  31.318  28.058   8.046
  218POPC   C4A 6942  31.616  28.045   7.738
  218POPC   C1B 6943  31.308  28.838   8.576
  218POPC   C2B 6944  31.241  28.607   8.184
  218POPC   C3B 6945  31.288  28.478   7.757
  218POPC   C4B 6946  31.172  28.575   7.318
  219POPC   NC3 6947  20.083  34.557   9.709
  219POPC   PO4 6948  20.518  34.258   9.493
  219POPC   GL1 6949  20.374  34.323   9.070
  219POPC   GL2 6950  20.718  34.385   9.006
  219POPC   C1A 6951  20.354  34.497   8.634
  219POPC   D2A 6952  20.469  34.640   8.203
  219POPC   C3A 6953  20.247  34.424   7.841
  219POPC   C4A 6954  20.276  34.472   7.367
  219POPC   C1B 6955  20.919  34.358   8.638
  219POPC   C2B 6956  20.969  34.534   8.236
  219POPC   C3B 6957  20.780  34.445   7.845
  219POPC   C4B 6958  20.783  34.600   7.437
  220POPC   NC3 6959  19.884  23.002   9.703
  220POPC   PO4 6960  19.241  23.096   9.442
  220POPC   GL1 6961  19.599  23.004   9.146
  220POPC   GL2 6962  19.967  22.944   9.202
  220POPC   C1A 6963  19.755  23.123   8.723
  220POPC   D2A 6964  19.687  23.403   8.337
  220POPC   C3A 6965  19.716  23.193   7.947
  220POPC   C4A 6966  19.582  22.809   7.750
  220POPC   C1B 6967  20.139  22.681   8.871
  220POPC   C2B 6968  20.279  22.723   8.431
  220POPC   C3B 6969  20.098  22.802   7.991
  220POPC   C4B 6970  20.031  22.989   7.556
  221POPC   NC3 6971   8.841  36.704   9.583
  221POPC   PO4 6972   9.401  37.163   9.546
  221POPC   GL1 6973   9.105  36.998   9.198
  221POPC   GL2 6974   9.067  36.635   9.121
  221POPC   C1A 6975   8.906  36.921   8.758
  221POPC   D2A 6976   8.771  36.747   8.388
  221POPC   C3A 6977   8.928  36.902   7.983
  221POPC   C4A 6978   8.734  37.080   7.598
  221POPC   C1B 6979   9.340  36.581   8.738
  221POPC   C2B 6980   9.315  36.438   8.297
  221POPC   C3B 6981   9.317  36.527   7.836
  221POPC   C4B 6982   9.149  36.786   7.506
  222POPC   NC3 6983  23.113  39.717   9.503
  222POPC   PO4 6984  22.574  40.108   9.505
  222POPC   GL1 6985  22.819  39.995   9.169
  222POPC   GL2 6986  23.149  40.183   9.199
  222POPC   C1A 6987  22.860  39.744   8.797
  222POPC   D2A 6988  22.697  39.588   8.417
  222POPC   C3A 6989  22.841  39.733   8.054
  222POPC   C4A 6990  22.822  39.872   7.647
  222POPC   C1B 6991  23.016  40.231   8.757
  222POPC   C2B 6992  23.183  39.981   8.410
  222POPC   C3B 6993  23.186  40.115   7.982
  222POPC   C4B 6994  22.820  40.369   7.782
  223POPC   NC3 6995   6.937  18.073   9.533
  223POPC   PO4 6996   6.906  18.746   9.479
  223POPC   GL1 6997   6.749  18.432   9.199
  223POPC   GL2 6998   6.492  18.189   9.220
  223POPC   C1A 6999   6.681  18.487   8.763
  223POPC   D2A 7000   6.662  18.428   8.373
  223POPC   C3A 7001   6.444  18.439   8.030
  223POPC   C4A 7002   6.677  18.366   7.658
  223POPC   C1B 7003   6.763  17.997   8.922
  223POPC   C2B 7004   6.699  17.843   8.556
  223POPC   C3B 7005   6.778  17.797   8.191
  223POPC   C4B 7006   6.582  17.956   7.891
  224POPC   NC3 7007  15.366  27.532   9.419
  224POPC   PO4 7008  16.013  27.684   9.669
  224POPC   GL1 7009  15.975  27.735   9.227
  224POPC   GL2 7010  15.849  27.414   9.178
  224POPC   C1A 7011  16.058  27.692   8.770
  224POPC   D2A 7012  16.071  27.518   8.349
  224POPC   C3A 7013  16.013  27.768   7.985
  224POPC   C4A 7014  16.313  27.933   7.696
  224POPC   C1B 7015  15.811  27.214   8.770
  224POPC   C2B 7016  15.617  27.324   8.368
  224POPC   C3B 7017  15.791  27.268   7.931
  224POPC   C4B 7018  15.736  27.265   7.467
  225POPC   NC3 7019  18.529  23.360   9.276
  225POPC   PO4 7020  18.148  23.969   9.436
  225POPC   GL1 7021  18.241  23.754   9.080
  225POPC   GL2 7022  17.953  23.640   8.991
  225POPC   C1A 7023  18.341  23.888   8.646
  225POPC   D2A 7024  18.136  23.959   8.235
  225POPC   C3A 7025  18.257  23.689   7.893
  225POPC   C4A 7026  18.017  23.349   7.736
  225POPC   C1B 7027  18.142  23.411   8.694
  225POPC   C2B 7028  18.379  23.462   8.345
  225POPC   C3B 7029  18.707  23.382   8.070
  225POPC   C4B 7030  18.602  23.285   7.682
  226POPC   NC3 7031  15.643  43.085   9.325
  226POPC   PO4 7032  14.958  43.275   9.511
  226POPC   GL1 7033  15.194  43.240   9.177
  226POPC   GL2 7034  15.439  43.465   9.116
  226POPC   C1A 7035  15.215  43.164   8.751
  226POPC   D2A 7036  15.066  43.301   8.345
  226POPC   C3A 7037  15.019  42.962   8.026
  226POPC   C4A 7038  15.217  42.885   7.611
  226POPC   C1B 7039  15.673  43.425   8.731
  226POPC   C2B 7040  15.578  43.398   8.290
  226POPC   C3B 7041  15.448  43.244   7.898
  226POPC   C4B 7042  15.455  43.338   7.455
  227POPC   NC3 7043  31.322  25.588   9.501
  227POPC   PO4 7044  31.859  25.183   9.472
  227POPC   GL1 7045  31.610  25.362   9.140
  227POPC   GL2 7046  31.226  25.226   9.149
  227POPC   C1A 7047  31.515  25.206   8.741
  227POPC   D2A 7048  31.253  25.308   8.416
  227POPC   C3A 7049  31.392  25.188   8.005
  227POPC   C4A 7050  31.205  24.985   7.674
  227POPC   C1B 7051  30.988  25.500   8.855
  227POPC   C2B 7052  30.870  25.637   8.437
  227POPC   C3B 7053  30.983  25.488   8.001
  227POPC   C4B 7054  31.040  25.443   7.518
  228POPC   NC3 7055   8.367  42.139   9.466
  228POPC   PO4 7056   7.882  41.604   9.437
  228POPC   GL1 7057   8.214  41.719   9.194
  228POPC   GL2 7058   8.014  41.993   9.135
  228POPC   C1A 7059   8.459  41.723   8.806
  228POPC   D2A 7060   8.256  41.656   8.401
  228POPC   C3A 7061   8.478  41.692   8.037
  228POPC   C4A 7062   8.252  41.386   7.834
  228POPC   C1B 7063   7.947  41.873   8.742
  228POPC   C2B 7064   7.755  41.891   8.351
  228POPC   C3B 7065   7.784  41.682   7.969
  228POPC   C4B 7066   8.080  41.863   7.728
  229POPC   NC3 7067  34.757  15.859   9.423
  229POPC   PO4 7068  34.139  16.158   9.664
  229POPC   GL1 7069  34.295  15.997   9.249
  229POPC   GL2 7070  34.177  15.658   9.171
  229POPC   C1A 7071  34.500  16.003   8.822
  229POPC   D2A 7072  34.445  16.126   8.407
  229POPC   C3A 7073  34.686  16.022   8.071
  229POPC   C4A 7074  34.457  16.131   7.727
  229POPC   C1B 7075  34.307  15.538   8.775
  229POPC   C2B 7076  34.231  15.655   8.376
  229POPC   C3B 7077  34.378  15.643   7.993
  229POPC   C4B 7078  34.265  15.662   7.609
  230POPC   NC3 7079  27.049  30.215   9.284
  230POPC   PO4 7080  26.767  29.621   9.480
  230POPC   GL1 7081  26.932  29.747   9.092
  230POPC   GL2 7082  26.642  29.974   9.080
  230POPC   C1A 7083  27.032  29.933   8.682
  230POPC   D2A 7084  27.053  29.712   8.307
  230POPC   C3A 7085  27.113  30.006   7.994
  230POPC   C4A 7086  26.749  30.187   7.774
  230POPC   C1B 7087  26.578  29.695   8.719
  230POPC   C2B 7088  26.555  29.871   8.313
  230POPC   C3B 7089  26.688  29.719   7.946
  230POPC   C4B 7090  26.584  29.525   7.615
  231POPC   NC3 7091   0.516   6.418   9.518
  231POPC   PO4 7092   0.171   7.083   9.540
  231POPC   GL1 7093   0.260   6.853   9.146
  231POPC   GL2 7094   0.350   6.482   9.058
  231POPC   C1A 7095   0.172   6.804   8.723
  231POPC   D2A 7096   0.368   6.528   8.464
  231POPC   C3A 7097   0.361   6.732   8.108
  231POPC   C4A 7098   0.406   6.643   7.725
  231POPC   C1B 7099   0.581   6.187   8.800
  231POPC   C2B 7100   0.646   6.100   8.391
  231POPC   C3B 7101   0.483   6.227   8.015
  231POPC   C4B 7102   0.732   6.237   7.638
  232POPC   NC3 7103  31.323  43.760   9.382
  232POPC   PO4 7104  31.492  44.394   9.459
  232POPC   GL1 7105  31.527  44.155   9.068
  232POPC   GL2 7106  31.737  43.845   9.008
  232POPC   C1A 7107  31.447  43.999   8.645
  232POPC   D2A 7108  31.646  43.917   8.286
  232POPC   C3A 7109  31.353  44.016   7.987
  232POPC   C4A 7110  31.457  43.939   7.562
  232POPC   C1B 7111  31.684  43.534   8.662
  232POPC   C2B 7112  31.505  43.413   8.264
  232POPC   C3B 7113  31.573  43.570   7.876
  232POPC   C4B 7114  31.596  43.472   7.399
  233POPC   NC3 7115  21.683  15.624   9.802
  233POPC   PO4 7116  21.685  16.298   9.678
  233POPC   GL1 7117  21.594  16.140   9.279
  233POPC   GL2 7118  21.734  15.808   9.203
  233POPC   C1A 7119  21.599  16.190   8.833
  233POPC   D2A 7120  21.710  16.325   8.410
  233POPC   C3A 7121  21.390  16.327   8.060
  233POPC   C4A 7122  21.138  16.142   7.720
  233POPC   C1B 7123  21.512  15.669   8.829
  233POPC   C2B 7124  21.431  15.882   8.437
  233POPC   C3B 7125  21.404  15.779   8.010
  233POPC   C4B 7126  21.309  15.629   7.612
  234POPC   NC3 7127  25.342   3.889   9.808
  234POPC   PO4 7128  25.583   3.534   9.273
  234POPC   GL1 7129  25.262   3.444   9.000
  234POPC   GL2 7130  24.964   3.211   9.063
  234POPC   C1A 7131  25.319   3.649   8.610
  234POPC   D2A 7132  25.470   3.561   8.191
  234POPC   C3A 7133  25.196   3.703   7.869
  234POPC   C4A 7134  25.021   3.897   7.510
  234POPC   C1B 7135  25.096   3.155   8.643
  234POPC   C2B 7136  24.914   3.038   8.300
  234POPC   C3B 7137  25.065   3.140   7.941
  234POPC   C4B 7138  25.396   3.254   7.744
  235POPC   NC3 7139  44.568  10.075   9.652
  235POPC   PO4 7140  44.814   9.462   9.577
  235POPC   GL1 7141  44.808   9.607   9.166
  235POPC   GL2 7142   0.014   9.324   9.034
  235POPC   C1A 7143  44.581   9.867   8.814
  235POPC   D2A 7144  44.475  10.019   8.371
  235POPC   C3A 7145  44.623   9.898   7.958
  235POPC   C4A 7146  44.372   9.610   7.702
  235POPC   C1B 7147  44.695   9.386   8.735
  235POPC   C2B 7148  44.686   9.541   8.347
  235POPC   C3B 7149  44.888   9.444   7.976
  235POPC   C4B 7150  44.856   9.471   7.535
  236POPC   NC3 7151  11.651  15.713   9.772
  236POPC   PO4 7152  12.075  16.244   9.609
  236POPC   GL1 7153  11.993  16.081   9.204
  236POPC   GL2 7154  11.961  16.449   9.123
  236POPC   C1A 7155  12.036  15.902   8.766
  236POPC   D2A 7156  11.935  16.055   8.335
  236POPC   C3A 7157  11.894  15.819   7.941
  236POPC   C4A 7158  11.797  15.963   7.521
  236POPC   C1B 7159  12.354  16.297   8.896
  236POPC   C2B 7160  12.465  16.111   8.487
  236POPC   C3B 7161  12.346  16.084   8.036
  236POPC   C4B 7162  12.304  15.882   7.618
  237POPC   NC3 7163  21.613  44.225   9.369
  237POPC   PO4 7164  21.227  43.793   9.691
  237POPC   GL1 7165  21.463  43.704   9.299
  237POPC   GL2 7166  21.208  43.912   9.165
  237POPC   C1A 7167  21.477  43.682   8.832
  237POPC   D2A 7168  21.154  43.592   8.519
  237POPC   C3A 7169  21.307  43.693   8.122
  237POPC   C4A 7170  21.634  43.827   7.846
  237POPC   C1B 7171  21.108  44.092   8.740
  237POPC   C2B 7172  20.885  44.052   8.338
  237POPC   C3B 7173  20.905  43.942   7.935
  237POPC   C4B 7174  21.202  44.064   7.684
  238POPC   NC3 7175  44.758  33.210   9.632
  238POPC   PO4 7176  44.588  32.582   9.494
  238POPC   GL1 7177  44.626  32.906   9.170
  238POPC   GL2 7178  44.854  33.167   9.080
  238POPC   C1A 7179  44.454  32.989   8.758
  238POPC   D2A 7180  44.599  32.970   8.345
  238POPC   C3A 7181  44.571  32.811   7.932
  238POPC   C4A 7182  44.784  33.117   7.704
  238POPC   C1B 7183  44.706  33.424   8.688
  238POPC   C2B 7184  44.311  33.383   8.389
  238POPC   C3B 7185  44.300  33.250   7.952
  238POPC   C4B 7186  44.377  33.350   7.516
  239POPC   NC3 7187  10.357  38.254   9.421
  239POPC   PO4 7188  10.920  38.567   9.565
  239POPC   GL1 7189  10.810  38.332   9.151
  239POPC   GL2 7190  10.515  38.467   8.979
  239POPC   C1A 7191  10.846  38.213   8.695
  239POPC   D2A 7192  10.550  38.417   8.369
  239POPC   C3A 7193  10.677  38.491   7.926
  239POPC   C4A 7194  10.618  38.444   7.475
  239POPC   C1B 7195  10.291  38.187   8.740
  239POPC   C2B 7196  10.034  38.130   8.403
  239POPC   C3B 7197  10.218  38.163   7.992
  239POPC   C4B 7198  10.202  38.140   7.546
  240POPC   NC3 7199  33.582  21.287   9.561
  240POPC   PO4 7200  34.090  20.939   9.714
  240POPC   GL1 7201  34.007  21.226   9.263
  240POPC   GL2 7202  33.619  21.277   9.067
  240POPC   C1A 7203  34.017  21.523   8.871
  240POPC   D2A 7204  33.915  21.768   8.474
  240POPC   C3A 7205  33.955  21.520   8.077
  240POPC   C4A 7206  33.853  21.439   7.625
  240POPC   C1B 7207  33.551  21.398   8.618
  240POPC   C2B 7208  33.496  21.291   8.169
  240POPC   C3B 7209  33.510  20.908   7.904
  240POPC   C4B 7210  33.481  20.859   7.443
  241POPC   NC3 7211  14.987  31.826   9.578
  241POPC   PO4 7212  15.506  31.395   9.475
  241POPC   GL1 7213  15.204  31.316   9.177
  241POPC   GL2 7214  15.419  31.087   9.029
  241POPC   C1A 7215  14.971  31.532   8.837
  241POPC   D2A 7216  14.808  31.601   8.431
  241POPC   C3A 7217  15.005  31.553   8.039
  241POPC   C4A 7218  15.124  31.634   7.622
  241POPC   C1B 7219  15.447  31.402   8.717
  241POPC   C2B 7220  15.250  31.294   8.400
  241POPC   C3B 7221  15.304  31.106   8.016
  241POPC   C4B 7222  15.015  31.142   7.709
  242POPC   NC3 7223  12.915  44.149   9.444
  242POPC   PO4 7224  12.586  43.518   9.459
  242POPC   GL1 7225  12.771  43.795   9.082
  242POPC   GL2 7226  13.054  44.096   8.973
  242POPC   C1A 7227  12.841  43.810   8.636
  242POPC   D2A 7228  12.729  43.974   8.245
  242POPC   C3A 7229  12.896  43.721   7.909
  242POPC   C4A 7230  12.905  43.556   7.495
  242POPC   C1B 7231  12.615  44.248   8.806
  242POPC   C2B 7232  12.347  44.322   8.408
  242POPC   C3B 7233  12.568  44.401   7.989
  242POPC   C4B 7234  12.968  44.216   7.820
  243POPC   NC3 7235  37.880   5.348   9.712
  243POPC   PO4 7236  37.614   4.781   9.567
  243POPC   GL1 7237  37.655   5.126   9.297
  243POPC   GL2 7238  38.002   5.017   9.272
  243POPC   C1A 7239  37.429   5.323   8.937
  243POPC   D2A 7240  37.329   5.097   8.565
  243POPC   C3A 7241  37.492   5.183   8.165
  243POPC   C4A 7242  37.379   5.282   7.749
  243POPC   C1B 7243  37.912   5.226   8.865
  243POPC   C2B 7244  37.934   5.101   8.457
  243POPC   C3B 7245  37.935   4.887   8.092
  243POPC   C4B 7246  37.866   5.161   7.790
  244POPC   NC3 7247  24.502  14.793   9.412
  244POPC   PO4 7248  24.671  15.425   9.608
  244POPC   GL1 7249  24.672  15.219   9.217
  244POPC   GL2 7250  24.309  15.182   9.128
  244POPC   C1A 7251  24.667  15.059   8.786
  244POPC   D2A 7252  24.427  14.892   8.453
  244POPC   C3A 7253  24.657  15.034   8.103
  244POPC   C4A 7254  24.515  15.311   7.783
  244POPC   C1B 7255  24.444  15.577   8.940
  244POPC   C2B 7256  24.398  15.727   8.539
  244POPC   C3B 7257  24.266  15.680   8.104
  244POPC   C4B 7258  24.029  15.433   7.744
  245POPC   NC3 7259  41.164  23.633   9.584
  245POPC   PO4 7260  40.781  24.027   9.282
  245POPC   GL1 7261  40.837  23.605   9.177
  245POPC   GL2 7262  40.540  23.524   9.031
  245POPC   C1A 7263  41.032  23.400   8.833
  245POPC   D2A 7264  40.836  23.420   8.437
  245POPC   C3A 7265  41.086  23.510   8.120
  245POPC   C4A 7266  41.110  23.360   7.752
  245POPC   C1B 7267  40.716  23.833   8.698
  245POPC   C2B 7268  40.873  23.933   8.279
  245POPC   C3B 7269  40.703  23.715   7.869
  245POPC   C4B 7270  40.569  23.959   7.520
  246POPC   NC3 7271  11.520  26.527   9.393
  246POPC   PO4 7272  11.006  26.199   9.569
  246POPC   GL1 7273  11.101  26.022   9.167
  246POPC   GL2 7274  11.079  26.376   9.109
  246POPC   C1A 7275  11.318  25.982   8.722
  246POPC   D2A 7276  11.220  26.139   8.275
  246POPC   C3A 7277  11.180  25.862   7.896
  246POPC   C4A 7278  11.105  25.739   7.437
  246POPC   C1B 7279  11.192  26.480   8.757
  246POPC   C2B 7280  11.013  26.573   8.434
  246POPC   C3B 7281  11.066  26.589   8.025
  246POPC   C4B 7282  10.977  26.317   7.693
  247POPC   NC3 7283  27.930  21.725   9.314
  247POPC   PO4 7284  27.421  21.307   9.521
  247POPC   GL1 7285  27.567  21.052   9.178
  247POPC   GL2 7286  27.789  21.284   9.096
  247POPC   C1A 7287  27.515  20.925   8.754
  247POPC   D2A 7288  27.299  21.119   8.388
  247POPC   C3A 7289  27.412  21.044   8.001
  247POPC   C4A 7290  27.731  21.022   7.772
  247POPC   C1B 7291  27.704  21.375   8.660
  247POPC   C2B 7292  27.720  21.393   8.220
  247POPC   C3B 7293  28.005  21.546   7.956
  247POPC   C4B 7294  28.227  21.530   7.597
  248POPC   NC3 7295  20.546  37.627   9.547
  248POPC   PO4 7296  21.081  38.139   9.572
  248POPC   GL1 7297  20.848  37.945   9.245
  248POPC   GL2 7298  20.985  37.627   9.279
  248POPC   C1A 7299  20.639  37.860   8.836
  248POPC   D2A 7300  20.428  37.937   8.425
  248POPC   C3A 7301  20.593  37.769   8.010
  248POPC   C4A 7302  20.744  37.896   7.574
  248POPC   C1B 7303  20.977  37.431   8.899
  248POPC   C2B 7304  20.835  37.490   8.487
  248POPC   C3B 7305  20.952  37.385   8.077
  248POPC   C4B 7306  20.940  37.126   7.704
  249POPC   NC3 7307   5.557  37.635   9.446
  249POPC   PO4 7308   6.110  37.523   9.739
  249POPC   GL1 7309   6.013  37.577   9.239
  249POPC   GL2 7310   5.720  37.396   9.030
  249POPC   C1A 7311   6.132  37.627   8.820
  249POPC   D2A 7312   6.173  37.967   8.538
  249POPC   C3A 7313   6.236  37.771   8.139
  249POPC   C4A 7314   6.030  37.539   7.814
  249POPC   C1B 7315   5.655  37.798   8.768
  249POPC   C2B 7316   5.714  37.846   8.309
  249POPC   C3B 7317   5.598  37.833   7.861
  249POPC   C4B 7318   5.464  37.495   7.570
  250POPC   NC3 7319  44.893  17.250   9.641
  250POPC   PO4 7320  44.375  17.606   9.566
  250POPC   GL1 7321  44.595  17.436   9.188
  250POPC   GL2 7322  44.871  17.207   9.153
  250POPC   C1A 7323  44.797  17.625   8.793
  250POPC   D2A 7324  44.703  17.798   8.351
  250POPC   C3A 7325  44.853  17.634   7.969
  250POPC   C4A 7326  44.615  17.438   7.660
  250POPC   C1B 7327  44.723  17.122   8.771
  250POPC   C2B 7328  44.706  17.278   8.381
  250POPC   C3B 7329  44.685  17.088   8.009
  250POPC   C4B 7330  44.993  17.071   7.724
  251POPC   NC3 7331  26.495   4.946   9.427
  251POPC   PO4 7332  25.734   5.210   9.323
  251POPC   GL1 7333  26.010   4.994   9.058
  251POPC   GL2 7334  26.346   5.129   8.977
  251POPC   C1A 7335  26.000   5.052   8.607
  251POPC   D2A 7336  26.068   5.278   8.225
  251POPC   C3A 7337  25.827   5.217   7.914
  251POPC   C4A 7338  25.446   5.100   7.821
  251POPC   C1B 7339  26.339   4.698   8.774
  251POPC   C2B 7340  26.193   4.646   8.337
  251POPC   C3B 7341  26.221   4.879   7.949
  251POPC   C4B 7342  26.253   5.202   7.635
  252POPC   NC3 7343  16.819  13.294   9.469
  252POPC   PO4 7344  16.326  13.769   9.477
  252POPC   GL1 7345  16.635  13.707   9.165
  252POPC   GL2 7346  16.555  13.378   9.026
  252POPC   C1A 7347  16.817  13.753   8.763
  252POPC   D2A 7348  16.883  13.643   8.319
  252POPC   C3A 7349  16.857  13.953   8.015
  252POPC   C4A 7350  16.640  13.939   7.633
  252POPC   C1B 7351  16.446  13.456   8.582
  252POPC   C2B 7352  16.599  13.203   8.275
  252POPC   C3B 7353  16.791  13.309   7.915
  252POPC   C4B 7354  16.523  13.242   7.614
  253POPC   NC3 7355  16.265  43.414   9.502
  253POPC   PO4 7356  15.996  42.804   9.239
  253POPC   GL1 7357  16.079  43.178   9.069
  253POPC   GL2 7358  16.398  43.310   9.042
  253POPC   C1A 7359  16.075  43.109   8.657
  253POPC   D2A 7360  16.137  42.868   8.308
  253POPC   C3A 7361  15.831  42.917   8.029
  253POPC   C4A 7362  15.857  43.040   7.626
  253POPC   C1B 7363  16.317  43.587   8.740
  253POPC   C2B 7364  16.071  43.509   8.368
  253POPC   C3B 7365  16.166  43.290   7.984
  253POPC   C4B 7366  16.381  43.389   7.601
  254POPC   NC3 7367  34.905   9.944   9.454
  254POPC   PO4 7368  34.408   9.471   9.530
  254POPC   GL1 7369  34.490   9.750   9.176
  254POPC   GL2 7370  34.833   9.668   9.048
  254POPC   C1A 7371  34.498   9.919   8.735
  254POPC   D2A 7372  34.831   9.952   8.385
  254POPC   C3A 7373  34.674   9.944   7.934
  254POPC   C4A 7374  34.278   9.718   7.831
  254POPC   C1B 7375  34.790   9.518   8.654
  254POPC   C2B 7376  34.480   9.576   8.333
  254POPC   C3B 7377  34.801   9.489   8.095
  254POPC   C4B 7378  35.083   9.501   7.795
  255POPC   NC3 7379   6.748  29.557   9.330
  255POPC   PO4 7380   6.784  30.168   9.648
  255POPC   GL1 7381   6.491  30.062   9.308
  255POPC   GL2 7382   6.433  30.363   9.125
  255POPC   C1A 7383   6.371  29.898   8.887
  255POPC   D2A 7384   6.247  29.966   8.423
  255POPC   C3A 7385   6.457  29.867   8.002
  255POPC   C4A 7386   6.868  29.738   7.822
  255POPC   C1B 7387   6.624  30.295   8.696
  255POPC   C2B 7388   6.779  30.084   8.323
  255POPC   C3B 7389   6.881  30.237   7.926
  255POPC   C4B 7390   6.635  30.119   7.565
  256POPC   NC3 7391  32.582  21.278   9.596
  256POPC   PO4 7392  31.945  21.548   9.563
  256POPC   GL1 7393  32.213  21.495   9.228
  256POPC   GL2 7394  32.244  21.122   9.245
  256POPC   C1A 7395  32.215  21.645   8.803
  256POPC   D2A 7396  31.980  21.767   8.429
  256POPC   C3A 7397  32.145  21.569   8.072
  256POPC   C4A 7398  32.240  21.221   7.786
  256POPC   C1B 7399  32.407  21.152   8.848
  256POPC   C2B 7400  32.341  21.275   8.441
  256POPC   C3B 7401  32.619  21.337   8.130
  256POPC   C4B 7402  32.732  21.265   7.696
  257POPC   NC3 7403  13.118  14.487   9.567
  257POPC   PO4 7404  13.795  14.346   9.617
  257POPC   GL1 7405  13.538  14.270   9.217
  257POPC   GL2 7406  13.898  14.230   9.122
  257POPC   C1A 7407  13.418  14.509   8.792
  257POPC   D2A 7408  13.566  14.632   8.389
  257POPC   C3A 7409  13.323  14.496   8.048
  257POPC   C4A 7410  13.430  14.353   7.665
  257POPC   C1B 7411  13.888  14.369   8.730
  257POPC   C2B 7412  13.905  14.186   8.349
  257POPC   C3B 7413  13.819  14.394   8.005
  257POPC   C4B 7414  13.914  14.404   7.606
  258POPC   NC3 7415  36.729  27.281   9.432
  258POPC   PO4 7416  36.980  27.931   9.454
  258POPC   GL1 7417  37.077  27.709   9.065
  258POPC   GL2 7418  37.153  27.357   9.080
  258POPC   C1A 7419  36.910  27.537   8.665
  258POPC   D2A 7420  36.884  27.247   8.315
  258POPC   C3A 7421  36.650  27.348   7.932
  258POPC   C4A 7422  36.716  27.744   7.721
  258POPC   C1B 7423  37.411  27.312   8.720
  258POPC   C2B 7424  37.400  27.408   8.271
  258POPC   C3B 7425  37.143  27.540   7.929
  258POPC   C4B 7426  37.032  27.311   7.544
  259POPC   NC3 7427   1.908   0.608   9.607
  259POPC   PO4 7428   2.321   0.306   9.221
  259POPC   GL1 7429   2.148   0.616   9.011
  259POPC   GL2 7430   1.785   0.653   9.123
  259POPC   C1A 7431   2.285   0.709   8.597
  259POPC   D2A 7432   2.214   0.401   8.240
  259POPC   C3A 7433   2.139   0.498   7.802
  259POPC   C4A 7434   1.961   0.834   7.575
  259POPC   C1B 7435   1.743   0.305   8.828
  259POPC   C2B 7436   1.529   0.307   8.439
  259POPC   C3B 7437   1.703   0.398   8.053
  259POPC   C4B 7438   1.604   0.249   7.638
  260POPC   NC3 7439  40.570  29.632   9.500
  260POPC   PO4 7440  41.083  30.122   9.533
  260POPC   GL1 7441  40.886  29.911   9.189
  260POPC   GL2 7442  40.545  30.061   9.226
  260POPC   C1A 7443  40.993  29.991   8.768
  260POPC   D2A 7444  40.961  30.268   8.431
  260POPC   C3A 7445  40.962  30.005   8.061
  260POPC   C4A 7446  41.247  29.707   7.932
  260POPC   C1B 7447  40.476  29.865   8.836
  260POPC   C2B 7448  40.614  29.871   8.435
  260POPC   C3B 7449  40.406  29.870   8.071
  260POPC   C4B 7450  40.592  30.017   7.713
  261POPC   NC3 7451  30.152  12.347   9.353
  261POPC   PO4 7452  30.409  11.866   9.741
  261POPC   GL1 7453  30.208  11.805   9.262
  261POPC   GL2 7454  29.903  11.984   9.109
  261POPC   C1A 7455  30.282  11.939   8.767
  261POPC   D2A 7456  30.054  12.040   8.412
  261POPC   C3A 7457  30.123  12.280   8.063
  261POPC   C4A 7458  30.022  12.128   7.697
  261POPC   C1B 7459  29.708  12.198   8.755
  261POPC   C2B 7460  29.598  12.303   8.332
  261POPC   C3B 7461  29.572  12.123   7.935
  261POPC   C4B 7462  29.650  11.704   7.752
  262POPC   NC3 7463  41.739  39.953   9.528
  262POPC   PO4 7464  41.373  39.554   9.408
  262POPC   GL1 7465  41.398  39.793   9.030
  262POPC   GL2 7466  41.529  40.108   9.082
  262POPC   C1A 7467  41.330  39.942   8.623
  262POPC   D2A 7468  41.521  40.267   8.397
  262POPC   C3A 7469  41.465  40.237   7.984
  262POPC   C4A 7470  41.839  40.188   7.752
  262POPC   C1B 7471  41.839  40.036   8.728
  262POPC   C2B 7472  41.846  39.910   8.269
  262POPC   C3B 7473  41.628  39.745   7.910
  262POPC   C4B 7474  41.640  39.776   7.452
  263POPC   NC3 7475   4.580   1.113   9.522
  263POPC   PO4 7476   3.936   1.067   9.404
  263POPC   GL1 7477   4.228   1.189   9.072
  263POPC   GL2 7478   4.521   1.008   9.037
  263POPC   C1A 7479   4.334   1.338   8.628
  263POPC   D2A 7480   4.316   1.207   8.198
  263POPC   C3A 7481   4.200   1.485   7.826
  263POPC   C4A 7482   4.090   1.668   7.415
  263POPC   C1B 7483   4.312   0.837   8.706
  263POPC   C2B 7484   3.997   0.897   8.465
  263POPC   C3B 7485   4.157   0.732   8.095
  263POPC   C4B 7486   4.286   0.976   7.753
  264POPC   NC3 7487  43.763  41.016   9.832
  264POPC   PO4 7488  44.085  40.471   9.558
  264POPC   GL1 7489  43.812  40.727   9.265
  264POPC   GL2 7490  43.623  40.490   9.091
  264POPC   C1A 7491  43.680  40.946   8.856
  264POPC   D2A 7492  43.902  40.923   8.430
  264POPC   C3A 7493  43.696  41.016   8.021
  264POPC   C4A 7494  43.878  40.822   7.653
  264POPC   C1B 7495  43.955  40.518   8.816
  264POPC   C2B 7496  44.003  40.411   8.429
  264POPC   C3B 7497  43.868  40.540   8.068
  264POPC   C4B 7498  43.548  40.462   7.761
  265POPC   NC3 7499  25.840  32.253   9.687
  265POPC   PO4 7500  26.293  31.940   9.316
  265POPC   GL1 7501  26.009  32.246   9.154
  265POPC   GL2 7502  25.888  32.560   8.940
  265POPC   C1A 7503  26.004  32.125   8.731
  265POPC   D2A 7504  25.894  32.365   8.385
  265POPC   C3A 7505  25.855  32.134   8.017
  265POPC   C4A 7506  25.953  32.055   7.619
  265POPC   C1B 7507  26.278  32.589   8.689
  265POPC   C2B 7508  26.491  32.580   8.269
  265POPC   C3B 7509  26.298  32.389   7.883
  265POPC   C4B 7510  26.130  32.520   7.477
  266POPC   NC3 7511   1.556  34.783   9.455
  266POPC   PO4 7512   2.252  34.663   9.372
  266POPC   GL1 7513   1.953  34.758   9.121
  266POPC   GL2 7514   1.794  34.433   9.090
  266POPC   C1A 7515   2.019  34.678   8.693
  266POPC   D2A 7516   1.765  34.710   8.378
  266POPC   C3A 7517   2.003  34.799   8.044
  266POPC   C4A 7518   1.924  34.708   7.640
  266POPC   C1B 7519   1.769  34.243   8.663
  266POPC   C2B 7520   2.017  34.309   8.250
  266POPC   C3B 7521   1.865  34.192   7.850
  266POPC   C4B 7522   1.623  34.273   7.471
  267POPC   NC3 7523  44.624   6.177   9.495
  267POPC   PO4 7524  43.979   5.715   9.535
  267POPC   GL1 7525  43.941   5.891   9.163
  267POPC   GL2 7526  44.292   5.959   9.169
  267POPC   C1A 7527  43.834   5.796   8.751
  267POPC   D2A 7528  43.894   6.050   8.368
  267POPC   C3A 7529  43.862   5.772   8.048
  267POPC   C4A 7530  43.599   5.683   7.727
  267POPC   C1B 7531  44.150   6.198   8.807
  267POPC   C2B 7532  44.338   6.317   8.443
  267POPC   C3B 7533  44.227   6.371   8.013
  267POPC   C4B 7534  43.984   6.122   7.707
  268POPC   NC3 7535  33.480   3.787   9.462
  268POPC   PO4 7536  33.962   3.337   9.729
  268POPC   GL1 7537  33.969   3.343   9.225
  268POPC   GL2 7538  33.620   3.421   9.116
  268POPC   C1A 7539  34.003   3.545   8.784
  268POPC   D2A 7540  33.711   3.416   8.432
  268POPC   C3A 7541  33.789   3.293   8.009
  268POPC   C4A 7542  33.851   3.404   7.567
  268POPC   C1B 7543  33.530   3.722   8.788
  268POPC   C2B 7544  33.549   3.895   8.375
  268POPC   C3B 7545  33.654   3.777   7.959
  268POPC   C4B 7546  33.597   3.867   7.540
  269POPC   NC3 7547   6.784  38.751   9.516
  269POPC   PO4 7548   6.425  38.342   9.467
  269POPC   GL1 7549   6.669  38.459   9.118
  269POPC   GL2 7550   6.494  38.710   9.085
  269POPC   C1A 7551   6.717  38.453   8.663
  269POPC   D2A 7552   6.446  38.335   8.298
  269POPC   C3A 7553   6.628  38.313   7.888
  269POPC   C4A 7554   6.682  38.610   7.556
  269POPC   C1B 7555   6.253  38.636   8.715
  269POPC   C2B 7556   6.246  38.814   8.284
  269POPC   C3B 7557   6.200  38.607   7.842
  269POPC   C4B 7558   6.224  38.453   7.385
  270POPC   NC3 7559  17.733   2.223   9.398
  270POPC   PO4 7560  17.067   1.936   9.554
  270POPC   GL1 7561  17.324   1.991   9.144
  270POPC   GL2 7562  17.599   1.796   9.134
  270POPC   C1A 7563  17.564   2.183   8.742
  270POPC   D2A 7564  17.753   2.373   8.323
  270POPC   C3A 7565  17.515   2.193   7.964
  270POPC   C4A 7566  17.209   2.224   7.625
  270POPC   C1B 7567  17.825   1.725   8.747
  270POPC   C2B 7568  17.787   1.873   8.321
  270POPC   C3B 7569  17.877   1.789   7.891
  270POPC   C4B 7570  18.034   1.426   7.712
  271POPC   NC3 7571  32.040  24.772   9.316
  271POPC   PO4 7572  32.281  24.122   9.465
  271POPC   GL1 7573  32.265  24.342   9.087
  271POPC   GL2 7574  32.616  24.272   9.037
  271POPC   C1A 7575  32.030  24.530   8.723
  271POPC   D2A 7576  32.081  24.841   8.403
  271POPC   C3A 7577  32.046  24.536   8.097
  271POPC   C4A 7578  31.982  24.493   7.682
  271POPC   C1B 7579  32.509  24.346   8.602
  271POPC   C2B 7580  32.573  24.639   8.252
  271POPC   C3B 7581  32.452  24.685   7.809
  271POPC   C4B 7582  32.486  24.275   7.572
  272POPC   NC3 7583  39.607  26.011   9.691
  272POPC   PO4 7584  38.993  25.982   9.487
  272POPC   GL1 7585  39.172  26.068   9.085
  272POPC   GL2 7586  39.525  26.181   9.183
  272POPC   C1A 7587  39.192  26.145   8.627
  272POPC   D2A 7588  39.346  26.466   8.346
  272POPC   C3A 7589  39.342  26.319   7.928
  272POPC   C4A 7590  39.152  25.958   7.756
  272POPC   C1B 7591  39.585  25.875   8.821
  272POPC   C2B 7592  39.604  25.986   8.343
  272POPC   C3B 7593  39.607  25.799   7.911
  272POPC   C4B 7594  39.559  25.782   7.434
  273POPC   NC3 7595  37.670   1.492   9.590
  273POPC   PO4 7596  37.705   0.853   9.443
  273POPC   GL1 7597  37.794   1.224   9.167
  273POPC   GL2 7598  37.446   1.391   9.137
  273POPC   C1A 7599  37.978   1.244   8.743
  273POPC   D2A 7600  37.792   1.002   8.404
  273POPC   C3A 7601  37.857   1.251   8.043
  273POPC   C4A 7602  37.931   1.049   7.679
  273POPC   C1B 7603  37.474   1.302   8.708
  273POPC   C2B 7604  37.363   1.276   8.292
  273POPC   C3B 7605  37.396   1.092   7.932
  273POPC   C4B 7606  37.510   1.282   7.596
  274POPC   NC3 7607   8.438   1.041   9.457
  274POPC   PO4 7608   7.927   0.780   9.772
  274POPC   GL1 7609   7.960   1.103   9.319
  274POPC   GL2 7610   8.161   1.410   9.241
  274POPC   C1A 7611   8.075   1.116   8.821
  274POPC   D2A 7612   7.939   1.070   8.350
  274POPC   C3A 7613   8.171   0.907   7.966
  274POPC   C4A 7614   8.093   1.030   7.525
  274POPC   C1B 7615   8.330   1.549   8.831
  274POPC   C2B 7616   8.352   1.369   8.394
  274POPC   C3B 7617   8.182   1.410   7.961
  274POPC   C4B 7618   8.305   1.497   7.531
  275POPC   NC3 7619  15.914   0.827   9.521
  275POPC   PO4 7620  16.155   1.438   9.513
  275POPC   GL1 7621  16.177   1.163   9.170
  275POPC   GL2 7622  15.858   1.112   9.083
  275POPC   C1A 7623  16.224   1.268   8.718
  275POPC   D2A 7624  16.054   1.047   8.351
  275POPC   C3A 7625  15.840   1.209   8.010
  275POPC   C4A 7626  16.170   1.100   7.760
  275POPC   C1B 7627  15.658   1.017   8.664
  275POPC   C2B 7628  15.591   0.822   8.237
  275POPC   C3B 7629  15.820   0.726   7.843
  275POPC   C4B 7630  15.782   0.934   7.435
  276POPC   NC3 7631   4.897  21.537   9.608
  276POPC   PO4 7632   5.249  20.926   9.424
  276POPC   GL1 7633   5.220  21.277   9.166
  276POPC   GL2 7634   4.945  21.518   9.098
  276POPC   C1A 7635   5.168  21.260   8.737
  276POPC   D2A 7636   4.938  21.412   8.421
  276POPC   C3A 7637   5.233  21.330   8.143
  276POPC   C4A 7638   5.143  20.990   7.871
  276POPC   C1B 7639   4.790  21.766   8.766
  276POPC   C2B 7640   4.501  21.705   8.396
  276POPC   C3B 7641   4.639  21.690   7.971
  276POPC   C4B 7642   4.989  21.500   7.748
  277POPC   NC3 7643  22.185  18.907   9.420
  277POPC   PO4 7644  22.366  18.327   9.688
  277POPC   GL1 7645  22.277  18.163   9.270
  277POPC   GL2 7646  22.110  18.462   9.160
  277POPC   C1A 7647  22.139  18.048   8.861
  277POPC   D2A 7648  22.035  18.182   8.449
  277POPC   C3A 7649  21.987  17.859   8.134
  277POPC   C4A 7650  21.902  17.917   7.691
  277POPC   C1B 7651  22.362  18.557   8.807
  277POPC   C2B 7652  22.444  18.484   8.395
  277POPC   C3B 7653  22.306  18.577   7.977
  277POPC   C4B 7654  22.152  18.347   7.648
  278POPC   NC3 7655  32.261  40.249   9.457
  278POPC   PO4 7656  32.654  39.634   9.499
  278POPC   GL1 7657  32.441  39.848   9.157
  278POPC   GL2 7658  32.122  39.701   8.977
  278POPC   C1A 7659  32.350  40.102   8.790
  278POPC   D2A 7660  32.075  39.889   8.477
  278POPC   C3A 7661  32.116  40.087   8.099
  278POPC   C4A 7662  32.093  40.309   7.731
  278POPC   C1B 7663  32.416  39.571   8.718
  278POPC   C2B 7664  32.381  39.420   8.320
  278POPC   C3B 7665  32.180  39.592   7.988
  278POPC   C4B 7666  32.337  39.669   7.569
  279POPC   NC3 7667  16.184  27.256   9.551
  279POPC   PO4 7668  16.735  27.073   9.384
  279POPC   GL1 7669  16.424  27.356   9.090
  279POPC   GL2 7670  16.478  27.735   9.030
  279POPC   C1A 7671  16.479  27.367   8.615
  279POPC   D2A 7672  16.772  27.262   8.225
  279POPC   C3A 7673  16.620  27.130   7.794
  279POPC   C4A 7674  16.607  27.227   7.337
  279POPC   C1B 7675  16.472  27.874   8.546
  279POPC   C2B 7676  16.505  27.680   8.112
  279POPC   C3B 7677  16.715  27.627   7.701
  279POPC   C4B 7678  16.878  27.973   7.429
  280POPC   NC3 7679  38.050   4.507   9.457
  280POPC   PO4 7680  37.609   4.000   9.389
  280POPC   GL1 7681  37.763   4.237   9.070
  280POPC   GL2 7682  37.636   4.540   9.126
  280POPC   C1A 7683  37.658   4.243   8.617
  280POPC   D2A 7684  37.406   4.176   8.217
  280POPC   C3A 7685  37.636   4.188   7.806
  280POPC   C4A 7686  37.883   4.096   7.427
  280POPC   C1B 7687  37.672   4.754   8.744
  280POPC   C2B 7688  37.520   4.681   8.303
  280POPC   C3B 7689  37.522   4.717   7.819
  280POPC   C4B 7690  37.571   4.516   7.378
  281POPC   NC3 7691  42.126   3.360   9.637
  281POPC   PO4 7692  42.693   3.455   9.265
  281POPC   GL1 7693  42.272   3.419   9.123
  281POPC   GL2 7694  42.225   3.714   8.938
  281POPC   C1A 7695  42.036   3.267   8.752
  281POPC   D2A 7696  42.226   3.052   8.383
  281POPC   C3A 7697  42.406   3.281   8.030
  281POPC   C4A 7698  42.739   3.236   7.723
  281POPC   C1B 7699  42.624   3.703   8.671
  281POPC   C2B 7700  42.702   3.646   8.228
  281POPC   C3B 7701  42.573   3.756   7.821
  281POPC   C4B 7702  42.156   3.898   7.776
  282POPC   NC3 7703  24.680  25.290   9.471
  282POPC   PO4 7704  24.212  24.880   9.563
  282POPC   GL1 7705  24.389  25.007   9.168
  282POPC   GL2 7706  24.660  24.795   9.087
  282POPC   C1A 7707  24.522  25.220   8.751
  282POPC   D2A 7708  24.562  25.392   8.305
  282POPC   C3A 7709  24.406  25.261   7.868
  282POPC   C4A 7710  24.347  25.459   7.396
  282POPC   C1B 7711  24.315  24.746   8.745
  282POPC   C2B 7712  24.306  24.897   8.350
  282POPC   C3B 7713  24.701  24.928   8.167
  282POPC   C4B 7714  24.711  24.867   7.748
  283POPC   NC3 7715  10.932  33.120   9.315
  283POPC   PO4 7716  11.604  33.259   9.483
  283POPC   GL1 7717  11.623  33.077   9.090
  283POPC   GL2 7718  11.428  33.329   8.945
  283POPC   C1A 7719  11.605  32.950   8.658
  283POPC   D2A 7720  11.488  33.200   8.317
  283POPC   C3A 7721  11.701  33.050   7.992
  283POPC   C4A 7722  11.645  32.671   7.795
  283POPC   C1B 7723  11.112  33.090   8.696
  283POPC   C2B 7724  11.049  32.846   8.326
  283POPC   C3B 7725  11.163  32.952   7.914
  283POPC   C4B 7726  11.328  33.355   7.807
  284POPC   NC3 7727  37.864  26.819   9.621
  284POPC   PO4 7728  37.213  27.037   9.457
  284POPC   GL1 7729  37.604  26.990   9.199
  284POPC   GL2 7730  37.765  26.642   9.161
  284POPC   C1A 7731  37.820  26.975   8.791
  284POPC   D2A 7732  37.801  27.118   8.386
  284POPC   C3A 7733  37.668  26.875   8.056
  284POPC   C4A 7734  37.631  26.761   7.641
  284POPC   C1B 7735  37.941  26.461   8.801
  284POPC   C2B 7736  38.055  26.665   8.394
  284POPC   C3B 7737  38.003  26.488   7.978
  284POPC   C4B 7738  38.100  26.603   7.543
  285POPC   NC3 7739  42.536  20.850   9.454
  285POPC   PO4 7740  41.970  20.494   9.448
  285POPC   GL1 7741  42.200  20.580   9.097
  285POPC   GL2 7742  42.531  20.406   9.167
  285POPC   C1A 7743  42.109  20.726   8.676
  285POPC   D2A 7744  41.991  20.732   8.257
  285POPC   C3A 7745  42.287  20.731   7.924
  285POPC   C4A 7746  42.292  20.938   7.524
  285POPC   C1B 7747  42.627  20.604   8.804
  285POPC   C2B 7748  42.585  20.604   8.386
  285POPC   C3B 7749  42.755  20.847   8.094
  285POPC   C4B 7750  42.751  20.763   7.674
  286POPC   NC3 7751  20.828  20.839   9.649
  286POPC   PO4 7752  20.350  20.340   9.547
  286POPC   GL1 7753  20.415  20.731   9.243
  286POPC   GL2 7754  20.744  20.883   9.154
  286POPC   C1A 7755  20.426  20.784   8.762
  286POPC   D2A 7756  20.548  20.514   8.442
  286POPC   C3A 7757  20.647  20.589   8.008
  286POPC   C4A 7758  20.437  20.902   7.735
  286POPC   C1B 7759  20.916  20.789   8.754
  286POPC   C2B 7760  20.780  20.953   8.359
  286POPC   C3B 7761  20.906  21.017   7.931
  286POPC   C4B 7762  20.900  21.020   7.486
  287POPC   NC3 7763   5.871  35.758   9.335
  287POPC   PO4 7764   5.661  35.077   9.456
  287POPC   GL1 7765   5.705  35.339   9.089
  287POPC   GL2 7766   5.435  35.569   9.158
  287POPC   C1A 7767   5.923  35.324   8.682
  287POPC   D2A 7768   5.888  35.000   8.365
  287POPC   C3A 7769   5.576  35.048   8.060
  287POPC   C4A 7770   5.805  35.259   7.758
  287POPC   C1B 7771   5.510  35.652   8.722
  287POPC   C2B 7772   5.774  35.679   8.311
  287POPC   C3B 7773   5.881  35.768   7.847
  287POPC   C4B 7774   5.691  35.643   7.420
  288POPC   NC3 7775   3.302  10.694   9.452
  288POPC   PO4 7776   3.610  10.218   9.653
  288POPC   GL1 7777   3.460  10.232   9.194
  288POPC   GL2 7778   3.691  10.427   8.985
  288POPC   C1A 7779   3.274  10.215   8.751
  288POPC   D2A 7780   3.242  10.051   8.315
  288POPC   C3A 7781   3.347  10.281   7.917
  288POPC   C4A 7782   3.368  10.389   7.476
  288POPC   C1B 7783   4.027  10.383   8.629
  288POPC   C2B 7784   4.000  10.455   8.167
  288POPC   C3B 7785   3.772  10.622   7.775
  288POPC   C4B 7786   3.625  10.826   7.354
  289POPC   NC3 7787  10.224  12.223   9.804
  289POPC   PO4 7788  10.747  11.863   9.563
  289POPC   GL1 7789  10.445  12.039   9.173
  289POPC   GL2 7790  10.147  12.012   9.045
  289POPC   C1A 7791  10.455  12.330   8.792
  289POPC   D2A 7792  10.700  12.284   8.424
  289POPC   C3A 7793  10.556  12.056   8.074
  289POPC   C4A 7794  10.613  12.318   7.720
  289POPC   C1B 7795  10.351  11.791   8.672
  289POPC   C2B 7796  10.153  11.752   8.238
  289POPC   C3B 7797  10.047  11.791   7.773
  289POPC   C4B 7798  10.376  11.914   7.506
  290POPC   NC3 7799  37.072  26.650   9.720
  290POPC   PO4 7800  36.967  26.070   9.384
  290POPC   GL1 7801  37.106  25.927   9.005
  290POPC   GL2 7802  37.065  26.264   8.909
  290POPC   C1A 7803  36.890  25.879   8.625
  290POPC   D2A 7804  36.726  26.191   8.392
  290POPC   C3A 7805  36.553  26.041   8.059
  290POPC   C4A 7806  36.593  25.820   7.706
  290POPC   C1B 7807  37.157  26.420   8.536
  290POPC   C2B 7808  37.228  26.080   8.280
  290POPC   C3B 7809  37.053  25.995   7.905
  290POPC   C4B 7810  37.204  26.203   7.567
  291POPC   NC3 7811  30.506  41.664   9.682
  291POPC   PO4 7812  31.027  42.011   9.522
  291POPC   GL1 7813  30.851  41.680   9.272
  291POPC   GL2 7814  30.509  41.730   9.175
  291POPC   C1A 7815  30.861  41.627   8.817
  291POPC   D2A 7816  30.894  41.733   8.377
  291POPC   C3A 7817  30.912  41.317   8.147
  291POPC   C4A 7818  30.966  41.315   7.685
  291POPC   C1B 7819  30.347  41.562   8.774
  291POPC   C2B 7820  30.469  41.445   8.358
  291POPC   C3B 7821  30.593  41.645   7.923
  291POPC   C4B 7822  30.616  41.859   7.476
  292POPC   NC3 7823  41.763   2.101   9.577
  292POPC   PO4 7824  41.153   2.358   9.359
  292POPC   GL1 7825  41.444   2.121   9.066
  292POPC   GL2 7826  41.802   2.073   9.077
  292POPC   C1A 7827  41.435   2.047   8.628
  292POPC   D2A 7828  41.257   1.854   8.300
  292POPC   C3A 7829  41.590   1.917   8.055
  292POPC   C4A 7830  41.552   2.026   7.674
  292POPC   C1B 7831  41.738   1.716   8.824
  292POPC   C2B 7832  41.716   1.531   8.406
  292POPC   C3B 7833  41.816   1.447   8.001
  292POPC   C4B 7834  41.902   1.649   7.597
  293POPC   NC3 7835  32.629   6.167   9.725
  293POPC   PO4 7836  33.225   5.773   9.538
  293POPC   GL1 7837  33.069   5.649   9.118
  293POPC   GL2 7838  32.773   5.837   8.985
  293POPC   C1A 7839  33.189   5.694   8.721
  293POPC   D2A 7840  33.230   5.587   8.313
  293POPC   C3A 7841  33.379   5.807   7.968
  293POPC   C4A 7842  33.313   6.203   7.791
  293POPC   C1B 7843  32.691   5.487   8.811
  293POPC   C2B 7844  32.752   5.705   8.461
  293POPC   C3B 7845  32.763   5.587   8.086
  293POPC   C4B 7846  32.597   5.744   7.734
  294POPC   NC3 7847  11.897  37.540   9.503
  294POPC   PO4 7848  12.378  37.958   9.476
  294POPC   GL1 7849  12.086  37.891   9.141
  294POPC   GL2 7850  11.712  37.932   9.164
  294POPC   C1A 7851  12.171  37.970   8.734
  294POPC   D2A 7852  12.289  38.162   8.338
  294POPC   C3A 7853  12.277  37.841   7.988
  294POPC   C4A 7854  12.128  37.451   7.720
  294POPC   C1B 7855  11.766  37.633   8.797
  294POPC   C2B 7856  11.956  37.595   8.376
  294POPC   C3B 7857  11.770  37.711   7.984
  294POPC   C4B 7858  11.534  37.534   7.662
  295POPC   NC3 7859  14.226  34.879   9.455
  295POPC   PO4 7860  14.564  34.320   9.587
  295POPC   GL1 7861  14.538  34.552   9.192
  295POPC   GL2 7862  14.849  34.618   9.059
  295POPC   C1A 7863  14.417  34.744   8.763
  295POPC   D2A 7864  14.150  34.689   8.381
  295POPC   C3A 7865  14.385  34.753   8.012
  295POPC   C4A 7866  14.304  34.616   7.580
  295POPC   C1B 7867  14.681  34.307   8.747
  295POPC   C2B 7868  14.518  34.358   8.368
  295POPC   C3B 7869  14.660  34.323   8.004
  295POPC   C4B 7870  14.615  34.203   7.610
  296POPC   NC3 7871  17.243   6.219   9.351
  296POPC   PO4 7872  17.837   6.109   9.533
  296POPC   GL1 7873  17.889   6.343   9.120
  296POPC   GL2 7874  17.794   6.678   9.176
  296POPC   C1A 7875  17.608   6.455   8.724
  296POPC   D2A 7876  17.439   6.715   8.334
  296POPC   C3A 7877  17.498   6.537   7.906
  296POPC   C4A 7878  17.408   6.694   7.487
  296POPC   C1B 7879  18.014   6.752   8.762
  296POPC   C2B 7880  17.934   6.620   8.337
  296POPC   C3B 7881  17.935   6.810   7.934
  296POPC   C4B 7882  17.896   6.563   7.556
  297POPC   NC3 7883  20.996   4.624   9.298
  297POPC   PO4 7884  21.604   4.338   9.578
  297POPC   GL1 7885  21.418   4.332   9.160
  297POPC   GL2 7886  21.107   4.137   9.113
  297POPC   C1A 7887  21.575   4.247   8.740
  297POPC   D2A 7888  21.719   4.517   8.392
  297POPC   C3A 7889  21.646   4.321   7.989
  297POPC   C4A 7890  21.438   4.120   7.657
  297POPC   C1B 7891  21.034   4.306   8.697
  297POPC   C2B 7892  21.197   4.214   8.286
  297POPC   C3B 7893  21.144   4.456   7.927
  297POPC   C4B 7894  20.921   4.442   7.562
  298POPC   NC3 7895  28.202  18.306   9.564
  298POPC   PO4 7896  28.885  18.237   9.567
  298POPC   GL1 7897  28.559  18.201   9.209
  298POPC   GL2 7898  28.378  18.520   9.100
  298POPC   C1A 7899  28.291  18.121   8.833
  298POPC   D2A 7900  28.061  18.215   8.490
  298POPC   C3A 7901  28.090  18.365   8.087
  298POPC   C4A 7902  28.032  18.085   7.751
  298POPC   C1B 7903  28.392  18.621   8.646
  298POPC   C2B 7904  28.554  18.325   8.338
  298POPC   C3B 7905  28.532  18.196   7.886
  298POPC   C4B 7906  28.352  18.413   7.511
  299POPC   NC3 7907  34.128  40.341   9.357
  299POPC   PO4 7908  34.333  39.792   9.694
  299POPC   GL1 7909  33.971  39.883   9.193
  299POPC   GL2 7910  33.980  39.568   8.943
  299POPC   C1A 7911  33.656  39.860   8.761
  299POPC   D2A 7912  33.619  39.899   8.309
  299POPC   C3A 7913  33.774  40.257   8.120
  299POPC   C4A 7914  33.770  40.400   7.712
  299POPC   C1B 7915  34.150  39.962   8.732
  299POPC   C2B 7916  34.191  39.988   8.314
  299POPC   C3B 7917  34.022  39.812   7.957
  299POPC   C4B 7918  34.090  39.823   7.518
  300POPC   NC3 7919  23.485  17.976   9.338
  300POPC   PO4 7920  24.025  18.253   9.650
  300POPC   GL1 7921  23.824  18.420   9.250
  300POPC   GL2 7922  23.535  18.578   9.046
  300POPC   C1A 7923  23.942  18.348   8.824
  300POPC   D2A 7924  23.780  18.091   8.502
  300POPC   C3A 7925  23.792  18.280   8.092
  300POPC   C4A 7926  23.961  18.521   7.766
  300POPC   C1B 7927  23.394  18.410   8.640
  300POPC   C2B 7928  23.339  18.128   8.275
  300POPC   C3B 7929  23.349  18.131   7.857
  300POPC   C4B 7930  23.526  18.392   7.547
  301POPC   NC3 7931  15.652  11.122   9.454
  301POPC   PO4 7932  16.301  11.347   9.531
  301POPC   GL1 7933  16.072  11.308   9.171
  301POPC   GL2 7934  15.748  11.440   9.082
  301POPC   C1A 7935  16.147  11.445   8.769
  301POPC   D2A 7936  16.126  11.246   8.402
  301POPC   C3A 7937  16.023  11.436   8.067
  301POPC   C4A 7938  16.088  11.288   7.676
  301POPC   C1B 7939  15.644  11.331   8.648
  301POPC   C2B 7940  15.598  11.157   8.236
  301POPC   C3B 7941  15.618  11.210   7.807
  301POPC   C4B 7942  15.715  11.622   7.699
  302POPC   NC3 7943  32.451   1.650   9.599
  302POPC   PO4 7944  32.266   0.969   9.582
  302POPC   GL1 7945  32.298   1.017   9.164
  302POPC   GL2 7946  32.208   1.345   9.246
  302POPC   C1A 7947  32.202   1.009   8.719
  302POPC   D2A 7948  32.471   1.002   8.328
  302POPC   C3A 7949  32.273   1.001   7.926
  302POPC   C4A 7950  32.013   1.054   7.594
  302POPC   C1B 7951  32.424   1.457   8.883
  302POPC   C2B 7952  32.286   1.466   8.474
  302POPC   C3B 7953  32.428   1.489   8.068
  302POPC   C4B 7954  32.196   1.499   7.721
  303POPC   NC3 7955  12.428  12.999   9.414
  303POPC   PO4 7956  11.771  13.179   9.625
  303POPC   GL1 7957  11.777  13.112   9.172
  303POPC   GL2 7958  12.059  12.885   9.061
  303POPC   C1A 7959  11.803  13.208   8.719
  303POPC   D2A 7960  12.004  13.281   8.294
  303POPC   C3A 7961  11.830  13.048   7.903
  303POPC   C4A 7962  11.823  12.856   7.474
  303POPC   C1B 7963  12.347  12.776   8.694
  303POPC   C2B 7964  12.269  12.832   8.246
  303POPC   C3B 7965  12.180  12.664   7.847
  303POPC   C4B 7966  11.946  12.367   7.625
  304POPC   NC3 7967  38.392  44.943   9.608
  304POPC   PO4 7968  38.315  44.308   9.745
  304POPC   GL1 7969  38.529  44.550   9.314
  304POPC   GL2 7970  38.314  44.748   9.125
  304POPC   C1A 7971  38.565  44.446   8.831
  304POPC   D2A 7972  38.354  44.489   8.415
  304POPC   C3A 7973  38.604  44.528   8.041
  304POPC   C4A 7974  38.923  44.687   7.741
  304POPC   C1B 7975  38.438  44.937   8.702
  304POPC   C2B 7976  38.478   0.043   8.236
  304POPC   C3B 7977  38.460  44.941   7.779
  304POPC   C4B 7978  38.233  44.666   7.477
  305POPC   NC3 7979  19.103  42.031   9.581
  305POPC   PO4 7980  18.528  42.332   9.881
  305POPC   GL1 7981  18.741  42.333   9.351
  305POPC   GL2 7982  19.084  42.244   9.102
  305POPC   C1A 7983  18.687  42.455   8.866
  305POPC   D2A 7984  18.856  42.203   8.490
  305POPC   C3A 7985  18.991  42.402   8.098
  305POPC   C4A 7986  18.919  42.575   7.698
  305POPC   C1B 7987  19.338  42.260   8.666
  305POPC   C2B 7988  19.444  42.206   8.175
  305POPC   C3B 7989  19.260  42.136   7.706
  305POPC   C4B 7990  19.477  42.118   7.267
  306POPC   NC3 7991  24.812  29.476   9.497
  306POPC   PO4 7992  24.434  28.942   9.572
  306POPC   GL1 7993  24.493  29.134   9.157
  306POPC   GL2 7994  24.635  29.462   9.032
  306POPC   C1A 7995  24.451  29.144   8.698
  306POPC   D2A 7996  24.351  29.380   8.328
  306POPC   C3A 7997  24.580  29.212   7.979
  306POPC   C4A 7998  24.445  28.988   7.628
  306POPC   C1B 7999  24.865  29.685   8.721
  306POPC   C2B 8000  24.856  29.538   8.303
  306POPC   C3B 8001  24.880  29.667   7.879
  306POPC   C4B 8002  24.757  29.452   7.533
  307POPC   NC3 8003  31.622  12.618   9.729
  307POPC   PO4 8004  31.195  12.933   9.307
  307POPC   GL1 8005  31.396  12.800   9.043
  307POPC   GL2 8006  31.723  12.723   9.171
  307POPC   C1A 8007  31.286  12.732   8.652
  307POPC   D2A 8008  31.540  12.602   8.327
  307POPC   C3A 8009  31.300  12.789   8.011
  307POPC   C4A 8010  31.257  12.644   7.617
  307POPC   C1B 8011  31.782  12.967   8.765
  307POPC   C2B 8012  31.959  12.922   8.330
  307POPC   C3B 8013  31.807  12.811   7.903
  307POPC   C4B 8014  31.769  13.108   7.555
  308POPC   NC3 8015  18.810   5.631   9.549
  308POPC   PO4 8016  19.313   6.102   9.597
  308POPC   GL1 8017  19.158   6.195   9.182
  308POPC   GL2 8018  18.818   6.087   9.191
  308POPC   C1A 8019  19.152   6.011   8.758
  308POPC   D2A 8020  18.942   5.622   8.546
  308POPC   C3A 8021  19.019   5.691   8.093
  308POPC   C4A 8022  19.298   5.989   7.831
  308POPC   C1B 8023  18.649   5.964   8.803
  308POPC   C2B 8024  18.787   6.082   8.386
  308POPC   C3B 8025  18.789   6.157   7.940
  308POPC   C4B 8026  18.766   5.781   7.660
  309POPC   NC3 8027  38.011   3.766   9.453
  309POPC   PO4 8028  37.467   3.358   9.470
  309POPC   GL1 8029  37.613   3.382   9.043
  309POPC   GL2 8030  37.717   3.717   8.996
  309POPC   C1A 8031  37.857   3.395   8.655
  309POPC   D2A 8032  37.647   3.735   8.444
  309POPC   C3A 8033  37.589   3.609   8.038
  309POPC   C4A 8034  37.834   3.615   7.690
  309POPC   C1B 8035  38.057   3.910   8.814
  309POPC   C2B 8036  38.155   3.807   8.434
  309POPC   C3B 8037  38.045   3.938   8.050
  309POPC   C4B 8038  38.281   3.849   7.711
  310POPC   NC3 8039   8.162  29.985   9.568
  310POPC   PO4 8040   7.636  30.383   9.474
  310POPC   GL1 8041   7.880  30.053   9.144
  310POPC   GL2 8042   8.310  30.006   9.094
  310POPC   C1A 8043   8.017  29.862   8.733
  310POPC   D2A 8044   8.323  30.011   8.406
  310POPC   C3A 8045   8.173  29.944   7.981
  310POPC   C4A 8046   7.840  30.126   7.751
  310POPC   C1B 8047   8.470  29.651   8.786
  310POPC   C2B 8048   8.583  29.554   8.360
  310POPC   C3B 8049   8.423  29.488   7.959
  310POPC   C4B 8050   8.420  29.718   7.596
  311POPC   NC3 8051   1.112   7.221   9.481
  311POPC   PO4 8052   1.476   7.770   9.643
  311POPC   GL1 8053   1.336   7.598   9.182
  311POPC   GL2 8054   1.020   7.433   9.019
  311POPC   C1A 8055   1.448   7.428   8.740
  311POPC   D2A 8056   1.328   7.588   8.338
  311POPC   C3A 8057   1.120   7.405   7.996
  311POPC   C4A 8058   1.366   7.308   7.637
  311POPC   C1B 8059   1.076   7.086   8.725
  311POPC   C2B 8060   1.304   7.054   8.321
  311POPC   C3B 8061   1.293   6.863   7.885
  311POPC   C4B 8062   1.314   6.871   7.391
  312POPC   NC3 8063  28.131  31.335   9.529
  312POPC   PO4 8064  28.799  31.429   9.380
  312POPC   GL1 8065  28.580  31.543   9.040
  312POPC   GL2 8066  28.237  31.654   9.139
  312POPC   C1A 8067  28.426  31.290   8.722
  312POPC   D2A 8068  28.326  31.044   8.372
  312POPC   C3A 8069  28.326  31.215   7.953
  312POPC   C4A 8070  28.439  31.233   7.505
  312POPC   C1B 8071  28.260  31.851   8.751
  312POPC   C2B 8072  28.232  31.629   8.382
  312POPC   C3B 8073  28.190  31.778   8.025
  312POPC   C4B 8074  28.433  31.706   7.733
  313POPC   NC3 8075  31.748  33.773   9.524
  313POPC   PO4 8076  31.069  33.739   9.401
  313POPC   GL1 8077  31.407  33.671   9.136
  313POPC   GL2 8078  31.587  33.971   9.103
  313POPC   C1A 8079  31.522  33.649   8.711
  313POPC   D2A 8080  31.321  33.744   8.331
  313POPC   C3A 8081  31.502  33.515   8.008
  313POPC   C4A 8082  31.359  33.700   7.694
  313POPC   C1B 8083  31.786  34.104   8.781
  313POPC   C2B 8084  31.836  33.925   8.392
  313POPC   C3B 8085  31.658  34.001   8.036
  313POPC   C4B 8086  31.725  34.186   7.695
  314POPC   NC3 8087  28.981   5.317   9.771
  314POPC   PO4 8088  29.189   5.841   9.352
  314POPC   GL1 8089  28.912   5.964   9.023
  314POPC   GL2 8090  29.022   5.661   8.887
  314POPC   C1A 8091  29.005   6.034   8.573
  314POPC   D2A 8092  29.338   6.251   8.327
  314POPC   C3A 8093  29.392   6.082   7.939
  314POPC   C4A 8094  29.137   6.049   7.596
  314POPC   C1B 8095  29.368   5.592   8.677
  314POPC   C2B 8096  29.316   5.714   8.281
  314POPC   C3B 8097  29.076   5.688   7.937
  314POPC   C4B 8098  28.949   5.496   7.541
  315POPC   NC3 8099   1.638  21.400   9.407
  315POPC   PO4 8100   2.318  21.268   9.413
  315POPC   GL1 8101   2.065  21.398   9.085
  315POPC   GL2 8102   2.071  21.760   9.171
  315POPC   C1A 8103   1.732  21.434   8.753
  315POPC   D2A 8104   1.595  21.298   8.325
  315POPC   C3A 8105   1.742  21.432   7.890
  315POPC   C4A 8106   2.050  21.408   7.558
  315POPC   C1B 8107   2.136  21.741   8.714
  315POPC   C2B 8108   2.025  21.634   8.282
  315POPC   C3B 8109   2.104  21.804   7.875
  315POPC   C4B 8110   2.439  21.721   7.560
  316POPC   NC3 8111  29.611  25.458   9.739
  316POPC   PO4 8112  29.132  25.173   9.400
  316POPC   GL1 8113  29.048  25.208   9.004
  316POPC   GL2 8114  28.985  25.537   9.019
  316POPC   C1A 8115  29.287  25.315   8.620
  316POPC   D2A 8116  29.447  25.403   8.214
  316POPC   C3A 8117  29.406  25.044   7.952
  316POPC   C4A 8118  29.154  24.925   7.623
  316POPC   C1B 8119  28.783  25.466   8.641
  316POPC   C2B 8120  28.915  25.289   8.247
  316POPC   C3B 8121  28.961  25.359   7.823
  316POPC   C4B 8122  28.948  25.599   7.456
  317POPC   NC3 8123  14.845  44.468   9.458
  317POPC   PO4 8124  15.466  44.665   9.418
  317POPC   GL1 8125  15.383  44.619   9.030
  317POPC   GL2 8126  15.182  44.352   9.095
  317POPC   C1A 8127  15.340  44.862   8.651
  317POPC   D2A 8128  15.164  44.723   8.261
  317POPC   C3A 8129  15.357  44.675   7.901
  317POPC   C4A 8130  15.750  44.726   7.784
  317POPC   C1B 8131  14.961  44.512   8.736
  317POPC   C2B 8132  14.963  44.290   8.376
  317POPC   C3B 8133  15.123  44.214   7.970
  317POPC   C4B 8134  14.962  44.457   7.645
  318POPC   NC3 8135  30.683  38.702   9.493
  318POPC   PO4 8136  30.868  38.115   9.269
  318POPC   GL1 8137  30.619  38.367   9.058
  318POPC   GL2 8138  30.853  38.592   8.987
  318POPC   C1A 8139  30.343  38.569   8.759
  318POPC   D2A 8140  30.228  38.714   8.349
  318POPC   C3A 8141  30.463  38.408   8.088
  318POPC   C4A 8142  30.643  38.499   7.683
  318POPC   C1B 8143  30.981  38.278   8.672
  318POPC   C2B 8144  30.896  38.200   8.281
  318POPC   C3B 8145  31.019  38.509   8.026
  318POPC   C4B 8146  31.169  38.412   7.670
  319POPC   NC3 8147   2.918  23.405   9.491
  319POPC   PO4 8148   2.491  23.958   9.520
  319POPC   GL1 8149   2.775  23.858   9.160
  319POPC   GL2 8150   2.803  23.525   9.023
  319POPC   C1A 8151   2.843  23.904   8.702
  319POPC   D2A 8152   2.804  23.670   8.318
  319POPC   C3A 8153   2.883  23.922   7.964
  319POPC   C4A 8154   2.830  23.980   7.546
  319POPC   C1B 8155   3.101  23.231   8.823
  319POPC   C2B 8156   3.132  23.258   8.375
  319POPC   C3B 8157   3.031  23.199   7.948
  319POPC   C4B 8158   3.117  23.143   7.469
  320POPC   NC3 8159  29.359  34.359   9.601
  320POPC   PO4 8160  28.722  34.685   9.478
  320POPC   GL1 8161  28.939  34.403   9.190
  320POPC   GL2 8162  29.287  34.477   9.105
  320POPC   C1A 8163  28.985  34.313   8.742
  320POPC   D2A 8164  29.147  34.544   8.373
  320POPC   C3A 8165  28.966  34.775   8.060
  320POPC   C4A 8166  28.927  34.559   7.693
  320POPC   C1B 8167  29.518  34.583   8.694
  320POPC   C2B 8168  29.625  34.431   8.304
  320POPC   C3B 8169  29.418  34.546   7.907
  320POPC   C4B 8170  29.425  34.607   7.462
  321POPC   NC3 8171   0.923   3.989   9.318
  321POPC   PO4 8172   1.301   4.480   9.647
  321POPC   GL1 8173   1.237   4.423   9.193
  321POPC   GL2 8174   0.934   4.642   9.172
  321POPC   C1A 8175   1.278   4.236   8.744
  321POPC   D2A 8176   0.988   4.136   8.393
  321POPC   C3A 8177   1.129   3.967   7.988
  321POPC   C4A 8178   1.295   4.160   7.617
  321POPC   C1B 8179   0.989   4.675   8.728
  321POPC   C2B 8180   1.240   4.590   8.360
  321POPC   C3B 8181   1.104   4.485   7.969
  321POPC   C4B 8182   0.998   4.672   7.619
  322POPC   NC3 8183  43.694  28.899   9.448
  322POPC   PO4 8184  43.905  29.510   9.588
  322POPC   GL1 8185  43.754  29.336   9.186
  322POPC   GL2 8186  43.421  29.420   9.158
  322POPC   C1A 8187  43.717  29.058   8.796
  322POPC   D2A 8188  43.861  29.161   8.369
  322POPC   C3A 8189  43.841  28.916   8.005
  322POPC   C4A 8190  44.130  28.811   7.674
  322POPC   C1B 8191  43.531  29.520   8.722
  322POPC   C2B 8192  43.424  29.405   8.318
  322POPC   C3B 8193  43.560  29.350   7.885
  322POPC   C4B 8194  43.536  29.197   7.448
  323POPC   NC3 8195  36.416   6.869   9.640
  323POPC   PO4 8196  36.975   6.423   9.502
  323POPC   GL1 8197  36.854   6.671   9.185
  323POPC   GL2 8198  36.541   6.477   9.209
  323POPC   C1A 8199  36.951   6.832   8.731
  323POPC   D2A 8200  36.722   6.659   8.359
  323POPC   C3A 8201  36.882   6.741   7.932
  323POPC   C4A 8202  37.308   6.622   7.840
  323POPC   C1B 8203  36.729   6.380   8.789
  323POPC   C2B 8204  36.971   6.140   8.474
  323POPC   C3B 8205  37.165   6.160   8.084
  323POPC   C4B 8206  37.017   6.243   7.674
  324POPC   NC3 8207   0.723  21.797   9.335
  324POPC   PO4 8208   1.121  22.342   9.631
  324POPC   GL1 8209   1.160  22.157   9.200
  324POPC   GL2 8210   0.886  22.294   9.115
  324POPC   C1A 8211   1.278  22.177   8.752
  324POPC   D2A 8212   1.522  22.349   8.421
  324POPC   C3A 8213   1.300  22.370   8.050
  324POPC   C4A 8214   1.416  22.358   7.639
  324POPC   C1B 8215   0.787  22.070   8.758
  324POPC   C2B 8216   0.905  22.193   8.381
  324POPC   C3B 8217   0.921  22.009   8.016
  324POPC   C4B 8218   0.930  22.289   7.672
  325POPC   NC3 8219  35.790  29.395   9.372
  325POPC   PO4 8220  35.230  29.666   9.539
  325POPC   GL1 8221  35.273  29.841   9.144
  325POPC   GL2 8222  35.629  29.894   9.146
  325POPC   C1A 8223  35.158  29.883   8.749
  325POPC   D2A 8224  35.261  29.799   8.364
  325POPC   C3A 8225  35.026  30.033   8.075
  325POPC   C4A 8226  35.218  30.006   7.669
  325POPC   C1B 8227  35.666  29.647   8.790
  325POPC   C2B 8228  35.922  29.538   8.438
  325POPC   C3B 8229  35.612  29.483   8.159
  325POPC   C4B 8230  35.531  29.608   7.748
  326POPC   NC3 8231  21.304   5.566   9.433
  326POPC   PO4 8232  21.643   6.090   9.617
  326POPC   GL1 8233  21.525   6.134   9.200
  326POPC   GL2 8234  21.204   6.031   9.150
  326POPC   C1A 8235  21.630   5.934   8.838
  326POPC   D2A 8236  21.349   5.715   8.619
  326POPC   C3A 8237  21.338   5.755   8.167
  326POPC   C4A 8238  21.281   5.666   7.752
  326POPC   C1B 8239  21.241   6.278   8.778
  326POPC   C2B 8240  21.468   6.202   8.409
  326POPC   C3B 8241  21.442   6.234   7.974
  326POPC   C4B 8242  21.067   6.136   7.756
  327POPC   NC3 8243  11.699   7.460   9.576
  327POPC   PO4 8244  11.168   7.123   9.402
  327POPC   GL1 8245  11.270   7.461   9.146
  327POPC   GL2 8246  11.327   7.778   9.329
  327POPC   C1A 8247  11.424   7.393   8.731
  327POPC   D2A 8248  11.221   7.189   8.374
  327POPC   C3A 8249  11.354   7.368   7.971
  327POPC   C4A 8250  11.403   7.254   7.543
  327POPC   C1B 8251  11.448   7.897   8.907
  327POPC   C2B 8252  11.444   7.840   8.445
  327POPC   C3B 8253  11.341   7.903   7.995
  327POPC   C4B 8254  11.512   7.769   7.575
  328POPC   NC3 8255  44.102  15.336   9.489
  328POPC   PO4 8256  43.717  14.842   9.528
  328POPC   GL1 8257  43.980  14.951   9.186
  328POPC   GL2 8258  43.846  14.694   9.059
  328POPC   C1A 8259  43.991  15.234   8.851
  328POPC   D2A 8260  43.932  15.467   8.498
  328POPC   C3A 8261  44.146  15.354   8.117
  328POPC   C4A 8262  44.075  15.135   7.741
  328POPC   C1B 8263  43.617  14.892   8.799
  328POPC   C2B 8264  43.580  15.101   8.435
  328POPC   C3B 8265  43.666  14.963   8.036
  328POPC   C4B 8266  43.430  14.800   7.678
  329POPC   NC3 8267  44.944  25.795   9.614
  329POPC   PO4 8268  44.381  26.189   9.545
  329POPC   GL1 8269  44.595  26.169   9.158
  329POPC   GL2 8270  44.937  26.163   9.266
  329POPC   C1A 8271  44.478  26.006   8.757
  329POPC   D2A 8272  44.315  26.103   8.348
  329POPC   C3A 8273  44.566  26.288   8.054
  329POPC   C4A 8274  44.378  26.134   7.669
  329POPC   C1B 8275  44.983  26.074   8.824
  329POPC   C2B 8276  44.844  25.911   8.411
  329POPC   C3B 8277  44.774  25.844   7.961
  329POPC   C4B 8278  44.917  26.167   7.684
  330POPC   NC3 8279  23.802  21.810   9.611
  330POPC   PO4 8280  23.480  22.430   9.469
  330POPC   GL1 8281  23.585  22.291   9.125
  330POPC   GL2 8282  23.810  22.034   9.152
  330POPC   C1A 8283  23.433  22.137   8.755
  330POPC   D2A 8284  23.575  22.334   8.376
  330POPC   C3A 8285  23.578  22.104   7.974
  330POPC   C4A 8286  23.603  22.410   7.638
  330POPC   C1B 8287  23.929  22.263   8.763
  330POPC   C2B 8288  24.070  22.118   8.381
  330POPC   C3B 8289  24.040  21.888   8.008
  330POPC   C4B 8290  24.166  21.650   7.690
  331POPC   NC3 8291  23.963  34.796   9.475
  331POPC   PO4 8292  23.279  34.823   9.283
  331POPC   GL1 8293  23.651  34.823   9.085
  331POPC   GL2 8294  23.831  34.523   8.990
  331POPC   C1A 8295  23.738  34.983   8.720
  331POPC   D2A 8296  23.534  34.920   8.340
  331POPC   C3A 8297  23.834  34.827   8.052
  331POPC   C4A 8298  23.606  34.703   7.702
  331POPC   C1B 8299  23.530  34.488   8.637
  331POPC   C2B 8300  23.637  34.364   8.197
  331POPC   C3B 8301  23.968  34.349   7.864
  331POPC   C4B 8302  23.857  34.403   7.389
  332POPC   NC3 8303  33.395  35.425   9.589
  332POPC   PO4 8304  32.726  35.386   9.514
  332POPC   GL1 8305  32.923  35.423   9.141
  332POPC   GL2 8306  33.139  35.713   9.204
  332POPC   C1A 8307  33.026  35.223   8.740
  332POPC   D2A 8308  33.223  35.347   8.348
  332POPC   C3A 8309  33.008  35.238   7.973
  332POPC   C4A 8310  33.365  35.102   7.797
  332POPC   C1B 8311  33.001  35.736   8.744
  332POPC   C2B 8312  32.828  35.649   8.352
  332POPC   C3B 8313  32.978  35.729   7.947
  332POPC   C4B 8314  32.803  35.818   7.556
  333POPC   NC3 8315  32.209  41.778   9.334
  333POPC   PO4 8316  32.457  41.262   9.546
  333POPC   GL1 8317  32.490  41.414   9.081
  333POPC   GL2 8318  32.530  41.789   8.942
  333POPC   C1A 8319  32.398  41.489   8.601
  333POPC   D2A 8320  32.575  41.833   8.372
  333POPC   C3A 8321  32.507  41.602   7.992
  333POPC   C4A 8322  32.258  41.259   7.818
  333POPC   C1B 8323  32.138  41.913   8.721
  333POPC   C2B 8324  31.852  41.642   8.506
  333POPC   C3B 8325  31.843  41.576   8.076
  333POPC   C4B 8326  32.071  41.743   7.719
  334POPC   NC3 8327  24.280   4.371   9.481
  334POPC   PO4 8328  24.832   3.980   9.550
  334POPC   GL1 8329  24.654   4.168   9.216
  334POPC   GL2 8330  24.367   3.971   9.140
  334POPC   C1A 8331  24.538   4.477   8.884
  334POPC   D2A 8332  24.739   4.399   8.491
  334POPC   C3A 8333  24.537   4.359   8.098
  334POPC   C4A 8334  24.504   4.619   7.732
  334POPC   C1B 8335  24.528   3.986   8.759
  334POPC   C2B 8336  24.577   3.882   8.368
  334POPC   C3B 8337  24.745   3.898   7.982
  334POPC   C4B 8338  24.595   4.117   7.642
  335POPC   NC3 8339  27.505  34.381   9.546
  335POPC   PO4 8340  27.780  34.956   9.678
  335POPC   GL1 8341  27.713  34.786   9.245
  335POPC   GL2 8342  27.822  34.481   9.170
  335POPC   C1A 8343  27.514  34.696   8.822
  335POPC   D2A 8344  27.667  34.585   8.428
  335POPC   C3A 8345  27.592  34.777   8.055
  335POPC   C4A 8346  27.736  34.561   7.703
  335POPC   C1B 8347  27.917  34.293   8.796
  335POPC   C2B 8348  27.950  34.162   8.402
  335POPC   C3B 8349  28.022  34.295   8.029
  335POPC   C4B 8350  27.859  34.077   7.662
  336POPC   NC3 8351  22.754   1.759   9.452
  336POPC   PO4 8352  22.870   2.456   9.585
  336POPC   GL1 8353  22.936   2.176   9.198
  336POPC   GL2 8354  23.290   2.077   9.264
  336POPC   C1A 8355  22.758   2.088   8.742
  336POPC   D2A 8356  22.705   2.285   8.308
  336POPC   C3A 8357  22.963   2.158   7.924
  336POPC   C4A 8358  22.925   1.768   7.675
  336POPC   C1B 8359  23.260   1.999   8.833
  336POPC   C2B 8360  23.146   2.011   8.405
  336POPC   C3B 8361  23.239   1.760   8.066
  336POPC   C4B 8362  23.419   1.901   7.645
  337POPC   NC3 8363  12.327  19.779   9.466
  337POPC   PO4 8364  11.674  20.131   9.577
  337POPC   GL1 8365  11.829  19.863   9.178
  337POPC   GL2 8366  12.147  19.766   8.996
  337POPC   C1A 8367  11.735  19.838   8.726
  337POPC   D2A 8368  12.027  19.876   8.459
  337POPC   C3A 8369  11.958  19.625   8.107
  337POPC   C4A 8370  11.797  19.891   7.789
  337POPC   C1B 8371  12.426  19.600   8.663
  337POPC   C2B 8372  12.453  19.754   8.230
  337POPC   C3B 8373  12.228  20.102   8.030
  337POPC   C4B 8374  12.179  20.180   7.595
  338POPC   NC3 8375   0.887  23.747   9.575
  338POPC   PO4 8376   0.212  23.916   9.528
  338POPC   GL1 8377   0.360  23.755   9.123
  338POPC   GL2 8378   0.621  23.502   9.172
  338POPC   C1A 8379   0.437  23.870   8.669
  338POPC   D2A 8380   0.371  24.141   8.285
  338POPC   C3A 8381   0.198  23.842   8.009
  338POPC   C4A 8382   0.517  23.593   7.841
  338POPC   C1B 8383   0.386  23.358   8.776
  338POPC   C2B 8384   0.322  23.385   8.316
  338POPC   C3B 8385   0.207  23.199   7.930
  338POPC   C4B 8386   0.239  23.220   7.444
  339POPC   NC3 8387  44.071  44.066   9.641
  339POPC   PO4 8388  44.332  43.473   9.410
  339POPC   GL1 8389  44.040  43.739   9.216
  339POPC   GL2 8390  43.672  43.731   9.271
  339POPC   C1A 8391  44.075  43.880   8.810
  339POPC   D2A 8392  44.265  43.648   8.468
  339POPC   C3A 8393  44.179  43.800   8.061
  339POPC   C4A 8394  44.130  43.626   7.659
  339POPC   C1B 8395  43.587  43.719   8.809
  339POPC   C2B 8396  43.477  43.409   8.460
  339POPC   C3B 8397  43.473  43.501   7.999
  339POPC   C4B 8398  43.695  43.870   7.813
  340POPC   NC3 8399  31.954  26.302   9.567
  340POPC   PO4 8400  32.547  25.904   9.549
  340POPC   GL1 8401  32.347  25.796   9.127
  340POPC   GL2 8402  31.974  25.785   9.178
  340POPC   C1A 8403  32.267  25.941   8.701
  340POPC   D2A 8404  32.218  26.286   8.415
  340POPC   C3A 8405  32.429  26.216   8.015
  340POPC   C4A 8406  32.319  25.941   7.704
  340POPC   C1B 8407  31.798  26.076   8.854
  340POPC   C2B 8408  31.830  25.926   8.433
  340POPC   C3B 8409  32.001  25.819   8.073
  340POPC   C4B 8410  31.811  25.889   7.688
  341POPC   NC3 8411  18.899   3.345   9.481
  341POPC   PO4 8412  19.203   3.951   9.417
  341POPC   GL1 8413  19.056   3.705   9.093
  341POPC   GL2 8414  19.075   3.359   9.023
  341POPC   C1A 8415  19.270   3.754   8.714
  341POPC   D2A 8416  19.081   3.882   8.341
  341POPC   C3A 8417  19.147   3.589   7.993
  341POPC   C4A 8418  18.996   3.620   7.554
  341POPC   C1B 8419  19.035   3.052   8.671
  341POPC   C2B 8420  18.991   3.170   8.250
  341POPC   C3B 8421  18.858   3.189   7.825
  341POPC   C4B 8422  18.945   3.071   7.391
  342POPC   NC3 8423  18.581  24.121   9.533
  342POPC   PO4 8424  18.191  24.607   9.674
  342POPC   GL1 8425  18.217  24.430   9.222
  342POPC   GL2 8426  18.464  24.205   9.063
  342POPC   C1A 8427  18.165  24.477   8.759
  342POPC   D2A 8428  17.915  24.449   8.391
  342POPC   C3A 8429  18.098  24.492   7.996
  342POPC   C4A 8430  18.115  24.158   7.732
  342POPC   C1B 8431  18.663  24.295   8.694
  342POPC   C2B 8432  18.453  24.329   8.339
  342POPC   C3B 8433  18.566  24.266   7.937
  342POPC   C4B 8434  18.936  24.460   7.735
  343POPC   NC3 8435  34.746  27.956   9.518
  343POPC   PO4 8436  35.416  27.984   9.318
  343POPC   GL1 8437  35.453  27.787   8.950
  343POPC   GL2 8438  35.310  27.460   9.037
  343POPC   C1A 8439  35.517  27.545   8.589
  343POPC   D2A 8440  35.304  27.518   8.246
  343POPC   C3A 8441  35.448  27.752   7.931
  343POPC   C4A 8442  35.467  27.672   7.518
  343POPC   C1B 8443  35.152  27.183   8.651
  343POPC   C2B 8444  34.943  27.168   8.240
  343POPC   C3B 8445  35.142  27.258   7.840
  343POPC   C4B 8446  35.006  27.444   7.441
  344POPC   NC3 8447  39.161  27.681   9.655
  344POPC   PO4 8448  39.567  27.188   9.477
  344POPC   GL1 8449  39.313  27.392   9.106
  344POPC   GL2 8450  39.058  27.699   9.139
  344POPC   C1A 8451  39.244  27.266   8.654
  344POPC   D2A 8452  39.229  27.240   8.178
  344POPC   C3A 8453  39.302  27.643   8.047
  344POPC   C4A 8454  39.507  27.854   7.760
  344POPC   C1B 8455  38.876  27.948   8.750
  344POPC   C2B 8456  38.981  27.928   8.300
  344POPC   C3B 8457  38.794  27.674   7.934
  344POPC   C4B 8458  38.722  27.675   7.453
  345POPC   NC3 8459  40.558  27.377   9.320
  345POPC   PO4 8460  40.450  26.746   9.636
  345POPC   GL1 8461  40.675  26.639   9.221
  345POPC   GL2 8462  40.793  26.995   9.122
  345POPC   C1A 8463  40.839  26.648   8.785
  345POPC   D2A 8464  40.628  26.659   8.412
  345POPC   C3A 8465  40.868  26.605   8.085
  345POPC   C4A 8466  40.800  26.628   7.627
  345POPC   C1B 8467  40.667  27.105   8.694
  345POPC   C2B 8468  40.947  27.055   8.322
  345POPC   C3B 8469  40.896  27.072   7.862
  345POPC   C4B 8470  40.766  27.075   7.409
  346POPC   NC3 8471  19.608  10.508   9.498
  346POPC   PO4 8472  20.234  10.950   9.413
  346POPC   GL1 8473  19.906  10.791   9.161
  346POPC   GL2 8474  19.873  10.428   9.073
  346POPC   C1A 8475  19.949  10.786   8.736
  346POPC   D2A 8476  20.198  10.838   8.383
  346POPC   C3A 8477  19.923  10.717   8.042
  346POPC   C4A 8478  19.986  10.834   7.604
  346POPC   C1B 8479  19.638  10.240   8.775
  346POPC   C2B 8480  19.749  10.114   8.364
  346POPC   C3B 8481  19.862  10.209   7.957
  346POPC   C4B 8482  19.607  10.096   7.605
  347POPC   NC3 8483  21.446  37.904   9.742
  347POPC   PO4 8484  21.749  37.443   9.377
  347POPC   GL1 8485  21.477  37.585   9.145
  347POPC   GL2 8486  21.401  37.918   9.229
  347POPC   C1A 8487  21.468  37.536   8.742
  347POPC   D2A 8488  21.316  37.671   8.388
  347POPC   C3A 8489  21.544  37.449   8.101
  347POPC   C4A 8490  21.333  37.463   7.749
  347POPC   C1B 8491  21.142  37.901   8.832
  347POPC   C2B 8492  20.931  37.996   8.396
  347POPC   C3B 8493  21.095  37.871   7.972
  347POPC   C4B 8494  21.259  37.942   7.545
  348POPC   NC3 8495   9.062  44.955   9.563
  348POPC   PO4 8496   9.319  44.365   9.485
  348POPC   GL1 8497   9.122  44.696   9.126
  348POPC   GL2 8498   8.837  44.531   9.003
  348POPC   C1A 8499   8.924  44.885   8.680
  348POPC   D2A 8500   8.721  44.572   8.439
  348POPC   C3A 8501   8.903  44.466   8.059
  348POPC   C4A 8502   8.868  44.705   7.675
  348POPC   C1B 8503   9.226  44.494   8.643
  348POPC   C2B 8504   9.451  44.575   8.238
  348POPC   C3B 8505   9.352  44.793   7.847
  348POPC   C4B 8506   9.254  44.734   7.366
  349POPC   NC3 8507  44.807  13.085   9.550
  349POPC   PO4 8508  44.416  12.591   9.455
  349POPC   GL1 8509  44.586  12.746   9.116
  349POPC   GL2 8510  44.479  13.077   9.151
  349POPC   C1A 8511  44.462  12.689   8.688
  349POPC   D2A 8512  44.438  12.541   8.256
  349POPC   C3A 8513  44.572  12.813   7.929
  349POPC   C4A 8514  44.968  12.807   7.739
  349POPC   C1B 8515  44.604  13.190   8.773
  349POPC   C2B 8516  44.747  13.070   8.366
  349POPC   C3B 8517  44.872  13.370   8.066
  349POPC   C4B 8518  44.759  13.262   7.697
  350POPC   NC3 8519  23.134  21.138   9.501
  350POPC   PO4 8520  23.015  21.674   9.184
  350POPC   GL1 8521  23.123  21.322   8.984
  350POPC   GL2 8522  22.823  21.153   9.044
  350POPC   C1A 8523  23.376  21.328   8.584
  350POPC   D2A 8524  23.140  21.529   8.233
  350POPC   C3A 8525  23.201  21.741   7.823
  350POPC   C4A 8526  23.250  21.538   7.383
  350POPC   C1B 8527  22.942  20.973   8.638
  350POPC   C2B 8528  22.911  21.044   8.186
  350POPC   C3B 8529  23.016  21.266   7.808
  350POPC   C4B 8530  22.766  21.445   7.498
  351POPC   NC3 8531  21.725  21.961   9.425
  351POPC   PO4 8532  21.077  22.290   9.499
  351POPC   GL1 8533  21.358  22.199   9.138
  351POPC   GL2 8534  21.345  21.922   8.938
  351POPC   C1A 8535  21.602  22.309   8.747
  351POPC   D2A 8536  21.452  22.141   8.355
  351POPC   C3A 8537  21.403  22.377   7.922
  351POPC   C4A 8538  21.147  22.311   7.519
  351POPC   C1B 8539  21.687  21.669   8.785
  351POPC   C2B 8540  21.617  21.524   8.380
  351POPC   C3B 8541  21.373  21.727   8.091
  351POPC   C4B 8542  21.330  21.909   7.747
  352POPC   NC3 8543  35.658   0.039   9.510
  352POPC   PO4 8544  35.656   0.744   9.430
  352POPC   GL1 8545  35.511   0.556   9.033
  352POPC   GL2 8546  35.397   0.229   9.088
  352POPC   C1A 8547  35.485   0.494   8.554
  352POPC   D2A 8548  35.398   0.801   8.217
  352POPC   C3A 8549  35.209   0.663   7.873
  352POPC   C4A 8550  34.969   0.315   7.858
  352POPC   C1B 8551  35.741   0.132   8.802
  352POPC   C2B 8552  35.755   0.118   8.335
  352POPC   C3B 8553  35.575   0.237   7.914
  352POPC   C4B 8554  35.768   0.148   7.498
  353POPC   NC3 8555  41.291  24.174   9.295
  353POPC   PO4 8556  41.622  23.547   9.531
  353POPC   GL1 8557  41.639  23.792   9.183
  353POPC   GL2 8558  41.320  23.727   9.090
  353POPC   C1A 8559  41.750  23.894   8.740
  353POPC   D2A 8560  41.887  23.692   8.359
  353POPC   C3A 8561  41.935  23.911   7.971
  353POPC   C4A 8562  41.809  23.748   7.565
  353POPC   C1B 8563  41.225  23.865   8.690
  353POPC   C2B 8564  41.405  23.907   8.318
  353POPC   C3B 8565  41.450  24.046   7.932
  353POPC   C4B 8566  41.307  23.807   7.610
  354POPC   NC3 8567   4.604  37.739   9.730
  354POPC   PO4 8568   5.134  37.435   9.454
  354POPC   GL1 8569   5.230  37.612   9.058
  354POPC   GL2 8570   5.242  37.971   9.184
  354POPC   C1A 8571   5.244  37.547   8.600
  354POPC   D2A 8572   4.965  37.728   8.286
  354POPC   C3A 8573   5.095  37.593   7.902
  354POPC   C4A 8574   5.003  37.662   7.444
  354POPC   C1B 8575   5.100  38.013   8.756
  354POPC   C2B 8576   5.297  38.132   8.372
  354POPC   C3B 8577   5.148  38.086   7.928
  354POPC   C4B 8578   4.743  37.957   7.781
  355POPC   NC3 8579  10.339   1.718   9.561
  355POPC   PO4 8580  10.848   2.120   9.448
  355POPC   GL1 8581  10.593   2.107   9.141
  355POPC   GL2 8582  10.398   1.832   9.074
  355POPC   C1A 8583  10.564   2.266   8.750
  355POPC   D2A 8584  10.367   2.059   8.399
  355POPC   C3A 8585  10.588   2.122   8.027
  355POPC   C4A 8586  10.719   1.872   7.742
  355POPC   C1B 8587  10.666   1.780   8.741
  355POPC   C2B 8588  10.667   1.654   8.328
  355POPC   C3B 8589  10.377   1.628   8.008
  355POPC   C4B 8590  10.348   1.550   7.578
  356POPC   NC3 8591  14.211  23.182   9.498
  356POPC   PO4 8592  14.402  22.497   9.495
  356POPC   GL1 8593  14.313  22.857   9.106
  356POPC   GL2 8594  14.618  22.917   8.879
  356POPC   C1A 8595  14.218  23.146   8.708
  356POPC   D2A 8596  14.282  22.989   8.295
  356POPC   C3A 8597  14.575  23.220   8.071
  356POPC   C4A 8598  14.549  23.306   7.660
  356POPC   C1B 8599  14.779  22.892   8.470
  356POPC   C2B 8600  14.707  22.737   8.083
  356POPC   C3B 8601  14.490  22.814   7.691
  356POPC   C4B 8602  14.302  22.625   7.256
  357POPC   NC3 8603  19.283  11.357   9.585
  357POPC   PO4 8604  18.579  11.151   9.602
  357POPC   GL1 8605  18.772  11.301   9.189
  357POPC   GL2 8606  19.050  11.481   9.150
  357POPC   C1A 8607  18.795  11.349   8.700
  357POPC   D2A 8608  18.993  11.513   8.312
  357POPC   C3A 8609  18.930  11.359   7.864
  357POPC   C4A 8610  19.069  11.579   7.488
  357POPC   C1B 8611  19.253  11.234   8.877
  357POPC   C2B 8612  19.244  11.062   8.473
  357POPC   C3B 8613  19.374  11.262   8.082
  357POPC   C4B 8614  19.385  11.104   7.668
  358POPC   NC3 8615  20.813  15.246   9.487
  358POPC   PO4 8616  20.481  14.757   9.592
  358POPC   GL1 8617  20.534  14.885   9.163
  358POPC   GL2 8618  20.854  14.815   9.171
  358POPC   C1A 8619  20.500  14.971   8.680
  358POPC   D2A 8620  20.469  14.963   8.210
  358POPC   C3A 8621  20.606  14.966   7.766
  358POPC   C4A 8622  20.605  15.344   7.440
  358POPC   C1B 8623  20.954  15.110   8.854
  358POPC   C2B 8624  20.946  15.107   8.431
  358POPC   C3B 8625  20.835  15.313   8.097
  358POPC   C4B 8626  21.007  15.273   7.746
  359POPC   NC3 8627  41.830  14.100   9.265
  359POPC   PO4 8628  41.768  13.498   9.583
  359POPC   GL1 8629  41.692  13.603   9.127
  359POPC   GL2 8630  41.398  13.409   8.977
  359POPC   C1A 8631  41.724  13.709   8.685
  359POPC   D2A 8632  41.582  13.582   8.266
  359POPC   C3A 8633  41.799  13.676   7.862
  359POPC   C4A 8634  41.719  13.495   7.449
  359POPC   C1B 8635  41.187  13.683   8.655
  359POPC   C2B 8636  41.074  13.657   8.195
  359POPC   C3B 8637  41.297  13.588   7.813
  359POPC   C4B 8638  41.303  13.848   7.476
  360POPC   NC3 8639  34.502  18.640   9.411
  360POPC   PO4 8640  33.963  18.173   9.360
  360POPC   GL1 8641  34.336  18.267   9.088
  360POPC   GL2 8642  34.698  18.272   9.095
  360POPC   C1A 8643  34.465  18.509   8.730
  360POPC   D2A 8644  34.457  18.687   8.363
  360POPC   C3A 8645  34.637  18.500   8.075
  360POPC   C4A 8646  34.446  18.368   7.709
  360POPC   C1B 8647  34.615  18.013   8.747
  360POPC   C2B 8648  34.802  17.956   8.405
  360POPC   C3B 8649  34.727  18.025   8.007
  360POPC   C4B 8650  34.967  18.227   7.693
  361POPC   NC3 8651  10.130  31.471   9.451
  361POPC   PO4 8652  10.749  31.745   9.495
  361POPC   GL1 8653  10.420  31.823   9.186
  361POPC   GL2 8654  10.422  31.456   9.044
  361POPC   C1A 8655  10.381  31.857   8.731
  361POPC   D2A 8656  10.488  31.459   8.531
  361POPC   C3A 8657  10.516  31.483   8.106
  361POPC   C4A 8658  10.279  31.566   7.752
  361POPC   C1B 8659  10.195  31.135   8.799
  361POPC   C2B 8660  10.226  30.998   8.361
  361POPC   C3B 8661  10.294  31.065   7.910
  361POPC   C4B 8662  10.312  31.088   7.446
  362POPC   NC3 8663  26.274  36.388   9.542
  362POPC   PO4 8664  25.783  36.076   9.628
  362POPC   GL1 8665  25.906  36.235   9.224
  362POPC   GL2 8666  25.696  36.021   9.054
  362POPC   C1A 8667  26.074  36.297   8.791
  362POPC   D2A 8668  26.252  36.039   8.458
  362POPC   C3A 8669  26.338  36.174   8.056
  362POPC   C4A 8670  26.332  35.998   7.669
  362POPC   C1B 8671  25.572  35.789   8.685
  362POPC   C2B 8672  25.703  35.948   8.318
  362POPC   C3B 8673  25.871  35.949   7.934
  362POPC   C4B 8674  25.765  36.291   7.717
  363POPC   NC3 8675  41.484   7.568   9.718
  363POPC   PO4 8676  42.072   7.472   9.445
  363POPC   GL1 8677  41.640   7.329   9.240
  363POPC   GL2 8678  41.356   7.593   9.131
  363POPC   C1A 8679  41.648   7.205   8.795
  363POPC   D2A 8680  41.813   7.153   8.364
  363POPC   C3A 8681  41.774   7.510   8.065
  363POPC   C4A 8682  41.738   7.413   7.625
  363POPC   C1B 8683  41.141   7.329   8.811
  363POPC   C2B 8684  41.277   7.109   8.420
  363POPC   C3B 8685  41.420   7.072   7.972
  363POPC   C4B 8686  41.227   7.170   7.562
  364POPC   NC3 8687  29.621  29.486   9.404
  364POPC   PO4 8688  30.057  28.945   9.503
  364POPC   GL1 8689  29.994  29.215   9.165
  364POPC   GL2 8690  29.687  29.076   9.052
  364POPC   C1A 8691  29.946  29.362   8.731
  364POPC   D2A 8692  30.132  29.194   8.350
  364POPC   C3A 8693  29.925  29.102   7.956
  364POPC   C4A 8694  30.087  29.013   7.545
  364POPC   C1B 8695  29.986  28.852   8.766
  364POPC   C2B 8696  29.857  28.740   8.363
  364POPC   C3B 8697  29.604  28.721   8.014
  364POPC   C4B 8698  29.612  28.829   7.589
  365POPC   NC3 8699  23.584  23.506   9.312
  365POPC   PO4 8700  23.908  24.116   9.347
  365POPC   GL1 8701  23.720  23.923   9.052
  365POPC   GL2 8702  23.379  23.861   9.031
  365POPC   C1A 8703  23.720  23.887   8.640
  365POPC   D2A 8704  23.803  23.970   8.238
  365POPC   C3A 8705  24.083  23.640   8.093
  365POPC   C4A 8706  24.240  23.589   7.691
  365POPC   C1B 8707  23.332  23.529   8.750
  365POPC   C2B 8708  23.559  23.405   8.435
  365POPC   C3B 8709  23.540  23.578   8.041
  365POPC   C4B 8710  23.759  23.810   7.725
  366POPC   NC3 8711  10.004   0.251   9.558
  366POPC   PO4 8712   9.589   0.648   9.687
  366POPC   GL1 8713   9.953   0.657   9.281
  366POPC   GL2 8714   9.857   0.334   9.067
  366POPC   C1A 8715  10.029   0.685   8.773
  366POPC   D2A 8716   9.771   0.408   8.438
  366POPC   C3A 8717   9.918   0.444   7.996
  366POPC   C4A 8718   9.862   0.749   7.669
  366POPC   C1B 8719   9.598   0.029   8.755
  366POPC   C2B 8720   9.341   0.049   8.359
  366POPC   C3B 8721   9.437   0.278   8.009
  366POPC   C4B 8722   9.601   0.253   7.623
  367POPC   NC3 8723  11.884  16.677   9.644
  367POPC   PO4 8724  12.342  17.130   9.605
  367POPC   GL1 8725  12.240  16.857   9.283
  367POPC   GL2 8726  11.928  16.995   9.209
  367POPC   C1A 8727  12.281  16.800   8.828
  367POPC   D2A 8728  12.095  16.534   8.491
  367POPC   C3A 8729  12.239  16.604   8.059
  367POPC   C4A 8730  12.162  16.380   7.672
  367POPC   C1B 8731  11.759  16.821   8.827
  367POPC   C2B 8732  11.681  16.948   8.407
  367POPC   C3B 8733  11.744  16.791   7.983
  367POPC   C4B 8734  12.003  16.851   7.650
  368POPC   NC3 8735  41.235   9.329   9.446
  368POPC   PO4 8736  41.673   8.803   9.607
  368POPC   GL1 8737  41.608   9.029   9.225
  368POPC   GL2 8738  41.295   8.905   9.152
  368POPC   C1A 8739  41.862   9.096   8.857
  368POPC   D2A 8740  41.835   8.883   8.440
  368POPC   C3A 8741  41.745   9.047   8.046
  368POPC   C4A 8742  41.722   8.875   7.635
  368POPC   C1B 8743  41.157   8.869   8.715
  368POPC   C2B 8744  41.321   8.983   8.324
  368POPC   C3B 8745  41.260   8.887   7.891
  368POPC   C4B 8746  41.233   8.889   7.436
  369POPC   NC3 8747  25.199  38.637   9.402
  369POPC   PO4 8748  25.550  38.026   9.542
  369POPC   GL1 8749  25.257  38.190   9.162
  369POPC   GL2 8750  25.123  38.487   8.928
  369POPC   C1A 8751  25.121  38.013   8.788
  369POPC   D2A 8752  25.352  38.226   8.465
  369POPC   C3A 8753  25.298  38.132   8.054
  369POPC   C4A 8754  25.463  38.214   7.628
  369POPC   C1B 8755  25.566  38.584   8.769
  369POPC   C2B 8756  25.753  38.668   8.341
  369POPC   C3B 8757  25.482  38.610   7.972
  369POPC   C4B 8758  25.050  38.478   7.784
  370POPC   NC3 8759   6.228  33.997   9.376
  370POPC   PO4 8760   6.847  33.605   9.575
  370POPC   GL1 8761   6.703  33.492   9.181
  370POPC   GL2 8762   6.634  33.845   9.096
  370POPC   C1A 8763   6.553  33.430   8.772
  370POPC   D2A 8764   6.489  33.693   8.419
  370POPC   C3A 8765   6.512  33.484   8.006
  370POPC   C4A 8766   6.505  33.785   7.685
  370POPC   C1B 8767   6.958  33.750   8.795
  370POPC   C2B 8768   7.092  33.877   8.410
  370POPC   C3B 8769   6.878  33.848   8.066
  370POPC   C4B 8770   7.013  33.785   7.660
  371POPC   NC3 8771  32.360   6.899   9.577
  371POPC   PO4 8772  32.168   6.235   9.613
  371POPC   GL1 8773  32.154   6.546   9.286
  371POPC   GL2 8774  32.447   6.527   9.198
  371POPC   C1A 8775  32.060   6.580   8.852
  371POPC   D2A 8776  32.219   6.530   8.443
  371POPC   C3A 8777  32.116   6.712   8.057
  371POPC   C4A 8778  31.995   6.578   7.633
  371POPC   C1B 8779  32.568   6.699   8.783
  371POPC   C2B 8780  32.747   6.475   8.453
  371POPC   C3B 8781  32.597   6.572   8.075
  371POPC   C4B 8782  32.505   6.636   7.674
  372POPC   NC3 8783  37.166  14.213   9.810
  372POPC   PO4 8784  36.766  14.597   9.549
  372POPC   GL1 8785  36.804  14.369   9.185
  372POPC   GL2 8786  37.157  14.428   9.124
  372POPC   C1A 8787  36.881  14.240   8.743
  372POPC   D2A 8788  36.923  14.516   8.388
  372POPC   C3A 8789  36.759  14.300   8.043
  372POPC   C4A 8790  36.897  14.373   7.642
  372POPC   C1B 8791  37.385  14.207   8.753
  372POPC   C2B 8792  37.226  14.117   8.371
  372POPC   C3B 8793  37.263  14.273   7.986
  372POPC   C4B 8794  37.279  14.011   7.642
  373POPC   NC3 8795  13.816  39.087   9.518
  373POPC   PO4 8796  13.624  39.716   9.512
  373POPC   GL1 8797  13.386  39.551   9.078
  373POPC   GL2 8798  13.175  39.235   9.077
  373POPC   C1A 8799  13.443  39.312   8.622
  373POPC   D2A 8800  13.770  39.235   8.255
  373POPC   C3A 8801  13.682  39.388   7.829
  373POPC   C4A 8802  13.559  39.455   7.380
  373POPC   C1B 8803  13.119  38.892   8.783
  373POPC   C2B 8804  13.220  38.824   8.375
  373POPC   C3B 8805  13.493  38.881   8.026
  373POPC   C4B 8806  13.513  38.916   7.634
  374POPC   NC3 8807  30.955  12.512   9.354
  374POPC   PO4 8808  30.347  12.587   9.708
  374POPC   GL1 8809  30.496  12.723   9.255
  374POPC   GL2 8810  30.599  13.079   9.216
  374POPC   C1A 8811  30.646  12.657   8.793
  374POPC   D2A 8812  30.466  12.826   8.391
  374POPC   C3A 8813  30.584  12.627   8.007
  374POPC   C4A 8814  30.406  12.457   7.627
  374POPC   C1B 8815  30.833  13.134   8.812
  374POPC   C2B 8816  30.935  13.058   8.400
  374POPC   C3B 8817  30.717  13.140   8.035
  374POPC   C4B 8818  31.000  13.132   7.735
  375POPC   NC3 8819  12.142  43.524   9.563
  375POPC   PO4 8820  11.747  44.060   9.514
  375POPC   GL1 8821  11.976  43.861   9.184
  375POPC   GL2 8822  11.760  43.567   9.213
  375POPC   C1A 8823  12.242  43.878   8.790
  375POPC   D2A 8824  12.030  43.911   8.372
  375POPC   C3A 8825  12.282  43.982   8.000
  375POPC   C4A 8826  12.553  44.009   7.641
  375POPC   C1B 8827  11.838  43.570   8.762
  375POPC   C2B 8828  11.812  43.450   8.326
  375POPC   C3B 8829  11.945  43.604   7.933
  375POPC   C4B 8830  12.030  43.841   7.545
  376POPC   NC3 8831  18.329  12.528   9.437
  376POPC   PO4 8832  18.664  13.125   9.361
  376POPC   GL1 8833  18.390  12.876   9.110
  376POPC   GL2 8834  18.583  12.629   8.970
  376POPC   C1A 8835  18.074  12.718   8.810
  376POPC   D2A 8836  18.259  12.610   8.422
  376POPC   C3A 8837  18.130  12.713   7.988
  376POPC   C4A 8838  18.460  12.710   7.696
  376POPC   C1B 8839  18.505  12.991   8.649
  376POPC   C2B 8840  18.346  13.092   8.224
  376POPC   C3B 8841  18.322  13.203   7.779
  376POPC   C4B 8842  18.399  13.170   7.338
  377POPC   NC3 8843  34.375   3.348   9.529
  377POPC   PO4 8844  34.236   2.692   9.446
  377POPC   GL1 8845  34.364   2.744   9.025
  377POPC   GL2 8846  34.437   3.057   9.107
  377POPC   C1A 8847  34.770   2.738   8.759
  377POPC   D2A 8848  34.986   2.680   8.342
  377POPC   C3A 8849  34.680   2.602   8.023
  377POPC   C4A 8850  34.562   2.858   7.713
  377POPC   C1B 8851  34.255   3.122   8.700
  377POPC   C2B 8852  34.211   3.353   8.303
  377POPC   C3B 8853  34.293   3.298   7.841
  377POPC   C4B 8854  34.152   3.023   7.451
  378POPC   NC3 8855  13.885  37.320   9.578
  378POPC   PO4 8856  13.613  37.826   9.541
  378POPC   GL1 8857  13.613  37.632   9.159
  378POPC   GL2 8858  13.942  37.558   9.106
  378POPC   C1A 8859  13.499  37.590   8.737
  378POPC   D2A 8860  13.259  37.820   8.436
  378POPC   C3A 8861  13.460  37.639   8.094
  378POPC   C4A 8862  13.451  37.634   7.659
  378POPC   C1B 8863  13.882  37.242   8.784
  378POPC   C2B 8864  13.760  37.272   8.340
  378POPC   C3B 8865  13.860  37.393   7.868
  378POPC   C4B 8866  13.909  37.692   7.480
  379POPC   NC3 8867  17.372  33.235   9.598
  379POPC   PO4 8868  17.872  32.701   9.515
  379POPC   GL1 8869  17.689  33.001   9.245
  379POPC   GL2 8870  17.309  33.010   9.173
  379POPC   C1A 8871  17.644  33.148   8.836
  379POPC   D2A 8872  17.443  33.264   8.459
  379POPC   C3A 8873  17.644  33.161   8.085
  379POPC   C4A 8874  17.559  33.093   7.668
  379POPC   C1B 8875  17.250  32.790   8.806
  379POPC   C2B 8876  17.105  32.874   8.422
  379POPC   C3B 8877  17.151  33.049   8.039
  379POPC   C4B 8878  17.228  32.706   7.797
  380POPC   NC3 8879  40.691   7.006   9.482
  380POPC   PO4 8880  41.123   6.517   9.325
  380POPC   GL1 8881  40.856   6.711   9.096
  380POPC   GL2 8882  40.513   6.584   9.237
  380POPC   C1A 8883  40.882   6.866   8.703
  380POPC   D2A 8884  40.534   6.852   8.432
  380POPC   C3A 8885  40.661   6.657   8.040
  380POPC   C4A 8886  40.888   6.823   7.691
  380POPC   C1B 8887  40.460   6.516   8.810
  380POPC   C2B 8888  40.525   6.278   8.438
  380POPC   C3B 8889  40.369   6.222   8.045
  380POPC   C4B 8890  40.258   6.494   7.716
  381POPC   NC3 8891   2.632   5.490   9.394
  381POPC   PO4 8892   2.831   4.789   9.403
  381POPC   GL1 8893   2.601   4.885   9.048
  381POPC   GL2 8894   2.538   5.234   8.956
  381POPC   C1A 8895   2.563   4.821   8.651
  381POPC   D2A 8896   2.740   5.123   8.348
  381POPC   C3A 8897   2.842   4.877   8.009
  381POPC   C4A 8898   2.596   4.732   7.696
  381POPC   C1B 8899   2.707   5.557   8.663
  381POPC   C2B 8900   3.007   5.600   8.314
  381POPC   C3B 8901   3.069   5.353   7.933
  381POPC   C4B 8902   2.693   5.288   7.750
  382POPC   NC3 8903  31.881  44.121   9.468
  382POPC   PO4 8904  32.408  43.810   9.743
  382POPC   GL1 8905  32.404  43.847   9.230
  382POPC   GL2 8906  32.176  44.091   9.057
  382POPC   C1A 8907  32.594  44.011   8.802
  382POPC   D2A 8908  32.485  44.274   8.419
  382POPC   C3A 8909  32.323  44.034   8.082
  382POPC   C4A 8910  32.452  43.952   7.682
  382POPC   C1B 8911  31.978  44.177   8.644
  382POPC   C2B 8912  31.966  44.364   8.221
  382POPC   C3B 8913  31.866  44.145   7.846
  382POPC   C4B 8914  31.969  43.764   7.627
  383POPC   NC3 8915  15.135  25.687   9.479
  383POPC   PO4 8916  15.102  26.376   9.465
  383POPC   GL1 8917  15.364  26.211   9.119
  383POPC   GL2 8918  15.127  25.963   9.061
  383POPC   C1A 8919  15.378  26.103   8.647
  383POPC   D2A 8920  15.459  26.405   8.300
  383POPC   C3A 8921  15.387  26.315   7.826
  383POPC   C4A 8922  15.065  26.299   7.481
  383POPC   C1B 8923  14.815  25.823   8.774
  383POPC   C2B 8924  15.016  25.769   8.400
  383POPC   C3B 8925  15.267  25.942   8.144
  383POPC   C4B 8926  15.145  25.857   7.750
  384POPC   NC3 8927  27.044   3.452   9.577
  384POPC   PO4 8928  26.505   3.869   9.466
  384POPC   GL1 8929  26.706   3.708   9.134
  384POPC   GL2 8930  26.700   3.384   9.159
  384POPC   C1A 8931  26.878   3.836   8.750
  384POPC   D2A 8932  27.023   3.681   8.337
  384POPC   C3A 8933  26.707   3.439   8.062
  384POPC   C4A 8934  26.759   3.670   7.707
  384POPC   C1B 8935  26.720   3.358   8.702
  384POPC   C2B 8936  26.994   3.176   8.403
  384POPC   C3B 8937  27.179   3.267   8.001
  384POPC   C4B 8938  27.110   3.311   7.579
  385POPC   NC3 8939  16.597   3.302   9.538
  385POPC   PO4 8940  17.194   3.622   9.403
  385POPC   GL1 8941  16.938   3.304   9.104
  385POPC   GL2 8942  16.580   3.234   9.029
  385POPC   C1A 8943  16.916   3.265   8.648
  385POPC   D2A 8944  17.021   3.576   8.375
  385POPC   C3A 8945  16.742   3.617   8.048
  385POPC   C4A 8946  16.852   3.482   7.652
  385POPC   C1B 8947  16.635   3.667   8.847
  385POPC   C2B 8948  16.630   3.976   8.504
  385POPC   C3B 8949  16.430   4.034   8.088
  385POPC   C4B 8950  16.555   3.916   7.650
  386POPC   NC3 8951  14.902  42.805   9.527
  386POPC   PO4 8952  14.247  43.019   9.476
  386POPC   GL1 8953  14.347  43.214   9.092
  386POPC   GL2 8954  14.703  43.116   9.089
  386POPC   C1A 8955  14.332  43.096   8.662
  386POPC   D2A 8956  14.567  42.942   8.307
  386POPC   C3A 8957  14.340  43.062   7.927
  386POPC   C4A 8958  14.305  42.816   7.543
  386POPC   C1B 8959  14.745  43.404   8.745
  386POPC   C2B 8960  14.545  43.453   8.332
  386POPC   C3B 8961  14.748  43.410   7.952
  386POPC   C4B 8962  14.747  43.120   7.608
  387POPC   NC3 8963  32.286  42.438   9.583
  387POPC   PO4 8964  32.661  41.891   9.414
  387POPC   GL1 8965  32.432  42.226   9.155
  387POPC   GL2 8966  32.135  42.433   9.104
  387POPC   C1A 8967  32.510  42.290   8.733
  387POPC   D2A 8968  32.229  42.305   8.401
  387POPC   C3A 8969  32.193  42.025   8.111
  387POPC   C4A 8970  32.520  42.073   7.801
  387POPC   C1B 8971  32.133  42.674   8.746
  387POPC   C2B 8972  32.075  42.771   8.303
  387POPC   C3B 8973  32.165  42.508   7.925
  387POPC   C4B 8974  32.076  42.233   7.566
  388POPC   NC3 8975  34.682  39.476   9.543
  388POPC   PO4 8976  34.740  38.764   9.518
  388POPC   GL1 8977  34.481  39.032   9.255
  388POPC   GL2 8978  34.721  39.265   9.087
  388POPC   C1A 8979  34.263  39.095   8.840
  388POPC   D2A 8980  34.376  39.502   8.611
  388POPC   C3A 8981  34.423  39.514   8.144
  388POPC   C4A 8982  34.313  39.418   7.706
  388POPC   C1B 8983  34.745  38.920   8.815
  388POPC   C2B 8984  34.468  38.734   8.513
  388POPC   C3B 8985  34.431  38.903   8.085
  388POPC   C4B 8986  34.744  39.162   7.865
  389POPC   NC3 8987  28.198  22.014   9.814
  389POPC   PO4 8988  28.720  22.353   9.568
  389POPC   GL1 8989  28.443  22.149   9.302
  389POPC   GL2 8990  28.494  22.438   9.097
  389POPC   C1A 8991  28.422  21.935   8.893
  389POPC   D2A 8992  28.475  21.808   8.460
  389POPC   C3A 8993  28.293  22.001   8.064
  389POPC   C4A 8994  28.492  22.370   7.846
  389POPC   C1B 8995  28.077  22.327   8.958
  389POPC   C2B 8996  28.105  22.231   8.534
  389POPC   C3B 8997  28.136  22.497   8.193
  389POPC   C4B 8998  27.912  22.432   7.816
  390POPC   NC3 8999  39.795  26.904   9.758
  390POPC   PO4 9000  40.237  26.902   9.170
  390POPC   GL1 9001  39.859  26.865   8.952
  390POPC   GL2 9002  39.722  27.194   8.837
  390POPC   C1A 9003  39.843  26.556   8.642
  390POPC   D2A 9004  40.129  26.641   8.323
  390POPC   C3A 9005  39.966  26.972   8.058
  390POPC   C4A 9006  39.921  26.636   7.809
  390POPC   C1B 9007  40.098  27.164   8.555
  390POPC   C2B 9008  40.429  27.095   8.242
  390POPC   C3B 9009  40.436  26.817   7.928
  390POPC   C4B 9010  40.309  26.887   7.537
  391POPC   NC3 9011  18.152   0.489   9.511
  391POPC   PO4 9012  18.810   0.676   9.477
  391POPC   GL1 9013  18.530   0.509   9.145
  391POPC   GL2 9014  18.234   0.352   9.051
  391POPC   C1A 9015  18.581   0.485   8.692
  391POPC   D2A 9016  18.811   0.442   8.287
  391POPC   C3A 9017  18.508   0.428   7.936
  391POPC   C4A 9018  18.543   0.525   7.488
  391POPC   C1B 9019  17.906   0.330   8.793
  391POPC   C2B 9020  17.839   0.484   8.407
  391POPC   C3B 9021  18.042   0.663   8.067
  391POPC   C4B 9022  18.060   0.489   7.676
  392POPC   NC3 9023  24.037  41.562   9.468
  392POPC   PO4 9024  23.403  41.497   9.508
  392POPC   GL1 9025  23.654  41.467   9.138
  392POPC   GL2 9026  23.763  41.167   8.992
  392POPC   C1A 9027  23.739  41.612   8.738
  392POPC   D2A 9028  23.705  41.493   8.325
  392POPC   C3A 9029  23.742  41.797   7.985
  392POPC   C4A 9030  23.820  41.745   7.567
  392POPC   C1B 9031  23.519  41.110   8.652
  392POPC   C2B 9032  23.607  40.989   8.214
  392POPC   C3B 9033  23.685  41.269   7.857
  392POPC   C4B 9034  23.425  41.445   7.569
  393POPC   NC3 9035   1.878  30.710   9.618
  393POPC   PO4 9036   2.459  30.434   9.486
  393POPC   GL1 9037   2.130  30.633   9.155
  393POPC   GL2 9038   1.785  30.813   9.123
  393POPC   C1A 9039   1.995  30.484   8.732
  393POPC   D2A 9040   2.246  30.453   8.366
  393POPC   C3A 9041   2.099  30.549   7.970
  393POPC   C4A 9042   1.768  30.423   7.737
  393POPC   C1B 9043   1.926  30.988   8.724
  393POPC   C2B 9044   1.790  30.772   8.330
  393POPC   C3B 9045   1.745  30.921   7.919
  393POPC   C4B 9046   2.051  31.192   7.821
  394POPC   NC3 9047   4.274  44.221   9.642
  394POPC   PO4 9048   4.515  44.826   9.517
  394POPC   GL1 9049   4.300  44.633   9.199
  394POPC   GL2 9050   3.987  44.814   9.201
  394POPC   C1A 9051   4.462  44.493   8.792
  394POPC   D2A 9052   4.432  44.203   8.477
  394POPC   C3A 9053   4.539  44.432   8.141
  394POPC   C4A 9054   4.507  44.513   7.715
  394POPC   C1B 9055   4.182  44.931   8.804
  394POPC   C2B 9056   4.104  44.688   8.452
  394POPC   C3B 9057   4.182  44.803   8.059
  394POPC   C4B 9058   4.009  44.667   7.712
  395POPC   NC3 9059  43.402  32.897   9.491
  395POPC   PO4 9060  42.811  33.133   9.258
  395POPC   GL1 9061  43.156  33.107   9.057
  395POPC   GL2 9062  42.897  33.159   8.761
  395POPC   C1A 9063  43.398  33.066   8.697
  395POPC   D2A 9064  43.234  33.314   8.380
  395POPC   C3A 9065  43.400  33.299   7.992
  395POPC   C4A 9066  43.452  32.972   7.668
  395POPC   C1B 9067  42.983  32.710   8.790
  395POPC   C2B 9068  43.199  32.597   8.461
  395POPC   C3B 9069  43.249  32.845   8.139
  395POPC   C4B 9070  42.964  32.945   7.803
  396POPC   NC3 9071  40.446   2.625   9.279
  396POPC   PO4 9072  40.713   3.137   9.649
  396POPC   GL1 9073  40.836   2.920   9.143
  396POPC   GL2 9074  40.609   2.894   8.852
  396POPC   C1A 9075  41.069   2.758   8.705
  396POPC   D2A 9076  41.018   2.796   8.215
  396POPC   C3A 9077  40.680   3.067   8.022
  396POPC   C4A 9078  40.533   3.167   7.599
  396POPC   C1B 9079  40.618   2.448   8.689
  396POPC   C2B 9080  40.363   2.291   8.360
  396POPC   C3B 9081  40.647   2.454   8.060
  396POPC   C4B 9082  40.643   2.664   7.679
  397POPC   NC3 9083  11.123  39.718   9.368
  397POPC   PO4 9084  11.499  39.266   9.774
  397POPC   GL1 9085  11.356  39.199   9.252
  397POPC   GL2 9086  11.070  39.311   9.092
  397POPC   C1A 9087  11.275  39.026   8.752
  397POPC   D2A 9088  11.183  39.213   8.329
  397POPC   C3A 9089  11.479  39.133   8.010
  397POPC   C4A 9090  11.491  38.856   7.674
  397POPC   C1B 9091  11.490  39.459   8.841
  397POPC   C2B 9092  11.490  39.619   8.449
  397POPC   C3B 9093  11.357  39.667   8.056
  397POPC   C4B 9094  11.474  39.524   7.683
  398POPC   NC3 9095   9.855  19.440   9.449
  398POPC   PO4 9096   9.850  18.751   9.471
  398POPC   GL1 9097   9.619  18.941   9.149
  398POPC   GL2 9098   9.934  19.103   9.074
  398POPC   C1A 9099   9.566  19.213   8.749
  398POPC   D2A 9100   9.567  19.378   8.320
  398POPC   C3A 9101   9.684  19.168   7.911
  398POPC   C4A 9102   9.623  19.124   7.448
  398POPC   C1B 9103  10.031  19.458   8.811
  398POPC   C2B 9104  10.174  19.427   8.396
  398POPC   C3B 9105  10.195  19.211   8.008
  398POPC   C4B 9106  10.109  19.240   7.575
  399POPC   NC3 9107  27.152  20.908   9.443
  399POPC   PO4 9108  26.860  20.323   9.470
  399POPC   GL1 9109  26.935  20.427   9.093
  399POPC   GL2 9110  26.727  20.731   9.143
  399POPC   C1A 9111  26.877  20.308   8.668
  399POPC   D2A 9112  27.086  20.309   8.273
  399POPC   C3A 9113  26.870  20.202   7.874
  399POPC   C4A 9114  27.178  20.236   7.530
  399POPC   C1B 9115  26.991  20.849   8.793
  399POPC   C2B 9116  26.900  20.809   8.382
  399POPC   C3B 9117  27.002  20.739   7.990
  399POPC   C4B 9118  26.879  20.640   7.619
  400POPC   NC3 9119  15.195  14.109   9.565
  400POPC   PO4 9120  15.053  13.364   9.509
  400POPC   GL1 9121  15.138  13.629   9.164
  400POPC   GL2 9122  14.877  13.414   9.003
  400POPC   C1A 9123  15.329  13.855   8.797
  400POPC   D2A 9124  15.385  13.698   8.367
  400POPC   C3A 9125  14.994  13.809   8.180
  400POPC   C4A 9126  14.994  13.885   7.744
  400POPC   C1B 9127  15.035  13.425   8.615
  400POPC   C2B 9128  14.967  13.204   8.229
  400POPC   C3B 9129  14.853  13.409   7.881
  400POPC   C4B 9130  15.279  13.498   7.886
  401POPC   NC3 9131  23.119  31.077   9.390
  401POPC   PO4 9132  23.042  30.539   9.913
  401POPC   GL1 9133  22.961  30.594   9.370
  401POPC   GL2 9134  22.736  30.419   9.158
  401POPC   C1A 9135  23.197  30.728   8.889
  401POPC   D2A 9136  23.153  30.958   8.461
  401POPC   C3A 9137  23.181  30.769   8.017
  401POPC   C4A 9138  23.130  30.991   7.596
  401POPC   C1B 9139  22.714  30.623   8.760
  401POPC   C2B 9140  22.717  30.721   8.329
  401POPC   C3B 9141  22.718  30.425   8.029
  401POPC   C4B 9142  22.952  30.314   7.690
  402POPC   NC3 9143  34.200  24.133   9.474
  402POPC   PO4 9144  33.765  23.594   9.356
  402POPC   GL1 9145  33.891  23.750   8.981
  402POPC   GL2 9146  34.143  24.014   8.988
  402POPC   C1A 9147  33.902  23.605   8.551
  402POPC   D2A 9148  33.716  23.744   8.240
  402POPC   C3A 9149  33.761  23.518   7.914
  402POPC   C4A 9150  33.620  23.436   7.531
  402POPC   C1B 9151  33.922  24.109   8.607
  402POPC   C2B 9152  34.062  24.131   8.216
  402POPC   C3B 9153  33.993  24.018   7.829
  402POPC   C4B 9154  33.923  23.817   7.454
  403POPC   NC3 9155  26.292  21.097   9.418
  403POPC   PO4 9156  25.801  21.450   9.586
  403POPC   GL1 9157  26.067  21.528   9.206
  403POPC   GL2 9158  26.445  21.578   9.274
  403POPC   C1A 9159  26.083  21.408   8.764
  403POPC   D2A 9160  25.817  21.282   8.398
  403POPC   C3A 9161  25.996  21.340   7.968
  403POPC   C4A 9162  25.866  21.138   7.573
  403POPC   C1B 9163  26.522  21.677   8.825
  403POPC   C2B 9164  26.403  21.674   8.357
  403POPC   C3B 9165  26.496  21.531   7.901
  403POPC   C4B 9166  26.309  21.413   7.484
  404POPC   NC3 9167  27.664  12.305   9.563
  404POPC   PO4 9168  27.463  11.729   9.511
  404POPC   GL1 9169  27.604  12.000   9.149
  404POPC   GL2 9170  27.357  12.268   9.104
  404POPC   C1A 9171  27.808  12.188   8.779
  404POPC   D2A 9172  27.709  12.382   8.368
  404POPC   C3A 9173  27.765  12.202   7.947
  404POPC   C4A 9174  27.884  12.423   7.565
  404POPC   C1B 9175  27.327  12.156   8.639
  404POPC   C2B 9176  27.306  12.140   8.172
  404POPC   C3B 9177  27.274  12.196   7.742
  404POPC   C4B 9178  27.149  11.904   7.445
  405POPC   NC3 9179  12.743  12.415   9.567
  405POPC   PO4 9180  13.087  11.919   9.639
  405POPC   GL1 9181  12.979  11.973   9.191
  405POPC   GL2 9182  12.627  12.090   9.166
  405POPC   C1A 9183  13.010  12.103   8.753
  405POPC   D2A 9184  13.057  12.260   8.303
  405POPC   C3A 9185  13.039  11.913   7.968
  405POPC   C4A 9186  13.043  11.731   7.563
  405POPC   C1B 9187  12.508  12.224   8.754
  405POPC   C2B 9188  12.501  12.369   8.345
  405POPC   C3B 9189  12.631  12.210   7.973
  405POPC   C4B 9190  12.482  12.334   7.608
  406POPC   NC3 9191   1.817  27.637   9.523
  406POPC   PO4 9192   2.433  27.998   9.447
  406POPC   GL1 9193   2.169  27.813   9.154
  406POPC   GL2 9194   1.818  27.768   9.025
  406POPC   C1A 9195   2.235  27.572   8.794
  406POPC   D2A 9196   1.952  27.519   8.438
  406POPC   C3A 9197   2.096  27.341   8.056
  406POPC   C4A 9198   1.869  27.396   7.668
  406POPC   C1B 9199   1.986  28.013   8.710
  406POPC   C2B 9200   1.843  28.018   8.307
  406POPC   C3B 9201   1.825  27.806   7.979
  406POPC   C4B 9202   1.628  27.856   7.629
  407POPC   NC3 9203  41.349   0.992   9.417
  407POPC   PO4 9204  41.557   1.714   9.449
  407POPC   GL1 9205  41.614   1.381   9.196
  407POPC   GL2 9206  41.257   1.370   9.087
  407POPC   C1A 9207  41.722   1.196   8.817
  407POPC   D2A 9208  41.484   1.006   8.477
  407POPC   C3A 9209  41.566   0.992   8.023
  407POPC   C4A 9210  41.638   1.194   7.606
  407POPC   C1B 9211  41.294   1.468   8.671
  407POPC   C2B 9212  41.206   1.350   8.236
  407POPC   C3B 9213  41.292   1.515   7.845
  407POPC   C4B 9214  41.081   1.860   7.655
  408POPC   NC3 9215  14.036  22.198   9.492
  408POPC   PO4 9216  14.704  21.983   9.548
  408POPC   GL1 9217  14.435  22.085   9.171
  408POPC   GL2 9218  14.183  21.831   9.089
  408POPC   C1A 9219  14.292  22.404   8.847
  408POPC   D2A 9220  14.069  22.520   8.459
  408POPC   C3A 9221  14.269  22.487   8.065
  408POPC   C4A 9222  14.401  22.331   7.665
  408POPC   C1B 9223  14.120  21.955   8.671
  408POPC   C2B 9224  14.202  22.011   8.246
  408POPC   C3B 9225  14.105  21.961   7.827
  408POPC   C4B 9226  14.316  21.901   7.414
  409POPC   NC3 9227   8.229  32.943  10.131
  409POPC   PO4 9228   8.032  33.020   9.462
  409POPC   GL1 9229   8.161  33.004   9.078
  409POPC   GL2 9230   8.360  32.718   9.116
  409POPC   C1A 9231   7.978  33.221   8.739
  409POPC   D2A 9232   7.874  33.309   8.319
  409POPC   C3A 9233   8.222  33.394   8.082
  409POPC   C4A 9234   8.408  33.117   7.794
  409POPC   C1B 9235   8.220  32.620   8.723
  409POPC   C2B 9236   7.974  32.802   8.407
  409POPC   C3B 9237   8.058  32.773   7.990
  409POPC   C4B 9238   8.321  32.461   7.798
  410POPC   NC3 9239  38.625   8.444   9.908
  410POPC   PO4 9240  38.341   8.051   9.436
  410POPC   GL1 9241  38.452   8.099   8.994
  410POPC   GL2 9242  38.802   8.074   8.977
  410POPC   C1A 9243  38.516   8.225   8.536
  410POPC   D2A 9244  38.250   8.242   8.157
  410POPC   C3A 9245  38.405   8.104   7.722
  410POPC   C4A 9246  38.116   8.030   7.330
  410POPC   C1B 9247  38.796   8.542   8.831
  410POPC   C2B 9248  38.843   8.720   8.424
  410POPC   C3B 9249  38.682   8.522   8.069
  410POPC   C4B 9250  38.716   8.526   7.642
  411POPC   NC3 9251   3.300  43.995   9.667
  411POPC   PO4 9252   3.758  43.512   9.519
  411POPC   GL1 9253   3.516  43.633   9.132
  411POPC   GL2 9254   3.274  43.889   9.070
  411POPC   C1A 9255   3.698  43.796   8.724
  411POPC   D2A 9256   3.689  43.609   8.373
  411POPC   C3A 9257   3.825  43.800   8.050
  411POPC   C4A 9258   3.979  43.773   7.693
  411POPC   C1B 9259   3.200  43.814   8.603
  411POPC   C2B 9260   3.398  44.020   8.232
  411POPC   C3B 9261   3.458  43.965   7.743
  411POPC   C4B 9262   3.226  44.187   7.332
  412POPC   NC3 9263  33.621   8.563   9.744
  412POPC   PO4 9264  33.941   7.995   9.525
  412POPC   GL1 9265  33.658   8.241   9.258
  412POPC   GL2 9266  33.753   8.568   9.224
  412POPC   C1A 9267  33.619   8.291   8.814
  412POPC   D2A 9268  33.649   7.986   8.478
  412POPC   C3A 9269  33.905   8.064   8.115
  412POPC   C4A 9270  33.635   8.133   7.756
  412POPC   C1B 9271  34.102   8.383   9.002
  412POPC   C2B 9272  34.171   8.306   8.556
  412POPC   C3B 9273  34.228   8.531   8.185
  412POPC   C4B 9274  33.953   8.507   7.833
  413POPC   NC3 9275  40.586  25.423   9.615
  413POPC   PO4 9276  40.987  24.937   9.403
  413POPC   GL1 9277  40.783  25.216   9.209
  413POPC   GL2 9278  41.083  25.430   9.287
  413POPC   C1A 9279  40.557  25.292   8.832
  413POPC   D2A 9280  40.636  25.115   8.424
  413POPC   C3A 9281  40.463  25.226   8.036
  413POPC   C4A 9282  40.598  25.416   7.614
  413POPC   C1B 9283  41.077  25.360   8.845
  413POPC   C2B 9284  41.127  25.342   8.410
  413POPC   C3B 9285  40.937  25.438   8.031
  413POPC   C4B 9286  41.028  25.708   7.708
  414POPC   NC3 9287   5.542  20.463   9.509
  414POPC   PO4 9288   6.180  20.081   9.389
  414POPC   GL1 9289   6.079  20.484   9.150
  414POPC   GL2 9290   5.718  20.566   9.054
  414POPC   C1A 9291   6.096  20.643   8.707
  414POPC   D2A 9292   6.101  20.357   8.341
  414POPC   C3A 9293   6.002  20.528   7.958
  414POPC   C4A 9294   6.166  20.928   7.822
  414POPC   C1B 9295   5.573  20.539   8.611
  414POPC   C2B 9296   5.750  20.825   8.307
  414POPC   C3B 9297   5.656  20.915   7.884
  414POPC   C4B 9298   5.830  20.725   7.514
  415POPC   NC3 9299  11.479  41.371   9.521
  415POPC   PO4 9300  10.934  41.770   9.622
  415POPC   GL1 9301  11.217  41.824   9.191
  415POPC   GL2 9302  11.566  41.747   9.177
  415POPC   C1A 9303  11.395  41.905   8.730
  415POPC   D2A 9304  11.152  41.726   8.413
  415POPC   C3A 9305  11.262  41.720   7.992
  415POPC   C4A 9306  11.192  41.315   7.788
  415POPC   C1B 9307  11.501  41.419   8.828
  415POPC   C2B 9308  11.376  41.230   8.400
  415POPC   C3B 9309  11.608  41.101   8.008
  415POPC   C4B 9310  11.640  41.151   7.549
  416POPC   NC3 9311  20.650  23.417   9.340
  416POPC   PO4 9312  20.372  22.965   9.719
  416POPC   GL1 9313  20.493  22.919   9.228
  416POPC   GL2 9314  20.747  23.103   8.970
  416POPC   C1A 9315  20.642  22.624   8.884
  416POPC   D2A 9316  20.796  22.834   8.542
  416POPC   C3A 9317  20.686  22.752   8.130
  416POPC   C4A 9318  20.530  22.957   7.759
  416POPC   C1B 9319  20.357  23.122   8.754
  416POPC   C2B 9320  20.147  23.191   8.353
  416POPC   C3B 9321  20.222  23.330   7.950
  416POPC   C4B 9322  20.422  23.407   7.573
  417POPC   NC3 9323  32.282  35.242   9.534
  417POPC   PO4 9324  32.224  35.879   9.507
  417POPC   GL1 9325  32.404  35.601   9.156
  417POPC   GL2 9326  32.219  35.307   9.057
  417POPC   C1A 9327  32.555  35.465   8.737
  417POPC   D2A 9328  32.300  35.396   8.370
  417POPC   C3A 9329  32.504  35.479   8.002
  417POPC   C4A 9330  32.576  35.333   7.595
  417POPC   C1B 9331  32.061  35.112   8.730
  417POPC   C2B 9332  32.178  34.857   8.387
  417POPC   C3B 9333  32.015  34.918   7.994
  417POPC   C4B 9334  32.023  35.337   7.818
  418POPC   NC3 9335  12.544  34.380   9.470
  418POPC   PO4 9336  11.959  34.841   9.562
  418POPC   GL1 9337  12.132  34.689   9.196
  418POPC   GL2 9338  12.115  34.344   9.191
  418POPC   C1A 9339  12.411  34.698   8.835
  418POPC   D2A 9340  12.471  34.520   8.398
  418POPC   C3A 9341  12.207  34.620   8.026
  418POPC   C4A 9342  12.343  34.547   7.602
  418POPC   C1B 9343  12.176  34.260   8.757
  418POPC   C2B 9344  12.128  34.112   8.347
  418POPC   C3B 9345  11.867  34.179   8.027
  418POPC   C4B 9346  11.869  34.412   7.646
  419POPC   NC3 9347  27.392  40.230   9.447
  419POPC   PO4 9348  27.641  39.683   9.479
  419POPC   GL1 9349  27.767  39.907   9.088
  419POPC   GL2 9350  27.971  40.216   9.056
  419POPC   C1A 9351  27.615  40.166   8.724
  419POPC   D2A 9352  27.447  40.303   8.332
  419POPC   C3A 9353  27.388  39.968   8.050
  419POPC   C4A 9354  27.601  39.894   7.686
  419POPC   C1B 9355  28.135  40.432   8.704
  419POPC   C2B 9356  27.953  40.477   8.302
  419POPC   C3B 9357  27.860  40.181   8.007
  419POPC   C4B 9358  28.089  40.051   7.628
  420POPC   NC3 9359  11.175  18.615   9.361
  420POPC   PO4 9360  11.318  17.972   9.527
  420POPC   GL1 9361  11.131  18.100   9.137
  420POPC   GL2 9362  11.414  18.254   9.071
  420POPC   C1A 9363  11.064  18.249   8.704
  420POPC   D2A 9364  11.338  18.337   8.350
  420POPC   C3A 9365  11.221  18.112   7.962
  420POPC   C4A 9366  11.276  17.948   7.517
  420POPC   C1B 9367  11.529  18.586   8.789
  420POPC   C2B 9368  11.785  18.573   8.415
  420POPC   C3B 9369  11.652  18.601   7.974
  420POPC   C4B 9370  11.400  18.437   7.620
  421POPC   NC3 9371  38.135   6.873   9.494
  421POPC   PO4 9372  38.758   6.466   9.553
  421POPC   GL1 9373  38.569   6.592   9.159
  421POPC   GL2 9374  38.326   6.792   9.043
  421POPC   C1A 9375  38.695   6.630   8.739
  421POPC   D2A 9376  38.457   6.565   8.400
  421POPC   C3A 9377  38.663   6.613   8.021
  421POPC   C4A 9378  38.481   6.470   7.624
  421POPC   C1B 9379  38.301   7.012   8.658
  421POPC   C2B 9380  38.072   6.882   8.275
  421POPC   C3B 9381  38.169   6.753   7.886
  421POPC   C4B 9382  38.515   6.988   7.720
  422POPC   NC3 9383  42.153   6.809   9.493
  422POPC   PO4 9384  42.416   6.147   9.440
  422POPC   GL1 9385  42.186   6.420   9.166
  422POPC   GL2 9386  42.481   6.602   9.120
  422POPC   C1A 9387  42.132   6.788   8.821
  422POPC   D2A 9388  42.414   6.933   8.452
  422POPC   C3A 9389  42.296   6.817   8.007
  422POPC   C4A 9390  42.021   6.965   7.642
  422POPC   C1B 9391  42.431   6.357   8.727
  422POPC   C2B 9392  42.552   6.413   8.310
  422POPC   C3B 9393  42.477   6.332   7.895
  422POPC   C4B 9394  42.273   6.515   7.541
  423POPC   NC3 9395  16.686  11.702   9.440
  423POPC   PO4 9396  16.903  10.999   9.506
  423POPC   GL1 9397  16.757  11.268   9.154
  423POPC   GL2 9398  17.043  11.498   9.119
  423POPC   C1A 9399  16.577  11.166   8.725
  423POPC   D2A 9400  16.742  11.104   8.311
  423POPC   C3A 9401  16.446  11.125   7.971
  423POPC   C4A 9402  16.431  10.963   7.511
  423POPC   C1B 9403  16.860  11.603   8.687
  423POPC   C2B 9404  16.537  11.580   8.341
  423POPC   C3B 9405  16.766  11.528   7.949
  423POPC   C4B 9406  17.015  11.584   7.536
  424POPC   NC3 9407   6.430  37.237   9.545
  424POPC   PO4 9408   6.623  36.670   9.830
  424POPC   GL1 9409   6.630  36.735   9.374
  424POPC   GL2 9410   6.966  36.589   9.229
  424POPC   C1A 9411   6.653  36.921   8.952
  424POPC   D2A 9412   6.919  37.056   8.600
  424POPC   C3A 9413   6.752  36.950   8.201
  424POPC   C4A 9414   6.373  37.120   7.941
  424POPC   C1B 9415   7.002  36.560   8.770
  424POPC   C2B 9416   6.828  36.438   8.348
  424POPC   C3B 9417   6.968  36.531   7.924
  424POPC   C4B 9418   6.815  36.898   7.695
  425POPC   NC3 9419   4.593  33.612   9.547
  425POPC   PO4 9420   5.179  33.929   9.539
  425POPC   GL1 9421   5.019  33.645   9.240
  425POPC   GL2 9422   5.276  33.399   9.227
  425POPC   C1A 9423   4.897  33.707   8.830
  425POPC   D2A 9424   5.105  33.942   8.533
  425POPC   C3A 9425   4.985  33.699   8.181
  425POPC   C4A 9426   5.119  33.724   7.777
  425POPC   C1B 9427   5.402  33.648   8.874
  425POPC   C2B 9428   5.365  33.494   8.474
  425POPC   C3B 9429   5.401  33.414   8.059
  425POPC   C4B 9430   5.640  33.538   7.732
  426POPC   NC3 9431  43.521  43.238   9.535
  426POPC   PO4 9432  43.055  42.812   9.280
  426POPC   GL1 9433  43.067  43.179   9.056
  426POPC   GL2 9434  43.426  43.306   9.044
  426POPC   C1A 9435  42.906  43.134   8.645
  426POPC   D2A 9436  42.756  42.792   8.386
  426POPC   C3A 9437  42.902  42.972   8.014
  426POPC   C4A 9438  42.937  43.375   7.783
  426POPC   C1B 9439  43.486  42.943   8.802
  426POPC   C2B 9440  43.301  42.899   8.420
  426POPC   C3B 9441  43.480  42.968   8.068
  426POPC   C4B 9442  43.322  43.067   7.693
  427POPC   NC3 9443  37.691  24.049   9.644
  427POPC   PO4 9444  38.100  23.575   9.370
  427POPC   GL1 9445  37.715  23.712   9.168
  427POPC   GL2 9446  37.413  23.562   9.031
  427POPC   C1A 9447  37.670  23.863   8.724
  427POPC   D2A 9448  37.729  23.646   8.320
  427POPC   C3A 9449  37.660  23.773   7.890
  427POPC   C4A 9450  37.563  23.783   7.389
  427POPC   C1B 9451  37.687  23.325   8.746
  427POPC   C2B 9452  37.879  23.159   8.375
  427POPC   C3B 9453  37.664  23.235   7.989
  427POPC   C4B 9454  37.766  23.338   7.568
  428POPC   NC3 9455  39.534  28.597   9.511
  428POPC   PO4 9456  39.014  28.353   9.508
  428POPC   GL1 9457  39.167  28.251   9.132
  428POPC   GL2 9458  39.263  28.595   9.082
  428POPC   C1A 9459  39.283  28.244   8.706
  428POPC   D2A 9460  39.171  28.456   8.349
  428POPC   C3A 9461  39.217  28.261   7.959
  428POPC   C4A 9462  39.021  28.038   7.645
  428POPC   C1B 9463  39.562  28.742   8.771
  428POPC   C2B 9464  39.626  28.706   8.332
  428POPC   C3B 9465  39.317  28.830   8.030
  428POPC   C4B 9466  39.232  28.662   7.652
  429POPC   NC3 9467  13.712   4.146   9.602
  429POPC   PO4 9468  14.099   4.519   9.470
  429POPC   GL1 9469  13.800   4.351   9.124
  429POPC   GL2 9470  13.628   4.003   9.108
  429POPC   C1A 9471  13.559   4.394   8.739
  429POPC   D2A 9472  13.323   4.250   8.360
  429POPC   C3A 9473  13.482   4.120   7.924
  429POPC   C4A 9474  13.661   4.348   7.545
  429POPC   C1B 9475  13.868   4.004   8.697
  429POPC   C2B 9476  13.845   4.245   8.286
  429POPC   C3B 9477  14.031   4.165   7.853
  429POPC   C4B 9478  14.133   4.145   7.367
  430POPC   NC3 9479   9.855  37.107   9.704
  430POPC   PO4 9480   9.866  37.817   9.525
  430POPC   GL1 9481   9.701  37.673   9.156
  430POPC   GL2 9482   9.439  37.454   9.112
  430POPC   C1A 9483   9.650  37.762   8.731
  430POPC   D2A 9484   9.528  37.936   8.382
  430POPC   C3A 9485   9.550  37.705   7.976
  430POPC   C4A 9486   9.713  37.920   7.608
  430POPC   C1B 9487   9.840  37.306   8.828
  430POPC   C2B 9488   9.799  37.146   8.415
  430POPC   C3B 9489   9.856  37.275   7.977
  430POPC   C4B 9490   9.751  37.399   7.557
  431POPC   NC3 9491  24.363  17.173   9.376
  431POPC   PO4 9492  24.827  17.687   9.457
  431POPC   GL1 9493  24.685  17.480   9.085
  431POPC   GL2 9494  24.341  17.578   9.052
  431POPC   C1A 9495  24.618  17.574   8.627
  431POPC   D2A 9496  24.677  17.915   8.304
  431POPC   C3A 9497  24.621  17.733   7.892
  431POPC   C4A 9498  24.226  17.611   7.787
  431POPC   C1B 9499  24.202  17.265   8.728
  431POPC   C2B 9500  24.226  17.213   8.269
  431POPC   C3B 9501  23.943  17.195   7.888
  431POPC   C4B 9502  24.021  17.316   7.439
  432POPC   NC3 9503  34.892  30.726   9.346
  432POPC   PO4 9504  34.179  30.453   9.473
  432POPC   GL1 9505  34.468  30.452   9.154
  432POPC   GL2 9506  34.542  30.794   8.983
  432POPC   C1A 9507  34.374  30.403   8.734
  432POPC   D2A 9508  34.479  30.775   8.441
  432POPC   C3A 9509  34.536  30.783   7.975
  432POPC   C4A 9510  34.763  31.030   7.655
  432POPC   C1B 9511  34.874  30.571   8.690
  432POPC   C2B 9512  34.903  30.528   8.221
  432POPC   C3B 9513  34.989  30.471   7.772
  432POPC   C4B 9514  34.991  30.661   7.356
  433POPC   NC3 9515  29.038  36.675   9.400
  433POPC   PO4 9516  29.193  37.259   9.608
  433POPC   GL1 9517  29.322  37.052   9.181
  433POPC   GL2 9518  29.035  37.110   9.095
  433POPC   C1A 9519  29.222  36.778   8.771
  433POPC   D2A 9520  29.183  36.503   8.444
  433POPC   C3A 9521  29.182  36.773   8.077
  433POPC   C4A 9522  29.098  36.771   7.651
  433POPC   C1B 9523  29.213  37.283   8.707
  433POPC   C2B 9524  29.062  37.266   8.293
  433POPC   C3B 9525  29.140  37.286   7.864
  433POPC   C4B 9526  28.872  37.208   7.511
  434POPC   NC3 9527   4.868  18.355   9.542
  434POPC   PO4 9528   5.590  18.089   9.470
  434POPC   GL1 9529   5.240  18.098   9.173
  434POPC   GL2 9530   4.885  18.036   9.162
  434POPC   C1A 9531   5.134  18.237   8.756
  434POPC   D2A 9532   5.374  18.477   8.481
  434POPC   C3A 9533   5.263  18.347   8.098
  434POPC   C4A 9534   5.215  18.387   7.676
  434POPC   C1B 9535   4.622  18.037   8.791
  434POPC   C2B 9536   4.730  18.003   8.364
  434POPC   C3B 9537   4.535  17.977   7.945
  434POPC   C4B 9538   4.811  18.009   7.580
  435POPC   NC3 9539   0.156   4.712   9.590
  435POPC   PO4 9540   0.475   4.156   9.309
  435POPC   GL1 9541   0.430   4.535   9.123
  435POPC   GL2 9542   0.113   4.495   9.118
  435POPC   C1A 9543   0.514   4.491   8.691
  435POPC   D2A 9544   0.693   4.580   8.286
  435POPC   C3A 9545   0.655   4.219   8.009
  435POPC   C4A 9546   0.773   4.212   7.596
  435POPC   C1B 9547  44.990   4.355   8.687
  435POPC   C2B 9548   0.196   4.216   8.277
  435POPC   C3B 9549   0.179   4.305   7.815
  435POPC   C4B 9550   0.150   4.662   7.469
  436POPC   NC3 9551  15.480  31.767   9.223
  436POPC   PO4 9552  16.016  31.918   9.567
  436POPC   GL1 9553  15.976  31.673   9.153
  436POPC   GL2 9554  15.887  31.291   9.125
  436POPC   C1A 9555  15.998  31.556   8.693
  436POPC   D2A 9556  16.095  31.801   8.295
  436POPC   C3A 9557  16.024  31.603   7.898
  436POPC   C4A 9558  16.099  31.696   7.463
  436POPC   C1B 9559  15.822  31.075   8.729
  436POPC   C2B 9560  15.755  31.295   8.315
  436POPC   C3B 9561  15.533  31.577   8.057
  436POPC   C4B 9562  15.617  31.484   7.610
  437POPC   NC3 9563  29.725  28.648   9.324
  437POPC   PO4 9564  29.084  28.332   9.538
  437POPC   GL1 9565  29.267  28.391   9.163
  437POPC   GL2 9566  29.249  28.749   9.133
  437POPC   C1A 9567  29.137  28.324   8.744
  437POPC   D2A 9568  28.906  28.220   8.394
  437POPC   C3A 9569  29.135  28.021   8.100
  437POPC   C4A 9570  29.039  28.092   7.698
  437POPC   C1B 9571  29.478  28.700   8.730
  437POPC   C2B 9572  29.229  28.697   8.378
  437POPC   C3B 9573  29.144  28.509   7.997
  437POPC   C4B 9574  29.493  28.278   7.776
  438POPC   NC3 9575  37.161  25.646   9.435
  438POPC   PO4 9576  36.767  25.100   9.519
  438POPC   GL1 9577  36.962  25.131   9.141
  438POPC   GL2 9578  37.292  25.215   9.153
  438POPC   C1A 9579  36.906  25.376   8.783
  438POPC   D2A 9580  36.936  25.255   8.365
  438POPC   C3A 9581  36.813  25.528   8.061
  438POPC   C4A 9582  36.663  25.319   7.673
  438POPC   C1B 9583  37.282  25.035   8.708
  438POPC   C2B 9584  37.422  25.125   8.262
  438POPC   C3B 9585  37.129  25.150   7.909
  438POPC   C4B 9586  36.872  24.824   7.785
  439POPC   NC3 9587  32.831  43.898   9.543
  439POPC   PO4 9588  33.524  43.826   9.344
  439POPC   GL1 9589  33.181  43.979   9.033
  439POPC   GL2 9590  32.933  43.716   9.049
  439POPC   C1A 9591  33.067  43.883   8.575
  439POPC   D2A 9592  33.187  43.540   8.259
  439POPC   C3A 9593  33.341  43.720   7.872
  439POPC   C4A 9594  33.080  44.056   7.684
  439POPC   C1B 9595  32.668  43.488   8.745
  439POPC   C2B 9596  32.575  43.688   8.382
  439POPC   C3B 9597  32.817  43.884   8.097
  439POPC   C4B 9598  32.860  43.611   7.771
  440POPC   NC3 9599  40.462  21.260   9.497
  440POPC   PO4 9600  40.936  21.505   9.828
  440POPC   GL1 9601  40.869  21.448   9.290
  440POPC   GL2 9602  40.748  21.756   9.134
  440POPC   C1A 9603  40.654  21.372   8.839
  440POPC   D2A 9604  40.697  21.617   8.421
  440POPC   C3A 9605  40.556  21.463   8.012
  440POPC   C4A 9606  40.575  21.218   7.621
  440POPC   C1B 9607  41.043  21.724   8.793
  440POPC   C2B 9608  41.083  21.953   8.369
  440POPC   C3B 9609  41.175  21.799   7.968
  440POPC   C4B 9610  40.986  21.519   7.695
  441POPC   NC3 9611  17.023   2.379   9.773
  441POPC   PO4 9612  16.454   2.161   9.431
  441POPC   GL1 9613  16.507   1.907   9.111
  441POPC   GL2 9614  16.850   1.837   9.027
  441POPC   C1A 9615  16.420   1.765   8.718
  441POPC   D2A 9616  16.696   1.900   8.395
  441POPC   C3A 9617  16.526   1.887   7.990
  441POPC   C4A 9618  16.397   1.956   7.568
  441POPC   C1B 9619  17.059   2.090   8.714
  441POPC   C2B 9620  17.114   2.255   8.319
  441POPC   C3B 9621  17.052   1.946   8.019
  441POPC   C4B 9622  16.891   1.809   7.634
  442POPC   NC3 9623   1.704  18.175   9.417
  442POPC   PO4 9624   2.133  18.660   9.437
  442POPC   GL1 9625   2.059  18.368   9.080
  442POPC   GL2 9626   2.125  17.979   9.182
  442POPC   C1A 9627   2.183  18.485   8.648
  442POPC   D2A 9628   2.205  18.624   8.190
  442POPC   C3A 9629   1.954  18.485   7.809
  442POPC   C4A 9630   1.970  18.339   7.373
  442POPC   C1B 9631   1.839  17.971   8.824
  442POPC   C2B 9632   1.724  18.199   8.490
  442POPC   C3B 9633   1.694  18.071   8.082
  442POPC   C4B 9634   1.945  17.984   7.760
  443POPC   NC3 9635  44.832  21.800   9.546
  443POPC   PO4 9636  44.669  21.179   9.557
  443POPC   GL1 9637  44.412  21.308   9.240
  443POPC   GL2 9638  44.584  21.603   9.140
  443POPC   C1A 9639  44.380  21.245   8.793
  443POPC   D2A 9640  44.538  21.451   8.408
  443POPC   C3A 9641  44.420  21.225   7.992
  443POPC   C4A 9642  44.588  21.106   7.522
  443POPC   C1B 9643  44.558  21.880   8.788
  443POPC   C2B 9644  44.836  21.982   8.460
  443POPC   C3B 9645  44.729  21.796   8.081
  443POPC   C4B 9646  44.785  21.495   7.764
  444POPC   NC3 9647   2.163  26.713   9.687
  444POPC   PO4 9648   1.656  26.520   9.303
  444POPC   GL1 9649   1.810  26.791   9.020
  444POPC   GL2 9650   2.162  26.909   9.122
  444POPC   C1A 9651   1.874  26.575   8.638
  444POPC   D2A 9652   1.945  26.303   8.330
  444POPC   C3A 9653   2.126  26.506   8.017
  444POPC   C4A 9654   2.050  26.496   7.604
  444POPC   C1B 9655   2.082  27.060   8.672
  444POPC   C2B 9656   1.894  26.917   8.273
  444POPC   C3B 9657   1.869  26.921   7.847
  444POPC   C4B 9658   2.229  27.008   7.614
  445POPC   NC3 9659  22.619  28.737   9.864
  445POPC   PO4 9660  22.843  28.116   9.653
  445POPC   GL1 9661  23.008  28.328   9.300
  445POPC   GL2 9662  22.721  28.295   9.143
  445POPC   C1A 9663  23.143  28.398   8.858
  445POPC   D2A 9664  23.178  28.176   8.470
  445POPC   C3A 9665  23.075  28.407   8.089
  445POPC   C4A 9666  23.179  28.246   7.704
  445POPC   C1B 9667  22.765  28.055   8.780
  445POPC   C2B 9668  22.677  28.264   8.403
  445POPC   C3B 9669  22.563  28.312   7.986
  445POPC   C4B 9670  22.739  28.627   7.735
  446POPC   NC3 9671   0.685  11.850   9.414
  446POPC   PO4 9672   0.275  12.358   9.463
  446POPC   GL1 9673   0.344  12.231   9.065
  446POPC   GL2 9674   0.695  12.223   9.040
  446POPC   C1A 9675   0.284  12.285   8.616
  446POPC   D2A 9676   0.231  12.038   8.234
  446POPC   C3A 9677   0.354  12.199   7.833
  446POPC   C4A 9678   0.176  12.435   7.496
  446POPC   C1B 9679   0.568  11.869   8.745
  446POPC   C2B 9680   0.746  11.787   8.339
  446POPC   C3B 9681   0.560  11.749   7.955
  446POPC   C4B 9682   0.712  11.833   7.506
  447POPC   NC3 9683  26.423  40.904   9.424
  447POPC   PO4 9684  25.839  40.671   9.549
  447POPC   GL1 9685  26.093  40.574   9.215
  447POPC   GL2 9686  25.879  40.838   9.058
  447POPC   C1A 9687  26.270  40.653   8.806
  447POPC   D2A 9688  26.035  40.753   8.445
  447POPC   C3A 9689  26.100  40.595   8.002
  447POPC   C4A 9690  26.245  40.890   7.674
  447POPC   C1B 9691  25.737  40.445   8.885
  447POPC   C2B 9692  25.675  40.400   8.471
  447POPC   C3B 9693  25.630  40.689   8.158
  447POPC   C4B 9694  25.509  40.570   7.790
  448POPC   NC3 9695   9.037  35.806   9.710
  448POPC   PO4 9696   9.385  35.363   9.320
  448POPC   GL1 9697   9.003  35.381   9.169
  448POPC   GL2 9698   8.810  35.090   9.214
  448POPC   C1A 9699   8.773  35.636   8.922
  448POPC   D2A 9700   8.714  35.680   8.500
  448POPC   C3A 9701   8.897  35.412   8.193
  448POPC   C4A 9702   9.014  35.594   7.772
  448POPC   C1B 9703   8.837  35.088   8.760
  448POPC   C2B 9704   9.072  34.922   8.405
  448POPC   C3B 9705   8.898  34.929   8.002
  448POPC   C4B 9706   8.621  35.152   7.726
  449POPC   NC3 9707  25.654   7.374   9.417
  449POPC   PO4 9708  24.999   7.646   9.517
  449POPC   GL1 9709  25.205   7.413   9.178
  449POPC   GL2 9710  25.030   7.107   9.189
  449POPC   C1A 9711  25.443   7.197   8.804
  449POPC   D2A 9712  25.487   7.391   8.386
  449POPC   C3A 9713  25.488   7.224   8.005
  449POPC   C4A 9714  25.342   7.430   7.611
  449POPC   C1B 9715  24.927   7.260   8.774
  449POPC   C2B 9716  24.979   7.179   8.364
  449POPC   C3B 9717  24.983   7.351   7.956
  449POPC   C4B 9718  24.879   7.084   7.597
  450POPC   NC3 9719  10.459  29.919   9.436
  450POPC   PO4 9720  11.047  29.984   9.679
  450POPC   GL1 9721  10.853  29.741   9.214
  450POPC   GL2 9722  10.730  29.412   9.184
  450POPC   C1A 9723  10.428  29.744   8.847
  450POPC   D2A 9724  10.163  29.983   8.515
  450POPC   C3A 9725  10.289  30.100   8.070
  450POPC   C4A 9726  10.274  29.871   7.706
  450POPC   C1B 9727  10.859  29.496   8.766
  450POPC   C2B 9728  10.661  29.774   8.398
  450POPC   C3B 9729  10.630  29.633   7.967
  450POPC   C4B 9730  10.411  29.399   7.660
  451POPC   NC3 9731  32.817  26.288   9.652
  451POPC   PO4 9732  33.469  26.077   9.561
  451POPC   GL1 9733  33.219  25.938   9.189
  451POPC   GL2 9734  32.888  25.735   9.203
  451POPC   C1A 9735  33.312  25.983   8.758
  451POPC   D2A 9736  33.124  25.923   8.376
  451POPC   C3A 9737  33.020  26.251   8.110
  451POPC   C4A 9738  33.170  26.193   7.709
  451POPC   C1B 9739  32.783  25.876   8.768
  451POPC   C2B 9740  32.630  25.829   8.293
  451POPC   C3B 9741  32.791  25.858   7.824
  451POPC   C4B 9742  32.587  25.654   7.401
  452POPC   NC3 9743   1.602  37.209   9.627
  452POPC   PO4 9744   1.160  36.724   9.606
  452POPC   GL1 9745   1.356  36.943   9.244
  452POPC   GL2 9746   1.303  37.332   9.238
  452POPC   C1A 9747   1.356  36.848   8.793
  452POPC   D2A 9748   1.107  36.681   8.418
  452POPC   C3A 9749   1.167  36.905   8.007
  452POPC   C4A 9750   0.975  36.909   7.580
  452POPC   C1B 9751   1.671  37.278   8.964
  452POPC   C2B 9752   1.660  37.277   8.529
  452POPC   C3B 9753   1.647  37.268   8.072
  452POPC   C4B 9754   1.380  37.278   7.714
  453POPC   NC3 9755  41.470  11.684   9.387
  453POPC   PO4 9756  41.343  11.052   9.522
  453POPC   GL1 9757  41.405  11.086   9.121
  453POPC   GL2 9758  41.094  10.861   9.065
  453POPC   C1A 9759  41.607  11.387   8.768
  453POPC   D2A 9760  41.593  11.641   8.351
  453POPC   C3A 9761  41.609  11.459   7.872
  453POPC   C4A 9762  41.679  11.476   7.369
  453POPC   C1B 9763  41.159  11.151   8.704
  453POPC   C2B 9764  41.304  11.165   8.256
  453POPC   C3B 9765  41.235  11.054   7.797
  453POPC   C4B 9766  41.130  11.261   7.395
  454POPC   NC3 9767  27.317  41.010   9.406
  454POPC   PO4 9768  27.801  40.546   9.452
  454POPC   GL1 9769  27.649  40.702   9.111
  454POPC   GL2 9770  27.320  40.582   9.078
  454POPC   C1A 9771  27.662  40.661   8.693
  454POPC   D2A 9772  27.746  40.920   8.396
  454POPC   C3A 9773  27.602  40.738   8.029
  454POPC   C4A 9774  27.806  40.595   7.720
  454POPC   C1B 9775  27.236  40.916   8.781
  454POPC   C2B 9776  27.236  40.765   8.398
  454POPC   C3B 9777  27.095  40.748   8.003
  454POPC   C4B 9778  27.121  41.133   7.755
  455POPC   NC3 9779  16.903  24.982   9.365
  455POPC   PO4 9780  16.737  25.528   9.403
  455POPC   GL1 9781  16.528  25.246   9.086
  455POPC   GL2 9782  16.512  24.881   9.023
  455POPC   C1A 9783  16.334  25.279   8.691
  455POPC   D2A 9784  16.471  25.510   8.306
  455POPC   C3A 9785  16.632  25.274   7.970
  455POPC   C4A 9786  16.586  24.989   7.649
  455POPC   C1B 9787  16.817  25.047   8.682
  455POPC   C2B 9788  17.177  24.946   8.388
  455POPC   C3B 9789  17.247  24.820   7.937
  455POPC   C4B 9790  17.074  24.921   7.529
  456POPC   NC3 9791   3.351  21.806   9.518
  456POPC   PO4 9792   3.811  22.237   9.582
  456POPC   GL1 9793   3.623  22.170   9.193
  456POPC   GL2 9794   3.775  21.871   9.168
  456POPC   C1A 9795   3.402  22.173   8.788
  456POPC   D2A 9796   3.329  21.970   8.406
  456POPC   C3A 9797   3.292  22.274   8.097
  456POPC   C4A 9798   3.308  22.149   7.657
  456POPC   C1B 9799   3.895  22.051   8.755
  456POPC   C2B 9800   3.750  22.305   8.405
  456POPC   C3B 9801   3.759  22.124   7.996
  456POPC   C4B 9802   3.756  21.956   7.596
  457POPC   NC3 9803  10.020  10.617   9.470
  457POPC   PO4 9804   9.632  10.174   9.557
  457POPC   GL1 9805   9.855  10.222   9.168
  457POPC   GL2 9806   9.650  10.512   9.126
  457POPC   C1A 9807  10.030  10.373   8.789
  457POPC   D2A 9808   9.915  10.819   8.609
  457POPC   C3A 9809   9.919  10.891   8.121
  457POPC   C4A 9810   9.965  10.747   7.686
  457POPC   C1B 9811   9.541  10.440   8.715
  457POPC   C2B 9812   9.696  10.479   8.316
  457POPC   C3B 9813   9.535  10.556   7.918
  457POPC   C4B 9814   9.557  10.199   7.705
  458POPC   NC3 9815  34.841  13.241   9.276
  458POPC   PO4 9816  34.418  13.752   9.451
  458POPC   GL1 9817  34.412  13.500   9.112
  458POPC   GL2 9818  34.233  13.157   9.150
  458POPC   C1A 9819  34.346  13.724   8.753
  458POPC   D2A 9820  34.138  13.835   8.423
  458POPC   C3A 9821  34.414  13.884   8.148
  458POPC   C4A 9822  34.586  13.879   7.773
  458POPC   C1B 9823  34.420  13.178   8.731
  458POPC   C2B 9824  34.693  13.452   8.492
  458POPC   C3B 9825  34.723  13.477   8.087
  458POPC   C4B 9826  34.451  13.225   7.812
  459POPC   NC3 9827  30.111  32.930   9.454
  459POPC   PO4 9828  30.531  33.366   9.228
  459POPC   GL1 9829  30.061  33.270   9.063
  459POPC   GL2 9830  29.745  32.998   9.093
  459POPC   C1A 9831  29.936  33.189   8.658
  459POPC   D2A 9832  29.735  33.287   8.309
  459POPC   C3A 9833  29.950  33.170   7.958
  459POPC   C4A 9834  29.608  33.299   7.719
  459POPC   C1B 9835  29.854  32.683   8.791
  459POPC   C2B 9836  30.013  32.721   8.419
  459POPC   C3B 9837  29.744  32.732   8.131
  459POPC   C4B 9838  29.705  32.760   7.735
  460POPC   NC3 9839   9.612  16.704   9.392
  460POPC   PO4 9840  10.048  17.116   9.351
  460POPC   GL1 9841   9.979  16.814   9.039
  460POPC   GL2 9842   9.974  16.449   9.118
  460POPC   C1A 9843   9.661  16.785   8.695
  460POPC   D2A 9844   9.742  16.936   8.270
  460POPC   C3A 9845   9.531  16.915   7.865
  460POPC   C4A 9846   9.730  16.999   7.436
  460POPC   C1B 9847   9.777  16.272   8.755
  460POPC   C2B 9848   9.533  16.371   8.397
  460POPC   C3B 9849   9.499  16.404   7.965
  460POPC   C4B 9850   9.769  16.525   7.616
  461POPC   NC3 9851   9.244  42.410   9.447
  461POPC   PO4 9852   8.768  42.957   9.465
  461POPC   GL1 9853   8.923  42.673   9.133
  461POPC   GL2 9854   8.628  42.464   9.114
  461POPC   C1A 9855   9.263  42.543   8.789
  461POPC   D2A 9856   9.347  42.707   8.355
  461POPC   C3A 9857   9.083  42.605   7.998
  461POPC   C4A 9858   9.061  42.492   7.550
  461POPC   C1B 9859   8.836  42.268   8.753
  461POPC   C2B 9860   9.022  42.213   8.318
  461POPC   C3B 9861   9.002  42.093   7.857
  461POPC   C4B 9862   8.946  42.022   7.376
  462POPC   NC3 9863  24.016   2.796   9.588
  462POPC   PO4 9864  23.445   3.185   9.612
  462POPC   GL1 9865  23.575   2.915   9.248
  462POPC   GL2 9866  23.892   2.814   9.120
  462POPC   C1A 9867  23.515   2.936   8.809
  462POPC   D2A 9868  23.407   2.946   8.386
  462POPC   C3A 9869  23.654   2.741   8.081
  462POPC   C4A 9870  23.642   2.937   7.691
  462POPC   C1B 9871  24.075   3.012   8.813
  462POPC   C2B 9872  23.918   3.028   8.423
  462POPC   C3B 9873  24.036   3.116   8.005
  462POPC   C4B 9874  24.152   2.874   7.651
  463POPC   NC3 9875  38.723  28.030   9.370
  463POPC   PO4 9876  38.189  28.255   9.486
  463POPC   GL1 9877  38.297  28.239   9.076
  463POPC   GL2 9878  38.651  28.370   9.029
  463POPC   C1A 9879  38.331  28.243   8.644
  463POPC   D2A 9880  38.667  28.310   8.383
  463POPC   C3A 9881  38.620  28.160   7.971
  463POPC   C4A 9882  38.305  28.354   7.733
  463POPC   C1B 9883  38.878  28.590   8.756
  463POPC   C2B 9884  38.778  28.828   8.400
  463POPC   C3B 9885  38.820  28.641   8.002
  463POPC   C4B 9886  38.767  28.516   7.598
  464POPC   NC3 9887  31.193  37.846   9.411
  464POPC   PO4 9888  31.705  37.446   9.403
  464POPC   GL1 9889  31.470  37.567   9.068
  464POPC   GL2 9890  31.174  37.414   8.991
  464POPC   C1A 9891  31.373  37.831   8.701
  464POPC   D2A 9892  31.550  37.863   8.273
  464POPC   C3A 9893  31.245  37.983   7.967
  464POPC   C4A 9894  31.291  37.947   7.525
  464POPC   C1B 9895  31.416  37.313   8.617
  464POPC   C2B 9896  31.443  37.369   8.184
  464POPC   C3B 9897  31.516  37.565   7.805
  464POPC   C4B 9898  31.302  37.420   7.453
  465POPC   NC3 9899   9.763  15.726   9.568
  465POPC   PO4 9900   9.509  16.291   9.519
  465POPC   GL1 9901   9.622  16.024   9.175
  465POPC   GL2 9902   9.954  15.888   9.099
  465POPC   C1A 9903   9.550  15.787   8.812
  465POPC   D2A 9904   9.531  15.592   8.423
  465POPC   C3A 9905   9.465  15.864   8.050
  465POPC   C4A 9906   9.629  15.727   7.663
  465POPC   C1B 9907  10.030  15.835   8.640
  465POPC   C2B 9908   9.900  16.013   8.280
  465POPC   C3B 9909   9.912  16.107   7.858
  465POPC   C4B 9910   9.985  16.067   7.403
  466POPC   NC3 9911  10.293  33.879   9.440
  466POPC   PO4 9912  10.739  33.459   9.559
  466POPC   GL1 9913  10.690  33.825   9.148
  466POPC   GL2 9914  10.346  33.775   8.957
  466POPC   C1A 9915  10.667  34.072   8.741
  466POPC   D2A 9916  10.336  33.921   8.422
  466POPC   C3A 9917  10.467  33.823   7.987
  466POPC   C4A 9918  10.449  33.773   7.508
  466POPC   C1B 9919  10.196  33.473   8.701
  466POPC   C2B 9920  10.272  33.364   8.263
  466POPC   C3B 9921  10.316  33.359   7.806
  466POPC   C4B 9922  10.025  33.449   7.460
  467POPC   NC3 9923  19.491  44.569   9.371
  467POPC   PO4 9924  19.991  44.951   9.321
  467POPC   GL1 9925  19.909  44.630   9.067
  467POPC   GL2 9926  19.968  44.306   9.236
  467POPC   C1A 9927  19.691  44.598   8.692
  467POPC   D2A 9928  19.454  44.798   8.396
  467POPC   C3A 9929  19.618  44.880   7.996
  467POPC   C4A 9930  19.651  44.674   7.642
  467POPC   C1B 9931  20.083  44.262   8.770
  467POPC   C2B 9932  20.148  44.579   8.454
  467POPC   C3B 9933  20.093  44.640   8.013
  467POPC   C4B 9934  20.096  44.899   7.634
  468POPC   NC3 9935  35.032   8.312   9.464
  468POPC   PO4 9936  35.676   7.999   9.483
  468POPC   GL1 9937  35.437   8.203   9.163
  468POPC   GL2 9938  35.682   8.117   8.967
  468POPC   C1A 9939  35.321   8.436   8.760
  468POPC   D2A 9940  35.203   8.301   8.347
  468POPC   C3A 9941  35.273   8.562   7.974
  468POPC   C4A 9942  35.203   8.468   7.532
  468POPC   C1B 9943  35.656   8.119   8.532
  468POPC   C2B 9944  35.660   8.202   8.118
  468POPC   C3B 9945  35.389   8.078   7.804
  468POPC   C4B 9946  35.417   8.018   7.357
  469POPC   NC3 9947  25.699  37.522   9.437
  469POPC   PO4 9948  26.426  37.606   9.580
  469POPC   GL1 9949  26.167  37.731   9.252
  469POPC   GL2 9950  26.081  37.414   9.116
  469POPC   C1A 9951  26.152  37.798   8.807
  469POPC   D2A 9952  26.010  37.585   8.452
  469POPC   C3A 9953  26.105  37.572   8.026
  469POPC   C4A 9954  26.190  37.838   7.709
  469POPC   C1B 9955  25.746  37.308   8.801
  469POPC   C2B 9956  25.628  37.202   8.371
  469POPC   C3B 9957  25.616  37.327   7.934
  469POPC   C4B 9958  25.884  37.472   7.569
  470POPC   NC3 9959  18.994  44.157   9.549
  470POPC   PO4 9960  18.516  43.828   9.851
  470POPC   GL1 9961  18.924  43.724   9.346
  470POPC   GL2 9962  18.971  44.008   9.083
  470POPC   C1A 9963  19.122  43.585   8.903
  470POPC   D2A 9964  19.102  43.876   8.508
  470POPC   C3A 9965  19.321  43.908   8.077
  470POPC   C4A 9966  19.069  43.845   7.682
  470POPC   C1B 9967  18.750  44.196   8.789
  470POPC   C2B 9968  18.737  44.285   8.416
  470POPC   C3B 9969  18.867  44.170   8.024
  470POPC   C4B 9970  18.767  44.357   7.655
  471POPC   NC3 9971   2.899  24.181   9.547
  471POPC   PO4 9972   2.351  24.632   9.452
  471POPC   GL1 9973   2.476  24.324   9.164
  471POPC   GL2 9974   2.791  24.392   9.086
  471POPC   C1A 9975   2.481  24.264   8.709
  471POPC   D2A 9976   2.722  24.301   8.313
  471POPC   C3A 9977   2.569  24.447   7.936
  471POPC   C4A 9978   2.346  24.143   7.723
  471POPC   C1B 9979   3.021  24.372   8.708
  471POPC   C2B 9980   3.224  24.267   8.322
  471POPC   C3B 9981   3.083  24.403   7.906
  471POPC   C4B 9982   2.864  24.467   7.496
  472POPC   NC3 9983  36.463  24.282   9.542
  472POPC   PO4 9984  35.945  24.663   9.517
  472POPC   GL1 9985  35.970  24.482   9.127
  472POPC   GL2 9986  36.282  24.299   9.068
  472POPC   C1A 9987  35.995  24.635   8.703
  472POPC   D2A 9988  36.301  24.701   8.404
  472POPC   C3A 9989  36.117  24.723   7.999
  472POPC   C4A 9990  36.408  24.693   7.665
  472POPC   C1B 9991  36.002  24.138   8.751
  472POPC   C2B 9992  36.059  24.249   8.323
  472POPC   C3B 9993  36.230  24.245   7.915
  472POPC   C4B 9994  35.921  24.269   7.614
  473POPC   NC3 9995  35.030  40.722   9.407
  473POPC   PO4 9996  35.725  40.919   9.482
  473POPC   GL1 9997  35.442  40.983   9.173
  473POPC   GL2 9998  35.440  40.620   9.122
  473POPC   C1A 9999  35.460  40.955   8.739
  473POPC   D2A10000  35.661  40.683   8.448
  473POPC   C3A10001  35.542  40.823   8.028
  473POPC   C4A10002  35.246  41.023   7.710
  473POPC   C1B10003  35.148  40.526   8.808
  473POPC   C2B10004  35.184  40.506   8.398
  473POPC   C3B10005  35.006  40.593   8.011
  473POPC   C4B10006  35.117  40.505   7.614
  474POPC   NC310007  26.428  37.169   9.398
  474POPC   PO410008  25.761  37.055   9.427
  474POPC   GL110009  26.009  36.910   9.072
  474POPC   GL210010  26.265  36.663   9.097
  474POPC   C1A10011  25.904  36.824   8.658
  474POPC   D2A10012  25.785  36.486   8.383
  474POPC   C3A10013  25.811  36.708   7.998
  474POPC   C4A10014  25.951  37.002   7.712
  474POPC   C1B10015  26.384  36.710   8.633
  474POPC   C2B10016  26.441  36.664   8.186
  474POPC   C3B10017  26.271  36.609   7.765
  474POPC   C4B10018  26.289  36.806   7.327
  475POPC   NC310019   7.740  39.517   9.392
  475POPC   PO410020   7.472  40.153   9.430
  475POPC   GL110021   7.549  40.060   9.027
  475POPC   GL210022   7.871  39.935   9.116
  475POPC   C1A10023   7.295  40.022   8.644
  475POPC   D2A10024   7.074  39.757   8.353
  475POPC   C3A10025   7.080  39.940   7.957
  475POPC   C4A10026   7.045  40.377   7.849
  475POPC   C1B10027   7.826  39.747   8.721
  475POPC   C2B10028   7.725  39.947   8.363
  475POPC   C3B10029   7.589  39.847   7.964
  475POPC   C4B10030   7.774  39.627   7.623
  476POPC   NC310031  29.985  42.606   9.881
  476POPC   PO410032  30.193  41.999   9.584
  476POPC   GL110033  30.105  42.384   9.325
  476POPC   GL210034  30.408  42.642   9.257
  476POPC   C1A10035  29.800  42.358   8.942
  476POPC   D2A10036  29.822  42.338   8.458
  476POPC   C3A10037  29.522  42.145   8.167
  476POPC   C4A10038  29.536  42.221   7.725
  476POPC   C1B10039  30.286  42.442   8.852
  476POPC   C2B10040  30.324  42.424   8.421
  476POPC   C3B10041  30.235  42.529   8.003
  476POPC   C4B10042  30.041  42.374   7.635
  477POPC   NC310043  39.001  24.858   9.518
  477POPC   PO410044  39.223  24.351   9.726
  477POPC   GL110045  39.263  24.481   9.251
  477POPC   GL210046  38.907  24.564   9.110
  477POPC   C1A10047  39.327  24.344   8.797
  477POPC   D2A10048  39.420  24.214   8.364
  477POPC   C3A10049  39.556  24.580   8.131
  477POPC   C4A10050  39.548  24.661   7.691
  477POPC   C1B10051  38.850  24.569   8.663
  477POPC   C2B10052  39.023  24.550   8.232
  477POPC   C3B10053  38.916  24.786   7.859
  477POPC   C4B10054  38.720  24.855   7.422
  478POPC   NC310055  34.574   1.398   9.484
  478POPC   PO410056  34.406   0.743   9.493
  478POPC   GL110057  34.272   1.091   9.142
  478POPC   GL210058  34.467   1.421   9.003
  478POPC   C1A10059  34.106   1.237   8.710
  478POPC   D2A10060  34.443   1.430   8.422
  478POPC   C3A10061  34.500   1.157   8.060
  478POPC   C4A10062  34.279   0.841   7.835
  478POPC   C1B10063  34.809   1.209   8.792
  478POPC   C2B10064  34.906   1.030   8.395
  478POPC   C3B10065  35.061   1.149   8.010
  478POPC   C4B10066  35.012   1.254   7.564
  479POPC   NC310067  14.946   9.679   9.610
  479POPC   PO410068  15.582   9.915   9.590
  479POPC   GL110069  15.401   9.868   9.163
  479POPC   GL210070  15.043   9.792   9.116
  479POPC   C1A10071  15.354   9.753   8.712
  479POPC   D2A10072  15.119   9.502   8.420
  479POPC   C3A10073  15.180   9.614   7.967
  479POPC   C4A10074  15.152   9.818   7.579
  479POPC   C1B10075  14.924  10.050   8.759
  479POPC   C2B10076  15.074   9.994   8.334
  479POPC   C3B10077  14.915  10.081   7.948
  479POPC   C4B10078  14.840  10.225   7.541
  480POPC   NC310079  37.674  40.338   9.473
  480POPC   PO410080  38.045  40.852   9.481
  480POPC   GL110081  37.855  40.998   9.100
  480POPC   GL210082  37.640  40.719   9.101
  480POPC   C1A10083  38.003  40.888   8.667
  480POPC   D2A10084  37.994  40.574   8.326
  480POPC   C3A10085  37.978  40.771   7.930
  480POPC   C4A10086  37.637  40.952   7.693
  480POPC   C1B10087  37.414  40.659   8.731
  480POPC   C2B10088  37.190  40.645   8.335
  480POPC   C3B10089  37.341  40.645   7.952
  480POPC   C4B10090  37.433  40.484   7.561
  481POPC   NC310091  27.935  41.633   9.673
  481POPC   PO410092  28.491  41.270   9.455
  481POPC   GL110093  28.189  41.315   9.147
  481POPC   GL210094  28.443  41.257   8.928
  481POPC   C1A10095  27.994  41.449   8.734
  481POPC   D2A10096  27.902  41.428   8.260
  481POPC   C3A10097  28.214  41.386   7.881
  481POPC   C4A10098  28.213  41.358   7.401
  481POPC   C1B10099  28.480  41.552   8.619
  481POPC   C2B10100  28.484  41.683   8.194
  481POPC   C3B10101  28.655  41.672   7.768
  481POPC   C4B10102  28.719  41.696   7.315
  482POPC   NC310103  28.805  19.502   9.470
  482POPC   PO410104  29.226  19.996   9.461
  482POPC   GL110105  29.009  19.893   9.135
  482POPC   GL210106  29.160  19.570   9.106
  482POPC   C1A10107  29.153  19.921   8.729
  482POPC   D2A10108  29.098  19.725   8.361
  482POPC   C3A10109  29.158  19.963   8.010
  482POPC   C4A10110  29.043  19.855   7.587
  482POPC   C1B10111  29.441  19.478   8.787
  482POPC   C2B10112  29.611  19.619   8.426
  482POPC   C3B10113  29.550  19.562   8.008
  482POPC   C4B10114  29.544  19.875   7.700
  483POPC   NC310115  31.754  31.127   9.355
  483POPC   PO410116  32.247  31.551   9.535
  483POPC   GL110117  32.239  31.490   9.125
  483POPC   GL210118  31.900  31.547   9.080
  483POPC   C1A10119  32.439  31.298   8.744
  483POPC   D2A10120  32.601  31.123   8.330
  483POPC   C3A10121  32.403  31.271   7.903
  483POPC   C4A10122  32.335  31.655   7.593
  483POPC   C1B10123  31.930  31.218   8.741
  483POPC   C2B10124  32.093  31.296   8.334
  483POPC   C3B10125  32.087  31.637   8.043
  483POPC   C4B10126  31.848  31.467   7.715
  484POPC   NC310127  20.131  14.471   9.536
  484POPC   PO410128  19.445  14.407   9.548
  484POPC   GL110129  19.747  14.273   9.255
  484POPC   GL210130  19.815  14.620   9.156
  484POPC   C1A10131  19.859  14.241   8.810
  484POPC   D2A10132  19.736  14.521   8.468
  484POPC   C3A10133  19.713  14.391   8.030
  484POPC   C4A10134  19.930  14.022   7.890
  484POPC   C1B10135  20.180  14.614   8.877
  484POPC   C2B10136  20.281  14.536   8.430
  484POPC   C3B10137  20.140  14.650   7.975
  484POPC   C4B10138  19.806  14.775   7.680
  485POPC   NC310139   3.194   8.259   9.790
  485POPC   PO410140   3.785   8.419   9.474
  485POPC   GL110141   3.771   8.346   9.083
  485POPC   GL210142   3.674   8.047   9.092
  485POPC   C1A10143   3.549   8.436   8.707
  485POPC   D2A10144   3.465   8.570   8.307
  485POPC   C3A10145   3.611   8.340   8.020
  485POPC   C4A10146   3.715   8.457   7.661
  485POPC   C1B10147   3.333   7.973   8.779
  485POPC   C2B10148   3.534   7.958   8.383
  485POPC   C3B10149   3.336   7.917   8.015
  485POPC   C4B10150   3.423   8.017   7.642
  486POPC   NC310151  42.871  21.630   9.455
  486POPC   PO410152  43.468  21.288   9.537
  486POPC   GL110153  43.209  21.292   9.140
  486POPC   GL210154  42.830  21.333   9.045
  486POPC   C1A10155  43.247  21.395   8.705
  486POPC   D2A10156  42.888  21.331   8.384
  486POPC   C3A10157  43.047  21.247   7.962
  486POPC   C4A10158  43.193  21.433   7.564
  486POPC   C1B10159  42.896  21.733   8.792
  486POPC   C2B10160  43.073  21.808   8.341
  486POPC   C3B10161  42.921  21.735   7.885
  486POPC   C4B10162  42.795  21.684   7.402
  487POPC   NC310163  37.270  20.330   9.369
  487POPC   PO410164  36.768  20.774   9.508
  487POPC   GL110165  36.703  20.627   9.104
  487POPC   GL210166  36.780  20.282   9.134
  487POPC   C1A10167  36.822  20.784   8.729
  487POPC   D2A10168  37.125  20.748   8.447
  487POPC   C3A10169  36.927  20.831   8.093
  487POPC   C4A10170  36.937  20.879   7.681
  487POPC   C1B10171  37.016  20.290   8.723
  487POPC   C2B10172  37.105  20.264   8.270
  487POPC   C3B10173  37.210  20.458   7.892
  487POPC   C4B10174  37.122  20.450   7.459
  488POPC   NC310175  13.954  27.274   9.354
  488POPC   PO410176  14.324  27.794   9.614
  488POPC   GL110177  14.373  27.583   9.225
  488POPC   GL210178  14.281  27.863   9.051
  488POPC   C1A10179  14.270  27.410   8.807
  488POPC   D2A10180  14.196  27.711   8.493
  488POPC   C3A10181  14.278  27.633   8.079
  488POPC   C4A10182  14.504  27.438   7.784
  488POPC   C1B10183  14.630  27.770   8.771
  488POPC   C2B10184  14.715  27.817   8.336
  488POPC   C3B10185  14.641  27.963   7.940
  488POPC   C4B10186  14.244  28.046   7.771
  489POPC   NC310187  26.272  25.526   9.788
  489POPC   PO410188  26.036  25.008   9.466
  489POPC   GL110189  25.971  25.181   9.046
  489POPC   GL210190  26.263  25.340   9.125
  489POPC   C1A10191  26.067  25.453   8.675
  489POPC   D2A10192  25.864  25.562   8.299
  489POPC   C3A10193  25.861  25.310   7.920
  489POPC   C4A10194  25.744  25.535   7.528
  489POPC   C1B10195  26.381  25.041   8.760
  489POPC   C2B10196  26.307  25.127   8.319
  489POPC   C3B10197  26.331  25.462   8.019
  489POPC   C4B10198  26.230  25.385   7.548
  490POPC   NC310199  33.818  41.569   9.554
  490POPC   PO410200  33.242  41.694   9.768
  490POPC   GL110201  33.438  41.624   9.248
  490POPC   GL210202  33.641  41.342   9.111
  490POPC   C1A10203  33.670  41.785   8.837
  490POPC   D2A10204  33.671  41.966   8.406
  490POPC   C3A10205  33.972  41.864   8.084
  490POPC   C4A10206  33.870  41.716   7.682
  490POPC   C1B10207  34.029  41.422   8.859
  490POPC   C2B10208  33.921  41.460   8.424
  490POPC   C3B10209  33.819  41.285   8.029
  490POPC   C4B10210  33.992  41.203   7.624
  491POPC   NC310211  33.501  32.833   9.559
  491POPC   PO410212  34.109  32.715   9.427
  491POPC   GL110213  33.872  32.943   9.160
  491POPC   GL210214  33.980  33.297   9.102
  491POPC   C1A10215  33.993  32.923   8.741
  491POPC   D2A10216  34.073  33.105   8.367
  491POPC   C3A10217  33.846  32.876   8.110
  491POPC   C4A10218  33.751  32.907   7.715
  491POPC   C1B10219  33.764  33.386   8.738
  491POPC   C2B10220  33.709  33.476   8.294
  491POPC   C3B10221  33.851  33.411   7.854
  491POPC   C4B10222  33.750  33.339   7.400
  492POPC   NC310223  18.916   6.449   9.596
  492POPC   PO410224  19.409   6.822   9.367
  492POPC   GL110225  19.296   6.666   9.021
  492POPC   GL210226  18.965   6.697   9.133
  492POPC   C1A10227  19.321   6.537   8.595
  492POPC   D2A10228  19.231   6.280   8.266
  492POPC   C3A10229  19.146   6.556   7.938
  492POPC   C4A10230  19.241   6.506   7.514
  492POPC   C1B10231  18.861   6.448   8.794
  492POPC   C2B10232  18.790   6.588   8.371
  492POPC   C3B10233  18.655   6.730   7.964
  492POPC   C4B10234  18.819   6.818   7.571
  493POPC   NC310235  15.351  27.677   9.909
  493POPC   PO410236  14.921  27.539   9.319
  493POPC   GL110237  15.119  27.789   9.045
  493POPC   GL210238  15.483  27.932   9.155
  493POPC   C1A10239  15.128  27.705   8.606
  493POPC   D2A10240  15.098  27.396   8.327
  493POPC   C3A10241  14.961  27.560   7.965
  493POPC   C4A10242  15.083  27.877   7.718
  493POPC   C1B10243  15.572  27.678   8.824
  493POPC   C2B10244  15.645  27.832   8.438
  493POPC   C3B10245  15.423  27.739   8.123
  493POPC   C4B10246  15.560  27.707   7.773
  494POPC   NC310247  16.807  21.795   9.270
  494POPC   PO410248  16.421  21.413   9.789
  494POPC   GL110249  16.523  21.362   9.329
  494POPC   GL210250  16.856  21.260   9.194
  494POPC   C1A10251  16.474  21.377   8.841
  494POPC   D2A10252  16.462  21.283   8.364
  494POPC   C3A10253  16.625  21.461   7.954
  494POPC   C4A10254  16.820  21.321   7.514
  494POPC   C1B10255  16.968  21.351   8.742
  494POPC   C2B10256  16.995  21.525   8.323
  494POPC   C3B10257  17.119  21.306   7.929
  494POPC   C4B10258  17.192  20.875   7.808
  495POPC   NC310259  35.593  11.709   9.383
  495POPC   PO410260  35.243  11.083   9.497
  495POPC   GL110261  35.224  11.293   9.141
  495POPC   GL210262  35.577  11.267   9.086
  495POPC   C1A10263  35.187  11.111   8.753
  495POPC   D2A10264  35.393  11.168   8.390
  495POPC   C3A10265  35.138  11.103   8.046
  495POPC   C4A10266  35.272  11.075   7.618
  495POPC   C1B10267  35.491  11.547   8.721
  495POPC   C2B10268  35.357  11.649   8.273
  495POPC   C3B10269  35.523  11.407   7.922
  495POPC   C4B10270  35.746  11.530   7.551
  496POPC   NC310271  34.386   9.833   9.814
  496POPC   PO410272  33.731   9.909   9.497
  496POPC   GL110273  33.826   9.942   9.036
  496POPC   GL210274  34.066   9.690   8.874
  496POPC   C1A10275  34.024  10.157   8.683
  496POPC   D2A10276  34.076   9.916   8.304
  496POPC   C3A10277  33.755   9.956   8.008
  496POPC   C4A10278  33.728   9.665   7.703
  496POPC   C1B10279  33.873   9.329   8.727
  496POPC   C2B10280  33.546   9.254   8.462
  496POPC   C3B10281  33.682   9.313   8.072
  496POPC   C4B10282  33.494   9.214   7.704
  497POPC   NC310283  10.453  39.942   9.557
  497POPC   PO410284  11.064  40.050   9.765
  497POPC   GL110285  10.806  40.101   9.241
  497POPC   GL210286  10.417  40.166   9.113
  497POPC   C1A10287  10.718  39.972   8.770
  497POPC   D2A10288  10.621  40.091   8.331
  497POPC   C3A10289  10.446  39.817   7.991
  497POPC   C4A10290  10.587  39.657   7.577
  497POPC   C1B10291  10.208  40.173   8.708
  497POPC   C2B10292  10.254  40.412   8.301
  497POPC   C3B10293  10.293  40.273   7.842
  497POPC   C4B10294  10.229  40.222   7.348
  498POPC   NC310295  33.092   5.332   9.503
  498POPC   PO410296  32.701   4.801   9.531
  498POPC   GL110297  32.603   4.862   9.101
  498POPC   GL210298  32.870   5.112   9.102
  498POPC   C1A10299  32.695   4.935   8.670
  498POPC   D2A10300  32.936   5.205   8.458
  498POPC   C3A10301  32.951   5.085   8.079
  498POPC   C4A10302  32.894   5.291   7.713
  498POPC   C1B10303  33.236   5.135   8.853
  498POPC   C2B10304  33.455   5.142   8.443
  498POPC   C3B10305  33.451   5.256   8.024
  498POPC   C4B10306  33.317   4.991   7.731
  499POPC   NC310307  35.625  14.557   9.397
  499POPC   PO410308  35.273  13.986   9.384
  499POPC   GL110309  35.227  14.315   9.076
  499POPC   GL210310  35.238  14.694   9.113
  499POPC   C1A10311  35.424  14.408   8.693
  499POPC   D2A10312  35.596  14.595   8.325
  499POPC   C3A10313  35.433  14.375   7.945
  499POPC   C4A10314  35.267  14.331   7.511
  499POPC   C1B10315  35.037  14.753   8.717
  499POPC   C2B10316  35.065  14.521   8.313
  499POPC   C3B10317  35.010  14.649   7.873
  499POPC   C4B10318  34.984  14.730   7.376
  500POPC   NC310319   7.327   7.864   9.540
  500POPC   PO410320   7.668   8.431   9.398
  500POPC   GL110321   7.595   8.213   9.044
  500POPC   GL210322   7.331   7.970   9.056
  500POPC   C1A10323   7.456   8.370   8.658
  500POPC   D2A10324   7.276   8.221   8.248
  500POPC   C3A10325   7.309   8.494   7.890
  500POPC   C4A10326   7.120   8.751   7.621
  500POPC   C1B10327   7.348   7.883   8.650
  500POPC   C2B10328   7.432   7.680   8.302
  500POPC   C3B10329   7.422   7.835   7.937
  500POPC   C4B10330   7.657   8.132   7.793
  501POPC   NC310331  28.611  13.558   9.417
  501POPC   PO410332  28.190  14.126   9.446
  501POPC   GL110333  28.410  13.938   9.106
  501POPC   GL210334  28.375  13.588   8.968
  501POPC   C1A10335  28.269  14.029   8.685
  501POPC   D2A10336  28.016  13.855   8.328
  501POPC   C3A10337  28.367  13.762   8.033
  501POPC   C4A10338  28.435  13.754   7.583
  501POPC   C1B10339  28.776  13.433   8.734
  501POPC   C2B10340  28.798  13.428   8.257
  501POPC   C3B10341  28.617  13.345   7.846
  501POPC   C4B10342  28.666  13.249   7.400
  502POPC   NC310343  15.402  33.355   9.484
  502POPC   PO410344  14.792  33.022   9.354
  502POPC   GL110345  15.192  33.061   9.122
  502POPC   GL210346  15.461  32.843   9.244
  502POPC   C1A10347  15.203  33.218   8.723
  502POPC   D2A10348  14.978  33.136   8.366
  502POPC   C3A10349  15.023  33.356   7.996
  502POPC   C4A10350  14.862  33.029   7.737
  502POPC   C1B10351  15.583  32.893   8.813
  502POPC   C2B10352  15.356  32.789   8.426
  502POPC   C3B10353  15.300  32.919   8.002
  502POPC   C4B10354  15.557  32.898   7.648
  503POPC   NC310355   2.203  17.199   9.492
  503POPC   PO410356   1.691  17.711   9.424
  503POPC   GL110357   1.941  17.490   9.160
  503POPC   GL210358   1.789  17.194   9.162
  503POPC   C1A10359   2.117  17.547   8.772
  503POPC   D2A10360   1.945  17.703   8.389
  503POPC   C3A10361   2.236  17.656   8.045
  503POPC   C4A10362   2.111  17.527   7.643
  503POPC   C1B10363   1.647  17.276   8.773
  503POPC   C2B10364   1.853  17.213   8.416
  503POPC   C3B10365   1.807  17.342   8.025
  503POPC   C4B10366   1.808  17.103   7.657
  504POPC   NC310367  24.837  27.052   9.492
  504POPC   PO410368  25.519  26.767   9.446
  504POPC   GL110369  25.485  27.007   9.099
  504POPC   GL210370  25.146  27.060   9.121
  504POPC   C1A10371  25.288  26.870   8.697
  504POPC   D2A10372  25.423  26.689   8.347
  504POPC   C3A10373  25.249  26.882   8.028
  504POPC   C4A10374  25.391  26.738   7.656
  504POPC   C1B10375  24.855  26.728   8.892
  504POPC   C2B10376  24.931  26.592   8.438
  504POPC   C3B10377  24.780  26.670   8.045
  504POPC   C4B10378  24.903  26.895   7.652
  505POPC   NC310379  32.796  22.826   9.453
  505POPC   PO410380  33.391  22.746   9.455
  505POPC   GL110381  33.178  22.760   9.107
  505POPC   GL210382  33.075  23.095   9.104
  505POPC   C1A10383  33.256  22.828   8.693
  505POPC   D2A10384  32.955  22.959   8.398
  505POPC   C3A10385  32.824  22.708   8.044
  505POPC   C4A10386  33.011  22.512   7.697
  505POPC   C1B10387  33.134  23.333   8.727
  505POPC   C2B10388  32.897  23.472   8.352
  505POPC   C3B10389  32.877  23.219   7.960
  505POPC   C4B10390  33.063  23.020   7.569
  506POPC   NC310391  31.479  19.822   9.584
  506POPC   PO410392  32.011  19.984   9.364
  506POPC   GL110393  31.696  19.836   9.103
  506POPC   GL210394  31.366  20.025   9.102
  506POPC   C1A10395  31.427  19.532   8.909
  506POPC   D2A10396  31.311  19.474   8.483
  506POPC   C3A10397  31.420  19.766   8.172
  506POPC   C4A10398  31.303  19.730   7.740
  506POPC   C1B10399  31.490  19.980   8.655
  506POPC   C2B10400  31.724  20.163   8.330
  506POPC   C3B10401  31.625  20.162   7.919
  506POPC   C4B10402  31.376  20.235   7.599
  507POPC   NC310403  30.507  43.184   9.432
  507POPC   PO410404  30.909  43.618   9.524
  507POPC   GL110405  30.901  43.367   9.126
  507POPC   GL210406  30.842  42.983   9.079
  507POPC   C1A10407  30.652  43.394   8.732
  507POPC   D2A10408  30.391  43.426   8.340
  507POPC   C3A10409  30.558  43.469   7.926
  507POPC   C4A10410  30.816  43.134   7.734
  507POPC   C1B10411  30.464  42.917   8.823
  507POPC   C2B10412  30.363  42.927   8.404
  507POPC   C3B10413  30.306  43.029   8.005
  507POPC   C4B10414  30.403  42.843   7.625
  508POPC   NC310415  29.682  26.404   9.424
  508POPC   PO410416  29.888  25.744   9.494
  508POPC   GL110417  30.035  26.050   9.174
  508POPC   GL210418  29.695  26.027   9.067
  508POPC   C1A10419  30.004  26.036   8.687
  508POPC   D2A10420  29.678  26.056   8.372
  508POPC   C3A10421  29.884  25.976   7.979
  508POPC   C4A10422  29.853  25.882   7.558
  508POPC   C1B10423  29.597  26.389   8.777
  508POPC   C2B10424  29.567  26.601   8.384
  508POPC   C3B10425  29.594  26.409   7.992
  508POPC   C4B10426  29.828  26.409   7.629
  509POPC   NC310427  42.915   3.116   9.476
  509POPC   PO410428  43.164   2.418   9.448
  509POPC   GL110429  43.211   2.747   9.165
  509POPC   GL210430  43.398   3.012   9.282
  509POPC   C1A10431  43.308   2.758   8.735
  509POPC   D2A10432  42.981   2.701   8.425
  509POPC   C3A10433  43.057   2.487   8.030
  509POPC   C4A10434  42.962   2.769   7.703
  509POPC   C1B10435  43.594   3.193   8.929
  509POPC   C2B10436  43.460   3.196   8.502
  509POPC   C3B10437  43.383   2.912   8.169
  509POPC   C4B10438  43.424   2.985   7.741
  510POPC   NC310439  34.855  24.601   9.563
  510POPC   PO410440  34.603  24.130   9.248
  510POPC   GL110441  34.639  24.492   9.123
  510POPC   GL210442  34.322  24.547   9.069
  510POPC   C1A10443  34.739  24.676   8.792
  510POPC   D2A10444  34.516  24.761   8.498
  510POPC   C3A10445  34.700  24.786   8.123
  510POPC   C4A10446  34.598  24.851   7.720
  510POPC   C1B10447  34.389  24.305   8.655
  510POPC   C2B10448  34.529  24.301   8.232
  510POPC   C3B10449  34.373  24.390   7.830
  510POPC   C4B10450  34.254  24.208   7.422
  511POPC   NC310451  27.155  29.372   9.418
  511POPC   PO410452  27.828  29.264   9.438
  511POPC   GL110453  27.593  29.267   9.117
  511POPC   GL210454  27.846  29.473   8.965
  511POPC   C1A10455  27.367  29.046   8.794
  511POPC   D2A10456  27.480  28.796   8.449
  511POPC   C3A10457  27.349  28.930   8.037
  511POPC   C4A10458  27.447  29.185   7.695
  511POPC   C1B10459  27.867  29.113   8.687
  511POPC   C2B10460  27.833  29.092   8.242
  511POPC   C3B10461  27.924  29.081   7.819
  511POPC   C4B10462  27.959  29.407   7.516
  512POPC   NC310463   5.825  44.161   9.539
  512POPC   PO410464   6.196  44.754   9.549
  512POPC   GL110465   6.090  44.485   9.233
  512POPC   GL210466   5.746  44.608   9.244
  512POPC   C1A10467   6.102  44.504   8.806
  512POPC   D2A10468   5.917  44.520   8.396
  512POPC   C3A10469   5.615  44.791   8.147
  512POPC   C4A10470   5.749  44.853   7.702
  512POPC   C1B10471   5.598  44.466   8.846
  512POPC   C2B10472   5.428  44.328   8.437
  512POPC   C3B10473   5.657  44.297   8.029
  512POPC   C4B10474   5.486  44.300   7.659
  513POPC   NC310475  36.355  11.413   9.667
  513POPC   PO410476  36.002  11.657   9.189
  513POPC   GL110477  36.239  11.308   9.144
  513POPC   GL210478  36.041  11.041   9.098
  513POPC   C1A10479  36.446  11.188   8.763
  513POPC   D2A10480  36.290  11.013   8.366
  513POPC   C3A10481  36.501  10.978   7.980
  513POPC   C4A10482  36.429  11.304   7.704
  513POPC   C1B10483  35.925  11.234   8.703
  513POPC   C2B10484  35.862  11.396   8.306
  513POPC   C3B10485  35.987  11.192   7.920
  513POPC   C4B10486  35.758  11.033   7.556
  514POPC   NC310487  14.293  35.743   9.629
  514POPC   PO410488  14.557  35.202   9.486
  514POPC   GL110489  14.471  35.433   9.146
  514POPC   GL210490  14.680  35.687   9.276
  514POPC   C1A10491  14.281  35.422   8.718
  514POPC   D2A10492  14.124  35.588   8.321
  514POPC   C3A10493  14.293  35.312   8.033
  514POPC   C4A10494  14.402  35.130   7.613
  514POPC   C1B10495  14.662  35.793   8.831
  514POPC   C2B10496  14.661  35.640   8.400
  514POPC   C3B10497  14.676  35.882   8.021
  514POPC   C4B10498  14.347  35.720   7.759
  515POPC   NC310499  28.893  40.184   9.483
  515POPC   PO410500  29.434  39.753   9.499
  515POPC   GL110501  29.201  39.820   9.185
  515POPC   GL210502  29.299  40.158   9.156
  515POPC   C1A10503  29.261  39.629   8.784
  515POPC   D2A10504  29.043  39.707   8.421
  515POPC   C3A10505  29.260  39.818   8.041
  515POPC   C4A10506  28.997  39.997   7.724
  515POPC   C1B10507  29.134  40.142   8.784
  515POPC   C2B10508  29.327  40.156   8.425
  515POPC   C3B10509  29.187  40.317   8.065
  515POPC   C4B10510  28.979  40.501   7.755
  516POPC   NC310511  39.974  27.250   9.276
  516POPC   PO410512  40.392  27.743   9.581
  516POPC   GL110513  40.121  27.713   9.177
  516POPC   GL210514  39.746  27.707   9.108
  516POPC   C1A10515  40.083  27.715   8.699
  516POPC   D2A10516  40.058  27.935   8.275
  516POPC   C3A10517  40.009  27.653   7.897
  516POPC   C4A10518  40.141  27.414   7.507
  516POPC   C1B10519  39.573  27.678   8.669
  516POPC   C2B10520  39.719  27.439   8.291
  516POPC   C3B10521  39.630  27.312   7.842
  516POPC   C4B10522  39.626  27.480   7.420
  517POPC   NC310523  29.737  28.850   9.829
  517POPC   PO410524  30.098  28.397   9.468
  517POPC   GL110525  30.126  28.378   9.071
  517POPC   GL210526  30.385  28.123   9.118
  517POPC   C1A10527  29.883  28.335   8.709
  517POPC   D2A10528  29.575  28.257   8.387
  517POPC   C3A10529  29.879  28.313   8.083
  517POPC   C4A10530  30.002  28.510   7.740
  517POPC   C1B10531  30.208  27.904   8.781
  517POPC   C2B10532  30.124  27.990   8.371
  517POPC   C3B10533  30.346  28.153   7.976
  517POPC   C4B10534  30.366  28.133   7.520
  518POPC   NC310535   6.802   0.414   9.408
  518POPC   PO410536   6.962  44.739   9.340
  518POPC   GL110537   6.922   0.049   9.028
  518POPC   GL210538   6.552   0.127   9.038
  518POPC   C1A10539   6.843   0.249   8.625
  518POPC   D2A10540   6.558   0.175   8.262
  518POPC   C3A10541   6.761   0.179   7.883
  518POPC   C4A10542   6.748   0.430   7.552
  518POPC   C1B10543   6.316   0.343   8.681
  518POPC   C2B10544   6.157   0.534   8.280
  518POPC   C3B10545   6.401   0.586   7.896
  518POPC   C4B10546   6.585   0.996   7.729
  519POPC   NC310547  20.173  13.656   9.464
  519POPC   PO410548  19.557  13.814   9.482
  519POPC   GL110549  19.832  13.794   9.082
  519POPC   GL210550  20.063  13.503   8.997
  519POPC   C1A10551  19.815  13.776   8.622
  519POPC   D2A10552  19.618  13.487   8.342
  519POPC   C3A10553  19.646  13.595   7.882
  519POPC   C4A10554  19.730  13.777   7.467
  519POPC   C1B10555  20.080  13.375   8.539
  519POPC   C2B10556  20.080  13.585   8.140
  519POPC   C3B10557  20.200  13.611   7.687
  519POPC   C4B10558  20.049  13.377   7.324
  520POPC   NC310559  41.919  10.808   9.568
  520POPC   PO410560  42.488  10.446   9.638
  520POPC   GL110561  42.294  10.539   9.192
  520POPC   GL210562  42.444  10.334   8.909
  520POPC   C1A10563  41.977  10.466   8.833
  520POPC   D2A10564  42.210  10.384   8.439
  520POPC   C3A10565  41.986  10.359   8.057
  520POPC   C4A10566  42.148  10.316   7.635
  520POPC   C1B10567  42.384  10.775   8.748
  520POPC   C2B10568  42.492  10.893   8.342
  520POPC   C3B10569  42.390  10.660   7.991
  520POPC   C4B10570  42.409  10.770   7.585
  521POPC   NC310571  44.923  28.723   9.516
  521POPC   PO410572  44.586  28.207   9.583
  521POPC   GL110573  44.613  28.281   9.159
  521POPC   GL210574  44.961  28.353   9.146
  521POPC   C1A10575  44.627  28.174   8.727
  521POPC   D2A10576  44.501  28.462   8.415
  521POPC   C3A10577  44.583  28.290   8.029
  521POPC   C4A10578  44.660  27.926   7.773
  521POPC   C1B10579  44.842  28.637   8.795
  521POPC   C2B10580  44.883  28.838   8.387
  521POPC   C3B10581   0.036  28.694   7.995
  521POPC   C4B10582  44.793  28.578   7.649
  522POPC   NC310583  17.841  31.554   9.451
  522POPC   PO410584  18.578  31.519   9.446
  522POPC   GL110585  18.349  31.714   9.116
  522POPC   GL210586  18.051  31.553   8.973
  522POPC   C1A10587  18.416  31.773   8.700
  522POPC   D2A10588  18.384  31.623   8.301
  522POPC   C3A10589  18.103  31.340   8.112
  522POPC   C4A10590  18.159  31.298   7.694
  522POPC   C1B10591  17.929  31.700   8.570
  522POPC   C2B10592  17.872  31.795   8.176
  522POPC   C3B10593  17.851  31.711   7.763
  522POPC   C4B10594  17.744  31.989   7.447
  523POPC   NC310595  20.038  11.411   9.478
  523POPC   PO410596  19.562  10.971   9.566
  523POPC   GL110597  19.632  11.230   9.215
  523POPC   GL210598  19.578  11.587   9.185
  523POPC   C1A10599  19.750  11.228   8.804
  523POPC   D2A10600  19.746  11.068   8.366
  523POPC   C3A10601  19.863  11.216   7.942
  523POPC   C4A10602  19.637  11.537   7.711
  523POPC   C1B10603  19.970  11.672   8.895
  523POPC   C2B10604  19.895  11.554   8.456
  523POPC   C3B10605  19.973  11.683   8.077
  523POPC   C4B10606  20.092  11.758   7.690
  524POPC   NC310607   3.106  21.170   9.707
  524POPC   PO410608   3.730  21.246   9.557
  524POPC   GL110609   3.533  21.411   9.201
  524POPC   GL210610   3.326  21.107   9.194
  524POPC   C1A10611   3.551  21.647   8.782
  524POPC   D2A10612   3.471  21.467   8.387
  524POPC   C3A10613   3.483  21.686   7.984
  524POPC   C4A10614   3.794  21.475   7.746
  524POPC   C1B10615   3.121  21.397   8.881
  524POPC   C2B10616   2.965  21.552   8.469
  524POPC   C3B10617   3.074  21.356   8.093
  524POPC   C4B10618   3.308  21.267   7.716
  525POPC   NC310619  13.108  44.892   9.645
  525POPC   PO410620  12.571  44.518   9.454
  525POPC   GL110621  12.943  44.612   9.212
  525POPC   GL210622  13.043  44.958   9.146
  525POPC   C1A10623  13.031  44.583   8.786
  525POPC   D2A10624  12.762  44.617   8.446
  525POPC   C3A10625  13.026  44.624   8.123
  525POPC   C4A10626  13.101  44.685   7.722
  525POPC   C1B10627  12.710  44.987   8.828
  525POPC   C2B10628  12.660   0.113   8.383
  525POPC   C3B10629  12.605  44.908   8.001
  525POPC   C4B10630  12.757   0.023   7.591
  526POPC   NC310631  11.549  20.293   9.163
  526POPC   PO410632  11.486  20.886   9.519
  526POPC   GL110633  11.251  20.718   9.151
  526POPC   GL210634  11.030  20.438   9.103
  526POPC   C1A10635  11.408  20.738   8.714
  526POPC   D2A10636  11.313  20.892   8.321
  526POPC   C3A10637  11.352  20.534   8.081
  526POPC   C4A10638  11.326  20.520   7.651
  526POPC   C1B10639  10.964  20.491   8.673
  526POPC   C2B10640  10.920  20.304   8.275
  526POPC   C3B10641  10.841  20.496   7.916
  526POPC   C4B10642  10.994  20.883   7.906
  527POPC   NC310643  21.369  24.872   9.586
  527POPC   PO410644  21.511  25.473   9.628
  527POPC   GL110645  21.483  25.206   9.214
  527POPC   GL210646  21.742  24.950   9.216
  527POPC   C1A10647  21.443  25.081   8.756
  527POPC   D2A10648  21.517  25.233   8.313
  527POPC   C3A10649  21.227  25.100   7.974
  527POPC   C4A10650  20.815  25.074   7.735
  527POPC   C1B10651  21.806  24.730   8.819
  527POPC   C2B10652  21.893  24.864   8.394
  527POPC   C3B10653  21.724  24.934   7.951
  527POPC   C4B10654  21.678  24.652   7.615
  528POPC   NC310655  21.980  37.760   9.618
  528POPC   PO410656  22.501  37.443   9.424
  528POPC   GL110657  22.169  37.602   9.143
  528POPC   GL210658  21.907  37.910   9.147
  528POPC   C1A10659  21.969  37.579   8.756
  528POPC   D2A10660  22.005  37.446   8.342
  528POPC   C3A10661  22.143  37.708   8.021
  528POPC   C4A10662  22.323  37.612   7.570
  528POPC   C1B10663  21.645  38.020   8.793
  528POPC   C2B10664  21.761  37.883   8.380
  528POPC   C3B10665  21.627  37.922   7.972
  528POPC   C4B10666  21.801  37.668   7.661
  529POPC   NC310667   8.477  21.702   9.504
  529POPC   PO410668   9.190  21.738   9.525
  529POPC   GL110669   9.078  21.911   9.120
  529POPC   GL210670   8.728  21.985   9.161
  529POPC   C1A10671   9.159  21.849   8.659
  529POPC   D2A10672   9.359  22.181   8.418
  529POPC   C3A10673   9.309  22.267   7.973
  529POPC   C4A10674   8.932  22.409   7.730
  529POPC   C1B10675   8.570  22.067   8.771
  529POPC   C2B10676   8.716  22.007   8.371
  529POPC   C3B10677   8.629  22.042   7.944
  529POPC   C4B10678   9.020  21.907   7.748
  530POPC   NC310679  10.701  41.185   9.272
  530POPC   PO410680  10.360  41.594   9.756
  530POPC   GL110681  10.393  41.588   9.304
  530POPC   GL210682  10.633  41.785   9.210
  530POPC   C1A10683  10.374  41.498   8.827
  530POPC   D2A10684  10.232  41.581   8.422
  530POPC   C3A10685  10.542  41.541   8.089
  530POPC   C4A10686  10.513  41.461   7.667
  530POPC   C1B10687  10.833  41.804   8.834
  530POPC   C2B10688  10.665  41.876   8.463
  530POPC   C3B10689  10.818  41.985   8.069
  530POPC   C4B10690  10.819  41.850   7.679
  531POPC   NC310691   3.948  20.205   9.403
  531POPC   PO410692   3.194  19.998   9.447
  531POPC   GL110693   3.410  20.054   9.085
  531POPC   GL210694   3.725  19.923   9.047
  531POPC   C1A10695   3.392  19.827   8.681
  531POPC   D2A10696   3.724  19.726   8.360
  531POPC   C3A10697   3.529  19.602   7.955
  531POPC   C4A10698   3.253  19.855   7.678
  531POPC   C1B10699   3.708  20.234   8.710
  531POPC   C2B10700   3.908  20.263   8.339
  531POPC   C3B10701   3.937  20.009   7.962
  531POPC   C4B10702   3.790  19.821   7.571
  532POPC   NC310703  40.834  37.597   9.441
  532POPC   PO410704  41.318  37.734   9.204
  532POPC   GL110705  40.940  37.731   8.925
  532POPC   GL210706  40.642  37.510   8.966
  532POPC   C1A10707  40.720  37.769   8.512
  532POPC   D2A10708  40.441  37.684   8.161
  532POPC   C3A10709  40.620  37.658   7.723
  532POPC   C4A10710  40.966  37.909   7.528
  532POPC   C1B10711  40.433  37.326   8.585
  532POPC   C2B10712  40.420  37.173   8.156
  532POPC   C3B10713  40.237  37.339   7.797
  532POPC   C4B10714  40.351  37.354   7.364
  533POPC   NC310715  38.663  42.281   9.533
  533POPC   PO410716  38.002  42.500   9.631
  533POPC   GL110717  38.161  42.291   9.306
  533POPC   GL210718  38.370  42.571   9.215
  533POPC   C1A10719  38.113  42.283   8.866
  533POPC   D2A10720  38.321  42.286   8.471
  533POPC   C3A10721  38.122  42.402   8.072
  533POPC   C4A10722  38.218  42.709   7.747
  533POPC   C1B10723  38.650  42.476   8.882
  533POPC   C2B10724  38.793  42.473   8.464
  533POPC   C3B10725  38.644  42.443   8.058
  533POPC   C4B10726  38.709  42.554   7.633
  534POPC   NC310727   2.560   8.202   9.388
  534POPC   PO410728   1.895   8.239   9.463
  534POPC   GL110729   2.101   8.438   9.138
  534POPC   GL210730   1.792   8.414   8.965
  534POPC   C1A10731   2.229   8.328   8.711
  534POPC   D2A10732   2.164   7.940   8.486
  534POPC   C3A10733   2.258   7.976   8.078
  534POPC   C4A10734   2.126   8.224   7.733
  534POPC   C1B10735   1.703   8.157   8.633
  534POPC   C2B10736   1.836   8.288   8.245
  534POPC   C3B10737   1.636   8.287   7.864
  534POPC   C4B10738   1.672   8.131   7.467
  535POPC   NC310739  19.560   8.078   9.486
  535POPC   PO410740  20.249   8.316   9.425
  535POPC   GL110741  19.877   8.272   9.142
  535POPC   GL210742  19.648   7.963   9.012
  535POPC   C1A10743  19.767   8.399   8.751
  535POPC   D2A10744  19.736   8.144   8.406
  535POPC   C3A10745  19.919   8.309   8.076
  535POPC   C4A10746  19.747   8.428   7.708
  535POPC   C1B10747  19.996   7.915   8.786
  535POPC   C2B10748  20.076   7.718   8.423
  535POPC   C3B10749  20.080   7.818   8.040
  535POPC   C4B10750  19.939   7.964   7.679
  536POPC   NC310751  17.125  24.114   9.233
  536POPC   PO410752  16.537  24.164   9.547
  536POPC   GL110753  16.681  24.401   9.197
  536POPC   GL210754  16.435  24.357   8.982
  536POPC   C1A10755  16.895  24.562   8.815
  536POPC   D2A10756  16.943  24.495   8.398
  536POPC   C3A10757  16.748  24.754   8.106
  536POPC   C4A10758  16.814  24.519   7.754
  536POPC   C1B10759  16.596  24.183   8.597
  536POPC   C2B10760  16.544  24.253   8.120
  536POPC   C3B10761  16.410  24.156   7.677
  536POPC   C4B10762  16.490  24.070   7.215
  537POPC   NC310763  12.991  41.232   9.422
  537POPC   PO410764  12.805  41.845   9.632
  537POPC   GL110765  12.713  41.620   9.221
  537POPC   GL210766  12.470  41.357   9.331
  537POPC   C1A10767  12.827  41.584   8.764
  537POPC   D2A10768  13.013  41.429   8.355
  537POPC   C3A10769  12.964  41.263   7.932
  537POPC   C4A10770  13.064  41.539   7.580
  537POPC   C1B10771  12.410  41.333   8.891
  537POPC   C2B10772  12.414  41.448   8.462
  537POPC   C3B10773  12.479  41.270   8.059
  537POPC   C4B10774  12.568  41.414   7.628
  538POPC   NC310775  10.797   2.594   9.410
  538POPC   PO410776  10.186   2.866   9.515
  538POPC   GL110777  10.453   2.906   9.136
  538POPC   GL210778  10.369   2.565   9.120
  538POPC   C1A10779  10.679   2.756   8.738
  538POPC   D2A10780  10.571   2.545   8.332
  538POPC   C3A10781  10.663   2.826   8.020
  538POPC   C4A10782  10.973   2.823   7.711
  538POPC   C1B10783  10.185   2.691   8.766
  538POPC   C2B10784  10.214   2.893   8.396
  538POPC   C3B10785  10.153   2.802   7.978
  538POPC   C4B10786  10.253   3.148   7.822
  539POPC   NC310787   6.680  28.018   9.573
  539POPC   PO410788   6.267  28.549   9.506
  539POPC   GL110789   6.491  28.356   9.221
  539POPC   GL210790   6.252  28.147   9.118
  539POPC   C1A10791   6.644  28.484   8.819
  539POPC   D2A10792   6.527  28.592   8.394
  539POPC   C3A10793   6.793  28.472   8.006
  539POPC   C4A10794   6.833  28.132   7.667
  539POPC   C1B10795   6.077  27.983   8.734
  539POPC   C2B10796   6.090  28.167   8.351
  539POPC   C3B10797   6.272  28.343   8.008
  539POPC   C4B10798   6.312  28.058   7.673
  540POPC   NC310799  37.933   9.801   9.811
  540POPC   PO410800  37.381   9.435   9.480
  540POPC   GL110801  37.632   9.651   9.193
  540POPC   GL210802  37.958   9.743   9.260
  540POPC   C1A10803  37.731   9.504   8.789
  540POPC   D2A10804  37.560   9.478   8.395
  540POPC   C3A10805  37.726   9.724   8.073
  540POPC   C4A10806  37.536   9.556   7.714
  540POPC   C1B10807  37.897   9.994   8.850
  540POPC   C2B10808  38.070  10.112   8.419
  540POPC   C3B10809  37.922  10.249   7.991
  540POPC   C4B10810  37.558  10.086   7.751
  541POPC   NC310811  36.542  28.131   9.493
  541POPC   PO410812  35.945  28.366   9.581
  541POPC   GL110813  36.058  28.393   9.157
  541POPC   GL210814  35.881  28.071   9.112
  541POPC   C1A10815  36.336  28.479   8.755
  541POPC   D2A10816  36.508  28.661   8.349
  541POPC   C3A10817  36.260  28.503   7.962
  541POPC   C4A10818  36.335  28.127   7.678
  541POPC   C1B10819  35.657  28.253   8.745
  541POPC   C2B10820  35.620  28.361   8.299
  541POPC   C3B10821  35.738  28.564   7.933
  541POPC   C4B10822  35.937  28.424   7.521
  542POPC   NC310823  33.842   2.870   9.627
  542POPC   PO410824  33.231   2.893   9.522
  542POPC   GL110825  33.537   2.611   9.289
  542POPC   GL210826  33.833   2.788   9.134
  542POPC   C1A10827  33.517   2.516   8.840
  542POPC   D2A10828  33.410   2.660   8.422
  542POPC   C3A10829  33.683   2.576   8.054
  542POPC   C4A10830  33.742   2.875   7.743
  542POPC   C1B10831  33.753   3.034   8.793
  542POPC   C2B10832  33.875   2.934   8.381
  542POPC   C3B10833  34.165   2.863   8.060
  542POPC   C4B10834  34.139   2.576   7.720
  543POPC   NC310835   6.031  42.573   9.424
  543POPC   PO410836   5.508  42.132   9.383
  543POPC   GL110837   5.636  42.425   9.119
  543POPC   GL210838   5.943  42.205   9.095
  543POPC   C1A10839   5.784  42.649   8.774
  543POPC   D2A10840   6.021  42.632   8.382
  543POPC   C3A10841   5.797  42.570   8.023
  543POPC   C4A10842   5.997  42.633   7.603
  543POPC   C1B10843   6.110  42.250   8.718
  543POPC   C2B10844   6.354  42.117   8.395
  543POPC   C3B10845   6.081  42.134   8.127
  543POPC   C4B10846   5.946  42.165   7.746
  544POPC   NC310847  16.410  33.019   9.429
  544POPC   PO410848  15.716  33.050   9.644
  544POPC   GL110849  15.932  33.030   9.256
  544POPC   GL210850  15.752  33.278   9.118
  544POPC   C1A10851  16.073  32.770   8.893
  544POPC   D2A10852  16.263  32.858   8.495
  544POPC   C3A10853  16.242  32.827   8.053
  544POPC   C4A10854  16.015  33.074   7.757
  544POPC   C1B10855  15.701  33.401   8.683
  544POPC   C2B10856  15.682  33.190   8.281
  544POPC   C3B10857  15.562  33.351   7.880
  544POPC   C4B10858  15.724  33.401   7.454
  545POPC   NC310859  10.856  24.072   9.418
  545POPC   PO410860  10.528  24.630   9.520
  545POPC   GL110861  10.714  24.542   9.166
  545POPC   GL210862  10.524  24.271   9.069
  545POPC   C1A10863  10.619  24.661   8.765
  545POPC   D2A10864  10.517  24.441   8.420
  545POPC   C3A10865  10.407  24.679   8.072
  545POPC   C4A10866  10.529  24.713   7.675
  545POPC   C1B10867  10.853  24.189   8.765
  545POPC   C2B10868  10.872  24.074   8.330
  545POPC   C3B10869  10.762  24.326   7.985
  545POPC   C4B10870  10.920  24.391   7.585
  546POPC   NC310871   6.901  10.573   9.544
  546POPC   PO410872   6.212  10.377   9.470
  546POPC   GL110873   6.561  10.551   9.158
  546POPC   GL210874   6.872  10.802   9.107
  546POPC   C1A10875   6.698  10.463   8.720
  546POPC   D2A10876   6.423  10.513   8.366
  546POPC   C3A10877   6.543  10.409   7.940
  546POPC   C4A10878   6.872  10.264   7.673
  546POPC   C1B10879   6.953  10.924   8.711
  546POPC   C2B10880   6.956  10.701   8.292
  546POPC   C3B10881   6.921  10.765   7.837
  546POPC   C4B10882   6.927  10.718   7.372
  547POPC   NC310883  39.188  33.300   9.467
  547POPC   PO410884  39.525  32.783   9.598
  547POPC   GL110885  39.332  32.877   9.178
  547POPC   GL210886  39.457  33.186   9.036
  547POPC   C1A10887  39.079  32.912   8.782
  547POPC   D2A10888  39.016  33.020   8.338
  547POPC   C3A10889  39.308  32.759   8.118
  547POPC   C4A10890  39.517  32.757   7.738
  547POPC   C1B10891  39.262  33.365   8.640
  547POPC   C2B10892  39.206  33.492   8.212
  547POPC   C3B10893  39.271  33.370   7.781
  547POPC   C4B10894  39.277  33.152   7.371
  548POPC   NC310895   9.705  30.454   9.415
  548POPC   PO410896  10.070  31.009   9.502
  548POPC   GL110897  10.015  30.783   9.151
  548POPC   GL210898   9.659  30.852   9.115
  548POPC   C1A10899   9.930  30.699   8.721
  548POPC   D2A10900   9.765  30.709   8.332
  548POPC   C3A10901  10.001  30.635   7.996
  548POPC   C4A10902   9.937  30.785   7.622
  548POPC   C1B10903   9.552  31.051   8.712
  548POPC   C2B10904   9.333  30.976   8.302
  548POPC   C3B10905   9.489  30.917   7.850
  548POPC   C4B10906   9.436  31.183   7.410
  549POPC   NC310907  13.211  20.760  10.039
  549POPC   PO410908  13.668  20.558   9.564
  549POPC   GL110909  13.525  20.480   9.165
  549POPC   GL210910  13.759  20.207   9.183
  549POPC   C1A10911  13.435  20.630   8.739
  549POPC   D2A10912  13.452  20.840   8.327
  549POPC   C3A10913  13.578  20.545   8.032
  549POPC   C4A10914  13.493  20.374   7.615
  549POPC   C1B10915  13.794  20.265   8.764
  549POPC   C2B10916  13.880  20.600   8.494
  549POPC   C3B10917  14.075  20.614   8.110
  549POPC   C4B10918  13.944  20.591   7.676
  550POPC   NC310919  19.531   3.692   9.589
  550POPC   PO410920  20.170   3.703   9.376
  550POPC   GL110921  19.901   3.543   9.099
  550POPC   GL210922  19.553   3.555   9.114
  550POPC   C1A10923  19.866   3.565   8.680
  550POPC   D2A10924  20.044   3.788   8.387
  550POPC   C3A10925  19.690   3.813   8.164
  550POPC   C4A10926  19.619   3.697   7.762
  550POPC   C1B10927  19.488   3.267   8.784
  550POPC   C2B10928  19.455   3.401   8.382
  550POPC   C3B10929  19.582   3.252   8.006
  550POPC   C4B10930  19.347   3.270   7.635
  551POPC   NC310931  18.823   9.980   9.568
  551POPC   PO410932  18.855   9.332   9.473
  551POPC   GL110933  18.839   9.622   9.127
  551POPC   GL210934  18.720   9.991   9.090
  551POPC   C1A10935  18.865   9.456   8.730
  551POPC   D2A10936  18.962   9.361   8.310
  551POPC   C3A10937  19.211   9.649   8.125
  551POPC   C4A10938  19.195   9.815   7.706
  551POPC   C1B10939  19.002   9.955   8.752
  551POPC   C2B10940  18.792   9.837   8.382
  551POPC   C3B10941  18.745   9.834   7.963
  551POPC   C4B10942  18.770  10.140   7.645
  552POPC   NC310943  25.532  29.686   9.521
  552POPC   PO410944  24.948  29.969   9.489
  552POPC   GL110945  25.129  29.700   9.181
  552POPC   GL210946  25.377  29.939   9.109
  552POPC   C1A10947  25.334  29.522   8.828
  552POPC   D2A10948  25.300  29.812   8.472
  552POPC   C3A10949  25.335  29.651   8.108
  552POPC   C4A10950  25.370  29.754   7.730
  552POPC   C1B10951  25.335  30.219   8.805
  552POPC   C2B10952  25.228  30.333   8.426
  552POPC   C3B10953  25.320  30.164   8.026
  552POPC   C4B10954  25.090  30.191   7.617
  553POPC   NC310955  18.183   6.406   9.629
  553POPC   PO410956  18.649   6.851   9.605
  553POPC   GL110957  18.519   6.524   9.271
  553POPC   GL210958  18.302   6.755   9.190
  553POPC   C1A10959  18.360   6.389   8.859
  553POPC   D2A10960  18.336   6.302   8.411
  553POPC   C3A10961  18.252   6.410   7.974
  553POPC   C4A10962  18.477   6.412   7.589
  553POPC   C1B10963  18.530   6.857   8.772
  553POPC   C2B10964  18.351   6.897   8.331
  553POPC   C3B10965  18.312   7.184   7.945
  553POPC   C4B10966  18.124   7.413   7.543
  554POPC   NC310967  29.977   4.435   9.344
  554POPC   PO410968  30.053   3.822   9.310
  554POPC   GL110969  29.986   4.079   8.985
  554POPC   GL210970  29.662   4.162   9.041
  554POPC   C1A10971  30.177   4.288   8.663
  554POPC   D2A10972  30.365   4.184   8.296
  554POPC   C3A10973  30.033   4.234   8.016
  554POPC   C4A10974  29.995   3.991   7.686
  554POPC   C1B10975  29.717   4.488   8.754
  554POPC   C2B10976  29.675   4.314   8.377
  554POPC   C3B10977  29.528   4.423   7.992
  554POPC   C4B10978  29.769   4.685   7.722
  555POPC   NC310979  41.333  31.625   9.523
  555POPC   PO410980  41.929  31.343   9.562
  555POPC   GL110981  41.731  31.495   9.200
  555POPC   GL210982  41.420  31.322   9.110
  555POPC   C1A10983  41.826  31.363   8.788
  555POPC   D2A10984  41.611  31.331   8.405
  555POPC   C3A10985  41.825  31.513   8.077
  555POPC   C4A10986  41.789  31.302   7.706
  555POPC   C1B10987  41.221  31.210   8.716
  555POPC   C2B10988  41.088  31.211   8.285
  555POPC   C3B10989  41.347  31.357   7.937
  555POPC   C4B10990  41.273  31.593   7.542
  556POPC   NC310991  32.691  32.582   9.473
  556POPC   PO410992  32.860  33.257   9.565
  556POPC   GL110993  33.055  33.214   9.149
  556POPC   GL210994  33.426  33.219   9.128
  556POPC   C1A10995  32.989  33.036   8.743
  556POPC   D2A10996  32.898  33.237   8.358
  556POPC   C3A10997  32.916  33.164   7.925
  556POPC   C4A10998  32.843  32.883   7.596
  556POPC   C1B10999  33.480  32.909   8.803
  556POPC   C2B11000  33.317  32.878   8.371
  556POPC   C3B11001  33.409  33.125   8.021
  556POPC   C4B11002  33.302  33.085   7.596
  557POPC   NC311003   9.313  39.222   9.561
  557POPC   PO411004   9.841  38.859   9.644
  557POPC   GL111005   9.818  39.040   9.215
  557POPC   GL211006   9.715  39.392   9.251
  557POPC   C1A11007   9.707  38.979   8.760
  557POPC   D2A11008   9.434  39.053   8.394
  557POPC   C3A11009   9.571  38.931   7.968
  557POPC   C4A11010   9.887  39.113   7.713
  557POPC   C1B11011   9.972  39.401   8.880
  557POPC   C2B11012   9.837  39.367   8.432
  557POPC   C3B11013   9.876  39.523   8.009
  557POPC   C4B11014  10.081  39.729   7.640
  558POPC   NC311015  26.846  28.513   9.404
  558POPC   PO411016  26.449  28.021   9.223
  558POPC   GL111017  26.656  28.349   8.975
  558POPC   GL211018  26.596  28.742   9.026
  558POPC   C1A11019  26.959  28.205   8.699
  558POPC   D2A11020  26.777  28.062   8.327
  558POPC   C3A11021  26.938  28.129   7.930
  558POPC   C4A11022  26.813  28.039   7.486
  558POPC   C1B11023  26.967  28.722   8.742
  558POPC   C2B11024  27.046  28.561   8.326
  558POPC   C3B11025  26.855  28.715   7.971
  558POPC   C4B11026  26.887  28.535   7.601
  559POPC   NC311027   0.219  20.224   9.518
  559POPC   PO411028   0.605  20.832   9.500
  559POPC   GL111029   0.427  20.887   9.119
  559POPC   GL211030   0.265  20.569   9.137
  559POPC   C1A11031   0.560  20.657   8.724
  559POPC   D2A11032   0.486  20.517   8.295
  559POPC   C3A11033   0.486  20.891   8.008
  559POPC   C4A11034   0.454  20.993   7.558
  559POPC   C1B11035   0.177  20.303   8.776
  559POPC   C2B11036  44.966  20.417   8.392
  559POPC   C3B11037   0.075  20.340   7.998
  559POPC   C4B11038   0.463  20.452   7.769
  560POPC   NC311039   2.416  35.162   9.354
  560POPC   PO411040   1.777  35.192   9.532
  560POPC   GL111041   1.974  35.367   9.188
  560POPC   GL211042   1.777  35.605   9.042
  560POPC   C1A11043   1.921  35.154   8.818
  560POPC   D2A11044   2.087  35.131   8.437
  560POPC   C3A11045   1.973  35.429   8.158
  560POPC   C4A11046   2.019  35.290   7.764
  560POPC   C1B11047   2.055  35.602   8.680
  560POPC   C2B11048   2.420  35.580   8.386
  560POPC   C3B11049   2.375  35.622   7.925
  560POPC   C4B11050   1.950  35.817   7.781
  561POPC   NC311051  17.828   9.962   9.536
  561POPC   PO411052  18.031   9.327   9.477
  561POPC   GL111053  18.334   9.600   9.217
  561POPC   GL211054  18.188   9.943   9.162
  561POPC   C1A11055  18.416   9.755   8.760
  561POPC   D2A11056  18.021   9.781   8.535
  561POPC   C3A11057  17.859   9.866   8.099
  561POPC   C4A11058  17.944   9.645   7.732
  561POPC   C1B11059  17.882  10.154   8.860
  561POPC   C2B11060  17.962  10.256   8.414
  561POPC   C3B11061  18.321  10.064   8.210
  561POPC   C4B11062  18.291  10.014   7.784
  562POPC   NC311063  42.768  10.812   9.510
  562POPC   PO411064  43.063  11.510   9.489
  562POPC   GL111065  43.049  11.315   9.092
  562POPC   GL211066  42.700  11.194   9.138
  562POPC   C1A11067  43.258  11.314   8.664
  562POPC   D2A11068  43.589  11.178   8.347
  562POPC   C3A11069  43.367  11.092   7.976
  562POPC   C4A11070  43.071  11.357   7.763
  562POPC   C1B11071  42.711  11.203   8.689
  562POPC   C2B11072  42.952  11.115   8.293
  562POPC   C3B11073  42.855  10.899   7.898
  562POPC   C4B11074  42.847  10.983   7.409
  563POPC   NC311075   9.303  13.067   9.586
  563POPC   PO411076   9.898  12.764   9.573
  563POPC   GL111077   9.974  12.790   9.141
  563POPC   GL211078   9.640  12.800   9.061
  563POPC   C1A11079  10.007  12.618   8.730
  563POPC   D2A11080  10.009  12.818   8.374
  563POPC   C3A11081   9.859  12.704   8.050
  563POPC   C4A11082  10.017  12.810   7.637
  563POPC   C1B11083   9.825  13.121   8.748
  563POPC   C2B11084   9.734  13.313   8.321
  563POPC   C3B11085   9.687  13.164   7.888
  563POPC   C4B11086   9.523  12.761   7.675
  564POPC   NC311087  43.702   8.569   9.311
  564POPC   PO411088  44.119   9.040   9.633
  564POPC   GL111089  44.053   8.909   9.181
  564POPC   GL211090  43.889   9.171   9.055
  564POPC   C1A11091  43.892   8.760   8.723
  564POPC   D2A11092  43.978   8.489   8.335
  564POPC   C3A11093  43.812   8.749   7.997
  564POPC   C4A11094  44.034   9.087   7.768
  564POPC   C1B11095  43.782   9.265   8.671
  564POPC   C2B11096  43.743   9.159   8.276
  564POPC   C3B11097  43.557   9.215   7.896
  564POPC   C4B11098  43.518   9.061   7.519
  565POPC   NC311099  31.163  39.390   9.364
  565POPC   PO411100  31.776  39.156   9.470
  565POPC   GL111101  31.690  39.441   9.119
  565POPC   GL211102  31.367  39.341   8.927
  565POPC   C1A11103  31.656  39.658   8.694
  565POPC   D2A11104  31.390  39.393   8.418
  565POPC   C3A11105  31.478  39.412   8.012
  565POPC   C4A11106  31.452  39.173   7.666
  565POPC   C1B11107  31.156  38.975   8.789
  565POPC   C2B11108  31.218  38.822   8.404
  565POPC   C3B11109  31.129  39.045   8.071
  565POPC   C4B11110  31.011  38.913   7.675
  566POPC   NC311111  39.048  26.447   9.410
  566POPC   PO411112  39.685  26.475   9.613
  566POPC   GL111113  39.471  26.715   9.255
  566POPC   GL211114  39.133  26.928   9.250
  566POPC   C1A11115  39.379  26.761   8.800
  566POPC   D2A11116  39.582  26.938   8.407
  566POPC   C3A11117  39.471  26.830   7.963
  566POPC   C4A11118  39.469  26.633   7.535
  566POPC   C1B11119  38.881  26.941   8.852
  566POPC   C2B11120  39.018  26.851   8.441
  566POPC   C3B11121  38.981  26.721   8.036
  566POPC   C4B11122  39.051  26.919   7.654
  567POPC   NC311123  35.130  21.103   9.433
  567POPC   PO411124  35.646  21.542   9.461
  567POPC   GL111125  35.330  21.456   9.124
  567POPC   GL211126  35.268  21.101   8.963
  567POPC   C1A11127  35.309  21.672   8.760
  567POPC   D2A11128  35.581  21.675   8.411
  567POPC   C3A11129  35.403  21.648   7.984
  567POPC   C4A11130  35.443  21.856   7.591
  567POPC   C1B11131  35.541  21.201   8.668
  567POPC   C2B11132  35.499  21.217   8.247
  567POPC   C3B11133  35.588  21.186   7.868
  567POPC   C4B11134  35.209  21.200   7.675
  568POPC   NC311135  37.683   8.369   9.581
  568POPC   PO411136  37.510   7.802   9.238
  568POPC   GL111137  37.895   7.942   9.029
  568POPC   GL211138  37.979   8.251   9.150
  568POPC   C1A11139  38.043   8.027   8.623
  568POPC   D2A11140  37.762   7.998   8.268
  568POPC   C3A11141  37.818   8.194   7.872
  568POPC   C4A11142  37.409   8.333   7.735
  568POPC   C1B11143  37.734   8.410   8.848
  568POPC   C2B11144  37.850   8.489   8.449
  568POPC   C3B11145  37.589   8.587   8.140
  568POPC   C4B11146  37.753   8.704   7.785
  569POPC   NC311147  38.075  42.921   9.468
  569POPC   PO411148  38.814  42.800   9.503
  569POPC   GL111149  38.555  43.057   9.195
  569POPC   GL211150  38.247  43.295   9.167
  569POPC   C1A11151  38.540  42.989   8.746
  569POPC   D2A11152  38.777  42.995   8.358
  569POPC   C3A11153  38.587  43.009   7.952
  569POPC   C4A11154  38.531  43.262   7.581
  569POPC   C1B11155  38.054  43.144   8.766
  569POPC   C2B11156  38.209  43.061   8.316
  569POPC   C3B11157  38.100  43.223   7.881
  569POPC   C4B11158  38.067  43.202   7.396
  570POPC   NC311159  41.859   6.073   9.405
  570POPC   PO411160  41.266   5.655   9.472
  570POPC   GL111161  41.505   5.801   9.127
  570POPC   GL211162  41.448   6.162   9.083
  570POPC   C1A11163  41.813   5.838   8.795
  570POPC   D2A11164  41.971   6.032   8.411
  570POPC   C3A11165  41.673   6.234   8.152
  570POPC   C4A11166  41.479   6.051   7.808
  570POPC   C1B11167  41.445   6.150   8.617
  570POPC   C2B11168  41.442   5.799   8.313
  570POPC   C3B11169  41.293   5.534   7.973
  570POPC   C4B11170  41.311   5.634   7.540
  571POPC   NC311171  44.995  14.938   9.697
  571POPC   PO411172   0.226  15.500   9.594
  571POPC   GL111173   0.332  15.256   9.233
  571POPC   GL211174   0.654  15.377   9.213
  571POPC   C1A11175   0.351  15.037   8.810
  571POPC   D2A11176   0.361  15.252   8.412
  571POPC   C3A11177   0.495  15.037   8.051
  571POPC   C4A11178   0.223  14.923   7.733
  571POPC   C1B11179   0.569  15.532   8.803
  571POPC   C2B11180   0.718  15.608   8.371
  571POPC   C3B11181   0.542  15.572   7.939
  571POPC   C4B11182   0.455  15.357   7.577
  572POPC   NC311183  38.025  13.728   9.569
  572POPC   PO411184  37.361  13.620   9.632
  572POPC   GL111185  37.569  13.503   9.220
  572POPC   GL211186  37.747  13.804   9.094
  572POPC   C1A11187  37.584  13.437   8.745
  572POPC   D2A11188  37.607  13.203   8.335
  572POPC   C3A11189  37.764  13.481   8.060
  572POPC   C4A11190  37.377  13.553   7.860
  572POPC   C1B11191  37.943  13.775   8.671
  572POPC   C2B11192  37.692  13.917   8.368
  572POPC   C3B11193  37.674  13.970   7.952
  572POPC   C4B11194  37.730  13.701   7.565
  573POPC   NC311195   5.802  36.477   9.376
  573POPC   PO411196   6.056  37.082   9.296
  573POPC   GL111197   5.838  36.860   9.045
  573POPC   GL211198   6.166  36.641   9.065
  573POPC   C1A11199   5.674  36.990   8.665
  573POPC   D2A11200   5.826  37.358   8.437
  573POPC   C3A11201   5.612  37.343   8.048
  573POPC   C4A11202   5.771  37.111   7.695
  573POPC   C1B11203   5.951  36.518   8.700
  573POPC   C2B11204   5.707  36.560   8.332
  573POPC   C3B11205   5.952  36.771   8.027
  573POPC   C4B11206   6.163  36.798   7.618
  574POPC   NC311207  25.110  27.992   9.287
  574POPC   PO411208  25.261  27.349   9.641
  574POPC   GL111209  25.427  27.511   9.235
  574POPC   GL211210  25.613  27.835   9.289
  574POPC   C1A11211  25.333  27.379   8.790
  574POPC   D2A11212  25.458  27.217   8.383
  574POPC   C3A11213  25.230  27.395   8.072
  574POPC   C4A11214  25.534  27.362   7.766
  574POPC   C1B11215  25.632  27.789   8.834
  574POPC   C2B11216  25.422  27.735   8.438
  574POPC   C3B11217  25.530  27.806   8.031
  574POPC   C4B11218  25.160  27.880   7.844
  575POPC   NC311219  44.324   2.331   9.419
  575POPC   PO411220  44.717   1.910   9.786
  575POPC   GL111221  44.707   1.959   9.334
  575POPC   GL211222  44.930   1.699   9.265
  575POPC   C1A11223  44.708   2.056   8.869
  575POPC   D2A11224  44.466   2.160   8.489
  575POPC   C3A11225  44.670   2.099   8.096
  575POPC   C4A11226  44.432   2.205   7.742
  575POPC   C1B11227  44.904   1.575   8.844
  575POPC   C2B11228  44.983   1.773   8.452
  575POPC   C3B11229  44.978   1.668   8.030
  575POPC   C4B11230  44.630   1.696   7.756
  576POPC   NC311231  34.074  19.320   9.458
  576POPC   PO411232  34.747  19.171   9.494
  576POPC   GL111233  34.730  19.160   9.100
  576POPC   GL211234  34.413  19.287   9.094
  576POPC   C1A11235  34.657  19.003   8.723
  576POPC   D2A11236  34.912  18.888   8.394
  576POPC   C3A11237  34.759  19.003   8.052
  576POPC   C4A11238  34.368  18.878   7.869
  576POPC   C1B11239  34.264  19.410   8.711
  576POPC   C2B11240  34.370  19.227   8.309
  576POPC   C3B11241  34.309  19.373   7.889
  576POPC   C4B11242  34.333  19.445   7.426
  577POPC   NC311243  20.160   9.496   9.431
  577POPC   PO411244  19.939  10.163   9.492
  577POPC   GL111245  19.763   9.878   9.139
  577POPC   GL211246  19.918   9.553   8.995
  577POPC   C1A11247  19.536   9.738   8.719
  577POPC   D2A11248  19.777   9.577   8.362
  577POPC   C3A11249  19.673   9.741   7.967
  577POPC   C4A11250  19.610   9.572   7.555
  577POPC   C1B11251  20.041   9.865   8.713
  577POPC   C2B11252  20.208   9.880   8.317
  577POPC   C3B11253  20.175   9.665   7.964
  577POPC   C4B11254  20.048   9.850   7.615
  578POPC   NC311255  43.270  41.198   9.423
  578POPC   PO411256  42.943  41.760   9.363
  578POPC   GL111257  43.079  41.539   9.071
  578POPC   GL211258  43.444  41.639   9.178
  578POPC   C1A11259  42.862  41.592   8.693
  578POPC   D2A11260  42.925  41.855   8.359
  578POPC   C3A11261  42.922  41.612   8.004
  578POPC   C4A11262  42.928  41.716   7.582
  578POPC   C1B11263  43.486  41.438   8.805
  578POPC   C2B11264  43.301  41.487   8.418
  578POPC   C3B11265  43.477  41.509   8.034
  578POPC   C4B11266  43.437  41.640   7.627
  579POPC   NC311267  30.941  17.700   9.486
  579POPC   PO411268  30.478  17.258   9.509
  579POPC   GL111269  30.627  17.511   9.147
  579POPC   GL211270  30.932  17.345   9.112
  579POPC   C1A11271  30.551  17.789   8.780
  579POPC   D2A11272  30.621  17.587   8.391
  579POPC   C3A11273  30.660  17.747   7.985
  579POPC   C4A11274  30.487  17.446   7.712
  579POPC   C1B11275  31.021  17.593   8.750
  579POPC   C2B11276  31.093  17.775   8.352
  579POPC   C3B11277  31.119  17.509   8.014
  579POPC   C4B11278  30.980  17.440   7.635
  580POPC   NC311279  12.365  27.821   9.466
  580POPC   PO411280  13.027  27.800   9.669
  580POPC   GL111281  12.830  27.690   9.268
  580POPC   GL211282  12.899  27.363   9.133
  580POPC   C1A11283  12.752  27.791   8.842
  580POPC   D2A11284  12.992  27.950   8.493
  580POPC   C3A11285  12.983  27.832   8.068
  580POPC   C4A11286  12.636  27.778   7.816
  580POPC   C1B11287  12.691  27.266   8.734
  580POPC   C2B11288  12.799  27.111   8.313
  580POPC   C3B11289  12.924  27.333   7.938
  580POPC   C4B11290  13.154  27.542   7.633
  581POPC   NC311291   4.728  11.204  10.076
  581POPC   PO411292   5.064  11.436   9.527
  581POPC   GL111293   4.833  11.250   9.140
  581POPC   GL211294   4.659  10.898   9.164
  581POPC   C1A11295   4.932  11.420   8.727
  581POPC   D2A11296   5.332  11.492   8.510
  581POPC   C3A11297   5.335  11.393   8.074
  581POPC   C4A11298   5.317  11.053   7.798
  581POPC   C1B11299   4.765  10.939   8.712
  581POPC   C2B11300   4.981  11.088   8.334
  581POPC   C3B11301   4.808  11.027   7.943
  581POPC   C4B11302   5.009  10.662   7.886
  582POPC   NC311303  16.371  30.707   9.444
  582POPC   PO411304  16.976  30.613   9.570
  582POPC   GL111305  16.825  30.710   9.143
  582POPC   GL211306  16.843  31.094   9.150
  582POPC   C1A11307  16.668  30.523   8.724
  582POPC   D2A11308  16.461  30.611   8.300
  582POPC   C3A11309  16.577  30.458   7.885
  582POPC   C4A11310  16.800  30.668   7.511
  582POPC   C1B11311  16.577  31.019   8.784
  582POPC   C2B11312  16.682  31.106   8.367
  582POPC   C3B11313  16.750  30.932   7.967
  582POPC   C4B11314  16.935  31.133   7.617
  583POPC   NC311315  12.305  17.567   9.814
  583POPC   PO411316  12.883  17.317   9.503
  583POPC   GL111317  13.137  17.381   9.112
  583POPC   GL211318  12.873  17.628   9.093
  583POPC   C1A11319  13.118  17.561   8.663
  583POPC   D2A11320  13.176  17.733   8.288
  583POPC   C3A11321  13.061  17.445   7.980
  583POPC   C4A11322  13.173  17.482   7.544
  583POPC   C1B11323  12.619  17.656   8.725
  583POPC   C2B11324  12.658  17.542   8.309
  583POPC   C3B11325  12.590  17.648   7.904
  583POPC   C4B11326  12.690  17.378   7.585
  584POPC   NC311327   3.094  17.801   9.595
  584POPC   PO411328   2.622  17.374   9.566
  584POPC   GL111329   2.505  17.556   9.169
  584POPC   GL211330   2.791  17.798   9.160
  584POPC   C1A11331   2.646  17.557   8.733
  584POPC   D2A11332   2.975  17.392   8.447
  584POPC   C3A11333   2.903  17.321   8.023
  584POPC   C4A11334   2.598  17.365   7.708
  584POPC   C1B11335   2.847  18.038   8.757
  584POPC   C2B11336   2.670  17.866   8.331
  584POPC   C3B11337   2.724  17.812   7.901
  584POPC   C4B11338   2.831  17.847   7.484
  585POPC   NC311339  27.198  36.952   9.366
  585POPC   PO411340  27.919  36.779   9.558
  585POPC   GL111341  27.672  36.764   9.204
  585POPC   GL211342  27.981  36.727   9.046
  585POPC   C1A11343  27.556  36.690   8.751
  585POPC   D2A11344  27.748  36.670   8.348
  585POPC   C3A11345  27.412  36.701   8.027
  585POPC   C4A11346  27.162  36.692   7.637
  585POPC   C1B11347  27.870  37.094   8.778
  585POPC   C2B11348  27.657  37.157   8.352
  585POPC   C3B11349  27.815  37.015   7.948
  585POPC   C4B11350  27.870  37.212   7.557
  586POPC   NC311351  37.667  42.185   9.539
  586POPC   PO411352  37.197  42.586   9.311
  586POPC   GL111353  37.565  42.440   9.056
  586POPC   GL211354  37.650  42.083   9.047
  586POPC   C1A11355  37.697  42.414   8.600
  586POPC   D2A11356  37.594  42.335   8.154
  586POPC   C3A11357  37.748  42.438   7.711
  586POPC   C4A11358  37.935  42.661   7.334
  586POPC   C1B11359  37.806  41.881   8.709
  586POPC   C2B11360  37.930  41.992   8.334
  586POPC   C3B11361  37.853  41.941   7.924
  586POPC   C4B11362  38.043  41.984   7.569
  587POPC   NC311363  17.084  31.558   9.596
  587POPC   PO411364  17.690  31.828   9.787
  587POPC   GL111365  17.421  31.776   9.275
  587POPC   GL211366  17.148  31.535   9.117
  587POPC   C1A11367  17.548  31.516   8.842
  587POPC   D2A11368  17.714  31.235   8.506
  587POPC   C3A11369  17.576  31.378   8.106
  587POPC   C4A11370  17.441  31.249   7.717
  587POPC   C1B11371  17.148  31.874   8.840
  587POPC   C2B11372  17.427  31.883   8.485
  587POPC   C3B11373  17.241  31.814   8.124
  587POPC   C4B11374  17.338  31.789   7.704
  588POPC   NC311375  13.424  21.850   9.794
  588POPC   PO411376  12.833  22.158   9.581
  588POPC   GL111377  12.987  22.355   9.259
  588POPC   GL211378  12.894  22.044   9.058
  588POPC   C1A11379  12.815  22.511   8.886
  588POPC   D2A11380  12.983  22.685   8.523
  588POPC   C3A11381  12.869  22.426   8.181
  588POPC   C4A11382  12.650  22.434   7.800
  588POPC   C1B11383  12.786  21.754   8.699
  588POPC   C2B11384  12.925  21.540   8.317
  588POPC   C3B11385  13.078  21.696   7.947
  588POPC   C4B11386  12.804  21.773   7.583
  589POPC   NC311387  20.737  31.719   9.535
  589POPC   PO411388  20.550  31.145   9.478
  589POPC   GL111389  20.782  31.376   9.149
  589POPC   GL211390  20.504  31.606   9.091
  589POPC   C1A11391  20.796  31.535   8.695
  589POPC   D2A11392  20.495  31.691   8.393
  589POPC   C3A11393  20.602  31.530   8.022
  589POPC   C4A11394  20.880  31.590   7.739
  589POPC   C1B11395  20.375  31.266   8.805
  589POPC   C2B11396  20.142  31.252   8.414
  589POPC   C3B11397  20.253  31.171   8.020
  589POPC   C4B11398  20.185  31.309   7.626
  590POPC   NC311399  27.041  18.121   9.769
  590POPC   PO411400  27.746  18.301   9.668
  590POPC   GL111401  27.801  18.263   9.234
  590POPC   GL211402  27.547  18.466   9.113
  590POPC   C1A11403  27.705  18.072   8.830
  590POPC   D2A11404  27.568  18.331   8.484
  590POPC   C3A11405  27.583  18.188   8.057
  590POPC   C4A11406  27.468  18.154   7.635
  590POPC   C1B11407  27.926  18.561   8.858
  590POPC   C2B11408  27.934  18.708   8.441
  590POPC   C3B11409  27.658  18.690   8.113
  590POPC   C4B11410  27.786  18.544   7.714
  591POPC   NC311411  43.365  29.498   9.673
  591POPC   PO411412  42.768  29.939   9.561
  591POPC   GL111413  42.930  30.043   9.159
  591POPC   GL211414  43.080  30.294   9.087
  591POPC   C1A11415  43.199  29.923   8.770
  591POPC   D2A11416  43.470  29.933   8.430
  591POPC   C3A11417  43.368  29.829   8.021
  591POPC   C4A11418  43.378  30.174   7.737
  591POPC   C1B11419  42.766  30.185   8.724
  591POPC   C2B11420  42.617  30.031   8.332
  591POPC   C3B11421  42.889  29.998   7.955
  591POPC   C4B11422  42.924  30.310   7.607
  592POPC   NC311423   9.925  44.461   9.454
  592POPC   PO411424   9.592   0.066   9.429
  592POPC   GL111425   9.854  44.832   9.140
  592POPC   GL211426   9.616  44.546   9.039
  592POPC   C1A11427  10.060  44.748   8.742
  592POPC   D2A11428  10.161  44.898   8.314
  592POPC   C3A11429   9.847  44.902   7.958
  592POPC   C4A11430   9.741  44.783   7.505
  592POPC   C1B11431   9.740  44.346   8.639
  592POPC   C2B11432   9.939  44.366   8.215
  592POPC   C3B11433   9.745  44.371   7.791
  592POPC   C4B11434   9.590  44.306   7.340
  593POPC   NC311435  11.520  12.774   9.574
  593POPC   PO411436  11.229  13.278   9.420
  593POPC   GL111437  11.267  12.968   9.122
  593POPC   GL211438  11.136  12.641   9.217
  593POPC   C1A11439  11.411  12.808   8.744
  593POPC   D2A11440  11.584  12.934   8.353
  593POPC   C3A11441  11.328  12.988   8.016
  593POPC   C4A11442  11.418  12.717   7.735
  593POPC   C1B11443  10.889  12.684   8.828
  593POPC   C2B11444  11.006  12.823   8.416
  593POPC   C3B11445  10.936  12.626   8.026
  593POPC   C4B11446  10.941  12.909   7.690
  594POPC   NC311447   1.394  25.324   9.515
  594POPC   PO411448   0.899  24.874   9.425
  594POPC   GL111449   1.068  25.161   9.128
  594POPC   GL211450   1.453  25.125   9.061
  594POPC   C1A11451   1.136  25.265   8.694
  594POPC   D2A11452   0.974  25.486   8.335
  594POPC   C3A11453   1.072  25.299   7.955
  594POPC   C4A11454   1.003  25.308   7.541
  594POPC   C1B11455   1.637  25.276   8.662
  594POPC   C2B11456   1.494  25.330   8.260
  594POPC   C3B11457   1.507  25.591   7.921
  594POPC   C4B11458   1.679  25.595   7.543
  595POPC   NC311459   5.192  42.453   9.492
  595POPC   PO411460   4.616  42.041   9.573
  595POPC   GL111461   4.767  42.273   9.148
  595POPC   GL211462   5.142  42.236   9.043
  595POPC   C1A11463   4.846  42.266   8.661
  595POPC   D2A11464   5.049  42.280   8.274
  595POPC   C3A11465   4.787  42.375   7.926
  595POPC   C4A11466   4.885  42.586   7.512
  595POPC   C1B11467   5.285  42.547   8.711
  595POPC   C2B11468   5.247  42.770   8.306
  595POPC   C3B11469   5.228  42.611   7.907
  595POPC   C4B11470   5.499  42.408   7.642
  596POPC   NC311471   6.566  36.254   9.660
  596POPC   PO411472   6.340  35.780   9.246
  596POPC   GL111473   6.528  36.036   8.974
  596POPC   GL211474   6.544  36.289   9.150
  596POPC   C1A11475   6.920  36.066   8.731
  596POPC   D2A11476   6.916  35.906   8.328
  596POPC   C3A11477   6.558  36.067   8.106
  596POPC   C4A11478   6.794  36.068   7.737
  596POPC   C1B11479   6.495  36.470   8.735
  596POPC   C2B11480   6.313  36.537   8.347
  596POPC   C3B11481   6.460  36.599   7.987
  596POPC   C4B11482   6.548  36.479   7.625
  597POPC   NC311483  26.115  38.126   9.898
  597POPC   PO411484  26.499  38.563   9.581
  597POPC   GL111485  26.223  38.493   9.217
  597POPC   GL211486  26.128  38.802   9.050
  597POPC   C1A11487  26.000  38.308   8.854
  597POPC   D2A11488  25.863  38.153   8.465
  597POPC   C3A11489  26.045  38.166   8.074
  597POPC   C4A11490  25.970  38.275   7.668
  597POPC   C1B11491  26.412  38.768   8.721
  597POPC   C2B11492  26.280  38.526   8.370
  597POPC   C3B11493  26.221  38.641   7.930
  597POPC   C4B11494  25.852  38.742   7.648
  598POPC   NC311495  37.668  12.444   9.605
  598POPC   PO411496  37.526  11.812   9.575
  598POPC   GL111497  37.689  11.874   9.155
  598POPC   GL211498  37.855  12.167   9.189
  598POPC   C1A11499  37.653  12.003   8.715
  598POPC   D2A11500  37.585  12.219   8.324
  598POPC   C3A11501  37.652  11.985   7.946
  598POPC   C4A11502  37.503  12.026   7.534
  598POPC   C1B11503  37.948  12.392   8.825
  598POPC   C2B11504  38.093  12.297   8.445
  598POPC   C3B11505  38.007  12.344   8.031
  598POPC   C4B11506  37.997  12.200   7.596
  599POPC   NC311507  30.536  29.012   9.403
  599POPC   PO411508  30.780  29.632   9.432
  599POPC   GL111509  30.820  29.323   9.111
  599POPC   GL211510  30.472  29.210   8.944
  599POPC   C1A11511  30.921  29.178   8.706
  599POPC   D2A11512  30.636  29.275   8.404
  599POPC   C3A11513  30.847  29.437   8.118
  599POPC   C4A11514  31.048  29.407   7.711
  599POPC   C1B11515  30.495  28.867   8.668
  599POPC   C2B11516  30.798  28.797   8.359
  599POPC   C3B11517  30.806  28.963   7.946
  599POPC   C4B11518  30.435  29.229   7.867
  600POPC   NC311519  36.327  22.733   9.485
  600POPC   PO411520  35.701  22.933   9.400
  600POPC   GL111521  36.090  23.082   9.166
  600POPC   GL211522  36.363  23.374   9.118
  600POPC   C1A11523  36.302  22.883   8.824
  600POPC   D2A11524  36.161  22.752   8.411
  600POPC   C3A11525  36.224  22.889   7.989
  600POPC   C4A11526  36.017  22.976   7.602
  600POPC   C1B11527  36.600  23.276   8.699
  600POPC   C2B11528  36.528  23.231   8.227
  600POPC   C3B11529  36.355  23.347   7.793
  600POPC   C4B11530  36.298  23.281   7.344
  601POPC   NC311531  24.185  18.671   9.505
  601POPC   PO411532  24.520  19.194   9.542
  601POPC   GL111533  24.493  19.359   9.151
  601POPC   GL211534  24.168  19.430   9.183
  601POPC   C1A11535  24.687  19.326   8.769
  601POPC   D2A11536  24.699  18.937   8.570
  601POPC   C3A11537  24.660  18.981   8.150
  601POPC   C4A11538  24.634  18.972   7.719
  601POPC   C1B11539  24.252  19.026   8.891
  601POPC   C2B11540  24.209  18.944   8.465
  601POPC   C3B11541  24.152  18.889   8.070
  601POPC   C4B11542  24.122  19.008   7.659
  602POPC   NC311543  41.657  32.564   9.405
  602POPC   PO411544  41.722  31.907   9.532
  602POPC   GL111545  41.838  32.108   9.163
  602POPC   GL211546  41.927  31.877   8.910
  602POPC   C1A11547  41.697  32.316   8.780
  602POPC   D2A11548  41.485  32.177   8.404
  602POPC   C3A11549  41.596  32.347   7.994
  602POPC   C4A11550  41.281  32.419   7.698
  602POPC   C1B11551  41.481  31.754   8.760
  602POPC   C2B11552  41.260  31.700   8.347
  602POPC   C3B11553  41.402  31.878   7.945
  602POPC   C4B11554  41.847  31.936   7.780
  603POPC   NC311555  27.289  20.142   9.491
  603POPC   PO411556  26.748  19.790   9.656
  603POPC   GL111557  26.779  19.887   9.221
  603POPC   GL211558  27.091  19.870   9.127
  603POPC   C1A11559  26.723  19.819   8.760
  603POPC   D2A11560  26.751  19.923   8.311
  603POPC   C3A11561  26.790  19.671   7.924
  603POPC   C4A11562  26.668  19.778   7.456
  603POPC   C1B11563  27.251  19.953   8.751
  603POPC   C2B11564  27.242  19.786   8.364
  603POPC   C3B11565  27.292  19.940   7.964
  603POPC   C4B11566  27.165  19.751   7.602
  604POPC   NC311567  32.441  28.835   9.466
  604POPC   PO411568  32.607  29.567   9.537
  604POPC   GL111569  32.454  29.302   9.233
  604POPC   GL211570  32.208  29.388   9.167
  604POPC   C1A11571  32.400  29.047   8.836
  604POPC   D2A11572  32.428  28.928   8.389
  604POPC   C3A11573  32.157  29.009   8.029
  604POPC   C4A11574  32.279  28.989   7.597
  604POPC   C1B11575  32.456  29.553   8.789
  604POPC   C2B11576  32.286  29.747   8.475
  604POPC   C3B11577  32.132  29.509   8.159
  604POPC   C4B11578  32.150  29.463   7.733
  605POPC   NC311579  16.834  33.654   9.489
  605POPC   PO411580  16.194  33.487   9.457
  605POPC   GL111581  16.509  33.602   9.086
  605POPC   GL211582  16.868  33.723   8.995
  605POPC   C1A11583  16.528  33.676   8.614
  605POPC   D2A11584  16.853  33.668   8.285
  605POPC   C3A11585  16.796  33.796   7.838
  605POPC   C4A11586  16.644  33.611   7.418
  605POPC   C1B11587  16.934  34.053   8.677
  605POPC   C2B11588  16.994  34.172   8.238
  605POPC   C3B11589  17.076  34.243   7.781
  605POPC   C4B11590  16.865  34.092   7.430
  606POPC   NC311591   0.293  16.539   9.448
  606POPC   PO411592   0.906  16.906   9.487
  606POPC   GL111593   0.776  16.869   9.089
  606POPC   GL211594   0.518  16.635   9.018
  606POPC   C1A11595   0.702  16.913   8.657
  606POPC   D2A11596   0.461  16.694   8.412
  606POPC   C3A11597   0.424  16.867   8.014
  606POPC   C4A11598   0.564  16.814   7.626
  606POPC   C1B11599   0.308  16.366   8.768
  606POPC   C2B11600   0.141  16.294   8.360
  606POPC   C3B11601   0.402  16.345   8.030
  606POPC   C4B11602   0.413  16.338   7.636
  607POPC   NC311603   8.352  13.527   9.503
  607POPC   PO411604   7.711  13.838   9.597
  607POPC   GL111605   7.964  13.734   9.216
  607POPC   GL211606   8.173  14.025   9.180
  607POPC   C1A11607   8.200  13.461   8.891
  607POPC   D2A11608   8.511  13.517   8.555
  607POPC   C3A11609   8.399  13.387   8.148
  607POPC   C4A11610   8.161  13.500   7.783
  607POPC   C1B11611   8.227  13.934   8.733
  607POPC   C2B11612   8.269  13.881   8.278
  607POPC   C3B11613   8.493  13.884   7.889
  607POPC   C4B11614   8.367  13.845   7.463
  608POPC   NC311615   3.742  34.095   9.258
  608POPC   PO411616   4.308  34.026   9.612
  608POPC   GL111617   4.169  33.761   9.235
  608POPC   GL211618   4.487  33.815   9.104
  608POPC   C1A11619   4.133  33.753   8.746
  608POPC   D2A11620   4.284  33.855   8.305
  608POPC   C3A11621   4.121  33.679   7.925
  608POPC   C4A11622   4.284  33.488   7.548
  608POPC   C1B11623   4.663  34.169   8.919
  608POPC   C2B11624   4.650  34.145   8.487
  608POPC   C3B11625   4.772  34.136   8.041
  608POPC   C4B11626   4.606  33.824   7.759
  609POPC   NC311627  27.039  14.830   9.495
  609POPC   PO411628  26.794  14.244   9.453
  609POPC   GL111629  27.023  14.217   9.084
  609POPC   GL211630  26.984  14.567   9.069
  609POPC   C1A11631  26.924  14.198   8.656
  609POPC   D2A11632  27.080  14.114   8.220
  609POPC   C3A11633  26.784  14.227   7.877
  609POPC   C4A11634  26.794  14.138   7.413
  609POPC   C1B11635  26.708  14.655   8.747
  609POPC   C2B11636  26.639  14.538   8.322
  609POPC   C3B11637  26.716  14.737   7.932
  609POPC   C4B11638  26.940  14.610   7.565
  610POPC   NC311639  15.101  29.642   9.545
  610POPC   PO411640  15.379  29.001   9.578
  610POPC   GL111641  15.245  29.123   9.221
  610POPC   GL211642  15.345  29.437   9.152
  610POPC   C1A11643  15.279  29.069   8.796
  610POPC   D2A11644  14.984  29.145   8.473
  610POPC   C3A11645  15.280  29.170   8.136
  610POPC   C4A11646  15.353  29.194   7.695
  610POPC   C1B11647  15.155  29.574   8.768
  610POPC   C2B11648  15.088  29.645   8.342
  610POPC   C3B11649  14.925  29.470   7.950
  610POPC   C4B11650  15.097  29.632   7.609
  611POPC   NC311651  26.959  30.202   9.940
  611POPC   PO411652  26.505  30.554   9.521
  611POPC   GL111653  26.735  30.669   9.103
  611POPC   GL211654  26.510  30.918   8.917
  611POPC   C1A11655  27.015  30.534   8.722
  611POPC   D2A11656  27.100  30.709   8.301
  611POPC   C3A11657  27.095  30.514   7.923
  611POPC   C4A11658  26.878  30.643   7.566
  611POPC   C1B11659  26.540  30.634   8.610
  611POPC   C2B11660  26.732  30.356   8.322
  611POPC   C3B11661  26.610  30.619   8.020
  611POPC   C4B11662  26.372  30.531   7.695
  612POPC   NC311663   0.662  25.249   9.544
  612POPC   PO411664   0.041  25.322   9.673
  612POPC   GL111665   0.213  25.252   9.188
  612POPC   GL211666   0.510  25.082   9.097
  612POPC   C1A11667   0.131  25.086   8.736
  612POPC   D2A11668   0.102  24.951   8.266
  612POPC   C3A11669   0.258  25.249   7.936
  612POPC   C4A11670   0.616  25.492   7.850
  612POPC   C1B11671   0.639  25.197   8.688
  612POPC   C2B11672   0.626  25.109   8.239
  612POPC   C3B11673   0.676  24.995   7.779
  612POPC   C4B11674   0.720  24.966   7.291
  613POPC   NC311675  44.783   6.995   9.301
  613POPC   PO411676  44.776   7.693   9.506
  613POPC   GL111677  44.786   7.495   9.142
  613POPC   GL211678   0.103   7.361   9.107
  613POPC   C1A11679  44.513   7.524   8.803
  613POPC   D2A11680  44.375   7.592   8.402
  613POPC   C3A11681  44.564   7.643   8.009
  613POPC   C4A11682  44.440   7.404   7.629
  613POPC   C1B11683   0.021   7.309   8.690
  613POPC   C2B11684  44.916   7.399   8.276
  613POPC   C3B11685  44.903   7.204   7.874
  613POPC   C4B11686  44.923   7.343   7.453
  614POPC   NC311687  11.804   1.267   9.512
  614POPC   PO411688  12.553   1.348   9.315
  614POPC   GL111689  12.158   1.257   9.137
  614POPC   GL211690  11.925   0.962   9.125
  614POPC   C1A11691  12.020   1.227   8.723
  614POPC   D2A11692  12.065   1.363   8.364
  614POPC   C3A11693  12.362   1.142   8.124
  614POPC   C4A11694  12.366   1.284   7.734
  614POPC   C1B11695  11.847   0.739   8.735
  614POPC   C2B11696  11.916   0.872   8.311
  614POPC   C3B11697  11.882   1.134   7.936
  614POPC   C4B11698  11.743   1.068   7.507
  615POPC   NC311699  12.328  25.289   9.615
  615POPC   PO411700  11.842  24.975   9.309
  615POPC   GL111701  11.979  25.297   9.060
  615POPC   GL211702  12.330  25.384   9.093
  615POPC   C1A11703  12.050  25.252   8.630
  615POPC   D2A11704  12.159  24.981   8.300
  615POPC   C3A11705  12.019  25.147   7.921
  615POPC   C4A11706  12.260  25.204   7.571
  615POPC   C1B11707  12.307  25.691   8.750
  615POPC   C2B11708  12.185  25.787   8.308
  615POPC   C3B11709  12.145  25.647   7.868
  615POPC   C4B11710  11.984  25.634   7.428
  616POPC   NC311711   3.727  31.013   9.594
  616POPC   PO411712   3.347  31.613   9.774
  616POPC   GL111713   3.531  31.561   9.338
  616POPC   GL211714   3.655  31.284   9.181
  616POPC   C1A11715   3.451  31.614   8.875
  616POPC   D2A11716   3.610  31.759   8.524
  616POPC   C3A11717   3.504  31.669   8.105
  616POPC   C4A11718   3.610  31.568   7.691
  616POPC   C1B11719   3.664  31.115   8.785
  616POPC   C2B11720   3.675  31.250   8.401
  616POPC   C3B11721   3.765  31.207   8.007
  616POPC   C4B11722   3.932  31.166   7.582
  617POPC   NC311723  24.356  23.992   9.445
  617POPC   PO411724  23.996  23.406   9.156
  617POPC   GL111725  24.201  23.739   9.015
  617POPC   GL211726  24.551  23.743   9.055
  617POPC   C1A11727  24.223  23.788   8.581
  617POPC   D2A11728  24.310  24.082   8.280
  617POPC   C3A11729  24.489  23.981   7.891
  617POPC   C4A11730  24.571  23.999   7.441
  617POPC   C1B11731  24.639  23.494   8.716
  617POPC   C2B11732  24.687  23.709   8.353
  617POPC   C3B11733  24.630  23.500   8.024
  617POPC   C4B11734  24.769  23.576   7.637
  618POPC   NC311735  40.477  43.756   9.570
  618POPC   PO411736  40.998  44.165   9.413
  618POPC   GL111737  40.925  43.959   9.054
  618POPC   GL211738  40.585  43.890   9.091
  618POPC   C1A11739  41.015  43.793   8.635
  618POPC   D2A11740  41.088  43.869   8.187
  618POPC   C3A11741  40.757  44.141   8.051
  618POPC   C4A11742  40.573  44.253   7.692
  618POPC   C1B11743  40.562  43.618   8.765
  618POPC   C2B11744  40.561  43.756   8.359
  618POPC   C3B11745  40.689  43.663   7.958
  618POPC   C4B11746  40.526  43.755   7.640
  619POPC   NC311747   1.866  42.207   9.346
  619POPC   PO411748   1.514  42.793   9.342
  619POPC   GL111749   1.728  42.568   9.027
  619POPC   GL211750   2.109  42.561   9.063
  619POPC   C1A11751   1.845  42.289   8.682
  619POPC   D2A11752   1.994  42.495   8.316
  619POPC   C3A11753   1.943  42.471   7.867
  619POPC   C4A11754   2.156  42.521   7.490
  619POPC   C1B11755   2.332  42.225   8.825
  619POPC   C2B11756   2.278  42.077   8.394
  619POPC   C3B11757   2.375  42.244   8.005
  619POPC   C4B11758   2.495  42.045   7.622
  620POPC   NC311759  29.753  41.775   9.508
  620POPC   PO411760  30.274  41.321   9.459
  620POPC   GL111761  30.021  41.545   9.163
  620POPC   GL211762  30.041  41.906   9.112
  620POPC   C1A11763  29.821  41.472   8.771
  620POPC   D2A11764  29.923  41.242   8.407
  620POPC   C3A11765  30.081  41.470   8.044
  620POPC   C4A11766  30.008  41.392   7.641
  620POPC   C1B11767  30.061  41.971   8.718
  620POPC   C2B11768  29.888  41.821   8.366
  620POPC   C3B11769  30.008  42.055   8.033
  620POPC   C4B11770  30.170  41.872   7.695
  621POPC   NC311771  41.694  22.258   9.582
  621POPC   PO411772  41.831  21.688   9.306
  621POPC   GL111773  41.623  22.047   9.115
  621POPC   GL211774  41.631  22.408   9.109
  621POPC   C1A11775  41.404  22.129   8.727
  621POPC   D2A11776  41.581  22.068   8.321
  621POPC   C3A11777  41.552  22.118   7.883
  621POPC   C4A11778  41.952  21.997   7.693
  621POPC   C1B11779  41.650  22.570   8.753
  621POPC   C2B11780  41.470  22.581   8.358
  621POPC   C3B11781  41.754  22.554   8.028
  621POPC   C4B11782  41.778  22.467   7.599
  622POPC   NC311783   4.208  43.366   9.626
  622POPC   PO411784   4.705  42.846   9.486
  622POPC   GL111785   4.543  42.962   9.117
  622POPC   GL211786   4.346  43.231   9.161
  622POPC   C1A11787   4.645  43.239   8.749
  622POPC   D2A11788   4.405  43.294   8.401
  622POPC   C3A11789   4.545  43.306   8.012
  622POPC   C4A11790   4.338  43.398   7.661
  622POPC   C1B11791   4.090  43.356   8.810
  622POPC   C2B11792   3.917  43.169   8.428
  622POPC   C3B11793   4.000  43.320   8.038
  622POPC   C4B11794   3.954  43.070   7.690
  623POPC   NC311795   6.264   9.917   9.596
  623POPC   PO411796   6.386   9.348   9.388
  623POPC   GL111797   6.563   9.507   9.040
  623POPC   GL211798   6.871   9.507   9.057
  623POPC   C1A11799   6.556   9.736   8.642
  623POPC   D2A11800   6.622  10.020   8.276
  623POPC   C3A11801   6.582   9.849   7.844
  623POPC   C4A11802   6.527   9.995   7.398
  623POPC   C1B11803   7.060   9.604   8.705
  623POPC   C2B11804   6.973   9.628   8.295
  623POPC   C3B11805   7.090   9.908   8.002
  623POPC   C4B11806   7.048   9.705   7.645
  624POPC   NC311807  40.171   1.823   9.684
  624POPC   PO411808  40.134   2.492   9.597
  624POPC   GL111809  40.058   2.248   9.184
  624POPC   GL211810  39.828   1.941   9.192
  624POPC   C1A11811  39.760   2.258   8.814
  624POPC   D2A11812  39.741   2.071   8.392
  624POPC   C3A11813  39.875   2.349   8.054
  624POPC   C4A11814  40.219   2.328   7.774
  624POPC   C1B11815  39.980   1.797   8.773
  624POPC   C2B11816  40.248   1.728   8.402
  624POPC   C3B11817  40.210   1.581   8.002
  624POPC   C4B11818  39.950   1.895   7.806
  625POPC   NC311819  17.760   8.963   9.546
  625POPC   PO411820  17.106   9.028   9.588
  625POPC   GL111821  17.373   9.146   9.191
  625POPC   GL211822  17.664   9.371   9.138
  625POPC   C1A11823  17.423   9.186   8.711
  625POPC   D2A11824  17.677   8.970   8.364
  625POPC   C3A11825  17.523   8.800   7.960
  625POPC   C4A11826  17.474   8.475   7.610
  625POPC   C1B11827  17.908   9.332   8.730
  625POPC   C2B11828  17.950   9.370   8.254
  625POPC   C3B11829  17.852   9.173   7.843
  625POPC   C4B11830  17.788   9.190   7.373
  626POPC   NC311831  38.943  43.233   9.657
  626POPC   PO411832  39.611  43.064   9.482
  626POPC   GL111833  39.410  42.987   9.096
  626POPC   GL211834  39.073  43.123   9.148
  626POPC   C1A11835  39.369  43.210   8.721
  626POPC   D2A11836  39.077  43.423   8.474
  626POPC   C3A11837  39.219  43.191   8.150
  626POPC   C4A11838  39.426  43.092   7.784
  626POPC   C1B11839  39.033  42.830   8.788
  626POPC   C2B11840  39.221  42.726   8.384
  626POPC   C3B11841  39.046  42.750   7.977
  626POPC   C4B11842  38.963  42.998   7.592
  627POPC   NC311843  23.292  37.081   9.677
  627POPC   PO411844  23.065  37.663   9.580
  627POPC   GL111845  23.103  37.706   9.123
  627POPC   GL211846  22.759  37.659   9.039
  627POPC   C1A11847  23.193  37.504   8.726
  627POPC   D2A11848  23.065  37.472   8.316
  627POPC   C3A11849  23.308  37.421   7.953
  627POPC   C4A11850  23.035  37.334   7.616
  627POPC   C1B11851  22.463  37.693   8.693
  627POPC   C2B11852  22.480  37.949   8.323
  627POPC   C3B11853  22.593  37.898   7.893
  627POPC   C4B11854  22.627  38.054   7.482
  628POPC   NC311855  38.922  34.131   9.871
  628POPC   PO411856  39.414  33.704   9.533
  628POPC   GL111857  39.333  33.685   9.080
  628POPC   GL211858  39.031  33.517   9.045
  628POPC   C1A11859  39.392  33.852   8.653
  628POPC   D2A11860  39.626  33.759   8.332
  628POPC   C3A11861  39.462  33.854   7.944
  628POPC   C4A11862  39.640  33.903   7.582
  628POPC   C1B11863  38.904  33.764   8.721
  628POPC   C2B11864  39.026  34.116   8.445
  628POPC   C3B11865  38.991  34.058   8.048
  628POPC   C4B11866  38.951  33.757   7.780
  629POPC   NC311867  31.017   1.251   9.470
  629POPC   PO411868  30.579   1.627   9.550
  629POPC   GL111869  30.596   1.439   9.188
  629POPC   GL211870  30.524   1.111   9.280
  629POPC   C1A11871  30.855   1.454   8.839
  629POPC   D2A11872  30.674   1.429   8.459
  629POPC   C3A11873  30.838   1.568   8.107
  629POPC   C4A11874  30.970   1.321   7.784
  629POPC   C1B11875  30.486   1.072   8.834
  629POPC   C2B11876  30.426   0.993   8.405
  629POPC   C3B11877  30.413   1.227   8.049
  629POPC   C4B11878  30.369   1.230   7.613
  630POPC   NC311879  39.134  19.623   9.501
  630POPC   PO411880  39.258  20.287   9.527
  630POPC   GL111881  39.203  20.038   9.116
  630POPC   GL211882  39.201  19.660   8.999
  630POPC   C1A11883  39.375  20.009   8.683
  630POPC   D2A11884  39.298  19.768   8.323
  630POPC   C3A11885  39.464  19.958   7.961
  630POPC   C4A11886  39.358  19.816   7.556
  630POPC   C1B11887  39.544  19.505   8.697
  630POPC   C2B11888  39.647  19.310   8.294
  630POPC   C3B11889  39.595  19.471   7.910
  630POPC   C4B11890  39.717  19.376   7.530
  631POPC   NC311891  37.198  13.213   9.793
  631POPC   PO411892  36.662  12.907   9.686
  631POPC   GL111893  36.944  13.013   9.322
  631POPC   GL211894  37.036  13.395   9.309
  631POPC   C1A11895  36.997  12.775   8.910
  631POPC   D2A11896  36.808  12.596   8.533
  631POPC   C3A11897  36.770  12.847   8.169
  631POPC   C4A11898  36.877  12.678   7.793
  631POPC   C1B11899  37.163  13.255   8.930
  631POPC   C2B11900  37.044  13.135   8.526
  631POPC   C3B11901  37.120  13.194   8.097
  631POPC   C4B11902  37.129  13.143   7.661
  632POPC   NC311903  44.407  24.986   9.675
  632POPC   PO411904  44.755  25.515   9.283
  632POPC   GL111905  44.729  25.331   8.959
  632POPC   GL211906  44.427  25.205   9.014
  632POPC   C1A11907  44.720  25.337   8.565
  632POPC   D2A11908  44.927  25.439   8.258
  632POPC   C3A11909  44.757  25.219   7.948
  632POPC   C4A11910  44.811  25.302   7.522
  632POPC   C1B11911  44.267  25.531   8.703
  632POPC   C2B11912  44.416  25.607   8.244
  632POPC   C3B11913  44.411  25.544   7.773
  632POPC   C4B11914  44.341  25.352   7.346
  633POPC   NC311915  32.683  27.967   9.504
  633POPC   PO411916  33.363  28.196   9.417
  633POPC   GL111917  33.018  28.286   9.170
  633POPC   GL211918  32.799  28.567   9.193
  633POPC   C1A11919  32.806  28.097   8.838
  633POPC   D2A11920  32.998  28.168   8.459
  633POPC   C3A11921  32.761  28.188   8.114
  633POPC   C4A11922  32.895  28.329   7.723
  633POPC   C1B11923  32.939  28.595   8.748
  633POPC   C2B11924  32.865  28.662   8.320
  633POPC   C3B11925  32.783  28.873   7.950
  633POPC   C4B11926  32.717  28.750   7.522
  634POPC   NC311927  33.092   0.707   9.733
  634POPC   PO411928  32.812   0.231   9.273
  634POPC   GL111929  32.952   0.385   9.018
  634POPC   GL211930  33.110   0.662   9.195
  634POPC   C1A11931  32.996   0.203   8.630
  634POPC   D2A11932  32.982   0.327   8.233
  634POPC   C3A11933  32.719   0.171   7.927
  634POPC   C4A11934  32.707   0.233   7.477
  634POPC   C1B11935  33.249   0.655   8.752
  634POPC   C2B11936  33.228   0.835   8.369
  634POPC   C3B11937  33.135   0.721   7.968
  634POPC   C4B11938  33.160   0.346   7.726
  635POPC   NC311939   9.173   5.489   9.540
  635POPC   PO411940   8.879   6.066   9.550
  635POPC   GL111941   9.046   6.055   9.128
  635POPC   GL211942   9.025   5.702   9.080
  635POPC   C1A11943   9.212   5.977   8.691
  635POPC   D2A11944   9.454   5.929   8.338
  635POPC   C3A11945   9.284   5.967   7.986
  635POPC   C4A11946   9.039   6.013   7.662
  635POPC   C1B11947   9.248   5.469   8.732
  635POPC   C2B11948   9.273   5.467   8.246
  635POPC   C3B11949   8.974   5.553   7.898
  635POPC   C4B11950   8.601   5.753   7.687
  636POPC   NC311951  30.606   5.313   9.346
  636POPC   PO411952  30.288   4.743   9.475
  636POPC   GL111953  30.553   4.871   9.107
  636POPC   GL211954  30.866   4.714   9.023
  636POPC   C1A11955  30.594   5.115   8.717
  636POPC   D2A11956  30.456   5.117   8.293
  636POPC   C3A11957  30.622   5.442   8.003
  636POPC   C4A11958  31.048   5.442   7.815
  636POPC   C1B11959  31.076   4.874   8.634
  636POPC   C2B11960  31.005   5.124   8.249
  636POPC   C3B11961  30.801   4.982   7.859
  636POPC   C4B11962  30.761   4.600   7.634
  637POPC   NC311963   2.993  22.651   9.347
  637POPC   PO411964   2.561  23.107   9.420
  637POPC   GL111965   2.672  23.014   9.031
  637POPC   GL211966   2.382  23.263   8.915
  637POPC   C1A11967   2.896  22.779   8.668
  637POPC   D2A11968   3.248  22.754   8.334
  637POPC   C3A11969   3.129  22.715   7.887
  637POPC   C4A11970   2.778  22.801   7.645
  637POPC   C1B11971   2.649  23.239   8.581
  637POPC   C2B11972   2.659  22.980   8.237
  637POPC   C3B11973   2.527  23.167   7.873
  637POPC   C4B11974   2.756  23.495   7.652
  638POPC   NC311975  39.161  16.883   9.534
  638POPC   PO411976  38.928  16.315   9.453
  638POPC   GL111977  39.121  16.567   9.119
  638POPC   GL211978  39.438  16.796   9.129
  638POPC   C1A11979  39.174  16.731   8.709
  638POPC   D2A11980  38.947  16.847   8.412
  638POPC   C3A11981  39.043  16.575   8.129
  638POPC   C4A11982  38.940  16.701   7.741
  638POPC   C1B11983  39.461  17.138   8.822
  638POPC   C2B11984  39.517  17.013   8.390
  638POPC   C3B11985  39.316  16.983   7.987
  638POPC   C4B11986  39.463  16.599   7.820
  639POPC   NC311987   9.824  29.604   9.517
  639POPC   PO411988  10.096  30.228   9.536
  639POPC   GL111989   9.977  30.017   9.195
  639POPC   GL211990  10.070  30.272   8.972
  639POPC   C1A11991   9.848  29.754   8.866
  639POPC   D2A11992   9.679  29.739   8.455
  639POPC   C3A11993   9.933  29.709   8.114
  639POPC   C4A11994   9.771  29.884   7.737
  639POPC   C1B11995   9.732  30.232   8.645
  639POPC   C2B11996   9.767  30.197   8.178
  639POPC   C3B11997   9.583  30.372   7.787
  639POPC   C4B11998   9.594  30.203   7.332
  640POPC   NC311999   9.611  38.269   9.511
  640POPC   PO412000  10.124  38.601   9.248
  640POPC   GL112001   9.919  38.557   8.965
  640POPC   GL212002   9.574  38.604   9.109
  640POPC   C1A12003  10.026  38.618   8.565
  640POPC   D2A12004   9.663  38.537   8.361
  640POPC   C3A12005   9.694  38.250   8.023
  640POPC   C4A12006   9.884  38.494   7.734
  640POPC   C1B12007   9.501  38.275   8.807
  640POPC   C2B12008   9.207  38.341   8.481
  640POPC   C3B12009   9.264  38.528   8.052
  640POPC   C4B12010   9.391  38.397   7.628
  641POPC   NC312011  12.143   6.673   9.700
  641POPC   PO412012  12.313   6.163   9.575
  641POPC   GL112013  12.006   6.411   9.233
  641POPC   GL212014  12.193   6.662   9.070
  641POPC   C1A12015  11.803   6.503   8.757
  641POPC   D2A12016  11.848   6.375   8.303
  641POPC   C3A12017  11.713   6.649   7.948
  641POPC   C4A12018  11.698   6.856   7.531
  641POPC   C1B12019  12.295   6.419   8.654
  641POPC   C2B12020  12.356   6.384   8.174
  641POPC   C3B12021  12.425   6.623   7.785
  641POPC   C4B12022  12.453   6.530   7.318
  642POPC   NC312023  11.091  38.121   9.524
  642POPC   PO412024  11.465  37.580   9.630
  642POPC   GL112025  11.287  37.605   9.189
  642POPC   GL212026  11.041  37.865   9.078
  642POPC   C1A12027  11.235  37.427   8.768
  642POPC   D2A12028  11.014  37.455   8.386
  642POPC   C3A12029  11.228  37.377   8.033
  642POPC   C4A12030  11.042  37.449   7.700
  642POPC   C1B12031  11.353  37.938   8.773
  642POPC   C2B12032  11.428  37.737   8.372
  642POPC   C3B12033  11.269  37.889   7.970
  642POPC   C4B12034  11.392  38.004   7.549
  643POPC   NC312035   0.936  36.367   9.463
  643POPC   PO412036   1.072  35.742   9.437
  643POPC   GL112037   1.384  35.955   9.138
  643POPC   GL212038   1.410  36.339   9.217
  643POPC   C1A12039   1.584  35.910   8.702
  643POPC   D2A12040   1.534  35.667   8.320
  643POPC   C3A12041   1.418  35.888   7.941
  643POPC   C4A12042   1.015  35.990   7.722
  643POPC   C1B12043   1.260  36.322   8.779
  643POPC   C2B12044   1.437  36.279   8.351
  643POPC   C3B12045   1.298  36.407   7.924
  643POPC   C4B12046   1.185  36.415   7.487
  644POPC   NC312047  13.156  42.398   9.238
  644POPC   PO412048  13.817  42.418   9.462
  644POPC   GL112049  13.646  42.237   9.123
  644POPC   GL212050  13.635  42.577   8.983
  644POPC   C1A12051  13.531  42.146   8.709
  644POPC   D2A12052  13.751  42.275   8.376
  644POPC   C3A12053  13.648  42.135   7.998
  644POPC   C4A12054  13.852  42.243   7.640
  644POPC   C1B12055  13.290  42.610   8.663
  644POPC   C2B12056  13.255  42.432   8.294
  644POPC   C3B12057  13.543  42.609   8.036
  644POPC   C4B12058  13.409  42.493   7.651
  645POPC   NC312059  14.410  21.608   9.477
  645POPC   PO412060  14.100  21.015   9.437
  645POPC   GL112061  14.088  21.289   9.129
  645POPC   GL212062  14.422  21.330   9.025
  645POPC   C1A12063  14.058  21.444   8.718
  645POPC   D2A12064  14.292  21.453   8.326
  645POPC   C3A12065  14.060  21.451   7.966
  645POPC   C4A12066  14.142  21.452   7.583
  645POPC   C1B12067  14.529  21.657   8.714
  645POPC   C2B12068  14.670  21.820   8.346
  645POPC   C3B12069  14.547  21.676   7.926
  645POPC   C4B12070  14.658  21.245   7.800
  646POPC   NC312071  18.903  23.197   9.736
  646POPC   PO412072  18.976  23.822   9.476
  646POPC   GL112073  19.034  23.768   9.042
  646POPC   GL212074  18.995  23.438   9.077
  646POPC   C1A12075  18.981  23.895   8.602
  646POPC   D2A12076  18.700  23.863   8.241
  646POPC   C3A12077  18.961  23.940   7.855
  646POPC   C4A12078  19.065  24.096   7.401
  646POPC   C1B12079  18.828  23.416   8.638
  646POPC   C2B12080  19.153  23.408   8.344
  646POPC   C3B12081  19.288  23.496   7.932
  646POPC   C4B12082  19.025  23.524   7.577
  647POPC   NC312083  32.584  10.458   9.449
  647POPC   PO412084  32.219  11.025   9.485
  647POPC   GL112085  32.290  10.728   9.111
  647POPC   GL212086  32.151  10.369   9.117
  647POPC   C1A12087  32.452  10.503   8.729
  647POPC   D2A12088  32.256  10.566   8.310
  647POPC   C3A12089  32.475  10.569   7.959
  647POPC   C4A12090  32.406  10.308   7.622
  647POPC   C1B12091  31.954  10.524   8.709
  647POPC   C2B12092  31.835  10.851   8.423
  647POPC   C3B12093  31.762  10.893   7.995
  647POPC   C4B12094  32.048  10.700   7.684
  648POPC   NC312095   2.887  35.677   9.543
  648POPC   PO412096   2.872  35.070   9.317
  648POPC   GL112097   2.788  35.460   9.075
  648POPC   GL212098   2.457  35.480   8.940
  648POPC   C1A12099   2.886  35.535   8.636
  648POPC   D2A12100   3.068  35.319   8.297
  648POPC   C3A12101   2.838  35.342   7.967
  648POPC   C4A12102   2.901  35.603   7.686
  648POPC   C1B12103   2.530  35.124   8.705
  648POPC   C2B12104   2.561  35.059   8.291
  648POPC   C3B12105   2.447  35.009   7.880
  648POPC   C4B12106   2.507  35.307   7.546
  649POPC   NC312107   4.613  37.857   9.204
  649POPC   PO412108   4.366  37.264   9.427
  649POPC   GL112109   4.235  37.529   9.086
  649POPC   GL212110   3.929  37.783   9.089
  649POPC   C1A12111   4.351  37.383   8.706
  649POPC   D2A12112   4.344  37.538   8.332
  649POPC   C3A12113   4.348  37.304   8.006
  649POPC   C4A12114   4.612  37.470   7.716
  649POPC   C1B12115   4.157  37.898   8.715
  649POPC   C2B12116   4.233  38.020   8.267
  649POPC   C3B12117   4.231  37.812   7.858
  649POPC   C4B12118   3.948  37.894   7.511
  650POPC   NC312119  13.907  41.091   9.244
  650POPC   PO412120  13.890  40.650   9.751
  650POPC   GL112121  13.718  40.631   9.251
  650POPC   GL212122  13.386  40.642   9.059
  650POPC   C1A12123  13.814  40.717   8.766
  650POPC   D2A12124  13.926  40.702   8.315
  650POPC   C3A12125  13.647  40.837   8.033
  650POPC   C4A12126  13.608  40.738   7.630
  650POPC   C1B12127  13.446  40.410   8.638
  650POPC   C2B12128  13.530  40.353   8.187
  650POPC   C3B12129  13.393  40.310   7.741
  650POPC   C4B12130  13.320  40.488   7.274
  651POPC   NC312131  13.955  44.889   9.299
  651POPC   PO412132  13.445  44.557   9.636
  651POPC   GL112133  13.464  44.615   9.209
  651POPC   GL212134  13.618  44.312   9.164
  651POPC   C1A12135  13.480  44.839   8.814
  651POPC   D2A12136  13.700  44.886   8.414
  651POPC   C3A12137  13.509  44.833   8.009
  651POPC   C4A12138  13.591  44.730   7.578
  651POPC   C1B12139  13.474  44.308   8.739
  651POPC   C2B12140  13.469  44.410   8.287
  651POPC   C3B12141  13.479  44.310   7.825
  651POPC   C4B12142  13.280  44.368   7.374
  652POPC   NC312143  38.549  13.995   9.315
  652POPC   PO412144  38.255  13.332   9.465
  652POPC   GL112145  38.104  13.437   9.093
  652POPC   GL212146  38.280  13.708   9.018
  652POPC   C1A12147  38.247  13.321   8.691
  652POPC   D2A12148  38.129  13.191   8.305
  652POPC   C3A12149  38.310  13.471   8.017
  652POPC   C4A12150  38.630  13.400   7.725
  652POPC   C1B12151  38.501  13.899   8.647
  652POPC   C2B12152  38.548  13.933   8.183
  652POPC   C3B12153  38.370  13.966   7.775
  652POPC   C4B12154  38.194  13.756   7.420
  653POPC   NC312155  30.837  33.368   9.605
  653POPC   PO412156  30.464  33.952   9.590
  653POPC   GL112157  30.646  33.853   9.162
  653POPC   GL212158  30.654  34.121   9.006
  653POPC   C1A12159  30.825  33.787   8.696
  653POPC   D2A12160  30.658  33.736   8.326
  653POPC   C3A12161  30.873  33.745   7.966
  653POPC   C4A12162  30.520  33.790   7.701
  653POPC   C1B12163  30.540  34.206   8.572
  653POPC   C2B12164  30.577  34.185   8.102
  653POPC   C3B12165  30.295  34.233   7.761
  653POPC   C4B12166  30.165  34.002   7.388
  654POPC   NC312167   9.957  36.218   9.634
  654POPC   PO412168   9.263  36.282   9.424
  654POPC   GL112169   9.668  36.269   9.167
  654POPC   GL212170  10.002  36.069   9.140
  654POPC   C1A12171   9.725  36.171   8.723
  654POPC   D2A12172   9.588  36.012   8.334
  654POPC   C3A12173   9.759  36.248   8.003
  654POPC   C4A12174   9.775  36.088   7.604
  654POPC   C1B12175  10.163  35.885   8.747
  654POPC   C2B12176  10.103  36.056   8.331
  654POPC   C3B12177  10.161  35.910   7.889
  654POPC   C4B12178  10.186  35.884   7.396
  655POPC   NC312179   4.239  22.342   9.673
  655POPC   PO412180   4.798  22.018   9.589
  655POPC   GL112181   4.486  21.992   9.200
  655POPC   GL212182   4.159  22.228   9.179
  655POPC   C1A12183   4.413  22.119   8.740
  655POPC   D2A12184   4.226  22.131   8.324
  655POPC   C3A12185   4.487  22.196   7.968
  655POPC   C4A12186   4.547  21.989   7.537
  655POPC   C1B12187   4.072  22.524   8.826
  655POPC   C2B12188   4.193  22.632   8.426
  655POPC   C3B12189   4.065  22.522   8.025
  655POPC   C4B12190   4.101  22.328   7.636
  656POPC   NC312191  28.690  39.325   9.403
  656POPC   PO412192  28.121  38.918   9.395
  656POPC   GL112193  28.320  39.154   9.078
  656POPC   GL212194  28.276  39.520   9.114
  656POPC   C1A12195  28.402  39.238   8.654
  656POPC   D2A12196  28.343  38.955   8.286
  656POPC   C3A12197  28.612  39.073   7.929
  656POPC   C4A12198  28.593  39.255   7.517
  656POPC   C1B12199  27.975  39.530   8.770
  656POPC   C2B12200  27.991  39.333   8.365
  656POPC   C3B12201  28.144  39.281   7.934
  656POPC   C4B12202  27.989  39.555   7.634
  657POPC   NC312203  28.704  22.813   9.488
  657POPC   PO412204  28.435  23.331   9.295
  657POPC   GL112205  28.545  23.014   9.037
  657POPC   GL212206  28.223  22.863   9.130
  657POPC   C1A12207  28.675  23.084   8.615
  657POPC   D2A12208  28.421  23.020   8.256
  657POPC   C3A12209  28.503  23.161   7.882
  657POPC   C4A12210  28.842  23.368   7.731
  657POPC   C1B12211  28.214  22.767   8.684
  657POPC   C2B12212  27.950  22.954   8.363
  657POPC   C3B12213  28.022  22.931   7.934
  657POPC   C4B12214  28.282  22.788   7.585
  658POPC   NC312215  35.115   9.062   9.570
  658POPC   PO412216  35.814   8.892   9.566
  658POPC   GL112217  35.479   8.971   9.196
  658POPC   GL212218  35.120   9.200   9.104
  658POPC   C1A12219  35.441   8.968   8.750
  658POPC   D2A12220  35.583   9.174   8.380
  658POPC   C3A12221  35.478   9.026   7.980
  658POPC   C4A12222  35.559   8.820   7.590
  658POPC   C1B12223  34.930   9.043   8.719
  658POPC   C2B12224  35.071   9.104   8.362
  658POPC   C3B12225  34.976   9.019   8.001
  658POPC   C4B12226  35.071   8.985   7.630
  659POPC   NC312227  20.828  39.226   9.645
  659POPC   PO412228  20.258  39.440   9.599
  659POPC   GL112229  20.566  39.302   9.211
  659POPC   GL212230  20.944  39.220   9.143
  659POPC   C1A12231  20.570  39.196   8.777
  659POPC   D2A12232  20.474  38.877   8.506
  659POPC   C3A12233  20.387  39.016   8.114
  659POPC   C4A12234  20.510  39.132   7.695
  659POPC   C1B12235  20.946  39.535   8.827
  659POPC   C2B12236  20.789  39.634   8.424
  659POPC   C3B12237  20.676  39.466   8.050
  659POPC   C4B12238  20.856  39.517   7.663
  660POPC   NC312239  22.255  40.372   9.307
  660POPC   PO412240  21.830  39.818   9.431
  660POPC   GL112241  22.156  39.910   9.130
  660POPC   GL212242  21.906  40.152   9.009
  660POPC   C1A12243  22.399  39.994   8.751
  660POPC   D2A12244  22.223  39.798   8.371
  660POPC   C3A12245  22.361  39.877   7.927
  660POPC   C4A12246  22.330  39.967   7.464
  660POPC   C1B12247  22.047  40.361   8.643
  660POPC   C2B12248  22.065  40.249   8.226
  660POPC   C3B12249  21.857  39.940   7.998
  660POPC   C4B12250  21.860  40.134   7.630
  661POPC   NC312251  14.846  22.460   9.768
  661POPC   PO412252  15.399  22.465   9.426
  661POPC   GL112253  15.320  22.176   9.143
  661POPC   GL212254  14.981  22.195   9.166
  661POPC   C1A12255  15.365  22.138   8.723
  661POPC   D2A12256  15.539  22.217   8.320
  661POPC   C3A12257  15.258  22.184   7.931
  661POPC   C4A12258  15.325  22.008   7.517
  661POPC   C1B12259  14.765  22.150   8.786
  661POPC   C2B12260  14.593  22.336   8.437
  661POPC   C3B12261  14.731  22.221   8.045
  661POPC   C4B12262  14.811  22.037   7.663
  662POPC   NC312263  14.879  12.950   9.652
  662POPC   PO412264  14.412  13.241   9.307
  662POPC   GL112265  14.279  12.869   9.085
  662POPC   GL212266  13.964  12.660   9.179
  662POPC   C1A12267  14.341  12.931   8.663
  662POPC   D2A12268  14.168  13.159   8.326
  662POPC   C3A12269  14.501  13.061   8.070
  662POPC   C4A12270  14.513  13.059   7.651
  662POPC   C1B12271  13.857  12.771   8.750
  662POPC   C2B12272  14.062  12.638   8.347
  662POPC   C3B12273  14.187  12.701   7.898
  662POPC   C4B12274  14.276  12.657   7.436
  663POPC   NC312275  17.611  32.205   9.527
  663POPC   PO412276  17.377  32.790   9.708
  663POPC   GL112277  17.377  32.524   9.234
  663POPC   GL212278  17.727  32.480   9.106
  663POPC   C1A12279  17.422  32.308   8.773
  663POPC   D2A12280  17.264  32.368   8.341
  663POPC   C3A12281  17.466  32.231   7.953
  663POPC   C4A12282  17.380  32.305   7.554
  663POPC   C1B12283  17.834  32.631   8.717
  663POPC   C2B12284  17.611  32.748   8.366
  663POPC   C3B12285  17.733  32.672   7.931
  663POPC   C4B12286  17.860  32.533   7.512
  664POPC   NC312287  19.901  20.464   9.613
  664POPC   PO412288  19.661  21.047   9.389
  664POPC   GL112289  19.897  20.766   9.146
  664POPC   GL212290  20.076  21.031   8.992
  664POPC   C1A12291  19.965  20.591   8.705
  664POPC   D2A12292  20.068  20.630   8.249
  664POPC   C3A12293  19.808  20.314   8.021
  664POPC   C4A12294  19.615  20.265   7.609
  664POPC   C1B12295  19.709  21.037   8.741
  664POPC   C2B12296  19.423  20.978   8.429
  664POPC   C3B12297  19.565  20.755   8.102
  664POPC   C4B12298  19.820  20.752   7.755
  665POPC   NC312299  18.035   4.684   9.533
  665POPC   PO412300  18.388   5.323   9.543
  665POPC   GL112301  18.379   5.199   9.148
  665POPC   GL212302  18.043   5.096   9.196
  665POPC   C1A12303  18.461   5.462   8.747
  665POPC   D2A12304  18.491   5.278   8.355
  665POPC   C3A12305  18.514   5.385   7.934
  665POPC   C4A12306  18.249   5.121   7.683
  665POPC   C1B12307  18.165   5.042   8.718
  665POPC   C2B12308  18.088   4.918   8.271
  665POPC   C3B12309  17.848   4.883   7.869
  665POPC   C4B12310  17.882   4.810   7.406
  666POPC   NC312311   7.719  19.427   9.551
  666POPC   PO412312   7.109  19.725   9.493
  666POPC   GL112313   7.268  19.866   9.111
  666POPC   GL212314   7.558  19.720   9.150
  666POPC   C1A12315   7.305  19.809   8.651
  666POPC   D2A12316   7.065  19.905   8.296
  666POPC   C3A12317   7.221  19.966   7.908
  666POPC   C4A12318   7.193  19.549   7.768
  666POPC   C1B12319   7.626  19.425   8.833
  666POPC   C2B12320   7.743  19.440   8.436
  666POPC   C3B12321   7.541  19.642   8.150
  666POPC   C4B12322   7.666  19.716   7.751
  667POPC   NC312323  42.960   8.721   9.555
  667POPC   PO412324  43.592   9.009   9.432
  667POPC   GL112325  43.314   9.011   9.075
  667POPC   GL212326  42.934   9.121   9.130
  667POPC   C1A12327  43.383   8.937   8.622
  667POPC   D2A12328  43.206   9.177   8.262
  667POPC   C3A12329  43.151   8.897   7.871
  667POPC   C4A12330  43.053   8.897   7.411
  667POPC   C1B12331  42.879   9.030   8.672
  667POPC   C2B12332  42.800   8.849   8.250
  667POPC   C3B12333  42.614   8.904   7.837
  667POPC   C4B12334  42.591   9.101   7.424
  668POPC   NC312335   3.891   7.610   9.484
  668POPC   PO412336   3.336   7.938   9.473
  668POPC   GL112337   3.443   7.611   9.151
  668POPC   GL212338   3.524   7.247   9.132
  668POPC   C1A12339   3.691   7.631   8.765
  668POPC   D2A12340   3.545   7.437   8.356
  668POPC   C3A12341   3.702   7.577   7.977
  668POPC   C4A12342   3.518   7.488   7.591
  668POPC   C1B12343   3.699   7.142   8.731
  668POPC   C2B12344   3.869   7.035   8.330
  668POPC   C3B12345   3.604   7.063   7.954
  668POPC   C4B12346   3.186   7.041   7.739
  669POPC   NC312347  27.760  35.396   9.772
  669POPC   PO412348  28.397  35.320   9.541
  669POPC   GL112349  28.367  35.352   9.116
  669POPC   GL212350  28.192  35.595   9.115
  669POPC   C1A12351  28.368  35.155   8.696
  669POPC   D2A12352  28.579  35.010   8.319
  669POPC   C3A12353  28.490  35.134   7.909
  669POPC   C4A12354  28.211  35.352   7.605
  669POPC   C1B12355  28.334  35.669   8.712
  669POPC   C2B12356  28.338  35.495   8.307
  669POPC   C3B12357  28.220  35.710   7.972
  669POPC   C4B12358  28.396  35.833   7.603
  670POPC   NC312359  11.596  13.552   9.391
  670POPC   PO412360  11.254  14.033   9.676
  670POPC   GL112361  11.402  13.966   9.187
  670POPC   GL212362  11.215  13.664   9.069
  670POPC   C1A12363  11.326  13.935   8.688
  670POPC   D2A12364  11.265  13.784   8.273
  670POPC   C3A12365  11.519  13.521   7.969
  670POPC   C4A12366  11.323  13.843   7.691
  670POPC   C1B12367  11.343  13.410   8.761
  670POPC   C2B12368  11.212  13.299   8.391
  670POPC   C3B12369  11.033  13.423   7.993
  670POPC   C4B12370  11.224  13.328   7.591
  671POPC   NC312371  17.165  43.779   9.583
  671POPC   PO412372  16.511  43.900   9.383
  671POPC   GL112373  16.786  43.869   9.060
  671POPC   GL212374  16.848  43.545   9.187
  671POPC   C1A12375  16.688  43.975   8.628
  671POPC   D2A12376  16.340  43.936   8.353
  671POPC   C3A12377  16.471  43.689   8.039
  671POPC   C4A12378  16.631  43.820   7.658
  671POPC   C1B12379  16.794  43.388   8.764
  671POPC   C2B12380  16.902  43.558   8.367
  671POPC   C3B12381  17.008  43.667   7.954
  671POPC   C4B12382  16.967  43.430   7.577
  672POPC   NC312383  35.735  25.928   9.438
  672POPC   PO412384  35.154  26.308   9.540
  672POPC   GL112385  35.188  26.293   9.129
  672POPC   GL212386  35.299  25.956   9.117
  672POPC   C1A12387  35.283  26.231   8.690
  672POPC   D2A12388  35.418  26.162   8.300
  672POPC   C3A12389  35.289  26.340   7.952
  672POPC   C4A12390  35.048  26.080   7.684
  672POPC   C1B12391  35.547  25.734   8.796
  672POPC   C2B12392  35.724  25.744   8.375
  672POPC   C3B12393  35.627  25.902   7.923
  672POPC   C4B12394  35.400  25.719   7.563
  673POPC   NC312395  31.502  23.325   9.521
  673POPC   PO412396  31.625  22.653   9.337
  673POPC   GL112397  31.475  22.963   9.147
  673POPC   GL212398  31.775  23.122   9.106
  673POPC   C1A12399  31.269  22.872   8.791
  673POPC   D2A12400  31.346  22.670   8.423
  673POPC   C3A12401  31.321  22.924   8.061
  673POPC   C4A12402  31.517  22.805   7.694
  673POPC   C1B12403  31.669  23.252   8.684
  673POPC   C2B12404  31.898  23.290   8.296
  673POPC   C3B12405  31.782  23.205   7.874
  673POPC   C4B12406  31.930  23.029   7.470
  674POPC   NC312407  38.155  39.684   9.417
  674POPC   PO412408  37.540  39.892   9.584
  674POPC   GL112409  37.753  39.940   9.179
  674POPC   GL212410  37.475  39.776   9.032
  674POPC   C1A12411  37.785  40.257   8.804
  674POPC   D2A12412  37.566  40.322   8.374
  674POPC   C3A12413  37.734  40.316   7.944
  674POPC   C4A12414  37.611  40.010   7.605
  674POPC   C1B12415  37.825  39.745   8.722
  674POPC   C2B12416  37.934  39.971   8.392
  674POPC   C3B12417  37.721  39.838   8.069
  674POPC   C4B12418  38.032  39.785   7.783
  675POPC   NC312419  16.555  10.924   9.837
  675POPC   PO412420  15.983  10.789   9.439
  675POPC   GL112421  15.880  10.846   9.058
  675POPC   GL212422  15.616  10.631   9.037
  675POPC   C1A12423  15.869  10.865   8.640
  675POPC   D2A12424  15.714  10.664   8.298
  675POPC   C3A12425  15.960  10.874   8.003
  675POPC   C4A12426  15.969  10.796   7.610
  675POPC   C1B12427  15.898  10.364   8.787
  675POPC   C2B12428  16.096  10.317   8.371
  675POPC   C3B12429  15.949  10.356   7.932
  675POPC   C4B12430  15.850  10.309   7.490
  676POPC   NC312431  35.373  34.542   9.504
  676POPC   PO412432  36.013  34.811   9.582
  676POPC   GL112433  35.660  34.834   9.213
  676POPC   GL212434  35.547  34.491   9.021
  676POPC   C1A12435  35.445  34.936   8.811
  676POPC   D2A12436  35.642  34.986   8.443
  676POPC   C3A12437  35.495  34.783   8.101
  676POPC   C4A12438  35.344  34.850   7.730
  676POPC   C1B12439  35.588  34.484   8.593
  676POPC   C2B12440  35.313  34.326   8.323
  676POPC   C3B12441  35.150  34.423   7.932
  676POPC   C4B12442  35.423  34.311   7.579
  677POPC   NC312443  30.599  40.205   9.493
  677POPC   PO412444  31.117  39.789   9.612
  677POPC   GL112445  30.811  39.871   9.165
  677POPC   GL212446  30.503  40.123   9.019
  677POPC   C1A12447  30.622  39.771   8.712
  677POPC   D2A12448  30.809  39.947   8.340
  677POPC   C3A12449  30.681  39.858   7.930
  677POPC   C4A12450  30.861  39.877   7.492
  677POPC   C1B12451  30.865  40.309   8.756
  677POPC   C2B12452  31.120  40.361   8.351
  677POPC   C3B12453  30.933  40.303   7.907
  677POPC   C4B12454  30.518  40.218   7.625
  678POPC   NC312455  33.451  15.144   9.881
  678POPC   PO412456  33.291  15.430   9.303
  678POPC   GL112457  32.990  15.221   9.070
  678POPC   GL212458  32.641  15.096   9.099
  678POPC   C1A12459  33.029  15.074   8.676
  678POPC   D2A12460  33.271  15.183   8.318
  678POPC   C3A12461  33.008  15.134   8.002
  678POPC   C4A12462  32.855  14.928   7.683
  678POPC   C1B12463  32.668  15.460   8.766
  678POPC   C2B12464  32.848  15.520   8.337
  678POPC   C3B12465  32.755  15.595   7.917
  678POPC   C4B12466  32.938  15.488   7.516
  679POPC   NC312467   6.127  10.906   9.541
  679POPC   PO412468   5.423  10.579   9.489
  679POPC   GL112469   5.704  10.777   9.220
  679POPC   GL212470   6.056  10.696   9.092
  679POPC   C1A12471   5.671  10.752   8.785
  679POPC   D2A12472   6.004  10.824   8.492
  679POPC   C3A12473   5.945  10.543   8.179
  679POPC   C4A12474   6.075  10.586   7.787
  679POPC   C1B12475   6.092  10.383   8.761
  679POPC   C2B12476   6.118  10.079   8.407
  679POPC   C3B12477   6.124  10.081   7.944
  679POPC   C4B12478   6.053  10.163   7.486
  680POPC   NC312479  21.504   0.765   9.444
  680POPC   PO412480  21.119   0.292   9.655
  680POPC   GL112481  21.084   0.466   9.241
  680POPC   GL212482  21.034   0.756   9.033
  680POPC   C1A12483  21.371   0.359   8.917
  680POPC   D2A12484  21.429   0.352   8.476
  680POPC   C3A12485  21.401   0.258   8.040
  680POPC   C4A12486  21.561   0.028   7.692
  680POPC   C1B12487  21.017   0.611   8.609
  680POPC   C2B12488  21.191   0.751   8.212
  680POPC   C3B12489  21.106   0.874   7.790
  680POPC   C4B12490  21.099   0.904   7.321
  681POPC   NC312491  21.583  32.544   9.560
  681POPC   PO412492  21.101  31.989   9.620
  681POPC   GL112493  21.360  32.155   9.311
  681POPC   GL212494  21.373  31.829   9.193
  681POPC   C1A12495  21.571  32.184   8.908
  681POPC   D2A12496  21.487  32.366   8.531
  681POPC   C3A12497  21.508  32.213   8.094
  681POPC   C4A12498  21.544  32.349   7.671
  681POPC   C1B12499  21.161  31.854   8.841
  681POPC   C2B12500  21.121  32.029   8.480
  681POPC   C3B12501  21.032  31.930   8.102
  681POPC   C4B12502  21.210  31.977   7.719
  682POPC   NC312503  38.265  29.856   9.477
  682POPC   PO412504  38.819  30.234   9.427
  682POPC   GL112505  38.562  30.015   9.103
  682POPC   GL212506  38.524  29.667   9.050
  682POPC   C1A12507  38.386  30.055   8.712
  682POPC   D2A12508  38.410  30.354   8.405
  682POPC   C3A12509  38.249  30.159   8.098
  682POPC   C4A12510  38.457  29.937   7.820
  682POPC   C1B12511  38.113  29.624   8.836
  682POPC   C2B12512  37.990  29.830   8.422
  682POPC   C3B12513  38.000  29.722   7.980
  682POPC   C4B12514  38.033  29.888   7.550
  683POPC   NC312515  12.046  38.299   9.462
  683POPC   PO412516  12.371  38.916   9.370
  683POPC   GL112517  12.118  38.654   9.098
  683POPC   GL212518  12.332  38.351   9.044
  683POPC   C1A12519  11.862  38.383   8.803
  683POPC   D2A12520  11.773  38.083   8.452
  683POPC   C3A12521  11.777  38.236   8.036
  683POPC   C4A12522  11.903  38.682   7.924
  683POPC   C1B12523  12.394  38.638   8.679
  683POPC   C2B12524  12.357  38.696   8.219
  683POPC   C3B12525  12.337  38.393   7.885
  683POPC   C4B12526  12.478  38.416   7.489
  684POPC   NC312527  27.865  30.427   9.580
  684POPC   PO412528  27.766  31.058   9.445
  684POPC   GL112529  27.669  30.706   9.189
  684POPC   GL212530  27.344  30.603   9.107
  684POPC   C1A12531  27.746  30.444   8.838
  684POPC   D2A12532  27.456  30.356   8.499
  684POPC   C3A12533  27.560  30.538   8.108
  684POPC   C4A12534  27.837  30.462   7.763
  684POPC   C1B12535  27.441  30.846   8.692
  684POPC   C2B12536  27.431  31.084   8.287
  684POPC   C3B12537  27.338  30.955   7.873
  684POPC   C4B12538  27.419  30.656   7.533
  685POPC   NC312539  31.472  41.882   9.411
  685POPC   PO412540  31.637  41.228   9.403
  685POPC   GL112541  31.428  41.445   9.100
  685POPC   GL212542  31.729  41.649   9.011
  685POPC   C1A12543  31.238  41.320   8.713
  685POPC   D2A12544  31.363  41.528   8.374
  685POPC   C3A12545  31.384  41.318   8.009
  685POPC   C4A12546  31.436  41.117   7.688
  685POPC   C1B12547  31.408  41.879   8.754
  685POPC   C2B12548  31.314  42.067   8.345
  685POPC   C3B12549  31.294  41.819   7.975
  685POPC   C4B12550  31.548  41.670   7.674
  686POPC   NC312551  19.839   0.341   9.526
  686POPC   PO412552  19.542   0.956   9.692
  686POPC   GL112553  19.756   0.775   9.246
  686POPC   GL212554  20.056   0.518   9.119
  686POPC   C1A12555  19.661   0.625   8.788
  686POPC   D2A12556  19.764   0.598   8.326
  686POPC   C3A12557  19.461   0.495   7.961
  686POPC   C4A12558  19.432   0.692   7.539
  686POPC   C1B12559  19.989   0.214   8.759
  686POPC   C2B12560  19.900   0.079   8.369
  686POPC   C3B12561  19.963   0.264   7.975
  686POPC   C4B12562  20.193   0.399   7.618
  687POPC   NC312563  31.493  21.616   9.521
  687POPC   PO412564  31.062  21.078   9.670
  687POPC   GL112565  31.366  21.173   9.247
  687POPC   GL212566  31.717  21.309   9.149
  687POPC   C1A12567  31.338  21.265   8.773
  687POPC   D2A12568  31.513  21.512   8.403
  687POPC   C3A12569  31.298  21.456   8.014
  687POPC   C4A12570  31.219  21.026   7.885
  687POPC   C1B12571  31.881  21.243   8.702
  687POPC   C2B12572  31.880  21.111   8.243
  687POPC   C3B12573  31.754  21.319   7.892
  687POPC   C4B12574  31.696  21.810   7.958
  688POPC   NC312575  12.057  35.952   9.859
  688POPC   PO412576  12.322  36.485   9.528
  688POPC   GL112577  12.172  36.208   9.209
  688POPC   GL212578  12.166  36.480   9.034
  688POPC   C1A12579  12.057  36.027   8.830
  688POPC   D2A12580  12.270  36.123   8.476
  688POPC   C3A12581  12.041  36.045   8.129
  688POPC   C4A12582  12.079  35.926   7.735
  688POPC   C1B12583  11.955  36.558   8.697
  688POPC   C2B12584  11.932  36.507   8.309
  688POPC   C3B12585  11.984  36.668   7.967
  688POPC   C4B12586  12.128  36.431   7.657
  689POPC   NC312587  29.924  23.913   9.534
  689POPC   PO412588  29.372  23.588   9.534
  689POPC   GL112589  29.683  23.598   9.171
  689POPC   GL212590  30.049  23.691   9.104
  689POPC   C1A12591  29.766  23.421   8.774
  689POPC   D2A12592  29.640  23.606   8.381
  689POPC   C3A12593  29.870  23.555   8.015
  689POPC   C4A12594  29.724  23.703   7.660
  689POPC   C1B12595  30.049  23.837   8.711
  689POPC   C2B12596  30.192  23.632   8.397
  689POPC   C3B12597  30.299  23.856   8.052
  689POPC   C4B12598  30.269  23.771   7.643
  690POPC   NC312599  37.162  11.600   9.780
  690POPC   PO412600  37.508  11.117   9.398
  690POPC   GL112601  37.704  11.353   9.071
  690POPC   GL212602  38.034  11.497   9.102
  690POPC   C1A12603  37.680  11.488   8.651
  690POPC   D2A12604  37.442  11.717   8.335
  690POPC   C3A12605  37.441  11.512   7.932
  690POPC   C4A12606  37.341  11.558   7.503
  690POPC   C1B12607  38.188  11.389   8.687
  690POPC   C2B12608  38.005  11.212   8.323
  690POPC   C3B12609  37.939  11.387   7.945
  690POPC   C4B12610  37.827  11.648   7.581
  691POPC   NC312611  35.342  16.213   9.446
  691POPC   PO412612  35.131  15.569   9.504
  691POPC   GL112613  35.205  15.732   9.105
  691POPC   GL212614  35.547  15.669   8.999
  691POPC   C1A12615  35.010  15.826   8.697
  691POPC   D2A12616  35.098  16.110   8.351
  691POPC   C3A12617  35.211  15.898   7.960
  691POPC   C4A12618  35.614  15.761   7.733
  691POPC   C1B12619  35.539  15.906   8.599
  691POPC   C2B12620  35.636  16.121   8.194
  691POPC   C3B12621  35.539  16.282   7.779
  691POPC   C4B12622  35.733  16.151   7.363
  692POPC   NC312623  39.052  38.375   9.571
  692POPC   PO412624  39.539  37.946   9.455
  692POPC   GL112625  39.297  38.279   9.134
  692POPC   GL212626  38.911  38.246   9.091
  692POPC   C1A12627  39.195  38.477   8.696
  692POPC   D2A12628  39.253  38.498   8.222
  692POPC   C3A12629  39.600  38.550   7.892
  692POPC   C4A12630  39.783  38.165   7.679
  692POPC   C1B12631  38.870  38.009   8.690
  692POPC   C2B12632  39.117  37.969   8.288
  692POPC   C3B12633  39.294  38.137   7.863
  692POPC   C4B12634  39.224  38.540   7.544
  693POPC   NC312635  17.417  14.089   9.581
  693POPC   PO412636  17.902  14.430   9.382
  693POPC   GL112637  17.524  14.329   9.140
  693POPC   GL212638  17.655  13.982   9.144
  693POPC   C1A12639  17.428  14.509   8.710
  693POPC   D2A12640  17.607  14.400   8.280
  693POPC   C3A12641  17.490  14.604   7.873
  693POPC   C4A12642  17.592  14.920   7.509
  693POPC   C1B12643  17.711  14.096   8.730
  693POPC   C2B12644  17.489  13.925   8.362
  693POPC   C3B12645  17.351  14.080   7.984
  693POPC   C4B12646  17.534  14.165   7.608
  694POPC   NC312647  10.782  34.901   9.418
  694POPC   PO412648  10.557  34.267   9.518
  694POPC   GL112649  10.502  34.519   9.150
  694POPC   GL212650  10.256  34.269   9.058
  694POPC   C1A12651  10.582  34.845   8.795
  694POPC   D2A12652  10.804  34.807   8.392
  694POPC   C3A12653  10.737  34.656   7.962
  694POPC   C4A12654  10.727  34.214   7.773
  694POPC   C1B12655  10.302  34.438   8.694
  694POPC   C2B12656  10.469  34.419   8.331
  694POPC   C3B12657  10.282  34.396   7.970
  694POPC   C4B12658  10.157  34.148   7.658
  695POPC   NC312659  10.581  28.040   9.611
  695POPC   PO412660  10.423  28.698   9.543
  695POPC   GL112661  10.638  28.541   9.220
  695POPC   GL212662  10.528  28.235   9.165
  695POPC   C1A12663  10.512  28.560   8.791
  695POPC   D2A12664  10.466  28.321   8.434
  695POPC   C3A12665  10.229  28.526   8.117
  695POPC   C4A12666  10.327  28.359   7.716
  695POPC   C1B12667  10.699  28.036   8.804
  695POPC   C2B12668  10.665  27.837   8.417
  695POPC   C3B12669  10.730  28.051   8.060
  695POPC   C4B12670  10.645  27.889   7.692
  696POPC   NC312671  29.470  20.976   9.526
  696POPC   PO412672  29.011  21.400   9.474
  696POPC   GL112673  28.943  21.274   9.060
  696POPC   GL212674  29.143  21.011   9.142
  696POPC   C1A12675  28.953  21.303   8.598
  696POPC   D2A12676  28.865  21.134   8.185
  696POPC   C3A12677  29.043  21.369   7.822
  696POPC   C4A12678  29.484  21.515   7.767
  696POPC   C1B12679  29.360  21.063   8.794
  696POPC   C2B12680  29.305  20.890   8.434
  696POPC   C3B12681  29.379  21.111   8.102
  696POPC   C4B12682  29.354  20.974   7.704
  697POPC   NC312683  36.046  18.735   9.406
  697POPC   PO412684  36.381  19.331   9.513
  697POPC   GL112685  36.286  19.093   9.129
  697POPC   GL212686  35.943  19.035   9.012
  697POPC   C1A12687  36.361  18.887   8.716
  697POPC   D2A12688  36.455  19.060   8.314
  697POPC   C3A12689  36.149  19.312   8.046
  697POPC   C4A12690  36.089  19.342   7.598
  697POPC   C1B12691  35.679  18.934   8.662
  697POPC   C2B12692  35.890  18.886   8.234
  697POPC   C3B12693  35.842  18.936   7.772
  697POPC   C4B12694  35.722  18.923   7.315
  698POPC   NC312695  12.394  22.271   9.461
  698POPC   PO412696  12.165  21.620   9.523
  698POPC   GL112697  12.167  21.888   9.148
  698POPC   GL212698  11.901  22.164   9.181
  698POPC   C1A12699  12.239  22.038   8.719
  698POPC   D2A12700  12.049  22.270   8.357
  698POPC   C3A12701  12.161  22.176   7.907
  698POPC   C4A12702  11.992  21.933   7.540
  698POPC   C1B12703  11.713  22.437   8.843
  698POPC   C2B12704  11.594  22.513   8.391
  698POPC   C3B12705  11.795  22.570   7.995
  698POPC   C4B12706  11.781  22.409   7.591
  699POPC   NC312707  38.032  16.368   9.475
  699POPC   PO412708  38.578  16.709   9.795
  699POPC   GL112709  38.644  16.720   9.327
  699POPC   GL212710  38.461  16.447   9.226
  699POPC   C1A12711  38.672  16.710   8.854
  699POPC   D2A12712  38.524  16.518   8.466
  699POPC   C3A12713  38.544  16.754   8.086
  699POPC   C4A12714  38.479  16.947   7.705
  699POPC   C1B12715  38.200  16.349   8.844
  699POPC   C2B12716  38.015  16.256   8.442
  699POPC   C3B12717  38.258  16.320   8.067
  699POPC   C4B12718  38.236  16.508   7.661
  700POPC   NC312719  17.664  11.926   9.877
  700POPC   PO412720  18.197  12.070   9.506
  700POPC   GL112721  18.312  11.963   9.153
  700POPC   GL212722  18.632  11.799   9.174
  700POPC   C1A12723  18.307  12.222   8.794
  700POPC   D2A12724  18.225  12.117   8.374
  700POPC   C3A12725  18.452  12.310   8.039
  700POPC   C4A12726  18.544  12.208   7.612
  700POPC   C1B12727  18.517  11.764   8.742
  700POPC   C2B12728  18.677  11.901   8.386
  700POPC   C3B12729  18.768  11.917   8.013
  700POPC   C4B12730  18.627  11.724   7.705
  701POPC   NC312731   7.234  12.099   9.549
  701POPC   PO412732   7.947  12.291   9.562
  701POPC   GL112733   7.630  12.312   9.246
  701POPC   GL212734   7.489  11.990   9.115
  701POPC   C1A12735   7.752  12.316   8.820
  701POPC   D2A12736   7.568  12.134   8.474
  701POPC   C3A12737   7.671  12.215   8.039
  701POPC   C4A12738   7.457  11.896   7.786
  701POPC   C1B12739   7.235  12.323   8.917
  701POPC   C2B12740   7.076  12.364   8.518
  701POPC   C3B12741   7.176  12.203   8.130
  701POPC   C4B12742   7.181  12.324   7.736
  702POPC   NC312743  13.351  34.907   9.738
  702POPC   PO412744  13.673  34.343   9.463
  702POPC   GL112745  13.724  34.554   9.039
  702POPC   GL212746  14.023  34.634   9.075
  702POPC   C1A12747  13.440  34.721   8.685
  702POPC   D2A12748  13.411  34.881   8.269
  702POPC   C3A12749  13.696  34.637   8.046
  702POPC   C4A12750  13.806  34.551   7.633
  702POPC   C1B12751  13.923  34.959   8.751
  702POPC   C2B12752  13.891  35.105   8.285
  702POPC   C3B12753  13.977  34.982   7.835
  702POPC   C4B12754  13.993  34.966   7.350
  703POPC   NC312755  32.649  16.605   9.407
  703POPC   PO412756  32.618  15.906   9.474
  703POPC   GL112757  32.324  16.016   9.143
  703POPC   GL212758  32.522  16.264   9.015
  703POPC   C1A12759  32.074  16.157   8.745
  703POPC   D2A12760  31.971  15.947   8.324
  703POPC   C3A12761  32.034  16.130   7.886
  703POPC   C4A12762  31.726  16.110   7.540
  703POPC   C1B12763  32.533  15.978   8.658
  703POPC   C2B12764  32.475  16.029   8.206
  703POPC   C3B12765  32.515  16.008   7.758
  703POPC   C4B12766  32.446  15.649   7.460
  704POPC   NC312767  15.945  31.442   9.610
  704POPC   PO412768  16.610  31.543   9.564
  704POPC   GL112769  16.650  31.616   9.136
  704POPC   GL212770  16.397  31.438   9.006
  704POPC   C1A12771  16.845  31.451   8.733
  704POPC   D2A12772  17.197  31.389   8.480
  704POPC   C3A12773  17.053  31.347   8.067
  704POPC   C4A12774  16.873  31.618   7.808
  704POPC   C1B12775  16.461  31.777   8.672
  704POPC   C2B12776  16.604  31.628   8.262
  704POPC   C3B12777  16.459  31.343   7.938
  704POPC   C4B12778  16.511  31.398   7.499
  705POPC   NC312779  32.160  39.442   9.424
  705POPC   PO412780  32.564  38.885   9.548
  705POPC   GL112781  32.444  39.094   9.140
  705POPC   GL212782  32.097  39.064   9.086
  705POPC   C1A12783  32.421  39.012   8.661
  705POPC   D2A12784  32.256  38.917   8.234
  705POPC   C3A12785  32.418  39.153   7.855
  705POPC   C4A12786  32.359  39.173   7.390
  705POPC   C1B12787  32.007  39.288   8.729
  705POPC   C2B12788  31.886  39.284   8.316
  705POPC   C3B12789  31.904  39.136   7.904
  705POPC   C4B12790  31.868  39.468   7.608
  706POPC   NC312791  41.299  13.536   9.454
  706POPC   PO412792  40.617  13.480   9.682
  706POPC   GL112793  40.818  13.399   9.287
  706POPC   GL212794  40.904  13.737   9.132
  706POPC   C1A12795  40.850  13.320   8.845
  706POPC   D2A12796  40.674  13.558   8.489
  706POPC   C3A12797  40.633  13.390   8.072
  706POPC   C4A12798  40.812  13.602   7.695
  706POPC   C1B12799  40.489  13.800   8.890
  706POPC   C2B12800  40.363  14.005   8.505
  706POPC   C3B12801  40.510  13.904   8.090
  706POPC   C4B12802  40.457  14.034   7.682
  707POPC   NC312803  33.479   4.466   9.375
  707POPC   PO412804  33.955   3.927   9.456
  707POPC   GL112805  33.743   4.066   9.085
  707POPC   GL212806  33.361   4.096   9.069
  707POPC   C1A12807  33.929   4.071   8.655
  707POPC   D2A12808  34.053   3.965   8.215
  707POPC   C3A12809  33.909   4.254   7.882
  707POPC   C4A12810  33.651   4.596   7.677
  707POPC   C1B12811  33.480   4.334   8.692
  707POPC   C2B12812  33.589   4.386   8.254
  707POPC   C3B12813  33.375   4.207   7.867
  707POPC   C4B12814  33.323   4.281   7.402
  708POPC   NC312815  37.239   7.490   9.427
  708POPC   PO412816  36.618   7.269   9.430
  708POPC   GL112817  36.846   7.315   9.071
  708POPC   GL212818  37.116   7.104   9.129
  708POPC   C1A12819  36.780   7.314   8.625
  708POPC   D2A12820  36.614   7.131   8.237
  708POPC   C3A12821  36.762   7.265   7.840
  708POPC   C4A12822  36.706   7.138   7.430
  708POPC   C1B12823  37.287   7.256   8.748
  708POPC   C2B12824  37.156   7.158   8.333
  708POPC   C3B12825  37.266   7.210   7.924
  708POPC   C4B12826  37.182   7.004   7.533
  709POPC   NC312827  37.598  22.330   9.729
  709POPC   PO412828  38.055  21.912   9.504
  709POPC   GL112829  37.835  22.310   9.280
  709POPC   GL212830  37.462  22.332   9.214
  709POPC   C1A12831  37.778  22.414   8.845
  709POPC   D2A12832  37.707  22.143   8.464
  709POPC   C3A12833  37.569  22.085   8.042
  709POPC   C4A12834  37.790  22.343   7.764
  709POPC   C1B12835  37.336  22.112   8.825
  709POPC   C2B12836  37.158  22.036   8.415
  709POPC   C3B12837  37.077  22.234   8.027
  709POPC   C4B12838  37.175  21.930   7.731
  710POPC   NC312839  30.208  22.308   9.469
  710POPC   PO412840  30.217  21.564   9.448
  710POPC   GL112841  29.958  21.847   9.144
  710POPC   GL212842  29.823  22.204   9.151
  710POPC   C1A12843  29.824  21.935   8.718
  710POPC   D2A12844  30.109  22.122   8.427
  710POPC   C3A12845  30.002  22.342   8.089
  710POPC   C4A12846  30.141  22.179   7.734
  710POPC   C1B12847  29.721  22.464   8.800
  710POPC   C2B12848  29.705  22.646   8.394
  710POPC   C3B12849  29.588  22.643   7.959
  710POPC   C4B12850  29.636  22.305   7.669
  711POPC   NC312851  19.919  22.008   9.604
  711POPC   PO412852  19.478  22.524   9.636
  711POPC   GL112853  19.641  22.312   9.232
  711POPC   GL212854  20.029  22.220   9.153
  711POPC   C1A12855  19.721  22.413   8.789
  711POPC   D2A12856  20.053  22.286   8.493
  711POPC   C3A12857  19.895  22.139   8.115
  711POPC   C4A12858  19.902  22.371   7.742
  711POPC   C1B12859  19.920  21.931   8.814
  711POPC   C2B12860  20.099  21.766   8.411
  711POPC   C3B12861  20.180  21.685   7.998
  711POPC   C4B12862  20.000  21.868   7.652
  712POPC   NC312863  25.384  23.737   9.585
  712POPC   PO412864  24.703  23.536   9.505
  712POPC   GL112865  25.046  23.599   9.159
  712POPC   GL212866  25.342  23.874   9.105
  712POPC   C1A12867  25.081  23.750   8.705
  712POPC   D2A12868  25.366  23.774   8.361
  712POPC   C3A12869  25.171  23.695   7.943
  712POPC   C4A12870  25.262  23.499   7.500
  712POPC   C1B12871  25.468  24.181   8.741
  712POPC   C2B12872  25.691  24.195   8.311
  712POPC   C3B12873  25.667  23.907   7.949
  712POPC   C4B12874  25.389  23.975   7.564
  713POPC   NC312875  32.058  21.998   9.581
  713POPC   PO412876  32.415  22.603   9.622
  713POPC   GL112877  32.163  22.368   9.245
  713POPC   GL212878  32.309  22.040   9.130
  713POPC   C1A12879  32.107  22.346   8.758
  713POPC   D2A12880  31.888  22.277   8.333
  713POPC   C3A12881  32.138  22.095   7.971
  713POPC   C4A12882  32.107  22.216   7.524
  713POPC   C1B12883  32.575  22.015   8.746
  713POPC   C2B12884  32.544  21.816   8.311
  713POPC   C3B12885  32.551  21.752   7.840
  713POPC   C4B12886  32.536  21.926   7.439
  714POPC   NC312887  40.387   4.390   9.490
  714POPC   PO412888  40.966   4.027   9.396
  714POPC   GL112889  40.762   4.299   9.118
  714POPC   GL212890  40.943   4.604   8.958
  714POPC   C1A12891  40.692   4.169   8.704
  714POPC   D2A12892  40.532   3.995   8.321
  714POPC   C3A12893  40.803   4.065   8.012
  714POPC   C4A12894  40.881   4.332   7.676
  714POPC   C1B12895  40.507   4.630   8.814
  714POPC   C2B12896  40.378   4.479   8.416
  714POPC   C3B12897  40.501   4.702   8.024
  714POPC   C4B12898  40.675   4.784   7.601
  715POPC   NC312899  30.137  34.203   9.805
  715POPC   PO412900  29.712  34.681   9.617
  715POPC   GL112901  29.788  34.410   9.225
  715POPC   GL212902  29.729  34.733   9.093
  715POPC   C1A12903  29.948  34.296   8.751
  715POPC   D2A12904  30.108  34.267   8.279
  715POPC   C3A12905  29.817  34.210   7.885
  715POPC   C4A12906  29.899  34.433   7.470
  715POPC   C1B12907  29.989  34.832   8.762
  715POPC   C2B12908  30.044  34.770   8.356
  715POPC   C3B12909  29.898  34.703   7.949
  715POPC   C4B12910  29.754  34.959   7.628
  716POPC   NC312911   5.861  21.752   9.762
  716POPC   PO412912   5.641  22.356   9.769
  716POPC   GL112913   5.617  22.172   9.322
  716POPC   GL212914   5.796  21.869   9.220
  716POPC   C1A12915   5.578  22.155   8.854
  716POPC   D2A12916   5.782  22.096   8.446
  716POPC   C3A12917   5.527  21.959   8.113
  716POPC   C4A12918   5.440  22.269   7.833
  716POPC   C1B12919   6.005  21.792   8.797
  716POPC   C2B12920   6.037  21.672   8.356
  716POPC   C3B12921   6.010  21.908   7.952
  716POPC   C4B12922   6.365  22.106   7.697
  717POPC   NC312923  32.601  17.897   9.669
  717POPC   PO412924  32.206  18.551   9.533
  717POPC   GL112925  32.413  18.399   9.179
  717POPC   GL212926  32.390  18.049   9.222
  717POPC   C1A12927  32.352  18.397   8.729
  717POPC   D2A12928  32.426  18.188   8.324
  717POPC   C3A12929  32.186  18.446   8.047
  717POPC   C4A12930  32.257  18.617   7.646
  717POPC   C1B12931  32.386  17.897   8.803
  717POPC   C2B12932  32.087  17.843   8.482
  717POPC   C3B12933  32.111  17.866   8.040
  717POPC   C4B12934  32.378  18.094   7.753
  718POPC   NC312935  36.292  29.776   9.724
  718POPC   PO412936  35.909  30.241   9.568
  718POPC   GL112937  36.132  29.960   9.261
  718POPC   GL212938  36.341  30.204   9.114
  718POPC   C1A12939  36.192  29.745   8.833
  718POPC   D2A12940  36.370  29.879   8.467
  718POPC   C3A12941  36.329  29.658   8.083
  718POPC   C4A12942  36.185  29.784   7.680
  718POPC   C1B12943  35.940  30.174   8.840
  718POPC   C2B12944  35.739  30.024   8.459
  718POPC   C3B12945  35.854  29.921   8.040
  718POPC   C4B12946  35.967  30.264   7.758
  719POPC   NC312947  18.633  12.028   9.653
  719POPC   PO412948  19.161  11.805   9.537
  719POPC   GL112949  19.177  11.965   9.124
  719POPC   GL212950  18.952  12.202   9.095
  719POPC   C1A12951  19.100  11.839   8.711
  719POPC   D2A12952  19.371  11.922   8.348
  719POPC   C3A12953  19.243  11.782   7.937
  719POPC   C4A12954  19.046  12.065   7.611
  719POPC   C1B12955  18.805  12.270   8.688
  719POPC   C2B12956  18.984  12.323   8.258
  719POPC   C3B12957  18.937  12.518   7.810
  719POPC   C4B12958  18.860  12.476   7.322
  720POPC   NC312959  28.819  21.820   9.473
  720POPC   PO412960  29.507  21.950   9.455
  720POPC   GL112961  29.312  22.078   9.065
  720POPC   GL212962  28.945  22.160   9.086
  720POPC   C1A12963  29.337  22.109   8.612
  720POPC   D2A12964  29.459  22.203   8.177
  720POPC   C3A12965  29.139  22.414   7.864
  720POPC   C4A12966  29.172  22.547   7.425
  720POPC   C1B12967  28.927  21.799   8.761
  720POPC   C2B12968  28.984  21.702   8.283
  720POPC   C3B12969  29.160  21.887   7.885
  720POPC   C4B12970  28.946  22.042   7.508
  721POPC   NC312971  42.582  30.410   9.621
  721POPC   PO412972  42.375  31.002   9.444
  721POPC   GL112973  42.297  30.643   9.191
  721POPC   GL212974  42.606  30.478   9.127
  721POPC   C1A12975  42.041  30.596   8.805
  721POPC   D2A12976  42.208  30.478   8.391
  721POPC   C3A12977  42.192  30.663   7.984
  721POPC   C4A12978  42.145  30.451   7.554
  721POPC   C1B12979  42.548  30.639   8.754
  721POPC   C2B12980  42.715  30.577   8.382
  721POPC   C3B12981  42.642  30.447   8.010
  721POPC   C4B12982  42.579  30.670   7.637
  722POPC   NC312983  22.698  35.355   9.566
  722POPC   PO412984  23.260  35.699   9.552
  722POPC   GL112985  23.049  35.499   9.168
  722POPC   GL212986  22.881  35.137   9.160
  722POPC   C1A12987  22.924  35.426   8.755
  722POPC   D2A12988  23.000  35.173   8.417
  722POPC   C3A12989  22.861  35.427   8.095
  722POPC   C4A12990  23.016  35.490   7.688
  722POPC   C1B12991  22.701  34.954   8.828
  722POPC   C2B12992  22.483  35.128   8.489
  722POPC   C3B12993  22.603  34.967   8.097
  722POPC   C4B12994  22.652  35.137   7.712
  723POPC   NC312995  28.834   5.524   9.317
  723POPC   PO412996  29.382   5.137   9.613
  723POPC   GL112997  29.283   4.973   9.185
  723POPC   GL212998  28.954   4.915   9.121
  723POPC   C1A12999  29.297   4.765   8.748
  723POPC   D2A13000  29.525   4.803   8.363
  723POPC   C3A13001  29.401   4.949   7.954
  723POPC   C4A13002  29.274   4.679   7.626
  723POPC   C1B13003  29.061   5.190   8.757
  723POPC   C2B13004  29.179   5.216   8.342
  723POPC   C3B13005  28.954   5.216   7.979
  723POPC   C4B13006  28.867   4.972   7.621
  724POPC   NC313007  21.997  38.633   9.495
  724POPC   PO413008  22.604  38.437   9.378
  724POPC   GL113009  22.235  38.318   9.177
  724POPC   GL213010  22.401  38.045   9.055
  724POPC   C1A13011  22.073  38.545   8.841
  724POPC   D2A13012  22.342  38.594   8.449
  724POPC   C3A13013  22.365  38.823   8.082
  724POPC   C4A13014  22.090  38.706   7.796
  724POPC   C1B13015  22.131  38.079   8.690
  724POPC   C2B13016  21.904  38.355   8.388
  724POPC   C3B13017  22.152  38.268   8.047
  724POPC   C4B13018  22.147  38.084   7.654
  725POPC   NC313019  23.019   4.676   9.332
  725POPC   PO413020  22.692   5.327   9.291
  725POPC   GL113021  23.070   5.172   9.139
  725POPC   GL213022  23.408   5.244   9.201
  725POPC   C1A13023  23.244   4.976   8.792
  725POPC   D2A13024  23.292   5.122   8.381
  725POPC   C3A13025  22.900   5.090   8.161
  725POPC   C4A13026  22.897   4.967   7.730
  725POPC   C1B13027  23.358   5.485   8.777
  725POPC   C2B13028  23.095   5.577   8.376
  725POPC   C3B13029  23.152   5.454   7.913
  725POPC   C4B13030  23.042   5.419   7.447
  726POPC   NC313031  16.879   2.275   9.284
  726POPC   PO413032  16.866   2.915   9.524
  726POPC   GL113033  16.692   2.737   9.123
  726POPC   GL213034  16.960   2.574   8.894
  726POPC   C1A13035  16.584   2.833   8.682
  726POPC   D2A13036  16.940   2.785   8.392
  726POPC   C3A13037  16.881   3.093   8.074
  726POPC   C4A13038  16.501   3.121   7.804
  726POPC   C1B13039  16.586   2.312   8.720
  726POPC   C2B13040  16.453   2.450   8.338
  726POPC   C3B13041  16.589   2.626   7.986
  726POPC   C4B13042  16.733   2.286   7.773
  727POPC   NC313043   6.043  32.716   9.385
  727POPC   PO413044   5.782  33.182   9.648
  727POPC   GL113045   5.670  33.043   9.224
  727POPC   GL213046   5.787  33.345   9.109
  727POPC   C1A13047   5.549  33.022   8.774
  727POPC   D2A13048   5.701  33.104   8.350
  727POPC   C3A13049   5.508  32.919   7.973
  727POPC   C4A13050   5.765  32.779   7.626
  727POPC   C1B13051   6.095  33.158   8.804
  727POPC   C2B13052   6.191  33.271   8.348
  727POPC   C3B13053   6.059  33.262   7.877
  727POPC   C4B13054   6.183  33.462   7.455
  728POPC   NC313055  34.427   8.010   9.530
  728POPC   PO413056  34.715   8.609   9.678
  728POPC   GL113057  34.587   8.396   9.232
  728POPC   GL213058  34.846   8.413   8.940
  728POPC   C1A13059  34.501   8.078   8.883
  728POPC   D2A13060  34.713   8.142   8.482
  728POPC   C3A13061  34.462   8.066   8.154
  728POPC   C4A13062  34.404   8.230   7.758
  728POPC   C1B13063  35.046   8.010   8.854
  728POPC   C2B13064  35.218   7.790   8.521
  728POPC   C3B13065  35.058   7.858   8.124
  728POPC   C4B13066  34.898   8.216   7.917
  729POPC   NC313067  44.816  44.182   9.683
  729POPC   PO413068  44.721  43.599   9.798
  729POPC   GL113069  44.570  43.901   9.355
  729POPC   GL213070  44.773  44.169   9.171
  729POPC   C1A13071  44.566  43.776   8.886
  729POPC   D2A13072  44.849  43.681   8.565
  729POPC   C3A13073  44.728  43.868   8.207
  729POPC   C4A13074  44.639  43.747   7.795
  729POPC   C1B13075  44.710  44.217   8.708
  729POPC   C2B13076  44.347  44.176   8.404
  729POPC   C3B13077  44.453  44.232   7.950
  729POPC   C4B13078  44.864  44.296   7.694
  730POPC   NC313079  31.182  22.535   9.463
  730POPC   PO413080  31.598  22.051   9.646
  730POPC   GL113081  31.726  21.917   9.192
  730POPC   GL213082  31.435  21.722   8.997
  730POPC   C1A13083  31.662  22.115   8.791
  730POPC   D2A13084  31.442  22.019   8.426
  730POPC   C3A13085  31.403  22.271   8.081
  730POPC   C4A13086  31.711  22.354   7.817
  730POPC   C1B13087  31.077  21.747   8.654
  730POPC   C2B13088  31.022  21.862   8.182
  730POPC   C3B13089  31.240  21.890   7.755
  730POPC   C4B13090  31.092  21.901   7.330
  731POPC   NC313091  11.559  26.679  10.054
  731POPC   PO413092  11.517  26.991   9.458
  731POPC   GL113093  11.310  26.880   9.088
  731POPC   GL213094  10.951  26.871   9.144
  731POPC   C1A13095  11.549  26.818   8.716
  731POPC   D2A13096  11.514  26.565   8.329
  731POPC   C3A13097  11.526  26.833   7.975
  731POPC   C4A13098  11.304  26.777   7.596
  731POPC   C1B13099  10.978  27.012   8.717
  731POPC   C2B13100  11.205  27.022   8.320
  731POPC   C3B13101  11.003  27.086   7.913
  731POPC   C4B13102  11.146  27.236   7.486
  732POPC   NC313103   9.060   9.365   9.579
  732POPC   PO413104   8.746   9.902   9.638
  732POPC   GL113105   8.783   9.976   9.188
  732POPC   GL213106   9.036   9.720   9.183
  732POPC   C1A13107   8.835   9.806   8.736
  732POPC   D2A13108   9.030   9.663   8.356
  732POPC   C3A13109   8.893   9.457   7.983
  732POPC   C4A13110   8.843   9.773   7.727
  732POPC   C1B13111   9.265   9.491   8.873
  732POPC   C2B13112   9.426   9.380   8.475
  732POPC   C3B13113   9.422   9.553   8.043
  732POPC   C4B13114   9.347   9.753   7.651
  733POPC   NC313115  13.765  18.539   9.451
  733POPC   PO413116  13.210  18.172   9.473
  733POPC   GL113117  13.381  18.011   9.092
  733POPC   GL213118  13.756  18.084   9.064
  733POPC   C1A13119  13.424  18.099   8.651
  733POPC   D2A13120  13.709  18.187   8.315
  733POPC   C3A13121  13.515  18.128   7.933
  733POPC   C4A13122  13.239  18.392   7.726
  733POPC   C1B13123  13.832  18.440   8.759
  733POPC   C2B13124  13.958  18.652   8.338
  733POPC   C3B13125  14.021  18.485   7.902
  733POPC   C4B13126  14.113  18.590   7.407
  734POPC   NC313127   4.606  34.480   9.583
  734POPC   PO413128   3.909  34.628   9.538
  734POPC   GL113129   4.263  34.600   9.218
  734POPC   GL213130   4.228  34.275   9.175
  734POPC   C1A13131   4.467  34.643   8.787
  734POPC   D2A13132   4.351  34.908   8.435
  734POPC   C3A13133   4.276  34.761   7.999
  734POPC   C4A13134   4.061  34.983   7.694
  734POPC   C1B13135   4.129  34.262   8.744
  734POPC   C2B13136   4.236  34.396   8.355
  734POPC   C3B13137   4.284  34.228   7.946
  734POPC   C4B13138   4.514  34.265   7.548
  735POPC   NC313139  24.688  22.247   9.455
  735POPC   PO413140  24.074  22.175   9.577
  735POPC   GL113141  24.272  22.282   9.153
  735POPC   GL213142  24.591  22.498   9.035
  735POPC   C1A13143  24.335  21.945   8.833
  735POPC   D2A13144  24.646  21.822   8.508
  735POPC   C3A13145  24.537  22.031   8.139
  735POPC   C4A13146  24.425  22.151   7.736
  735POPC   C1B13147  24.400  22.444   8.673
  735POPC   C2B13148  24.397  22.499   8.280
  735POPC   C3B13149  24.716  22.490   7.984
  735POPC   C4B13150  24.537  22.636   7.625
  736POPC   NC313151  33.957   6.784   9.484
  736POPC   PO413152  33.327   6.406   9.397
  736POPC   GL113153  33.735   6.426   9.134
  736POPC   GL213154  34.113   6.496   9.106
  736POPC   C1A13155  33.728   6.408   8.678
  736POPC   D2A13156  33.421   6.528   8.369
  736POPC   C3A13157  33.589   6.626   7.945
  736POPC   C4A13158  33.969   6.489   7.757
  736POPC   C1B13159  34.158   6.666   8.702
  736POPC   C2B13160  33.950   6.704   8.315
  736POPC   C3B13161  34.038   6.935   7.979
  736POPC   C4B13162  34.324   6.832   7.615
  737POPC   NC313163  33.293   8.818   9.316
  737POPC   PO413164  32.915   9.343   9.615
  737POPC   GL113165  32.852   9.163   9.191
  737POPC   GL213166  32.767   8.810   9.213
  737POPC   C1A13167  33.092   9.193   8.787
  737POPC   D2A13168  33.165   8.915   8.423
  737POPC   C3A13169  33.166   9.154   8.066
  737POPC   C4A13170  32.950   9.170   7.677
  737POPC   C1B13171  32.736   8.805   8.760
  737POPC   C2B13172  32.756   8.626   8.337
  737POPC   C3B13173  32.951   8.695   7.930
  737POPC   C4B13174  32.825   8.622   7.499
  738POPC   NC313175   6.202  19.005   9.670
  738POPC   PO413176   5.607  19.380   9.564
  738POPC   GL113177   5.761  19.260   9.112
  738POPC   GL213178   5.966  18.941   9.092
  738POPC   C1A13179   5.737  19.121   8.626
  738POPC   D2A13180   5.595  18.861   8.228
  738POPC   C3A13181   5.564  18.907   7.743
  738POPC   C4A13182   5.463  18.754   7.297
  738POPC   C1B13183   6.216  18.956   8.679
  738POPC   C2B13184   6.092  18.670   8.344
  738POPC   C3B13185   6.086  18.818   7.921
  738POPC   C4B13186   6.432  18.837   7.636
  739POPC   NC313187  39.405  32.363   9.740
  739POPC   PO413188  39.145  31.770   9.745
  739POPC   GL113189  39.138  32.111   9.375
  739POPC   GL213190  38.866  32.057   9.128
  739POPC   C1A13191  39.309  32.235   8.931
  739POPC   D2A13192  39.218  32.404   8.493
  739POPC   C3A13193  39.381  32.255   8.056
  739POPC   C4A13194  39.243  32.197   7.619
  739POPC   C1B13195  38.885  31.991   8.677
  739POPC   C2B13196  38.995  31.969   8.233
  739POPC   C3B13197  38.744  31.988   7.839
  739POPC   C4B13198  38.892  31.874   7.421
  740POPC   NC313199  19.623   6.388   9.367
  740POPC   PO413200  20.008   6.848   9.644
  740POPC   GL113201  19.958   6.759   9.211
  740POPC   GL213202  20.126   6.456   9.138
  740POPC   C1A13203  19.761   6.722   8.807
  740POPC   D2A13204  19.559   7.002   8.558
  740POPC   C3A13205  19.605   6.890   8.126
  740POPC   C4A13206  19.468   6.951   7.708
  740POPC   C1B13207  20.276   6.697   8.787
  740POPC   C2B13208  20.090   6.742   8.382
  740POPC   C3B13209  20.149   6.518   8.002
  740POPC   C4B13210  20.101   6.215   7.704
  741POPC   NC313211  17.478  22.329   9.615
  741POPC   PO413212  17.109  21.734   9.611
  741POPC   GL113213  17.433  21.965   9.258
  741POPC   GL213214  17.559  22.312   9.129
  741POPC   C1A13215  17.503  21.961   8.775
  741POPC   D2A13216  17.260  21.985   8.372
  741POPC   C3A13217  17.425  22.137   7.975
  741POPC   C4A13218  17.362  22.071   7.555
  741POPC   C1B13219  17.404  22.484   8.735
  741POPC   C2B13220  17.276  22.524   8.301
  741POPC   C3B13221  17.472  22.639   7.933
  741POPC   C4B13222  17.715  22.438   7.622
  742POPC   NC313223  29.594   8.238   9.460
  742POPC   PO413224  29.050   8.618   9.549
  742POPC   GL113225  29.071   8.235   9.248
  742POPC   GL213226  28.721   8.183   9.118
  742POPC   C1A13227  29.159   8.038   8.819
  742POPC   D2A13228  29.059   7.955   8.358
  742POPC   C3A13229  29.420   8.021   8.110
  742POPC   C4A13230  29.547   8.135   7.700
  742POPC   C1B13231  28.930   8.495   8.826
  742POPC   C2B13232  28.814   8.415   8.417
  742POPC   C3B13233  29.002   8.389   8.019
  742POPC   C4B13234  28.929   8.650   7.677
  743POPC   NC313235   9.537  18.376   9.469
  743POPC   PO413236  10.172  18.055   9.436
  743POPC   GL113237   9.880  18.307   9.119
  743POPC   GL213238   9.607  18.092   8.987
  743POPC   C1A13239   9.850  18.662   8.785
  743POPC   D2A13240   9.804  18.917   8.386
  743POPC   C3A13241   9.582  18.657   8.058
  743POPC   C4A13242   9.768  18.274   7.915
  743POPC   C1B13243   9.974  18.175   8.660
  743POPC   C2B13244  10.215  18.070   8.307
  743POPC   C3B13245   9.930  17.832   8.094
  743POPC   C4B13246   9.664  17.809   7.744
  744POPC   NC313247  28.824  41.531   9.229
  744POPC   PO413248  29.420  41.461   9.413
  744POPC   GL113249  29.238  41.200   9.085
  744POPC   GL213250  28.897  41.054   9.078
  744POPC   C1A13251  29.434  41.035   8.713
  744POPC   D2A13252  29.387  41.295   8.362
  744POPC   C3A13253  29.579  41.336   7.983
  744POPC   C4A13254  29.664  41.739   7.838
  744POPC   C1B13255  28.901  41.174   8.634
  744POPC   C2B13256  28.957  41.576   8.408
  744POPC   C3B13257  29.175  41.727   8.046
  744POPC   C4B13258  29.136  41.448   7.736
  745POPC   NC313259  42.524  11.595   9.449
  745POPC   PO413260  42.336  10.965   9.454
  745POPC   GL113261  42.183  11.075   9.105
  745POPC   GL213262  41.891  10.907   9.081
  745POPC   C1A13263  42.167  11.413   8.827
  745POPC   D2A13264  42.184  11.547   8.405
  745POPC   C3A13265  42.520  11.383   8.152
  745POPC   C4A13266  42.534  11.247   7.726
  745POPC   C1B13267  41.913  10.979   8.666
  745POPC   C2B13268  42.001  10.829   8.310
  745POPC   C3B13269  42.109  11.086   7.985
  745POPC   C4B13270  42.024  11.178   7.575
  746POPC   NC313271   7.302  33.376   9.614
  746POPC   PO413272   7.514  32.765   9.499
  746POPC   GL113273   7.606  33.000   9.118
  746POPC   GL213274   7.266  33.015   9.069
  746POPC   C1A13275   7.541  32.958   8.643
  746POPC   D2A13276   7.383  33.128   8.239
  746POPC   C3A13277   7.691  33.127   7.873
  746POPC   C4A13278   7.764  33.071   7.427
  746POPC   C1B13279   7.093  33.252   8.711
  746POPC   C2B13280   6.914  33.402   8.350
  746POPC   C3B13281   6.994  33.357   7.918
  746POPC   C4B13282   7.207  33.100   7.687
  747POPC   NC313283  22.236  16.314   9.550
  747POPC   PO413284  22.064  15.612   9.535
  747POPC   GL113285  22.251  15.919   9.209
  747POPC   GL213286  22.065  16.215   9.074
  747POPC   C1A13287  22.484  16.061   8.820
  747POPC   D2A13288  22.562  15.961   8.382
  747POPC   C3A13289  22.347  16.087   7.987
  747POPC   C4A13290  22.126  16.177   7.588
  747POPC   C1B13291  21.999  15.873   8.755
  747POPC   C2B13292  22.036  15.881   8.326
  747POPC   C3B13293  21.831  16.061   7.977
  747POPC   C4B13294  21.704  15.910   7.569
  748POPC   NC313295   6.285  43.540   9.447
  748POPC   PO413296   5.639  43.731   9.644
  748POPC   GL113297   5.684  43.809   9.216
  748POPC   GL213298   6.009  43.821   9.108
  748POPC   C1A13299   5.617  43.967   8.824
  748POPC   D2A13300   5.826  43.994   8.462
  748POPC   C3A13301   5.520  43.835   8.184
  748POPC   C4A13302   5.806  43.834   7.834
  748POPC   C1B13303   6.195  43.610   8.760
  748POPC   C2B13304   6.349  43.841   8.420
  748POPC   C3B13305   6.324  43.853   7.994
  748POPC   C4B13306   6.211  43.482   7.819
  749POPC   NC313307   6.080   5.870   9.804
  749POPC   PO413308   6.200   5.583   9.452
  749POPC   GL113309   5.996   5.671   9.021
  749POPC   GL213310   5.879   6.010   9.072
  749POPC   C1A13311   5.865   5.524   8.579
  749POPC   D2A13312   5.830   5.374   8.137
  749POPC   C3A13313   5.712   5.620   7.752
  749POPC   C4A13314   5.376   5.856   7.524
  749POPC   C1B13315   5.908   6.033   8.621
  749POPC   C2B13316   5.671   5.919   8.262
  749POPC   C3B13317   5.727   6.112   7.882
  749POPC   C4B13318   6.098   6.011   7.605
  750POPC   NC313319  40.946  11.281   9.414
  750POPC   PO413320  40.412  10.895   9.423
  750POPC   GL113321  40.576  11.088   9.092
  750POPC   GL213322  40.533  11.446   9.118
  750POPC   C1A13323  40.469  11.123   8.675
  750POPC   D2A13324  40.774  11.083   8.413
  750POPC   C3A13325  40.829  11.251   8.050
  750POPC   C4A13326  40.710  11.063   7.698
  750POPC   C1B13327  40.721  11.663   8.740
  750POPC   C2B13328  41.014  11.593   8.416
  750POPC   C3B13329  41.008  11.721   7.986
  750POPC   C4B13330  40.775  11.566   7.639
  751POPC   NC313331  37.921  28.473   9.771
  751POPC   PO413332  37.608  27.967   9.503
  751POPC   GL113333  37.778  28.160   9.154
  751POPC   GL213334  37.770  28.499   9.240
  751POPC   C1A13335  37.843  28.069   8.708
  751POPC   D2A13336  37.962  28.215   8.273
  751POPC   C3A13337  37.656  28.295   7.939
  751POPC   C4A13338  37.547  28.197   7.508
  751POPC   C1B13339  37.836  28.587   8.784
  751POPC   C2B13340  37.732  28.737   8.350
  751POPC   C3B13341  37.984  28.692   7.983
  751POPC   C4B13342  37.965  28.673   7.535
  752POPC   NC313343  21.034  41.624   9.848
  752POPC   PO413344  21.617  41.296   9.663
  752POPC   GL113345  21.364  41.645   9.409
  752POPC   GL213346  21.609  41.638   9.204
  752POPC   C1A13347  21.185  41.613   8.948
  752POPC   D2A13348  21.272  41.666   8.506
  752POPC   C3A13349  21.207  41.708   8.078
  752POPC   C4A13350  21.032  41.621   7.698
  752POPC   C1B13351  21.687  41.403   8.821
  752POPC   C2B13352  21.666  41.340   8.382
  752POPC   C3B13353  21.653  41.465   7.929
  752POPC   C4B13354  21.680  41.443   7.439
  753POPC   NC313355  41.988  15.959   9.359
  753POPC   PO413356  41.416  15.711   9.527
  753POPC   GL113357  41.520  15.985   9.148
  753POPC   GL213358  41.416  16.325   9.162
  753POPC   C1A13359  41.798  15.944   8.753
  753POPC   D2A13360  41.890  15.837   8.345
  753POPC   C3A13361  41.675  15.548   8.093
  753POPC   C4A13362  41.490  15.694   7.700
  753POPC   C1B13363  41.563  16.390   8.773
  753POPC   C2B13364  41.415  16.177   8.429
  753POPC   C3B13365  41.569  16.080   8.034
  753POPC   C4B13366  41.488  16.200   7.630
  754POPC   NC313367  24.968  26.076   9.525
  754POPC   PO413368  25.580  25.897   9.485
  754POPC   GL113369  25.366  26.183   9.215
  754POPC   GL213370  25.182  25.905   9.057
  754POPC   C1A13371  25.208  26.367   8.823
  754POPC   D2A13372  25.104  26.079   8.497
  754POPC   C3A13373  25.357  26.024   8.122
  754POPC   C4A13374  25.289  26.244   7.731
  754POPC   C1B13375  24.795  25.784   8.830
  754POPC   C2B13376  24.633  25.882   8.414
  754POPC   C3B13377  24.842  26.015   8.024
  754POPC   C4B13378  25.049  25.779   7.696
  755POPC   NC313379  44.582   9.075   9.652
  755POPC   PO413380   0.193   8.811   9.587
  755POPC   GL113381  44.853   8.891   9.246
  755POPC   GL213382  44.537   9.131   9.157
  755POPC   C1A13383  44.760   8.871   8.787
  755POPC   D2A13384  44.951   9.068   8.442
  755POPC   C3A13385  44.874   8.927   8.067
  755POPC   C4A13386   0.082   9.046   7.681
  755POPC   C1B13387  44.286   9.092   8.751
  755POPC   C2B13388  44.206   8.943   8.327
  755POPC   C3B13389  44.370   8.762   7.935
  755POPC   C4B13390  44.561   9.103   7.718
  756POPC   NC313391  28.268  34.872   9.634
  756POPC   PO413392  28.092  34.243   9.541
  756POPC   GL113393  28.318  34.515   9.218
  756POPC   GL213394  28.307  34.854   9.142
  756POPC   C1A13395  28.430  34.430   8.796
  756POPC   D2A13396  28.655  34.525   8.418
  756POPC   C3A13397  28.503  34.501   8.001
  756POPC   C4A13398  28.367  34.224   7.666
  756POPC   C1B13399  28.032  34.791   8.816
  756POPC   C2B13400  28.161  34.667   8.411
  756POPC   C3B13401  28.096  34.822   8.017
  756POPC   C4B13402  28.230  34.797   7.601
  757POPC   NC313403  10.021   9.925   9.553
  757POPC   PO413404   9.411   9.645   9.520
  757POPC   GL113405   9.581   9.794   9.190
  757POPC   GL213406   9.913   9.699   9.122
  757POPC   C1A13407   9.581   9.893   8.776
  757POPC   D2A13408   9.334  10.045   8.475
  757POPC   C3A13409   9.624  10.004   8.162
  757POPC   C4A13410   9.850   9.789   7.848
  757POPC   C1B13411  10.092   9.854   8.718
  757POPC   C2B13412  10.156  10.018   8.278
  757POPC   C3B13413  10.014  10.292   7.933
  757POPC   C4B13414   9.992  10.183   7.462
  758POPC   NC313415  36.549   0.462   9.241
  758POPC   PO413416  36.132   0.205   9.677
  758POPC   GL113417  36.062   0.278   9.187
  758POPC   GL213418  36.024   0.616   9.116
  758POPC   C1A13419  36.166   0.427   8.695
  758POPC   D2A13420  36.257   0.233   8.324
  758POPC   C3A13421  36.051   0.412   8.014
  758POPC   C4A13422  36.133   0.486   7.617
  758POPC   C1B13423  35.815   0.840   8.740
  758POPC   C2B13424  35.895   0.860   8.306
  758POPC   C3B13425  35.911   0.883   7.867
  758POPC   C4B13426  35.656   0.641   7.622
  759POPC   NC313427   8.471  16.032   9.612
  759POPC   PO413428   7.788  16.289   9.533
  759POPC   GL113429   7.996  16.129   9.151
  759POPC   GL213430   8.295  16.078   9.152
  759POPC   C1A13431   8.119  15.915   8.707
  759POPC   D2A13432   8.106  15.696   8.279
  759POPC   C3A13433   8.099  15.948   7.887
  759POPC   C4A13434   8.282  15.892   7.472
  759POPC   C1B13435   8.523  16.249   8.826
  759POPC   C2B13436   8.412  16.402   8.439
  759POPC   C3B13437   8.613  16.449   8.075
  759POPC   C4B13438   8.504  16.293   7.710
  760POPC   NC313439   9.738   2.852   9.638
  760POPC   PO413440   9.324   2.370   9.619
  760POPC   GL113441   9.673   2.488   9.257
  760POPC   GL213442   9.856   2.821   9.129
  760POPC   C1A13443   9.688   2.502   8.785
  760POPC   D2A13444   9.526   2.641   8.380
  760POPC   C3A13445   9.678   2.593   7.963
  760POPC   C4A13446   9.520   2.720   7.552
  760POPC   C1B13447   9.793   2.993   8.671
  760POPC   C2B13448   9.774   3.064   8.199
  760POPC   C3B13449   9.759   3.124   7.724
  760POPC   C4B13450   9.674   3.151   7.248
  761POPC   NC313451  40.948  30.564   9.549
  761POPC   PO413452  40.414  30.934   9.566
  761POPC   GL113453  40.673  30.738   9.167
  761POPC   GL213454  40.923  30.408   9.084
  761POPC   C1A13455  40.915  30.794   8.782
  761POPC   D2A13456  40.696  30.706   8.434
  761POPC   C3A13457  40.792  30.814   8.044
  761POPC   C4A13458  40.906  31.173   7.796
  761POPC   C1B13459  40.568  30.367   8.816
  761POPC   C2B13460  40.351  30.285   8.449
  761POPC   C3B13461  40.575  30.342   8.096
  761POPC   C4B13462  40.496  30.530   7.738
  762POPC   NC313463  32.501   5.215   9.449
  762POPC   PO413464  31.786   5.204   9.512
  762POPC   GL113465  32.057   5.136   9.183
  762POPC   GL213466  32.130   4.820   9.317
  762POPC   C1A13467  32.260   5.187   8.793
  762POPC   D2A13468  32.443   5.311   8.399
  762POPC   C3A13469  32.423   5.120   8.024
  762POPC   C4A13470  32.375   5.278   7.650
  762POPC   C1B13471  32.102   4.698   8.874
  762POPC   C2B13472  32.254   4.811   8.438
  762POPC   C3B13473  32.124   4.677   8.029
  762POPC   C4B13474  32.136   4.816   7.610
  763POPC   NC313475   7.580   8.845   9.596
  763POPC   PO413476   8.328   8.997   9.552
  763POPC   GL113477   8.035   8.828   9.269
  763POPC   GL213478   8.299   8.620   9.103
  763POPC   C1A13479   7.962   9.046   8.888
  763POPC   D2A13480   8.074   9.341   8.590
  763POPC   C3A13481   8.154   9.283   8.138
  763POPC   C4A13482   7.966   9.216   7.699
  763POPC   C1B13483   7.954   8.551   8.788
  763POPC   C2B13484   7.991   8.822   8.422
  763POPC   C3B13485   8.051   8.795   7.997
  763POPC   C4B13486   7.832   8.596   7.702
  764POPC   NC313487  28.104   5.260   9.773
  764POPC   PO413488  28.705   4.991   9.557
  764POPC   GL113489  28.499   5.168   9.204
  764POPC   GL213490  28.173   5.200   9.177
  764POPC   C1A13491  28.569   5.144   8.774
  764POPC   D2A13492  28.436   5.253   8.360
  764POPC   C3A13493  28.482   5.032   7.972
  764POPC   C4A13494  28.451   5.237   7.538
  764POPC   C1B13495  28.098   5.329   8.748
  764POPC   C2B13496  27.945   5.138   8.343
  764POPC   C3B13497  28.030   5.349   7.940
  764POPC   C4B13498  27.963   5.388   7.477
  765POPC   NC313499  30.539  20.163   9.560
  765POPC   PO413500  31.039  19.771   9.466
  765POPC   GL113501  30.648  19.789   9.222
  765POPC   GL213502  30.721  19.468   9.144
  765POPC   C1A13503  30.574  19.845   8.771
  765POPC   D2A13504  30.974  19.922   8.511
  765POPC   C3A13505  30.935  19.866   8.060
  765POPC   C4A13506  30.897  20.065   7.642
  765POPC   C1B13507  30.879  19.436   8.745
  765POPC   C2B13508  30.665  19.530   8.351
  765POPC   C3B13509  30.687  19.414   7.909
  765POPC   C4B13510  30.337  19.300   7.613
  766POPC   NC313511  38.092  25.274   9.535
  766POPC   PO413512  38.719  25.057   9.225
  766POPC   GL113513  38.395  25.338   9.136
  766POPC   GL213514  38.162  25.115   9.058
  766POPC   C1A13515  38.368  25.628   8.819
  766POPC   D2A13516  38.206  25.657   8.402
  766POPC   C3A13517  38.421  25.468   8.059
  766POPC   C4A13518  38.804  25.279   7.852
  766POPC   C1B13519  38.367  25.158   8.625
  766POPC   C2B13520  38.544  24.974   8.231
  766POPC   C3B13521  38.350  25.009   7.824
  766POPC   C4B13522  37.963  25.055   7.593
  767POPC   NC313523  14.761  18.205   9.664
  767POPC   PO413524  14.217  18.722   9.539
  767POPC   GL113525  14.199  18.469   9.161
  767POPC   GL213526  14.233  18.112   9.278
  767POPC   C1A13527  14.315  18.614   8.712
  767POPC   D2A13528  14.578  18.694   8.317
  767POPC   C3A13529  14.534  18.543   7.888
  767POPC   C4A13530  14.570  18.435   7.464
  767POPC   C1B13531  14.247  18.103   8.821
  767POPC   C2B13532  14.225  18.211   8.380
  767POPC   C3B13533  14.343  18.074   7.971
  767POPC   C4B13534  14.138  18.107   7.589
  768POPC   NC313535  21.375  33.358   9.404
  768POPC   PO413536  21.135  32.717   9.521
  768POPC   GL113537  21.277  32.894   9.167
  768POPC   GL213538  21.462  32.655   9.083
  768POPC   C1A13539  21.202  33.064   8.769
  768POPC   D2A13540  21.157  33.356   8.421
  768POPC   C3A13541  21.331  33.189   8.060
  768POPC   C4A13542  21.647  33.208   7.756
  768POPC   C1B13543  21.680  32.806   8.757
  768POPC   C2B13544  21.493  32.843   8.381
  768POPC   C3B13545  21.599  32.744   7.981
  768POPC   C4B13546  21.908  32.746   7.642
  769POPC   NC313547   1.519  22.124   9.554
  769POPC   PO413548   2.155  22.195   9.470
  769POPC   GL113549   2.009  22.354   9.109
  769POPC   GL213550   1.663  22.359   9.117
  769POPC   C1A13551   1.954  22.416   8.697
  769POPC   D2A13552   2.011  22.126   8.390
  769POPC   C3A13553   2.009  22.288   8.007
  769POPC   C4A13554   1.904  22.335   7.624
  769POPC   C1B13555   1.717  21.976   8.879
  769POPC   C2B13556   1.584  21.832   8.475
  769POPC   C3B13557   1.621  21.951   8.054
  769POPC   C4B13558   1.585  21.869   7.629
  770POPC   NC313559  41.764  14.391   9.681
  770POPC   PO413560  41.383  13.980   9.279
  770POPC   GL113561  41.484  14.109   8.889
  770POPC   GL213562  41.689  14.439   8.921
  770POPC   C1A13563  41.333  14.335   8.566
  770POPC   D2A13564  41.534  14.702   8.452
  770POPC   C3A13565  41.712  14.539   8.077
  770POPC   C4A13566  41.459  14.203   7.822
  770POPC   C1B13567  41.970  14.459   8.583
  770POPC   C2B13568  42.129  14.255   8.210
  770POPC   C3B13569  41.967  14.173   7.794
  770POPC   C4B13570  41.784  14.011   7.426
  771POPC   NC313571  14.655  18.924   9.660
  771POPC   PO413572  14.397  19.444   9.552
  771POPC   GL113573  14.438  19.137   9.202
  771POPC   GL213574  14.145  18.964   9.071
  771POPC   C1A13575  14.510  19.103   8.748
  771POPC   D2A13576  14.272  19.089   8.381
  771POPC   C3A13577  14.500  19.260   8.053
  771POPC   C4A13578  14.742  19.033   7.741
  771POPC   C1B13579  14.020  19.283   8.784
  771POPC   C2B13580  13.816  19.309   8.390
  771POPC   C3B13581  13.901  19.083   8.031
  771POPC   C4B13582  14.232  18.937   7.772
  772POPC   NC313583  20.816  12.891   9.503
  772POPC   PO413584  20.367  12.493   9.746
  772POPC   GL113585  20.432  12.651   9.261
  772POPC   GL213586  20.257  12.958   9.131
  772POPC   C1A13587  20.695  12.851   8.876
  772POPC   D2A13588  20.732  13.105   8.469
  772POPC   C3A13589  20.925  12.935   8.124
  772POPC   C4A13590  21.110  13.139   7.798
  772POPC   C1B13591  20.238  12.912   8.691
  772POPC   C2B13592  20.263  13.001   8.273
  772POPC   C3B13593  20.467  12.889   7.929
  772POPC   C4B13594  20.273  12.897   7.570
  773POPC   NC313595   1.971  43.892   9.583
  773POPC   PO413596   2.581  43.785   9.411
  773POPC   GL113597   2.191  43.831   9.135
  773POPC   GL213598   1.862  44.054   9.131
  773POPC   C1A13599   2.148  44.003   8.723
  773POPC   D2A13600   2.188  44.159   8.328
  773POPC   C3A13601   1.933  43.896   8.057
  773POPC   C4A13602   2.040  43.761   7.634
  773POPC   C1B13603   1.694  43.780   8.819
  773POPC   C2B13604   1.485  43.692   8.429
  773POPC   C3B13605   1.573  43.487   8.044
  773POPC   C4B13606   1.557  43.699   7.686
  774POPC   NC313607   2.949  30.287   9.596
  774POPC   PO413608   2.650  29.664   9.686
  774POPC   GL113609   2.886  29.830   9.295
  774POPC   GL213610   2.738  30.126   9.150
  774POPC   C1A13611   3.073  29.885   8.835
  774POPC   D2A13612   2.941  30.021   8.376
  774POPC   C3A13613   2.793  29.861   7.964
  774POPC   C4A13614   2.983  29.506   7.798
  774POPC   C1B13615   2.720  30.295   8.743
  774POPC   C2B13616   2.746  30.501   8.340
  774POPC   C3B13617   2.580  30.357   7.958
  774POPC   C4B13618   2.695  30.194   7.567
  775POPC   NC313619   2.776  24.793   9.391
  775POPC   PO413620   2.747  25.403   9.496
  775POPC   GL113621   2.518  25.170   9.127
  775POPC   GL213622   2.473  24.816   8.992
  775POPC   C1A13623   2.479  25.199   8.673
  775POPC   D2A13624   2.505  25.502   8.355
  775POPC   C3A13625   2.440  25.309   7.959
  775POPC   C4A13626   2.687  25.290   7.602
  775POPC   C1B13627   2.868  24.857   8.733
  775POPC   C2B13628   3.036  24.768   8.296
  775POPC   C3B13629   3.020  24.939   7.842
  775POPC   C4B13630   2.962  24.943   7.380
  776POPC   NC313631  36.443   4.425   9.442
  776POPC   PO413632  35.849   4.038   9.394
  776POPC   GL113633  36.195   4.139   9.112
  776POPC   GL213634  36.222   4.465   8.992
  776POPC   C1A13635  36.487   4.079   8.759
  776POPC   D2A13636  36.215   4.225   8.445
  776POPC   C3A13637  36.077   4.173   8.037
  776POPC   C4A13638  36.466   4.130   7.857
  776POPC   C1B13639  35.916   4.512   8.736
  776POPC   C2B13640  36.082   4.712   8.364
  776POPC   C3B13641  36.405   4.612   8.104
  776POPC   C4B13642  36.174   4.566   7.734
  777POPC   NC313643  18.633  43.459   9.612
  777POPC   PO413644  18.047  43.160   9.758
  777POPC   GL113645  18.072  43.348   9.250
  777POPC   GL213646  18.045  43.041   9.124
  777POPC   C1A13647  18.205  43.363   8.772
  777POPC   D2A13648  18.469  43.162   8.446
  777POPC   C3A13649  18.499  43.293   8.050
  777POPC   C4A13650  18.161  43.418   7.796
  777POPC   C1B13651  18.338  42.869   8.831
  777POPC   C2B13652  18.284  42.673   8.484
  777POPC   C3B13653  18.159  42.775   8.104
  777POPC   C4B13654  18.448  42.849   7.800
  778POPC   NC313655   8.004  31.731   9.472
  778POPC   PO413656   8.490  31.266   9.496
  778POPC   GL113657   8.275  31.415   9.146
  778POPC   GL213658   8.257  31.731   9.018
  778POPC   C1A13659   8.137  31.328   8.725
  778POPC   D2A13660   7.988  31.490   8.347
  778POPC   C3A13661   8.293  31.537   8.064
  778POPC   C4A13662   8.127  31.514   7.689
  778POPC   C1B13663   7.888  31.825   8.753
  778POPC   C2B13664   7.699  31.927   8.362
  778POPC   C3B13665   7.740  31.776   7.954
  778POPC   C4B13666   7.877  31.972   7.597
  779POPC   NC313667  25.492  14.731   9.283
  779POPC   PO413668  25.257  14.087   9.532
  779POPC   GL113669  25.269  14.312   9.162
  779POPC   GL213670  25.630  14.208   9.157
  779POPC   C1A13671  25.153  14.551   8.767
  779POPC   D2A13672  25.380  14.596   8.392
  779POPC   C3A13673  25.203  14.488   8.001
  779POPC   C4A13674  24.909  14.673   7.771
  779POPC   C1B13675  25.560  14.252   8.729
  779POPC   C2B13676  25.669  14.167   8.304
  779POPC   C3B13677  25.756  14.035   7.875
  779POPC   C4B13678  25.458  13.898   7.546
  780POPC   NC313679  14.918  11.173   9.519
  780POPC   PO413680  15.488  11.611   9.496
  780POPC   GL113681  15.255  11.336   9.181
  780POPC   GL213682  15.384  11.074   9.017
  780POPC   C1A13683  15.103  11.414   8.753
  780POPC   D2A13684  15.099  11.724   8.399
  780POPC   C3A13685  15.288  11.559   8.006
  780POPC   C4A13686  15.249  11.538   7.544
  780POPC   C1B13687  15.354  10.902   8.618
  780POPC   C2B13688  15.105  10.993   8.240
  780POPC   C3B13689  15.135  11.067   7.793
  780POPC   C4B13690  15.358  11.057   7.395
  781POPC   NC313691  21.783   8.624   9.539
  781POPC   PO413692  21.100   8.718   9.503
  781POPC   GL113693  21.284   8.769   9.109
  781POPC   GL213694  21.638   8.697   9.012
  781POPC   C1A13695  21.165   8.779   8.687
  781POPC   D2A13696  21.160   9.016   8.271
  781POPC   C3A13697  21.199   8.854   7.838
  781POPC   C4A13698  20.930   8.867   7.462
  781POPC   C1B13699  21.612   9.039   8.663
  781POPC   C2B13700  21.597   9.281   8.236
  781POPC   C3B13701  21.570   9.246   7.761
  781POPC   C4B13702  21.788   8.956   7.434
  782POPC   NC313703  23.750  24.934   9.562
  782POPC   PO413704  23.648  25.627   9.508
  782POPC   GL113705  23.860  25.335   9.257
  782POPC   GL213706  23.561  25.216   9.135
  782POPC   C1A13707  24.000  25.141   8.877
  782POPC   D2A13708  24.063  25.347   8.482
  782POPC   C3A13709  23.948  25.201   8.080
  782POPC   C4A13710  23.971  25.489   7.719
  782POPC   C1B13711  23.541  25.342   8.720
  782POPC   C2B13712  23.481  25.242   8.312
  782POPC   C3B13713  23.530  25.468   7.941
  782POPC   C4B13714  23.571  25.139   7.662
  783POPC   NC313715   9.248  20.093   9.542
  783POPC   PO413716   8.557  20.165   9.435
  783POPC   GL113717   8.834  19.985   9.162
  783POPC   GL213718   8.962  19.704   9.298
  783POPC   C1A13719   9.113  20.101   8.847
  783POPC   D2A13720   9.071  20.220   8.428
  783POPC   C3A13721   9.158  19.920   8.107
  783POPC   C4A13722   9.323  19.879   7.696
  783POPC   C1B13723   9.040  19.603   8.851
  783POPC   C2B13724   9.080  19.356   8.494
  783POPC   C3B13725   8.936  19.440   8.083
  783POPC   C4B13726   9.232  19.380   7.724
  784POPC   NC313727  28.173  10.122   9.566
  784POPC   PO413728  28.513  10.687   9.540
  784POPC   GL113729  28.543  10.460   9.174
  784POPC   GL213730  28.482  10.093   9.150
  784POPC   C1A13731  28.656  10.557   8.744
  784POPC   D2A13732  28.363  10.843   8.540
  784POPC   C3A13733  28.250  10.808   8.120
  784POPC   C4A13734  28.441  10.618   7.805
  784POPC   C1B13735  28.232  10.296   8.800
  784POPC   C2B13736  28.371  10.327   8.361
  784POPC   C3B13737  28.103  10.301   7.995
  784POPC   C4B13738  28.179  10.303   7.502
  785POPC   NC313739  31.518   3.921   9.534
  785POPC   PO413740  31.236   4.527   9.709
  785POPC   GL113741  31.271   4.327   9.284
  785POPC   GL213742  31.604   4.237   9.132
  785POPC   C1A13743  31.202   4.412   8.838
  785POPC   D2A13744  31.247   4.377   8.389
  785POPC   C3A13745  31.662   4.328   8.159
  785POPC   C4A13746  31.698   4.553   7.766
  785POPC   C1B13747  31.740   4.178   8.685
  785POPC   C2B13748  31.955   3.885   8.390
  785POPC   C3B13749  31.801   3.832   8.007
  785POPC   C4B13750  31.661   4.036   7.666
  786POPC   NC313751  10.409  21.700   9.508
  786POPC   PO413752  10.827  22.121   9.809
  786POPC   GL113753  10.834  21.953   9.330
  786POPC   GL213754  10.532  22.091   9.134
  786POPC   C1A13755  10.908  21.909   8.854
  786POPC   D2A13756  10.650  22.003   8.482
  786POPC   C3A13757  10.701  22.109   8.041
  786POPC   C4A13758  10.497  22.243   7.665
  786POPC   C1B13759  10.315  22.271   8.755
  786POPC   C2B13760  10.235  22.288   8.290
  786POPC   C3B13761  10.281  22.594   7.929
  786POPC   C4B13762  10.231  22.596   7.412
  787POPC   NC313763  33.692  36.107   9.745
  787POPC   PO413764  34.273  36.362   9.491
  787POPC   GL113765  33.889  36.198   9.261
  787POPC   GL213766  33.643  35.919   9.234
  787POPC   C1A13767  33.794  36.246   8.830
  787POPC   D2A13768  33.911  36.442   8.406
  787POPC   C3A13769  33.620  36.261   8.167
  787POPC   C4A13770  33.609  36.126   7.757
  787POPC   C1B13771  33.977  35.780   8.925
  787POPC   C2B13772  34.052  35.932   8.526
  787POPC   C3B13773  33.914  35.832   8.139
  787POPC   C4B13774  33.998  35.766   7.736
  788POPC   NC313775  42.270  21.813   9.400
  788POPC   PO413776  42.110  22.505   9.552
  788POPC   GL113777  42.099  22.253   9.224
  788POPC   GL213778  42.397  22.300   9.129
  788POPC   C1A13779  41.998  22.155   8.803
  788POPC   D2A13780  41.990  22.351   8.438
  788POPC   C3A13781  42.158  22.123   8.130
  788POPC   C4A13782  42.219  22.445   7.855
  788POPC   C1B13783  42.508  22.081   8.820
  788POPC   C2B13784  42.508  22.256   8.472
  788POPC   C3B13785  42.712  22.131   8.159
  788POPC   C4B13786  42.573  22.088   7.765
  789POPC   NC313787  38.620  26.170   9.703
  789POPC   PO413788  38.182  25.734   9.542
  789POPC   GL113789  38.431  25.949   9.207
  789POPC   GL213790  38.629  26.260   9.201
  789POPC   C1A13791  38.392  26.157   8.773
  789POPC   D2A13792  38.129  26.165   8.416
  789POPC   C3A13793  38.325  26.037   8.058
  789POPC   C4A13794  38.404  26.241   7.696
  789POPC   C1B13795  38.831  26.436   8.825
  789POPC   C2B13796  38.752  26.400   8.415
  789POPC   C3B13797  38.816  26.233   8.018
  789POPC   C4B13798  38.900  26.405   7.611
  790POPC   NC313799  17.740  12.005   9.350
  790POPC   PO413800  17.070  11.983   9.458
  790POPC   GL113801  17.331  11.914   9.085
  790POPC   GL213802  17.501  12.225   8.974
  790POPC   C1A13803  17.467  11.857   8.659
  790POPC   D2A13804  17.457  12.066   8.266
  790POPC   C3A13805  17.635  11.825   7.898
  790POPC   C4A13806  17.752  11.970   7.486
  790POPC   C1B13807  17.813  12.247   8.675
  790POPC   C2B13808  17.809  12.430   8.297
  790POPC   C3B13809  17.918  12.249   7.935
  790POPC   C4B13810  18.078  12.388   7.555
  791POPC   NC313811  33.243   0.155   9.395
  791POPC   PO413812  33.095  44.416   9.514
  791POPC   GL113813  33.084  44.528   9.101
  791POPC   GL213814  33.092  44.860   9.021
  791POPC   C1A13815  32.862  44.452   8.732
  791POPC   D2A13816  33.028  44.351   8.327
  791POPC   C3A13817  32.781  44.383   7.960
  791POPC   C4A13818  32.797  44.738   7.666
  791POPC   C1B13819  33.287  44.714   8.656
  791POPC   C2B13820  33.321  44.945   8.326
  791POPC   C3B13821  33.177  44.894   7.981
  791POPC   C4B13822  33.264  44.506   7.857
  792POPC   NC313823  38.088  35.493   9.360
  792POPC   PO413824  38.672  35.199   9.508
  792POPC   GL113825  38.502  35.325   9.124
  792POPC   GL213826  38.195  35.113   9.036
  792POPC   C1A13827  38.618  35.196   8.734
  792POPC   D2A13828  38.481  34.978   8.385
  792POPC   C3A13829  38.630  35.194   8.059
  792POPC   C4A13830  38.815  35.252   7.688
  792POPC   C1B13831  38.124  35.296   8.645
  792POPC   C2B13832  38.112  35.310   8.204
  792POPC   C3B13833  38.248  35.469   7.847
  792POPC   C4B13834  38.354  35.354   7.447
  793POPC   NC313835  20.659  36.633   9.513
  793POPC   PO413836  20.856  37.285   9.627
  793POPC   GL113837  20.700  37.156   9.241
  793POPC   GL213838  20.961  36.916   9.194
  793POPC   C1A13839  20.661  37.046   8.773
  793POPC   D2A13840  20.835  36.959   8.356
  793POPC   C3A13841  20.547  36.990   7.998
  793POPC   C4A13842  20.464  36.924   7.539
  793POPC   C1B13843  20.963  36.637   8.824
  793POPC   C2B13844  20.895  36.458   8.377
  793POPC   C3B13845  20.919  36.636   7.942
  793POPC   C4B13846  20.922  36.663   7.464
  794POPC   NC313847  20.399   5.985   9.363
  794POPC   PO413848  20.973   5.790   9.644
  794POPC   GL113849  20.824   5.716   9.243
  794POPC   GL213850  20.591   5.505   9.349
  794POPC   C1A13851  20.856   5.886   8.809
  794POPC   D2A13852  20.966   6.047   8.399
  794POPC   C3A13853  20.813   5.805   8.056
  794POPC   C4A13854  20.515   5.928   7.741
  794POPC   C1B13855  20.444   5.535   8.891
  794POPC   C2B13856  20.482   5.742   8.468
  794POPC   C3B13857  20.321   5.579   8.069
  794POPC   C4B13858  20.344   5.461   7.626
  795POPC   NC313859  35.854  42.050   9.410
  795POPC   PO413860  36.215  42.594   9.503
  795POPC   GL113861  36.161  42.388   9.135
  795POPC   GL213862  36.343  42.080   9.223
  795POPC   C1A13863  36.064  42.290   8.711
  795POPC   D2A13864  36.308  42.235   8.343
  795POPC   C3A13865  36.135  42.560   8.098
  795POPC   C4A13866  36.257  42.768   7.735
  795POPC   C1B13867  36.445  41.961   8.819
  795POPC   C2B13868  36.554  41.789   8.410
  795POPC   C3B13869  36.641  41.974   8.001
  795POPC   C4B13870  36.477  42.324   7.798
  796POPC   NC313871  42.297  13.484   9.502
  796POPC   PO413872  42.174  14.165   9.613
  796POPC   GL113873  42.327  14.054   9.181
  796POPC   GL213874  42.339  13.741   9.070
  796POPC   C1A13875  42.174  14.010   8.696
  796POPC   D2A13876  42.115  13.722   8.342
  796POPC   C3A13877  42.288  13.821   7.963
  796POPC   C4A13878  42.203  13.711   7.519
  796POPC   C1B13879  42.500  13.577   8.667
  796POPC   C2B13880  42.622  13.526   8.252
  796POPC   C3B13881  42.562  13.435   7.831
  796POPC   C4B13882  42.550  13.338   7.438
  797POPC   NC313883  26.787  10.795   9.548
  797POPC   PO413884  26.964  10.207   9.555
  797POPC   GL113885  27.034  10.493   9.192
  797POPC   GL213886  26.737  10.622   9.034
  797POPC   C1A13887  27.133  10.445   8.731
  797POPC   D2A13888  27.015  10.195   8.314
  797POPC   C3A13889  26.967  10.383   7.865
  797POPC   C4A13890  26.949  10.626   7.459
  797POPC   C1B13891  26.628  10.403   8.620
  797POPC   C2B13892  26.537  10.384   8.157
  797POPC   C3B13893  26.488  10.606   7.747
  797POPC   C4B13894  26.597  10.977   7.510
  798POPC   NC313895  39.876  33.536   9.666
  798POPC   PO413896  40.159  34.128   9.694
  798POPC   GL113897  39.803  34.002   9.395
  798POPC   GL213898  39.844  33.696   9.187
  798POPC   C1A13899  39.616  34.132   8.990
  798POPC   D2A13900  39.897  34.144   8.594
  798POPC   C3A13901  39.873  34.179   8.131
  798POPC   C4A13902  40.102  34.109   7.782
  798POPC   C1B13903  39.746  33.520   8.791
  798POPC   C2B13904  40.006  33.418   8.465
  798POPC   C3B13905  40.080  33.693   8.119
  798POPC   C4B13906  40.016  33.595   7.712
  799POPC   NC313907  38.049   5.976   9.501
  799POPC   PO413908  37.471   5.561   9.607
  799POPC   GL113909  37.685   5.692   9.232
  799POPC   GL213910  38.006   5.532   9.248
  799POPC   C1A13911  37.693   6.074   8.920
  799POPC   D2A13912  37.503   6.142   8.507
  799POPC   C3A13913  37.704   5.997   8.132
  799POPC   C4A13914  37.510   6.090   7.709
  799POPC   C1B13915  38.058   5.732   8.869
  799POPC   C2B13916  37.784   5.640   8.538
  799POPC   C3B13917  37.908   5.520   8.143
  799POPC   C4B13918  37.767   5.660   7.755
  800POPC   NC313919  10.817  17.001   9.639
  800POPC   PO413920  11.455  16.752   9.874
  800POPC   GL113921  11.479  16.734   9.314
  800POPC   GL213922  11.114  16.826   9.250
  800POPC   C1A13923  11.303  16.587   8.861
  800POPC   D2A13924  11.186  16.767   8.450
  800POPC   C3A13925  11.021  16.523   8.139
  800POPC   C4A13926  11.266  16.632   7.805
  800POPC   C1B13927  10.894  16.879   8.835
  800POPC   C2B13928  10.793  17.144   8.504
  800POPC   C3B13929  10.886  17.042   8.101
  800POPC   C4B13930  11.027  17.099   7.685
  801POPC   NC313931  13.580  38.284   9.570
  801POPC   PO413932  13.369  38.926   9.432
  801POPC   GL113933  13.327  38.541   9.172
  801POPC   GL213934  13.379  38.149   9.133
  801POPC   C1A13935  13.548  38.600   8.800
  801POPC   D2A13936  13.738  38.761   8.449
  801POPC   C3A13937  13.820  38.482   8.098
  801POPC   C4A13938  13.794  38.496   7.643
  801POPC   C1B13939  13.589  38.092   8.748
  801POPC   C2B13940  13.739  38.006   8.330
  801POPC   C3B13941  13.707  38.028   7.875
  801POPC   C4B13942  13.553  38.088   7.441
  802POPC   NC313943  38.021  37.118   9.442
  802POPC   PO413944  38.594  36.832   9.437
  802POPC   GL113945  38.283  36.837   9.089
  802POPC   GL213946  38.205  37.182   8.974
  802POPC   C1A13947  38.309  36.794   8.636
  802POPC   D2A13948  38.706  36.684   8.419
  802POPC   C3A13949  38.776  36.901   8.022
  802POPC   C4A13950  38.667  36.664   7.680
  802POPC   C1B13951  37.922  37.152   8.618
  802POPC   C2B13952  38.056  37.086   8.189
  802POPC   C3B13953  38.303  37.016   7.797
  802POPC   C4B13954  38.134  37.013   7.333
  803POPC   NC313955   9.176   7.135   9.393
  803POPC   PO413956   8.714   7.619   9.395
  803POPC   GL113957   8.900   7.660   8.995
  803POPC   GL213958   9.025   7.376   8.984
  803POPC   C1A13959   9.058   7.720   8.593
  803POPC   D2A13960   9.226   7.547   8.257
  803POPC   C3A13961   8.937   7.344   8.089
  803POPC   C4A13962   8.682   7.488   7.771
  803POPC   C1B13963   9.004   7.213   8.598
  803POPC   C2B13964   9.323   7.062   8.363
  803POPC   C3B13965   9.478   7.079   7.996
  803POPC   C4B13966   9.408   7.201   7.644
  804POPC   NC313967  11.793  20.573   9.688
  804POPC   PO413968  12.189  20.206   9.308
  804POPC   GL113969  12.247  20.513   8.969
  804POPC   GL213970  12.518  20.768   8.989
  804POPC   C1A13971  11.944  20.541   8.650
  804POPC   D2A13972  11.793  20.317   8.302
  804POPC   C3A13973  11.812  20.417   7.871
  804POPC   C4A13974  11.769  20.757   7.590
  804POPC   C1B13975  12.567  20.706   8.561
  804POPC   C2B13976  12.278  20.588   8.239
  804POPC   C3B13977  12.187  20.778   7.881
  804POPC   C4B13978  12.415  21.018   7.615
  805POPC   NC313979  38.413  17.084   9.596
  805POPC   PO413980  38.406  17.736   9.342
  805POPC   GL113981  38.384  17.332   9.104
  805POPC   GL213982  38.008  17.202   9.119
  805POPC   C1A13983  38.663  17.219   8.711
  805POPC   D2A13984  38.666  17.240   8.237
  805POPC   C3A13985  38.553  17.620   7.997
  805POPC   C4A13986  38.615  17.758   7.575
  805POPC   C1B13987  38.208  16.947   8.808
  805POPC   C2B13988  38.207  17.173   8.449
  805POPC   C3B13989  38.196  17.205   8.021
  805POPC   C4B13990  38.216  17.406   7.644
  806POPC   NC313991  22.303   5.580   9.422
  806POPC   PO413992  22.232   6.209   9.189
  806POPC   GL113993  22.093   5.822   9.019
  806POPC   GL213994  22.430   5.775   8.958
  806POPC   C1A13995  22.106   5.642   8.595
  806POPC   D2A13996  22.370   5.918   8.362
  806POPC   C3A13997  22.110   6.096   8.043
  806POPC   C4A13998  21.774   5.888   7.782
  806POPC   C1B13999  22.644   5.558   8.643
  806POPC   C2B14000  22.482   5.387   8.285
  806POPC   C3B14001  22.187   5.558   8.011
  806POPC   C4B14002  22.280   5.808   7.690
  807POPC   NC314003  11.157   3.910   9.300
  807POPC   PO414004  11.493   3.455   9.657
  807POPC   GL114005  11.451   3.487   9.192
  807POPC   GL214006  11.648   3.802   9.161
  807POPC   C1A14007  11.245   3.352   8.761
  807POPC   D2A14008  11.044   3.213   8.355
  807POPC   C3A14009  11.212   3.340   7.951
  807POPC   C4A14010  11.069   3.393   7.531
  807POPC   C1B14011  11.462   3.801   8.741
  807POPC   C2B14012  11.301   3.687   8.340
  807POPC   C3B14013  11.436   3.785   7.918
  807POPC   C4B14014  11.592   3.449   7.597
  808POPC   NC314015  36.506  34.928   9.533
  808POPC   PO414016  36.393  35.596   9.438
  808POPC   GL114017  36.421  35.263   9.134
  808POPC   GL214018  36.147  35.052   9.162
  808POPC   C1A14019  36.409  35.037   8.745
  808POPC   D2A14020  36.245  35.176   8.396
  808POPC   C3A14021  36.378  34.983   8.044
  808POPC   C4A14022  36.430  35.299   7.798
  808POPC   C1B14023  35.928  35.252   8.801
  808POPC   C2B14024  35.830  35.444   8.349
  808POPC   C3B14025  35.893  35.124   8.017
  808POPC   C4B14026  36.010  35.087   7.614
  809POPC   NC314027  41.105  18.641   9.317
  809POPC   PO414028  40.652  18.250   9.613
  809POPC   GL114029  40.678  18.273   9.174
  809POPC   GL214030  40.645  18.610   9.095
  809POPC   C1A14031  40.495  18.296   8.752
  809POPC   D2A14032  40.633  18.482   8.364
  809POPC   C3A14033  40.571  18.267   7.983
  809POPC   C4A14034  40.841  18.076   7.723
  809POPC   C1B14035  40.978  18.417   8.750
  809POPC   C2B14036  41.260  18.381   8.424
  809POPC   C3B14037  41.084  18.395   8.024
  809POPC   C4B14038  40.787  18.697   7.827
  810POPC   NC314039  28.390  36.831   9.522
  810POPC   PO414040  28.677  37.382   9.310
  810POPC   GL114041  28.455  37.032   9.074
  810POPC   GL214042  28.672  36.752   9.050
  810POPC   C1A14043  28.312  36.801   8.689
  810POPC   D2A14044  28.158  36.976   8.342
  810POPC   C3A14045  28.277  36.746   8.012
  810POPC   C4A14046  28.104  36.771   7.595
  810POPC   C1B14047  28.767  37.028   8.685
  810POPC   C2B14048  28.693  36.915   8.318
  810POPC   C3B14049  28.717  37.010   7.945
  810POPC   C4B14050  28.607  36.751   7.627
  811POPC   NC314051  32.311  37.217   9.531
  811POPC   PO414052  31.891  36.745   9.884
  811POPC   GL114053  32.148  36.730   9.390
  811POPC   GL214054  32.506  36.834   9.232
  811POPC   C1A14055  32.148  36.784   8.882
  811POPC   D2A14056  32.318  36.931   8.455
  811POPC   C3A14057  32.315  36.789   8.008
  811POPC   C4A14058  32.014  36.707   7.682
  811POPC   C1B14059  32.679  36.975   8.809
  811POPC   C2B14060  32.815  37.024   8.372
  811POPC   C3B14061  32.637  37.182   7.987
  811POPC   C4B14062  32.191  37.302   7.857
  812POPC   NC314063  38.723  19.254   9.440
  812POPC   PO414064  38.288  18.751   9.454
  812POPC   GL114065  38.363  19.063   9.110
  812POPC   GL214066  38.254  19.430   9.185
  812POPC   C1A14067  38.574  18.981   8.694
  812POPC   D2A14068  38.823  18.887   8.356
  812POPC   C3A14069  38.616  18.708   8.025
  812POPC   C4A14070  38.311  18.927   7.780
  812POPC   C1B14071  38.561  19.468   8.832
  812POPC   C2B14072  38.693  19.424   8.424
  812POPC   C3B14073  38.613  19.268   8.034
  812POPC   C4B14074  38.819  19.052   7.715
  813POPC   NC314075  15.825  29.959   9.834
  813POPC   PO414076  16.205  30.247   9.373
  813POPC   GL114077  16.052  29.883   9.145
  813POPC   GL214078  15.757  29.731   9.300
  813POPC   C1A14079  16.056  29.943   8.679
  813POPC   D2A14080  16.251  29.981   8.270
  813POPC   C3A14081  16.055  29.862   7.874
  813POPC   C4A14082  16.254  30.003   7.490
  813POPC   C1B14083  15.652  29.705   8.847
  813POPC   C2B14084  15.634  29.810   8.373
  813POPC   C3B14085  15.469  29.646   7.964
  813POPC   C4B14086  15.618  29.612   7.514
  814POPC   NC314087  39.765  17.092   9.409
  814POPC   PO414088  40.065  17.712   9.390
  814POPC   GL114089  40.158  17.538   9.016
  814POPC   GL214090  39.995  17.192   8.949
  814POPC   C1A14091  40.281  17.664   8.620
  814POPC   D2A14092  40.278  17.347   8.302
  814POPC   C3A14093  40.069  17.419   7.918
  814POPC   C4A14094  40.087  17.633   7.520
  814POPC   C1B14095  39.824  17.410   8.575
  814POPC   C2B14096  39.907  17.753   8.288
  814POPC   C3B14097  39.790  17.847   7.876
  814POPC   C4B14098  39.733  18.074   7.480
  815POPC   NC314099  40.805  40.389   9.817
  815POPC   PO414100  40.699  40.995   9.535
  815POPC   GL114101  40.764  40.868   9.123
  815POPC   GL214102  40.488  40.640   9.157
  815POPC   C1A14103  41.035  40.873   8.744
  815POPC   D2A14104  40.881  40.801   8.351
  815POPC   C3A14105  41.148  40.754   8.024
  815POPC   C4A14106  40.964  40.884   7.613
  815POPC   C1B14107  40.660  40.520   8.755
  815POPC   C2B14108  40.488  40.479   8.342
  815POPC   C3B14109  40.592  40.644   7.923
  815POPC   C4B14110  40.630  40.532   7.487
  816POPC   NC314111   9.418   0.464   9.294
  816POPC   PO414112   8.796   0.338   9.547
  816POPC   GL114113   8.968   0.235   9.146
  816POPC   GL214114   8.709   0.032   9.098
  816POPC   C1A14115   9.174   0.320   8.742
  816POPC   D2A14116   9.238   0.586   8.362
  816POPC   C3A14117   8.980   0.487   7.949
  816POPC   C4A14118   9.099   0.176   7.626
  816POPC   C1B14119   8.628   0.305   8.765
  816POPC   C2B14120   8.815   0.302   8.391
  816POPC   C3B14121   8.880  44.999   8.091
  816POPC   C4B14122   8.579   0.113   7.763
  817POPC   NC314123  15.954  11.670   9.550
  817POPC   PO414124  15.757  12.288   9.477
  817POPC   GL114125  15.730  11.957   9.179
  817POPC   GL214126  16.066  11.839   9.092
  817POPC   C1A14127  15.687  11.821   8.753
  817POPC   D2A14128  16.005  11.804   8.434
  817POPC   C3A14129  15.821  11.968   8.072
  817POPC   C4A14130  15.929  12.307   7.832
  817POPC   C1B14131  16.042  12.190   8.809
  817POPC   C2B14132  16.114  12.326   8.365
  817POPC   C3B14133  16.349  12.044   8.084
  817POPC   C4B14134  16.212  11.798   7.754
  818POPC   NC314135  10.466  43.627   9.564
  818POPC   PO414136  10.281  44.211   9.309
  818POPC   GL114137  10.518  43.908   9.102
  818POPC   GL214138  10.841  43.729   9.176
  818POPC   C1A14139  10.602  44.002   8.708
  818POPC   D2A14140  10.414  44.295   8.455
  818POPC   C3A14141  10.385  44.049   8.094
  818POPC   C4A14142  10.314  43.661   7.832
  818POPC   C1B14143  10.865  43.566   8.761
  818POPC   C2B14144  10.791  43.704   8.323
  818POPC   C3B14145  10.840  43.847   7.887
  818POPC   C4B14146  11.033  43.637   7.539
  819POPC   NC314147  13.359  16.099   9.655
  819POPC   PO414148  13.915  15.611   9.468
  819POPC   GL114149  13.670  15.876   9.118
  819POPC   GL214150  13.411  16.141   9.152
  819POPC   C1A14151  13.544  16.038   8.660
  819POPC   D2A14152  13.785  16.112   8.253
  819POPC   C3A14153  13.609  15.870   7.894
  819POPC   C4A14154  13.160  15.774   7.895
  819POPC   C1B14155  13.312  16.462   8.853
  819POPC   C2B14156  13.443  16.562   8.410
  819POPC   C3B14157  13.339  16.277   8.070
  819POPC   C4B14158  13.294  16.195   7.641
  820POPC   NC314159  28.257  27.882   9.607
  820POPC   PO414160  28.663  27.438   9.690
  820POPC   GL114161  28.379  27.521   9.255
  820POPC   GL214162  28.355  27.849   9.084
  820POPC   C1A14163  28.446  27.376   8.804
  820POPC   D2A14164  28.223  27.233   8.438
  820POPC   C3A14165  28.362  27.383   8.029
  820POPC   C4A14166  28.449  27.352   7.568
  820POPC   C1B14167  28.620  27.856   8.674
  820POPC   C2B14168  28.765  27.720   8.295
  820POPC   C3B14169  28.689  27.758   7.882
  820POPC   C4B14170  28.262  27.808   7.770
  821POPC   NC314171  36.595  23.617   9.603
  821POPC   PO414172  37.361  23.671   9.566
  821POPC   GL114173  36.942  23.631   9.245
  821POPC   GL214174  36.611  23.879   9.176
  821POPC   C1A14175  36.884  23.694   8.802
  821POPC   D2A14176  36.837  23.616   8.378
  821POPC   C3A14177  37.216  23.597   8.142
  821POPC   C4A14178  37.199  23.665   7.714
  821POPC   C1B14179  36.745  24.201   8.835
  821POPC   C2B14180  36.976  24.233   8.429
  821POPC   C3B14181  36.904  24.008   8.031
  821POPC   C4B14182  36.729  23.815   7.658
  822POPC   NC314183  11.244  16.420   9.604
  822POPC   PO414184  11.187  15.784   9.611
  822POPC   GL114185  11.142  16.059   9.216
  822POPC   GL214186  11.482  16.220   9.168
  822POPC   C1A14187  11.214  16.075   8.740
  822POPC   D2A14188  11.399  15.943   8.325
  822POPC   C3A14189  11.175  16.055   7.951
  822POPC   C4A14190  10.964  15.840   7.587
  822POPC   C1B14191  11.686  16.287   8.735
  822POPC   C2B14192  11.575  16.435   8.317
  822POPC   C3B14193  11.637  16.288   7.879
  822POPC   C4B14194  11.345  16.215   7.492
  823POPC   NC314195  29.037  31.749   9.616
  823POPC   PO414196  29.083  32.357   9.621
  823POPC   GL114197  29.038  32.325   9.173
  823POPC   GL214198  29.389  32.297   9.057
  823POPC   C1A14199  29.015  32.510   8.739
  823POPC   D2A14200  28.951  32.387   8.301
  823POPC   C3A14201  29.265  32.527   8.002
  823POPC   C4A14202  29.273  32.510   7.530
  823POPC   C1B14203  29.203  32.031   8.718
  823POPC   C2B14204  29.258  31.955   8.276
  823POPC   C3B14205  29.308  32.063   7.829
  823POPC   C4B14206  29.528  32.100   7.376
  824POPC   NC314207  12.432  29.570   9.464
  824POPC   PO414208  12.178  28.922   9.469
  824POPC   GL114209  12.033  29.196   9.133
  824POPC   GL214210  11.717  29.405   9.115
  824POPC   C1A14211  11.935  28.983   8.744
  824POPC   D2A14212  12.212  28.932   8.368
  824POPC   C3A14213  12.056  29.071   7.966
  824POPC   C4A14214  12.164  29.406   7.680
  824POPC   C1B14215  11.938  29.484   8.707
  824POPC   C2B14216  12.021  29.532   8.247
  824POPC   C3B14217  11.721  29.517   7.901
  824POPC   C4B14218  11.727  29.590   7.458
  825POPC   NC314219  23.652   4.372   9.594
  825POPC   PO414220  24.076   3.958   9.558
  825POPC   GL114221  23.892   4.150   9.177
  825POPC   GL214222  23.615   4.349   9.092
  825POPC   C1A14223  23.985   4.182   8.731
  825POPC   D2A14224  23.863   3.907   8.370
  825POPC   C3A14225  23.803   4.123   7.972
  825POPC   C4A14226  24.127   4.292   7.758
  825POPC   C1B14227  23.623   4.583   8.732
  825POPC   C2B14228  23.605   4.367   8.387
  825POPC   C3B14229  23.305   4.314   8.102
  825POPC   C4B14230  23.313   4.700   7.865
  826POPC   NC314231  29.345  32.678   9.411
  826POPC   PO414232  29.715  33.295   9.501
  826POPC   GL114233  29.487  33.458   9.148
  826POPC   GL214234  29.164  33.267   9.177
  826POPC   C1A14235  29.453  33.294   8.755
  826POPC   D2A14236  29.427  32.900   8.551
  826POPC   C3A14237  29.317  33.008   8.149
  826POPC   C4A14238  29.228  32.968   7.739
  826POPC   C1B14239  28.956  33.146   8.779
  826POPC   C2B14240  28.785  32.896   8.458
  826POPC   C3B14241  28.813  32.932   8.030
  826POPC   C4B14242  28.801  33.220   7.664
  827POPC   NC314243  22.652  17.222   9.493
  827POPC   PO414244  23.169  17.740   9.583
  827POPC   GL114245  22.974  17.746   9.198
  827POPC   GL214246  23.042  18.092   9.143
  827POPC   C1A14247  22.903  17.472   8.835
  827POPC   D2A14248  23.123  17.325   8.445
  827POPC   C3A14249  22.949  17.361   8.011
  827POPC   C4A14250  22.710  17.311   7.632
  827POPC   C1B14251  23.163  17.949   8.750
  827POPC   C2B14252  22.973  17.789   8.417
  827POPC   C3B14253  22.897  17.902   8.031
  827POPC   C4B14254  23.032  17.760   7.665
  828POPC   NC314255   8.900  44.108   9.429
  828POPC   PO414256   9.396  43.583   9.382
  828POPC   GL114257   9.161  43.861   9.056
  828POPC   GL214258   9.210  44.184   9.027
  828POPC   C1A14259   8.819  43.638   8.759
  828POPC   D2A14260   8.647  43.515   8.347
  828POPC   C3A14261   8.911  43.563   7.978
  828POPC   C4A14262   8.975  43.906   7.717
  828POPC   C1B14263   8.865  44.130   8.702
  828POPC   C2B14264   9.025  43.934   8.327
  828POPC   C3B14265   9.313  44.134   8.041
  828POPC   C4B14266   9.234  44.336   7.684
  829POPC   NC314267  37.845  34.551   9.589
  829POPC   PO414268  37.244  34.210   9.562
  829POPC   GL114269  37.420  34.410   9.149
  829POPC   GL214270  37.764  34.593   9.071
  829POPC   C1A14271  37.351  34.703   8.784
  829POPC   D2A14272  37.594  34.722   8.439
  829POPC   C3A14273  37.567  34.596   8.033
  829POPC   C4A14274  37.614  34.269   7.770
  829POPC   C1B14275  37.627  34.277   8.725
  829POPC   C2B14276  37.718  34.160   8.343
  829POPC   C3B14277  38.008  34.267   8.089
  829POPC   C4B14278  38.114  34.098   7.708
  830POPC   NC314279  35.542  20.238   9.718
  830POPC   PO414280  35.042  20.673   9.558
  830POPC   GL114281  35.280  20.623   9.189
  830POPC   GL214282  35.178  20.270   9.155
  830POPC   C1A14283  35.391  20.622   8.738
  830POPC   D2A14284  35.605  20.749   8.378
  830POPC   C3A14285  35.327  20.772   8.044
  830POPC   C4A14286  35.462  20.766   7.632
  830POPC   C1B14287  34.966  20.267   8.751
  830POPC   C2B14288  34.923  20.489   8.336
  830POPC   C3B14289  35.024  20.340   7.926
  830POPC   C4B14290  35.237  20.336   7.519
  831POPC   NC314291  13.263  27.438   9.503
  831POPC   PO414292  13.867  27.723   9.317
  831POPC   GL114293  13.628  27.676   9.004
  831POPC   GL214294  13.485  27.358   9.041
  831POPC   C1A14295  13.685  27.591   8.587
  831POPC   D2A14296  13.869  27.392   8.254
  831POPC   C3A14297  13.788  27.701   7.922
  831POPC   C4A14298  13.421  27.937   7.831
  831POPC   C1B14299  13.193  27.541   8.755
  831POPC   C2B14300  13.218  27.457   8.329
  831POPC   C3B14301  13.455  27.281   7.962
  831POPC   C4B14302  13.884  27.212   7.773
  832POPC   NC314303   4.469  17.577   9.620
  832POPC   PO414304   4.048  17.255   9.358
  832POPC   GL114305   4.205  17.590   9.148
  832POPC   GL214306   4.569  17.639   9.113
  832POPC   C1A14307   4.094  17.836   8.818
  832POPC   D2A14308   4.215  17.901   8.402
  832POPC   C3A14309   3.968  17.673   8.094
  832POPC   C4A14310   4.114  17.347   7.827
  832POPC   C1B14311   4.534  17.565   8.643
  832POPC   C2B14312   4.527  17.516   8.176
  832POPC   C3B14313   4.557  17.125   7.929
  832POPC   C4B14314   4.551  17.045   7.472
  833POPC   NC314315  13.807  30.499   9.542
  833POPC   PO414316  13.670  29.807   9.601
  833POPC   GL114317  13.701  30.056   9.211
  833POPC   GL214318  14.008  30.222   9.162
  833POPC   C1A14319  13.465  30.123   8.817
  833POPC   D2A14320  13.268  29.992   8.441
  833POPC   C3A14321  13.514  29.897   8.127
  833POPC   C4A14322  13.598  30.026   7.722
  833POPC   C1B14323  14.002  29.936   8.790
  833POPC   C2B14324  13.963  29.711   8.389
  833POPC   C3B14325  13.957  29.736   7.929
  833POPC   C4B14326  13.905  29.723   7.466
  834POPC   NC314327  25.332  34.143   9.532
  834POPC   PO414328  25.107  33.467   9.701
  834POPC   GL114329  25.204  33.531   9.231
  834POPC   GL214330  25.496  33.770   9.197
  834POPC   C1A14331  25.222  33.620   8.769
  834POPC   D2A14332  25.481  33.652   8.382
  834POPC   C3A14333  25.306  33.694   7.958
  834POPC   C4A14334  25.438  33.713   7.507
  834POPC   C1B14335  25.654  33.929   8.789
  834POPC   C2B14336  25.811  34.044   8.392
  834POPC   C3B14337  25.639  34.081   7.964
  834POPC   C4B14338  25.383  34.224   7.616
  835POPC   NC314339   0.793  25.722  10.137
  835POPC   PO414340   0.347  26.021   9.744
  835POPC   GL114341   0.443  25.994   9.278
  835POPC   GL214342   0.217  25.755   9.164
  835POPC   C1A14343   0.489  26.109   8.813
  835POPC   D2A14344   0.275  26.341   8.455
  835POPC   C3A14345   0.467  26.291   8.017
  835POPC   C4A14346   0.597  25.977   7.693
  835POPC   C1B14347   0.172  25.590   8.753
  835POPC   C2B14348   0.412  25.563   8.386
  835POPC   C3B14349   0.271  25.800   8.058
  835POPC   C4B14350   0.143  25.673   7.655
  836POPC   NC314351   1.474  26.001   9.459
  836POPC   PO414352   1.022  25.500   9.742
  836POPC   GL114353   0.984  25.755   9.302
  836POPC   GL214354   1.234  25.647   9.079
  836POPC   C1A14355   1.001  26.048   8.855
  836POPC   D2A14356   0.836  26.269   8.415
  836POPC   C3A14357   1.043  26.300   7.960
  836POPC   C4A14358   1.437  26.089   7.778
  836POPC   C1B14359   1.354  25.717   8.641
  836POPC   C2B14360   1.275  25.913   8.248
  836POPC   C3B14361   1.036  25.793   7.867
  836POPC   C4B14362   1.011  25.793   7.404
  837POPC   NC314363   9.757   3.842   9.339
  837POPC   PO414364   9.677   3.292   9.779
  837POPC   GL114365   9.727   3.307   9.298
  837POPC   GL214366  10.066   3.299   9.130
  837POPC   C1A14367   9.651   3.441   8.840
  837POPC   D2A14368   9.703   3.700   8.448
  837POPC   C3A14369   9.577   3.503   8.028
  837POPC   C4A14370   9.533   3.557   7.552
  837POPC   C1B14371  10.145   3.393   8.665
  837POPC   C2B14372  10.083   3.480   8.191
  837POPC   C3B14373  10.028   3.586   7.741
  837POPC   C4B14374  10.158   3.340   7.340
  838POPC   NC314375  30.016  31.943   9.548
  838POPC   PO414376  29.830  32.562   9.411
  838POPC   GL114377  29.936  32.236   9.116
  838POPC   GL214378  30.294  32.195   9.142
  838POPC   C1A14379  29.747  32.119   8.733
  838POPC   D2A14380  29.517  32.374   8.449
  838POPC   C3A14381  29.715  32.217   8.083
  838POPC   C4A14382  29.959  32.319   7.733
  838POPC   C1B14383  30.243  32.345   8.696
  838POPC   C2B14384  30.230  32.282   8.229
  838POPC   C3B14385  30.446  32.371   7.843
  838POPC   C4B14386  30.365  32.373   7.341
  839POPC   NC314387  30.392  16.028   9.509
  839POPC   PO414388  29.732  15.891   9.387
  839POPC   GL114389  29.815  15.710   9.022
  839POPC   GL214390  30.148  15.903   9.029
  839POPC   C1A14391  29.687  15.794   8.605
  839POPC   D2A14392  29.920  16.055   8.302
  839POPC   C3A14393  29.763  16.167   7.898
  839POPC   C4A14394  30.009  16.326   7.477
  839POPC   C1B14395  30.178  15.635   8.660
  839POPC   C2B14396  30.273  15.695   8.217
  839POPC   C3B14397  29.994  15.734   7.842
  839POPC   C4B14398  30.103  15.819   7.408
  840POPC   NC314399  14.132  31.429   9.445
  840POPC   PO414400  14.812  31.388   9.518
  840POPC   GL114401  14.548  31.402   9.130
  840POPC   GL214402  14.190  31.534   8.976
  840POPC   C1A14403  14.510  31.272   8.717
  840POPC   D2A14404  14.295  31.491   8.399
  840POPC   C3A14405  14.508  31.345   8.071
  840POPC   C4A14406  14.619  31.466   7.699
  840POPC   C1B14407  14.060  31.820   8.718
  840POPC   C2B14408  13.971  31.930   8.291
  840POPC   C3B14409  14.080  31.706   7.918
  840POPC   C4B14410  13.991  31.638   7.490
  841POPC   NC314411  39.673  30.068   9.419
  841POPC   PO414412  40.119  29.644   9.380
  841POPC   GL114413  40.001  29.881   9.035
  841POPC   GL214414  40.072  30.239   9.098
  841POPC   C1A14415  40.002  29.765   8.602
  841POPC   D2A14416  39.781  29.561   8.271
  841POPC   C3A14417  39.929  29.758   7.939
  841POPC   C4A14418  40.205  29.697   7.615
  841POPC   C1B14419  39.891  30.276   8.687
  841POPC   C2B14420  39.877  30.155   8.254
  841POPC   C3B14421  40.098  30.240   7.869
  841POPC   C4B14422  40.203  30.193   7.432
  842POPC   NC314423  17.411  44.187   9.306
  842POPC   PO414424  17.606  43.598   9.440
  842POPC   GL114425  17.306  43.765   9.087
  842POPC   GL214426  17.195  43.640   8.818
  842POPC   C1A14427  17.172  44.113   8.739
  842POPC   D2A14428  17.190  43.986   8.325
  842POPC   C3A14429  17.494  44.136   8.038
  842POPC   C4A14430  17.471  44.137   7.594
  842POPC   C1B14431  17.587  43.780   8.660
  842POPC   C2B14432  17.653  43.535   8.328
  842POPC   C3B14433  17.518  43.628   7.950
  842POPC   C4B14434  17.787  43.739   7.699
  843POPC   NC314435  23.084  41.189   9.635
  843POPC   PO414436  22.632  41.664   9.455
  843POPC   GL114437  22.851  41.431   9.147
  843POPC   GL214438  23.187  41.215   9.138
  843POPC   C1A14439  22.735  41.496   8.693
  843POPC   D2A14440  22.536  41.776   8.363
  843POPC   C3A14441  22.746  41.722   7.960
  843POPC   C4A14442  22.932  41.355   7.755
  843POPC   C1B14443  23.233  41.511   8.818
  843POPC   C2B14444  23.161  41.401   8.399
  843POPC   C3B14445  23.274  41.586   8.040
  843POPC   C4B14446  23.286  41.901   7.733
  844POPC   NC314447  37.986  14.727   9.559
  844POPC   PO414448  38.103  14.098   9.324
  844POPC   GL114449  38.299  14.478   9.201
  844POPC   GL214450  38.685  14.505   9.242
  844POPC   C1A14451  38.394  14.472   8.785
  844POPC   D2A14452  38.608  14.375   8.435
  844POPC   C3A14453  38.498  14.618   8.098
  844POPC   C4A14454  38.382  14.495   7.704
  844POPC   C1B14455  38.918  14.450   8.871
  844POPC   C2B14456  39.062  14.573   8.475
  844POPC   C3B14457  38.989  14.436   8.062
  844POPC   C4B14458  38.899  14.706   7.748
  845POPC   NC314459  38.176  30.855   9.497
  845POPC   PO414460  38.818  30.828   9.670
  845POPC   GL114461  38.625  30.730   9.250
  845POPC   GL214462  38.369  30.457   9.252
  845POPC   C1A14463  38.486  30.937   8.858
  845POPC   D2A14464  38.685  31.050   8.460
  845POPC   C3A14465  38.619  30.836   8.084
  845POPC   C4A14466  38.615  30.435   7.886
  845POPC   C1B14467  38.192  30.527   8.843
  845POPC   C2B14468  38.178  30.798   8.449
  845POPC   C3B14469  38.131  30.672   7.999
  845POPC   C4B14470  38.177  30.383   7.619
  846POPC   NC314471  22.912  38.072   9.437
  846POPC   PO414472  23.268  38.649   9.271
  846POPC   GL114473  23.218  38.320   9.019
  846POPC   GL214474  22.874  38.208   8.955
  846POPC   C1A14475  23.197  38.326   8.573
  846POPC   D2A14476  22.771  38.360   8.458
  846POPC   C3A14477  22.661  38.391   8.037
  846POPC   C4A14478  22.982  38.320   7.769
  846POPC   C1B14479  22.923  37.906   8.615
  846POPC   C2B14480  23.007  37.974   8.169
  846POPC   C3B14481  23.072  37.833   7.713
  846POPC   C4B14482  23.101  38.076   7.302
  847POPC   NC314483  13.910  42.796   9.728
  847POPC   PO414484  13.530  43.336   9.735
  847POPC   GL114485  13.515  43.003   9.359
  847POPC   GL214486  13.842  43.041   9.182
  847POPC   C1A14487  13.461  43.045   8.879
  847POPC   D2A14488  13.692  42.951   8.504
  847POPC   C3A14489  13.557  43.114   8.115
  847POPC   C4A14490  13.521  42.978   7.700
  847POPC   C1B14491  13.887  43.346   8.809
  847POPC   C2B14492  14.011  43.407   8.356
  847POPC   C3B14493  13.913  43.407   7.901
  847POPC   C4B14494  13.969  43.179   7.524
  848POPC   NC314495  31.637   4.740   9.616
  848POPC   PO414496  30.988   5.023   9.398
  848POPC   GL114497  31.315   5.014   9.067
  848POPC   GL214498  31.524   4.751   9.120
  848POPC   C1A14499  31.514   5.200   8.663
  848POPC   D2A14500  31.516   5.333   8.195
  848POPC   C3A14501  31.895   5.204   7.921
  848POPC   C4A14502  31.915   5.261   7.453
  848POPC   C1B14503  31.611   4.681   8.689
  848POPC   C2B14504  31.501   4.811   8.288
  848POPC   C3B14505  31.268   4.780   7.924
  848POPC   C4B14506  31.439   5.130   7.698
  849POPC   NC314507  39.017  33.953   9.370
  849POPC   PO414508  39.181  34.492   9.741
  849POPC   GL114509  39.123  34.544   9.283
  849POPC   GL214510  38.821  34.730   9.177
  849POPC   C1A14511  39.165  34.396   8.848
  849POPC   D2A14512  39.287  34.604   8.438
  849POPC   C3A14513  39.400  34.347   8.138
  849POPC   C4A14514  39.531  34.374   7.721
  849POPC   C1B14515  38.756  34.687   8.710
  849POPC   C2B14516  38.830  34.559   8.256
  849POPC   C3B14517  39.008  34.516   7.844
  849POPC   C4B14518  39.174  34.751   7.517
  850POPC   NC314519  11.401  28.071   9.551
  850POPC   PO414520  11.547  28.689   9.615
  850POPC   GL114521  11.441  28.449   9.213
  850POPC   GL214522  11.125  28.614   9.084
  850POPC   C1A14523  11.433  28.253   8.785
  850POPC   D2A14524  11.154  28.008   8.477
  850POPC   C3A14525  11.265  28.050   8.042
  850POPC   C4A14526  11.186  28.408   7.768
  850POPC   C1B14527  11.021  28.502   8.639
  850POPC   C2B14528  11.323  28.512   8.270
  850POPC   C3B14529  11.600  28.699   7.893
  850POPC   C4B14530  11.696  28.598   7.431
  851POPC   NC314531   0.317  39.690   9.468
  851POPC   PO414532   0.559  40.325   9.632
  851POPC   GL114533   0.310  40.183   9.256
  851POPC   GL214534   0.527  40.002   9.102
  851POPC   C1A14535   0.112  40.176   8.847
  851POPC   D2A14536   0.370  40.054   8.502
  851POPC   C3A14537   0.231  40.168   8.090
  851POPC   C4A14538   0.085  39.869   7.819
  851POPC   C1B14539   0.806  39.861   8.802
  851POPC   C2B14540   0.894  40.028   8.398
  851POPC   C3B14541   0.727  40.093   8.018
  851POPC   C4B14542   0.761  39.770   7.720
  852POPC   NC314543  17.383  11.077   9.461
  852POPC   PO414544  17.859  11.603   9.570
  852POPC   GL114545  17.621  11.445   9.175
  852POPC   GL214546  17.795  11.104   9.156
  852POPC   C1A14547  17.402  11.365   8.753
  852POPC   D2A14548  17.301  11.557   8.299
  852POPC   C3A14549  17.277  11.326   7.911
  852POPC   C4A14550  16.926  11.039   7.833
  852POPC   C1B14551  17.845  11.071   8.738
  852POPC   C2B14552  17.744  11.263   8.362
  852POPC   C3B14553  17.970  11.347   8.007
  852POPC   C4B14554  17.749  11.390   7.654
  853POPC   NC314555  22.841  38.801   9.237
  853POPC   PO414556  22.747  39.428   9.511
  853POPC   GL114557  22.969  39.375   9.130
  853POPC   GL214558  23.240  39.134   9.056
  853POPC   C1A14559  22.802  39.229   8.759
  853POPC   D2A14560  22.701  39.025   8.411
  853POPC   C3A14561  22.955  39.202   8.105
  853POPC   C4A14562  22.958  39.367   7.688
  853POPC   C1B14563  23.169  38.874   8.643
  853POPC   C2B14564  23.057  38.707   8.215
  853POPC   C3B14565  23.048  38.824   7.764
  853POPC   C4B14566  23.390  38.957   7.491
  854POPC   NC314567  34.552  32.597   9.492
  854POPC   PO414568  34.325  31.999   9.692
  854POPC   GL114569  34.571  32.098   9.342
  854POPC   GL214570  34.271  32.272   9.187
  854POPC   C1A14571  34.722  32.209   8.919
  854POPC   D2A14572  34.711  32.427   8.499
  854POPC   C3A14573  34.646  32.223   8.086
  854POPC   C4A14574  34.663  32.308   7.651
  854POPC   C1B14575  34.333  32.556   8.816
  854POPC   C2B14576  34.210  32.592   8.364
  854POPC   C3B14577  34.229  32.575   7.897
  854POPC   C4B14578  34.168  32.184   7.686
  855POPC   NC314579  10.203  15.156   9.507
  855POPC   PO414580  10.908  14.939   9.429
  855POPC   GL114581  10.689  15.225   9.128
  855POPC   GL214582  10.321  15.329   9.056
  855POPC   C1A14583  10.674  15.052   8.708
  855POPC   D2A14584  10.890  14.937   8.332
  855POPC   C3A14585  10.729  15.041   7.910
  855POPC   C4A14586  10.661  15.450   7.752
  855POPC   C1B14587  10.394  15.481   8.647
  855POPC   C2B14588  10.419  15.223   8.269
  855POPC   C3B14589  10.236  15.188   7.863
  855POPC   C4B14590  10.143  14.907   7.572
  856POPC   NC314591  33.315  11.069   9.431
  856POPC   PO414592  32.931  11.661   9.268
  856POPC   GL114593  33.241  11.435   9.079
  856POPC   GL214594  33.143  11.079   8.972
  856POPC   C1A14595  33.264  11.483   8.690
  856POPC   D2A14596  33.087  11.176   8.452
  856POPC   C3A14597  33.047  11.409   8.140
  856POPC   C4A14598  33.242  11.234   7.815
  856POPC   C1B14599  32.841  10.822   8.782
  856POPC   C2B14600  32.669  10.840   8.397
  856POPC   C3B14601  32.787  10.993   8.039
  856POPC   C4B14602  32.682  10.979   7.669
  857POPC   NC314603  10.207  23.338   9.539
  857POPC   PO414604  10.404  23.945   9.443
  857POPC   GL114605  10.603  23.757   9.088
  857POPC   GL214606  10.664  23.413   9.171
  857POPC   C1A14607  10.801  23.676   8.688
  857POPC   D2A14608  10.627  23.541   8.306
  857POPC   C3A14609  10.560  23.843   7.992
  857POPC   C4A14610  10.776  23.932   7.663
  857POPC   C1B14611  10.408  23.348   8.790
  857POPC   C2B14612  10.162  23.360   8.380
  857POPC   C3B14613  10.254  23.457   7.935
  857POPC   C4B14614  10.617  23.421   7.608
  858POPC   NC314615  38.759  39.954   9.658
  858POPC   PO414616  38.166  40.170   9.449
  858POPC   GL114617  38.321  40.072   9.103
  858POPC   GL214618  38.630  40.239   9.117
  858POPC   C1A14619  38.343  39.878   8.725
  858POPC   D2A14620  38.629  39.744   8.382
  858POPC   C3A14621  38.496  39.807   7.967
  858POPC   C4A14622  38.476  39.989   7.562
  858POPC   C1B14623  38.804  40.336   8.703
  858POPC   C2B14624  38.876  40.388   8.261
  858POPC   C3B14625  38.751  40.279   7.871
  858POPC   C4B14626  38.805  40.356   7.381
  859POPC   NC314627  31.782  11.093   9.359
  859POPC   PO414628  31.134  11.383   9.417
  859POPC   GL114629  31.397  11.348   9.092
  859POPC   GL214630  31.332  11.009   9.100
  859POPC   C1A14631  31.540  11.233   8.671
  859POPC   D2A14632  31.571  11.411   8.279
  859POPC   C3A14633  31.808  11.379   7.894
  859POPC   C4A14634  31.749  11.122   7.505
  859POPC   C1B14635  31.044  11.063   8.758
  859POPC   C2B14636  31.073  11.346   8.399
  859POPC   C3B14637  31.190  11.366   7.953
  859POPC   C4B14638  31.063  11.207   7.570
  860POPC   NC314639  20.401   1.579   9.406
  860POPC   PO414640  20.406   0.988   9.568
  860POPC   GL114641  20.712   1.184   9.247
  860POPC   GL214642  20.483   1.273   8.996
  860POPC   C1A14643  20.939   1.241   8.829
  860POPC   D2A14644  20.631   1.295   8.459
  860POPC   C3A14645  20.900   1.245   8.101
  860POPC   C4A14646  20.770   1.261   7.685
  860POPC   C1B14647  20.168   1.430   8.715
  860POPC   C2B14648  20.171   1.489   8.271
  860POPC   C3B14649  20.355   1.221   7.975
  860POPC   C4B14650  20.209   1.063   7.589
  861POPC   NC314651  12.456   1.908   9.230
  861POPC   PO414652  12.075   1.610   9.634
  861POPC   GL114653  11.983   1.738   9.179
  861POPC   GL214654  11.943   2.093   9.132
  861POPC   C1A14655  12.123   1.757   8.710
  861POPC   D2A14656  11.968   1.919   8.306
  861POPC   C3A14657  12.059   1.657   7.947
  861POPC   C4A14658  12.380   1.825   7.727
  861POPC   C1B14659  11.724   2.123   8.731
  861POPC   C2B14660  11.445   2.001   8.392
  861POPC   C3B14661  11.559   2.006   7.951
  861POPC   C4B14662  11.929   2.093   7.722
  862POPC   NC314663   9.316   6.239   9.544
  862POPC   PO414664   9.991   6.383   9.477
  862POPC   GL114665   9.811   6.627   9.130
  862POPC   GL214666   9.499   6.658   9.268
  862POPC   C1A14667   9.609   6.805   8.733
  862POPC   D2A14668   9.777   6.841   8.345
  862POPC   C3A14669   9.835   6.579   8.006
  862POPC   C4A14670   9.711   6.785   7.632
  862POPC   C1B14671   9.397   6.389   8.905
  862POPC   C2B14672   9.484   6.412   8.453
  862POPC   C3B14673   9.337   6.600   8.084
  862POPC   C4B14674   9.402   6.381   7.723
  863POPC   NC314675  39.938  19.493   9.421
  863POPC   PO414676  40.086  20.184   9.463
  863POPC   GL114677  39.994  19.914   9.114
  863POPC   GL214678  40.155  19.603   8.995
  863POPC   C1A14679  39.888  19.937   8.693
  863POPC   D2A14680  39.828  19.778   8.310
  863POPC   C3A14681  39.971  20.016   7.996
  863POPC   C4A14682  39.856  19.865   7.611
  863POPC   C1B14683  40.046  19.427   8.639
  863POPC   C2B14684  40.184  19.303   8.259
  863POPC   C3B14685  40.103  19.517   7.891
  863POPC   C4B14686  40.248  19.473   7.470
  864POPC   NC314687  23.957  22.588   9.432
  864POPC   PO414688  23.742  23.163   9.600
  864POPC   GL114689  23.708  22.973   9.174
  864POPC   GL214690  23.391  23.100   9.047
  864POPC   C1A14691  23.673  22.734   8.773
  864POPC   D2A14692  23.886  22.752   8.361
  864POPC   C3A14693  23.812  23.128   8.092
  864POPC   C4A14694  23.683  22.856   7.830
  864POPC   C1B14695  23.213  23.023   8.656
  864POPC   C2B14696  23.343  22.952   8.250
  864POPC   C3B14697  23.283  23.160   7.892
  864POPC   C4B14698  23.596  23.318   7.603
  865POPC   NC314699  34.496  34.138   9.745
  865POPC   PO414700  34.516  33.504   9.466
  865POPC   GL114701  34.721  33.491   9.093
  865POPC   GL214702  34.709  33.864   9.101
  865POPC   C1A14703  34.865  33.407   8.660
  865POPC   D2A14704  34.905  33.728   8.325
  865POPC   C3A14705  34.864  33.608   7.904
  865POPC   C4A14706  34.678  33.762   7.510
  865POPC   C1B14707  34.531  33.814   8.684
  865POPC   C2B14708  34.407  33.937   8.265
  865POPC   C3B14709  34.216  33.885   7.870
  865POPC   C4B14710  34.222  34.137   7.513
  866POPC   NC314711  27.808   3.234   9.430
  866POPC   PO414712  27.383   3.848   9.511
  866POPC   GL114713  27.516   3.601   9.171
  866POPC   GL214714  27.311   3.311   9.168
  866POPC   C1A14715  27.719   3.675   8.764
  866POPC   D2A14716  27.690   3.906   8.374
  866POPC   C3A14717  27.825   3.716   8.001
  866POPC   C4A14718  27.530   3.608   7.701
  866POPC   C1B14719  27.243   3.468   8.750
  866POPC   C2B14720  27.503   3.428   8.354
  866POPC   C3B14721  27.681   3.192   7.966
  866POPC   C4B14722  27.594   3.181   7.467
  867POPC   NC314723  34.682  26.302   9.443
  867POPC   PO414724  34.601  25.652   9.598
  867POPC   GL114725  34.808  25.837   9.249
  867POPC   GL214726  34.466  25.871   9.135
  867POPC   C1A14727  34.827  26.067   8.847
  867POPC   D2A14728  34.734  26.336   8.536
  867POPC   C3A14729  34.776  26.249   8.098
  867POPC   C4A14730  34.576  26.309   7.711
  867POPC   C1B14731  34.328  26.029   8.712
  867POPC   C2B14732  34.441  25.899   8.286
  867POPC   C3B14733  34.202  26.041   7.909
  867POPC   C4B14734  34.228  26.012   7.469
  868POPC   NC314735  23.158  20.307   9.405
  868POPC   PO414736  22.739  20.879   9.466
  868POPC   GL114737  22.911  20.653   9.098
  868POPC   GL214738  23.233  20.807   9.051
  868POPC   C1A14739  22.782  20.474   8.691
  868POPC   D2A14740  22.977  20.510   8.258
  868POPC   C3A14741  22.681  20.609   7.904
  868POPC   C4A14742  22.627  20.946   7.609
  868POPC   C1B14743  23.289  20.459   8.728
  868POPC   C2B14744  23.470  20.320   8.310
  868POPC   C3B14745  23.389  20.439   7.900
  868POPC   C4B14746  23.154  20.784   7.801
  869POPC   NC314747   8.282   7.566   9.515
  869POPC   PO414748   8.113   6.957   9.749
  869POPC   GL114749   8.137   7.167   9.240
  869POPC   GL214750   8.470   7.348   9.065
  869POPC   C1A14751   8.090   7.436   8.789
  869POPC   D2A14752   8.295   7.475   8.346
  869POPC   C3A14753   8.107   7.562   7.989
  869POPC   C4A14754   8.113   7.259   7.705
  869POPC   C1B14755   8.522   7.720   8.702
  869POPC   C2B14756   8.384   7.970   8.313
  869POPC   C3B14757   8.417   7.928   7.838
  869POPC   C4B14758   8.302   7.682   7.473
  870POPC   NC314759   2.379  36.968   9.815
  870POPC   PO414760   2.945  37.018   9.423
  870POPC   GL114761   2.840  37.047   9.020
  870POPC   GL214762   2.949  37.383   9.028
  870POPC   C1A14763   2.621  36.866   8.667
  870POPC   D2A14764   2.280  36.843   8.380
  870POPC   C3A14765   2.471  36.558   8.127
  870POPC   C4A14766   2.563  36.655   7.710
  870POPC   C1B14767   2.834  37.322   8.598
  870POPC   C2B14768   2.584  37.260   8.241
  870POPC   C3B14769   2.776  37.199   7.852
  870POPC   C4B14770   3.239  37.264   7.921
  871POPC   NC314771  12.432   9.710   9.539
  871POPC   PO414772  13.099   9.469   9.515
  871POPC   GL114773  12.900   9.755   9.239
  871POPC   GL214774  12.624   9.696   9.082
  871POPC   C1A14775  13.004   9.892   8.814
  871POPC   D2A14776  13.062   9.858   8.372
  871POPC   C3A14777  12.989   9.513   8.073
  871POPC   C4A14778  13.136   9.452   7.672
  871POPC   C1B14779  12.524   9.929   8.713
  871POPC   C2B14780  12.561   9.841   8.302
  871POPC   C3B14781  12.768   9.943   7.967
  871POPC   C4B14782  12.753   9.760   7.600
  872POPC   NC314783   4.256  10.697   9.753
  872POPC   PO414784   4.455  10.142   9.613
  872POPC   GL114785   4.478  10.394   9.251
  872POPC   GL214786   4.188  10.506   9.124
  872POPC   C1A14787   4.615  10.457   8.821
  872POPC   D2A14788   4.489  10.628   8.406
  872POPC   C3A14789   4.554  10.468   8.015
  872POPC   C4A14790   4.239  10.398   7.721
  872POPC   C1B14791   4.236  10.843   8.792
  872POPC   C2B14792   4.096  10.938   8.338
  872POPC   C3B14793   4.247  10.880   7.885
  872POPC   C4B14794   4.147  10.782   7.404
  873POPC   NC314795  34.698  20.317   9.568
  873POPC   PO414796  34.294  20.729   9.221
  873POPC   GL114797  34.503  20.575   8.971
  873POPC   GL214798  34.775  20.568   9.130
  873POPC   C1A14799  34.470  20.530   8.583
  873POPC   D2A14800  34.535  20.861   8.354
  873POPC   C3A14801  34.559  20.675   7.982
  873POPC   C4A14802  34.438  20.722   7.566
  873POPC   C1B14803  34.909  20.782   8.764
  873POPC   C2B14804  35.086  20.982   8.453
  873POPC   C3B14805  34.908  21.051   8.055
  873POPC   C4B14806  34.941  20.774   7.671
  874POPC   NC314807  34.283  38.559   9.510
  874POPC   PO414808  34.765  38.073   9.593
  874POPC   GL114809  34.575  38.228   9.224
  874POPC   GL214810  34.503  38.547   9.050
  874POPC   C1A14811  34.389  38.075   8.874
  874POPC   D2A14812  34.338  38.059   8.444
  874POPC   C3A14813  34.278  38.400   8.160
  874POPC   C4A14814  34.383  38.315   7.737
  874POPC   C1B14815  34.768  38.338   8.711
  874POPC   C2B14816  34.786  38.398   8.285
  874POPC   C3B14817  34.803  38.592   7.893
  874POPC   C4B14818  34.578  38.789   7.577
  875POPC   NC314819  27.811  32.177   9.631
  875POPC   PO414820  27.130  32.409   9.600
  875POPC   GL114821  27.480  32.404   9.242
  875POPC   GL214822  27.751  32.123   9.139
  875POPC   C1A14823  27.667  32.506   8.815
  875POPC   D2A14824  27.507  32.394   8.422
  875POPC   C3A14825  27.843  32.289   8.143
  875POPC   C4A14826  27.810  32.419   7.738
  875POPC   C1B14827  27.702  32.000   8.711
  875POPC   C2B14828  27.737  31.805   8.310
  875POPC   C3B14829  27.710  31.847   7.856
  875POPC   C4B14830  28.020  31.980   7.571
  876POPC   NC314831  23.695   3.620   9.591
  876POPC   PO414832  24.283   3.241   9.540
  876POPC   GL114833  23.914   3.334   9.194
  876POPC   GL214834  23.505   3.413   9.158
  876POPC   C1A14835  23.785   3.431   8.736
  876POPC   D2A14836  23.619   3.427   8.319
  876POPC   C3A14837  23.817   3.565   7.920
  876POPC   C4A14838  23.934   3.333   7.549
  876POPC   C1B14839  23.490   3.826   8.922
  876POPC   C2B14840  23.368   3.923   8.500
  876POPC   C3B14841  23.410   3.815   8.080
  876POPC   C4B14842  23.367   4.021   7.695
  877POPC   NC314843  35.567   1.200   9.469
  877POPC   PO414844  34.939   1.103   9.476
  877POPC   GL114845  35.206   0.980   9.138
  877POPC   GL214846  35.438   1.271   9.007
  877POPC   C1A14847  35.289   0.932   8.704
  877POPC   D2A14848  35.395   1.283   8.469
  877POPC   C3A14849  35.592   1.252   8.090
  877POPC   C4A14850  35.482   1.110   7.719
  877POPC   C1B14851  35.687   1.582   8.820
  877POPC   C2B14852  35.565   1.763   8.441
  877POPC   C3B14853  35.790   1.730   8.086
  877POPC   C4B14854  35.677   1.586   7.708
  878POPC   NC314855   9.425  43.951   9.662
  878POPC   PO414856  10.061  43.825   9.660
  878POPC   GL114857   9.967  43.858   9.175
  878POPC   GL214858   9.669  44.046   9.223
  878POPC   C1A14859  10.080  43.954   8.726
  878POPC   D2A14860  10.051  43.735   8.330
  878POPC   C3A14861   9.876  43.906   7.957
  878POPC   C4A14862  10.012  43.977   7.525
  878POPC   C1B14863   9.587  43.882   8.817
  878POPC   C2B14864   9.549  43.844   8.399
  878POPC   C3B14865   9.436  43.655   8.016
  878POPC   C4B14866   9.473  43.872   7.609
  879POPC   NC314867   0.293  29.285   9.648
  879POPC   PO414868   0.720  29.603   9.275
  879POPC   GL114869   0.587  29.213   9.116
  879POPC   GL214870   0.244  29.134   9.172
  879POPC   C1A14871   0.766  29.130   8.716
  879POPC   D2A14872   0.731  28.949   8.323
  879POPC   C3A14873   0.884  28.929   7.932
  879POPC   C4A14874   0.664  29.155   7.622
  879POPC   C1B14875   0.232  28.967   8.799
  879POPC   C2B14876   0.281  29.156   8.435
  879POPC   C3B14877   0.341  29.110   8.024
  879POPC   C4B14878   0.262  29.512   7.878
  880POPC   NC314879  40.089   5.658   9.838
  880POPC   PO414880  39.641   6.005   9.465
  880POPC   GL114881  39.956   5.775   9.253
  880POPC   GL214882  39.701   5.828   8.980
  880POPC   C1A14883  40.118   5.598   8.870
  880POPC   D2A14884  39.829   5.520   8.514
  880POPC   C3A14885  39.882   5.660   8.071
  880POPC   C4A14886  40.290   5.653   7.881
  880POPC   C1B14887  39.588   6.208   8.770
  880POPC   C2B14888  39.401   6.205   8.336
  880POPC   C3B14889  39.509   5.998   7.929
  880POPC   C4B14890  39.616   5.977   7.464
  881POPC   NC314891   5.099   7.786   9.506
  881POPC   PO414892   5.433   7.182   9.681
  881POPC   GL114893   5.129   7.221   9.319
  881POPC   GL214894   4.800   7.412   9.242
  881POPC   C1A14895   5.153   7.275   8.863
  881POPC   D2A14896   5.127   7.519   8.460
  881POPC   C3A14897   5.107   7.269   8.111
  881POPC   C4A14898   4.964   7.196   7.712
  881POPC   C1B14899   4.696   7.487   8.783
  881POPC   C2B14900   4.643   7.679   8.360
  881POPC   C3B14901   4.662   7.563   7.927
  881POPC   C4B14902   4.807   7.677   7.499
  882POPC   NC314903   7.105  32.535   9.488
  882POPC   PO414904   6.415  32.449   9.399
  882POPC   GL114905   6.722  32.070   9.242
  882POPC   GL214906   7.037  32.153   9.110
  882POPC   C1A14907   6.721  31.837   8.829
  882POPC   D2A14908   6.535  32.014   8.466
  882POPC   C3A14909   6.476  32.148   8.029
  882POPC   C4A14910   6.767  32.120   7.651
  882POPC   C1B14911   6.727  32.361   8.815
  882POPC   C2B14912   6.619  32.513   8.404
  882POPC   C3B14913   6.846  32.463   8.031
  882POPC   C4B14914   6.978  32.609   7.691
  883POPC   NC314915   1.564  43.234   9.487
  883POPC   PO414916   0.897  43.131   9.570
  883POPC   GL114917   1.134  43.152   9.177
  883POPC   GL214918   1.309  43.482   9.090
  883POPC   C1A14919   1.094  43.114   8.723
  883POPC   D2A14920   1.147  43.301   8.303
  883POPC   C3A14921   0.994  43.080   7.915
  883POPC   C4A14922   1.137  42.785   7.558
  883POPC   C1B14923   1.562  43.293   8.746
  883POPC   C2B14924   1.617  43.043   8.374
  883POPC   C3B14925   1.503  42.987   7.928
  883POPC   C4B14926   1.344  43.242   7.558
  884POPC   NC314927  10.090   1.157   9.519
  884POPC   PO414928   9.540   0.885   9.164
  884POPC   GL114929   9.904   1.122   9.034
  884POPC   GL214930  10.065   1.446   9.085
  884POPC   C1A14931   9.918   1.187   8.609
  884POPC   D2A14932   9.937   0.876   8.290
  884POPC   C3A14933   9.560   0.841   8.054
  884POPC   C4A14934   9.495   1.141   7.708
  884POPC   C1B14935  10.180   1.628   8.656
  884POPC   C2B14936   9.945   1.584   8.251
  884POPC   C3B14937   9.968   1.316   7.845
  884POPC   C4B14938   9.921   1.324   7.362
  885POPC   NC314939  14.501   8.987  10.178
  885POPC   PO414940  14.824   9.285   9.807
  885POPC   GL114941  14.722   9.163   9.295
  885POPC   GL214942  14.647   9.448   9.070
  885POPC   C1A14943  14.624   8.908   8.834
  885POPC   D2A14944  14.448   8.680   8.405
  885POPC   C3A14945  14.352   8.793   7.917
  885POPC   C4A14946  14.374   8.919   7.449
  885POPC   C1B14947  14.663   9.354   8.602
  885POPC   C2B14948  14.433   9.184   8.242
  885POPC   C3B14949  14.514   9.277   7.791
  885POPC   C4B14950  14.929   9.345   7.595
  886POPC   NC314951  14.604  41.867   9.428
  886POPC   PO414952  14.073  41.451   9.487
  886POPC   GL114953  14.287  41.566   9.101
  886POPC   GL214954  14.654  41.525   9.072
  886POPC   C1A14955  14.333  41.414   8.675
  886POPC   D2A14956  14.494  41.608   8.294
  886POPC   C3A14957  14.229  41.557   7.965
  886POPC   C4A14958  13.911  41.250   7.848
  886POPC   C1B14959  14.544  41.874   8.753
  886POPC   C2B14960  14.734  42.061   8.371
  886POPC   C3B14961  14.649  41.958   7.941
  886POPC   C4B14962  14.637  41.615   7.691
  887POPC   NC314963  34.043  20.410   9.427
  887POPC   PO414964  33.409  20.267   9.425
  887POPC   GL114965  33.624  20.480   9.126
  887POPC   GL214966  33.774  20.786   9.198
  887POPC   C1A14967  33.796  20.488   8.728
  887POPC   D2A14968  33.644  20.724   8.378
  887POPC   C3A14969  33.712  20.460   8.038
  887POPC   C4A14970  33.779  20.469   7.644
  887POPC   C1B14971  33.912  21.001   8.785
  887POPC   C2B14972  34.036  21.100   8.387
  887POPC   C3B14973  34.066  20.808   8.078
  887POPC   C4B14974  33.972  20.927   7.681
  888POPC   NC314975  20.835  44.068   9.553
  888POPC   PO414976  20.442  43.595   9.366
  888POPC   GL114977  20.388  43.972   9.136
  888POPC   GL214978  20.716  44.013   9.054
  888POPC   C1A14979  20.365  43.788   8.741
  888POPC   D2A14980  20.645  43.611   8.465
  888POPC   C3A14981  20.492  43.694   8.088
  888POPC   C4A14982  20.603  43.652   7.660
  888POPC   C1B14983  20.578  44.235   8.696
  888POPC   C2B14984  20.366  44.152   8.291
  888POPC   C3B14985  20.392  44.107   7.831
  888POPC   C4B14986  20.729  44.168   7.493
  889POPC   NC314987   8.156  21.117   9.790
  889POPC   PO414988   7.939  21.629   9.463
  889POPC   GL114989   8.243  21.368   9.204
  889POPC   GL214990   7.999  21.216   9.012
  889POPC   C1A14991   8.442  21.188   8.807
  889POPC   D2A14992   8.233  21.231   8.410
  889POPC   C3A14993   8.435  21.292   8.027
  889POPC   C4A14994   8.640  21.570   7.779
  889POPC   C1B14995   7.882  20.956   8.661
  889POPC   C2B14996   7.844  20.977   8.203
  889POPC   C3B14997   7.957  21.220   7.769
  889POPC   C4B14998   7.890  21.127   7.285
  890POPC   NC314999  25.423  40.850   9.458
  890POPC   PO415000  24.795  40.725   9.664
  890POPC   GL115001  24.910  40.596   9.166
  890POPC   GL215002  25.266  40.490   9.131
  890POPC   C1A15003  24.991  40.533   8.690
  890POPC   D2A15004  25.175  40.524   8.245
  890POPC   C3A15005  25.005  40.651   7.810
  890POPC   C4A15006  25.190  40.549   7.383
  890POPC   C1B15007  25.403  40.803   8.787
  890POPC   C2B15008  25.253  40.993   8.419
  890POPC   C3B15009  25.290  41.031   7.985
  890POPC   C4B15010  25.525  41.321   7.720
  891POPC   NC315011  16.625  21.838   9.791
  891POPC   PO415012  16.955  22.223   9.378
  891POPC   GL115013  17.062  22.163   8.967
  891POPC   GL215014  16.999  21.850   8.800
  891POPC   C1A15015  16.893  22.321   8.611
  891POPC   D2A15016  16.627  22.259   8.297
  891POPC   C3A15017  16.892  22.239   7.968
  891POPC   C4A15018  16.628  22.374   7.645
  891POPC   C1B15019  16.559  21.857   8.643
  891POPC   C2B15020  16.305  21.821   8.261
  891POPC   C3B15021  16.482  21.939   7.869
  891POPC   C4B15022  16.896  21.823   7.656
  892POPC   NC315023  31.239  29.352   9.459
  892POPC   PO415024  31.860  29.039   9.529
  892POPC   GL115025  31.627  29.119   9.164
  892POPC   GL215026  31.717  29.436   9.157
  892POPC   C1A15027  31.409  29.323   8.786
  892POPC   D2A15028  31.299  29.466   8.372
  892POPC   C3A15029  31.258  29.118   8.114
  892POPC   C4A15030  31.327  28.976   7.680
  892POPC   C1B15031  31.927  29.273   8.764
  892POPC   C2B15032  31.746  29.188   8.357
  892POPC   C3B15033  31.694  29.310   7.924
  892POPC   C4B15034  31.771  29.172   7.506
  893POPC   NC315035  13.974  11.442   9.331
  893POPC   PO415036  13.386  11.057   9.449
  893POPC   GL115037  13.614  11.113   9.083
  893POPC   GL215038  13.980  11.026   9.049
  893POPC   C1A15039  13.652  11.220   8.674
  893POPC   D2A15040  13.716  11.008   8.312
  893POPC   C3A15041  13.421  11.187   8.014
  893POPC   C4A15042  13.490  11.534   7.724
  893POPC   C1B15043  14.145  11.302   8.731
  893POPC   C2B15044  14.027  11.512   8.340
  893POPC   C3B15045  13.943  11.308   7.932
  893POPC   C4B15046  13.949  11.417   7.489
  894POPC   NC315047   6.316  40.245   9.552
  894POPC   PO415048   5.804  39.832   9.615
  894POPC   GL115049   5.898  40.123   9.260
  894POPC   GL215050   5.625  40.294   9.158
  894POPC   C1A15051   6.001  40.295   8.830
  894POPC   D2A15052   6.215  40.098   8.499
  894POPC   C3A15053   6.106  40.116   8.080
  894POPC   C4A15054   5.967  39.912   7.701
  894POPC   C1B15055   5.652  39.933   8.850
  894POPC   C2B15056   5.695  40.084   8.424
  894POPC   C3B15057   5.582  39.988   8.001
  894POPC   C4B15058   5.382  39.760   7.616
  895POPC   NC315059   8.686  38.647   9.545
  895POPC   PO415060   9.166  38.134   9.503
  895POPC   GL115061   9.069  38.347   9.119
  895POPC   GL215062   9.063  38.701   9.214
  895POPC   C1A15063   8.769  38.208   8.800
  895POPC   D2A15064   8.538  38.168   8.430
  895POPC   C3A15065   8.787  38.373   8.177
  895POPC   C4A15066   8.853  38.442   7.785
  895POPC   C1B15067   8.937  38.842   8.817
  895POPC   C2B15068   9.002  38.801   8.397
  895POPC   C3B15069   8.875  38.902   8.009
  895POPC   C4B15070   9.143  38.835   7.644
  896POPC   NC315071  27.315  17.160   9.781
  896POPC   PO415072  27.647  16.649   9.397
  896POPC   GL115073  27.634  16.619   9.019
  896POPC   GL215074  27.362  16.402   9.022
  896POPC   C1A15075  27.730  16.843   8.660
  896POPC   D2A15076  28.048  16.779   8.369
  896POPC   C3A15077  27.859  16.804   7.964
  896POPC   C4A15078  28.030  16.802   7.532
  896POPC   C1B15079  27.262  16.616   8.655
  896POPC   C2B15080  27.430  16.693   8.256
  896POPC   C3B15081  27.221  16.598   7.891
  896POPC   C4B15082  27.275  16.498   7.465
  897POPC   NC315083  35.863  33.589   9.466
  897POPC   PO415084  36.320  33.872   9.738
  897POPC   GL115085  36.280  33.931   9.258
  897POPC   GL215086  35.956  33.918   9.100
  897POPC   C1A15087  36.309  33.720   8.787
  897POPC   D2A15088  36.305  33.837   8.338
  897POPC   C3A15089  36.403  33.748   7.925
  897POPC   C4A15090  36.258  33.935   7.549
  897POPC   C1B15091  36.038  34.180   8.768
  897POPC   C2B15092  35.877  34.125   8.368
  897POPC   C3B15093  35.968  34.066   7.949
  897POPC   C4B15094  35.720  33.871   7.635
  898POPC   NC315095  13.493  31.069   9.334
  898POPC   PO415096  13.346  30.362   9.422
  898POPC   GL115097  13.392  30.631   9.060
  898POPC   GL215098  13.716  30.671   9.079
  898POPC   C1A15099  13.548  30.922   8.688
  898POPC   D2A15100  13.803  30.812   8.374
  898POPC   C3A15101  13.529  30.820   8.051
  898POPC   C4A15102  13.629  30.801   7.682
  898POPC   C1B15103  13.841  30.445   8.746
  898POPC   C2B15104  13.873  30.227   8.387
  898POPC   C3B15105  13.795  30.376   8.021
  898POPC   C4B15106  13.946  30.395   7.622
  899POPC   NC315107  31.094  19.319   9.494
  899POPC   PO415108  31.743  19.408   9.672
  899POPC   GL115109  31.791  19.360   9.287
  899POPC   GL215110  31.522  19.132   9.231
  899POPC   C1A15111  31.891  19.287   8.918
  899POPC   D2A15112  31.870  19.173   8.514
  899POPC   C3A15113  31.754  19.379   8.156
  899POPC   C4A15114  31.808  19.224   7.753
  899POPC   C1B15115  31.453  19.017   8.775
  899POPC   C2B15116  31.395  19.006   8.317
  899POPC   C3B15117  31.339  19.132   7.882
  899POPC   C4B15118  31.355  18.854   7.492
  900POPC   NC315119  15.756  22.180   9.432
  900POPC   PO415120  16.414  21.992   9.399
  900POPC   GL115121  16.172  22.219   9.108
  900POPC   GL215122  15.858  22.067   8.948
  900POPC   C1A15123  16.288  22.329   8.699
  900POPC   D2A15124  16.061  22.302   8.331
  900POPC   C3A15125  16.238  22.416   7.968
  900POPC   C4A15126  16.143  22.200   7.594
  900POPC   C1B15127  15.768  22.476   8.742
  900POPC   C2B15128  15.726  22.695   8.336
  900POPC   C3B15129  15.720  22.505   7.945
  900POPC   C4B15130  15.745  22.055   7.874
  901POPC   NC315131  41.205   8.505   9.505
  901POPC   PO415132  40.611   8.175   9.326
  901POPC   GL115133  40.721   8.172   8.984
  901POPC   GL215134  41.045   8.342   9.037
  901POPC   C1A15135  40.500   8.230   8.614
  901POPC   D2A15136  40.602   8.371   8.214
  901POPC   C3A15137  40.479   8.095   7.911
  901POPC   C4A15138  40.481   7.742   7.668
  901POPC   C1B15139  40.978   8.408   8.621
  901POPC   C2B15140  41.076   8.160   8.328
  901POPC   C3B15141  41.101   8.392   8.021
  901POPC   C4B15142  40.919   8.223   7.694
  902POPC   NC315143  44.072   0.642   9.483
  902POPC   PO415144  43.702   0.119   9.467
  902POPC   GL115145  43.654   0.270   9.057
  902POPC   GL215146  43.642   0.618   9.035
  902POPC   C1A15147  43.755   0.365   8.599
  902POPC   D2A15148  44.061   0.231   8.260
  902POPC   C3A15149  43.884   0.356   7.859
  902POPC   C4A15150  43.893   0.360   7.416
  902POPC   C1B15151  43.917   0.843   8.754
  902POPC   C2B15152  44.020   0.762   8.305
  902POPC   C3B15153  44.072   0.851   7.863
  902POPC   C4B15154  43.729   0.817   7.604
  903POPC   NC315155  26.282  16.643   9.371
  903POPC   PO415156  25.702  17.013   9.427
  903POPC   GL115157  26.085  17.096   9.205
  903POPC   GL215158  25.966  16.796   8.991
  903POPC   C1A15159  26.324  17.117   8.810
  903POPC   D2A15160  26.108  16.869   8.500
  903POPC   C3A15161  26.162  16.965   8.055
  903POPC   C4A15162  26.326  16.877   7.653
  903POPC   C1B15163  25.627  16.849   8.663
  903POPC   C2B15164  25.654  16.906   8.201
  903POPC   C3B15165  25.743  16.670   7.872
  903POPC   C4B15166  26.090  16.453   7.771
  904POPC   NC315167  10.963  19.579   9.203
  904POPC   PO415168  10.331  19.527   9.481
  904POPC   GL115169  10.364  19.801   9.125
  904POPC   GL215170  10.674  20.011   9.124
  904POPC   C1A15171  10.353  19.845   8.686
  904POPC   D2A15172  10.467  20.023   8.329
  904POPC   C3A15173  10.215  19.831   8.058
  904POPC   C4A15174  10.354  19.781   7.673
  904POPC   C1B15175  10.848  19.976   8.687
  904POPC   C2B15176  10.977  19.807   8.292
  904POPC   C3B15177  10.775  19.979   7.891
  904POPC   C4B15178  10.931  20.212   7.495
  905POPC   NC315179  44.320  10.642   9.278
  905POPC   PO415180  44.900  10.402   9.558
  905POPC   GL115181  44.736  10.342   9.155
  905POPC   GL215182  44.971  10.579   9.052
  905POPC   C1A15183  44.747  10.325   8.680
  905POPC   D2A15184  44.867  10.463   8.270
  905POPC   C3A15185  44.628  10.438   7.891
  905POPC   C4A15186  44.491  10.592   7.492
  905POPC   C1B15187  44.902  10.824   8.663
  905POPC   C2B15188   0.189  10.882   8.324
  905POPC   C3B15189   0.173  10.740   7.916
  905POPC   C4B15190  44.968  10.717   7.562
  906POPC   NC315191  32.427  12.994   9.317
  906POPC   PO415192  32.982  12.941   9.704
  906POPC   GL115193  33.001  12.839   9.259
  906POPC   GL215194  33.234  13.070   9.116
  906POPC   C1A15195  32.973  12.720   8.811
  906POPC   D2A15196  32.914  12.897   8.390
  906POPC   C3A15197  32.842  12.645   8.031
  906POPC   C4A15198  33.074  12.696   7.675
  906POPC   C1B15199  33.427  13.276   8.767
  906POPC   C2B15200  33.300  13.282   8.365
  906POPC   C3B15201  33.348  13.183   7.951
  906POPC   C4B15202  33.512  13.267   7.574
  907POPC   NC315203   8.663  39.846   9.580
  907POPC   PO415204   8.865  39.095   9.515
  907POPC   GL115205   8.981  39.254   9.149
  907POPC   GL215206   9.311  39.115   9.055
  907POPC   C1A15207   8.891  39.489   8.805
  907POPC   D2A15208   8.981  39.308   8.424
  907POPC   C3A15209   8.827  39.433   8.045
  907POPC   C4A15210   8.842  39.262   7.645
  907POPC   C1B15211   9.436  39.458   8.802
  907POPC   C2B15212   9.395  39.611   8.400
  907POPC   C3B15213   9.344  39.410   8.001
  907POPC   C4B15214   9.391  39.258   7.575
  908POPC   NC315215  29.395  44.339   9.655
  908POPC   PO415216  29.931  43.903   9.574
  908POPC   GL115217  29.479  43.808   9.279
  908POPC   GL215218  29.226  44.048   9.261
  908POPC   C1A15219  29.199  43.766   8.841
  908POPC   D2A15220  29.054  44.022   8.448
  908POPC   C3A15221  29.181  43.997   7.976
  908POPC   C4A15222  29.313  43.842   7.546
  908POPC   C1B15223  29.369  44.245   8.870
  908POPC   C2B15224  29.400  44.414   8.430
  908POPC   C3B15225  29.513  44.381   8.012
  908POPC   C4B15226  29.421  44.330   7.600
  909POPC   NC315227  11.872  22.990   9.558
  909POPC   PO415228  12.521  22.724   9.590
  909POPC   GL115229  12.290  22.922   9.253
  909POPC   GL215230  12.042  22.667   9.198
  909POPC   C1A15231  12.115  23.060   8.860
  909POPC   D2A15232  12.222  23.108   8.423
  909POPC   C3A15233  11.910  23.066   8.081
  909POPC   C4A15234  11.915  23.062   7.638
  909POPC   C1B15235  12.265  22.548   8.844
  909POPC   C2B15236  12.464  22.630   8.455
  909POPC   C3B15237  12.317  22.743   8.064
  909POPC   C4B15238  12.209  22.635   7.671
  910POPC   NC315239  15.673   1.548   9.435
  910POPC   PO415240  15.625   2.285   9.480
  910POPC   GL115241  15.892   2.057   9.148
  910POPC   GL215242  16.036   1.694   9.101
  910POPC   C1A15243  15.924   1.990   8.704
  910POPC   D2A15244  16.175   2.029   8.351
  910POPC   C3A15245  15.995   1.990   7.958
  910POPC   C4A15246  15.983   2.253   7.571
  910POPC   C1B15247  15.770   1.514   8.785
  910POPC   C2B15248  15.939   1.560   8.388
  910POPC   C3B15249  16.250   1.491   8.097
  910POPC   C4B15250  16.067   1.575   7.693
  911POPC   NC315251  44.222  42.673   9.551
  911POPC   PO415252  43.778  42.143   9.451
  911POPC   GL115253  44.124  42.233   9.202
  911POPC   GL215254  44.098  42.563   9.079
  911POPC   C1A15255  44.210  42.159   8.798
  911POPC   D2A15256  44.227  42.451   8.491
  911POPC   C3A15257  44.040  42.324   8.130
  911POPC   C4A15258  43.983  42.292   7.685
  911POPC   C1B15259  43.763  42.432   8.818
  911POPC   C2B15260  43.680  42.553   8.418
  911POPC   C3B15261  43.530  42.430   8.042
  911POPC   C4B15262  43.591  42.640   7.686
  912POPC   NC315263  24.796  20.598   9.485
  912POPC   PO415264  24.259  20.796   9.451
  912POPC   GL115265  24.353  20.644   9.036
  912POPC   GL215266  24.238  20.296   8.901
  912POPC   C1A15267  24.134  20.731   8.643
  912POPC   D2A15268  23.874  20.688   8.295
  912POPC   C3A15269  24.205  20.698   8.024
  912POPC   C4A15270  24.264  20.819   7.618
  912POPC   C1B15271  24.557  20.428   8.614
  912POPC   C2B15272  24.676  20.653   8.253
  912POPC   C3B15273  24.666  20.599   7.806
  912POPC   C4B15274  24.280  20.328   7.586
  913POPC   NC315275  11.494  44.470   9.555
  913POPC   PO415276  10.975  44.779   9.257
  913POPC   GL115277  11.326  44.630   9.101
  913POPC   GL215278  11.541  44.891   9.158
  913POPC   C1A15279  11.417  44.431   8.748
  913POPC   D2A15280  11.260  44.583   8.378
  913POPC   C3A15281  11.415  44.534   7.992
  913POPC   C4A15282  11.293  44.509   7.567
  913POPC   C1B15283  11.772  44.803   8.760
  913POPC   C2B15284  11.726  44.862   8.325
  913POPC   C3B15285  11.626   0.094   7.985
  913POPC   C4B15286  11.375  44.992   7.684
  914POPC   NC315287   7.487  34.908   9.583
  914POPC   PO415288   7.842  35.426   9.762
  914POPC   GL115289   7.600  35.363   9.283
  914POPC   GL215290   7.417  35.063   9.103
  914POPC   C1A15291   7.588  35.378   8.775
  914POPC   D2A15292   7.561  35.154   8.355
  914POPC   C3A15293   7.639  35.373   7.953
  914POPC   C4A15294   7.306  35.578   7.662
  914POPC   C1B15295   7.216  34.966   8.717
  914POPC   C2B15296   7.082  34.882   8.305
  914POPC   C3B15297   7.189  35.140   7.960
  914POPC   C4B15298   7.172  35.099   7.525
  915POPC   NC315299  24.325  35.350   9.596
  915POPC   PO415300  24.966  35.502   9.567
  915POPC   GL115301  24.637  35.514   9.237
  915POPC   GL215302  24.553  35.172   9.156
  915POPC   C1A15303  24.426  35.548   8.844
  915POPC   D2A15304  24.572  35.428   8.459
  915POPC   C3A15305  24.606  35.508   8.035
  915POPC   C4A15306  24.962  35.463   7.797
  915POPC   C1B15307  24.233  35.070   8.865
  915POPC   C2B15308  24.151  35.096   8.421
  915POPC   C3B15309  24.272  35.119   7.998
  915POPC   C4B15310  24.221  35.470   7.690
  916POPC   NC315311  23.026   0.227   9.353
  916POPC   PO415312  22.804   0.853   9.541
  916POPC   GL115313  22.983   0.722   9.120
  916POPC   GL215314  23.092   0.990   8.912
  916POPC   C1A15315  23.057   0.440   8.727
  916POPC   D2A15316  23.152   0.573   8.281
  916POPC   C3A15317  23.012   0.328   7.905
  916POPC   C4A15318  23.049   0.445   7.475
  916POPC   C1B15319  22.708   0.775   8.654
  916POPC   C2B15320  22.646   0.699   8.234
  916POPC   C3B15321  22.834   0.795   7.860
  916POPC   C4B15322  22.669   0.747   7.466
  917POPC   NC315323  21.385  31.563   9.620
  917POPC   PO415324  22.019  31.592   9.620
  917POPC   GL115325  21.725  31.460   9.196
  917POPC   GL215326  21.344  31.302   9.152
  917POPC   C1A15327  21.522  31.520   8.734
  917POPC   D2A15328  21.203  31.471   8.390
  917POPC   C3A15329  21.352  31.549   7.980
  917POPC   C4A15330  21.493  31.549   7.561
  917POPC   C1B15331  21.454  31.027   8.781
  917POPC   C2B15332  21.578  31.067   8.319
  917POPC   C3B15333  21.374  31.055   7.900
  917POPC   C4B15334  21.117  31.185   7.552
  918POPC   NC315335  22.158  22.769   9.617
  918POPC   PO415336  21.646  23.035   9.406
  918POPC   GL115337  21.954  22.814   9.144
  918POPC   GL215338  22.339  22.883   9.154
  918POPC   C1A15339  22.072  22.752   8.723
  918POPC   D2A15340  22.010  22.974   8.347
  918POPC   C3A15341  21.974  22.745   7.964
  918POPC   C4A15342  21.924  22.912   7.535
  918POPC   C1B15343  22.419  23.151   8.805
  918POPC   C2B15344  22.388  23.368   8.395
  918POPC   C3B15345  22.363  23.152   8.021
  918POPC   C4B15346  22.432  22.835   7.767
  919POPC   NC315347  31.946  37.842   9.345
  919POPC   PO415348  32.466  37.672   9.580
  919POPC   GL115349  32.590  37.696   9.136
  919POPC   GL215350  32.620  37.349   9.141
  919POPC   C1A15351  32.400  37.847   8.700
  919POPC   D2A15352  32.062  37.733   8.363
  919POPC   C3A15353  31.978  37.843   7.912
  919POPC   C4A15354  32.042  38.046   7.496
  919POPC   C1B15355  32.346  37.348   8.803
  919POPC   C2B15356  32.471  37.417   8.405
  919POPC   C3B15357  32.534  37.701   8.098
  919POPC   C4B15358  32.450  37.750   7.716
  920POPC   NC315359  39.076  21.242   9.612
  920POPC   PO415360  39.644  21.643   9.557
  920POPC   GL115361  39.407  21.381   9.217
  920POPC   GL215362  39.034  21.393   9.127
  920POPC   C1A15363  39.404  21.494   8.770
  920POPC   D2A15364  39.147  21.649   8.402
  920POPC   C3A15365  39.249  21.419   8.068
  920POPC   C4A15366  39.317  21.344   7.659
  920POPC   C1B15367  38.858  21.366   8.701
  920POPC   C2B15368  38.820  21.191   8.253
  920POPC   C3B15369  38.819  21.326   7.794
  920POPC   C4B15370  38.803  21.529   7.348
  921POPC   NC315371   9.273   0.933   9.539
  921POPC   PO415372   8.781   1.338   9.582
  921POPC   GL115373   8.869   1.107   9.190
  921POPC   GL215374   8.864   0.750   9.252
  921POPC   C1A15375   8.680   1.178   8.767
  921POPC   D2A15376   8.866   1.340   8.377
  921POPC   C3A15377   8.717   1.367   7.944
  921POPC   C4A15378   9.124   1.487   7.772
  921POPC   C1B15379   8.903   0.731   8.803
  921POPC   C2B15380   8.792   0.831   8.361
  921POPC   C3B15381   9.057   0.986   8.004
  921POPC   C4B15382   8.939   1.035   7.576
  922POPC   NC315383  30.577  37.082   9.446
  922POPC   PO415384  31.050  36.843   9.694
  922POPC   GL115385  30.837  36.676   9.282
  922POPC   GL215386  30.965  36.963   9.133
  922POPC   C1A15387  30.649  36.680   8.815
  922POPC   D2A15388  30.862  36.650   8.364
  922POPC   C3A15389  30.701  36.801   7.963
  922POPC   C4A15390  30.499  36.606   7.613
  922POPC   C1B15391  31.024  37.012   8.700
  922POPC   C2B15392  30.961  37.171   8.274
  922POPC   C3B15393  31.116  37.088   7.854
  922POPC   C4B15394  30.863  37.120   7.488
  923POPC   NC315395  43.150  15.425   9.471
  923POPC   PO415396  42.982  14.740   9.484
  923POPC   GL115397  43.310  14.981   9.217
  923POPC   GL215398  43.560  15.268   9.184
  923POPC   C1A15399  43.186  15.148   8.820
  923POPC   D2A15400  43.049  15.103   8.392
  923POPC   C3A15401  43.223  15.232   8.035
  923POPC   C4A15402  43.118  15.205   7.625
  923POPC   C1B15403  43.499  15.535   8.797
  923POPC   C2B15404  43.441  15.603   8.351
  923POPC   C3B15405  43.670  15.478   8.018
  923POPC   C4B15406  43.609  15.304   7.650
  924POPC   NC315407   7.487  10.126   9.501
  924POPC   PO415408   7.358  10.799   9.506
  924POPC   GL115409   7.280  10.491   9.198
  924POPC   GL215410   7.618  10.508   9.162
  924POPC   C1A15411   7.257  10.508   8.755
  924POPC   D2A15412   7.479  10.556   8.359
  924POPC   C3A15413   7.327  10.445   7.928
  924POPC   C4A15414   7.404  10.716   7.579
  924POPC   C1B15415   7.780  10.304   8.822
  924POPC   C2B15416   7.912  10.272   8.416
  924POPC   C3B15417   7.853  10.449   8.007
  924POPC   C4B15418   7.766  10.362   7.584
  925POPC   NC315419  13.392  13.039   9.677
  925POPC   PO415420  12.726  12.848   9.723
  925POPC   GL115421  12.876  12.831   9.236
  925POPC   GL215422  12.929  12.506   9.094
  925POPC   C1A15423  12.904  13.047   8.780
  925POPC   D2A15424  13.080  13.239   8.374
  925POPC   C3A15425  13.235  12.905   8.121
  925POPC   C4A15426  13.199  12.796   7.695
  925POPC   C1B15427  12.853  12.574   8.664
  925POPC   C2B15428  12.777  12.808   8.318
  925POPC   C3B15429  12.703  12.723   7.901
  925POPC   C4B15430  12.733  12.753   7.464
  926POPC   NC315431  24.900  35.045   9.526
  926POPC   PO415432  25.417  34.621   9.590
  926POPC   GL115433  25.275  34.641   9.198
  926POPC   GL215434  25.473  34.338   9.086
  926POPC   C1A15435  25.202  34.694   8.761
  926POPC   D2A15436  25.025  34.565   8.356
  926POPC   C3A15437  25.374  34.532   8.037
  926POPC   C4A15438  25.544  34.787   7.710
  926POPC   C1B15439  25.198  34.160   8.751
  926POPC   C2B15440  25.249  34.103   8.310
  926POPC   C3B15441  24.975  34.214   7.972
  926POPC   C4B15442  24.884  34.451   7.623
  927POPC   NC315443  35.195  26.761   9.552
  927POPC   PO415444  35.688  27.168   9.540
  927POPC   GL115445  35.505  27.007   9.177
  927POPC   GL215446  35.118  26.984   9.110
  927POPC   C1A15447  35.507  26.650   8.945
  927POPC   D2A15448  35.513  26.660   8.524
  927POPC   C3A15449  35.436  26.988   8.216
  927POPC   C4A15450  35.424  26.830   7.788
  927POPC   C1B15451  35.032  26.678   8.778
  927POPC   C2B15452  35.048  26.656   8.310
  927POPC   C3B15453  34.927  26.700   7.873
  927POPC   C4B15454  34.983  26.943   7.492
  928POPC   NC315455  37.554  35.487   9.751
  928POPC   PO415456  37.932  35.003   9.488
  928POPC   GL115457  37.639  35.282   9.255
  928POPC   GL215458  37.390  35.029   9.172
  928POPC   C1A15459  37.672  35.561   8.838
  928POPC   D2A15460  37.884  35.694   8.451
  928POPC   C3A15461  37.712  35.595   8.023
  928POPC   C4A15462  37.837  35.569   7.580
  928POPC   C1B15463  37.696  35.062   8.817
  928POPC   C2B15464  37.643  35.225   8.391
  928POPC   C3B15465  37.702  35.087   7.949
  928POPC   C4B15466  37.810  35.074   7.526
  929POPC   NC315467  15.783  14.437   9.663
  929POPC   PO415468  16.379  14.698   9.452
  929POPC   GL115469  16.015  14.402   9.201
  929POPC   GL215470  15.835  14.583   8.976
  929POPC   C1A15471  15.837  14.097   8.810
  929POPC   D2A15472  15.657  14.122   8.372
  929POPC   C3A15473  15.912  13.984   7.983
  929POPC   C4A15474  15.900  14.107   7.519
  929POPC   C1B15475  16.209  14.431   8.734
  929POPC   C2B15476  16.131  14.309   8.335
  929POPC   C3B15477  15.965  14.469   7.956
  929POPC   C4B15478  16.156  14.534   7.565
  930POPC   NC315479  40.929  22.670   9.452
  930POPC   PO415480  40.655  23.280   9.537
  930POPC   GL115481  40.762  23.057   9.141
  930POPC   GL215482  40.499  22.801   9.170
  930POPC   C1A15483  40.858  22.949   8.689
  930POPC   D2A15484  41.114  23.013   8.306
  930POPC   C3A15485  40.790  23.075   8.020
  930POPC   C4A15486  40.788  22.746   7.753
  930POPC   C1B15487  40.544  22.567   8.797
  930POPC   C2B15488  40.451  22.617   8.342
  930POPC   C3B15489  40.401  22.413   7.917
  930POPC   C4B15490  40.395  22.554   7.465
  931POPC   NC315491  33.286   1.646   9.447
  931POPC   PO415492  32.718   2.035   9.546
  931POPC   GL115493  32.688   1.951   9.174
  931POPC   GL215494  32.973   2.122   9.051
  931POPC   C1A15495  32.556   1.941   8.791
  931POPC   D2A15496  32.763   2.160   8.537
  931POPC   C3A15497  32.736   2.104   8.101
  931POPC   C4A15498  32.929   2.076   7.708
  931POPC   C1B15499  33.261   2.062   8.716
  931POPC   C2B15500  33.188   1.968   8.288
  931POPC   C3B15501  33.383   1.933   7.896
  931POPC   C4B15502  33.623   1.578   7.809
  932POPC   NC315503  38.647  24.317   9.526
  932POPC   PO415504  38.411  24.929   9.648
  932POPC   GL115505  38.394  24.682   9.236
  932POPC   GL215506  38.219  24.409   9.192
  932POPC   C1A15507  38.254  24.703   8.796
  932POPC   D2A15508  38.373  24.513   8.433
  932POPC   C3A15509  38.231  24.555   8.060
  932POPC   C4A15510  38.504  24.535   7.749
  932POPC   C1B15511  38.483  24.248   8.846
  932POPC   C2B15512  38.371  24.000   8.458
  932POPC   C3B15513  38.206  24.013   8.013
  932POPC   C4B15514  38.095  24.265   7.655
  933POPC   NC315515  31.968  30.277   9.642
  933POPC   PO415516  31.495  29.760   9.451
  933POPC   GL115517  31.558  29.939   9.093
  933POPC   GL215518  31.768  30.206   9.167
  933POPC   C1A15519  31.347  29.844   8.713
  933POPC   D2A15520  31.397  30.018   8.326
  933POPC   C3A15521  31.493  29.777   7.986
  933POPC   C4A15522  31.349  29.816   7.582
  933POPC   C1B15523  31.754  30.191   8.712
  933POPC   C2B15524  31.733  30.419   8.366
  933POPC   C3B15525  31.628  30.296   7.952
  933POPC   C4B15526  31.781  30.497   7.642
  934POPC   NC315527   7.612  35.885   9.756
  934POPC   PO415528   6.994  36.123   9.462
  934POPC   GL115529   7.348  36.192   9.150
  934POPC   GL215530   7.566  35.889   9.049
  934POPC   C1A15531   7.481  36.334   8.750
  934POPC   D2A15532   7.295  36.262   8.379
  934POPC   C3A15533   7.450  36.351   7.993
  934POPC   C4A15534   7.287  36.141   7.676
  934POPC   C1B15535   7.407  35.830   8.620
  934POPC   C2B15536   7.393  35.781   8.160
  934POPC   C3B15537   7.687  35.879   7.820
  934POPC   C4B15538   7.614  35.814   7.349
  935POPC   NC315539  36.538   5.169   9.400
  935POPC   PO415540  36.019   4.714   9.401
  935POPC   GL115541  36.127   4.982   9.113
  935POPC   GL215542  36.085   5.311   9.228
  935POPC   C1A15543  36.317   4.962   8.743
  935POPC   D2A15544  36.430   5.131   8.335
  935POPC   C3A15545  36.194   5.080   7.953
  935POPC   C4A15546  36.269   4.997   7.502
  935POPC   C1B15547  36.044   5.401   8.784
  935POPC   C2B15548  36.010   5.469   8.338
  935POPC   C3B15549  36.259   5.653   8.015
  935POPC   C4B15550  36.324   5.492   7.610
  936POPC   NC315551  34.901  23.635   9.483
  936POPC   PO415552  35.546  23.828   9.384
  936POPC   GL115553  35.304  23.665   9.112
  936POPC   GL215554  35.081  23.935   9.121
  936POPC   C1A15555  35.300  23.458   8.699
  936POPC   D2A15556  35.459  23.413   8.298
  936POPC   C3A15557  35.204  23.348   7.938
  936POPC   C4A15558  35.355  23.564   7.574
  936POPC   C1B15559  35.288  23.968   8.722
  936POPC   C2B15560  35.141  23.835   8.363
  936POPC   C3B15561  35.239  23.858   7.966
  936POPC   C4B15562  35.014  24.049   7.657
  937POPC   NC315563  33.755  16.397   9.726
  937POPC   PO415564  33.841  17.025   9.464
  937POPC   GL115565  33.916  16.840   9.076
  937POPC   GL215566  34.031  16.513   9.202
  937POPC   C1A15567  33.895  16.894   8.611
  937POPC   D2A15568  33.629  16.682   8.295
  937POPC   C3A15569  33.437  16.882   7.951
  937POPC   C4A15570  33.706  16.760   7.623
  937POPC   C1B15571  33.787  16.424   8.803
  937POPC   C2B15572  34.007  16.388   8.423
  937POPC   C3B15573  34.053  16.571   8.010
  937POPC   C4B15574  34.020  16.378   7.630
  938POPC   NC315575  31.858  31.917   9.809
  938POPC   PO415576  31.404  32.367   9.487
  938POPC   GL115577  31.380  32.161   9.076
  938POPC   GL215578  31.724  32.057   9.011
  938POPC   C1A15579  31.163  31.929   8.737
  938POPC   D2A15580  31.176  31.868   8.331
  938POPC   C3A15581  31.297  32.194   8.131
  938POPC   C4A15582  31.540  32.320   7.801
  938POPC   C1B15583  31.564  32.212   8.605
  938POPC   C2B15584  31.748  32.394   8.285
  938POPC   C3B15585  32.007  32.187   8.025
  938POPC   C4B15586  31.889  31.958   7.668
  939POPC   NC315587  36.237  40.985   9.597
  939POPC   PO415588  36.011  41.629   9.529
  939POPC   GL115589  35.984  41.683   9.090
  939POPC   GL215590  35.860  41.374   8.987
  939POPC   C1A15591  36.003  41.780   8.660
  939POPC   D2A15592  36.095  41.609   8.291
  939POPC   C3A15593  36.161  41.809   7.932
  939POPC   C4A15594  35.889  41.688   7.587
  939POPC   C1B15595  35.969  41.092   8.650
  939POPC   C2B15596  35.936  41.115   8.225
  939POPC   C3B15597  36.092  41.313   7.876
  939POPC   C4B15598  36.318  41.446   7.536
  940POPC   NC315599  38.468  10.261   9.558
  940POPC   PO415600  37.995  10.712   9.631
  940POPC   GL115601  38.233  10.574   9.232
  940POPC   GL215602  38.560  10.547   9.094
  940POPC   C1A15603  38.153  10.463   8.797
  940POPC   D2A15604  38.090  10.670   8.394
  940POPC   C3A15605  38.365  10.563   8.072
  940POPC   C4A15606  38.288  10.422   7.658
  940POPC   C1B15607  38.885  10.531   8.771
  940POPC   C2B15608  39.007  10.535   8.356
  940POPC   C3B15609  38.872  10.420   7.963
  940POPC   C4B15610  38.746  10.775   7.775
  941POPC   NC315611  39.040  18.585   9.518
  941POPC   PO415612  39.127  19.180   9.640
  941POPC   GL115613  39.207  18.973   9.232
  941POPC   GL215614  38.883  18.867   9.110
  941POPC   C1A15615  39.361  18.855   8.818
  941POPC   D2A15616  39.306  18.660   8.422
  941POPC   C3A15617  39.250  18.908   8.080
  941POPC   C4A15618  39.436  18.938   7.732
  941POPC   C1B15619  39.005  19.216   8.830
  941POPC   C2B15620  39.171  19.263   8.439
  941POPC   C3B15621  39.108  19.396   8.006
  941POPC   C4B15622  39.209  19.343   7.544
  942POPC   NC315623  13.621  31.467   9.710
  942POPC   PO415624  13.910  31.146   9.161
  942POPC   GL115625  13.704  31.368   8.975
  942POPC   GL215626  13.675  31.618   9.192
  942POPC   C1A15627  13.792  31.412   8.572
  942POPC   D2A15628  13.580  31.270   8.268
  942POPC   C3A15629  13.878  31.195   7.945
  942POPC   C4A15630  13.614  31.457   7.766
  942POPC   C1B15631  13.558  31.815   8.813
  942POPC   C2B15632  13.469  31.768   8.390
  942POPC   C3B15633  13.314  31.791   7.986
  942POPC   C4B15634  13.639  31.967   7.668
  943POPC   NC315635  32.966   6.095   9.347
  943POPC   PO415636  32.742   6.645   9.619
  943POPC   GL115637  32.932   6.657   9.165
  943POPC   GL215638  32.884   6.376   8.963
  943POPC   C1A15639  33.103   6.777   8.734
  943POPC   D2A15640  32.989   6.918   8.306
  943POPC   C3A15641  33.079   6.605   8.004
  943POPC   C4A15642  33.048   6.629   7.577
  943POPC   C1B15643  33.163   6.220   8.706
  943POPC   C2B15644  33.091   6.100   8.302
  943POPC   C3B15645  32.784   6.097   8.063
  943POPC   C4B15646  32.793   6.221   7.695
  944POPC   NC315647  15.774   3.518   9.604
  944POPC   PO415648  16.398   3.793   9.620
  944POPC   GL115649  16.184   3.484   9.247
  944POPC   GL215650  15.823   3.397   9.124
  944POPC   C1A15651  16.170   3.420   8.761
  944POPC   D2A15652  16.309   3.602   8.358
  944POPC   C3A15653  16.231   3.576   7.884
  944POPC   C4A15654  16.389   3.452   7.428
  944POPC   C1B15655  15.593   3.367   8.740
  944POPC   C2B15656  15.757   3.383   8.311
  944POPC   C3B15657  15.683   3.542   7.866
  944POPC   C4B15658  15.433   3.591   7.448
  945POPC   NC315659  11.552  32.697   9.452
  945POPC   PO415660  10.862  32.690   9.469
  945POPC   GL115661  11.141  32.426   9.193
  945POPC   GL215662  11.285  32.690   8.991
  945POPC   C1A15663  11.227  32.185   8.775
  945POPC   D2A15664  11.047  32.334   8.370
  945POPC   C3A15665  11.120  32.091   7.994
  945POPC   C4A15666  11.420  31.830   7.799
  945POPC   C1B15667  11.646  32.449   8.804
  945POPC   C2B15668  11.656  32.158   8.435
  945POPC   C3B15669  11.734  32.204   8.001
  945POPC   C4B15670  11.620  32.226   7.542
  946POPC   NC315671  36.665  32.993   9.518
  946POPC   PO415672  37.299  32.647   9.577
  946POPC   GL115673  37.059  32.795   9.192
  946POPC   GL215674  36.708  32.727   9.080
  946POPC   C1A15675  37.109  33.064   8.812
  946POPC   D2A15676  37.200  32.937   8.354
  946POPC   C3A15677  37.068  33.174   7.991
  946POPC   C4A15678  36.630  33.304   7.840
  946POPC   C1B15679  36.728  32.793   8.613
  946POPC   C2B15680  36.635  32.927   8.201
  946POPC   C3B15681  36.768  32.826   7.787
  946POPC   C4B15682  37.204  32.706   7.760
  947POPC   NC315683  12.497   0.875   9.432
  947POPC   PO415684  12.811   0.230   9.531
  947POPC   GL115685  12.734   0.436   9.164
  947POPC   GL215686  13.055   0.551   9.118
  947POPC   C1A15687  12.683   0.485   8.725
  947POPC   D2A15688  12.836   0.576   8.294
  947POPC   C3A15689  12.691   0.403   7.925
  947POPC   C4A15690  12.937   0.506   7.583
  947POPC   C1B15691  13.152   0.284   8.783
  947POPC   C2B15692  13.165   0.012   8.436
  947POPC   C3B15693  13.096   0.128   8.008
  947POPC   C4B15694  13.272   0.134   7.583
  948POPC   NC315695  11.111  27.407   9.320
  948POPC   PO415696  11.622  27.824   9.244
  948POPC   GL115697  11.427  27.611   8.965
  948POPC   GL215698  11.586  27.306   9.035
  948POPC   C1A15699  11.068  27.538   8.687
  948POPC   D2A15700  10.856  27.373   8.334
  948POPC   C3A15701  10.963  27.600   8.003
  948POPC   C4A15702  11.164  27.734   7.665
  948POPC   C1B15703  11.545  27.303   8.589
  948POPC   C2B15704  11.389  27.560   8.282
  948POPC   C3B15705  11.422  27.359   7.920
  948POPC   C4B15706  11.714  27.207   7.663
  949POPC   NC315707  44.109  12.229   9.480
  949POPC   PO415708  43.729  11.638   9.466
  949POPC   GL115709  43.946  11.890   9.117
  949POPC   GL215710  43.799  12.269   9.065
  949POPC   C1A15711  43.928  12.014   8.664
  949POPC   D2A15712  43.636  12.143   8.339
  949POPC   C3A15713  43.771  12.042   7.929
  949POPC   C4A15714  44.062  11.744   7.802
  949POPC   C1B15715  43.950  12.522   8.660
  949POPC   C2B15716  43.939  12.529   8.191
  949POPC   C3B15717  43.783  12.523   7.760
  949POPC   C4B15718  43.719  12.625   7.308
  950POPC   NC315719   5.225  29.037   9.708
  950POPC   PO415720   4.635  29.201   9.588
  950POPC   GL115721   4.962  29.329   9.334
  950POPC   GL215722   5.137  29.034   9.197
  950POPC   C1A15723   4.934  29.424   8.897
  950POPC   D2A15724   4.837  29.168   8.520
  950POPC   C3A15725   4.991  29.261   8.099
  950POPC   C4A15726   4.893  29.055   7.716
  950POPC   C1B15727   5.286  29.095   8.775
  950POPC   C2B15728   5.352  29.428   8.456
  950POPC   C3B15729   5.519  29.356   8.057
  950POPC   C4B15730   5.422  28.986   7.840
  951POPC   NC315731   0.210   5.473   9.409
  951POPC   PO415732   0.660   5.957   9.700
  951POPC   GL115733   0.463   5.909   9.251
  951POPC   GL215734   0.615   5.589   9.134
  951POPC   C1A15735   0.225   5.830   8.813
  951POPC   D2A15736   0.145   6.040   8.396
  951POPC   C3A15737   0.121   5.824   7.980
  951POPC   C4A15738   0.344   5.912   7.574
  951POPC   C1B15739   0.703   5.662   8.703
  951POPC   C2B15740   0.474   5.627   8.354
  951POPC   C3B15741   0.639   5.750   7.984
  951POPC   C4B15742   0.883   5.569   7.717
  952POPC   NC315743  34.552  31.621   9.574
  952POPC   PO415744  34.560  31.018   9.453
  952POPC   GL115745  34.449  31.288   9.152
  952POPC   GL215746  34.814  31.262   9.066
  952POPC   C1A15747  34.452  31.234   8.697
  952POPC   D2A15748  34.701  31.211   8.285
  952POPC   C3A15749  34.464  31.362   7.921
  952POPC   C4A15750  34.484  31.773   7.729
  952POPC   C1B15751  34.768  31.682   8.899
  952POPC   C2B15752  34.959  31.909   8.545
  952POPC   C3B15753  34.865  31.748   8.128
  952POPC   C4B15754  34.988  31.908   7.744
  953POPC   NC315755  43.311  25.867   9.357
  953POPC   PO415756  42.588  25.728   9.435
  953POPC   GL115757  42.822  25.977   9.126
  953POPC   GL215758  43.050  26.264   9.136
  953POPC   C1A15759  42.965  25.989   8.709
  953POPC   D2A15760  43.027  25.784   8.363
  953POPC   C3A15761  42.958  26.004   8.028
  953POPC   C4A15762  43.070  25.749   7.686
  953POPC   C1B15763  43.414  26.198   8.816
  953POPC   C2B15764  43.496  25.979   8.428
  953POPC   C3B15765  43.463  25.930   7.975
  953POPC   C4B15766  43.250  26.238   7.656
  954POPC   NC315767  10.746  41.331   9.791
  954POPC   PO415768  10.258  41.104   9.372
  954POPC   GL115769  10.284  40.947   9.046
  954POPC   GL215770  10.450  40.669   9.117
  954POPC   C1A15771  10.462  40.991   8.655
  954POPC   D2A15772  10.315  41.096   8.280
  954POPC   C3A15773  10.579  41.030   7.941
  954POPC   C4A15774  10.817  41.034   7.574
  954POPC   C1B15775  10.606  40.493   8.719
  954POPC   C2B15776  10.724  40.630   8.303
  954POPC   C3B15777  10.739  40.552   7.864
  954POPC   C4B15778  10.474  40.653   7.555
  955POPC   NC315779   0.066  42.365   9.634
  955POPC   PO415780  44.434  42.274   9.633
  955POPC   GL115781  44.619  42.392   9.281
  955POPC   GL215782  44.634  42.074   9.128
  955POPC   C1A15783  44.569  42.557   8.891
  955POPC   D2A15784  44.712  42.691   8.507
  955POPC   C3A15785  44.640  42.430   8.156
  955POPC   C4A15786  44.393  42.566   7.840
  955POPC   C1B15787  44.693  42.095   8.667
  955POPC   C2B15788  44.412  41.968   8.342
  955POPC   C3B15789  44.371  42.013   7.911
  955POPC   C4B15790  44.718  42.072   7.662
  956POPC   NC315791  42.273  28.151   9.447
  956POPC   PO415792  42.161  27.544   9.469
  956POPC   GL115793  42.424  27.597   9.130
  956POPC   GL215794  42.430  27.259   9.009
  956POPC   C1A15795  42.337  27.717   8.722
  956POPC   D2A15796  42.437  27.836   8.317
  956POPC   C3A15797  42.169  27.715   7.965
  956POPC   C4A15798  42.316  27.688   7.541
  956POPC   C1B15799  42.620  27.284   8.602
  956POPC   C2B15800  42.445  27.337   8.206
  956POPC   C3B15801  42.481  27.279   7.789
  956POPC   C4B15802  42.381  27.220   7.340
  957POPC   NC315803   3.459  43.023   9.582
  957POPC   PO415804   4.115  42.915   9.596
  957POPC   GL115805   3.849  43.113   9.204
  957POPC   GL215806   3.593  42.918   9.122
  957POPC   C1A15807   3.577  43.282   8.791
  957POPC   D2A15808   3.293  43.301   8.443
  957POPC   C3A15809   3.334  43.522   8.024
  957POPC   C4A15810   3.589  43.446   7.658
  957POPC   C1B15811   3.745  42.797   8.747
  957POPC   C2B15812   3.505  42.836   8.379
  957POPC   C3B15813   3.556  43.058   8.024
  957POPC   C4B15814   3.479  42.895   7.631
  958POPC   NC315815   1.506  33.870   9.497
  958POPC   PO415816   1.028  33.410   9.428
  958POPC   GL115817   1.245  33.571   9.094
  958POPC   GL215818   1.269  33.942   9.058
  958POPC   C1A15819   1.065  33.627   8.698
  958POPC   D2A15820   1.116  33.774   8.282
  958POPC   C3A15821   1.433  33.622   8.096
  958POPC   C4A15822   1.328  33.455   7.723
  958POPC   C1B15823   1.150  34.123   8.669
  958POPC   C2B15824   1.415  34.191   8.287
  958POPC   C3B15825   1.343  34.059   7.851
  958POPC   C4B15826   1.188  33.873   7.451
  959POPC   NC315827  12.362  41.854   9.509
  959POPC   PO415828  11.935  41.371   9.497
  959POPC   GL115829  11.998  41.492   9.097
  959POPC   GL215830  12.075  41.832   9.108
  959POPC   C1A15831  11.948  41.630   8.657
  959POPC   D2A15832  11.658  41.633   8.326
  959POPC   C3A15833  11.794  41.665   7.906
  959POPC   C4A15834  12.062  41.360   7.784
  959POPC   C1B15835  12.383  41.884   8.790
  959POPC   C2B15836  12.247  41.951   8.375
  959POPC   C3B15837  12.329  41.743   8.014
  959POPC   C4B15838  12.244  41.814   7.611
  960POPC   NC315839  13.114  19.276   9.517
  960POPC   PO415840  12.592  18.839   9.449
  960POPC   GL115841  12.809  19.004   9.099
  960POPC   GL215842  13.168  19.087   9.069
  960POPC   C1A15843  12.629  19.026   8.706
  960POPC   D2A15844  12.404  19.214   8.351
  960POPC   C3A15845  12.557  19.063   7.980
  960POPC   C4A15846  12.489  19.070   7.549
  960POPC   C1B15847  13.140  19.008   8.671
  960POPC   C2B15848  12.936  19.132   8.324
  960POPC   C3B15849  13.066  19.149   7.920
  960POPC   C4B15850  13.273  18.932   7.687
  961POPC   NC315851  10.824  17.994   9.522
  961POPC   PO415852  10.526  17.375   9.648
  961POPC   GL115853  10.491  17.605   9.185
  961POPC   GL215854  10.238  17.388   8.988
  961POPC   C1A15855  10.620  17.558   8.729
  961POPC   D2A15856  10.484  17.537   8.287
  961POPC   C3A15857  10.834  17.605   8.002
  961POPC   C4A15858  10.803  17.949   7.717
  961POPC   C1B15859  10.287  17.117   8.645
  961POPC   C2B15860  10.333  17.068   8.220
  961POPC   C3B15861  10.507  17.236   7.822
  961POPC   C4B15862  10.359  17.397   7.435
  962POPC   NC315863  30.354  14.643   9.443
  962POPC   PO415864  29.809  14.226   9.543
  962POPC   GL115865  29.744  14.413   9.152
  962POPC   GL215866  30.080  14.386   9.097
  962POPC   C1A15867  29.703  14.249   8.766
  962POPC   D2A15868  29.915  14.401   8.443
  962POPC   C3A15869  29.817  14.208   8.096
  962POPC   C4A15870  29.733  14.441   7.752
  962POPC   C1B15871  30.159  14.695   8.799
  962POPC   C2B15872  30.392  14.614   8.429
  962POPC   C3B15873  30.222  14.531   8.021
  962POPC   C4B15874  30.070  14.831   7.703
  963POPC   NC315875  16.440  14.217   9.410
  963POPC   PO415876  17.081  14.406   9.532
  963POPC   GL115877  16.921  14.195   9.183
  963POPC   GL215878  17.126  13.913   9.200
  963POPC   C1A15879  16.717  14.273   8.772
  963POPC   D2A15880  16.603  14.526   8.394
  963POPC   C3A15881  16.502  14.348   7.974
  963POPC   C4A15882  16.641  14.658   7.682
  963POPC   C1B15883  17.217  14.048   8.788
  963POPC   C2B15884  17.078  14.256   8.401
  963POPC   C3B15885  16.998  14.470   8.017
  963POPC   C4B15886  17.017  14.301   7.630
  964POPC   NC315887  41.169  20.621   9.194
  964POPC   PO415888  41.612  20.895   9.647
  964POPC   GL115889  41.655  20.784   9.165
  964POPC   GL215890  41.637  20.423   9.090
  964POPC   C1A15891  41.570  20.693   8.665
  964POPC   D2A15892  41.378  20.804   8.281
  964POPC   C3A15893  41.585  20.660   7.967
  964POPC   C4A15894  41.826  20.852   7.726
  964POPC   C1B15895  41.779  20.242   8.707
  964POPC   C2B15896  41.719  20.283   8.270
  964POPC   C3B15897  41.854  20.213   7.815
  964POPC   C4B15898  41.806  20.076   7.309
  965POPC   NC315899  39.377  23.636   9.465
  965POPC   PO415900  38.955  24.088   9.289
  965POPC   GL115901  39.136  23.810   9.044
  965POPC   GL215902  38.928  23.556   9.161
  965POPC   C1A15903  39.366  23.773   8.683
  965POPC   D2A15904  39.367  23.596   8.280
  965POPC   C3A15905  39.135  23.882   8.041
  965POPC   C4A15906  39.300  24.237   7.830
  965POPC   C1B15907  39.062  23.356   8.798
  965POPC   C2B15908  39.117  23.176   8.408
  965POPC   C3B15909  38.987  23.347   8.030
  965POPC   C4B15910  38.940  23.605   7.648
  966POPC   NC315911   4.388  38.688   9.508
  966POPC   PO415912   4.217  37.962   9.465
  966POPC   GL115913   4.148  38.260   9.114
  966POPC   GL215914   4.481  38.371   9.099
  966POPC   C1A15915   4.232  38.400   8.646
  966POPC   D2A15916   4.360  38.503   8.199
  966POPC   C3A15917   4.078  38.318   7.837
  966POPC   C4A15918   4.015  38.418   7.363
  966POPC   C1B15919   4.739  38.403   8.714
  966POPC   C2B15920   4.790  38.223   8.298
  966POPC   C3B15921   4.781  38.443   7.902
  966POPC   C4B15922   4.468  38.574   7.628
  967POPC   NC315923  40.817  14.561   9.409
  967POPC   PO415924  41.433  14.717   9.631
  967POPC   GL115925  41.255  14.569   9.156
  967POPC   GL215926  41.023  14.257   9.069
  967POPC   C1A15927  40.971  14.639   8.741
  967POPC   D2A15928  40.613  14.498   8.443
  967POPC   C3A15929  40.654  14.462   7.966
  967POPC   C4A15930  40.552  14.534   7.521
  967POPC   C1B15931  40.869  14.093   8.685
  967POPC   C2B15932  40.954  14.154   8.255
  967POPC   C3B15933  40.962  14.057   7.822
  967POPC   C4B15934  40.859  14.057   7.357
  968POPC   NC315935  30.149  11.482   9.682
  968POPC   PO415936  29.614  11.848   9.519
  968POPC   GL115937  29.745  11.514   9.192
  968POPC   GL215938  30.055  11.280   9.226
  968POPC   C1A15939  29.743  11.577   8.717
  968POPC   D2A15940  29.779  11.658   8.248
  968POPC   C3A15941  29.924  11.326   7.969
  968POPC   C4A15942  29.754  10.970   7.793
  968POPC   C1B15943  30.231  11.451   8.877
  968POPC   C2B15944  30.254  11.463   8.422
  968POPC   C3B15945  30.246  11.716   8.050
  968POPC   C4B15946  30.145  11.635   7.611
  969POPC   NC315947  39.663   9.420   9.509
  969POPC   PO415948  40.145   9.939   9.547
  969POPC   GL115949  40.252   9.786   9.132
  969POPC   GL215950  39.925   9.629   9.082
  969POPC   C1A15951  40.227   9.940   8.690
  969POPC   D2A15952  40.322  10.133   8.274
  969POPC   C3A15953  40.162   9.874   7.909
  969POPC   C4A15954  39.825   9.569   7.800
  969POPC   C1B15955  39.856   9.606   8.625
  969POPC   C2B15956  39.784   9.886   8.272
  969POPC   C3B15957  39.478   9.908   7.936
  969POPC   C4B15958  39.280   9.553   7.802
  970POPC   NC315959   2.937   1.847   9.365
  970POPC   PO415960   2.547   2.353   9.570
  970POPC   GL115961   2.562   2.164   9.156
  970POPC   GL215962   2.872   2.294   9.098
  970POPC   C1A15963   2.462   1.809   8.843
  970POPC   D2A15964   2.389   1.607   8.422
  970POPC   C3A15965   2.668   1.669   8.052
  970POPC   C4A15966   2.740   1.787   7.601
  970POPC   C1B15967   2.869   2.075   8.707
  970POPC   C2B15968   2.573   2.097   8.368
  970POPC   C3B15969   2.660   2.210   7.925
  970POPC   C4B15970   3.059   2.315   7.797
  971POPC   NC315971  27.122  13.857   9.434
  971POPC   PO415972  26.656  13.359   9.513
  971POPC   GL115973  26.863  13.484   9.179
  971POPC   GL215974  26.660  13.777   9.135
  971POPC   C1A15975  27.071  13.581   8.802
  971POPC   D2A15976  26.881  13.733   8.488
  971POPC   C3A15977  26.932  13.635   8.053
  971POPC   C4A15978  26.635  13.751   7.787
  971POPC   C1B15979  26.562  13.449   8.780
  971POPC   C2B15980  26.468  13.495   8.320
  971POPC   C3B15981  26.537  13.279   7.931
  971POPC   C4B15982  26.345  13.284   7.510
  972POPC   NC315983   7.552   0.965   9.582
  972POPC   PO415984   7.675   1.519   9.365
  972POPC   GL115985   7.510   1.202   9.088
  972POPC   GL215986   7.259   0.959   9.145
  972POPC   C1A15987   7.243   1.195   8.712
  972POPC   D2A15988   7.220   1.408   8.320
  972POPC   C3A15989   7.288   1.176   7.937
  972POPC   C4A15990   7.720   1.143   7.865
  972POPC   C1B15991   7.193   0.650   8.799
  972POPC   C2B15992   6.989   0.693   8.398
  972POPC   C3B15993   6.929   0.699   7.963
  972POPC   C4B15994   7.101   0.836   7.552
  973POPC   NC315995  30.214   1.902   9.606
  973POPC   PO415996  29.853   2.400   9.416
  973POPC   GL115997  29.814   1.974   9.205
  973POPC   GL215998  30.141   1.762   9.135
  973POPC   C1A15999  29.785   1.855   8.769
  973POPC   D2A16000  29.699   1.776   8.300
  973POPC   C3A16001  29.936   1.967   7.931
  973POPC   C4A16002  29.897   2.155   7.519
  973POPC   C1B16003  30.296   1.583   8.762
  973POPC   C2B16004  30.208   1.624   8.305
  973POPC   C3B16005  30.372   1.695   7.859
  973POPC   C4B16006  30.326   1.702   7.405
  974POPC   NC316007   0.472  24.286   9.356
  974POPC   PO416008  44.944  24.580   9.381
  974POPC   GL116009   0.270  24.632   9.013
  974POPC   GL216010   0.672  24.607   9.032
  974POPC   C1A16011   0.457  24.730   8.591
  974POPC   D2A16012   0.716  24.611   8.264
  974POPC   C3A16013   0.444  24.586   7.965
  974POPC   C4A16014   0.450  24.605   7.535
  974POPC   C1B16015   0.720  24.313   8.678
  974POPC   C2B16016   0.899  24.134   8.347
  974POPC   C3B16017   0.845  24.250   7.932
  974POPC   C4B16018   0.511  24.118   7.706
  975POPC   NC316019   9.691  14.733   9.659
  975POPC   PO416020   9.583  14.188   9.243
  975POPC   GL116021   9.812  14.533   9.123
  975POPC   GL216022   9.845  14.899   9.176
  975POPC   C1A16023   9.917  14.470   8.726
  975POPC   D2A16024   9.795  14.159   8.411
  975POPC   C3A16025   9.718  14.287   7.992
  975POPC   C4A16026   9.472  14.199   7.617
  975POPC   C1B16027   9.691  14.915   8.747
  975POPC   C2B16028   9.661  14.705   8.362
  975POPC   C3B16029   9.891  14.794   8.017
  975POPC   C4B16030   9.699  14.667   7.656
  976POPC   NC316031  18.523  34.767   9.373
  976POPC   PO416032  18.468  34.154   9.645
  976POPC   GL116033  18.330  34.275   9.244
  976POPC   GL216034  18.674  34.281   9.192
  976POPC   C1A16035  18.228  34.514   8.847
  976POPC   D2A16036  18.218  34.743   8.455
  976POPC   C3A16037  18.298  34.634   8.061
  976POPC   C4A16038  18.604  34.752   7.788
  976POPC   C1B16039  18.583  34.110   8.798
  976POPC   C2B16040  18.501  34.312   8.421
  976POPC   C3B16041  18.694  34.303   8.025
  976POPC   C4B16042  18.400  34.245   7.728
  977POPC   NC316043  43.915  17.587   9.655
  977POPC   PO416044  43.745  17.083   9.224
  977POPC   GL116045  43.740  17.546   9.161
  977POPC   GL216046  44.084  17.576   9.153
  977POPC   C1A16047  43.806  17.650   8.717
  977POPC   D2A16048  43.939  17.273   8.427
  977POPC   C3A16049  43.924  17.411   7.996
  977POPC   C4A16050  43.748  17.760   7.742
  977POPC   C1B16051  44.296  17.492   8.749
  977POPC   C2B16052  44.203  17.707   8.348
  977POPC   C3B16053  44.344  17.797   7.937
  977POPC   C4B16054  44.198  17.973   7.571
  978POPC   NC316055  12.031   4.349   9.510
  978POPC   PO416056  11.763   4.983   9.456
  978POPC   GL116057  11.795   4.635   9.128
  978POPC   GL216058  11.901   4.260   9.049
  978POPC   C1A16059  11.893   4.641   8.698
  978POPC   D2A16060  11.940   4.344   8.373
  978POPC   C3A16061  12.092   4.484   7.986
  978POPC   C4A16062  11.821   4.620   7.696
  978POPC   C1B16063  11.952   3.973   8.737
  978POPC   C2B16064  11.793   3.867   8.341
  978POPC   C3B16065  11.875   4.030   7.915
  978POPC   C4B16066  11.853   3.873   7.508
  979POPC   NC316067  17.133  34.239   9.353
  979POPC   PO416068  17.800  34.451   9.376
  979POPC   GL116069  17.475  34.523   9.072
  979POPC   GL216070  17.389  34.874   8.969
  979POPC   C1A16071  17.336  34.478   8.648
  979POPC   D2A16072  17.260  34.590   8.240
  979POPC   C3A16073  17.532  34.325   7.964
  979POPC   C4A16074  17.496  34.433   7.536
  979POPC   C1B16075  17.761  34.799   8.705
  979POPC   C2B16076  17.766  34.668   8.275
  979POPC   C3B16077  17.600  34.832   7.936
  979POPC   C4B16078  17.648  34.913   7.543
  980POPC   NC316079  42.192  19.287   9.451
  980POPC   PO416080  42.670  18.900   9.491
  980POPC   GL116081  42.433  18.985   9.125
  980POPC   GL216082  42.529  19.331   9.033
  980POPC   C1A16083  42.258  18.845   8.749
  980POPC   D2A16084  42.285  19.042   8.381
  980POPC   C3A16085  42.121  18.772   8.098
  980POPC   C4A16086  42.142  18.805   7.712
  980POPC   C1B16087  42.142  19.331   8.783
  980POPC   C2B16088  41.896  19.365   8.393
  980POPC   C3B16089  42.028  19.285   7.965
  980POPC   C4B16090  41.968  19.249   7.521
  981POPC   NC316091  21.125   1.604   9.480
  981POPC   PO416092  21.098   0.970   9.484
  981POPC   GL116093  21.315   1.170   9.196
  981POPC   GL216094  21.642   1.324   9.239
  981POPC   C1A16095  21.457   1.013   8.813
  981POPC   D2A16096  21.311   1.202   8.442
  981POPC   C3A16097  21.486   1.192   8.038
  981POPC   C4A16098  21.247   1.401   7.720
  981POPC   C1B16099  21.415   1.514   8.855
  981POPC   C2B16100  21.501   1.700   8.478
  981POPC   C3B16101  21.588   1.717   8.059
  981POPC   C4B16102  21.683   1.632   7.669
  982POPC   NC316103   1.523  33.215   9.439
  982POPC   PO416104   1.093  32.803   9.774
  982POPC   GL116105   1.128  32.881   9.310
  982POPC   GL216106   1.405  32.713   9.179
  982POPC   C1A16107   1.208  33.106   8.873
  982POPC   D2A16108   1.304  33.245   8.455
  982POPC   C3A16109   1.192  32.963   8.151
  982POPC   C4A16110   0.988  33.079   7.781
  982POPC   C1B16111   1.651  32.747   8.785
  982POPC   C2B16112   1.699  32.845   8.382
  982POPC   C3B16113   1.609  32.667   7.998
  982POPC   C4B16114   1.249  32.644   7.729
  983POPC   NC316115  39.330  22.639   9.413
  983POPC   PO416116  39.040  23.282   9.552
  983POPC   GL116117  39.309  23.165   9.224
  983POPC   GL216118  39.032  22.976   9.133
  983POPC   C1A16119  39.433  22.988   8.805
  983POPC   D2A16120  39.415  22.744   8.408
  983POPC   C3A16121  39.452  23.021   8.035
  983POPC   C4A16122  39.261  23.150   7.653
  983POPC   C1B16123  38.869  22.862   8.746
  983POPC   C2B16124  38.909  22.709   8.360
  983POPC   C3B16125  38.867  22.832   7.998
  983POPC   C4B16126  39.001  22.714   7.652
  984POPC   NC316127  30.980  27.501   9.550
  984POPC   PO416128  30.612  27.962   9.576
  984POPC   GL116129  30.684  27.703   9.187
  984POPC   GL216130  31.044  27.762   9.097
  984POPC   C1A16131  30.579  27.517   8.778
  984POPC   D2A16132  30.780  27.349   8.377
  984POPC   C3A16133  30.637  27.455   7.962
  984POPC   C4A16134  30.807  27.346   7.553
  984POPC   C1B16135  30.788  27.980   8.789
  984POPC   C2B16136  30.606  27.867   8.392
  984POPC   C3B16137  30.812  27.931   8.023
  984POPC   C4B16138  30.814  27.854   7.638
  985POPC   NC316139   6.563  44.467   9.460
  985POPC   PO416140   7.163  44.172   9.560
  985POPC   GL116141   6.930  44.306   9.093
  985POPC   GL216142   6.623  44.587   8.984
  985POPC   C1A16143   7.032  44.573   8.707
  985POPC   D2A16144   6.938  44.831   8.344
  985POPC   C3A16145   6.663  44.699   8.038
  985POPC   C4A16146   6.741  44.696   7.612
  985POPC   C1B16147   6.519  44.629   8.547
  985POPC   C2B16148   6.365  44.332   8.230
  985POPC   C3B16149   6.153  44.572   7.910
  985POPC   C4B16150   6.318  44.972   7.735
  986POPC   NC316151  21.464  22.607   9.407
  986POPC   PO416152  20.953  23.083   9.436
  986POPC   GL116153  21.253  23.024   9.065
  986POPC   GL216154  21.535  23.292   8.974
  986POPC   C1A16155  21.296  22.726   8.724
  986POPC   D2A16156  21.582  22.656   8.327
  986POPC   C3A16157  21.492  22.884   7.892
  986POPC   C4A16158  21.446  22.720   7.467
  986POPC   C1B16159  21.545  23.122   8.562
  986POPC   C2B16160  21.200  23.002   8.295
  986POPC   C3B16161  20.965  23.139   7.974
  986POPC   C4B16162  21.045  23.018   7.575
  987POPC   NC316163  12.608  31.210   9.398
  987POPC   PO416164  13.161  31.541   9.694
  987POPC   GL116165  13.179  31.519   9.211
  987POPC   GL216166  12.844  31.587   9.049
  987POPC   C1A16167  13.251  31.401   8.751
  987POPC   D2A16168  13.022  31.505   8.370
  987POPC   C3A16169  13.108  31.285   7.998
  987POPC   C4A16170  12.984  31.526   7.655
  987POPC   C1B16171  12.580  31.869   8.750
  987POPC   C2B16172  12.536  31.712   8.310
  987POPC   C3B16173  12.534  31.475   7.944
  987POPC   C4B16174  12.657  31.077   7.746
  988POPC   NC316175  26.736  27.741   9.447
  988POPC   PO416176  26.983  27.110   9.539
  988POPC   GL116177  26.880  27.331   9.213
  988POPC   GL216178  26.490  27.314   9.306
  988POPC   C1A16179  26.971  27.608   8.857
  988POPC   D2A16180  26.784  27.534   8.479
  988POPC   C3A16181  27.002  27.651   8.155
  988POPC   C4A16182  26.908  27.626   7.786
  988POPC   C1B16183  26.479  27.362   8.875
  988POPC   C2B16184  26.324  27.295   8.468
  988POPC   C3B16185  26.519  27.363   8.068
  988POPC   C4B16186  26.415  27.706   7.790
  989POPC   NC316187   6.793   7.132   9.433
  989POPC   PO416188   6.298   7.500   9.396
  989POPC   GL116189   6.611   7.551   9.134
  989POPC   GL216190   6.877   7.766   9.272
  989POPC   C1A16191   6.562   7.436   8.686
  989POPC   D2A16192   6.679   7.359   8.263
  989POPC   C3A16193   6.491   7.405   7.859
  989POPC   C4A16194   6.438   7.490   7.414
  989POPC   C1B16195   6.886   7.798   8.817
  989POPC   C2B16196   6.916   7.828   8.360
  989POPC   C3B16197   6.931   7.666   7.942
  989POPC   C4B16198   6.910   7.655   7.494
  990POPC   NC316199  33.928  29.406   9.926
  990POPC   PO416200  34.480  29.288   9.509
  990POPC   GL116201  34.642  29.003   9.236
  990POPC   GL216202  34.276  28.912   9.198
  990POPC   C1A16203  34.906  29.015   8.858
  990POPC   D2A16204  34.806  28.931   8.419
  990POPC   C3A16205  34.795  29.092   8.014
  990POPC   C4A16206  34.581  29.367   7.736
  990POPC   C1B16207  34.393  28.980   8.785
  990POPC   C2B16208  34.265  28.846   8.403
  990POPC   C3B16209  34.275  29.047   8.027
  990POPC   C4B16210  34.366  28.906   7.636
  991POPC   NC316211  39.814  21.205   9.489
  991POPC   PO416212  40.315  21.696   9.419
  991POPC   GL116213  40.189  21.435   9.109
  991POPC   GL216214  39.875  21.577   9.097
  991POPC   C1A16215  40.001  21.161   8.816
  991POPC   D2A16216  39.793  21.282   8.456
  991POPC   C3A16217  40.082  21.260   8.113
  991POPC   C4A16218  40.128  20.993   7.765
  991POPC   C1B16219  39.815  21.837   8.738
  991POPC   C2B16220  39.637  21.735   8.331
  991POPC   C3B16221  39.719  21.570   7.929
  991POPC   C4B16222  39.711  21.688   7.506
  992POPC   NC316223  38.898   9.360   9.614
  992POPC   PO416224  39.295   9.852   9.678
  992POPC   GL116225  39.434   9.959   9.162
  992POPC   GL216226  39.438   9.687   8.922
  992POPC   C1A16227  39.167  10.033   8.719
  992POPC   D2A16228  39.204   9.740   8.336
  992POPC   C3A16229  38.957   9.899   7.988
  992POPC   C4A16230  39.100  10.120   7.613
  992POPC   C1B16231  39.004   9.521   8.740
  992POPC   C2B16232  39.016   9.215   8.413
  992POPC   C3B16233  39.108   9.128   8.026
  992POPC   C4B16234  38.873   9.279   7.663
  993POPC   NC316235  13.315  20.155   9.949
  993POPC   PO416236  12.956  19.768   9.520
  993POPC   GL116237  12.763  19.517   9.209
  993POPC   GL216238  12.653  19.816   9.057
  993POPC   C1A16239  12.921  19.466   8.799
  993POPC   D2A16240  12.903  19.803   8.503
  993POPC   C3A16241  12.907  19.592   8.107
  993POPC   C4A16242  12.755  19.467   7.696
  993POPC   C1B16243  12.474  20.100   8.726
  993POPC   C2B16244  12.624  20.236   8.360
  993POPC   C3B16245  12.854  20.097   8.053
  993POPC   C4B16246  12.615  19.940   7.736
  994POPC   NC316247  39.260   7.852   9.355
  994POPC   PO416248  38.930   7.340   9.329
  994POPC   GL116249  39.188   7.442   9.055
  994POPC   GL216250  39.500   7.402   9.208
  994POPC   C1A16251  39.167   7.635   8.687
  994POPC   D2A16252  39.077   7.410   8.324
  994POPC   C3A16253  38.958   7.617   7.945
  994POPC   C4A16254  39.081   7.601   7.503
  994POPC   C1B16255  39.585   7.279   8.777
  994POPC   C2B16256  39.579   7.518   8.375
  994POPC   C3B16257  39.461   7.581   7.933
  994POPC   C4B16258  39.556   7.329   7.554
  995POPC   NC316259  44.805  25.036   9.369
  995POPC   PO416260  44.442  24.523   9.726
  995POPC   GL116261  44.450  24.405   9.274
  995POPC   GL216262  44.505  24.706   9.132
  995POPC   C1A16263  44.574  24.315   8.814
  995POPC   D2A16264  44.457  24.318   8.347
  995POPC   C3A16265  44.712  24.134   8.015
  995POPC   C4A16266   0.055  24.304   7.810
  995POPC   C1B16267  44.677  24.838   8.746
  995POPC   C2B16268  44.569  24.881   8.327
  995POPC   C3B16269  44.721  24.665   7.993
  995POPC   C4B16270   0.030  24.823   7.728
  996POPC   NC316271  30.255  25.748   9.768
  996POPC   PO416272  30.885  25.805   9.535
  996POPC   GL116273  30.804  25.917   9.159
  996POPC   GL216274  30.618  26.247   9.202
  996POPC   C1A16275  31.003  26.019   8.779
  996POPC   D2A16276  31.031  26.255   8.415
  996POPC   C3A16277  30.981  25.999   8.057
  996POPC   C4A16278  30.737  25.829   7.723
  996POPC   C1B16279  30.489  26.066   8.806
  996POPC   C2B16280  30.524  26.011   8.392
  996POPC   C3B16281  30.507  26.174   8.013
  996POPC   C4B16282  30.276  26.164   7.691
  997POPC   NC316283  15.143  41.131   9.802
  997POPC   PO416284  15.037  41.715   9.503
  997POPC   GL116285  15.179  41.644   9.108
  997POPC   GL216286  15.010  41.890   8.942
  997POPC   C1A16287  15.405  41.645   8.702
  997POPC   D2A16288  15.549  41.480   8.299
  997POPC   C3A16289  15.449  41.550   7.848
  997POPC   C4A16290  15.066  41.377   7.679
  997POPC   C1B16291  14.912  41.531   8.639
  997POPC   C2B16292  15.002  41.504   8.216
  997POPC   C3B16293  15.120  41.859   8.056
  997POPC   C4B16294  15.086  41.907   7.645
  998POPC   NC316295   5.547  30.513   9.452
  998POPC   PO416296   5.025  30.831   9.612
  998POPC   GL116297   5.106  30.662   9.209
  998POPC   GL216298   4.786  30.495   9.108
  998POPC   C1A16299   5.386  30.734   8.841
  998POPC   D2A16300   5.181  30.794   8.463
  998POPC   C3A16301   5.430  30.891   8.124
  998POPC   C4A16302   5.318  30.653   7.771
  998POPC   C1B16303   4.809  30.854   8.827
  998POPC   C2B16304   4.711  30.991   8.411
  998POPC   C3B16305   4.701  30.746   8.063
  998POPC   C4B16306   4.826  30.589   7.697
  999POPC   NC316307  14.253  10.429   9.462
  999POPC   PO416308  14.756  10.055   9.443
  999POPC   GL116309  14.637  10.386   9.089
  999POPC   GL216310  14.389  10.691   9.048
  999POPC   C1A16311  14.520  10.433   8.630
  999POPC   D2A16312  14.682  10.682   8.279
  999POPC   C3A16313  14.591  10.502   7.900
  999POPC   C4A16314  14.451  10.548   7.495
  999POPC   C1B16315  14.098  10.735   8.661
  999POPC   C2B16316  14.025  10.607   8.219
  999POPC   C3B16317  13.989  10.583   7.763
  999POPC   C4B16318  14.002  10.327   7.386
 1000POPC   NC316319  39.038  36.756   9.558
 1000POPC   PO416320  39.475  37.276   9.579
 1000POPC   GL116321  39.312  37.258   9.153
 1000POPC   GL216322  39.077  36.958   9.096
 1000POPC   C1A16323  39.392  37.109   8.736
 1000POPC   D2A16324  39.118  37.019   8.404
 1000POPC   C3A16325  39.239  37.150   7.997
 1000POPC   C4A16326  39.065  37.149   7.599
 1000POPC   C1B16327  39.378  36.624   8.928
 1000POPC   C2B16328  39.345  36.358   8.528
 1000POPC   C3B16329  39.131  36.518   8.163
 1000POPC   C4B16330  39.176  36.649   7.753
 1001POPC   NC316331  30.882  16.351   9.172
 1001POPC   PO416332  30.766  15.763   9.497
 1001POPC   GL116333  30.687  15.867   9.067
 1001POPC   GL216334  30.970  16.030   8.816
 1001POPC   C1A16335  30.684  15.637   8.692
 1001POPC   D2A16336  30.900  15.844   8.359
 1001POPC   C3A16337  30.674  15.947   8.007
 1001POPC   C4A16338  30.471  15.643   7.729
 1001POPC   C1B16339  30.538  16.136   8.632
 1001POPC   C2B16340  30.357  16.357   8.277
 1001POPC   C3B16341  30.267  16.224   7.892
 1001POPC   C4B16342  30.487  16.143   7.520
 1002POPC   NC316343  38.649  13.061   9.516
 1002POPC   PO416344  38.107  12.561   9.452
 1002POPC   GL116345  38.289  12.694   9.080
 1002POPC   GL216346  38.413  13.026   9.079
 1002POPC   C1A16347  38.162  12.814   8.665
 1002POPC   D2A16348  38.355  12.714   8.283
 1002POPC   C3A16349  38.398  12.952   7.919
 1002POPC   C4A16350  38.350  12.575   7.741
 1002POPC   C1B16351  38.638  12.911   8.742
 1002POPC   C2B16352  38.667  13.122   8.387
 1002POPC   C3B16353  38.864  12.896   8.115
 1002POPC   C4B16354  38.893  12.959   7.713
 1003POPC   NC316355  37.008  44.136   9.581
 1003POPC   PO416356  37.002  43.466   9.412
 1003POPC   GL116357  36.886  43.634   9.085
 1003POPC   GL216358  36.908  43.974   9.127
 1003POPC   C1A16359  36.925  43.751   8.679
 1003POPC   D2A16360  37.045  43.982   8.359
 1003POPC   C3A16361  36.955  43.771   7.991
 1003POPC   C4A16362  37.114  43.879   7.618
 1003POPC   C1B16363  36.609  44.131   8.833
 1003POPC   C2B16364  36.505  43.982   8.469
 1003POPC   C3B16365  36.548  44.062   8.063
 1003POPC   C4B16366  36.698  44.200   7.688
 1004POPC   NC316367  38.194  19.963   9.429
 1004POPC   PO416368  38.441  20.632   9.594
 1004POPC   GL116369  38.404  20.689   9.177
 1004POPC   GL216370  38.211  20.403   9.157
 1004POPC   C1A16371  38.595  20.595   8.786
 1004POPC   D2A16372  38.612  20.372   8.406
 1004POPC   C3A16373  38.757  20.633   8.073
 1004POPC   C4A16374  38.621  20.750   7.661
 1004POPC   C1B16375  38.231  20.240   8.758
 1004POPC   C2B16376  38.092  20.378   8.374
 1004POPC   C3B16377  38.246  20.528   8.000
 1004POPC   C4B16378  38.090  20.274   7.674
 1005POPC   NC316379  37.360   0.553   9.440
 1005POPC   PO416380  37.951   0.099   9.493
 1005POPC   GL116381  37.724   0.320   9.155
 1005POPC   GL216382  37.404   0.188   9.088
 1005POPC   C1A16383  37.619   0.568   8.785
 1005POPC   D2A16384  37.529   0.439   8.341
 1005POPC   C3A16385  37.720   0.671   7.990
 1005POPC   C4A16386  37.754   0.553   7.551
 1005POPC   C1B16387  37.541   0.039   8.705
 1005POPC   C2B16388  37.497  44.798   8.351
 1005POPC   C3B16389  37.269  44.862   7.978
 1005POPC   C4B16390  37.494   0.216   7.821
 1006POPC   NC316391   1.731   5.020   9.385
 1006POPC   PO416392   2.186   5.469   9.461
 1006POPC   GL116393   2.047   5.283   9.088
 1006POPC   GL216394   2.095   4.954   9.017
 1006POPC   C1A16395   1.726   5.348   8.789
 1006POPC   D2A16396   1.697   5.450   8.365
 1006POPC   C3A16397   1.883   5.109   8.122
 1006POPC   C4A16398   2.229   5.097   7.798
 1006POPC   C1B16399   2.092   4.993   8.572
 1006POPC   C2B16400   2.335   4.828   8.208
 1006POPC   C3B16401   2.210   4.525   7.941
 1006POPC   C4B16402   1.897   4.724   7.785
 1007POPC   NC316403  35.197  38.162   9.460
 1007POPC   PO416404  35.496  37.394   9.522
 1007POPC   GL116405  35.505  37.557   9.109
 1007POPC   GL216406  35.476  37.907   9.029
 1007POPC   C1A16407  35.406  37.472   8.739
 1007POPC   D2A16408  35.516  37.317   8.342
 1007POPC   C3A16409  35.392  37.611   7.995
 1007POPC   C4A16410  35.340  37.516   7.554
 1007POPC   C1B16411  35.101  37.885   8.726
 1007POPC   C2B16412  34.937  37.913   8.319
 1007POPC   C3B16413  35.033  38.113   7.942
 1007POPC   C4B16414  35.259  38.000   7.608
 1008POPC   NC316415  36.765  33.980   9.647
 1008POPC   PO416416  37.133  33.357   9.488
 1008POPC   GL116417  36.870  33.632   9.257
 1008POPC   GL216418  36.997  33.956   9.191
 1008POPC   C1A16419  36.833  33.577   8.823
 1008POPC   D2A16420  37.068  33.458   8.468
 1008POPC   C3A16421  36.920  33.647   8.109
 1008POPC   C4A16422  37.027  33.588   7.679
 1008POPC   C1B16423  36.652  34.046   8.937
 1008POPC   C2B16424  36.754  33.990   8.511
 1008POPC   C3B16425  36.740  34.111   8.090
 1008POPC   C4B16426  36.752  34.023   7.659
 1009POPC   NC316427  24.738  33.346   9.422
 1009POPC   PO416428  24.237  33.756   9.689
 1009POPC   GL116429  24.227  33.615   9.272
 1009POPC   GL216430  24.516  33.782   9.175
 1009POPC   C1A16431  24.138  33.712   8.837
 1009POPC   D2A16432  24.378  33.736   8.452
 1009POPC   C3A16433  24.198  33.572   8.108
 1009POPC   C4A16434  24.210  33.724   7.713
 1009POPC   C1B16435  24.753  33.853   8.791
 1009POPC   C2B16436  24.898  33.742   8.371
 1009POPC   C3B16437  24.807  33.751   7.934
 1009POPC   C4B16438  24.981  33.925   7.494
 1010POPC   NC316439  20.199   2.271   9.607
 1010POPC   PO416440  20.774   1.906   9.424
 1010POPC   GL116441  20.486   2.009   9.163
 1010POPC   GL216442  20.490   2.382   9.194
 1010POPC   C1A16443  20.569   1.745   8.785
 1010POPC   D2A16444  20.532   1.829   8.383
 1010POPC   C3A16445  20.596   1.650   8.002
 1010POPC   C4A16446  20.775   1.810   7.650
 1010POPC   C1B16447  20.691   2.280   8.803
 1010POPC   C2B16448  20.552   2.334   8.412
 1010POPC   C3B16449  20.716   2.158   8.040
 1010POPC   C4B16450  20.495   2.239   7.690
 1011POPC   NC316451  15.203  23.266   9.589
 1011POPC   PO416452  14.873  23.797   9.339
 1011POPC   GL116453  15.087  23.623   8.995
 1011POPC   GL216454  15.362  23.405   9.129
 1011POPC   C1A16455  15.225  23.876   8.623
 1011POPC   D2A16456  15.379  24.065   8.215
 1011POPC   C3A16457  15.095  23.945   7.869
 1011POPC   C4A16458  14.986  23.559   7.663
 1011POPC   C1B16459  15.504  23.461   8.738
 1011POPC   C2B16460  15.341  23.492   8.327
 1011POPC   C3B16461  15.464  23.568   7.918
 1011POPC   C4B16462  15.432  23.324   7.543
 1012POPC   NC316463  33.788  28.061   9.316
 1012POPC   PO416464  33.647  27.549   9.767
 1012POPC   GL116465  33.884  27.563   9.329
 1012POPC   GL216466  33.620  27.630   9.087
 1012POPC   C1A16467  34.035  27.601   8.818
 1012POPC   D2A16468  33.873  27.741   8.377
 1012POPC   C3A16469  33.904  27.582   7.935
 1012POPC   C4A16470  34.099  27.573   7.519
 1012POPC   C1B16471  33.562  27.417   8.674
 1012POPC   C2B16472  33.427  27.242   8.268
 1012POPC   C3B16473  33.371  27.216   7.814
 1012POPC   C4B16474  33.669  27.307   7.477
 1013POPC   NC316475  31.132   3.656   9.825
 1013POPC   PO416476  31.800   3.526   9.475
 1013POPC   GL116477  31.733   3.731   9.097
 1013POPC   GL216478  31.364   3.661   9.123
 1013POPC   C1A16479  31.653   3.603   8.674
 1013POPC   D2A16480  31.353   3.395   8.399
 1013POPC   C3A16481  31.489   3.442   7.961
 1013POPC   C4A16482  31.668   3.532   7.537
 1013POPC   C1B16483  31.304   3.937   8.780
 1013POPC   C2B16484  31.425   3.904   8.350
 1013POPC   C3B16485  31.280   3.984   7.973
 1013POPC   C4B16486  30.955   3.923   7.713
 1014POPC   NC316487  38.652   6.042   9.698
 1014POPC   PO416488  38.257   5.606   9.683
 1014POPC   GL116489  38.475   5.744   9.292
 1014POPC   GL216490  38.514   6.086   9.217
 1014POPC   C1A16491  38.565   5.686   8.850
 1014POPC   D2A16492  38.327   5.499   8.496
 1014POPC   C3A16493  38.432   5.703   8.090
 1014POPC   C4A16494  38.257   5.570   7.713
 1014POPC   C1B16495  38.311   6.238   8.853
 1014POPC   C2B16496  38.374   6.053   8.460
 1014POPC   C3B16497  38.287   6.216   8.043
 1014POPC   C4B16498  38.045   6.133   7.689
 1015POPC   NC316499  36.924  38.164   9.502
 1015POPC   PO416500  36.447  38.667   9.522
 1015POPC   GL116501  36.721  38.501   9.178
 1015POPC   GL216502  37.091  38.586   9.236
 1015POPC   C1A16503  36.670  38.406   8.741
 1015POPC   D2A16504  36.559  38.552   8.306
 1015POPC   C3A16505  36.567  38.292   7.938
 1015POPC   C4A16506  36.930  38.186   7.643
 1015POPC   C1B16507  37.183  38.419   8.835
 1015POPC   C2B16508  37.058  38.293   8.409
 1015POPC   C3B16509  37.024  38.531   8.042
 1015POPC   C4B16510  37.226  38.939   7.957
 1016POPC   NC316511   1.901  29.345   9.387
 1016POPC   PO416512   2.160  28.696   9.543
 1016POPC   GL116513   2.096  28.988   9.110
 1016POPC   GL216514   1.985  29.301   8.906
 1016POPC   C1A16515   1.740  28.946   8.707
 1016POPC   D2A16516   1.726  29.253   8.390
 1016POPC   C3A16517   1.839  29.125   7.989
 1016POPC   C4A16518   1.658  29.175   7.602
 1016POPC   C1B16519   2.237  29.324   8.569
 1016POPC   C2B16520   2.122  29.562   8.217
 1016POPC   C3B16521   2.199  29.496   7.823
 1016POPC   C4B16522   2.200  29.088   7.613
 1017POPC   NC316523   8.863  15.324   9.712
 1017POPC   PO416524   8.918  14.855   9.320
 1017POPC   GL116525   8.986  15.244   9.186
 1017POPC   GL216526   8.793  15.533   9.262
 1017POPC   C1A16527   8.758  15.271   8.827
 1017POPC   D2A16528   8.690  15.017   8.499
 1017POPC   C3A16529   8.892  15.122   8.119
 1017POPC   C4A16530   8.804  14.998   7.726
 1017POPC   C1B16531   9.060  15.685   8.910
 1017POPC   C2B16532   9.029  15.523   8.495
 1017POPC   C3B16533   9.010  15.648   8.102
 1017POPC   C4B16534   9.198  15.429   7.792
 1018POPC   NC316535  25.594  13.785   9.503
 1018POPC   PO416536  25.736  13.259   9.241
 1018POPC   GL116537  25.582  13.651   9.003
 1018POPC   GL216538  25.270  13.806   9.094
 1018POPC   C1A16539  25.445  13.767   8.579
 1018POPC   D2A16540  25.339  13.508   8.237
 1018POPC   C3A16541  25.564  13.549   7.882
 1018POPC   C4A16542  25.446  13.396   7.467
 1018POPC   C1B16543  25.063  14.049   8.785
 1018POPC   C2B16544  25.139  14.166   8.392
 1018POPC   C3B16545  25.249  13.975   8.020
 1018POPC   C4B16546  25.055  13.656   7.782
 1019POPC   NC316547  15.311  43.544   9.624
 1019POPC   PO416548  15.125  44.124   9.556
 1019POPC   GL116549  15.151  43.851   9.217
 1019POPC   GL216550  14.912  43.666   9.151
 1019POPC   C1A16551  15.213  43.670   8.743
 1019POPC   D2A16552  15.209  43.852   8.370
 1019POPC   C3A16553  15.197  43.682   7.994
 1019POPC   C4A16554  15.428  43.853   7.677
 1019POPC   C1B16555  14.876  44.016   8.842
 1019POPC   C2B16556  14.714  43.881   8.525
 1019POPC   C3B16557  14.734  43.902   8.131
 1019POPC   C4B16558  14.764  43.926   7.727
 1020POPC   NC316559  32.428   7.714   9.350
 1020POPC   PO416560  31.988   7.165   9.466
 1020POPC   GL116561  32.188   7.318   9.122
 1020POPC   GL216562  32.348   7.028   9.085
 1020POPC   C1A16563  32.234   7.525   8.720
 1020POPC   D2A16564  32.056   7.380   8.332
 1020POPC   C3A16565  32.295   7.466   8.016
 1020POPC   C4A16566  32.386   7.577   7.623
 1020POPC   C1B16567  32.171   7.025   8.673
 1020POPC   C2B16568  32.466   7.012   8.341
 1020POPC   C3B16569  32.605   7.079   7.927
 1020POPC   C4B16570  32.244   7.085   7.673
 1021POPC   NC316571  30.000  27.213   9.530
 1021POPC   PO416572  30.131  26.541   9.507
 1021POPC   GL116573  30.047  26.797   9.164
 1021POPC   GL216574  30.379  26.809   9.044
 1021POPC   C1A16575  29.871  26.893   8.739
 1021POPC   D2A16576  30.019  26.847   8.311
 1021POPC   C3A16577  29.808  26.864   7.906
 1021POPC   C4A16578  29.818  26.995   7.473
 1021POPC   C1B16579  30.211  26.504   8.732
 1021POPC   C2B16580  30.111  26.357   8.287
 1021POPC   C3B16581  30.252  26.613   7.911
 1021POPC   C4B16582  30.242  26.670   7.451
 1022POPC   NC316583  14.328  11.521   9.804
 1022POPC   PO416584  14.230  10.905   9.492
 1022POPC   GL116585  14.485  11.195   9.203
 1022POPC   GL216586  14.816  11.047   9.043
 1022POPC   C1A16587  14.598  11.472   8.857
 1022POPC   D2A16588  14.553  11.635   8.431
 1022POPC   C3A16589  14.453  11.456   8.030
 1022POPC   C4A16590  14.815  11.464   7.796
 1022POPC   C1B16591  14.569  10.987   8.679
 1022POPC   C2B16592  14.296  11.056   8.324
 1022POPC   C3B16593  14.315  10.946   7.943
 1022POPC   C4B16594  14.642  10.981   7.691
 1023POPC   NC316595   0.976   9.554   9.408
 1023POPC   PO416596   1.550   9.195   9.497
 1023POPC   GL116597   1.443   9.573   9.170
 1023POPC   GL216598   1.208   9.928   9.171
 1023POPC   C1A16599   1.180   9.618   8.783
 1023POPC   D2A16600   1.024   9.761   8.416
 1023POPC   C3A16601   1.181   9.562   8.076
 1023POPC   C4A16602   1.048   9.510   7.678
 1023POPC   C1B16603   1.313  10.125   8.760
 1023POPC   C2B16604   1.437  10.059   8.341
 1023POPC   C3B16605   1.171  10.045   8.005
 1023POPC   C4B16606   1.140   9.983   7.582
 1024POPC   NC316607  32.677   0.792   9.442
 1024POPC   PO416608  33.209   1.168   9.623
 1024POPC   GL116609  32.978   1.169   9.263
 1024POPC   GL216610  32.786   1.451   9.249
 1024POPC   C1A16611  33.019   1.116   8.832
 1024POPC   D2A16612  33.177   1.333   8.465
 1024POPC   C3A16613  32.924   1.177   8.135
 1024POPC   C4A16614  33.087   1.172   7.741
 1024POPC   C1B16615  32.951   1.628   8.843
 1024POPC   C2B16616  32.785   1.659   8.407
 1024POPC   C3B16617  32.919   1.641   7.960
 1024POPC   C4B16618  32.686   1.512   7.574
 1025POPC   NC316619   6.948  34.764   9.291
 1025POPC   PO416620   6.386  34.466   9.356
 1025POPC   GL116621   6.677  34.437   9.013
 1025POPC   GL216622   6.987  34.233   9.004
 1025POPC   C1A16623   6.705  34.667   8.605
 1025POPC   D2A16624   6.357  34.709   8.279
 1025POPC   C3A16625   6.495  34.698   7.853
 1025POPC   C4A16626   6.894  34.773   7.792
 1025POPC   C1B16627   6.722  34.158   8.605
 1025POPC   C2B16628   6.744  34.357   8.188
 1025POPC   C3B16629   6.925  34.281   7.816
 1025POPC   C4B16630   6.625  34.249   7.532
 1026POPC   NC316631  33.599   6.045   9.512
 1026POPC   PO416632  34.197   6.286   9.569
 1026POPC   GL116633  34.035   5.995   9.231
 1026POPC   GL216634  33.936   5.639   9.262
 1026POPC   C1A16635  33.688   5.956   8.891
 1026POPC   D2A16636  33.540   5.974   8.472
 1026POPC   C3A16637  33.766   6.188   8.162
 1026POPC   C4A16638  33.817   6.009   7.765
 1026POPC   C1B16639  34.097   5.665   8.837
 1026POPC   C2B16640  33.987   5.775   8.395
 1026POPC   C3B16641  33.924   5.552   7.975
 1026POPC   C4B16642  33.625   5.510   7.599
 1027POPC   NC316643  30.164  39.415   9.404
 1027POPC   PO416644  29.598  38.912   9.416
 1027POPC   GL116645  29.881  39.084   9.111
 1027POPC   GL216646  30.249  38.970   9.100
 1027POPC   C1A16647  29.803  39.179   8.695
 1027POPC   D2A16648  29.795  39.012   8.283
 1027POPC   C3A16649  29.941  39.222   7.926
 1027POPC   C4A16650  29.885  39.547   7.576
 1027POPC   C1B16651  30.294  39.286   8.776
 1027POPC   C2B16652  30.286  39.244   8.344
 1027POPC   C3B16653  30.290  39.572   8.050
 1027POPC   C4B16654  30.404  39.584   7.602
 1028POPC   NC316655  30.256   6.054   9.439
 1028POPC   PO416656  30.907   5.668   9.398
 1028POPC   GL116657  30.722   5.961   9.114
 1028POPC   GL216658  30.455   5.804   9.032
 1028POPC   C1A16659  30.895   5.949   8.681
 1028POPC   D2A16660  30.957   5.685   8.301
 1028POPC   C3A16661  30.899   5.918   7.906
 1028POPC   C4A16662  30.888   5.792   7.448
 1028POPC   C1B16663  30.495   5.649   8.605
 1028POPC   C2B16664  30.474   5.888   8.232
 1028POPC   C3B16665  30.403   5.887   7.803
 1028POPC   C4B16666  30.489   6.110   7.452
 1029POPC   NC316667  39.483  15.345   9.528
 1029POPC   PO416668  40.109  15.060   9.544
 1029POPC   GL116669  39.845  15.088   9.185
 1029POPC   GL216670  40.176  15.031   9.027
 1029POPC   C1A16671  39.767  15.106   8.730
 1029POPC   D2A16672  39.936  15.008   8.288
 1029POPC   C3A16673  39.765  15.130   7.864
 1029POPC   C4A16674  39.894  15.094   7.401
 1029POPC   C1B16675  40.077  15.468   8.904
 1029POPC   C2B16676  39.999  15.486   8.469
 1029POPC   C3B16677  40.243  15.598   8.119
 1029POPC   C4B16678  40.179  15.411   7.734
 1030POPC   NC316679  13.947  13.176   9.381
 1030POPC   PO416680  13.617  12.643   9.568
 1030POPC   GL116681  13.416  12.688   9.187
 1030POPC   GL216682  13.351  13.020   9.144
 1030POPC   C1A16683  13.351  12.531   8.774
 1030POPC   D2A16684  13.570  12.491   8.392
 1030POPC   C3A16685  13.422  12.432   7.981
 1030POPC   C4A16686  13.699  12.550   7.657
 1030POPC   C1B16687  13.416  13.036   8.719
 1030POPC   C2B16688  13.654  13.065   8.372
 1030POPC   C3B16689  13.737  12.897   8.018
 1030POPC   C4B16690  13.878  13.029   7.623
 1031POPC   NC316691  34.275  35.887   9.474
 1031POPC   PO416692  34.950  36.011   9.428
 1031POPC   GL116693  34.719  36.197   9.078
 1031POPC   GL216694  34.360  36.117   9.031
 1031POPC   C1A16695  34.747  36.173   8.656
 1031POPC   D2A16696  34.506  36.033   8.304
 1031POPC   C3A16697  34.737  36.036   7.940
 1031POPC   C4A16698  34.779  36.304   7.592
 1031POPC   C1B16699  34.300  36.401   8.724
 1031POPC   C2B16700  34.536  36.583   8.391
 1031POPC   C3B16701  34.485  36.490   7.979
 1031POPC   C4B16702  34.109  36.248   7.896
 1032POPC   NC316703  26.398  22.394   9.378
 1032POPC   PO416704  26.799  22.030   9.822
 1032POPC   GL116705  26.808  21.970   9.326
 1032POPC   GL216706  26.735  22.213   9.070
 1032POPC   C1A16707  27.024  21.844   8.917
 1032POPC   D2A16708  26.849  21.893   8.507
 1032POPC   C3A16709  26.978  21.975   8.116
 1032POPC   C4A16710  26.687  21.998   7.774
 1032POPC   C1B16711  26.961  22.333   8.728
 1032POPC   C2B16712  27.010  22.503   8.283
 1032POPC   C3B16713  26.902  22.469   7.825
 1032POPC   C4B16714  27.018  22.575   7.345
 1033POPC   NC316715  37.370  27.577   9.492
 1033POPC   PO416716  38.013  27.281   9.595
 1033POPC   GL116717  37.878  27.427   9.160
 1033POPC   GL216718  37.604  27.681   9.059
 1033POPC   C1A16719  37.903  27.490   8.717
 1033POPC   D2A16720  37.863  27.688   8.344
 1033POPC   C3A16721  37.860  27.425   7.986
 1033POPC   C4A16722  37.518  27.261   7.716
 1033POPC   C1B16723  37.392  27.826   8.659
 1033POPC   C2B16724  37.420  27.915   8.205
 1033POPC   C3B16725  37.581  27.789   7.796
 1033POPC   C4B16726  37.794  27.778   7.367
 1034POPC   NC316727  31.973   3.802   9.830
 1034POPC   PO416728  32.493   3.507   9.577
 1034POPC   GL116729  32.250   3.634   9.235
 1034POPC   GL216730  32.553   3.652   9.076
 1034POPC   C1A16731  32.130   3.506   8.814
 1034POPC   D2A16732  32.287   3.471   8.403
 1034POPC   C3A16733  32.122   3.428   7.979
 1034POPC   C4A16734  32.152   3.764   7.655
 1034POPC   C1B16735  32.628   3.802   8.707
 1034POPC   C2B16736  32.553   3.940   8.327
 1034POPC   C3B16737  32.574   3.758   7.916
 1034POPC   C4B16738  32.647   3.630   7.469
 1035POPC   NC316739  22.306  31.946   9.694
 1035POPC   PO416740  22.722  31.444   9.726
 1035POPC   GL116741  22.574  31.683   9.274
 1035POPC   GL216742  22.208  31.750   9.197
 1035POPC   C1A16743  22.405  31.554   8.795
 1035POPC   D2A16744  22.075  31.465   8.479
 1035POPC   C3A16745  22.242  31.568   8.081
 1035POPC   C4A16746  22.415  31.317   7.742
 1035POPC   C1B16747  21.917  31.819   8.832
 1035POPC   C2B16748  21.705  31.867   8.400
 1035POPC   C3B16749  21.805  31.787   7.931
 1035POPC   C4B16750  21.878  31.317   7.821
 1036POPC   NC316751   0.492   0.888   9.428
 1036POPC   PO416752   0.258   0.243   9.478
 1036POPC   GL116753   0.433   0.453   9.133
 1036POPC   GL216754   0.613   0.167   9.067
 1036POPC   C1A16755   0.280   0.624   8.734
 1036POPC   D2A16756   0.344   0.462   8.296
 1036POPC   C3A16757   0.059   0.411   7.954
 1036POPC   C4A16758   0.064   0.783   7.708
 1036POPC   C1B16759   0.690   0.307   8.659
 1036POPC   C2B16760   0.781   0.235   8.235
 1036POPC   C3B16761   0.666   0.348   7.825
 1036POPC   C4B16762   0.732   0.343   7.374
 1037POPC   NC316763   8.443  29.230   9.437
 1037POPC   PO416764   7.870  29.570   9.446
 1037POPC   GL116765   8.106  29.458   9.079
 1037POPC   GL216766   8.208  29.098   9.015
 1037POPC   C1A16767   8.071  29.357   8.622
 1037POPC   D2A16768   8.049  29.578   8.306
 1037POPC   C3A16769   7.944  29.339   7.990
 1037POPC   C4A16770   8.128  29.317   7.559
 1037POPC   C1B16771   8.512  29.130   8.661
 1037POPC   C2B16772   8.353  28.979   8.280
 1037POPC   C3B16773   8.278  28.921   7.846
 1037POPC   C4B16774   7.822  28.931   7.721
 1038POPC   NC316775  21.966  24.146   9.523
 1038POPC   PO416776  22.612  24.414   9.500
 1038POPC   GL116777  22.407  24.582   9.145
 1038POPC   GL216778  22.054  24.521   9.198
 1038POPC   C1A16779  22.327  24.692   8.716
 1038POPC   D2A16780  22.590  24.627   8.350
 1038POPC   C3A16781  22.521  24.369   7.993
 1038POPC   C4A16782  22.612  24.664   7.653
 1038POPC   C1B16783  22.129  24.234   8.833
 1038POPC   C2B16784  22.127  24.353   8.376
 1038POPC   C3B16785  22.089  24.596   8.000
 1038POPC   C4B16786  22.154  24.481   7.576
 1039POPC   NC316787  40.660  41.435   9.691
 1039POPC   PO416788  41.150  41.822   9.449
 1039POPC   GL116789  40.711  41.734   9.243
 1039POPC   GL216790  40.625  41.372   9.188
 1039POPC   C1A16791  40.568  41.700   8.800
 1039POPC   D2A16792  40.886  41.758   8.452
 1039POPC   C3A16793  40.754  41.685   8.009
 1039POPC   C4A16794  40.655  41.831   7.584
 1039POPC   C1B16795  40.934  41.352   8.851
 1039POPC   C2B16796  41.027  41.280   8.395
 1039POPC   C3B16797  40.801  41.172   8.004
 1039POPC   C4B16798  40.770  41.336   7.593
 1040POPC   NC316799  36.264   5.998   9.526
 1040POPC   PO416800  35.703   5.660   9.468
 1040POPC   GL116801  35.901   5.804   9.089
 1040POPC   GL216802  36.253   5.754   9.077
 1040POPC   C1A16803  35.958   5.892   8.634
 1040POPC   D2A16804  35.804   6.189   8.348
 1040POPC   C3A16805  36.106   6.186   8.048
 1040POPC   C4A16806  36.144   6.046   7.680
 1040POPC   C1B16807  36.292   6.155   8.896
 1040POPC   C2B16808  36.413   6.162   8.455
 1040POPC   C3B16809  36.628   6.258   8.066
 1040POPC   C4B16810  36.517   6.433   7.662
 1041POPC   NC316811  40.710   1.005   9.883
 1041POPC   PO416812  40.894   1.046   9.300
 1041POPC   GL116813  40.765   1.175   8.977
 1041POPC   GL216814  40.746   1.537   9.125
 1041POPC   C1A16815  40.973   1.044   8.601
 1041POPC   D2A16816  41.086   0.808   8.222
 1041POPC   C3A16817  40.882   1.046   7.956
 1041POPC   C4A16818  40.664   1.145   7.585
 1041POPC   C1B16819  40.808   1.575   8.699
 1041POPC   C2B16820  40.675   1.398   8.321
 1041POPC   C3B16821  40.765   1.534   7.918
 1041POPC   C4B16822  40.527   1.640   7.568
 1042POPC   NC316823  18.757  36.181   9.912
 1042POPC   PO416824  18.161  36.172   9.628
 1042POPC   GL116825  18.230  36.078   9.181
 1042POPC   GL216826  18.543  35.900   9.132
 1042POPC   C1A16827  18.017  35.987   8.783
 1042POPC   D2A16828  18.034  36.227   8.399
 1042POPC   C3A16829  18.168  36.094   7.993
 1042POPC   C4A16830  18.523  36.180   7.711
 1042POPC   C1B16831  18.512  36.100   8.678
 1042POPC   C2B16832  18.632  35.999   8.233
 1042POPC   C3B16833  18.738  35.749   7.856
 1042POPC   C4B16834  18.651  35.770   7.386
 1043POPC   NC316835  41.491   9.974   9.706
 1043POPC   PO416836  41.034   9.551   9.791
 1043POPC   GL116837  41.241   9.810   9.321
 1043POPC   GL216838  41.448   9.606   9.101
 1043POPC   C1A16839  41.572  10.055   8.953
 1043POPC   D2A16840  41.850  10.020   8.567
 1043POPC   C3A16841  41.698   9.940   8.136
 1043POPC   C4A16842  41.603  10.176   7.755
 1043POPC   C1B16843  41.419   9.309   8.818
 1043POPC   C2B16844  41.622   9.373   8.454
 1043POPC   C3B16845  41.457   9.472   8.080
 1043POPC   C4B16846  41.465   9.324   7.688
 1044POPC   NC316847  14.748  14.710   9.416
 1044POPC   PO416848  15.344  14.552   9.713
 1044POPC   GL116849  15.389  14.480   9.256
 1044POPC   GL216850  15.043  14.346   9.139
 1044POPC   C1A16851  15.402  14.385   8.802
 1044POPC   D2A16852  15.135  14.272   8.461
 1044POPC   C3A16853  15.314  14.419   8.084
 1044POPC   C4A16854  15.456  14.134   7.787
 1044POPC   C1B16855  14.788  14.506   8.786
 1044POPC   C2B16856  14.664  14.523   8.365
 1044POPC   C3B16857  14.813  14.286   8.034
 1044POPC   C4B16858  14.986  14.380   7.672
 1045POPC   NC316859  11.872   9.226   9.421
 1045POPC   PO416860  11.970   9.891   9.557
 1045POPC   GL116861  12.097   9.691   9.170
 1045POPC   GL216862  12.238  10.010   9.127
 1045POPC   C1A16863  12.075   9.702   8.731
 1045POPC   D2A16864  11.814   9.827   8.407
 1045POPC   C3A16865  12.048   9.783   8.056
 1045POPC   C4A16866  11.980   9.560   7.663
 1045POPC   C1B16867  12.124  10.248   8.801
 1045POPC   C2B16868  12.189  10.168   8.399
 1045POPC   C3B16869  12.360  10.229   8.006
 1045POPC   C4B16870  12.308   9.989   7.651
 1046POPC   NC316871  26.381  38.977   9.447
 1046POPC   PO416872  25.987  39.514   9.562
 1046POPC   GL116873  26.014  39.529   9.133
 1046POPC   GL216874  26.321  39.375   9.086
 1046POPC   C1A16875  25.704  39.388   8.829
 1046POPC   D2A16876  25.719  39.271   8.392
 1046POPC   C3A16877  26.038  39.548   8.144
 1046POPC   C4A16878  25.890  39.494   7.683
 1046POPC   C1B16879  26.141  39.196   8.723
 1046POPC   C2B16880  26.163  39.024   8.340
 1046POPC   C3B16881  25.985  39.082   7.977
 1046POPC   C4B16882  26.203  39.082   7.578
 1047POPC   NC316883  29.466  18.751   9.449
 1047POPC   PO416884  29.895  19.253   9.475
 1047POPC   GL116885  29.690  19.206   9.129
 1047POPC   GL216886  29.821  18.886   9.089
 1047POPC   C1A16887  29.880  19.221   8.720
 1047POPC   D2A16888  29.757  19.139   8.327
 1047POPC   C3A16889  29.968  19.254   7.993
 1047POPC   C4A16890  29.826  19.185   7.619
 1047POPC   C1B16891  30.012  18.710   8.702
 1047POPC   C2B16892  29.949  18.642   8.249
 1047POPC   C3B16893  30.027  18.749   7.806
 1047POPC   C4B16894  30.070  18.856   7.321
 1048POPC   NC316895  12.285  24.845   9.207
 1048POPC   PO416896  12.023  24.164   9.407
 1048POPC   GL116897  12.065  24.140   9.031
 1048POPC   GL216898  12.307  24.369   9.005
 1048POPC   C1A16899  11.893  24.288   8.661
 1048POPC   D2A16900  11.787  24.636   8.389
 1048POPC   C3A16901  11.870  24.545   7.964
 1048POPC   C4A16902  12.146  24.334   7.646
 1048POPC   C1B16903  12.507  24.450   8.613
 1048POPC   C2B16904  12.323  24.485   8.206
 1048POPC   C3B16905  12.352  24.764   7.869
 1048POPC   C4B16906  12.463  24.716   7.458
 1049POPC   NC316907  20.948   9.156   9.394
 1049POPC   PO416908  20.323   8.967   9.468
 1049POPC   GL116909  20.482   9.122   9.107
 1049POPC   GL216910  20.744   8.843   9.016
 1049POPC   C1A16911  20.450   9.054   8.670
 1049POPC   D2A16912  20.728   8.807   8.425
 1049POPC   C3A16913  20.683   8.899   7.985
 1049POPC   C4A16914  20.328   9.180   7.958
 1049POPC   C1B16915  20.414   8.564   8.781
 1049POPC   C2B16916  20.270   8.617   8.321
 1049POPC   C3B16917  20.361   8.490   7.871
 1049POPC   C4B16918  20.492   8.561   7.429
 1050POPC   NC316919  42.976  17.074   9.525
 1050POPC   PO416920  43.523  17.336   9.668
 1050POPC   GL116921  43.296  17.287   9.156
 1050POPC   GL216922  42.972  17.157   9.027
 1050POPC   C1A16923  43.281  17.662   8.816
 1050POPC   D2A16924  42.940  17.894   8.550
 1050POPC   C3A16925  42.981  17.919   8.062
 1050POPC   C4A16926  43.214  17.768   7.670
 1050POPC   C1B16927  43.050  17.251   8.608
 1050POPC   C2B16928  43.428  17.220   8.337
 1050POPC   C3B16929  43.406  17.359   7.909
 1050POPC   C4B16930  42.971  17.284   7.745
 1051POPC   NC316931   4.080  28.235   9.309
 1051POPC   PO416932   4.748  28.299   9.357
 1051POPC   GL116933   4.473  28.534   9.052
 1051POPC   GL216934   4.113  28.587   8.940
 1051POPC   C1A16935   4.466  28.385   8.633
 1051POPC   D2A16936   4.662  28.042   8.431
 1051POPC   C3A16937   4.693  28.160   8.036
 1051POPC   C4A16938   4.529  28.289   7.643
 1051POPC   C1B16939   3.949  28.311   8.613
 1051POPC   C2B16940   4.053  28.261   8.157
 1051POPC   C3B16941   4.005  28.053   7.730
 1051POPC   C4B16942   3.825  27.950   7.273
 1052POPC   NC316943  39.359   1.428   9.518
 1052POPC   PO416944  38.695   1.287   9.484
 1052POPC   GL116945  39.122   1.140   9.178
 1052POPC   GL216946  39.331   1.435   9.022
 1052POPC   C1A16947  39.374   0.988   8.797
 1052POPC   D2A16948  39.371   1.162   8.368
 1052POPC   C3A16949  39.273   0.950   8.001
 1052POPC   C4A16950  39.267   1.303   7.721
 1052POPC   C1B16951  39.644   1.429   8.699
 1052POPC   C2B16952  39.779   1.529   8.286
 1052POPC   C3B16953  39.731   1.446   7.846
 1052POPC   C4B16954  39.660   1.386   7.389
 1053POPC   NC316955  30.303   8.561   9.452
 1053POPC   PO416956  29.917   8.045   9.724
 1053POPC   GL116957  29.988   8.048   9.220
 1053POPC   GL216958  29.982   8.397   9.081
 1053POPC   C1A16959  29.797   8.021   8.785
 1053POPC   D2A16960  29.798   8.224   8.400
 1053POPC   C3A16961  29.981   8.061   8.032
 1053POPC   C4A16962  29.890   7.779   7.693
 1053POPC   C1B16963  30.011   8.623   8.668
 1053POPC   C2B16964  30.016   8.640   8.200
 1053POPC   C3B16965  29.887   8.525   7.800
 1053POPC   C4B16966  30.054   8.249   7.533
 1054POPC   NC316967  25.161  27.909   9.787
 1054POPC   PO416968  24.775  28.327   9.337
 1054POPC   GL116969  24.890  28.344   8.958
 1054POPC   GL216970  25.230  28.413   9.046
 1054POPC   C1A16971  24.864  28.441   8.525
 1054POPC   D2A16972  24.913  28.140   8.222
 1054POPC   C3A16973  25.091  28.374   7.878
 1054POPC   C4A16974  25.125  28.769   7.714
 1054POPC   C1B16975  25.261  28.148   8.685
 1054POPC   C2B16976  25.409  28.255   8.315
 1054POPC   C3B16977  25.591  28.309   7.960
 1054POPC   C4B16978  25.533  28.117   7.587
 1055POPC   NC316979  30.040  17.249   9.352
 1055POPC   PO416980  29.653  17.823   9.493
 1055POPC   GL116981  29.798  17.651   9.102
 1055POPC   GL216982  30.152  17.674   9.092
 1055POPC   C1A16983  29.701  17.414   8.701
 1055POPC   D2A16984  29.624  17.343   8.257
 1055POPC   C3A16985  29.710  17.743   8.102
 1055POPC   C4A16986  29.690  17.888   7.713
 1055POPC   C1B16987  30.223  17.388   8.713
 1055POPC   C2B16988  30.135  17.443   8.259
 1055POPC   C3B16989  29.994  17.433   7.816
 1055POPC   C4B16990  30.144  17.178   7.446
 1056POPC   NC316991  43.901  23.468   9.669
 1056POPC   PO416992  43.568  24.043   9.466
 1056POPC   GL116993  43.825  23.803   9.165
 1056POPC   GL216994  43.739  23.458   9.161
 1056POPC   C1A16995  44.000  23.630   8.763
 1056POPC   D2A16996  43.905  23.503   8.357
 1056POPC   C3A16997  43.922  23.833   8.102
 1056POPC   C4A16998  43.938  23.961   7.730
 1056POPC   C1B16999  43.495  23.493   8.746
 1056POPC   C2B17000  43.249  23.309   8.375
 1056POPC   C3B17001  43.378  23.379   7.978
 1056POPC   C4B17002  43.799  23.417   7.814
 1057POPC   NC317003  10.273  38.962   9.478
 1057POPC   PO417004  10.623  39.513   9.433
 1057POPC   GL117005  10.551  39.243   9.048
 1057POPC   GL217006  10.301  38.974   8.968
 1057POPC   C1A17007  10.757  39.162   8.648
 1057POPC   D2A17008  10.688  39.117   8.213
 1057POPC   C3A17009  10.878  39.363   7.886
 1057POPC   C4A17010  10.694  39.090   7.594
 1057POPC   C1B17011  10.252  39.094   8.568
 1057POPC   C2B17012  10.319  39.448   8.307
 1057POPC   C3B17013  10.335  39.326   7.866
 1057POPC   C4B17014  10.292  39.292   7.395
 1058POPC   NC317015  37.899   3.143   9.380
 1058POPC   PO417016  37.438   2.585   9.422
 1058POPC   GL117017  37.484   2.892   9.161
 1058POPC   GL217018  37.800   2.767   9.052
 1058POPC   C1A17019  37.450   2.988   8.737
 1058POPC   D2A17020  37.445   3.248   8.380
 1058POPC   C3A17021  37.421   3.064   7.999
 1058POPC   C4A17022  37.822   3.126   7.883
 1058POPC   C1B17023  37.968   2.867   8.667
 1058POPC   C2B17024  37.734   2.807   8.307
 1058POPC   C3B17025  37.820   2.573   7.939
 1058POPC   C4B17026  38.007   2.386   7.545
 1059POPC   NC317027  39.689  10.048   9.607
 1059POPC   PO417028  39.834  10.660   9.581
 1059POPC   GL117029  39.895  10.537   9.159
 1059POPC   GL217030  39.909  10.178   9.161
 1059POPC   C1A17031  40.103  10.714   8.800
 1059POPC   D2A17032  39.935  11.002   8.474
 1059POPC   C3A17033  39.921  10.832   8.059
 1059POPC   C4A17034  40.297  10.653   7.870
 1059POPC   C1B17035  39.757  10.130   8.757
 1059POPC   C2B17036  39.877  10.421   8.419
 1059POPC   C3B17037  39.917  10.315   7.995
 1059POPC   C4B17038  39.803  10.099   7.613
 1060POPC   NC317039  42.101  24.576   9.436
 1060POPC   PO417040  42.669  24.167   9.645
 1060POPC   GL117041  42.447  24.173   9.225
 1060POPC   GL217042  42.480  24.494   9.102
 1060POPC   C1A17043  42.439  24.176   8.728
 1060POPC   D2A17044  42.186  24.364   8.386
 1060POPC   C3A17045  42.247  24.319   7.943
 1060POPC   C4A17046  42.384  23.976   7.701
 1060POPC   C1B17047  42.300  24.719   8.766
 1060POPC   C2B17048  42.167  24.874   8.349
 1060POPC   C3B17049  42.121  24.809   7.895
 1060POPC   C4B17050  42.123  24.778   7.435
 1061POPC   NC317051   4.315  42.507   9.565
 1061POPC   PO417052   3.998  41.926   9.381
 1061POPC   GL117053   4.220  42.288   9.128
 1061POPC   GL217054   4.106  42.660   9.089
 1061POPC   C1A17055   4.348  42.334   8.723
 1061POPC   D2A17056   4.098  42.272   8.365
 1061POPC   C3A17057   4.281  42.346   7.983
 1061POPC   C4A17058   4.057  42.303   7.619
 1061POPC   C1B17059   4.269  42.852   8.655
 1061POPC   C2B17060   4.253  42.857   8.145
 1061POPC   C3B17061   4.337  42.741   7.674
 1061POPC   C4B17062   4.451  42.649   7.234
 1062POPC   NC317063  31.696   8.393   9.755
 1062POPC   PO417064  31.411   7.863   9.479
 1062POPC   GL117065  31.332   8.137   9.128
 1062POPC   GL217066  31.549   8.424   9.102
 1062POPC   C1A17067  31.340   8.134   8.671
 1062POPC   D2A17068  31.340   7.854   8.324
 1062POPC   C3A17069  31.164   8.102   8.037
 1062POPC   C4A17070  31.296   8.461   7.836
 1062POPC   C1B17071  31.835   8.265   8.800
 1062POPC   C2B17072  31.833   8.226   8.373
 1062POPC   C3B17073  31.728   8.232   7.960
 1062POPC   C4B17074  31.788   8.404   7.556
 1063POPC   NC317075  22.659  33.842   9.875
 1063POPC   PO417076  23.237  33.616   9.522
 1063POPC   GL117077  23.042  33.756   9.129
 1063POPC   GL217078  22.954  34.092   9.164
 1063POPC   C1A17079  22.907  33.645   8.720
 1063POPC   D2A17080  22.667  33.724   8.364
 1063POPC   C3A17081  22.663  33.593   7.937
 1063POPC   C4A17082  22.946  33.682   7.591
 1063POPC   C1B17083  23.221  34.084   8.796
 1063POPC   C2B17084  23.200  34.142   8.395
 1063POPC   C3B17085  23.053  33.940   8.059
 1063POPC   C4B17086  23.352  34.120   7.817
 1064POPC   NC317087  44.286   7.858   9.457
 1064POPC   PO417088  44.160   7.181   9.543
 1064POPC   GL117089  43.950   7.458   9.230
 1064POPC   GL217090  43.616   7.305   9.219
 1064POPC   C1A17091  43.939   7.572   8.767
 1064POPC   D2A17092  43.950   7.308   8.375
 1064POPC   C3A17093  44.047   7.462   7.981
 1064POPC   C4A17094  43.871   7.302   7.644
 1064POPC   C1B17095  43.493   7.212   8.783
 1064POPC   C2B17096  43.461   7.457   8.382
 1064POPC   C3B17097  43.499   7.511   7.919
 1064POPC   C4B17098  43.612   7.696   7.500
 1065POPC   NC317099   6.022  19.628   9.408
 1065POPC   PO417100   5.818  20.167   9.741
 1065POPC   GL117101   5.703  20.067   9.231
 1065POPC   GL217102   5.789  19.765   9.005
 1065POPC   C1A17103   5.872  20.169   8.769
 1065POPC   D2A17104   5.957  19.867   8.418
 1065POPC   C3A17105   5.728  19.902   8.037
 1065POPC   C4A17106   5.669  20.194   7.707
 1065POPC   C1B17107   6.056  19.488   8.744
 1065POPC   C2B17108   6.292  19.436   8.399
 1065POPC   C3B17109   6.274  19.517   7.949
 1065POPC   C4B17110   6.253  19.302   7.547
 1066POPC   NC317111  13.127  43.370   9.486
 1066POPC   PO417112  12.869  42.731   9.404
 1066POPC   GL117113  13.011  42.992   9.086
 1066POPC   GL217114  12.812  43.281   9.054
 1066POPC   C1A17115  13.013  43.100   8.621
 1066POPC   D2A17116  12.992  43.436   8.326
 1066POPC   C3A17117  13.098  43.251   7.950
 1066POPC   C4A17118  13.072  42.793   7.913
 1066POPC   C1B17119  12.563  42.942   8.813
 1066POPC   C2B17120  12.465  42.857   8.437
 1066POPC   C3B17121  12.631  43.089   8.155
 1066POPC   C4B17122  12.662  43.078   7.760
 1067POPC   NC317123  38.466  27.216   9.670
 1067POPC   PO417124  38.660  26.611   9.600
 1067POPC   GL117125  38.481  26.767   9.217
 1067POPC   GL217126  38.185  26.994   9.202
 1067POPC   C1A17127  38.398  26.695   8.791
 1067POPC   D2A17128  38.519  26.878   8.417
 1067POPC   C3A17129  38.482  26.629   8.049
 1067POPC   C4A17130  38.549  26.817   7.670
 1067POPC   C1B17131  38.318  27.203   8.807
 1067POPC   C2B17132  38.271  27.320   8.358
 1067POPC   C3B17133  38.172  27.023   8.020
 1067POPC   C4B17134  37.996  27.101   7.619
 1068POPC   NC317135   5.307  34.363   9.507
 1068POPC   PO417136   4.850  34.819   9.334
 1068POPC   GL117137   5.078  34.527   9.059
 1068POPC   GL217138   5.173  34.133   9.057
 1068POPC   C1A17139   4.971  34.506   8.623
 1068POPC   D2A17140   4.700  34.597   8.265
 1068POPC   C3A17141   4.845  34.698   7.870
 1068POPC   C4A17142   5.248  34.811   7.684
 1068POPC   C1B17143   5.432  34.326   8.743
 1068POPC   C2B17144   5.415  34.665   8.424
 1068POPC   C3B17145   5.462  34.529   8.037
 1068POPC   C4B17146   5.191  34.296   7.770
 1069POPC   NC317147  38.091   0.609   9.384
 1069POPC   PO417148  38.676   0.288   9.529
 1069POPC   GL117149  38.503   0.411   9.152
 1069POPC   GL217150  38.231   0.231   9.085
 1069POPC   C1A17151  38.510   0.458   8.708
 1069POPC   D2A17152  38.760   0.496   8.362
 1069POPC   C3A17153  38.596   0.794   8.125
 1069POPC   C4A17154  38.249   0.736   7.893
 1069POPC   C1B17155  38.019   0.260   8.708
 1069POPC   C2B17156  38.077   0.400   8.277
 1069POPC   C3B17157  38.051   0.247   7.839
 1069POPC   C4B17158  38.102   0.168   7.365
 1070POPC   NC317159   6.707  30.987   9.561
 1070POPC   PO417160   6.493  31.568   9.460
 1070POPC   GL117161   6.708  31.336   9.173
 1070POPC   GL217162   7.061  31.243   9.212
 1070POPC   C1A17163   6.645  31.300   8.770
 1070POPC   D2A17164   6.612  31.515   8.372
 1070POPC   C3A17165   6.790  31.770   8.086
 1070POPC   C4A17166   6.820  31.617   7.665
 1070POPC   C1B17167   7.129  31.163   8.750
 1070POPC   C2B17168   6.896  31.086   8.383
 1070POPC   C3B17169   6.921  31.253   8.015
 1070POPC   C4B17170   6.866  31.089   7.630
 1071POPC   NC317171   0.217  19.480   9.411
 1071POPC   PO417172   0.661  20.004   9.508
 1071POPC   GL117173   0.560  20.113   9.097
 1071POPC   GL217174   0.480  19.767   9.052
 1071POPC   C1A17175   0.603  20.043   8.637
 1071POPC   D2A17176   0.300  20.018   8.313
 1071POPC   C3A17177   0.464  19.963   7.887
 1071POPC   C4A17178   0.561  20.074   7.422
 1071POPC   C1B17179   0.144  19.761   8.745
 1071POPC   C2B17180   0.010  19.589   8.354
 1071POPC   C3B17181  44.963  19.826   7.956
 1071POPC   C4B17182  44.960  19.667   7.546
 1072POPC   NC317183  31.703  32.734   9.448
 1072POPC   PO417184  31.201  33.097   9.436
 1072POPC   GL117185  31.429  33.010   9.111
 1072POPC   GL217186  31.362  32.664   9.075
 1072POPC   C1A17187  31.349  33.005   8.710
 1072POPC   D2A17188  31.379  33.249   8.422
 1072POPC   C3A17189  31.074  33.259   8.121
 1072POPC   C4A17190  31.207  33.185   7.699
 1072POPC   C1B17191  31.725  32.670   8.783
 1072POPC   C2B17192  31.761  32.893   8.393
 1072POPC   C3B17193  31.520  32.943   8.036
 1072POPC   C4B17194  31.578  32.799   7.651
 1073POPC   NC317195   6.081  39.434   9.545
 1073POPC   PO417196   5.666  38.873   9.676
 1073POPC   GL117197   5.877  39.106   9.247
 1073POPC   GL217198   6.101  39.011   9.054
 1073POPC   C1A17199   5.775  39.383   8.839
 1073POPC   D2A17200   5.828  39.602   8.416
 1073POPC   C3A17201   5.568  39.475   8.029
 1073POPC   C4A17202   5.647  39.262   7.608
 1073POPC   C1B17203   6.221  39.199   8.670
 1073POPC   C2B17204   6.245  39.321   8.247
 1073POPC   C3B17205   6.055  39.129   7.892
 1073POPC   C4B17206   6.107  38.975   7.458
 1074POPC   NC317207  33.637  19.887   9.601
 1074POPC   PO417208  34.256  19.722   9.347
 1074POPC   GL117209  33.923  19.666   9.093
 1074POPC   GL217210  33.811  20.007   9.132
 1074POPC   C1A17211  33.877  19.787   8.668
 1074POPC   D2A17212  34.024  20.107   8.388
 1074POPC   C3A17213  33.885  19.961   7.995
 1074POPC   C4A17214  33.927  19.636   7.684
 1074POPC   C1B17215  33.470  20.065   8.812
 1074POPC   C2B17216  33.515  20.172   8.399
 1074POPC   C3B17217  33.387  20.085   7.995
 1074POPC   C4B17218  33.559  19.982   7.592
 1075POPC   NC317219  11.931  21.307   9.776
 1075POPC   PO417220  11.461  21.569   9.365
 1075POPC   GL117221  11.401  21.438   8.982
 1075POPC   GL217222  11.556  21.106   9.030
 1075POPC   C1A17223  11.308  21.670   8.638
 1075POPC   D2A17224  11.043  21.738   8.297
 1075POPC   C3A17225  11.214  21.799   7.893
 1075POPC   C4A17226  11.251  21.583   7.444
 1075POPC   C1B17227  11.635  21.200   8.599
 1075POPC   C2B17228  11.496  21.433   8.235
 1075POPC   C3B17229  11.288  21.289   7.890
 1075POPC   C4B17230  11.463  21.138   7.494
 1076POPC   NC317231  32.572   3.977   9.469
 1076POPC   PO417232  31.895   4.217   9.626
 1076POPC   GL117233  32.116   4.133   9.250
 1076POPC   GL217234  32.387   4.390   9.223
 1076POPC   C1A17235  32.207   4.043   8.826
 1076POPC   D2A17236  32.204   4.315   8.430
 1076POPC   C3A17237  32.208   4.160   7.996
 1076POPC   C4A17238  32.078   4.283   7.567
 1076POPC   C1B17239  32.534   4.448   8.797
 1076POPC   C2B17240  32.724   4.476   8.426
 1076POPC   C3B17241  32.640   4.659   8.059
 1076POPC   C4B17242  32.520   4.460   7.696
 1077POPC   NC317243   2.029  39.574   9.563
 1077POPC   PO417244   1.500  39.117   9.385
 1077POPC   GL117245   1.888  39.281   9.163
 1077POPC   GL217246   1.820  39.615   9.094
 1077POPC   C1A17247   2.128  39.173   8.765
 1077POPC   D2A17248   2.217  39.025   8.352
 1077POPC   C3A17249   1.980  39.047   7.961
 1077POPC   C4A17250   1.673  39.206   7.645
 1077POPC   C1B17251   2.070  39.672   8.756
 1077POPC   C2B17252   2.235  39.568   8.402
 1077POPC   C3B17253   2.098  39.550   7.999
 1077POPC   C4B17254   2.148  39.365   7.594
 1078POPC   NC317255  13.058  10.711   9.478
 1078POPC   PO417256  12.614  10.144   9.494
 1078POPC   GL117257  12.715  10.228   9.092
 1078POPC   GL217258  13.046  10.250   9.193
 1078POPC   C1A17259  12.591  10.458   8.710
 1078POPC   D2A17260  12.706  10.816   8.433
 1078POPC   C3A17261  12.750  10.689   7.991
 1078POPC   C4A17262  13.088  10.772   7.679
 1078POPC   C1B17263  13.127  10.370   8.757
 1078POPC   C2B17264  12.942  10.346   8.340
 1078POPC   C3B17265  13.131  10.325   7.939
 1078POPC   C4B17266  13.201   9.990   7.663
 1079POPC   NC317267  21.621   4.877   9.622
 1079POPC   PO417268  20.998   5.058   9.475
 1079POPC   GL117269  21.230   5.069   9.121
 1079POPC   GL217270  21.530   4.867   9.098
 1079POPC   C1A17271  21.149   4.974   8.683
 1079POPC   D2A17272  21.237   4.726   8.347
 1079POPC   C3A17273  21.418   4.914   7.980
 1079POPC   C4A17274  21.309   5.159   7.617
 1079POPC   C1B17275  21.588   5.229   8.781
 1079POPC   C2B17276  21.512   5.290   8.327
 1079POPC   C3B17277  21.691   5.382   7.894
 1079POPC   C4B17278  21.667   5.504   7.440
 1080POPC   NC317279  29.369  39.308   9.407
 1080POPC   PO417280  28.881  38.907   9.472
 1080POPC   GL117281  29.027  38.987   9.105
 1080POPC   GL217282  29.359  38.927   8.979
 1080POPC   C1A17283  28.918  39.220   8.780
 1080POPC   D2A17284  28.840  39.078   8.397
 1080POPC   C3A17285  29.037  39.294   8.106
 1080POPC   C4A17286  28.969  39.503   7.752
 1080POPC   C1B17287  29.336  39.036   8.542
 1080POPC   C2B17288  29.480  39.429   8.326
 1080POPC   C3B17289  29.476  39.392   7.877
 1080POPC   C4B17290  29.442  38.947   7.876
 1081POPC   NC317291  17.006  32.555   9.585
 1081POPC   PO417292  16.888  33.186   9.523
 1081POPC   GL117293  16.821  33.167   9.117
 1081POPC   GL217294  16.840  32.792   9.156
 1081POPC   C1A17295  16.913  33.291   8.689
 1081POPC   D2A17296  16.675  33.148   8.342
 1081POPC   C3A17297  16.711  33.298   7.947
 1081POPC   C4A17298  16.513  33.133   7.644
 1081POPC   C1B17299  16.693  32.813   8.753
 1081POPC   C2B17300  16.680  32.617   8.336
 1081POPC   C3B17301  16.737  32.758   7.940
 1081POPC   C4B17302  16.758  32.551   7.562
 1082POPC   NC317303   8.864  30.995   9.430
 1082POPC   PO417304   9.249  30.441   9.453
 1082POPC   GL117305   9.048  30.593   9.114
 1082POPC   GL217306   9.163  30.917   9.020
 1082POPC   C1A17307   9.177  30.415   8.729
 1082POPC   D2A17308   9.343  30.416   8.336
 1082POPC   C3A17309   9.116  30.570   8.008
 1082POPC   C4A17310   8.707  30.532   7.806
 1082POPC   C1B17311   8.868  30.827   8.677
 1082POPC   C2B17312   8.683  31.084   8.368
 1082POPC   C3B17313   8.911  31.042   7.999
 1082POPC   C4B17314   9.058  30.883   7.602
 1083POPC   NC317315   7.913  40.353   9.428
 1083POPC   PO417316   8.194  39.674   9.494
 1083POPC   GL117317   8.379  39.816   9.141
 1083POPC   GL217318   8.326  40.174   9.125
 1083POPC   C1A17319   8.336  39.645   8.739
 1083POPC   D2A17320   8.450  39.635   8.329
 1083POPC   C3A17321   8.108  39.754   8.054
 1083POPC   C4A17322   8.011  40.051   7.729
 1083POPC   C1B17323   8.115  40.184   8.710
 1083POPC   C2B17324   8.050  40.314   8.254
 1083POPC   C3B17325   7.970  40.531   7.872
 1083POPC   C4B17326   7.937  40.450   7.399
 1084POPC   NC317327  17.033  42.851   9.573
 1084POPC   PO417328  16.294  42.966   9.664
 1084POPC   GL117329  16.523  42.860   9.246
 1084POPC   GL217330  16.828  43.038   9.158
 1084POPC   C1A17331  16.549  42.916   8.748
 1084POPC   D2A17332  16.496  43.240   8.390
 1084POPC   C3A17333  16.701  43.228   7.991
 1084POPC   C4A17334  16.579  42.931   7.698
 1084POPC   C1B17335  17.068  42.963   8.770
 1084POPC   C2B17336  16.924  42.963   8.366
 1084POPC   C3B17337  16.966  42.768   7.968
 1084POPC   C4B17338  17.072  42.872   7.535
 1085POPC   NC317339  19.248   0.863   9.318
 1085POPC   PO417340  18.834   1.312   9.719
 1085POPC   GL117341  18.994   1.283   9.263
 1085POPC   GL217342  19.085   1.572   9.070
 1085POPC   C1A17343  18.856   1.231   8.785
 1085POPC   D2A17344  18.620   0.986   8.490
 1085POPC   C3A17345  18.793   1.092   8.078
 1085POPC   C4A17346  18.877   1.356   7.698
 1085POPC   C1B17347  19.290   1.491   8.705
 1085POPC   C2B17348  19.172   1.425   8.287
 1085POPC   C3B17349  19.434   1.554   7.948
 1085POPC   C4B17350  19.376   1.500   7.508
 1086POPC   NC317351  28.370  35.798   9.535
 1086POPC   PO417352  28.647  36.430   9.482
 1086POPC   GL117353  28.339  36.384   9.168
 1086POPC   GL217354  28.162  36.090   9.126
 1086POPC   C1A17355  28.453  36.293   8.741
 1086POPC   D2A17356  28.663  36.419   8.368
 1086POPC   C3A17357  28.554  36.225   7.988
 1086POPC   C4A17358  28.329  36.323   7.643
 1086POPC   C1B17359  27.880  35.853   8.841
 1086POPC   C2B17360  27.929  35.842   8.405
 1086POPC   C3B17361  27.702  35.786   8.021
 1086POPC   C4B17362  27.893  35.983   7.683
 1087POPC   NC317363  27.379  31.299   9.427
 1087POPC   PO417364  27.850  31.723   9.486
 1087POPC   GL117365  27.692  31.573   9.105
 1087POPC   GL217366  27.612  31.204   8.991
 1087POPC   C1A17367  27.881  31.522   8.737
 1087POPC   D2A17368  27.873  31.241   8.458
 1087POPC   C3A17369  27.830  31.382   8.047
 1087POPC   C4A17370  27.994  31.458   7.642
 1087POPC   C1B17371  27.313  31.403   8.709
 1087POPC   C2B17372  27.047  31.456   8.327
 1087POPC   C3B17373  27.159  31.596   7.907
 1087POPC   C4B17374  27.477  31.393   7.668
 1088POPC   NC317375   3.204   9.968   9.547
 1088POPC   PO417376   3.281   9.281   9.536
 1088POPC   GL117377   3.404   9.593   9.215
 1088POPC   GL217378   3.701   9.763   9.370
 1088POPC   C1A17379   3.314   9.690   8.754
 1088POPC   D2A17380   3.270   9.536   8.292
 1088POPC   C3A17381   3.372   9.754   7.885
 1088POPC   C4A17382   3.735   9.571   7.685
 1088POPC   C1B17383   3.823   9.920   8.969
 1088POPC   C2B17384   3.702   9.981   8.557
 1088POPC   C3B17385   3.776   9.859   8.157
 1088POPC   C4B17386   3.835  10.075   7.794
 1089POPC   NC317387  37.522   9.017   9.345
 1089POPC   PO417388  38.050   8.635   9.465
 1089POPC   GL117389  37.905   8.829   9.092
 1089POPC   GL217390  37.952   9.205   9.148
 1089POPC   C1A17391  37.687   8.928   8.706
 1089POPC   D2A17392  37.858   8.999   8.307
 1089POPC   C3A17393  37.542   9.120   8.037
 1089POPC   C4A17394  37.439   9.054   7.644
 1089POPC   C1B17395  38.135   9.179   8.737
 1089POPC   C2B17396  38.091   9.456   8.348
 1089POPC   C3B17397  38.005   9.322   7.901
 1089POPC   C4B17398  38.015   9.373   7.442
 1090POPC   NC317399  23.449  17.392   9.719
 1090POPC   PO417400  24.085  17.537   9.485
 1090POPC   GL117401  23.812  17.478   9.169
 1090POPC   GL217402  23.445  17.487   9.221
 1090POPC   C1A17403  23.904  17.696   8.799
 1090POPC   D2A17404  24.131  17.700   8.406
 1090POPC   C3A17405  23.845  17.757   8.081
 1090POPC   C4A17406  23.821  17.958   7.685
 1090POPC   C1B17407  23.429  17.471   8.814
 1090POPC   C2B17408  23.501  17.668   8.455
 1090POPC   C3B17409  23.354  17.651   8.062
 1090POPC   C4B17410  23.553  17.516   7.703
 1091POPC   NC317411  43.976  29.972   9.425
 1091POPC   PO417412  43.317  29.885   9.421
 1091POPC   GL117413  43.562  30.096   9.116
 1091POPC   GL217414  43.709  29.833   9.046
 1091POPC   C1A17415  43.594  30.323   8.745
 1091POPC   D2A17416  43.876  30.258   8.412
 1091POPC   C3A17417  43.808  30.104   8.012
 1091POPC   C4A17418  44.125  30.084   7.706
 1091POPC   C1B17419  43.960  29.870   8.733
 1091POPC   C2B17420  43.885  29.682   8.350
 1091POPC   C3B17421  43.999  29.621   7.954
 1091POPC   C4B17422  43.993  29.378   7.556
 1092POPC   NC317423   4.870  37.075   9.589
 1092POPC   PO417424   5.060  36.457   9.647
 1092POPC   GL117425   5.082  36.710   9.249
 1092POPC   GL217426   5.339  37.020   9.209
 1092POPC   C1A17427   5.280  36.668   8.835
 1092POPC   D2A17428   5.204  36.880   8.434
 1092POPC   C3A17429   5.285  36.669   8.034
 1092POPC   C4A17430   4.940  36.697   7.780
 1092POPC   C1B17431   5.035  37.146   8.874
 1092POPC   C2B17432   4.816  37.270   8.478
 1092POPC   C3B17433   4.849  37.145   8.053
 1092POPC   C4B17434   5.038  37.177   7.640
 1093POPC   NC317435   8.442  10.236   9.550
 1093POPC   PO417436   8.344  10.872   9.653
 1093POPC   GL117437   8.126  10.710   9.242
 1093POPC   GL217438   8.101  10.347   9.206
 1093POPC   C1A17439   8.203  10.612   8.783
 1093POPC   D2A17440   8.534  10.552   8.472
 1093POPC   C3A17441   8.402  10.768   8.092
 1093POPC   C4A17442   8.239  10.579   7.718
 1093POPC   C1B17443   8.372  10.143   8.900
 1093POPC   C2B17444   8.360  10.025   8.512
 1093POPC   C3B17445   8.334  10.243   8.120
 1093POPC   C4B17446   8.580  10.198   7.756
 1094POPC   NC317447  14.162  17.429   9.464
 1094POPC   PO417448  14.632  17.815   9.468
 1094POPC   GL117449  14.422  17.659   9.064
 1094POPC   GL217450  14.067  17.660   9.004
 1094POPC   C1A17451  14.372  17.398   8.670
 1094POPC   D2A17452  14.205  17.311   8.230
 1094POPC   C3A17453  14.567  17.353   7.917
 1094POPC   C4A17454  14.895  17.403   7.574
 1094POPC   C1B17455  14.007  17.748   8.546
 1094POPC   C2B17456  13.958  17.774   8.113
 1094POPC   C3B17457  14.157  17.616   7.750
 1094POPC   C4B17458  14.115  17.694   7.281
 1095POPC   NC317459   3.761  22.634   9.375
 1095POPC   PO417460   3.245  23.052   9.456
 1095POPC   GL117461   3.397  22.860   9.075
 1095POPC   GL217462   3.568  23.152   9.067
 1095POPC   C1A17463   3.647  22.824   8.664
 1095POPC   D2A17464   3.629  23.143   8.312
 1095POPC   C3A17465   3.507  23.025   7.926
 1095POPC   C4A17466   3.611  22.573   7.776
 1095POPC   C1B17467   3.802  23.300   8.771
 1095POPC   C2B17468   4.096  23.132   8.498
 1095POPC   C3B17469   4.105  23.016   8.092
 1095POPC   C4B17470   3.935  22.997   7.705
 1096POPC   NC317471  10.180   6.797   9.488
 1096POPC   PO417472  10.744   6.439   9.538
 1096POPC   GL117473  10.675   6.680   9.192
 1096POPC   GL217474  10.333   6.648   9.024
 1096POPC   C1A17475  10.773   6.727   8.769
 1096POPC   D2A17476  10.418   6.673   8.492
 1096POPC   C3A17477  10.485   6.821   8.097
 1096POPC   C4A17478  10.746   6.651   7.791
 1096POPC   C1B17479  10.086   6.965   8.778
 1096POPC   C2B17480  10.145   7.169   8.340
 1096POPC   C3B17481  10.035   7.061   7.937
 1096POPC   C4B17482  10.226   6.742   7.665
 1097POPC   NC317483  11.736  23.772   9.446
 1097POPC   PO417484  11.444  23.155   9.505
 1097POPC   GL117485  11.439  23.481   9.162
 1097POPC   GL217486  11.114  23.666   9.117
 1097POPC   C1A17487  11.476  23.772   8.793
 1097POPC   D2A17488  11.250  23.756   8.404
 1097POPC   C3A17489  11.475  23.792   8.002
 1097POPC   C4A17490  11.744  24.061   7.788
 1097POPC   C1B17491  11.172  23.331   8.755
 1097POPC   C2B17492  11.033  23.247   8.319
 1097POPC   C3B17493  11.013  23.552   7.964
 1097POPC   C4B17494  11.118  23.603   7.517
 1098POPC   NC317495  43.976   1.394   9.409
 1098POPC   PO417496  43.633   0.845   9.483
 1098POPC   GL117497  43.493   1.130   9.180
 1098POPC   GL217498  43.393   1.470   9.249
 1098POPC   C1A17499  43.559   1.244   8.763
 1098POPC   D2A17500  43.845   1.248   8.436
 1098POPC   C3A17501  43.687   1.130   8.049
 1098POPC   C4A17502  43.832   1.323   7.673
 1098POPC   C1B17503  43.539   1.737   8.904
 1098POPC   C2B17504  43.528   1.670   8.462
 1098POPC   C3B17505  43.763   1.637   8.090
 1098POPC   C4B17506  43.637   1.807   7.710
 1099POPC   NC317507  36.089   0.799   9.584
 1099POPC   PO417508  36.343   1.385   9.431
 1099POPC   GL117509  36.125   1.405   9.105
 1099POPC   GL217510  35.947   1.124   9.134
 1099POPC   C1A17511  36.219   1.440   8.718
 1099POPC   D2A17512  35.941   1.363   8.434
 1099POPC   C3A17513  36.136   1.290   8.069
 1099POPC   C4A17514  36.130   1.308   7.644
 1099POPC   C1B17515  36.298   0.953   8.845
 1099POPC   C2B17516  36.391   0.914   8.381
 1099POPC   C3B17517  36.435   0.800   7.927
 1099POPC   C4B17518  36.367   0.899   7.469
 1100POPC   NC317519  36.804   1.399   9.480
 1100POPC   PO417520  36.571   0.749   9.598
 1100POPC   GL117521  36.702   0.970   9.186
 1100POPC   GL217522  36.646   1.308   8.999
 1100POPC   C1A17523  37.093   1.043   8.940
 1100POPC   D2A17524  37.265   0.850   8.549
 1100POPC   C3A17525  36.992   0.888   8.194
 1100POPC   C4A17526  36.894   1.026   7.782
 1100POPC   C1B17527  36.998   1.537   8.756
 1100POPC   C2B17528  37.104   1.702   8.317
 1100POPC   C3B17529  37.116   1.523   7.829
 1100POPC   C4B17530  37.199   1.512   7.289
 1101POPC   NC317531  43.477   7.796   9.474
 1101POPC   PO417532  43.322   8.443   9.535
 1101POPC   GL117533  43.197   8.119   9.208
 1101POPC   GL217534  42.881   7.932   9.316
 1101POPC   C1A17535  43.267   8.099   8.757
 1101POPC   D2A17536  43.157   8.474   8.488
 1101POPC   C3A17537  43.088   8.412   8.045
 1101POPC   C4A17538  43.130   8.437   7.609
 1101POPC   C1B17539  42.794   7.970   8.878
 1101POPC   C2B17540  42.809   7.887   8.427
 1101POPC   C3B17541  42.850   7.961   7.984
 1101POPC   C4B17542  43.228   7.932   7.759
 1102POPC   NC317543   5.640  41.114   9.743
 1102POPC   PO417544   5.951  40.559   9.511
 1102POPC   GL117545   5.889  40.775   9.118
 1102POPC   GL217546   5.762  41.099   9.242
 1102POPC   C1A17547   6.068  40.780   8.706
 1102POPC   D2A17548   5.928  40.519   8.361
 1102POPC   C3A17549   5.784  40.489   7.947
 1102POPC   C4A17550   5.934  40.859   7.738
 1102POPC   C1B17551   5.552  41.091   8.852
 1102POPC   C2B17552   5.671  40.982   8.444
 1102POPC   C3B17553   5.532  40.909   8.054
 1102POPC   C4B17554   5.454  40.746   7.642
 1103POPC   NC317555  11.050   9.089   9.415
 1103POPC   PO417556  11.683   8.783   9.494
 1103POPC   GL117557  11.436   8.897   9.143
 1103POPC   GL217558  11.426   9.268   9.146
 1103POPC   C1A17559  11.485   8.990   8.706
 1103POPC   D2A17560  11.605   8.843   8.293
 1103POPC   C3A17561  11.439   9.075   8.028
 1103POPC   C4A17562  11.156   8.973   7.733
 1103POPC   C1B17563  11.101   9.336   8.791
 1103POPC   C2B17564  11.018   9.176   8.343
 1103POPC   C3B17565  11.048   9.419   7.937
 1103POPC   C4B17566  10.976   9.344   7.470
 1104POPC   NC317567  40.219  41.100   9.428
 1104POPC   PO417568  39.727  40.593   9.528
 1104POPC   GL117569  39.919  40.773   9.172
 1104POPC   GL217570  39.700  41.049   9.147
 1104POPC   C1A17571  40.127  40.630   8.770
 1104POPC   D2A17572  39.906  40.489   8.376
 1104POPC   C3A17573  40.085  40.561   7.988
 1104POPC   C4A17574  39.999  40.702   7.579
 1104POPC   C1B17575  39.873  41.091   8.763
 1104POPC   C2B17576  40.092  40.979   8.385
 1104POPC   C3B17577  40.180  41.097   7.989
 1104POPC   C4B17578  39.894  41.199   7.646
 1105POPC   NC317579  35.160  32.232   9.540
 1105POPC   PO417580  35.697  32.508   9.708
 1105POPC   GL117581  35.610  32.428   9.256
 1105POPC   GL217582  35.394  32.137   9.099
 1105POPC   C1A17583  35.709  32.426   8.819
 1105POPC   D2A17584  35.526  32.060   8.578
 1105POPC   C3A17585  35.480  32.124   8.133
 1105POPC   C4A17586  35.506  32.108   7.692
 1105POPC   C1B17587  35.175  32.390   8.751
 1105POPC   C2B17588  35.165  32.500   8.288
 1105POPC   C3B17589  35.106  32.428   7.857
 1105POPC   C4B17590  35.020  32.713   7.497
 1106POPC   NC317591  33.871  43.503   9.490
 1106POPC   PO417592  33.548  42.865   9.619
 1106POPC   GL117593  33.734  42.999   9.217
 1106POPC   GL217594  33.949  42.761   9.015
 1106POPC   C1A17595  33.686  43.233   8.835
 1106POPC   D2A17596  33.855  43.237   8.441
 1106POPC   C3A17597  33.643  43.336   8.071
 1106POPC   C4A17598  33.730  43.230   7.662
 1106POPC   C1B17599  33.571  42.721   8.741
 1106POPC   C2B17600  33.514  42.882   8.303
 1106POPC   C3B17601  33.480  42.785   7.825
 1106POPC   C4B17602  33.387  42.989   7.390
 1107POPC   NC317603   2.103  26.401   9.225
 1107POPC   PO417604   1.914  25.938   9.627
 1107POPC   GL117605   1.854  25.987   9.129
 1107POPC   GL217606   2.155  25.883   9.020
 1107POPC   C1A17607   1.801  25.946   8.664
 1107POPC   D2A17608   1.880  25.748   8.241
 1107POPC   C3A17609   1.921  26.040   7.899
 1107POPC   C4A17610   1.856  26.063   7.473
 1107POPC   C1B17611   2.282  26.169   8.673
 1107POPC   C2B17612   2.464  26.166   8.282
 1107POPC   C3B17613   2.376  25.834   8.004
 1107POPC   C4B17614   2.211  25.705   7.645
 1108POPC   NC317615  21.566  13.700   9.581
 1108POPC   PO417616  20.996  13.325   9.483
 1108POPC   GL117617  21.285  13.536   9.174
 1108POPC   GL217618  21.128  13.803   9.119
 1108POPC   C1A17619  21.437  13.738   8.727
 1108POPC   D2A17620  21.497  13.599   8.273
 1108POPC   C3A17621  21.424  13.857   7.890
 1108POPC   C4A17622  21.548  13.794   7.437
 1108POPC   C1B17623  20.932  13.615   8.784
 1108POPC   C2B17624  21.016  13.715   8.370
 1108POPC   C3B17625  20.960  13.620   7.959
 1108POPC   C4B17626  21.099  13.596   7.556
 1109POPC   NC317627  17.812  24.368   9.553
 1109POPC   PO417628  17.092  24.569   9.432
 1109POPC   GL117629  17.375  24.519   9.074
 1109POPC   GL217630  17.735  24.532   9.052
 1109POPC   C1A17631  17.409  24.322   8.677
 1109POPC   D2A17632  17.428  24.490   8.280
 1109POPC   C3A17633  17.601  24.388   7.903
 1109POPC   C4A17634  17.444  24.537   7.518
 1109POPC   C1B17635  17.623  24.790   8.679
 1109POPC   C2B17636  17.683  24.937   8.252
 1109POPC   C3B17637  17.766  24.858   7.812
 1109POPC   C4B17638  17.941  24.579   7.486
 1110POPC   NC317639  22.476   6.334   9.553
 1110POPC   PO417640  22.996   6.745   9.637
 1110POPC   GL117641  22.742   6.701   9.258
 1110POPC   GL217642  22.974   6.471   9.150
 1110POPC   C1A17643  22.697   6.705   8.779
 1110POPC   D2A17644  22.953   6.724   8.365
 1110POPC   C3A17645  22.921   6.449   7.996
 1110POPC   C4A17646  22.788   6.465   7.561
 1110POPC   C1B17647  23.205   6.515   8.767
 1110POPC   C2B17648  23.390   6.433   8.369
 1110POPC   C3B17649  23.490   6.445   7.938
 1110POPC   C4B17650  23.264   6.645   7.628
 1111POPC   NC317651  44.163  28.120   9.761
 1111POPC   PO417652  43.655  28.543   9.730
 1111POPC   GL117653  43.744  28.311   9.305
 1111POPC   GL217654  44.075  28.113   9.238
 1111POPC   C1A17655  43.773  28.363   8.832
 1111POPC   D2A17656  43.942  28.621   8.480
 1111POPC   C3A17657  44.086  28.454   8.076
 1111POPC   C4A17658  43.823  28.291   7.741
 1111POPC   C1B17659  44.144  27.977   8.802
 1111POPC   C2B17660  44.284  28.006   8.357
 1111POPC   C3B17661  44.169  27.955   7.912
 1111POPC   C4B17662  44.063  27.921   7.427
 1112POPC   NC317663   1.378   2.308   9.446
 1112POPC   PO417664   0.950   2.841   9.539
 1112POPC   GL117665   1.108   2.729   9.144
 1112POPC   GL217666   1.335   2.989   9.050
 1112POPC   C1A17667   1.252   2.614   8.726
 1112POPC   D2A17668   1.444   2.494   8.351
 1112POPC   C3A17669   1.237   2.650   7.991
 1112POPC   C4A17670   1.311   2.767   7.588
 1112POPC   C1B17671   1.587   3.010   8.707
 1112POPC   C2B17672   1.406   3.028   8.296
 1112POPC   C3B17673   1.636   3.095   7.892
 1112POPC   C4B17674   1.652   3.079   7.432
 1113POPC   NC317675  24.157  20.328   9.397
 1113POPC   PO417676  23.522  20.609   9.429
 1113POPC   GL117677  23.730  20.442   9.108
 1113POPC   GL217678  23.864  20.749   9.056
 1113POPC   C1A17679  23.794  20.357   8.694
 1113POPC   D2A17680  24.093  20.219   8.372
 1113POPC   C3A17681  23.899  20.304   7.968
 1113POPC   C4A17682  23.756  20.303   7.568
 1113POPC   C1B17683  23.604  20.847   8.707
 1113POPC   C2B17684  23.372  20.865   8.338
 1113POPC   C3B17685  23.514  21.080   7.986
 1113POPC   C4B17686  23.765  20.794   7.768
 1114POPC   NC317687  22.213  14.637   9.819
 1114POPC   PO417688  21.918  14.032   9.573
 1114POPC   GL117689  22.157  14.206   9.174
 1114POPC   GL217690  22.226  14.583   9.149
 1114POPC   C1A17691  21.982  14.287   8.739
 1114POPC   D2A17692  21.810  14.451   8.315
 1114POPC   C3A17693  21.885  14.213   7.888
 1114POPC   C4A17694  21.971  14.054   7.437
 1114POPC   C1B17695  22.415  14.526   8.709
 1114POPC   C2B17696  22.358  14.190   8.389
 1114POPC   C3B17697  22.417  14.207   7.952
 1114POPC   C4B17698  22.337  14.635   7.783
 1115POPC   NC317699  14.972  35.014   9.555
 1115POPC   PO417700  15.453  35.499   9.648
 1115POPC   GL117701  15.343  35.258   9.287
 1115POPC   GL217702  15.000  35.311   9.145
 1115POPC   C1A17703  15.413  35.224   8.867
 1115POPC   D2A17704  15.214  35.114   8.502
 1115POPC   C3A17705  15.084  35.376   8.212
 1115POPC   C4A17706  15.242  35.256   7.798
 1115POPC   C1B17707  14.782  35.257   8.758
 1115POPC   C2B17708  14.608  35.076   8.386
 1115POPC   C3B17709  14.743  35.119   7.973
 1115POPC   C4B17710  14.780  35.475   7.763
 1116POPC   NC317711  18.174  30.362   9.452
 1116POPC   PO417712  17.983  29.697   9.419
 1116POPC   GL117713  18.056  29.993   9.071
 1116POPC   GL217714  18.020  30.341   8.970
 1116POPC   C1A17715  18.186  29.999   8.629
 1116POPC   D2A17716  17.963  29.951   8.233
 1116POPC   C3A17717  18.282  29.969   7.900
 1116POPC   C4A17718  18.420  29.739   7.508
 1116POPC   C1B17719  17.777  30.296   8.601
 1116POPC   C2B17720  17.989  30.458   8.251
 1116POPC   C3B17721  17.979  30.403   7.828
 1116POPC   C4B17722  18.399  30.415   7.674
 1117POPC   NC317723  30.966  32.654   9.495
 1117POPC   PO417724  30.677  31.980   9.432
 1117POPC   GL117725  30.829  32.147   9.066
 1117POPC   GL217726  30.701  32.437   8.929
 1117POPC   C1A17727  30.672  32.018   8.658
 1117POPC   D2A17728  30.762  32.162   8.268
 1117POPC   C3A17729  30.598  31.895   7.972
 1117POPC   C4A17730  30.464  31.932   7.580
 1117POPC   C1B17731  31.100  32.423   8.711
 1117POPC   C2B17732  31.284  32.640   8.367
 1117POPC   C3B17733  31.114  32.637   7.930
 1117POPC   C4B17734  30.931  32.237   7.785
 1118POPC   NC317735  23.850  16.252   9.433
 1118POPC   PO417736  23.689  15.605   9.559
 1118POPC   GL117737  23.694  15.685   9.170
 1118POPC   GL217738  23.531  15.980   9.101
 1118POPC   C1A17739  23.976  15.849   8.860
 1118POPC   D2A17740  23.980  16.047   8.466
 1118POPC   C3A17741  23.732  15.862   8.161
 1118POPC   C4A17742  23.930  15.913   7.793
 1118POPC   C1B17743  23.496  16.157   8.690
 1118POPC   C2B17744  23.609  16.354   8.291
 1118POPC   C3B17745  23.472  16.202   7.881
 1118POPC   C4B17746  23.166  16.026   7.572
 1119POPC   NC317747   5.589  33.682   9.516
 1119POPC   PO417748   6.235  33.532   9.357
 1119POPC   GL117749   6.136  33.696   8.964
 1119POPC   GL217750   5.830  33.862   9.063
 1119POPC   C1A17751   5.855  33.560   8.637
 1119POPC   D2A17752   5.820  33.598   8.234
 1119POPC   C3A17753   6.094  33.784   8.027
 1119POPC   C4A17754   6.008  33.899   7.634
 1119POPC   C1B17755   5.869  34.062   8.668
 1119POPC   C2B17756   5.579  34.032   8.351
 1119POPC   C3B17757   5.582  33.996   7.945
 1119POPC   C4B17758   5.741  34.305   7.684
 1120POPC   NC317759  11.746  24.523   9.343
 1120POPC   PO417760  11.330  24.043   9.414
 1120POPC   GL117761  11.216  24.300   9.120
 1120POPC   GL217762  11.213  24.628   9.282
 1120POPC   C1A17763  11.370  24.275   8.713
 1120POPC   D2A17764  11.507  24.210   8.308
 1120POPC   C3A17765  11.258  24.247   7.978
 1120POPC   C4A17766  11.429  24.514   7.700
 1120POPC   C1B17767  11.119  24.709   8.843
 1120POPC   C2B17768  11.049  24.545   8.420
 1120POPC   C3B17769  11.071  24.729   8.022
 1120POPC   C4B17770  11.061  24.862   7.623
 1121POPC   NC317771   2.368  33.379   9.372
 1121POPC   PO417772   1.850  32.853   9.396
 1121POPC   GL117773   2.071  32.893   9.046
 1121POPC   GL217774   2.011  33.237   9.061
 1121POPC   C1A17775   2.165  32.982   8.616
 1121POPC   D2A17776   2.281  33.227   8.246
 1121POPC   C3A17777   2.132  33.039   7.892
 1121POPC   C4A17778   2.139  32.942   7.444
 1121POPC   C1B17779   1.714  33.259   8.773
 1121POPC   C2B17780   1.791  33.344   8.359
 1121POPC   C3B17781   1.653  33.175   7.983
 1121POPC   C4B17782   1.782  33.269   7.575
 1122POPC   NC317783  12.475  20.540   9.436
 1122POPC   PO417784  13.094  20.470   9.674
 1122POPC   GL117785  12.999  20.544   9.221
 1122POPC   GL217786  12.767  20.309   9.095
 1122POPC   C1A17787  12.994  20.825   8.850
 1122POPC   D2A17788  12.988  21.026   8.443
 1122POPC   C3A17789  12.732  20.860   8.061
 1122POPC   C4A17790  12.887  20.864   7.592
 1122POPC   C1B17791  12.995  20.310   8.720
 1122POPC   C2B17792  13.040  20.534   8.342
 1122POPC   C3B17793  13.091  20.525   7.909
 1122POPC   C4B17794  13.013  20.238   7.580
 1123POPC   NC317795  32.561  27.117   9.966
 1123POPC   PO417796  32.041  26.756   9.683
 1123POPC   GL117797  32.116  26.799   9.239
 1123POPC   GL217798  32.423  26.724   9.096
 1123POPC   C1A17799  31.903  26.678   8.831
 1123POPC   D2A17800  31.812  26.804   8.388
 1123POPC   C3A17801  32.131  26.661   8.074
 1123POPC   C4A17802  32.027  26.364   7.731
 1123POPC   C1B17803  32.274  27.062   8.795
 1123POPC   C2B17804  32.447  27.230   8.418
 1123POPC   C3B17805  32.526  27.049   8.002
 1123POPC   C4B17806  32.346  26.802   7.622
 1124POPC   NC317807   6.858  11.533   9.504
 1124POPC   PO417808   6.597  10.948   9.555
 1124POPC   GL117809   6.449  11.066   9.174
 1124POPC   GL217810   6.691  11.294   9.048
 1124POPC   C1A17811   6.421  10.883   8.785
 1124POPC   D2A17812   6.566  11.018   8.399
 1124POPC   C3A17813   6.390  10.900   8.036
 1124POPC   C4A17814   6.498  10.965   7.623
 1124POPC   C1B17815   6.777  11.521   8.666
 1124POPC   C2B17816   6.618  11.489   8.241
 1124POPC   C3B17817   6.779  11.262   7.899
 1124POPC   C4B17818   6.807  11.382   7.439
 1125POPC   NC317819  20.358  41.559   9.442
 1125POPC   PO417820  20.993  41.977   9.556
 1125POPC   GL117821  20.764  41.844   9.181
 1125POPC   GL217822  20.720  41.491   9.084
 1125POPC   C1A17823  20.798  41.859   8.727
 1125POPC   D2A17824  20.803  41.485   8.499
 1125POPC   C3A17825  20.701  41.487   8.068
 1125POPC   C4A17826  20.546  41.704   7.713
 1125POPC   C1B17827  20.375  41.514   8.790
 1125POPC   C2B17828  20.300  41.379   8.397
 1125POPC   C3B17829  20.160  41.439   8.003
 1125POPC   C4B17830  20.221  41.345   7.580
 1126POPC   NC317831  39.562  12.691   9.346
 1126POPC   PO417832  39.996  13.260   9.486
 1126POPC   GL117833  40.147  12.982   9.178
 1126POPC   GL217834  40.482  13.049   9.095
 1126POPC   C1A17835  40.063  12.807   8.783
 1126POPC   D2A17836  39.765  12.822   8.454
 1126POPC   C3A17837  39.945  12.706   8.072
 1126POPC   C4A17838  39.756  12.786   7.702
 1126POPC   C1B17839  40.342  13.241   8.730
 1126POPC   C2B17840  40.223  13.055   8.369
 1126POPC   C3B17841  40.153  13.155   7.986
 1126POPC   C4B17842  40.261  12.938   7.665
 1127POPC   NC317843  27.707  38.591   9.385
 1127POPC   PO417844  27.267  38.143   9.637
 1127POPC   GL117845  27.605  38.057   9.170
 1127POPC   GL217846  27.849  38.329   8.984
 1127POPC   C1A17847  27.588  38.070   8.654
 1127POPC   D2A17848  27.439  38.433   8.384
 1127POPC   C3A17849  27.431  38.304   7.954
 1127POPC   C4A17850  27.838  38.179   7.868
 1127POPC   C1B17851  27.980  38.721   8.755
 1127POPC   C2B17852  27.844  38.839   8.372
 1127POPC   C3B17853  27.766  38.669   8.025
 1127POPC   C4B17854  27.976  38.718   7.675
 1128POPC   NC317855  38.765  31.661   9.430
 1128POPC   PO417856  38.270  31.293   9.663
 1128POPC   GL117857  38.477  31.256   9.255
 1128POPC   GL217858  38.278  31.499   9.124
 1128POPC   C1A17859  38.690  31.405   8.823
 1128POPC   D2A17860  38.651  31.615   8.406
 1128POPC   C3A17861  38.561  31.371   8.056
 1128POPC   C4A17862  38.534  31.544   7.660
 1128POPC   C1B17863  38.358  31.791   8.784
 1128POPC   C2B17864  38.131  31.827   8.406
 1128POPC   C3B17865  38.244  31.844   7.994
 1128POPC   C4B17866  38.041  31.682   7.689
 1129POPC   NC317867  34.907  11.505   9.512
 1129POPC   PO417868  34.510  10.954   9.439
 1129POPC   GL117869  34.533  11.329   9.161
 1129POPC   GL217870  34.257  11.556   9.059
 1129POPC   C1A17871  34.801  11.543   8.856
 1129POPC   D2A17872  34.912  11.426   8.435
 1129POPC   C3A17873  34.661  11.456   8.054
 1129POPC   C4A17874  34.932  11.440   7.704
 1129POPC   C1B17875  34.380  11.357   8.634
 1129POPC   C2B17876  34.163  11.230   8.246
 1129POPC   C3B17877  34.182  11.006   7.834
 1129POPC   C4B17878  34.515  11.170   7.595
 1130POPC   NC317879  27.809   9.353   9.445
 1130POPC   PO417880  28.054   8.796   9.659
 1130POPC   GL117881  27.539   8.975   9.291
 1130POPC   GL217882  27.613   9.232   8.997
 1130POPC   C1A17883  27.513   8.792   8.786
 1130POPC   D2A17884  27.940   8.667   8.591
 1130POPC   C3A17885  28.006   8.685   8.125
 1130POPC   C4A17886  27.934   8.668   7.674
 1130POPC   C1B17887  27.412   9.248   8.573
 1130POPC   C2B17888  27.400   8.940   8.228
 1130POPC   C3B17889  27.593   9.006   7.834
 1130POPC   C4B17890  27.883   9.352   7.739
 1131POPC   NC317891  35.253  44.316   9.446
 1131POPC   PO417892  35.144  44.993   9.479
 1131POPC   GL117893  35.203  44.725   9.113
 1131POPC   GL217894  35.487  44.482   9.025
 1131POPC   C1A17895  35.279  44.893   8.697
 1131POPC   D2A17896  35.255   0.030   8.265
 1131POPC   C3A17897  35.516  44.743   8.003
 1131POPC   C4A17898  35.520  44.453   7.650
 1131POPC   C1B17899  35.199  44.348   8.701
 1131POPC   C2B17900  35.279  44.325   8.243
 1131POPC   C3B17901  35.045  44.339   7.858
 1131POPC   C4B17902  35.003  44.500   7.437
 1132POPC   NC317903  34.040   0.081   9.575
 1132POPC   PO417904  33.480  44.762   9.415
 1132POPC   GL117905  33.621  44.739   9.037
 1132POPC   GL217906  33.940  44.789   9.134
 1132POPC   C1A17907  33.795  44.630   8.642
 1132POPC   D2A17908  33.644  44.577   8.238
 1132POPC   C3A17909  33.922  44.409   7.989
 1132POPC   C4A17910  34.097  44.550   7.584
 1132POPC   C1B17911  33.996   0.078   8.763
 1132POPC   C2B17912  33.859   0.045   8.351
 1132POPC   C3B17913  34.069  44.889   8.012
 1132POPC   C4B17914  34.129   0.039   7.640
 1133POPC   NC317915  28.012  16.937   9.362
 1133POPC   PO417916  28.621  17.044   9.343
 1133POPC   GL117917  28.442  16.623   9.130
 1133POPC   GL217918  28.140  16.700   8.935
 1133POPC   C1A17919  28.372  16.316   8.729
 1133POPC   D2A17920  28.498  16.478   8.327
 1133POPC   C3A17921  28.239  16.487   7.966
 1133POPC   C4A17922  28.490  16.640   7.655
 1133POPC   C1B17923  28.502  16.864   8.682
 1133POPC   C2B17924  28.434  17.127   8.337
 1133POPC   C3B17925  28.317  17.013   7.945
 1133POPC   C4B17926  28.416  17.136   7.527
 1134POPC   NC317927  24.302  33.322   9.844
 1134POPC   PO417928  24.673  32.886   9.460
 1134POPC   GL117929  24.539  32.896   9.061
 1134POPC   GL217930  24.253  33.128   9.087
 1134POPC   C1A17931  24.443  32.902   8.631
 1134POPC   D2A17932  24.138  33.132   8.421
 1134POPC   C3A17933  24.262  33.045   8.017
 1134POPC   C4A17934  24.739  32.912   7.825
 1134POPC   C1B17935  24.514  33.373   8.766
 1134POPC   C2B17936  24.622  33.312   8.277
 1134POPC   C3B17937  24.548  33.363   7.791
 1134POPC   C4B17938  24.224  33.273   7.469
 1135POPC   NC317939   7.851  34.214   9.569
 1135POPC   PO417940   7.238  34.483   9.504
 1135POPC   GL117941   7.463  34.342   9.190
 1135POPC   GL217942   7.630  34.614   9.185
 1135POPC   C1A17943   7.403  34.490   8.764
 1135POPC   D2A17944   7.186  34.377   8.425
 1135POPC   C3A17945   7.337  34.530   8.037
 1135POPC   C4A17946   7.346  34.630   7.618
 1135POPC   C1B17947   7.767  34.854   8.797
 1135POPC   C2B17948   7.768  34.682   8.360
 1135POPC   C3B17949   7.717  34.846   7.915
 1135POPC   C4B17950   7.819  34.781   7.456
 1136POPC   NC317951  34.665   2.505   9.360
 1136POPC   PO417952  34.655   1.868   9.491
 1136POPC   GL117953  34.504   1.938   9.092
 1136POPC   GL217954  34.287   2.229   9.088
 1136POPC   C1A17955  34.641   1.886   8.662
 1136POPC   D2A17956  34.670   2.160   8.290
 1136POPC   C3A17957  34.822   1.952   7.944
 1136POPC   C4A17958  34.761   1.542   7.875
 1136POPC   C1B17959  34.374   2.365   8.663
 1136POPC   C2B17960  34.196   2.383   8.234
 1136POPC   C3B17961  34.377   2.178   7.857
 1136POPC   C4B17962  34.681   2.282   7.544
 1137POPC   NC317963  37.906   7.673   9.454
 1137POPC   PO417964  37.532   7.110   9.430
 1137POPC   GL117965  37.694   7.356   9.079
 1137POPC   GL217966  37.967   7.167   9.047
 1137POPC   C1A17967  37.678   7.618   8.659
 1137POPC   D2A17968  37.366   7.646   8.330
 1137POPC   C3A17969  37.553   7.654   7.915
 1137POPC   C4A17970  37.727   7.409   7.553
 1137POPC   C1B17971  37.786   7.128   8.625
 1137POPC   C2B17972  37.824   7.341   8.221
 1137POPC   C3B17973  38.097   7.257   7.870
 1137POPC   C4B17974  38.102   7.027   7.439
 1138POPC   NC317975  35.960  44.082   9.536
 1138POPC   PO417976  35.318  43.846   9.526
 1138POPC   GL117977  35.272  43.946   9.101
 1138POPC   GL217978  35.641  43.975   9.127
 1138POPC   C1A17979  35.015  43.832   8.722
 1138POPC   D2A17980  34.880  43.966   8.293
 1138POPC   C3A17981  35.199  43.867   8.009
 1138POPC   C4A17982  35.237  43.615   7.667
 1138POPC   C1B17983  35.548  43.657   8.794
 1138POPC   C2B17984  35.537  43.763   8.380
 1138POPC   C3B17985  35.681  43.624   7.985
 1138POPC   C4B17986  35.626  43.960   7.747
 1139POPC   NC317987  41.031  19.629   9.380
 1139POPC   PO417988  40.937  20.264   9.350
 1139POPC   GL117989  40.830  19.989   9.065
 1139POPC   GL217990  40.533  19.874   9.214
 1139POPC   C1A17991  40.879  19.765   8.699
 1139POPC   D2A17992  40.960  19.876   8.277
 1139POPC   C3A17993  41.065  19.613   7.938
 1139POPC   C4A17994  40.953  19.976   7.690
 1139POPC   C1B17995  40.397  19.972   8.776
 1139POPC   C2B17996  40.349  19.842   8.323
 1139POPC   C3B17997  40.454  19.917   7.859
 1139POPC   C4B17998  40.304  19.979   7.414
 1140POPC   NC317999  25.562  21.826   9.483
 1140POPC   PO418000  24.941  21.967   9.188
 1140POPC   GL118001  25.356  22.001   9.032
 1140POPC   GL218002  25.471  22.296   9.225
 1140POPC   C1A18003  25.328  22.022   8.589
 1140POPC   D2A18004  25.007  22.226   8.322
 1140POPC   C3A18005  25.013  22.001   7.931
 1140POPC   C4A18006  25.344  22.000   7.603
 1140POPC   C1B18007  25.549  22.438   8.794
 1140POPC   C2B18008  25.509  22.419   8.311
 1140POPC   C3B18009  25.296  22.410   7.888
 1140POPC   C4B18010  25.338  22.514   7.424
 1141POPC   NC318011  42.610  32.726   9.368
 1141POPC   PO418012  42.250  33.273   9.590
 1141POPC   GL118013  42.170  33.038   9.218
 1141POPC   GL218014  42.370  33.204   8.971
 1141POPC   C1A18015  41.943  32.872   8.841
 1141POPC   D2A18016  42.017  33.063   8.458
 1141POPC   C3A18017  41.960  32.839   8.076
 1141POPC   C4A18018  42.095  32.833   7.683
 1141POPC   C1B18019  42.453  32.787   8.732
 1141POPC   C2B18020  42.569  32.504   8.356
 1141POPC   C3B18021  42.541  32.665   7.909
 1141POPC   C4B18022  42.491  33.137   7.798
 1142POPC   NC318023  29.715  21.545   9.471
 1142POPC   PO418024  29.897  21.000   9.705
 1142POPC   GL118025  29.969  21.165   9.232
 1142POPC   GL218026  29.742  21.364   9.005
 1142POPC   C1A18027  30.096  21.075   8.789
 1142POPC   D2A18028  29.785  21.093   8.451
 1142POPC   C3A18029  29.858  21.315   8.062
 1142POPC   C4A18030  29.880  21.220   7.645
 1142POPC   C1B18031  29.426  21.587   8.751
 1142POPC   C2B18032  29.506  21.687   8.310
 1142POPC   C3B18033  29.816  21.854   8.027
 1142POPC   C4B18034  30.015  21.702   7.668
 1143POPC   NC318035  16.842  14.780   9.435
 1143POPC   PO418036  16.745  15.349   9.521
 1143POPC   GL118037  16.604  15.128   9.135
 1143POPC   GL218038  16.362  15.377   9.079
 1143POPC   C1A18039  16.757  14.955   8.718
 1143POPC   D2A18040  16.952  15.188   8.369
 1143POPC   C3A18041  16.827  15.037   7.965
 1143POPC   C4A18042  16.735  15.141   7.523
 1143POPC   C1B18043  16.465  15.375   8.673
 1143POPC   C2B18044  16.456  15.255   8.266
 1143POPC   C3B18045  16.471  15.444   7.859
 1143POPC   C4B18046  16.354  15.466   7.395
 1144POPC   NC318047  41.206  40.944   9.385
 1144POPC   PO418048  41.437  40.312   9.573
 1144POPC   GL118049  41.555  40.596   9.207
 1144POPC   GL218050  41.510  40.924   8.997
 1144POPC   C1A18051  41.731  40.546   8.786
 1144POPC   D2A18052  41.478  40.751   8.476
 1144POPC   C3A18053  41.680  40.692   8.088
 1144POPC   C4A18054  41.565  40.640   7.673
 1144POPC   C1B18055  41.467  41.219   8.669
 1144POPC   C2B18056  41.512  41.182   8.207
 1144POPC   C3B18057  41.368  41.142   7.778
 1144POPC   C4B18058  41.254  41.252   7.326
 1145POPC   NC318059  42.015   8.407   9.598
 1145POPC   PO418060  41.467   7.972   9.463
 1145POPC   GL118061  41.516   8.188   9.129
 1145POPC   GL218062  41.627   8.489   9.219
 1145POPC   C1A18063  41.383   8.086   8.735
 1145POPC   D2A18064  41.621   7.984   8.360
 1145POPC   C3A18065  41.458   8.046   7.972
 1145POPC   C4A18066  41.593   7.928   7.601
 1145POPC   C1B18067  41.595   8.644   8.832
 1145POPC   C2B18068  41.465   8.501   8.430
 1145POPC   C3B18069  41.597   8.541   8.014
 1145POPC   C4B18070  41.390   8.437   7.595
 1146POPC   NC318071  43.841   9.406   9.502
 1146POPC   PO418072  43.256   9.854   9.580
 1146POPC   GL118073  43.518   9.971   9.169
 1146POPC   GL218074  43.694   9.664   9.041
 1146POPC   C1A18075  43.685  10.071   8.722
 1146POPC   D2A18076  43.961   9.923   8.391
 1146POPC   C3A18077  44.098  10.049   7.991
 1146POPC   C4A18078  43.863   9.962   7.598
 1146POPC   C1B18079  44.109   9.624   8.795
 1146POPC   C2B18080  44.170   9.466   8.352
 1146POPC   C3B18081  43.918   9.566   7.959
 1146POPC   C4B18082  43.846   9.458   7.492
 1147POPC   NC318083  32.505  14.748   9.577
 1147POPC   PO418084  32.285  14.075   9.437
 1147POPC   GL118085  32.105  14.317   9.101
 1147POPC   GL218086  32.053  14.687   9.198
 1147POPC   C1A18087  32.143  14.264   8.661
 1147POPC   D2A18088  32.094  14.525   8.295
 1147POPC   C3A18089  32.161  14.349   7.906
 1147POPC   C4A18090  31.924  14.088   7.684
 1147POPC   C1B18091  32.440  14.642   8.906
 1147POPC   C2B18092  32.587  14.514   8.483
 1147POPC   C3B18093  32.576  14.701   8.070
 1147POPC   C4B18094  32.354  14.757   7.674
 1148POPC   NC318095  41.416  24.869   9.552
 1148POPC   PO418096  41.745  24.290   9.315
 1148POPC   GL118097  41.721  24.698   9.109
 1148POPC   GL218098  41.378  24.727   9.075
 1148POPC   C1A18099  41.804  24.643   8.678
 1148POPC   D2A18100  41.683  24.324   8.360
 1148POPC   C3A18101  41.747  24.460   7.952
 1148POPC   C4A18102  41.662  24.799   7.672
 1148POPC   C1B18103  41.313  24.477   8.698
 1148POPC   C2B18104  41.161  24.357   8.286
 1148POPC   C3B18105  41.240  24.565   7.904
 1148POPC   C4B18106  41.397  24.372   7.525
 1149POPC   NC318107  23.378  27.520   9.555
 1149POPC   PO418108  23.828  27.975   9.561
 1149POPC   GL118109  23.827  27.670   9.229
 1149POPC   GL218110  23.505  27.524   9.076
 1149POPC   C1A18111  23.885  27.701   8.794
 1149POPC   D2A18112  23.592  27.781   8.473
 1149POPC   C3A18113  23.867  27.782   8.160
 1149POPC   C4A18114  23.766  27.594   7.791
 1149POPC   C1B18115  23.505  27.304   8.670
 1149POPC   C2B18116  23.355  27.356   8.228
 1149POPC   C3B18117  23.377  27.251   7.780
 1149POPC   C4B18118  23.510  27.453   7.367
 1150POPC   NC318119  41.372  15.180   9.480
 1150POPC   PO418120  42.059  15.429   9.432
 1150POPC   GL118121  41.821  15.548   9.077
 1150POPC   GL218122  41.458  15.476   9.061
 1150POPC   C1A18123  41.752  15.429   8.637
 1150POPC   D2A18124  41.417  15.216   8.423
 1150POPC   C3A18125  41.542  15.021   8.057
 1150POPC   C4A18126  41.608  15.207   7.688
 1150POPC   C1B18127  41.322  15.755   8.728
 1150POPC   C2B18128  41.216  15.719   8.286
 1150POPC   C3B18129  41.194  15.386   7.981
 1150POPC   C4B18130  41.171  15.359   7.500
 1151POPC   NC318131  41.967   9.165   9.561
 1151POPC   PO418132  42.636   9.069   9.574
 1151POPC   GL118133  42.366   8.992   9.217
 1151POPC   GL218134  42.066   8.772   9.237
 1151POPC   C1A18135  42.381   9.148   8.806
 1151POPC   D2A18136  42.148   9.327   8.493
 1151POPC   C3A18137  42.247   9.165   8.127
 1151POPC   C4A18138  42.114   9.211   7.724
 1151POPC   C1B18139  42.140   8.676   8.816
 1151POPC   C2B18140  42.321   8.740   8.401
 1151POPC   C3B18141  42.121   8.694   7.975
 1151POPC   C4B18142  42.212   8.728   7.539
 1152POPC   NC318143  33.662   1.025   9.653
 1152POPC   PO418144  34.076   1.471   9.435
 1152POPC   GL118145  33.723   1.341   9.153
 1152POPC   GL218146  33.474   1.044   9.186
 1152POPC   C1A18147  33.508   1.583   8.791
 1152POPC   D2A18148  33.590   1.645   8.345
 1152POPC   C3A18149  33.951   1.440   8.205
 1152POPC   C4A18150  34.045   1.290   7.800
 1152POPC   C1B18151  33.534   1.079   8.759
 1152POPC   C2B18152  33.702   1.033   8.368
 1152POPC   C3B18153  33.564   1.074   7.946
 1152POPC   C4B18154  33.505   0.747   7.638
 1153POPC   NC318155  30.221  27.788   9.448
 1153POPC   PO418156  29.656  27.515   9.614
 1153POPC   GL118157  29.814  27.597   9.186
 1153POPC   GL218158  29.821  27.982   9.187
 1153POPC   C1A18159  29.980  27.437   8.764
 1153POPC   D2A18160  30.253  27.478   8.386
 1153POPC   C3A18161  30.117  27.269   8.043
 1153POPC   C4A18162  29.784  27.386   7.778
 1153POPC   C1B18163  29.662  27.880   8.790
 1153POPC   C2B18164  29.684  27.704   8.401
 1153POPC   C3B18165  29.810  27.818   8.011
 1153POPC   C4B18166  30.219  27.700   7.789
 1154POPC   NC318167   0.457  44.238   9.297
 1154POPC   PO418168   0.247  43.656   9.424
 1154POPC   GL118169   0.181  43.862   9.076
 1154POPC   GL218170   0.550  43.854   8.962
 1154POPC   C1A18171   0.190  44.053   8.690
 1154POPC   D2A18172   0.316  43.813   8.365
 1154POPC   C3A18173   0.178  43.986   7.997
 1154POPC   C4A18174   0.372  44.090   7.633
 1154POPC   C1B18175   0.746  43.601   8.623
 1154POPC   C2B18176   0.659  43.458   8.206
 1154POPC   C3B18177   0.598  43.534   7.768
 1154POPC   C4B18178   0.861  43.426   7.428
 1155POPC   NC318179  42.858  27.784   9.390
 1155POPC   PO418180  43.256  27.282   9.488
 1155POPC   GL118181  43.226  27.505   9.118
 1155POPC   GL218182  42.912  27.389   9.044
 1155POPC   C1A18183  43.282  27.403   8.687
 1155POPC   D2A18184  43.580  27.364   8.382
 1155POPC   C3A18185  43.396  27.384   7.978
 1155POPC   C4A18186  43.166  27.714   7.819
 1155POPC   C1B18187  42.863  27.721   8.720
 1155POPC   C2B18188  42.900  27.631   8.270
 1155POPC   C3B18189  42.683  27.737   7.874
 1155POPC   C4B18190  42.790  27.515   7.451
 1156POPC   NC318191   2.683  28.275   9.713
 1156POPC   PO418192   3.056  28.780   9.457
 1156POPC   GL118193   2.763  28.538   9.247
 1156POPC   GL218194   2.880  28.217   9.231
 1156POPC   C1A18195   2.730  28.506   8.798
 1156POPC   D2A18196   2.965  28.416   8.437
 1156POPC   C3A18197   2.663  28.302   8.134
 1156POPC   C4A18198   2.670  28.447   7.705
 1156POPC   C1B18199   3.065  28.091   8.837
 1156POPC   C2B18200   2.984  27.902   8.458
 1156POPC   C3B18201   3.091  28.044   8.082
 1156POPC   C4B18202   2.796  27.915   7.826
 1157POPC   NC318203   4.256   0.195   9.414
 1157POPC   PO418204   4.697   0.674   9.437
 1157POPC   GL118205   4.466   0.515   9.089
 1157POPC   GL218206   4.105   0.650   9.138
 1157POPC   C1A18207   4.508   0.350   8.695
 1157POPC   D2A18208   4.743   0.373   8.316
 1157POPC   C3A18209   4.495   0.348   7.987
 1157POPC   C4A18210   4.336   0.504   7.631
 1157POPC   C1B18211   4.002   0.423   8.754
 1157POPC   C2B18212   4.137   0.243   8.348
 1157POPC   C3B18213   3.975   0.264   7.902
 1157POPC   C4B18214   3.827   0.675   7.717
 1158POPC   NC318215  23.814   0.273   9.454
 1158POPC   PO418216  23.599   0.885   9.360
 1158POPC   GL118217  23.444   0.486   9.151
 1158POPC   GL218218  23.761   0.515   8.999
 1158POPC   C1A18219  23.483   0.185   8.751
 1158POPC   D2A18220  23.624   0.342   8.326
 1158POPC   C3A18221  23.533   0.234   7.885
 1158POPC   C4A18222  23.871   0.186   7.550
 1158POPC   C1B18223  23.483   0.713   8.695
 1158POPC   C2B18224  23.590   0.860   8.309
 1158POPC   C3B18225  23.701   0.714   7.901
 1158POPC   C4B18226  23.533   0.590   7.492
 1159POPC   NC318227  13.914  13.882   9.544
 1159POPC   PO418228  13.438  13.429   9.437
 1159POPC   GL118229  13.634  13.459   9.101
 1159POPC   GL218230  13.639  13.780   9.112
 1159POPC   C1A18231  13.771  13.424   8.715
 1159POPC   D2A18232  13.551  13.593   8.375
 1159POPC   C3A18233  13.724  13.450   7.996
 1159POPC   C4A18234  13.438  13.244   7.765
 1159POPC   C1B18235  13.503  13.986   8.781
 1159POPC   C2B18236  13.401  14.147   8.423
 1159POPC   C3B18237  13.482  14.001   8.056
 1159POPC   C4B18238  13.547  13.837   7.684
 1160POPC   NC318239  32.033  22.829   9.440
 1160POPC   PO418240  32.598  22.583   9.118
 1160POPC   GL118241  32.397  23.001   9.131
 1160POPC   GL218242  32.593  23.306   9.199
 1160POPC   C1A18243  32.147  23.102   8.763
 1160POPC   D2A18244  31.839  22.790   8.573
 1160POPC   C3A18245  31.825  22.758   8.122
 1160POPC   C4A18246  32.120  22.670   7.773
 1160POPC   C1B18247  32.658  23.206   8.759
 1160POPC   C2B18248  32.463  23.163   8.353
 1160POPC   C3B18249  32.315  23.178   7.931
 1160POPC   C4B18250  32.551  22.941   7.636
 1161POPC   NC318251  33.382  31.227   9.535
 1161POPC   PO418252  34.067  31.445   9.541
 1161POPC   GL118253  33.967  31.570   9.144
 1161POPC   GL218254  33.643  31.484   9.151
 1161POPC   C1A18255  33.929  31.343   8.739
 1161POPC   D2A18256  34.091  31.336   8.332
 1161POPC   C3A18257  33.842  31.355   7.976
 1161POPC   C4A18258  34.004  31.537   7.639
 1161POPC   C1B18259  33.446  31.483   8.753
 1161POPC   C2B18260  33.530  31.560   8.358
 1161POPC   C3B18261  33.320  31.676   8.014
 1161POPC   C4B18262  33.453  31.601   7.618
 1162POPC   NC318263  36.607  36.701   9.307
 1162POPC   PO418264  37.319  36.763   9.426
 1162POPC   GL118265  37.108  36.727   9.053
 1162POPC   GL218266  36.940  37.017   9.057
 1162POPC   C1A18267  37.049  36.650   8.612
 1162POPC   D2A18268  37.097  36.748   8.167
 1162POPC   C3A18269  36.756  36.607   7.917
 1162POPC   C4A18270  36.524  36.941   7.774
 1162POPC   C1B18271  36.674  37.092   8.680
 1162POPC   C2B18272  36.452  37.027   8.275
 1162POPC   C3B18273  36.196  37.268   7.959
 1162POPC   C4B18274  36.183  37.186   7.470
 1163POPC   NC318275  10.565  41.992   9.847
 1163POPC   PO418276  10.582  42.518   9.442
 1163POPC   GL118277  10.372  42.295   9.193
 1163POPC   GL218278  10.240  42.053   9.403
 1163POPC   C1A18279  10.537  42.253   8.788
 1163POPC   D2A18280  10.680  42.377   8.364
 1163POPC   C3A18281  10.524  42.400   7.901
 1163POPC   C4A18282  10.687  42.324   7.477
 1163POPC   C1B18283  10.146  41.925   8.956
 1163POPC   C2B18284  10.158  42.067   8.523
 1163POPC   C3B18285  10.297  42.005   8.127
 1163POPC   C4B18286  10.324  41.975   7.702
 1164POPC   NC318287  21.124   8.261   9.617
 1164POPC   PO418288  21.694   8.183   9.624
 1164POPC   GL118289  21.448   8.272   9.236
 1164POPC   GL218290  21.245   7.952   9.155
 1164POPC   C1A18291  21.369   8.288   8.780
 1164POPC   D2A18292  21.278   8.415   8.343
 1164POPC   C3A18293  21.604   8.330   8.033
 1164POPC   C4A18294  21.568   8.233   7.606
 1164POPC   C1B18295  21.363   7.756   8.728
 1164POPC   C2B18296  21.440   7.880   8.270
 1164POPC   C3B18297  21.159   8.093   7.958
 1164POPC   C4B18298  20.922   7.971   7.602
 1165POPC   NC318299  32.007  40.971   9.524
 1165POPC   PO418300  32.553  40.629   9.517
 1165POPC   GL118301  32.395  40.887   9.194
 1165POPC   GL218302  32.360  40.617   8.997
 1165POPC   C1A18303  32.193  41.077   8.834
 1165POPC   D2A18304  32.185  41.112   8.360
 1165POPC   C3A18305  32.207  40.754   8.105
 1165POPC   C4A18306  32.415  40.737   7.746
 1165POPC   C1B18307  32.530  40.780   8.591
 1165POPC   C2B18308  32.447  40.413   8.375
 1165POPC   C3B18309  32.566  40.288   7.997
 1165POPC   C4B18310  32.580  40.209   7.593
 1166POPC   NC318311  12.617  36.144   9.421
 1166POPC   PO418312  13.089  35.799   9.319
 1166POPC   GL118313  12.967  36.071   9.044
 1166POPC   GL218314  12.589  36.051   8.935
 1166POPC   C1A18315  12.986  36.211   8.674
 1166POPC   D2A18316  12.758  36.160   8.375
 1166POPC   C3A18317  12.928  36.317   8.021
 1166POPC   C4A18318  13.036  36.338   7.600
 1166POPC   C1B18319  12.727  35.711   8.709
 1166POPC   C2B18320  12.607  35.608   8.291
 1166POPC   C3B18321  12.530  35.922   8.000
 1166POPC   C4B18322  12.882  35.867   7.766
 1167POPC   NC318323  44.304   4.094   9.410
 1167POPC   PO418324  44.749   4.398   9.793
 1167POPC   GL118325  44.661   4.460   9.354
 1167POPC   GL218326  44.766   4.124   9.198
 1167POPC   C1A18327  44.681   4.692   8.966
 1167POPC   D2A18328  44.701   4.815   8.539
 1167POPC   C3A18329  44.773   4.522   8.225
 1167POPC   C4A18330  44.746   4.596   7.808
 1167POPC   C1B18331  44.811   3.880   8.820
 1167POPC   C2B18332  44.638   4.005   8.416
 1167POPC   C3B18333  44.761   4.067   8.002
 1167POPC   C4B18334  44.511   3.948   7.698
 1168POPC   NC318335  11.678   0.302   9.485
 1168POPC   PO418336  11.029   0.539   9.531
 1168POPC   GL118337  11.258   0.373   9.169
 1168POPC   GL218338  11.508   0.644   9.148
 1168POPC   C1A18339  11.445   0.210   8.760
 1168POPC   D2A18340  11.266   0.095   8.349
 1168POPC   C3A18341  11.174   0.388   8.002
 1168POPC   C4A18342  11.087   0.375   7.559
 1168POPC   C1B18343  11.309   0.697   8.756
 1168POPC   C2B18344  11.473   0.592   8.374
 1168POPC   C3B18345  11.540   0.748   7.975
 1168POPC   C4B18346  11.578   0.496   7.680
 1169POPC   NC318347  33.760  26.413   9.341
 1169POPC   PO418348  33.730  27.095   9.520
 1169POPC   GL118349  33.724  27.119   9.096
 1169POPC   GL218350  34.058  27.167   9.069
 1169POPC   C1A18351  33.767  26.806   8.789
 1169POPC   D2A18352  33.845  26.590   8.422
 1169POPC   C3A18353  33.666  26.805   8.105
 1169POPC   C4A18354  33.713  26.846   7.705
 1169POPC   C1B18355  34.163  27.102   8.684
 1169POPC   C2B18356  33.936  27.185   8.344
 1169POPC   C3B18357  34.092  27.108   7.957
 1169POPC   C4B18358  34.119  27.060   7.538
 1170POPC   NC318359  36.097  38.386   9.715
 1170POPC   PO418360  35.562  38.589   9.280
 1170POPC   GL118361  35.319  38.400   9.028
 1170POPC   GL218362  35.010  38.523   9.102
 1170POPC   C1A18363  35.442  38.251   8.640
 1170POPC   D2A18364  35.551  37.942   8.360
 1170POPC   C3A18365  35.570  38.210   7.969
 1170POPC   C4A18366  35.702  38.651   7.839
 1170POPC   C1B18367  35.148  38.672   8.642
 1170POPC   C2B18368  35.258  38.624   8.178
 1170POPC   C3B18369  35.225  38.909   7.807
 1170POPC   C4B18370  35.045  38.949   7.365
 1171POPC   NC318371  30.365  30.675   9.465
 1171POPC   PO418372  29.683  30.804   9.629
 1171POPC   GL118373  29.676  30.703   9.195
 1171POPC   GL218374  29.862  30.385   9.173
 1171POPC   C1A18375  29.886  30.979   8.881
 1171POPC   D2A18376  30.158  30.940   8.524
 1171POPC   C3A18377  29.965  30.968   8.116
 1171POPC   C4A18378  29.722  30.832   7.752
 1171POPC   C1B18379  29.937  30.489   8.752
 1171POPC   C2B18380  30.041  30.485   8.321
 1171POPC   C3B18381  30.073  30.488   7.882
 1171POPC   C4B18382  29.885  30.376   7.498
 1172POPC   NC318383  21.921  18.146   9.631
 1172POPC   PO418384  22.256  17.491   9.509
 1172POPC   GL118385  22.076  17.583   9.119
 1172POPC   GL218386  21.746  17.398   9.083
 1172POPC   C1A18387  22.354  17.587   8.762
 1172POPC   D2A18388  22.610  17.427   8.413
 1172POPC   C3A18389  22.478  17.578   8.032
 1172POPC   C4A18390  22.329  17.664   7.644
 1172POPC   C1B18391  21.959  17.249   8.721
 1172POPC   C2B18392  22.093  17.359   8.304
 1172POPC   C3B18393  21.948  17.416   7.872
 1172POPC   C4B18394  21.986  17.155   7.504
 1173POPC   NC318395  39.602  24.597   9.625
 1173POPC   PO418396  40.181  24.358   9.439
 1173POPC   GL118397  39.804  24.391   9.131
 1173POPC   GL218398  39.591  24.067   9.132
 1173POPC   C1A18399  39.809  24.600   8.690
 1173POPC   D2A18400  40.164  24.808   8.423
 1173POPC   C3A18401  40.220  24.673   7.997
 1173POPC   C4A18402  40.021  24.768   7.572
 1173POPC   C1B18403  39.797  24.064   8.688
 1173POPC   C2B18404  39.948  24.256   8.277
 1173POPC   C3B18405  39.897  24.302   7.808
 1173POPC   C4B18406  39.674  24.052   7.487
 1174POPC   NC318407  35.356   7.666   9.490
 1174POPC   PO418408  35.262   7.037   9.423
 1174POPC   GL118409  35.246   7.324   9.083
 1174POPC   GL218410  35.396   7.662   8.996
 1174POPC   C1A18411  35.205   7.284   8.652
 1174POPC   D2A18412  34.940   7.388   8.323
 1174POPC   C3A18413  35.145   7.361   8.001
 1174POPC   C4A18414  35.142   7.268   7.626
 1174POPC   C1B18415  35.685   7.367   8.808
 1174POPC   C2B18416  35.782   7.473   8.398
 1174POPC   C3B18417  35.563   7.697   8.131
 1174POPC   C4B18418  35.512   7.594   7.729
 1175POPC   NC318419  33.681  22.363   9.511
 1175POPC   PO418420  33.538  21.692   9.360
 1175POPC   GL118421  33.586  22.041   9.064
 1175POPC   GL218422  33.902  22.228   9.075
 1175POPC   C1A18423  33.599  22.274   8.666
 1175POPC   D2A18424  33.832  22.279   8.293
 1175POPC   C3A18425  33.761  22.403   7.896
 1175POPC   C4A18426  33.876  21.986   7.742
 1175POPC   C1B18427  34.138  22.216   8.687
 1175POPC   C2B18428  34.368  22.359   8.346
 1175POPC   C3B18429  34.258  22.319   7.939
 1175POPC   C4B18430  34.287  22.455   7.521
 1176POPC   NC318431  27.699  27.993   9.364
 1176POPC   PO418432  27.045  28.103   9.436
 1176POPC   GL118433  27.261  28.388   9.112
 1176POPC   GL218434  27.637  28.498   9.180
 1176POPC   C1A18435  27.479  28.355   8.707
 1176POPC   D2A18436  27.789  28.148   8.426
 1176POPC   C3A18437  27.583  28.122   8.030
 1176POPC   C4A18438  27.326  28.445   7.845
 1176POPC   C1B18439  27.932  28.603   8.819
 1176POPC   C2B18440  27.988  28.621   8.390
 1176POPC   C3B18441  27.767  28.627   8.028
 1176POPC   C4B18442  27.813  28.638   7.597
 1177POPC   NC318443  39.528  31.764   9.454
 1177POPC   PO418444  40.138  31.463   9.460
 1177POPC   GL118445  40.151  31.724   9.106
 1177POPC   GL218446  40.423  31.496   9.029
 1177POPC   C1A18447  39.870  31.899   8.760
 1177POPC   D2A18448  39.497  31.981   8.496
 1177POPC   C3A18449  39.464  31.724   8.109
 1177POPC   C4A18450  39.777  31.563   7.814
 1177POPC   C1B18451  40.293  31.613   8.619
 1177POPC   C2B18452  40.101  31.609   8.228
 1177POPC   C3B18453  40.293  31.515   7.840
 1177POPC   C4B18454  40.219  31.654   7.420
 1178POPC   NC318455   9.180  10.079   9.531
 1178POPC   PO418456   8.728  10.526   9.316
 1178POPC   GL118457   9.120  10.522   9.116
 1178POPC   GL218458   9.242  10.181   9.031
 1178POPC   C1A18459   9.147  10.747   8.713
 1178POPC   D2A18460   9.186  10.512   8.309
 1178POPC   C3A18461   8.885  10.553   7.965
 1178POPC   C4A18462   8.679  10.825   7.669
 1178POPC   C1B18463   8.909  10.291   8.712
 1178POPC   C2B18464   8.820  10.132   8.303
 1178POPC   C3B18465   9.128  10.085   8.000
 1178POPC   C4B18466   9.080  10.231   7.591
 1179POPC   NC318467  14.192  32.426   9.487
 1179POPC   PO418468  14.809  32.237   9.467
 1179POPC   GL118469  14.512  32.204   9.175
 1179POPC   GL218470  14.410  31.889   9.274
 1179POPC   C1A18471  14.291  32.276   8.807
 1179POPC   D2A18472  14.322  32.497   8.413
 1179POPC   C3A18473  14.414  32.316   8.020
 1179POPC   C4A18474  14.252  32.121   7.632
 1179POPC   C1B18475  14.558  31.834   8.828
 1179POPC   C2B18476  14.466  31.985   8.428
 1179POPC   C3B18477  14.569  31.846   8.030
 1179POPC   C4B18478  14.751  31.998   7.664
 1180POPC   NC318479  14.106  29.763   9.423
 1180POPC   PO418480  14.338  30.386   9.546
 1180POPC   GL118481  14.495  30.362   9.121
 1180POPC   GL218482  14.469  29.987   9.088
 1180POPC   C1A18483  14.362  30.276   8.681
 1180POPC   D2A18484  14.375  30.000   8.340
 1180POPC   C3A18485  14.286  30.159   7.946
 1180POPC   C4A18486  14.465  30.450   7.679
 1180POPC   C1B18487  14.652  29.763   8.713
 1180POPC   C2B18488  14.569  29.515   8.321
 1180POPC   C3B18489  14.445  29.653   7.906
 1180POPC   C4B18490  14.386  29.546   7.468
 1181POPC   NC318491   7.560  17.296   9.445
 1181POPC   PO418492   7.403  17.966   9.515
 1181POPC   GL118493   7.307  17.666   9.147
 1181POPC   GL218494   7.469  17.351   8.968
 1181POPC   C1A18495   7.346  17.731   8.678
 1181POPC   D2A18496   7.451  17.513   8.308
 1181POPC   C3A18497   7.295  17.788   7.978
 1181POPC   C4A18498   7.063  17.979   7.639
 1181POPC   C1B18499   7.253  17.141   8.660
 1181POPC   C2B18500   7.226  16.974   8.267
 1181POPC   C3B18501   7.438  17.181   7.906
 1181POPC   C4B18502   7.188  17.232   7.534
 1182POPC   NC318503  11.874  21.449   9.212
 1182POPC   PO418504  12.261  21.018   9.604
 1182POPC   GL118505  12.319  21.212   9.173
 1182POPC   GL218506  12.080  21.040   8.981
 1182POPC   C1A18507  12.292  21.510   8.758
 1182POPC   D2A18508  11.969  21.553   8.453
 1182POPC   C3A18509  11.971  21.675   8.033
 1182POPC   C4A18510  11.668  21.585   7.743
 1182POPC   C1B18511  12.116  21.004   8.554
 1182POPC   C2B18512  11.829  20.856   8.249
 1182POPC   C3B18513  11.772  21.120   7.939
 1182POPC   C4B18514  11.965  21.218   7.561
 1183POPC   NC318515   0.993  42.686   9.438
 1183POPC   PO418516   1.571  42.386   9.646
 1183POPC   GL118517   1.304  42.334   9.214
 1183POPC   GL218518   1.201  42.671   8.985
 1183POPC   C1A18519   1.330  42.261   8.758
 1183POPC   D2A18520   1.476  42.533   8.426
 1183POPC   C3A18521   1.504  42.297   8.053
 1183POPC   C4A18522   1.195  42.274   7.729
 1183POPC   C1B18523   0.987  42.609   8.617
 1183POPC   C2B18524   0.999  42.363   8.263
 1183POPC   C3B18525   0.832  42.576   7.912
 1183POPC   C4B18526   0.752  42.420   7.505
 1184POPC   NC318527  35.017  37.302   9.498
 1184POPC   PO418528  35.227  36.661   9.477
 1184POPC   GL118529  35.265  36.706   9.079
 1184POPC   GL218530  35.301  37.078   9.114
 1184POPC   C1A18531  35.191  36.490   8.663
 1184POPC   D2A18532  34.991  36.386   8.242
 1184POPC   C3A18533  35.056  36.658   7.874
 1184POPC   C4A18534  35.479  36.764   7.632
 1184POPC   C1B18535  35.251  37.004   8.679
 1184POPC   C2B18536  35.118  36.929   8.304
 1184POPC   C3B18537  35.265  37.115   7.940
 1184POPC   C4B18538  34.972  37.148   7.632
 1185POPC   NC318539  43.465  20.916   9.827
 1185POPC   PO418540  42.968  20.544   9.498
 1185POPC   GL118541  43.044  20.681   9.110
 1185POPC   GL218542  43.299  20.410   9.074
 1185POPC   C1A18543  42.997  20.952   8.737
 1185POPC   D2A18544  43.298  21.001   8.383
 1185POPC   C3A18545  43.243  20.772   8.007
 1185POPC   C4A18546  43.213  20.945   7.574
 1185POPC   C1B18547  43.153  20.480   8.642
 1185POPC   C2B18548  43.178  20.313   8.240
 1185POPC   C3B18549  42.893  20.353   7.933
 1185POPC   C4B18550  42.841  20.262   7.495
 1186POPC   NC318551  40.189  23.134   9.546
 1186POPC   PO418552  39.786  22.519   9.625
 1186POPC   GL118553  39.986  22.744   9.253
 1186POPC   GL218554  39.821  23.036   9.147
 1186POPC   C1A18555  40.065  22.759   8.769
 1186POPC   D2A18556  39.911  22.626   8.343
 1186POPC   C3A18557  39.976  22.780   7.924
 1186POPC   C4A18558  39.891  22.599   7.513
 1186POPC   C1B18559  40.149  23.242   8.880
 1186POPC   C2B18560  40.353  23.251   8.451
 1186POPC   C3B18561  40.279  23.362   7.990
 1186POPC   C4B18562  39.849  23.340   7.823
 1187POPC   NC318563  10.684  44.430   9.389
 1187POPC   PO418564  10.271  44.886   9.548
 1187POPC   GL118565  10.428  44.812   9.109
 1187POPC   GL218566  10.478  44.477   8.936
 1187POPC   C1A18567  10.577  44.864   8.652
 1187POPC   D2A18568  10.757  44.690   8.291
 1187POPC   C3A18569  10.466  44.569   8.028
 1187POPC   C4A18570  10.285  44.736   7.719
 1187POPC   C1B18571  10.871  44.438   8.714
 1187POPC   C2B18572  10.924  44.200   8.323
 1187POPC   C3B18573  10.929  44.355   7.912
 1187POPC   C4B18574  10.787  44.621   7.566
 1188POPC   NC318575  30.740   9.738   9.571
 1188POPC   PO418576  31.297   9.890   9.245
 1188POPC   GL118577  30.868   9.926   9.099
 1188POPC   GL218578  30.709   9.595   9.071
 1188POPC   C1A18579  30.618   9.987   8.726
 1188POPC   D2A18580  30.501  10.148   8.319
 1188POPC   C3A18581  30.614   9.901   7.956
 1188POPC   C4A18582  31.010   9.877   7.747
 1188POPC   C1B18583  30.981   9.632   8.699
 1188POPC   C2B18584  30.907   9.653   8.282
 1188POPC   C3B18585  30.778   9.425   7.946
 1188POPC   C4B18586  30.381   9.421   7.703
 1189POPC   NC318587  27.995  28.830   9.426
 1189POPC   PO418588  28.552  29.136   9.586
 1189POPC   GL118589  28.324  29.274   9.238
 1189POPC   GL218590  28.366  28.928   9.083
 1189POPC   C1A18591  28.351  29.322   8.794
 1189POPC   D2A18592  28.345  28.959   8.539
 1189POPC   C3A18593  28.326  29.110   8.154
 1189POPC   C4A18594  28.406  29.235   7.763
 1189POPC   C1B18595  28.774  29.007   8.834
 1189POPC   C2B18596  28.854  29.053   8.383
 1189POPC   C3B18597  28.738  28.886   7.959
 1189POPC   C4B18598  28.689  28.966   7.448
 1190POPC   NC318599  32.109   0.527   9.569
 1190POPC   PO418600  32.730   0.425   9.722
 1190POPC   GL118601  32.418   0.485   9.184
 1190POPC   GL218602  32.189   0.274   9.119
 1190POPC   C1A18603  32.509   0.428   8.719
 1190POPC   D2A18604  32.388   0.182   8.343
 1190POPC   C3A18605  32.296   0.464   8.011
 1190POPC   C4A18606  32.644   0.671   7.793
 1190POPC   C1B18607  32.024   0.253   8.692
 1190POPC   C2B18608  31.836   0.365   8.293
 1190POPC   C3B18609  31.831   0.267   7.855
 1190POPC   C4B18610  31.788   0.182   7.434
 1191POPC   NC318611  23.437  28.241   9.574
 1191POPC   PO418612  23.894  28.664   9.419
 1191POPC   GL118613  23.842  28.302   9.172
 1191POPC   GL218614  23.960  28.452   8.866
 1191POPC   C1A18615  23.578  28.121   8.856
 1191POPC   D2A18616  23.665  28.301   8.439
 1191POPC   C3A18617  23.509  28.119   8.069
 1191POPC   C4A18618  23.844  28.235   7.820
 1191POPC   C1B18619  23.568  28.677   8.790
 1191POPC   C2B18620  23.346  28.707   8.400
 1191POPC   C3B18621  23.537  28.634   7.991
 1191POPC   C4B18622  23.718  28.675   7.578
 1192POPC   NC318623  30.401  35.748   9.366
 1192POPC   PO418624  29.760  36.013   9.519
 1192POPC   GL118625  29.729  36.073   9.068
 1192POPC   GL218626  30.050  36.093   8.992
 1192POPC   C1A18627  29.659  36.261   8.660
 1192POPC   D2A18628  29.878  36.401   8.314
 1192POPC   C3A18629  29.641  36.296   7.943
 1192POPC   C4A18630  29.592  35.898   7.715
 1192POPC   C1B18631  30.249  36.305   8.680
 1192POPC   C2B18632  30.379  36.163   8.298
 1192POPC   C3B18633  30.353  36.175   7.891
 1192POPC   C4B18634  30.046  36.142   7.664
 1193POPC   NC318635  16.464  32.004   9.481
 1193POPC   PO418636  17.095  32.088   9.539
 1193POPC   GL118637  16.905  32.268   9.164
 1193POPC   GL218638  16.605  32.122   9.021
 1193POPC   C1A18639  16.921  32.359   8.721
 1193POPC   D2A18640  16.786  32.111   8.361
 1193POPC   C3A18641  16.954  32.239   7.954
 1193POPC   C4A18642  16.923  32.071   7.558
 1193POPC   C1B18643  16.390  32.379   8.720
 1193POPC   C2B18644  16.238  32.347   8.304
 1193POPC   C3B18645  16.455  32.314   7.935
 1193POPC   C4B18646  16.459  31.884   7.783
 1194POPC   NC318647  32.539  27.104   9.446
 1194POPC   PO418648  32.276  27.710   9.498
 1194POPC   GL118649  32.345  27.485   9.152
 1194POPC   GL218650  32.032  27.317   9.177
 1194POPC   C1A18651  32.483  27.680   8.783
 1194POPC   D2A18652  32.674  27.744   8.395
 1194POPC   C3A18653  32.398  27.614   8.075
 1194POPC   C4A18654  32.557  27.488   7.710
 1194POPC   C1B18655  32.005  27.515   8.759
 1194POPC   C2B18656  31.961  27.402   8.385
 1194POPC   C3B18657  32.015  27.166   8.089
 1194POPC   C4B18658  32.131  27.245   7.738
 1195POPC   NC318659  34.026  27.877   9.758
 1195POPC   PO418660  34.619  27.524   9.680
 1195POPC   GL118661  34.640  27.568   9.191
 1195POPC   GL218662  34.929  27.802   9.081
 1195POPC   C1A18663  34.536  27.495   8.736
 1195POPC   D2A18664  34.436  27.342   8.305
 1195POPC   C3A18665  34.431  27.592   7.926
 1195POPC   C4A18666  34.560  27.778   7.521
 1195POPC   C1B18667  35.005  27.676   8.676
 1195POPC   C2B18668  34.818  27.720   8.281
 1195POPC   C3B18669  34.936  27.715   7.865
 1195POPC   C4B18670  35.047  27.959   7.493
 1196POPC   NC318671  29.804  38.221   9.471
 1196POPC   PO418672  30.401  38.333   9.563
 1196POPC   GL118673  30.146  38.471   9.207
 1196POPC   GL218674  30.153  38.138   9.064
 1196POPC   C1A18675  29.845  38.616   8.850
 1196POPC   D2A18676  29.591  38.556   8.464
 1196POPC   C3A18677  29.780  38.569   8.041
 1196POPC   C4A18678  30.162  38.706   7.813
 1196POPC   C1B18679  29.886  38.087   8.748
 1196POPC   C2B18680  30.032  38.251   8.388
 1196POPC   C3B18681  30.051  38.136   7.987
 1196POPC   C4B18682  29.711  38.139   7.766
 1197POPC   NC318683  36.552  43.556   9.511
 1197POPC   PO418684  36.349  44.131   9.775
 1197POPC   GL118685  36.409  43.969   9.278
 1197POPC   GL218686  36.161  43.996   9.083
 1197POPC   C1A18687  36.439  43.637   8.843
 1197POPC   D2A18688  36.624  43.505   8.374
 1197POPC   C3A18689  36.410  43.557   8.005
 1197POPC   C4A18690  36.560  43.704   7.645
 1197POPC   C1B18691  35.993  43.897   8.715
 1197POPC   C2B18692  36.064  43.732   8.320
 1197POPC   C3B18693  36.100  43.921   7.890
 1197POPC   C4B18694  36.022  43.678   7.521
 1198POPC   NC318695  28.872  26.301   9.515
 1198POPC   PO418696  29.246  25.710   9.555
 1198POPC   GL118697  29.216  25.951   9.190
 1198POPC   GL218698  29.149  26.269   9.084
 1198POPC   C1A18699  29.311  25.931   8.740
 1198POPC   D2A18700  29.135  25.768   8.386
 1198POPC   C3A18701  29.358  25.879   7.997
 1198POPC   C4A18702  29.294  25.944   7.538
 1198POPC   C1B18703  29.047  26.422   8.679
 1198POPC   C2B18704  29.163  26.288   8.277
 1198POPC   C3B18705  29.126  26.310   7.837
 1198POPC   C4B18706  29.332  26.455   7.497
 1199POPC   NC318707  14.170  25.647   9.516
 1199POPC   PO418708  14.394  24.976   9.397
 1199POPC   GL118709  14.430  25.182   9.041
 1199POPC   GL218710  14.449  25.488   9.106
 1199POPC   C1A18711  14.469  25.077   8.628
 1199POPC   D2A18712  14.232  25.205   8.267
 1199POPC   C3A18713  14.455  25.240   7.932
 1199POPC   C4A18714  14.320  25.043   7.606
 1199POPC   C1B18715  14.354  25.576   8.704
 1199POPC   C2B18716  14.602  25.512   8.378
 1199POPC   C3B18717  14.669  25.689   7.995
 1199POPC   C4B18718  14.304  25.698   7.706
 1200POPC   NC318719  11.756  29.114   9.562
 1200POPC   PO418720  11.163  29.367   9.464
 1200POPC   GL118721  11.243  29.140   9.115
 1200POPC   GL218722  11.563  28.927   9.131
 1200POPC   C1A18723  11.356  29.351   8.752
 1200POPC   D2A18724  11.548  29.362   8.374
 1200POPC   C3A18725  11.246  29.356   8.040
 1200POPC   C4A18726  11.272  29.493   7.639
 1200POPC   C1B18727  11.428  28.825   8.726
 1200POPC   C2B18728  11.176  28.986   8.408
 1200POPC   C3B18729  11.106  28.879   7.976
 1200POPC   C4B18730  11.275  28.931   7.543
 1201POPC   NC318731  44.542  26.912   9.560
 1201POPC   PO418732   0.195  26.723   9.542
 1201POPC   GL118733  44.839  26.649   9.220
 1201POPC   GL218734  44.682  26.885   9.081
 1201POPC   C1A18735  44.777  26.539   8.744
 1201POPC   D2A18736  44.797  26.868   8.408
 1201POPC   C3A18737  44.795  26.763   7.963
 1201POPC   C4A18738  44.547  26.621   7.637
 1201POPC   C1B18739  44.422  26.991   8.754
 1201POPC   C2B18740  44.326  27.119   8.336
 1201POPC   C3B18741  44.323  27.008   7.906
 1201POPC   C4B18742  44.103  27.023   7.505
 1202POPC   NC318743  26.917  24.122   9.422
 1202POPC   PO418744  26.719  23.455   9.375
 1202POPC   GL118745  26.870  23.716   9.080
 1202POPC   GL218746  27.194  23.656   9.213
 1202POPC   C1A18747  26.721  23.870   8.677
 1202POPC   D2A18748  26.623  24.104   8.307
 1202POPC   C3A18749  26.758  23.865   7.949
 1202POPC   C4A18750  26.936  23.952   7.534
 1202POPC   C1B18751  27.196  23.420   8.819
 1202POPC   C2B18752  27.048  23.488   8.401
 1202POPC   C3B18753  27.206  23.570   8.009
 1202POPC   C4B18754  27.151  23.406   7.626
 1203POPC   NC318755  15.962  36.436   9.629
 1203POPC   PO418756  16.203  35.830   9.600
 1203POPC   GL118757  16.027  35.729   9.157
 1203POPC   GL218758  15.680  35.628   9.192
 1203POPC   C1A18759  16.041  35.823   8.661
 1203POPC   D2A18760  16.031  35.767   8.175
 1203POPC   C3A18761  16.337  36.068   7.911
 1203POPC   C4A18762  16.407  36.228   7.462
 1203POPC   C1B18763  15.586  35.937   8.909
 1203POPC   C2B18764  15.527  36.097   8.521
 1203POPC   C3B18765  15.558  36.004   8.114
 1203POPC   C4B18766  15.829  36.075   7.804
 1204POPC   NC318767  28.835  15.209   9.791
 1204POPC   PO418768  29.284  14.844   9.353
 1204POPC   GL118769  29.227  14.927   8.974
 1204POPC   GL218770  29.214  15.236   9.000
 1204POPC   C1A18771  29.158  14.986   8.558
 1204POPC   D2A18772  28.927  14.838   8.244
 1204POPC   C3A18773  29.132  14.918   7.874
 1204POPC   C4A18774  29.007  14.921   7.456
 1204POPC   C1B18775  29.529  15.322   8.756
 1204POPC   C2B18776  29.591  15.318   8.334
 1204POPC   C3B18777  29.231  15.377   8.080
 1204POPC   C4B18778  29.079  15.390   7.666
 1205POPC   NC318779   9.642   3.735   9.903
 1205POPC   PO418780   9.396   4.128   9.356
 1205POPC   GL118781   9.322   3.765   9.050
 1205POPC   GL218782   9.162   3.409   9.065
 1205POPC   C1A18783   9.219   3.628   8.607
 1205POPC   D2A18784   8.972   3.477   8.262
 1205POPC   C3A18785   9.098   3.478   7.868
 1205POPC   C4A18786   9.257   3.885   7.840
 1205POPC   C1B18787   8.860   3.231   8.699
 1205POPC   C2B18788   8.581   3.175   8.278
 1205POPC   C3B18789   8.588   3.452   7.892
 1205POPC   C4B18790   8.718   3.341   7.462
 1206POPC   NC318791  40.995  21.865   9.558
 1206POPC   PO418792  40.579  22.369   9.474
 1206POPC   GL118793  40.830  22.265   9.144
 1206POPC   GL218794  41.153  22.213   9.196
 1206POPC   C1A18795  40.765  22.126   8.726
 1206POPC   D2A18796  40.537  22.103   8.344
 1206POPC   C3A18797  40.697  21.966   7.999
 1206POPC   C4A18798  40.566  21.826   7.628
 1206POPC   C1B18799  41.114  22.522   8.822
 1206POPC   C2B18800  40.961  22.490   8.395
 1206POPC   C3B18801  41.071  22.336   7.975
 1206POPC   C4B18802  40.823  22.273   7.594
 1207POPC   NC318803  25.412  36.906   9.672
 1207POPC   PO418804  24.963  36.498   9.657
 1207POPC   GL118805  25.406  36.543   9.334
 1207POPC   GL218806  25.383  36.928   9.106
 1207POPC   C1A18807  25.608  36.519   8.928
 1207POPC   D2A18808  25.403  36.780   8.611
 1207POPC   C3A18809  25.341  36.713   8.198
 1207POPC   C4A18810  25.344  36.885   7.810
 1207POPC   C1B18811  25.010  37.065   8.758
 1207POPC   C2B18812  24.883  36.857   8.376
 1207POPC   C3B18813  24.845  37.051   7.986
 1207POPC   C4B18814  25.034  37.263   7.640
 1208POPC   NC318815  23.912   1.242   9.361
 1208POPC   PO418816  23.340   1.584   9.447
 1208POPC   GL118817  23.474   1.349   9.110
 1208POPC   GL218818  23.591   1.640   9.002
 1208POPC   C1A18819  23.613   1.208   8.725
 1208POPC   D2A18820  23.882   1.286   8.374
 1208POPC   C3A18821  23.736   1.224   7.963
 1208POPC   C4A18822  23.663   1.080   7.540
 1208POPC   C1B18823  23.985   1.592   8.784
 1208POPC   C2B18824  24.216   1.671   8.409
 1208POPC   C3B18825  24.180   1.498   7.999
 1208POPC   C4B18826  23.958   1.509   7.626
 1209POPC   NC318827  24.903  18.953   9.439
 1209POPC   PO418828  25.408  18.491   9.522
 1209POPC   GL118829  25.360  18.787   9.138
 1209POPC   GL218830  25.535  19.126   9.187
 1209POPC   C1A18831  25.142  19.058   8.799
 1209POPC   D2A18832  25.034  19.275   8.369
 1209POPC   C3A18833  25.204  19.075   7.987
 1209POPC   C4A18834  25.344  18.730   7.693
 1209POPC   C1B18835  25.622  19.216   8.746
 1209POPC   C2B18836  25.537  19.363   8.330
 1209POPC   C3B18837  25.458  19.542   7.925
 1209POPC   C4B18838  25.294  19.338   7.560
 1210POPC   NC318839  42.566  12.588   9.561
 1210POPC   PO418840  42.208  11.933   9.501
 1210POPC   GL118841  42.272  12.158   9.153
 1210POPC   GL218842  42.583  12.078   9.162
 1210POPC   C1A18843  42.358  12.259   8.726
 1210POPC   D2A18844  42.559  12.053   8.387
 1210POPC   C3A18845  42.381  12.014   7.985
 1210POPC   C4A18846  42.293  12.278   7.642
 1210POPC   C1B18847  42.566  11.769   8.825
 1210POPC   C2B18848  42.876  11.665   8.544
 1210POPC   C3B18849  42.874  11.750   8.128
 1210POPC   C4B18850  42.711  11.719   7.752
 1211POPC   NC318851   5.354  38.602   9.460
 1211POPC   PO418852   4.809  38.159   9.484
 1211POPC   GL118853   4.986  38.444   9.150
 1211POPC   GL218854   4.812  38.780   9.136
 1211POPC   C1A18855   5.262  38.486   8.773
 1211POPC   D2A18856   5.406  38.699   8.423
 1211POPC   C3A18857   5.426  38.483   8.032
 1211POPC   C4A18858   5.294  38.488   7.615
 1211POPC   C1B18859   4.945  38.902   8.729
 1211POPC   C2B18860   4.914  38.721   8.328
 1211POPC   C3B18861   5.081  38.847   7.943
 1211POPC   C4B18862   4.899  38.819   7.560
 1212POPC   NC318863  38.361  33.337   9.530
 1212POPC   PO418864  37.965  32.806   9.540
 1212POPC   GL118865  38.322  32.930   9.214
 1212POPC   GL218866  38.687  33.092   9.178
 1212POPC   C1A18867  38.449  32.819   8.776
 1212POPC   D2A18868  38.278  32.712   8.364
 1212POPC   C3A18869  38.512  32.854   7.984
 1212POPC   C4A18870  38.398  33.170   7.663
 1212POPC   C1B18871  38.699  33.276   8.740
 1212POPC   C2B18872  38.703  33.499   8.337
 1212POPC   C3B18873  38.780  33.311   7.959
 1212POPC   C4B18874  38.992  32.949   7.770
 1213POPC   NC318875  44.833  44.991   9.474
 1213POPC   PO418876  44.410  44.439   9.655
 1213POPC   GL118877  44.448  44.620   9.221
 1213POPC   GL218878  44.777  44.680   9.072
 1213POPC   C1A18879  44.410  44.617   8.740
 1213POPC   D2A18880  44.656  44.572   8.330
 1213POPC   C3A18881  44.478  44.740   7.955
 1213POPC   C4A18882  44.464  44.585   7.524
 1213POPC   C1B18883  44.963  44.999   8.793
 1213POPC   C2B18884   0.141  44.978   8.377
 1213POPC   C3B18885   0.027  44.821   7.980
 1213POPC   C4B18886  44.797  44.986   7.654
 1214POPC   NC318887  13.606  41.830   9.465
 1214POPC   PO418888  13.446  41.130   9.353
 1214POPC   GL118889  13.416  41.491   9.107
 1214POPC   GL218890  13.766  41.575   9.059
 1214POPC   C1A18891  13.334  41.677   8.696
 1214POPC   D2A18892  13.327  41.886   8.302
 1214POPC   C3A18893  13.390  41.578   7.973
 1214POPC   C4A18894  13.422  41.195   7.718
 1214POPC   C1B18895  13.869  41.709   8.651
 1214POPC   C2B18896  13.823  41.714   8.209
 1214POPC   C3B18897  13.823  41.741   7.722
 1214POPC   C4B18898  13.884  41.891   7.259
 1215POPC   NC318899  27.029  13.073   9.482
 1215POPC   PO418900  26.430  12.795   9.296
 1215POPC   GL118901  26.784  12.925   9.071
 1215POPC   GL218902  27.020  12.668   9.183
 1215POPC   C1A18903  27.088  13.059   8.775
 1215POPC   D2A18904  26.945  13.244   8.388
 1215POPC   C3A18905  27.053  13.078   7.984
 1215POPC   C4A18906  27.054  12.826   7.617
 1215POPC   C1B18907  27.002  12.530   8.777
 1215POPC   C2B18908  26.897  12.333   8.396
 1215POPC   C3B18909  26.911  12.515   7.997
 1215POPC   C4B18910  26.579  12.778   7.830
 1216POPC   NC318911  30.402  24.759   9.770
 1216POPC   PO418912  29.817  24.397   9.525
 1216POPC   GL118913  29.819  24.481   9.097
 1216POPC   GL218914  30.018  24.197   9.091
 1216POPC   C1A18915  29.946  24.447   8.638
 1216POPC   D2A18916  30.121  24.338   8.210
 1216POPC   C3A18917  29.978  24.643   7.881
 1216POPC   C4A18918  30.002  24.669   7.432
 1216POPC   C1B18919  29.620  24.044   8.897
 1216POPC   C2B18920  29.568  24.125   8.456
 1216POPC   C3B18921  29.704  24.049   8.044
 1216POPC   C4B18922  29.931  24.175   7.662
 1217POPC   NC318923  35.984  17.745   9.577
 1217POPC   PO418924  35.827  18.350   9.521
 1217POPC   GL118925  35.993  18.208   9.151
 1217POPC   GL218926  36.171  18.448   9.010
 1217POPC   C1A18927  36.035  18.035   8.718
 1217POPC   D2A18928  35.768  18.106   8.327
 1217POPC   C3A18929  35.984  18.098   7.927
 1217POPC   C4A18930  36.413  18.080   7.762
 1217POPC   C1B18931  35.983  18.537   8.664
 1217POPC   C2B18932  36.161  18.421   8.308
 1217POPC   C3B18933  36.194  18.570   7.933
 1217POPC   C4B18934  36.391  18.925   7.830
 1218POPC   NC318935  22.476   0.827   9.219
 1218POPC   PO418936  21.937   0.862   9.558
 1218POPC   GL118937  21.990   0.951   9.093
 1218POPC   GL218938  22.159   1.240   9.108
 1218POPC   C1A18939  22.227   1.019   8.643
 1218POPC   D2A18940  22.431   1.284   8.305
 1218POPC   C3A18941  22.412   1.082   7.908
 1218POPC   C4A18942  22.050   0.937   7.714
 1218POPC   C1B18943  21.878   1.356   8.759
 1218POPC   C2B18944  21.975   1.552   8.370
 1218POPC   C3B18945  22.001   1.385   7.989
 1218POPC   C4B18946  22.132   1.434   7.579
 1219POPC   NC318947  33.089  36.589   9.514
 1219POPC   PO418948  32.761  37.135   9.581
 1219POPC   GL118949  33.023  37.000   9.205
 1219POPC   GL218950  32.971  36.647   9.038
 1219POPC   C1A18951  33.194  37.012   8.778
 1219POPC   D2A18952  33.083  36.631   8.520
 1219POPC   C3A18953  33.309  36.685   8.186
 1219POPC   C4A18954  33.163  37.056   7.965
 1219POPC   C1B18955  32.658  36.480   8.749
 1219POPC   C2B18956  32.563  36.472   8.341
 1219POPC   C3B18957  32.816  36.627   8.034
 1219POPC   C4B18958  32.802  36.835   7.643
 1220POPC   NC318959  26.008   7.139   9.803
 1220POPC   PO418960  25.997   7.704   9.480
 1220POPC   GL118961  26.090   7.489   9.154
 1220POPC   GL218962  25.769   7.562   8.977
 1220POPC   C1A18963  26.156   7.201   8.873
 1220POPC   D2A18964  26.275   7.222   8.473
 1220POPC   C3A18965  26.010   7.338   8.140
 1220POPC   C4A18966  26.202   7.440   7.798
 1220POPC   C1B18967  25.910   7.585   8.594
 1220POPC   C2B18968  25.779   7.776   8.216
 1220POPC   C3B18969  25.749   7.680   7.795
 1220POPC   C4B18970  25.746   7.607   7.368
 1221POPC   NC318971  18.852   8.156   9.442
 1221POPC   PO418972  19.467   8.541   9.472
 1221POPC   GL118973  19.358   8.385   9.098
 1221POPC   GL218974  19.059   8.511   9.078
 1221POPC   C1A18975  19.301   8.179   8.705
 1221POPC   D2A18976  19.145   7.959   8.366
 1221POPC   C3A18977  19.104   8.075   7.955
 1221POPC   C4A18978  19.450   7.962   7.755
 1221POPC   C1B18979  18.876   8.469   8.651
 1221POPC   C2B18980  18.810   8.407   8.218
 1221POPC   C3B18981  18.980   8.577   7.848
 1221POPC   C4B18982  19.267   8.413   7.581
 1222POPC   NC318983  28.852  28.767   9.597
 1222POPC   PO418984  29.458  29.051   9.516
 1222POPC   GL118985  29.217  29.264   9.161
 1222POPC   GL218986  28.868  29.324   9.196
 1222POPC   C1A18987  29.292  29.173   8.721
 1222POPC   D2A18988  29.544  29.158   8.347
 1222POPC   C3A18989  29.250  29.069   8.016
 1222POPC   C4A18990  29.128  28.874   7.652
 1222POPC   C1B18991  28.914  29.507   8.754
 1222POPC   C2B18992  29.255  29.644   8.421
 1222POPC   C3B18993  29.311  29.567   7.952
 1222POPC   C4B18994  28.920  29.342   7.738
 1223POPC   NC318995  18.301  11.491   9.455
 1223POPC   PO418996  18.439  10.929   9.113
 1223POPC   GL118997  18.327  11.302   8.926
 1223POPC   GL218998  18.095  11.496   9.013
 1223POPC   C1A18999  18.233  11.405   8.499
 1223POPC   D2A19000  18.491  11.476   8.141
 1223POPC   C3A19001  18.431  11.194   7.772
 1223POPC   C4A19002  18.559  10.881   7.401
 1223POPC   C1B19003  17.975  11.776   8.755
 1223POPC   C2B19004  17.881  11.764   8.331
 1223POPC   C3B19005  18.167  11.820   7.957
 1223POPC   C4B19006  18.163  11.660   7.552
 1224POPC   NC319007  37.288  23.996   9.256
 1224POPC   PO419008  37.581  24.520   9.540
 1224POPC   GL119009  37.738  24.585   9.154
 1224POPC   GL219010  37.713  24.943   9.223
 1224POPC   C1A19011  37.896  24.342   8.794
 1224POPC   D2A19012  37.888  24.169   8.380
 1224POPC   C3A19013  37.746  24.366   8.019
 1224POPC   C4A19014  37.577  24.219   7.667
 1224POPC   C1B19015  37.770  24.908   8.777
 1224POPC   C2B19016  37.881  24.704   8.419
 1224POPC   C3B19017  37.830  24.871   8.036
 1224POPC   C4B19018  37.496  24.821   7.796
 1225POPC   NC319019   8.039  37.295   9.357
 1225POPC   PO419020   8.372  36.744   9.647
 1225POPC   GL119021   8.265  36.797   9.203
 1225POPC   GL219022   8.580  36.910   9.136
 1225POPC   C1A19023   8.362  36.510   8.805
 1225POPC   D2A19024   8.238  36.453   8.374
 1225POPC   C3A19025   8.418  36.698   8.033
 1225POPC   C4A19026   8.670  36.599   7.656
 1225POPC   C1B19027   8.369  36.995   8.738
 1225POPC   C2B19028   8.361  37.270   8.428
 1225POPC   C3B19029   8.517  37.230   8.031
 1225POPC   C4B19030   8.217  37.073   7.742
 1226POPC   NC319031  19.067  32.677   9.556
 1226POPC   PO419032  18.814  32.089   9.757
 1226POPC   GL119033  18.974  32.076   9.268
 1226POPC   GL219034  19.219  32.345   9.184
 1226POPC   C1A19035  18.963  32.049   8.788
 1226POPC   D2A19036  18.653  32.114   8.417
 1226POPC   C3A19037  18.866  32.174   8.036
 1226POPC   C4A19038  19.294  32.241   7.986
 1226POPC   C1B19039  19.367  32.391   8.752
 1226POPC   C2B19040  19.295  32.592   8.377
 1226POPC   C3B19041  19.415  32.855   8.072
 1226POPC   C4B19042  19.392  32.808   7.664
 1227POPC   NC319043  34.057  10.991   9.422
 1227POPC   PO419044  33.641  11.483   9.441
 1227POPC   GL119045  33.695  11.168   9.091
 1227POPC   GL219046  34.028  11.111   8.932
 1227POPC   C1A19047  33.571  11.074   8.670
 1227POPC   D2A19048  33.549  11.363   8.297
 1227POPC   C3A19049  33.748  11.279   7.930
 1227POPC   C4A19050  33.635  11.212   7.506
 1227POPC   C1B19051  33.884  11.479   8.698
 1227POPC   C2B19052  33.922  11.713   8.314
 1227POPC   C3B19053  34.128  11.766   7.918
 1227POPC   C4B19054  34.094  11.455   7.590
 1228POPC   NC319055  39.811  18.089   9.344
 1228POPC   PO419056  40.135  18.709   9.437
 1228POPC   GL119057  40.119  18.430   9.091
 1228POPC   GL219058  39.845  18.609   8.982
 1228POPC   C1A19059  40.032  18.115   8.732
 1228POPC   D2A19060  40.272  18.091   8.353
 1228POPC   C3A19061  40.060  18.231   8.022
 1228POPC   C4A19062  40.220  18.104   7.634
 1228POPC   C1B19063  39.596  18.382   8.731
 1228POPC   C2B19064  39.629  18.221   8.332
 1228POPC   C3B19065  39.497  18.283   7.923
 1228POPC   C4B19066  39.785  18.566   7.743
 1229POPC   NC319067   7.001  34.039   9.490
 1229POPC   PO419068   7.650  33.755   9.531
 1229POPC   GL119069   7.356  33.820   9.206
 1229POPC   GL219070   7.203  33.522   9.156
 1229POPC   C1A19071   7.418  33.983   8.808
 1229POPC   D2A19072   7.664  34.157   8.478
 1229POPC   C3A19073   7.492  34.058   8.097
 1229POPC   C4A19074   7.383  34.102   7.672
 1229POPC   C1B19075   7.529  33.462   8.870
 1229POPC   C2B19076   7.514  33.619   8.452
 1229POPC   C3B19077   7.450  33.570   8.021
 1229POPC   C4B19078   7.514  33.585   7.609
 1230POPC   NC319079  10.731  25.058   9.529
 1230POPC   PO419080  10.339  25.556   9.428
 1230POPC   GL119081  10.636  25.351   9.128
 1230POPC   GL219082  10.492  25.019   9.091
 1230POPC   C1A19083  10.879  25.158   8.772
 1230POPC   D2A19084  10.737  24.947   8.374
 1230POPC   C3A19085  10.739  25.121   7.971
 1230POPC   C4A19086  10.683  25.161   7.527
 1230POPC   C1B19087  10.378  25.189   8.684
 1230POPC   C2B19088  10.253  25.129   8.251
 1230POPC   C3B19089  10.258  25.125   7.810
 1230POPC   C4B19090  10.278  25.474   7.535
 1231POPC   NC319091   5.339  29.827   9.646
 1231POPC   PO419092   4.796  30.135   9.542
 1231POPC   GL119093   5.094  30.118   9.206
 1231POPC   GL219094   5.119  29.790   9.186
 1231POPC   C1A19095   5.107  30.305   8.765
 1231POPC   D2A19096   4.898  30.353   8.353
 1231POPC   C3A19097   5.080  30.216   7.944
 1231POPC   C4A19098   5.112  29.870   7.623
 1231POPC   C1B19099   5.304  29.819   8.786
 1231POPC   C2B19100   5.235  29.954   8.377
 1231POPC   C3B19101   5.411  29.830   8.009
 1231POPC   C4B19102   5.700  29.668   7.673
 1232POPC   NC319103  42.157  23.722   9.509
 1232POPC   PO419104  42.788  23.789   9.259
 1232POPC   GL119105  42.381  23.659   9.054
 1232POPC   GL219106  42.036  23.459   9.109
 1232POPC   C1A19107  42.289  23.703   8.651
 1232POPC   D2A19108  42.377  23.885   8.255
 1232POPC   C3A19109  42.533  23.569   7.982
 1232POPC   C4A19110  42.501  23.492   7.544
 1232POPC   C1B19111  42.093  23.253   8.744
 1232POPC   C2B19112  42.218  23.289   8.305
 1232POPC   C3B19113  42.067  23.409   7.863
 1232POPC   C4B19114  42.013  23.319   7.381
 1233POPC   NC319115   3.157  37.433   9.494
 1233POPC   PO419116   3.778  37.055   9.482
 1233POPC   GL119117   3.668  36.932   9.104
 1233POPC   GL219118   3.338  36.952   9.091
 1233POPC   C1A19119   3.681  36.877   8.696
 1233POPC   D2A19120   3.476  37.066   8.359
 1233POPC   C3A19121   3.516  36.783   8.047
 1233POPC   C4A19122   3.555  36.969   7.659
 1233POPC   C1B19123   3.154  36.846   8.683
 1233POPC   C2B19124   2.987  36.931   8.247
 1233POPC   C3B19125   3.069  36.789   7.803
 1233POPC   C4B19126   3.081  36.851   7.366
 1234POPC   NC319127  39.869  14.666   9.484
 1234POPC   PO419128  40.436  14.250   9.419
 1234POPC   GL119129  40.109  14.386   9.128
 1234POPC   GL219130  39.781  14.241   9.169
 1234POPC   C1A19131  39.888  14.609   8.799
 1234POPC   D2A19132  39.956  14.468   8.373
 1234POPC   C3A19133  39.764  14.608   8.001
 1234POPC   C4A19134  40.050  14.702   7.687
 1234POPC   C1B19135  39.884  14.098   8.739
 1234POPC   C2B19136  39.876  13.978   8.279
 1234POPC   C3B19137  39.938  14.146   7.844
 1234POPC   C4B19138  40.087  14.259   7.431
 1235POPC   NC319139  36.028   9.291   9.687
 1235POPC   PO419140  36.641   8.937   9.553
 1235POPC   GL119141  36.265   8.816   9.266
 1235POPC   GL219142  36.010   9.092   9.155
 1235POPC   C1A19143  36.262   8.834   8.802
 1235POPC   D2A19144  36.053   8.929   8.434
 1235POPC   C3A19145  36.334   8.797   8.125
 1235POPC   C4A19146  36.292   8.789   7.706
 1235POPC   C1B19147  35.881   9.291   8.778
 1235POPC   C2B19148  35.993   9.470   8.355
 1235POPC   C3B19149  35.987   9.195   7.992
 1235POPC   C4B19150  35.952   9.134   7.554
 1236POPC   NC319151   3.631   1.417   9.437
 1236POPC   PO419152   3.179   0.823   9.522
 1236POPC   GL119153   3.351   1.091   9.160
 1236POPC   GL219154   3.678   0.953   8.962
 1236POPC   C1A19155   3.341   1.316   8.779
 1236POPC   D2A19156   3.531   1.118   8.399
 1236POPC   C3A19157   3.365   1.337   8.026
 1236POPC   C4A19158   3.357   1.229   7.566
 1236POPC   C1B19159   3.844   1.331   8.750
 1236POPC   C2B19160   3.887   1.451   8.299
 1236POPC   C3B19161   3.837   1.149   7.952
 1236POPC   C4B19162   3.867   1.202   7.496
 1237POPC   NC319163   4.208   8.239   9.487
 1237POPC   PO419164   4.767   8.656   9.325
 1237POPC   GL119165   4.554   8.266   9.112
 1237POPC   GL219166   4.212   8.067   9.031
 1237POPC   C1A19167   4.627   8.018   8.753
 1237POPC   D2A19168   4.433   8.151   8.384
 1237POPC   C3A19169   4.634   8.291   8.002
 1237POPC   C4A19170   4.485   8.025   7.696
 1237POPC   C1B19171   4.176   8.414   8.771
 1237POPC   C2B19172   3.965   8.391   8.401
 1237POPC   C3B19173   4.110   8.264   7.993
 1237POPC   C4B19174   3.933   8.006   7.707
 1238POPC   NC319175  28.172  33.053   9.310
 1238POPC   PO419176  28.863  32.801   9.327
 1238POPC   GL119177  28.587  32.909   9.036
 1238POPC   GL219178  28.619  33.259   9.149
 1238POPC   C1A19179  28.308  32.915   8.692
 1238POPC   D2A19180  28.314  33.115   8.314
 1238POPC   C3A19181  28.327  32.779   8.007
 1238POPC   C4A19182  28.614  32.737   7.607
 1238POPC   C1B19183  28.470  33.410   8.762
 1238POPC   C2B19184  28.632  33.583   8.418
 1238POPC   C3B19185  28.607  33.435   8.055
 1238POPC   C4B19186  28.295  33.223   7.784
 1239POPC   NC319187  21.315  19.351   9.611
 1239POPC   PO419188  20.973  18.808   9.657
 1239POPC   GL119189  21.266  18.962   9.251
 1239POPC   GL219190  21.616  18.877   9.196
 1239POPC   C1A19191  21.476  19.242   8.868
 1239POPC   D2A19192  21.713  19.175   8.429
 1239POPC   C3A19193  21.451  19.192   8.002
 1239POPC   C4A19194  21.016  19.087   7.876
 1239POPC   C1B19195  21.410  18.753   8.780
 1239POPC   C2B19196  21.297  18.848   8.352
 1239POPC   C3B19197  21.327  18.651   7.947
 1239POPC   C4B19198  21.287  18.813   7.533
 1240POPC   NC319199  13.753  14.703   9.318
 1240POPC   PO419200  14.203  15.035   9.622
 1240POPC   GL119201  14.081  15.119   9.180
 1240POPC   GL219202  14.433  15.070   9.117
 1240POPC   C1A19203  14.197  15.235   8.706
 1240POPC   D2A19204  14.424  15.503   8.426
 1240POPC   C3A19205  14.266  15.512   8.018
 1240POPC   C4A19206  14.178  15.238   7.683
 1240POPC   C1B19207  14.674  15.014   8.733
 1240POPC   C2B19208  14.487  15.014   8.329
 1240POPC   C3B19209  14.596  15.088   7.928
 1240POPC   C4B19210  14.633  14.719   7.759
 1241POPC   NC319211  14.707  12.082   9.480
 1241POPC   PO419212  14.083  11.846   9.586
 1241POPC   GL119213  14.353  11.798   9.208
 1241POPC   GL219214  14.425  12.169   9.064
 1241POPC   C1A19215  14.224  11.821   8.770
 1241POPC   D2A19216  14.407  12.128   8.491
 1241POPC   C3A19217  14.352  11.998   8.087
 1241POPC   C4A19218  14.503  11.867   7.709
 1241POPC   C1B19219  14.615  12.494   8.769
 1241POPC   C2B19220  14.601  12.583   8.282
 1241POPC   C3B19221  14.650  12.510   7.796
 1241POPC   C4B19222  15.026  12.418   7.502
 1242POPC   NC319223  26.193  33.697   9.489
 1242POPC   PO419224  25.778  34.199   9.584
 1242POPC   GL119225  25.963  34.034   9.183
 1242POPC   GL219226  25.983  33.652   9.045
 1242POPC   C1A19227  26.235  34.020   8.810
 1242POPC   D2A19228  26.335  33.957   8.405
 1242POPC   C3A19229  26.152  34.048   8.005
 1242POPC   C4A19230  26.455  34.150   7.703
 1242POPC   C1B19231  25.926  33.483   8.644
 1242POPC   C2B19232  26.037  33.546   8.225
 1242POPC   C3B19233  25.804  33.598   7.852
 1242POPC   C4B19234  25.912  33.510   7.400
 1243POPC   NC319235  34.180  36.899   9.458
 1243POPC   PO419236  33.472  36.960   9.515
 1243POPC   GL119237  33.511  36.669   9.152
 1243POPC   GL219238  33.889  36.682   9.082
 1243POPC   C1A19239  33.551  36.663   8.690
 1243POPC   D2A19240  33.678  36.994   8.411
 1243POPC   C3A19241  33.674  37.001   7.991
 1243POPC   C4A19242  33.723  36.619   7.826
 1243POPC   C1B19243  33.750  37.096   8.901
 1243POPC   C2B19244  33.972  37.382   8.609
 1243POPC   C3B19245  33.974  37.418   8.153
 1243POPC   C4B19246  33.958  37.334   7.728
 1244POPC   NC319247  10.248  20.858   9.501
 1244POPC   PO419248   9.691  21.160   9.723
 1244POPC   GL119249   9.652  21.394   9.319
 1244POPC   GL219250  10.005  21.475   9.147
 1244POPC   C1A19251   9.509  21.262   8.897
 1244POPC   D2A19252   9.708  21.109   8.508
 1244POPC   C3A19253   9.468  21.068   8.107
 1244POPC   C4A19254   9.596  21.242   7.719
 1244POPC   C1B19255  10.186  21.268   8.746
 1244POPC   C2B19256  10.158  21.296   8.282
 1244POPC   C3B19257   9.944  21.531   7.956
 1244POPC   C4B19258   9.842  21.649   7.513
 1245POPC   NC319259   9.676  33.531   9.493
 1245POPC   PO419260   9.942  34.154   9.423
 1245POPC   GL119261   9.867  33.874   9.119
 1245POPC   GL219262   9.524  33.800   9.082
 1245POPC   C1A19263   9.882  33.886   8.692
 1245POPC   D2A19264   9.849  33.633   8.339
 1245POPC   C3A19265   9.968  33.726   7.945
 1245POPC   C4A19266   9.722  33.867   7.640
 1245POPC   C1B19267   9.442  33.610   8.673
 1245POPC   C2B19268   9.457  33.321   8.314
 1245POPC   C3B19269   9.464  33.516   7.910
 1245POPC   C4B19270   9.493  33.463   7.441
 1246POPC   NC319271   6.792  35.746   9.289
 1246POPC   PO419272   7.097  35.162   9.458
 1246POPC   GL119273   6.921  35.271   9.082
 1246POPC   GL219274   7.041  35.561   8.866
 1246POPC   C1A19275   6.749  35.176   8.706
 1246POPC   D2A19276   6.924  35.365   8.359
 1246POPC   C3A19277   6.669  35.142   8.090
 1246POPC   C4A19278   6.236  35.133   7.988
 1246POPC   C1B19279   6.599  35.659   8.648
 1246POPC   C2B19280   6.284  35.597   8.324
 1246POPC   C3B19281   6.421  35.599   7.916
 1246POPC   C4B19282   6.866  35.580   7.889
 1247POPC   NC319283  23.042  24.586   9.592
 1247POPC   PO419284  23.139  23.942   9.457
 1247POPC   GL119285  22.977  24.288   9.091
 1247POPC   GL219286  23.035  24.647   9.100
 1247POPC   C1A19287  22.983  24.471   8.640
 1247POPC   D2A19288  22.948  24.257   8.264
 1247POPC   C3A19289  22.992  24.351   7.827
 1247POPC   C4A19290  22.648  24.169   7.527
 1247POPC   C1B19291  23.188  24.949   8.792
 1247POPC   C2B19292  23.004  25.061   8.444
 1247POPC   C3B19293  23.073  24.770   8.138
 1247POPC   C4B19294  23.083  24.879   7.725
 1248POPC   NC319295  28.022  26.403   9.425
 1248POPC   PO419296  28.546  25.969   9.665
 1248POPC   GL119297  28.412  26.070   9.313
 1248POPC   GL219298  28.705  25.925   9.186
 1248POPC   C1A19299  28.285  26.009   8.897
 1248POPC   D2A19300  28.036  26.116   8.541
 1248POPC   C3A19301  28.256  26.216   8.189
 1248POPC   C4A19302  28.194  26.075   7.779
 1248POPC   C1B19303  28.799  25.970   8.786
 1248POPC   C2B19304  28.710  26.087   8.396
 1248POPC   C3B19305  28.834  25.943   8.015
 1248POPC   C4B19306  28.689  25.994   7.636
 1249POPC   NC319307   3.356  18.636   9.448
 1249POPC   PO419308   3.763  18.094   9.363
 1249POPC   GL119309   3.439  18.248   9.155
 1249POPC   GL219310   3.249  18.019   9.122
 1249POPC   C1A19311   3.271  18.437   8.790
 1249POPC   D2A19312   3.508  18.516   8.432
 1249POPC   C3A19313   3.258  18.681   8.132
 1249POPC   C4A19314   3.308  18.622   7.708
 1249POPC   C1B19315   3.569  18.016   8.737
 1249POPC   C2B19316   3.673  18.030   8.342
 1249POPC   C3B19317   3.519  18.211   7.981
 1249POPC   C4B19318   3.646  17.892   7.711
 1250POPC   NC319319  11.608  35.099   9.727
 1250POPC   PO419320  11.229  35.669   9.575
 1250POPC   GL119321  11.154  35.657   9.161
 1250POPC   GL219322  11.301  35.321   9.105
 1250POPC   C1A19323  11.077  35.578   8.739
 1250POPC   D2A19324  11.087  35.235   8.503
 1250POPC   C3A19325  11.311  35.348   8.136
 1250POPC   C4A19326  11.410  35.410   7.723
 1250POPC   C1B19327  11.505  35.102   8.767
 1250POPC   C2B19328  11.725  35.154   8.383
 1250POPC   C3B19329  11.711  35.007   7.958
 1250POPC   C4B19330  11.698  35.010   7.525
 1251POPC   NC319331  35.691  13.759   9.368
 1251POPC   PO419332  35.272  13.233   9.421
 1251POPC   GL119333  35.252  13.547   9.094
 1251POPC   GL219334  35.066  13.373   8.842
 1251POPC   C1A19335  35.370  13.867   8.750
 1251POPC   D2A19336  35.423  14.010   8.319
 1251POPC   C3A19337  35.727  13.739   8.059
 1251POPC   C4A19338  35.699  13.385   7.758
 1251POPC   C1B19339  34.868  13.795   8.823
 1251POPC   C2B19340  34.871  14.013   8.416
 1251POPC   C3B19341  35.027  14.026   7.994
 1251POPC   C4B19342  35.249  13.634   7.903
 1252POPC   NC319343  19.370  33.374   9.557
 1252POPC   PO419344  19.051  33.963   9.476
 1252POPC   GL119345  19.065  33.687   9.129
 1252POPC   GL219346  18.739  33.548   8.998
 1252POPC   C1A19347  19.054  33.856   8.710
 1252POPC   D2A19348  18.836  33.910   8.324
 1252POPC   C3A19349  19.154  33.869   7.998
 1252POPC   C4A19350  19.289  34.087   7.624
 1252POPC   C1B19351  18.824  33.438   8.560
 1252POPC   C2B19352  18.645  33.459   8.162
 1252POPC   C3B19353  18.744  33.671   7.781
 1252POPC   C4B19354  18.637  33.553   7.395
 1253POPC   NC319355  44.101  13.042   9.493
 1253POPC   PO419356  43.696  12.503   9.513
 1253POPC   GL119357  43.737  12.804   9.167
 1253POPC   GL219358  44.062  12.726   9.105
 1253POPC   C1A19359  43.576  13.022   8.785
 1253POPC   D2A19360  43.717  13.114   8.347
 1253POPC   C3A19361  43.916  12.996   8.002
 1253POPC   C4A19362  43.781  13.015   7.617
 1253POPC   C1B19363  44.091  13.040   8.804
 1253POPC   C2B19364  44.239  13.070   8.403
 1253POPC   C3B19365  44.362  13.273   8.042
 1253POPC   C4B19366  44.274  13.158   7.667
 1254POPC   NC319367  41.432  19.292   9.675
 1254POPC   PO419368  41.922  18.885   9.495
 1254POPC   GL119369  41.880  19.062   9.105
 1254POPC   GL219370  41.754  19.414   9.166
 1254POPC   C1A19371  41.611  19.121   8.738
 1254POPC   D2A19372  41.270  18.903   8.497
 1254POPC   C3A19373  41.387  18.786   8.087
 1254POPC   C4A19374  41.660  18.920   7.792
 1254POPC   C1B19375  41.383  19.552   8.863
 1254POPC   C2B19376  41.190  19.416   8.471
 1254POPC   C3B19377  41.447  19.299   8.137
 1254POPC   C4B19378  41.545  19.427   7.748
 1255POPC   NC319379  27.058  36.009   9.409
 1255POPC   PO419380  26.390  35.916   9.432
 1255POPC   GL119381  26.652  36.019   9.125
 1255POPC   GL219382  26.683  36.334   9.195
 1255POPC   C1A19383  26.985  35.915   8.768
 1255POPC   D2A19384  27.054  35.749   8.328
 1255POPC   C3A19385  26.780  35.886   7.957
 1255POPC   C4A19386  26.942  36.035   7.523
 1255POPC   C1B19387  26.631  36.291   8.724
 1255POPC   C2B19388  26.805  36.259   8.312
 1255POPC   C3B19389  26.788  36.409   7.874
 1255POPC   C4B19390  26.617  36.412   7.449
 1256POPC   NC319391  22.887  16.504   9.522
 1256POPC   PO419392  23.177  17.122   9.453
 1256POPC   GL119393  22.910  17.005   9.101
 1256POPC   GL219394  22.774  16.677   9.077
 1256POPC   C1A19395  22.901  16.920   8.660
 1256POPC   D2A19396  22.959  16.908   8.243
 1256POPC   C3A19397  23.226  16.640   8.099
 1256POPC   C4A19398  23.070  16.487   7.759
 1256POPC   C1B19399  22.881  16.406   8.733
 1256POPC   C2B19400  22.713  16.464   8.334
 1256POPC   C3B19401  22.636  16.645   7.954
 1256POPC   C4B19402  22.556  16.414   7.642
 1257POPC   NC319403  40.989  12.304   9.590
 1257POPC   PO419404  41.021  11.704   9.292
 1257POPC   GL119405  40.949  12.093   9.089
 1257POPC   GL219406  40.690  12.322   9.192
 1257POPC   C1A19407  40.803  12.193   8.688
 1257POPC   D2A19408  40.703  12.037   8.266
 1257POPC   C3A19409  40.936  12.240   7.938
 1257POPC   C4A19410  40.971  12.115   7.513
 1257POPC   C1B19411  40.397  12.453   8.914
 1257POPC   C2B19412  40.423  12.553   8.460
 1257POPC   C3B19413  40.399  12.391   8.026
 1257POPC   C4B19414  40.600  12.514   7.637
 1258POPC   NC319415  20.084   3.248   9.524
 1258POPC   PO419416  19.355   3.209   9.525
 1258POPC   GL119417  19.719   3.078   9.223
 1258POPC   GL219418  19.812   2.737   9.203
 1258POPC   C1A19419  19.960   3.072   8.822
 1258POPC   D2A19420  19.913   3.045   8.372
 1258POPC   C3A19421  19.792   2.752   8.050
 1258POPC   C4A19422  19.658   2.869   7.655
 1258POPC   C1B19423  20.110   2.594   8.885
 1258POPC   C2B19424  20.055   2.518   8.463
 1258POPC   C3B19425  20.168   2.408   8.059
 1258POPC   C4B19426  19.910   2.375   7.696
 1259POPC   NC319427  33.523  34.433   9.594
 1259POPC   PO419428  34.134  34.254   9.489
 1259POPC   GL119429  34.020  34.576   9.185
 1259POPC   GL219430  33.703  34.716   9.183
 1259POPC   C1A19431  33.997  34.738   8.743
 1259POPC   D2A19432  34.077  34.866   8.300
 1259POPC   C3A19433  33.742  34.795   7.988
 1259POPC   C4A19434  33.784  34.927   7.541
 1259POPC   C1B19435  33.539  34.453   8.872
 1259POPC   C2B19436  33.617  34.474   8.432
 1259POPC   C3B19437  33.426  34.381   8.048
 1259POPC   C4B19438  33.352  34.121   7.687
 1260POPC   NC319439  11.665  30.885   9.469
 1260POPC   PO419440  12.395  30.670   9.479
 1260POPC   GL119441  12.044  30.644   9.180
 1260POPC   GL219442  11.941  30.323   9.025
 1260POPC   C1A19443  11.945  30.752   8.762
 1260POPC   D2A19444  12.112  30.687   8.384
 1260POPC   C3A19445  12.242  30.941   8.077
 1260POPC   C4A19446  12.235  30.729   7.701
 1260POPC   C1B19447  11.557  30.419   8.788
 1260POPC   C2B19448  11.575  30.618   8.370
 1260POPC   C3B19449  11.809  30.530   8.009
 1260POPC   C4B19450  11.888  30.346   7.627
 1261POPC   NC319451  37.441  33.707   9.500
 1261POPC   PO419452  37.872  34.174   9.355
 1261POPC   GL119453  37.814  33.889   9.049
 1261POPC   GL219454  37.481  33.907   9.052
 1261POPC   C1A19455  37.710  33.704   8.659
 1261POPC   D2A19456  37.478  33.699   8.263
 1261POPC   C3A19457  37.756  33.793   7.925
 1261POPC   C4A19458  37.972  33.577   7.578
 1261POPC   C1B19459  37.229  33.921   8.705
 1261POPC   C2B19460  37.210  34.149   8.329
 1261POPC   C3B19461  37.215  34.011   7.903
 1261POPC   C4B19462  37.431  33.867   7.524
 1262POPC   NC319463   1.071   8.026   9.666
 1262POPC   PO419464   0.353   8.063   9.616
 1262POPC   GL119465   0.211   8.211   9.194
 1262POPC   GL219466   0.503   8.093   9.105
 1262POPC   C1A19467   0.234   8.167   8.696
 1262POPC   D2A19468   0.571   8.398   8.411
 1262POPC   C3A19469   0.627   8.263   7.960
 1262POPC   C4A19470   0.260   8.192   7.679
 1262POPC   C1B19471   0.704   8.010   8.718
 1262POPC   C2B19472   0.503   7.902   8.317
 1262POPC   C3B19473   0.714   7.755   7.945
 1262POPC   C4B19474   0.588   7.812   7.519
 1263POPC   NC319475  34.822   7.119   9.311
 1263POPC   PO419476  34.896   7.825   9.461
 1263POPC   GL119477  34.789   7.589   9.081
 1263POPC   GL219478  34.442   7.420   9.144
 1263POPC   C1A19479  34.656   7.659   8.650
 1263POPC   D2A19480  34.200   7.747   8.487
 1263POPC   C3A19481  34.211   7.633   8.060
 1263POPC   C4A19482  34.656   7.621   7.924
 1263POPC   C1B19483  34.319   7.301   8.743
 1263POPC   C2B19484  34.445   7.275   8.352
 1263POPC   C3B19485  34.477   7.161   7.977
 1263POPC   C4B19486  34.183   7.330   7.656
 1264POPC   NC319487  26.000   1.180  10.097
 1264POPC   PO419488  26.222   1.206   9.669
 1264POPC   GL119489  26.168   1.181   9.179
 1264POPC   GL219490  25.862   1.015   9.069
 1264POPC   C1A19491  26.115   1.291   8.709
 1264POPC   D2A19492  25.971   1.152   8.287
 1264POPC   C3A19493  26.031   1.386   7.908
 1264POPC   C4A19494  26.418   1.523   7.707
 1264POPC   C1B19495  25.953   0.783   8.666
 1264POPC   C2B19496  25.883   0.664   8.222
 1264POPC   C3B19497  25.804   0.918   7.831
 1264POPC   C4B19498  25.700   1.268   7.523
 1265POPC   NC319499  36.994   9.237   9.670
 1265POPC   PO419500  37.307   8.672   9.555
 1265POPC   GL119501  37.041   8.794   9.234
 1265POPC   GL219502  36.970   9.145   9.163
 1265POPC   C1A19503  37.172   8.801   8.811
 1265POPC   D2A19504  37.253   8.888   8.396
 1265POPC   C3A19505  36.910   8.845   8.092
 1265POPC   C4A19506  37.061   8.713   7.684
 1265POPC   C1B19507  36.744   9.088   8.737
 1265POPC   C2B19508  36.474   9.265   8.402
 1265POPC   C3B19509  36.511   9.253   7.953
 1265POPC   C4B19510  36.691   9.080   7.594
 1266POPC   NC319511  36.980  17.675   9.545
 1266POPC   PO419512  36.368  17.354   9.385
 1266POPC   GL119513  36.669  17.610   9.162
 1266POPC   GL219514  36.933  17.431   9.083
 1266POPC   C1A19515  36.619  17.799   8.775
 1266POPC   D2A19516  36.579  17.600   8.390
 1266POPC   C3A19517  36.877  17.692   8.096
 1266POPC   C4A19518  36.694  17.663   7.730
 1266POPC   C1B19519  36.701  17.259   8.770
 1266POPC   C2B19520  36.685  17.076   8.383
 1266POPC   C3B19521  36.653  17.222   7.999
 1266POPC   C4B19522  36.982  17.249   7.738
 1267POPC   NC319523  26.793  18.718   9.372
 1267POPC   PO419524  26.863  19.350   9.244
 1267POPC   GL119525  27.056  19.072   8.936
 1267POPC   GL219526  27.113  18.716   8.993
 1267POPC   C1A19527  26.913  19.122   8.516
 1267POPC   D2A19528  26.576  19.345   8.312
 1267POPC   C3A19529  26.689  19.154   7.951
 1267POPC   C4A19530  27.104  19.269   7.790
 1267POPC   C1B19531  26.798  18.647   8.688
 1267POPC   C2B19532  26.774  18.439   8.311
 1267POPC   C3B19533  26.617  18.613   7.971
 1267POPC   C4B19534  26.799  18.765   7.607
 1268POPC   NC319535  36.872  19.140   9.503
 1268POPC   PO419536  36.497  18.648   9.322
 1268POPC   GL119537  36.767  18.951   9.041
 1268POPC   GL219538  37.122  19.083   9.069
 1268POPC   C1A19539  36.928  18.900   8.629
 1268POPC   D2A19540  36.825  18.715   8.249
 1268POPC   C3A19541  36.950  18.937   7.859
 1268POPC   C4A19542  36.734  18.877   7.458
 1268POPC   C1B19543  37.380  19.163   8.737
 1268POPC   C2B19544  37.265  19.260   8.345
 1268POPC   C3B19545  37.391  19.465   7.984
 1268POPC   C4B19546  37.106  19.432   7.671
 1269POPC   NC319547  21.593  34.242   9.372
 1269POPC   PO419548  20.975  34.603   9.417
 1269POPC   GL119549  21.239  34.549   9.096
 1269POPC   GL219550  21.330  34.915   9.063
 1269POPC   C1A19551  21.418  34.293   8.755
 1269POPC   D2A19552  21.656  34.168   8.440
 1269POPC   C3A19553  21.359  34.176   8.129
 1269POPC   C4A19554  21.287  34.484   7.814
 1269POPC   C1B19555  21.221  34.774   8.649
 1269POPC   C2B19556  21.458  34.638   8.321
 1269POPC   C3B19557  21.611  34.840   7.981
 1269POPC   C4B19558  21.276  35.007   7.774
 1270POPC   NC319559  13.415  33.942   9.445
 1270POPC   PO419560  13.978  33.582   9.430
 1270POPC   GL119561  13.731  33.696   9.079
 1270POPC   GL219562  13.819  34.035   9.090
 1270POPC   C1A19563  13.834  33.808   8.645
 1270POPC   D2A19564  14.018  33.569   8.331
 1270POPC   C3A19565  13.934  33.717   7.932
 1270POPC   C4A19566  13.674  33.720   7.585
 1270POPC   C1B19567  13.524  34.186   8.763
 1270POPC   C2B19568  13.465  34.292   8.334
 1270POPC   C3B19569  13.624  34.139   7.903
 1270POPC   C4B19570  13.532  34.176   7.432
 1271POPC   NC319571  24.466   6.355   9.285
 1271POPC   PO419572  24.610   5.726   9.573
 1271POPC   GL119573  24.542   5.864   9.168
 1271POPC   GL219574  24.196   5.826   9.118
 1271POPC   C1A19575  24.420   6.021   8.721
 1271POPC   D2A19576  24.415   5.817   8.336
 1271POPC   C3A19577  24.360   6.040   7.963
 1271POPC   C4A19578  24.676   6.143   7.632
 1271POPC   C1B19579  24.474   5.526   8.807
 1271POPC   C2B19580  24.624   5.367   8.396
 1271POPC   C3B19581  24.502   5.470   7.976
 1271POPC   C4B19582  24.352   5.701   7.620
 1272POPC   NC319583  32.738  13.944   9.338
 1272POPC   PO419584  33.047  14.609   9.505
 1272POPC   GL119585  33.223  14.483   9.116
 1272POPC   GL219586  33.252  14.117   9.083
 1272POPC   C1A19587  33.315  14.575   8.690
 1272POPC   D2A19588  33.051  14.700   8.336
 1272POPC   C3A19589  33.084  14.553   7.944
 1272POPC   C4A19590  33.263  14.667   7.541
 1272POPC   C1B19591  32.946  14.213   8.752
 1272POPC   C2B19592  32.856  14.083   8.331
 1272POPC   C3B19593  32.659  14.219   7.963
 1272POPC   C4B19594  32.769  14.449   7.558
 1273POPC   NC319595   3.259  28.367   9.531
 1273POPC   PO419596   3.847  28.644   9.359
 1273POPC   GL119597   3.591  28.379   9.096
 1273POPC   GL219598   3.427  28.052   9.181
 1273POPC   C1A19599   3.446  28.451   8.679
 1273POPC   D2A19600   3.671  28.631   8.320
 1273POPC   C3A19601   3.411  28.776   8.025
 1273POPC   C4A19602   3.204  28.495   7.764
 1273POPC   C1B19603   3.621  27.918   8.812
 1273POPC   C2B19604   3.507  28.006   8.412
 1273POPC   C3B19605   3.558  28.222   8.047
 1273POPC   C4B19606   3.511  28.108   7.647
 1274POPC   NC319607  28.815  30.990   9.536
 1274POPC   PO419608  29.314  31.393   9.754
 1274POPC   GL119609  29.299  31.599   9.230
 1274POPC   GL219610  29.160  31.353   9.016
 1274POPC   C1A19611  29.511  31.622   8.791
 1274POPC   D2A19612  29.440  31.294   8.489
 1274POPC   C3A19613  29.203  31.463   8.138
 1274POPC   C4A19614  29.252  31.579   7.695
 1274POPC   C1B19615  28.961  31.531   8.645
 1274POPC   C2B19616  28.700  31.442   8.255
 1274POPC   C3B19617  28.806  31.390   7.808
 1274POPC   C4B19618  28.766  31.609   7.360
 1275POPC   NC319619  37.896   2.298   9.322
 1275POPC   PO419620  38.080   1.732   9.658
 1275POPC   GL119621  37.621   1.870   9.282
 1275POPC   GL219622  37.428   2.190   9.117
 1275POPC   C1A19623  37.465   1.801   8.821
 1275POPC   D2A19624  37.581   1.968   8.408
 1275POPC   C3A19625  37.567   1.697   8.053
 1275POPC   C4A19626  37.497   1.782   7.631
 1275POPC   C1B19627  37.621   2.415   8.720
 1275POPC   C2B19628  37.968   2.350   8.386
 1275POPC   C3B19629  37.995   2.082   7.990
 1275POPC   C4B19630  37.998   1.683   7.762
 1276POPC   NC319631  33.390  39.008   9.472
 1276POPC   PO419632  33.052  38.482   9.618
 1276POPC   GL119633  33.082  38.422   9.195
 1276POPC   GL219634  33.349  38.628   9.147
 1276POPC   C1A19635  33.109  38.405   8.741
 1276POPC   D2A19636  33.192  38.569   8.325
 1276POPC   C3A19637  32.981  38.462   7.920
 1276POPC   C4A19638  32.905  38.495   7.458
 1276POPC   C1B19639  33.559  38.690   8.732
 1276POPC   C2B19640  33.501  38.954   8.349
 1276POPC   C3B19641  33.352  38.875   7.938
 1276POPC   C4B19642  33.331  38.755   7.505
 1277POPC   NC319643  14.146  42.633   9.215
 1277POPC   PO419644  14.780  42.302   9.362
 1277POPC   GL119645  14.492  42.260   9.062
 1277POPC   GL219646  14.174  42.090   9.211
 1277POPC   C1A19647  14.465  42.441   8.636
 1277POPC   D2A19648  14.110  42.652   8.420
 1277POPC   C3A19649  14.090  42.576   7.974
 1277POPC   C4A19650  14.478  42.407   7.779
 1277POPC   C1B19651  14.054  42.156   8.790
 1277POPC   C2B19652  14.206  42.036   8.401
 1277POPC   C3B19653  14.156  42.060   7.997
 1277POPC   C4B19654  14.279  41.946   7.583
 1278POPC   NC319655  36.833  35.730   9.386
 1278POPC   PO419656  36.966  35.085   9.501
 1278POPC   GL119657  36.933  35.293   9.127
 1278POPC   GL219658  37.218  35.535   9.121
 1278POPC   C1A19659  36.751  35.433   8.728
 1278POPC   D2A19660  36.719  35.288   8.295
 1278POPC   C3A19661  36.831  35.547   7.949
 1278POPC   C4A19662  37.158  35.837   7.953
 1278POPC   C1B19663  37.248  35.299   8.737
 1278POPC   C2B19664  37.188  35.503   8.374
 1278POPC   C3B19665  37.273  35.331   8.010
 1278POPC   C4B19666  37.360  35.385   7.609
 1279POPC   NC319667  28.630  14.297   9.496
 1279POPC   PO419668  28.299  14.901   9.313
 1279POPC   GL119669  28.173  14.635   8.997
 1279POPC   GL219670  28.418  14.448   9.057
 1279POPC   C1A19671  28.278  14.551   8.570
 1279POPC   D2A19672  28.130  14.339   8.239
 1279POPC   C3A19673  28.199  14.520   7.859
 1279POPC   C4A19674  28.396  14.283   7.541
 1279POPC   C1B19675  28.727  14.670   8.766
 1279POPC   C2B19676  28.799  14.374   8.442
 1279POPC   C3B19677  28.628  14.267   8.032
 1279POPC   C4B19678  28.711  14.627   7.768
 1280POPC   NC319679  28.800  20.233   9.518
 1280POPC   PO419680  28.256  20.758   9.546
 1280POPC   GL119681  28.206  20.606   9.121
 1280POPC   GL219682  28.453  20.372   9.156
 1280POPC   C1A19683  28.380  20.618   8.701
 1280POPC   D2A19684  28.441  20.899   8.388
 1280POPC   C3A19685  28.432  20.616   8.044
 1280POPC   C4A19686  28.388  20.689   7.636
 1280POPC   C1B19687  28.735  20.243   8.774
 1280POPC   C2B19688  28.742  20.120   8.311
 1280POPC   C3B19689  28.728  20.238   7.831
 1280POPC   C4B19690  28.662  20.186   7.349
 1281POPC   NC319691  23.167   5.617   9.467
 1281POPC   PO419692  22.601   5.873   9.632
 1281POPC   GL119693  22.782   6.001   9.236
 1281POPC   GL219694  22.934   5.721   9.034
 1281POPC   C1A19695  22.746   6.159   8.788
 1281POPC   D2A19696  22.951   6.119   8.401
 1281POPC   C3A19697  22.780   5.850   8.086
 1281POPC   C4A19698  22.751   5.988   7.703
 1281POPC   C1B19699  23.238   5.988   8.835
 1281POPC   C2B19700  23.438   5.938   8.433
 1281POPC   C3B19701  23.279   5.954   7.974
 1281POPC   C4B19702  23.467   5.719   7.597
 1282POPC   NC319703   5.994  28.934   9.496
 1282POPC   PO419704   5.467  29.390   9.529
 1282POPC   GL119705   5.648  29.107   9.145
 1282POPC   GL219706   5.976  29.181   9.010
 1282POPC   C1A19707   5.730  28.852   8.754
 1282POPC   D2A19708   5.574  28.951   8.364
 1282POPC   C3A19709   5.919  29.059   8.044
 1282POPC   C4A19710   5.865  29.165   7.628
 1282POPC   C1B19711   5.887  29.326   8.559
 1282POPC   C2B19712   6.070  29.524   8.170
 1282POPC   C3B19713   6.231  29.490   7.730
 1282POPC   C4B19714   6.021  29.533   7.287
 1283POPC   NC319715  44.304  19.175   9.414
 1283POPC   PO419716  44.934  19.119   9.510
 1283POPC   GL119717  44.721  19.093   9.121
 1283POPC   GL219718  44.451  18.792   9.103
 1283POPC   C1A19719  44.906  19.184   8.717
 1283POPC   D2A19720  44.796  18.955   8.356
 1283POPC   C3A19721  44.877  19.219   7.999
 1283POPC   C4A19722  44.646  19.299   7.641
 1283POPC   C1B19723  44.393  19.032   8.718
 1283POPC   C2B19724  44.217  19.074   8.296
 1283POPC   C3B19725  44.437  18.928   7.976
 1283POPC   C4B19726  44.425  18.851   7.573
 1284POPC   NC319727  40.452   1.190   9.406
 1284POPC   PO419728  39.801   1.577   9.540
 1284POPC   GL119729  39.912   1.410   9.149
 1284POPC   GL219730  40.215   1.573   9.169
 1284POPC   C1A19731  39.929   1.038   8.858
 1284POPC   D2A19732  39.759   0.860   8.463
 1284POPC   C3A19733  39.853   0.995   8.057
 1284POPC   C4A19734  39.666   0.967   7.659
 1284POPC   C1B19735  40.326   1.394   8.783
 1284POPC   C2B19736  40.183   1.212   8.410
 1284POPC   C3B19737  40.368   1.088   8.013
 1284POPC   C4B19738  40.157   1.201   7.662
 1285POPC   NC319739  40.182   8.022   9.381
 1285POPC   PO419740  39.740   8.514   9.339
 1285POPC   GL119741  39.961   8.342   9.072
 1285POPC   GL219742  40.244   8.450   9.108
 1285POPC   C1A19743  40.002   8.093   8.715
 1285POPC   D2A19744  39.891   7.918   8.320
 1285POPC   C3A19745  39.986   8.171   7.984
 1285POPC   C4A19746  39.850   8.250   7.595
 1285POPC   C1B19747  40.171   8.605   8.714
 1285POPC   C2B19748  40.090   8.537   8.310
 1285POPC   C3B19749  40.255   8.600   7.896
 1285POPC   C4B19750  40.375   8.405   7.514
 1286POPC   NC319751   2.079  16.604   9.720
 1286POPC   PO419752   1.601  16.227   9.722
 1286POPC   GL119753   1.736  16.524   9.319
 1286POPC   GL219754   2.060  16.757   9.214
 1286POPC   C1A19755   1.678  16.757   8.891
 1286POPC   D2A19756   1.523  16.839   8.466
 1286POPC   C3A19757   1.767  16.818   8.087
 1286POPC   C4A19758   1.712  16.482   7.784
 1286POPC   C1B19759   2.146  17.044   8.821
 1286POPC   C2B19760   2.348  17.270   8.397
 1286POPC   C3B19761   2.250  17.122   7.981
 1286POPC   C4B19762   2.171  16.738   7.766
 1287POPC   NC319763  20.362   7.855   9.418
 1287POPC   PO419764  20.749   7.258   9.546
 1287POPC   GL119765  20.432   7.362   9.247
 1287POPC   GL219766  20.701   7.578   9.141
 1287POPC   C1A19767  20.342   7.530   8.810
 1287POPC   D2A19768  20.564   7.590   8.424
 1287POPC   C3A19769  20.392   7.403   8.066
 1287POPC   C4A19770  20.230   7.518   7.655
 1287POPC   C1B19771  20.876   7.746   8.811
 1287POPC   C2B19772  20.954   7.910   8.407
 1287POPC   C3B19773  21.029   7.616   8.061
 1287POPC   C4B19774  20.764   7.469   7.737
 1288POPC   NC319775  15.760  44.956   9.213
 1288POPC   PO419776  16.054  44.490   9.613
 1288POPC   GL119777  15.868  44.415   9.139
 1288POPC   GL219778  16.088  44.150   9.090
 1288POPC   C1A19779  15.760  44.539   8.703
 1288POPC   D2A19780  15.704  44.786   8.300
 1288POPC   C3A19781  16.074  44.970   8.136
 1288POPC   C4A19782  16.258  44.916   7.732
 1288POPC   C1B19783  16.226  44.284   8.700
 1288POPC   C2B19784  16.007  44.332   8.317
 1288POPC   C3B19785  16.142  44.459   7.956
 1288POPC   C4B19786  16.413  44.263   7.734
 1289POPC   NC319787  39.821  37.594   9.581
 1289POPC   PO419788  40.435  37.537   9.630
 1289POPC   GL119789  40.189  37.501   9.218
 1289POPC   GL219790  39.824  37.401   9.121
 1289POPC   C1A19791  40.162  37.701   8.800
 1289POPC   D2A19792  39.888  37.729   8.429
 1289POPC   C3A19793  39.984  37.730   7.968
 1289POPC   C4A19794  40.079  37.757   7.540
 1289POPC   C1B19795  39.890  37.274   8.687
 1289POPC   C2B19796  39.913  37.258   8.232
 1289POPC   C3B19797  39.717  37.282   7.848
 1289POPC   C4B19798  39.854  37.298   7.444
 1290POPC   NC319799  24.343  28.503   9.457
 1290POPC   PO419800  24.747  27.888   9.571
 1290POPC   GL119801  24.616  27.929   9.098
 1290POPC   GL219802  24.350  28.180   9.069
 1290POPC   C1A19803  24.570  28.037   8.652
 1290POPC   D2A19804  24.162  28.131   8.482
 1290POPC   C3A19805  24.280  28.303   8.098
 1290POPC   C4A19806  24.618  28.173   7.809
 1290POPC   C1B19807  24.440  28.581   8.792
 1290POPC   C2B19808  24.432  28.747   8.349
 1290POPC   C3B19809  24.660  28.665   7.951
 1290POPC   C4B19810  24.711  28.539   7.480
 1291POPC   NC319811  14.121  34.114   9.513
 1291POPC   PO419812  14.730  33.780   9.506
 1291POPC   GL119813  14.417  33.776   9.202
 1291POPC   GL219814  14.352  34.088   9.059
 1291POPC   C1A19815  14.273  33.631   8.818
 1291POPC   D2A19816  14.356  33.916   8.531
 1291POPC   C3A19817  14.393  33.890   8.118
 1291POPC   C4A19818  14.408  33.744   7.726
 1291POPC   C1B19819  14.093  34.286   8.736
 1291POPC   C2B19820  13.969  34.197   8.326
 1291POPC   C3B19821  14.130  34.302   7.957
 1291POPC   C4B19822  14.063  34.105   7.584
 1292POPC   NC319823  15.728  30.255   9.312
 1292POPC   PO419824  15.874  30.919   9.494
 1292POPC   GL119825  15.971  30.701   9.126
 1292POPC   GL219826  15.686  30.657   8.990
 1292POPC   C1A19827  16.167  30.702   8.716
 1292POPC   D2A19828  16.184  31.035   8.385
 1292POPC   C3A19829  15.996  30.942   7.994
 1292POPC   C4A19830  16.306  30.855   7.711
 1292POPC   C1B19831  15.773  30.384   8.652
 1292POPC   C2B19832  15.958  30.437   8.243
 1292POPC   C3B19833  16.045  30.402   7.800
 1292POPC   C4B19834  15.890  30.629   7.439
 1293POPC   NC319835  25.098   5.625   9.544
 1293POPC   PO419836  25.486   6.208   9.603
 1293POPC   GL119837  25.202   6.020   9.228
 1293POPC   GL219838  25.312   5.661   9.091
 1293POPC   C1A19839  24.938   5.904   8.836
 1293POPC   D2A19840  25.055   5.739   8.409
 1293POPC   C3A19841  24.858   5.872   8.033
 1293POPC   C4A19842  25.098   5.890   7.650
 1293POPC   C1B19843  25.465   5.919   8.770
 1293POPC   C2B19844  25.512   6.031   8.335
 1293POPC   C3B19845  25.280   6.222   8.014
 1293POPC   C4B19846  25.444   6.287   7.615
 1294POPC   NC319847  44.792  14.019   9.358
 1294POPC   PO419848  44.473  13.415   9.545
 1294POPC   GL119849  44.496  13.617   9.194
 1294POPC   GL219850  44.823  13.512   9.134
 1294POPC   C1A19851  44.431  13.718   8.784
 1294POPC   D2A19852  44.567  13.553   8.428
 1294POPC   C3A19853  44.470  13.777   8.101
 1294POPC   C4A19854  44.512  13.699   7.719
 1294POPC   C1B19855  44.944  13.723   8.750
 1294POPC   C2B19856  44.837  13.993   8.387
 1294POPC   C3B19857  44.941  13.943   7.947
 1294POPC   C4B19858   0.058  13.639   7.659
 1295POPC   NC319859  10.157  24.335   9.484
 1295POPC   PO419860   9.544  24.451   9.506
 1295POPC   GL119861   9.780  24.534   9.095
 1295POPC   GL219862  10.154  24.631   9.051
 1295POPC   C1A19863   9.664  24.543   8.637
 1295POPC   D2A19864   9.476  24.321   8.286
 1295POPC   C3A19865   9.639  24.350   7.856
 1295POPC   C4A19866   9.624  24.532   7.419
 1295POPC   C1B19867  10.132  24.745   8.587
 1295POPC   C2B19868   9.903  24.735   8.168
 1295POPC   C3B19869  10.012  24.682   7.717
 1295POPC   C4B19870  10.137  24.533   7.307
 1296POPC   NC319871   3.326   5.981   9.791
 1296POPC   PO419872   2.634   5.988   9.512
 1296POPC   GL119873   2.407   6.072   9.125
 1296POPC   GL219874   2.330   5.727   9.043
 1296POPC   C1A19875   2.544   6.066   8.666
 1296POPC   D2A19876   2.558   5.871   8.245
 1296POPC   C3A19877   2.840   5.824   7.873
 1296POPC   C4A19878   3.256   5.749   7.622
 1296POPC   C1B19879   2.204   5.490   8.653
 1296POPC   C2B19880   2.311   5.394   8.221
 1296POPC   C3B19881   2.348   5.647   7.832
 1296POPC   C4B19882   2.472   5.612   7.395
 1297POPC   NC319883  21.742  14.412   9.385
 1297POPC   PO419884  21.181  14.071   9.541
 1297POPC   GL119885  21.312  14.281   9.154
 1297POPC   GL219886  21.307  14.614   9.227
 1297POPC   C1A19887  21.479  14.258   8.736
 1297POPC   D2A19888  21.365  14.118   8.346
 1297POPC   C3A19889  21.403  14.390   7.993
 1297POPC   C4A19890  21.255  14.275   7.626
 1297POPC   C1B19891  21.181  14.662   8.796
 1297POPC   C2B19892  21.313  14.720   8.369
 1297POPC   C3B19893  21.052  14.804   8.001
 1297POPC   C4B19894  21.110  14.816   7.572
 1298POPC   NC319895  27.922   2.509   9.288
 1298POPC   PO419896  27.420   2.921   9.582
 1298POPC   GL119897  27.498   2.838   9.178
 1298POPC   GL219898  27.253   2.585   9.198
 1298POPC   C1A19899  27.539   3.055   8.751
 1298POPC   D2A19900  27.438   2.922   8.341
 1298POPC   C3A19901  27.680   2.674   8.050
 1298POPC   C4A19902  27.814   2.756   7.646
 1298POPC   C1B19903  27.375   2.569   8.751
 1298POPC   C2B19904  27.322   2.413   8.324
 1298POPC   C3B19905  27.289   2.360   7.869
 1298POPC   C4B19906  27.565   2.328   7.504
 1299POPC   NC319907  26.270   3.465   9.543
 1299POPC   PO419908  25.777   3.736   9.768
 1299POPC   GL119909  26.010   3.769   9.223
 1299POPC   GL219910  26.177   3.453   9.061
 1299POPC   C1A19911  25.848   3.711   8.739
 1299POPC   D2A19912  26.016   3.687   8.328
 1299POPC   C3A19913  25.902   3.648   7.918
 1299POPC   C4A19914  26.290   3.478   7.707
 1299POPC   C1B19915  26.348   3.736   8.784
 1299POPC   C2B19916  26.516   3.747   8.407
 1299POPC   C3B19917  26.399   3.877   8.017
 1299POPC   C4B19918  26.172   3.978   7.652
 1300POPC   NC319919   5.632   8.330   9.623
 1300POPC   PO419920   6.140   7.866   9.836
 1300POPC   GL119921   5.987   8.068   9.352
 1300POPC   GL219922   6.135   8.327   9.137
 1300POPC   C1A19923   5.890   8.009   8.850
 1300POPC   D2A19924   6.034   8.159   8.464
 1300POPC   C3A19925   5.704   8.187   8.148
 1300POPC   C4A19926   5.691   7.948   7.769
 1300POPC   C1B19927   5.802   8.499   8.816
 1300POPC   C2B19928   5.919   8.647   8.402
 1300POPC   C3B19929   6.113   8.474   8.035
 1300POPC   C4B19930   5.799   8.489   7.711
 1301POPC   NC319931  42.637  33.538   9.434
 1301POPC   PO419932  43.264  33.544   9.766
 1301POPC   GL119933  43.165  33.595   9.310
 1301POPC   GL219934  43.166  33.953   9.223
 1301POPC   C1A19935  43.188  33.582   8.840
 1301POPC   D2A19936  42.847  33.637   8.516
 1301POPC   C3A19937  42.963  33.630   8.067
 1301POPC   C4A19938  43.004  33.418   7.669
 1301POPC   C1B19939  43.012  34.062   8.782
 1301POPC   C2B19940  43.021  34.077   8.320
 1301POPC   C3B19941  43.019  34.139   7.879
 1301POPC   C4B19942  43.256  34.349   7.550
 1302POPC   NC319943  42.750   2.132   9.419
 1302POPC   PO419944  43.105   1.657   9.641
 1302POPC   GL119945  43.092   1.891   9.143
 1302POPC   GL219946  42.758   1.915   8.961
 1302POPC   C1A19947  43.172   2.059   8.703
 1302POPC   D2A19948  43.102   1.893   8.283
 1302POPC   C3A19949  43.195   1.992   7.855
 1302POPC   C4A19950  43.434   2.327   7.689
 1302POPC   C1B19951  42.567   1.804   8.579
 1302POPC   C2B19952  42.698   1.631   8.198
 1302POPC   C3B19953  42.820   1.605   7.777
 1302POPC   C4B19954  42.823   1.808   7.379
 1303POPC   NC319955  12.738  42.303   9.611
 1303POPC   PO419956  13.213  41.950   9.270
 1303POPC   GL119957  12.924  42.030   8.993
 1303POPC   GL219958  12.641  42.145   9.137
 1303POPC   C1A19959  12.969  42.100   8.607
 1303POPC   D2A19960  12.738  41.862   8.340
 1303POPC   C3A19961  12.928  41.844   7.985
 1303POPC   C4A19962  13.010  42.269   7.853
 1303POPC   C1B19963  12.551  42.402   8.759
 1303POPC   C2B19964  12.686  42.409   8.314
 1303POPC   C3B19965  12.523  42.202   7.976
 1303POPC   C4B19966  12.392  42.320   7.583
 1304POPC   NC319967   9.921  41.698   9.633
 1304POPC   PO419968   9.405  41.245   9.646
 1304POPC   GL119969   9.562  41.426   9.226
 1304POPC   GL219970   9.931  41.439   9.144
 1304POPC   C1A19971   9.581  41.526   8.773
 1304POPC   D2A19972   9.344  41.469   8.398
 1304POPC   C3A19973   9.509  41.499   7.979
 1304POPC   C4A19974   9.377  41.798   7.667
 1304POPC   C1B19975   9.955  41.182   8.737
 1304POPC   C2B19976   9.832  41.295   8.321
 1304POPC   C3B19977  10.067  41.389   7.935
 1304POPC   C4B19978  10.167  41.109   7.560
 1305POPC   NC319979   5.723  27.546   9.527
 1305POPC   PO419980   6.248  27.850   9.565
 1305POPC   GL119981   6.070  27.673   9.169
 1305POPC   GL219982   5.781  27.831   9.114
 1305POPC   C1A19983   5.880  27.462   8.780
 1305POPC   D2A19984   6.010  27.251   8.378
 1305POPC   C3A19985   5.878  27.197   7.930
 1305POPC   C4A19986   6.034  27.084   7.492
 1305POPC   C1B19987   5.570  27.888   8.734
 1305POPC   C2B19988   5.750  27.707   8.349
 1305POPC   C3B19989   5.902  27.696   7.932
 1305POPC   C4B19990   6.198  27.554   7.625
 1306POPC   NC319991  38.891  35.666   9.490
 1306POPC   PO419992  39.047  36.321   9.661
 1306POPC   GL119993  39.122  36.292   9.254
 1306POPC   GL219994  39.265  35.950   9.277
 1306POPC   C1A19995  38.958  36.352   8.854
 1306POPC   D2A19996  38.924  36.000   8.577
 1306POPC   C3A19997  39.053  36.007   8.167
 1306POPC   C4A19998  38.886  36.202   7.812
 1306POPC   C1B19999  39.343  35.917   8.850
 1306POPC   C2B20000  39.371  35.698   8.454
 1306POPC   C3B20001  39.513  35.822   8.055
 1306POPC   C4B20002  39.605  35.658   7.690
 1307POPC   NC320003   1.292   5.802   9.379
 1307POPC   PO420004   0.945   6.368   9.351
 1307POPC   GL120005   0.967   5.978   9.040
 1307POPC   GL220006   1.105   5.588   8.994
 1307POPC   C1A20007   1.096   5.986   8.603
 1307POPC   D2A20008   1.095   6.149   8.171
 1307POPC   C3A20009   1.227   5.953   7.830
 1307POPC   C4A20010   1.536   6.050   7.473
 1307POPC   C1B20011   1.198   5.470   8.630
 1307POPC   C2B20012   1.072   5.590   8.243
 1307POPC   C3B20013   1.377   5.486   7.965
 1307POPC   C4B20014   1.447   5.566   7.552
 1308POPC   NC320015  30.192  33.596   9.432
 1308POPC   PO420016  29.722  34.041   9.650
 1308POPC   GL120017  29.835  33.875   9.226
 1308POPC   GL220018  30.150  34.031   9.156
 1308POPC   C1A20019  29.792  33.695   8.796
 1308POPC   D2A20020  29.750  33.911   8.379
 1308POPC   C3A20021  29.593  33.761   7.957
 1308POPC   C4A20022  29.678  33.888   7.493
 1308POPC   C1B20023  30.294  33.801   8.783
 1308POPC   C2B20024  30.170  33.598   8.415
 1308POPC   C3B20025  30.122  33.798   8.028
 1308POPC   C4B20026  30.039  33.582   7.661
 1309POPC   NC320027  10.598  32.975   9.736
 1309POPC   PO420028  10.159  33.408   9.478
 1309POPC   GL120029  10.397  33.120   9.245
 1309POPC   GL220030  10.592  33.346   9.042
 1309POPC   C1A20031  10.375  32.981   8.815
 1309POPC   D2A20032  10.542  32.831   8.458
 1309POPC   C3A20033  10.270  32.869   8.116
 1309POPC   C4A20034  10.482  32.883   7.722
 1309POPC   C1B20035  10.668  33.314   8.578
 1309POPC   C2B20036  10.751  33.228   8.130
 1309POPC   C3B20037  10.819  33.285   7.688
 1309POPC   C4B20038  10.649  33.355   7.285
 1310POPC   NC320039  41.038  27.822   9.274
 1310POPC   PO420040  40.759  28.362   9.585
 1310POPC   GL120041  40.911  28.285   9.148
 1310POPC   GL220042  41.129  28.591   9.174
 1310POPC   C1A20043  40.849  28.157   8.661
 1310POPC   D2A20044  40.594  28.131   8.243
 1310POPC   C3A20045  40.761  28.127   7.782
 1310POPC   C4A20046  40.573  28.298   7.408
 1310POPC   C1B20047  40.795  28.656   8.851
 1310POPC   C2B20048  40.799  28.607   8.437
 1310POPC   C3B20049  40.901  28.521   8.062
 1310POPC   C4B20050  40.871  28.657   7.665
 1311POPC   NC320051   7.191  14.932   9.495
 1311POPC   PO420052   7.661  15.318   9.472
 1311POPC   GL120053   7.805  15.177   9.093
 1311POPC   GL220054   7.521  14.975   9.080
 1311POPC   C1A20055   7.846  15.222   8.675
 1311POPC   D2A20056   7.721  15.358   8.281
 1311POPC   C3A20057   7.748  15.112   7.919
 1311POPC   C4A20058   7.582  15.072   7.512
 1311POPC   C1B20059   7.370  15.031   8.662
 1311POPC   C2B20060   7.225  15.262   8.300
 1311POPC   C3B20061   7.238  15.189   7.871
 1311POPC   C4B20062   7.062  14.899   7.584
 1312POPC   NC320063   6.266  31.994   9.436
 1312POPC   PO420064   5.655  32.443   9.473
 1312POPC   GL120065   5.833  32.325   9.141
 1312POPC   GL220066   5.834  32.004   9.144
 1312POPC   C1A20067   5.778  32.517   8.757
 1312POPC   D2A20068   5.538  32.599   8.394
 1312POPC   C3A20069   5.806  32.518   8.047
 1312POPC   C4A20070   5.724  32.279   7.619
 1312POPC   C1B20071   6.151  32.142   8.798
 1312POPC   C2B20072   6.105  32.266   8.373
 1312POPC   C3B20073   5.992  32.057   7.967
 1312POPC   C4B20074   6.247  32.126   7.569
 1313POPC   NC320075  10.842   6.016   9.416
 1313POPC   PO420076  10.345   5.533   9.576
 1313POPC   GL120077  10.387   5.779   9.199
 1313POPC   GL220078  10.405   6.156   9.173
 1313POPC   C1A20079  10.456   5.730   8.769
 1313POPC   D2A20080  10.216   5.574   8.448
 1313POPC   C3A20081  10.286   5.787   8.074
 1313POPC   C4A20082  10.537   5.616   7.794
 1313POPC   C1B20083  10.684   6.189   8.762
 1313POPC   C2B20084  10.774   5.974   8.321
 1313POPC   C3B20085  10.664   6.105   7.889
 1313POPC   C4B20086  10.272   6.309   7.922
 1314POPC   NC320087  30.780   6.896   9.574
 1314POPC   PO420088  30.268   7.242   9.533
 1314POPC   GL120089  30.522   7.517   9.242
 1314POPC   GL220090  30.726   7.251   9.167
 1314POPC   C1A20091  30.616   7.534   8.780
 1314POPC   D2A20092  30.606   7.423   8.390
 1314POPC   C3A20093  30.954   7.547   8.158
 1314POPC   C4A20094  30.797   7.639   7.793
 1314POPC   C1B20095  30.517   7.026   8.851
 1314POPC   C2B20096  30.736   6.900   8.478
 1314POPC   C3B20097  30.833   7.056   8.099
 1314POPC   C4B20098  30.589   7.109   7.767
 1315POPC   NC320099   4.421  41.831   9.219
 1315POPC   PO420100   4.383  41.308   9.608
 1315POPC   GL120101   4.241  41.300   9.169
 1315POPC   GL220102   3.988  41.520   9.080
 1315POPC   C1A20103   4.345  41.393   8.707
 1315POPC   D2A20104   4.590  41.457   8.302
 1315POPC   C3A20105   4.350  41.429   7.939
 1315POPC   C4A20106   4.422  41.377   7.476
 1315POPC   C1B20107   4.000  41.786   8.715
 1315POPC   C2B20108   4.146  41.730   8.323
 1315POPC   C3B20109   4.108  41.880   7.934
 1315POPC   C4B20110   4.259  41.835   7.543
 1316POPC   NC320111  15.525  24.855   9.377
 1316POPC   PO420112  16.197  25.016   9.421
 1316POPC   GL120113  15.990  25.256   9.095
 1316POPC   GL220114  15.814  25.564   9.221
 1316POPC   C1A20115  15.684  25.221   8.766
 1316POPC   D2A20116  15.661  25.075   8.343
 1316POPC   C3A20117  16.065  25.031   8.190
 1316POPC   C4A20118  16.064  25.091   7.777
 1316POPC   C1B20119  15.796  25.712   8.800
 1316POPC   C2B20120  15.980  25.525   8.424
 1316POPC   C3B20121  15.829  25.480   8.014
 1316POPC   C4B20122  15.650  25.833   7.819
 1317POPC   NC320123   7.794  43.643   9.378
 1317POPC   PO420124   8.424  43.921   9.443
 1317POPC   GL120125   8.233  43.805   9.084
 1317POPC   GL220126   7.983  43.996   9.064
 1317POPC   C1A20127   8.360  43.842   8.664
 1317POPC   D2A20128   8.520  44.090   8.282
 1317POPC   C3A20129   8.268  43.979   7.914
 1317POPC   C4A20130   8.136  43.563   7.796
 1317POPC   C1B20131   7.857  44.155   8.743
 1317POPC   C2B20132   8.000  44.042   8.378
 1317POPC   C3B20133   7.796  43.875   8.111
 1317POPC   C4B20134   7.764  43.994   7.738
 1318POPC   NC320135  11.025  20.238   9.614
 1318POPC   PO420136  10.340  20.409   9.600
 1318POPC   GL120137  10.516  20.512   9.209
 1318POPC   GL220138  10.736  20.816   9.268
 1318POPC   C1A20139  10.485  20.355   8.798
 1318POPC   D2A20140  10.505  20.562   8.421
 1318POPC   C3A20141  10.330  20.433   8.034
 1318POPC   C4A20142  10.433  20.290   7.642
 1318POPC   C1B20143  10.645  20.894   8.832
 1318POPC   C2B20144  10.798  20.978   8.411
 1318POPC   C3B20145  10.512  20.942   8.075
 1318POPC   C4B20146  10.496  20.800   7.666
 1319POPC   NC320147  30.793   2.713   9.689
 1319POPC   PO420148  30.474   3.061   9.273
 1319POPC   GL120149  30.704   2.730   9.128
 1319POPC   GL220150  31.032   2.813   9.200
 1319POPC   C1A20151  30.636   2.463   8.747
 1319POPC   D2A20152  30.462   2.440   8.328
 1319POPC   C3A20153  30.694   2.576   7.935
 1319POPC   C4A20154  30.453   2.834   7.664
 1319POPC   C1B20155  31.009   2.812   8.727
 1319POPC   C2B20156  30.917   2.897   8.306
 1319POPC   C3B20157  31.120   3.019   7.941
 1319POPC   C4B20158  30.947   2.887   7.537
 1320POPC   NC320159  36.957   2.315   9.499
 1320POPC   PO420160  37.216   1.630   9.531
 1320POPC   GL120161  37.007   1.834   9.181
 1320POPC   GL220162  36.620   1.799   9.169
 1320POPC   C1A20163  37.021   2.086   8.795
 1320POPC   D2A20164  37.192   2.314   8.440
 1320POPC   C3A20165  37.218   2.115   8.035
 1320POPC   C4A20166  36.991   2.187   7.673
 1320POPC   C1B20167  36.571   1.842   8.713
 1320POPC   C2B20168  36.733   2.070   8.339
 1320POPC   C3B20169  36.743   1.857   7.977
 1320POPC   C4B20170  36.604   1.428   7.847
 1321POPC   NC320171  16.775  20.875   9.580
 1321POPC   PO420172  16.208  20.782   9.492
 1321POPC   GL120173  16.459  20.902   9.108
 1321POPC   GL220174  16.744  20.677   9.114
 1321POPC   C1A20175  16.686  20.942   8.686
 1321POPC   D2A20176  16.928  21.008   8.307
 1321POPC   C3A20177  16.667  20.965   7.951
 1321POPC   C4A20178  16.342  20.647   7.799
 1321POPC   C1B20179  16.503  20.484   8.748
 1321POPC   C2B20180  16.577  20.579   8.281
 1321POPC   C3B20181  16.846  20.484   7.899
 1321POPC   C4B20182  17.118  20.442   7.506
 1322POPC   NC320183  12.557  21.386   9.614
 1322POPC   PO420184  13.210  21.447   9.583
 1322POPC   GL120185  12.989  21.425   9.167
 1322POPC   GL220186  12.655  21.592   9.155
 1322POPC   C1A20187  13.183  21.408   8.731
 1322POPC   D2A20188  13.419  21.361   8.326
 1322POPC   C3A20189  13.160  21.178   7.995
 1322POPC   C4A20190  12.756  21.318   7.844
 1322POPC   C1B20191  12.694  21.236   8.812
 1322POPC   C2B20192  12.531  21.218   8.382
 1322POPC   C3B20193  12.268  21.265   8.037
 1322POPC   C4B20194  12.328  21.552   7.658
 1323POPC   NC320195  38.311  43.829   9.747
 1323POPC   PO420196  38.149  44.238   9.270
 1323POPC   GL120197  38.523  44.039   9.159
 1323POPC   GL220198  38.544  43.708   9.290
 1323POPC   C1A20199  38.575  43.923   8.726
 1323POPC   D2A20200  38.262  43.969   8.386
 1323POPC   C3A20201  38.251  44.152   7.960
 1323POPC   C4A20202  38.332  44.139   7.509
 1323POPC   C1B20203  38.721  43.471   8.923
 1323POPC   C2B20204  38.529  43.449   8.494
 1323POPC   C3B20205  38.442  43.572   8.058
 1323POPC   C4B20206  38.613  43.750   7.675
 1324POPC   NC320207  37.222   9.937   9.432
 1324POPC   PO420208  36.666   9.589   9.567
 1324POPC   GL120209  36.806   9.665   9.150
 1324POPC   GL220210  37.143   9.618   9.049
 1324POPC   C1A20211  36.756   9.606   8.699
 1324POPC   D2A20212  36.840   9.868   8.355
 1324POPC   C3A20213  37.062   9.761   7.993
 1324POPC   C4A20214  36.762   9.635   7.691
 1324POPC   C1B20215  37.209   9.321   8.732
 1324POPC   C2B20216  37.006   9.332   8.315
 1324POPC   C3B20217  37.065   9.274   7.874
 1324POPC   C4B20218  37.081   9.311   7.399
 1325POPC   NC320219  25.029  17.282   9.521
 1325POPC   PO420220  25.425  17.714   9.773
 1325POPC   GL120221  25.313  17.683   9.282
 1325POPC   GL220222  25.386  17.351   9.159
 1325POPC   C1A20223  25.281  17.769   8.825
 1325POPC   D2A20224  25.090  17.621   8.412
 1325POPC   C3A20225  25.207  17.825   8.023
 1325POPC   C4A20226  25.527  17.689   7.737
 1325POPC   C1B20227  25.307  17.253   8.751
 1325POPC   C2B20228  25.522  17.344   8.400
 1325POPC   C3B20229  25.375  17.297   8.009
 1325POPC   C4B20230  24.982  17.376   7.897
 1326POPC   NC320231  10.760  35.634   9.510
 1326POPC   PO420232  10.337  35.077   9.431
 1326POPC   GL120233  10.201  35.362   9.123
 1326POPC   GL220234  10.361  35.692   9.178
 1326POPC   C1A20235  10.138  35.351   8.699
 1326POPC   D2A20236  10.118  35.560   8.301
 1326POPC   C3A20237  10.402  35.452   7.991
 1326POPC   C4A20238  10.338  34.992   7.918
 1326POPC   C1B20239  10.608  35.464   8.855
 1326POPC   C2B20240  10.575  35.261   8.447
 1326POPC   C3B20241  10.815  35.188   8.075
 1326POPC   C4B20242  10.907  35.479   7.793
 1327POPC   NC320243   0.017   2.258   9.668
 1327POPC   PO420244   0.647   2.026   9.441
 1327POPC   GL120245   0.386   1.873   9.138
 1327POPC   GL220246   0.145   2.168   9.153
 1327POPC   C1A20247   0.423   1.700   8.730
 1327POPC   D2A20248   0.575   1.877   8.310
 1327POPC   C3A20249   0.479   1.712   7.877
 1327POPC   C4A20250   0.540   1.870   7.430
 1327POPC   C1B20251   0.186   2.185   8.690
 1327POPC   C2B20252   0.152   2.208   8.223
 1327POPC   C3B20253   0.353   2.224   7.793
 1327POPC   C4B20254   0.479   2.364   7.361
 1328POPC   NC320255  14.785   1.388   9.447
 1328POPC   PO420256  15.476   1.101   9.466
 1328POPC   GL120257  15.340   1.210   9.066
 1328POPC   GL220258  14.977   1.160   9.036
 1328POPC   C1A20259  15.273   1.378   8.653
 1328POPC   D2A20260  15.073   1.529   8.261
 1328POPC   C3A20261  15.361   1.397   7.964
 1328POPC   C4A20262  15.598   1.366   7.576
 1328POPC   C1B20263  15.150   0.872   8.708
 1328POPC   C2B20264  15.133   1.013   8.284
 1328POPC   C3B20265  14.889   1.138   7.935
 1328POPC   C4B20266  14.846   0.915   7.553
 1329POPC   NC320267   3.514   2.126  10.132
 1329POPC   PO420268   3.381   1.803   9.526
 1329POPC   GL120269   3.350   1.729   9.070
 1329POPC   GL220270   3.326   2.070   9.007
 1329POPC   C1A20271   3.299   1.796   8.584
 1329POPC   D2A20272   3.062   1.978   8.209
 1329POPC   C3A20273   3.196   1.760   7.825
 1329POPC   C4A20274   3.668   1.635   7.745
 1329POPC   C1B20275   3.685   2.243   8.757
 1329POPC   C2B20276   3.734   2.557   8.412
 1329POPC   C3B20277   3.513   2.541   8.016
 1329POPC   C4B20278   3.529   2.137   7.831
 1330POPC   NC320279  25.175  18.072   9.582
 1330POPC   PO420280  25.826  18.005   9.389
 1330POPC   GL120281  25.491  18.156   9.130
 1330POPC   GL220282  25.112  18.291   9.136
 1330POPC   C1A20283  25.412  18.289   8.727
 1330POPC   D2A20284  25.126  18.194   8.408
 1330POPC   C3A20285  25.342  18.338   8.066
 1330POPC   C4A20286  25.325  18.214   7.668
 1330POPC   C1B20287  24.981  18.562   8.786
 1330POPC   C2B20288  25.124  18.729   8.366
 1330POPC   C3B20289  24.948  18.614   7.956
 1330POPC   C4B20290  24.841  18.181   7.862
 1331POPC   NC320291  27.151  25.026   9.320
 1331POPC   PO420292  26.606  25.357   9.533
 1331POPC   GL120293  26.752  25.298   9.043
 1331POPC   GL220294  27.064  25.395   8.861
 1331POPC   C1A20295  26.648  25.428   8.578
 1331POPC   D2A20296  26.856  25.620   8.205
 1331POPC   C3A20297  26.738  25.607   7.750
 1331POPC   C4A20298  26.648  25.170   7.734
 1331POPC   C1B20299  27.353  25.663   8.610
 1331POPC   C2B20300  27.418  25.607   8.159
 1331POPC   C3B20301  27.145  25.340   7.890
 1331POPC   C4B20302  27.062  25.327   7.429
 1332POPC   NC320303  35.608  41.417   9.437
 1332POPC   PO420304  34.930  41.241   9.398
 1332POPC   GL120305  35.094  41.345   9.008
 1332POPC   GL220306  35.388  41.578   8.986
 1332POPC   C1A20307  35.213  41.372   8.572
 1332POPC   D2A20308  35.632  41.480   8.462
 1332POPC   C3A20309  35.631  41.523   8.018
 1332POPC   C4A20310  35.187  41.496   7.897
 1332POPC   C1B20311  35.036  41.814   8.774
 1332POPC   C2B20312  34.961  41.924   8.365
 1332POPC   C3B20313  35.326  41.945   8.134
 1332POPC   C4B20314  35.473  41.939   7.719
 1333POPC   NC320315   7.891   0.400   9.511
 1333POPC   PO420316   7.222   0.641   9.521
 1333POPC   GL120317   7.467   0.454   9.215
 1333POPC   GL220318   7.701   0.706   9.153
 1333POPC   C1A20319   7.626   0.353   8.820
 1333POPC   D2A20320   7.510   0.387   8.424
 1333POPC   C3A20321   7.178   0.268   8.183
 1333POPC   C4A20322   7.230   0.352   7.741
 1333POPC   C1B20323   7.654   0.857   8.740
 1333POPC   C2B20324   7.456   0.905   8.362
 1333POPC   C3B20325   7.451   0.700   8.020
 1333POPC   C4B20326   7.742   0.656   7.744
 1334POPC   NC320327  32.285  25.454   9.506
 1334POPC   PO420328  32.459  24.880   9.126
 1334POPC   GL120329  32.509  25.294   9.074
 1334POPC   GL220330  32.139  25.306   9.046
 1334POPC   C1A20331  32.469  25.483   8.690
 1334POPC   D2A20332  32.254  25.441   8.314
 1334POPC   C3A20333  32.442  25.485   7.916
 1334POPC   C4A20334  32.468  25.185   7.603
 1334POPC   C1B20335  31.931  25.527   8.734
 1334POPC   C2B20336  31.750  25.417   8.336
 1334POPC   C3B20337  31.883  25.336   7.913
 1334POPC   C4B20338  31.600  25.415   7.579
 1335POPC   NC320339  28.772  28.098   9.259
 1335POPC   PO420340  28.093  28.278   9.420
 1335POPC   GL120341  28.368  28.391   9.083
 1335POPC   GL220342  28.736  28.577   9.127
 1335POPC   C1A20343  28.248  28.203   8.680
 1335POPC   D2A20344  28.277  27.966   8.282
 1335POPC   C3A20345  28.103  28.252   7.977
 1335POPC   C4A20346  28.278  28.668   7.828
 1335POPC   C1B20347  28.642  28.548   8.685
 1335POPC   C2B20348  28.468  28.482   8.291
 1335POPC   C3B20349  28.620  28.270   7.955
 1335POPC   C4B20350  28.773  28.503   7.631
 1336POPC   NC320351   3.102  31.819   9.431
 1336POPC   PO420352   2.479  32.194   9.451
 1336POPC   GL120353   2.738  32.111   9.136
 1336POPC   GL220354   2.656  31.791   9.120
 1336POPC   C1A20355   2.658  32.106   8.690
 1336POPC   D2A20356   2.545  32.325   8.312
 1336POPC   C3A20357   2.883  32.390   8.022
 1336POPC   C4A20358   2.824  32.348   7.570
 1336POPC   C1B20359   2.932  31.684   8.752
 1336POPC   C2B20360   3.037  31.867   8.329
 1336POPC   C3B20361   2.980  31.907   7.871
 1336POPC   C4B20362   3.029  31.921   7.409
 1337POPC   NC320363   8.144   8.261   9.420
 1337POPC   PO420364   7.820   7.654   9.535
 1337POPC   GL120365   7.998   7.833   9.126
 1337POPC   GL220366   8.380   7.910   9.137
 1337POPC   C1A20367   7.874   7.947   8.675
 1337POPC   D2A20368   7.840   8.288   8.339
 1337POPC   C3A20369   8.105   8.281   7.993
 1337POPC   C4A20370   8.084   8.172   7.514
 1337POPC   C1B20371   8.320   8.193   8.790
 1337POPC   C2B20372   8.442   8.456   8.447
 1337POPC   C3B20373   8.621   8.377   8.030
 1337POPC   C4B20374   8.413   8.541   7.674
 1338POPC   NC320375  39.839  34.456   9.638
 1338POPC   PO420376  40.218  34.165   9.158
 1338POPC   GL120377  40.002  34.560   9.128
 1338POPC   GL220378  39.650  34.700   9.225
 1338POPC   C1A20379  40.124  34.786   8.769
 1338POPC   D2A20380  40.418  34.843   8.447
 1338POPC   C3A20381  40.264  34.579   8.142
 1338POPC   C4A20382  40.192  34.630   7.752
 1338POPC   C1B20383  39.644  34.604   8.787
 1338POPC   C2B20384  39.805  34.631   8.379
 1338POPC   C3B20385  39.682  34.776   7.976
 1338POPC   C4B20386  39.714  34.796   7.485
 1339POPC   NC320387  13.037  15.364   9.435
 1339POPC   PO420388  12.552  15.037   9.208
 1339POPC   GL120389  12.747  15.262   8.970
 1339POPC   GL220390  13.098  15.246   8.958
 1339POPC   C1A20391  12.774  15.206   8.565
 1339POPC   D2A20392  12.616  15.229   8.225
 1339POPC   C3A20393  12.963  15.311   8.051
 1339POPC   C4A20394  12.761  15.218   7.700
 1339POPC   C1B20395  13.308  15.056   8.614
 1339POPC   C2B20396  13.062  14.831   8.340
 1339POPC   C3B20397  12.975  14.828   7.918
 1339POPC   C4B20398  13.254  14.846   7.552
 1340POPC   NC320399   9.389   4.578   9.463
 1340POPC   PO420400   9.850   4.104   9.722
 1340POPC   GL120401   9.857   4.329   9.258
 1340POPC   GL220402  10.145   4.446   9.123
 1340POPC   C1A20403   9.907   4.176   8.776
 1340POPC   D2A20404   9.817   4.277   8.326
 1340POPC   C3A20405   9.739   3.985   7.999
 1340POPC   C4A20406   9.555   4.247   7.683
 1340POPC   C1B20407  10.237   4.721   8.839
 1340POPC   C2B20408  10.096   4.691   8.471
 1340POPC   C3B20409  10.182   4.599   8.085
 1340POPC   C4B20410  10.051   4.305   7.782
 1341POPC   NC320411   9.207  43.147   9.440
 1341POPC   PO420412   9.000  43.735   9.690
 1341POPC   GL120413   8.922  43.483   9.224
 1341POPC   GL220414   8.902  43.196   9.046
 1341POPC   C1A20415   9.270  43.426   8.801
 1341POPC   D2A20416   9.153  43.386   8.392
 1341POPC   C3A20417   9.314  43.150   8.046
 1341POPC   C4A20418   9.276  43.364   7.645
 1341POPC   C1B20419   9.005  42.973   8.709
 1341POPC   C2B20420   8.776  42.782   8.400
 1341POPC   C3B20421   8.798  43.064   8.069
 1341POPC   C4B20422   8.963  42.977   7.690
 1342POPC   NC320423   8.457  28.490   9.500
 1342POPC   PO420424   7.824  28.612   9.593
 1342POPC   GL120425   8.070  28.645   9.208
 1342POPC   GL220426   8.083  28.299   9.167
 1342POPC   C1A20427   8.203  28.584   8.763
 1342POPC   D2A20428   8.404  28.312   8.471
 1342POPC   C3A20429   8.238  28.450   8.116
 1342POPC   C4A20430   8.117  28.445   7.728
 1342POPC   C1B20431   8.101  28.049   8.794
 1342POPC   C2B20432   7.925  28.158   8.399
 1342POPC   C3B20433   7.876  28.041   7.973
 1342POPC   C4B20434   8.227  27.944   7.733
 1343POPC   NC320435  15.135   0.799   9.371
 1343POPC   PO420436  15.689   0.404   9.455
 1343POPC   GL120437  15.427   0.410   9.134
 1343POPC   GL220438  15.532   0.724   9.054
 1343POPC   C1A20439  15.075   0.304   8.838
 1343POPC   D2A20440  14.860   0.022   8.521
 1343POPC   C3A20441  14.969   0.130   8.059
 1343POPC   C4A20442  15.333   0.172   7.756
 1343POPC   C1B20443  15.530   0.503   8.649
 1343POPC   C2B20444  15.201   0.466   8.351
 1343POPC   C3B20445  15.109   0.619   7.936
 1343POPC   C4B20446  15.353   0.931   7.758
 1344POPC   NC320447  24.986   8.107   9.550
 1344POPC   PO420448  25.511   8.378   9.386
 1344POPC   GL120449  25.418   7.941   9.164
 1344POPC   GL220450  25.060   7.946   9.082
 1344POPC   C1A20451  25.314   7.684   8.760
 1344POPC   D2A20452  25.069   7.676   8.379
 1344POPC   C3A20453  25.287   7.797   8.014
 1344POPC   C4A20454  25.213   8.210   7.811
 1344POPC   C1B20455  25.124   8.143   8.669
 1344POPC   C2B20456  24.939   8.156   8.248
 1344POPC   C3B20457  24.713   8.282   7.858
 1344POPC   C4B20458  24.846   8.239   7.392
 1345POPC   NC320459   7.718  15.786   9.482
 1345POPC   PO420460   7.087  16.129   9.395
 1345POPC   GL120461   7.488  16.081   9.126
 1345POPC   GL220462   7.710  15.728   8.995
 1345POPC   C1A20463   7.695  16.196   8.746
 1345POPC   D2A20464   7.854  16.122   8.304
 1345POPC   C3A20465   7.640  16.251   7.920
 1345POPC   C4A20466   7.278  16.056   7.735
 1345POPC   C1B20467   7.456  15.579   8.684
 1345POPC   C2B20468   7.427  15.808   8.308
 1345POPC   C3B20469   7.628  15.735   7.944
 1345POPC   C4B20470   7.463  15.552   7.587
 1346POPC   NC320471  22.692   4.100   9.657
 1346POPC   PO420472  23.398   3.987   9.566
 1346POPC   GL120473  23.161   4.137   9.202
 1346POPC   GL220474  22.821   4.215   9.172
 1346POPC   C1A20475  23.179   4.317   8.771
 1346POPC   D2A20476  23.124   4.641   8.439
 1346POPC   C3A20477  22.858   4.584   8.087
 1346POPC   C4A20478  22.903   4.306   7.767
 1346POPC   C1B20479  22.588   4.224   8.817
 1346POPC   C2B20480  22.793   4.207   8.430
 1346POPC   C3B20481  22.532   4.182   8.090
 1346POPC   C4B20482  22.488   4.016   7.701
 1347POPC   NC320483   0.563  26.406   9.555
 1347POPC   PO420484   0.807  27.035   9.425
 1347POPC   GL120485   0.521  26.792   9.144
 1347POPC   GL220486   0.303  26.497   9.084
 1347POPC   C1A20487   0.618  26.661   8.712
 1347POPC   D2A20488   0.957  26.782   8.422
 1347POPC   C3A20489   0.789  26.752   8.017
 1347POPC   C4A20490   0.384  26.786   7.844
 1347POPC   C1B20491   0.154  26.891   8.819
 1347POPC   C2B20492   0.226  27.187   8.444
 1347POPC   C3B20493   0.081  27.186   7.984
 1347POPC   C4B20494   0.061  27.032   7.544
 1348POPC   NC320495   4.657  19.997   9.504
 1348POPC   PO420496   3.978  19.689   9.425
 1348POPC   GL120497   4.225  19.778   9.131
 1348POPC   GL220498   4.350  20.084   9.096
 1348POPC   C1A20499   4.107  19.890   8.713
 1348POPC   D2A20500   4.351  20.043   8.423
 1348POPC   C3A20501   4.351  19.736   8.117
 1348POPC   C4A20502   4.188  19.542   7.752
 1348POPC   C1B20503   4.633  19.861   8.834
 1348POPC   C2B20504   4.851  19.903   8.421
 1348POPC   C3B20505   4.691  20.107   8.062
 1348POPC   C4B20506   4.376  20.039   7.689
 1349POPC   NC320507  21.761  42.852   9.439
 1349POPC   PO420508  22.394  43.099   9.653
 1349POPC   GL120509  22.211  42.975   9.214
 1349POPC   GL220510  22.250  43.232   9.018
 1349POPC   C1A20511  21.946  42.951   8.765
 1349POPC   D2A20512  21.764  42.843   8.345
 1349POPC   C3A20513  21.935  43.117   8.008
 1349POPC   C4A20514  21.950  43.102   7.536
 1349POPC   C1B20515  22.445  43.495   8.768
 1349POPC   C2B20516  22.293  43.306   8.399
 1349POPC   C3B20517  22.470  43.222   8.037
 1349POPC   C4B20518  22.433  43.236   7.632
 1350POPC   NC320519  22.431   4.956   9.323
 1350POPC   PO420520  21.867   5.232   9.449
 1350POPC   GL120521  22.013   5.082   9.051
 1350POPC   GL220522  22.282   5.293   8.950
 1350POPC   C1A20523  22.009   4.934   8.618
 1350POPC   D2A20524  22.015   5.129   8.223
 1350POPC   C3A20525  21.925   4.919   7.833
 1350POPC   C4A20526  21.751   4.999   7.430
 1350POPC   C1B20527  22.528   5.024   8.661
 1350POPC   C2B20528  22.440   4.831   8.261
 1350POPC   C3B20529  22.421   5.064   7.877
 1350POPC   C4B20530  22.647   5.445   7.788
 1351POPC   NC320531  41.390  25.792   9.561
 1351POPC   PO420532  41.807  25.227   9.525
 1351POPC   GL120533  41.588  25.231   9.133
 1351POPC   GL220534  41.673  25.601   9.166
 1351POPC   C1A20535  41.460  25.035   8.701
 1351POPC   D2A20536  41.542  24.833   8.288
 1351POPC   C3A20537  41.318  25.075   7.980
 1351POPC   C4A20538  41.434  25.244   7.597
 1351POPC   C1B20539  41.527  25.555   8.736
 1351POPC   C2B20540  41.644  25.375   8.366
 1351POPC   C3B20541  41.810  25.188   8.035
 1351POPC   C4B20542  41.958  25.257   7.648
 1352POPC   NC320543  44.092  14.559   9.495
 1352POPC   PO420544  43.696  14.044   9.552
 1352POPC   GL120545  43.880  14.201   9.148
 1352POPC   GL220546  43.519  14.183   9.103
 1352POPC   C1A20547  44.066  14.439   8.716
 1352POPC   D2A20548  44.095  14.840   8.541
 1352POPC   C3A20549  44.146  14.766   8.108
 1352POPC   C4A20550  43.928  14.650   7.733
 1352POPC   C1B20551  43.571  14.370   8.745
 1352POPC   C2B20552  43.689  14.561   8.377
 1352POPC   C3B20553  43.727  14.307   8.033
 1352POPC   C4B20554  43.557  14.292   7.637
 1353POPC   NC320555  34.415  30.022   9.524
 1353POPC   PO420556  34.985  30.279   9.317
 1353POPC   GL120557  34.769  30.017   9.040
 1353POPC   GL220558  34.761  29.710   9.272
 1353POPC   C1A20559  34.727  30.070   8.553
 1353POPC   D2A20560  34.445  30.284   8.253
 1353POPC   C3A20561  34.535  30.251   7.843
 1353POPC   C4A20562  34.266  30.053   7.518
 1353POPC   C1B20563  34.725  29.506   8.881
 1353POPC   C2B20564  34.778  29.559   8.439
 1353POPC   C3B20565  34.588  29.773   8.089
 1353POPC   C4B20566  34.753  29.832   7.674
 1354POPC   NC320567  14.720  27.942   9.425
 1354POPC   PO420568  14.407  28.561   9.398
 1354POPC   GL120569  14.348  28.386   9.038
 1354POPC   GL220570  14.643  28.234   9.023
 1354POPC   C1A20571  14.254  28.193   8.668
 1354POPC   D2A20572  14.324  28.171   8.261
 1354POPC   C3A20573  14.324  28.532   7.972
 1354POPC   C4A20574  14.106  28.529   7.572
 1354POPC   C1B20575  14.754  28.241   8.629
 1354POPC   C2B20576  14.728  28.484   8.310
 1354POPC   C3B20577  14.877  28.406   7.933
 1354POPC   C4B20578  15.063  28.368   7.551
 1355POPC   NC320579  42.817   3.801   9.540
 1355POPC   PO420580  43.426   3.327   9.684
 1355POPC   GL120581  43.237   3.532   9.305
 1355POPC   GL220582  43.295   3.913   9.301
 1355POPC   C1A20583  43.163   3.444   8.847
 1355POPC   D2A20584  42.945   3.261   8.485
 1355POPC   C3A20585  43.154   3.373   8.104
 1355POPC   C4A20586  43.216   3.470   7.686
 1355POPC   C1B20587  43.054   3.955   8.897
 1355POPC   C2B20588  43.131   3.774   8.458
 1355POPC   C3B20589  43.077   3.878   7.986
 1355POPC   C4B20590  42.944   4.043   7.582
 1356POPC   NC320591   1.319   0.795   9.447
 1356POPC   PO420592   1.600   0.244   9.549
 1356POPC   GL120593   1.364   0.370   9.178
 1356POPC   GL220594   1.001   0.500   9.156
 1356POPC   C1A20595   1.351   0.632   8.804
 1356POPC   D2A20596   1.088   0.589   8.458
 1356POPC   C3A20597   1.205   0.414   8.043
 1356POPC   C4A20598   1.127   0.519   7.624
 1356POPC   C1B20599   0.779   0.770   8.848
 1356POPC   C2B20600   0.648   0.857   8.444
 1356POPC   C3B20601   0.837   0.785   8.045
 1356POPC   C4B20602   0.581   0.817   7.675
 1357POPC   NC320603  41.794  21.271   9.461
 1357POPC   PO420604  42.475  21.357   9.443
 1357POPC   GL120605  42.208  21.388   9.112
 1357POPC   GL220606  42.078  21.079   9.060
 1357POPC   C1A20607  42.228  21.624   8.735
 1357POPC   D2A20608  42.536  21.736   8.433
 1357POPC   C3A20609  42.438  21.622   8.049
 1357POPC   C4A20610  42.560  21.271   7.802
 1357POPC   C1B20611  42.453  21.104   8.759
 1357POPC   C2B20612  42.397  21.132   8.315
 1357POPC   C3B20613  42.082  21.209   8.007
 1357POPC   C4B20614  41.960  21.333   7.606
 1358POPC   NC320615  41.796  33.225   9.662
 1358POPC   PO420616  41.292  32.810   9.537
 1358POPC   GL120617  41.382  32.981   9.149
 1358POPC   GL220618  41.669  33.191   9.138
 1358POPC   C1A20619  41.379  32.726   8.792
 1358POPC   D2A20620  41.608  32.712   8.420
 1358POPC   C3A20621  41.445  32.823   8.008
 1358POPC   C4A20622  41.590  32.815   7.617
 1358POPC   C1B20623  41.547  33.185   8.667
 1358POPC   C2B20624  41.609  33.260   8.208
 1358POPC   C3B20625  41.771  33.255   7.777
 1358POPC   C4B20626  41.554  33.258   7.347
 1359POPC   NC320627  27.907  29.720   9.428
 1359POPC   PO420628  27.406  30.160   9.573
 1359POPC   GL120629  27.599  30.101   9.199
 1359POPC   GL220630  27.443  29.770   9.181
 1359POPC   C1A20631  27.710  29.949   8.780
 1359POPC   D2A20632  27.526  29.866   8.398
 1359POPC   C3A20633  27.702  30.044   8.064
 1359POPC   C4A20634  27.844  29.915   7.678
 1359POPC   C1B20635  27.375  29.564   8.782
 1359POPC   C2B20636  27.424  29.361   8.370
 1359POPC   C3B20637  27.436  29.597   7.964
 1359POPC   C4B20638  27.115  29.616   7.616
 1360POPC   NC320639   2.495  40.674   9.468
 1360POPC   PO420640   1.816  40.802   9.401
 1360POPC   GL120641   1.941  40.890   9.028
 1360POPC   GL220642   2.293  40.866   9.034
 1360POPC   C1A20643   1.773  40.964   8.653
 1360POPC   D2A20644   1.738  40.922   8.245
 1360POPC   C3A20645   1.793  41.129   7.877
 1360POPC   C4A20646   1.896  40.720   7.683
 1360POPC   C1B20647   2.327  40.846   8.587
 1360POPC   C2B20648   2.219  40.635   8.213
 1360POPC   C3B20649   1.835  40.429   8.179
 1360POPC   C4B20650   1.553  40.368   7.870
 1361POPC   NC320651  25.377  26.934   9.836
 1361POPC   PO420652  26.054  26.743   9.578
 1361POPC   GL120653  25.946  26.764   9.141
 1361POPC   GL220654  26.182  26.958   8.956
 1361POPC   C1A20655  25.770  26.781   8.729
 1361POPC   D2A20656  25.954  26.950   8.367
 1361POPC   C3A20657  25.763  26.884   7.992
 1361POPC   C4A20658  25.907  26.634   7.611
 1361POPC   C1B20659  26.199  26.531   8.711
 1361POPC   C2B20660  26.199  26.488   8.244
 1361POPC   C3B20661  26.309  26.393   7.819
 1361POPC   C4B20662  26.226  26.308   7.375
 1362POPC   NC320663  11.689  34.482   9.447
 1362POPC   PO420664  11.235  35.002   9.487
 1362POPC   GL120665  11.363  34.754   9.125
 1362POPC   GL220666  11.383  34.369   9.056
 1362POPC   C1A20667  11.195  34.699   8.699
 1362POPC   D2A20668  11.320  34.845   8.275
 1362POPC   C3A20669  11.191  34.933   7.837
 1362POPC   C4A20670  11.195  35.079   7.406
 1362POPC   C1B20671  11.716  34.557   8.774
 1362POPC   C2B20672  11.769  34.607   8.309
 1362POPC   C3B20673  11.458  34.488   7.928
 1362POPC   C4B20674  11.230  34.199   7.599
 1363POPC   NC320675  27.326  16.951   9.209
 1363POPC   PO420676  26.681  16.837   9.528
 1363POPC   GL120677  26.650  16.826   9.090
 1363POPC   GL220678  26.870  16.567   9.067
 1363POPC   C1A20679  26.803  16.888   8.676
 1363POPC   D2A20680  26.880  16.643   8.316
 1363POPC   C3A20681  26.717  16.917   8.006
 1363POPC   C4A20682  26.843  16.800   7.580
 1363POPC   C1B20683  26.518  16.466   8.741
 1363POPC   C2B20684  26.388  16.523   8.297
 1363POPC   C3B20685  26.573  16.451   7.915
 1363POPC   C4B20686  26.515  16.417   7.473
 1364POPC   NC320687  25.551  21.058   9.613
 1364POPC   PO420688  25.134  21.660   9.600
 1364POPC   GL120689  25.231  21.516   9.183
 1364POPC   GL220690  25.549  21.362   9.158
 1364POPC   C1A20691  25.048  21.490   8.759
 1364POPC   D2A20692  24.816  21.322   8.429
 1364POPC   C3A20693  24.948  21.472   8.055
 1364POPC   C4A20694  25.145  21.550   7.675
 1364POPC   C1B20695  25.566  21.589   8.770
 1364POPC   C2B20696  25.367  21.553   8.355
 1364POPC   C3B20697  25.477  21.338   7.982
 1364POPC   C4B20698  25.672  21.608   7.659
 1365POPC   NC320699  21.395  44.891   9.658
 1365POPC   PO420700  21.141  44.365   9.372
 1365POPC   GL120701  21.345  44.692   9.158
 1365POPC   GL220702  21.095  44.940   9.238
 1365POPC   C1A20703  21.360  44.879   8.726
 1365POPC   D2A20704  21.574  44.836   8.307
 1365POPC   C3A20705  21.391  44.472   8.058
 1365POPC   C4A20706  21.266  44.571   7.660
 1365POPC   C1B20707  20.911   0.126   8.886
 1365POPC   C2B20708  20.930   0.109   8.445
 1365POPC   C3B20709  21.080  44.878   8.102
 1365POPC   C4B20710  21.058   0.023   7.692
 1366POPC   NC320711  13.786  15.225   9.662
 1366POPC   PO420712  13.269  14.862   9.323
 1366POPC   GL120713  13.560  15.082   9.074
 1366POPC   GL220714  13.531  15.390   9.216
 1366POPC   C1A20715  13.804  14.930   8.725
 1366POPC   D2A20716  13.868  15.045   8.303
 1366POPC   C3A20717  13.455  15.028   8.061
 1366POPC   C4A20718  13.335  15.312   7.715
 1366POPC   C1B20719  13.750  15.475   8.804
 1366POPC   C2B20720  13.893  15.578   8.378
 1366POPC   C3B20721  13.781  15.407   7.956
 1366POPC   C4B20722  13.780  15.521   7.523
 1367POPC   NC320723  12.433  32.575   9.417
 1367POPC   PO420724  11.780  32.293   9.442
 1367POPC   GL120725  12.009  32.257   9.121
 1367POPC   GL220726  12.321  32.097   9.168
 1367POPC   C1A20727  12.006  31.994   8.769
 1367POPC   D2A20728  12.194  32.070   8.399
 1367POPC   C3A20729  12.161  31.895   8.015
 1367POPC   C4A20730  11.932  31.839   7.679
 1367POPC   C1B20731  12.361  32.371   8.790
 1367POPC   C2B20732  12.524  32.454   8.388
 1367POPC   C3B20733  12.423  32.319   7.996
 1367POPC   C4B20734  12.102  32.353   7.671
 1368POPC   NC320735   8.576   6.263   9.277
 1368POPC   PO420736   9.035   6.676   9.482
 1368POPC   GL120737   8.958   6.570   9.078
 1368POPC   GL220738   9.158   6.864   8.961
 1368POPC   C1A20739   8.817   6.299   8.701
 1368POPC   D2A20740   9.009   6.265   8.291
 1368POPC   C3A20741   8.883   6.443   7.884
 1368POPC   C4A20742   8.629   6.297   7.558
 1368POPC   C1B20743   9.074   6.699   8.584
 1368POPC   C2B20744   8.892   6.831   8.216
 1368POPC   C3B20745   8.977   6.942   7.802
 1368POPC   C4B20746   9.192   6.774   7.493
 1369POPC   NC320747  38.556  22.020   9.546
 1369POPC   PO420748  38.837  22.548   9.312
 1369POPC   GL120749  38.642  22.209   9.088
 1369POPC   GL220750  38.292  22.168   9.128
 1369POPC   C1A20751  38.496  22.061   8.689
 1369POPC   D2A20752  38.311  22.252   8.370
 1369POPC   C3A20753  38.525  22.099   8.038
 1369POPC   C4A20754  38.662  22.258   7.685
 1369POPC   C1B20755  38.019  21.953   8.820
 1369POPC   C2B20756  38.090  21.800   8.395
 1369POPC   C3B20757  38.054  21.938   7.963
 1369POPC   C4B20758  37.984  21.914   7.524
 1370POPC   NC320759  10.853  14.483   9.432
 1370POPC   PO420760  10.140  14.645   9.512
 1370POPC   GL120761  10.282  14.335   9.131
 1370POPC   GL220762  10.591  14.435   9.008
 1370POPC   C1A20763  10.332  14.224   8.638
 1370POPC   D2A20764  10.318  14.656   8.413
 1370POPC   C3A20765  10.399  14.647   7.978
 1370POPC   C4A20766  10.134  14.410   7.705
 1370POPC   C1B20767  10.784  14.504   8.610
 1370POPC   C2B20768  11.030  14.230   8.350
 1370POPC   C3B20769  10.923  14.023   7.969
 1370POPC   C4B20770  10.559  14.100   7.713
 1371POPC   NC320771   6.641  19.881   9.473
 1371POPC   PO420772   6.292  19.271   9.293
 1371POPC   GL120773   6.491  19.616   9.059
 1371POPC   GL220774   6.304  19.821   9.003
 1371POPC   C1A20775   6.772  19.731   8.697
 1371POPC   D2A20776   6.778  19.495   8.275
 1371POPC   C3A20777   6.729  19.758   7.901
 1371POPC   C4A20778   6.483  19.762   7.509
 1371POPC   C1B20779   6.366  20.049   8.690
 1371POPC   C2B20780   6.471  19.936   8.308
 1371POPC   C3B20781   6.255  20.026   7.959
 1371POPC   C4B20782   6.414  20.329   7.743
 1372POPC   NC320783  44.368  25.749   9.379
 1372POPC   PO420784  43.765  25.888   9.334
 1372POPC   GL120785  44.052  26.096   9.103
 1372POPC   GL220786  43.829  26.385   9.092
 1372POPC   C1A20787  43.961  26.020   8.690
 1372POPC   D2A20788  43.921  25.713   8.336
 1372POPC   C3A20789  44.030  25.853   7.933
 1372POPC   C4A20790  44.044  25.751   7.458
 1372POPC   C1B20791  43.792  26.508   8.706
 1372POPC   C2B20792  43.824  26.361   8.332
 1372POPC   C3B20793  43.640  26.412   7.952
 1372POPC   C4B20794  43.765  26.145   7.621
 1373POPC   NC320795  31.057  24.626   9.429
 1373POPC   PO420796  31.623  24.405   9.296
 1373POPC   GL120797  31.292  24.419   9.005
 1373POPC   GL220798  31.062  24.202   9.163
 1373POPC   C1A20799  31.208  24.747   8.670
 1373POPC   D2A20800  31.550  24.858   8.358
 1373POPC   C3A20801  31.571  24.698   7.922
 1373POPC   C4A20802  31.597  24.741   7.453
 1373POPC   C1B20803  30.897  24.172   8.807
 1373POPC   C2B20804  31.180  24.258   8.493
 1373POPC   C3B20805  31.179  24.381   8.074
 1373POPC   C4B20806  31.265  24.397   7.633
 1374POPC   NC320807  24.539  30.223   9.484
 1374POPC   PO420808  24.342  29.558   9.445
 1374POPC   GL120809  24.330  29.855   9.131
 1374POPC   GL220810  24.649  29.980   9.068
 1374POPC   C1A20811  24.374  29.762   8.680
 1374POPC   D2A20812  24.358  29.943   8.265
 1374POPC   C3A20813  24.365  29.680   7.880
 1374POPC   C4A20814  24.282  29.652   7.418
 1374POPC   C1B20815  24.795  30.211   8.735
 1374POPC   C2B20816  24.850  30.039   8.324
 1374POPC   C3B20817  24.704  30.140   7.944
 1374POPC   C4B20818  24.659  29.978   7.500
 1375POPC   NC320819  18.894  34.283   9.769
 1375POPC   PO420820  19.134  34.901   9.529
 1375POPC   GL120821  19.098  34.568   9.271
 1375POPC   GL220822  18.933  34.792   9.055
 1375POPC   C1A20823  19.061  34.327   8.883
 1375POPC   D2A20824  19.009  34.403   8.442
 1375POPC   C3A20825  19.220  34.378   8.039
 1375POPC   C4A20826  19.025  34.513   7.636
 1375POPC   C1B20827  18.678  34.722   8.714
 1375POPC   C2B20828  18.723  34.807   8.295
 1375POPC   C3B20829  19.070  34.858   8.033
 1375POPC   C4B20830  19.012  35.056   7.671
 1376POPC   NC320831  41.063   6.078   9.446
 1376POPC   PO420832  40.377   5.898   9.567
 1376POPC   GL120833  40.443   6.068   9.145
 1376POPC   GL220834  40.789   6.197   9.042
 1376POPC   C1A20835  40.534   5.866   8.759
 1376POPC   D2A20836  40.330   5.769   8.387
 1376POPC   C3A20837  40.690   5.833   8.127
 1376POPC   C4A20838  40.816   5.654   7.739
 1376POPC   C1B20839  40.982   6.364   8.667
 1376POPC   C2B20840  41.078   6.181   8.248
 1376POPC   C3B20841  40.976   6.131   7.828
 1376POPC   C4B20842  40.722   6.359   7.597
 1377POPC   NC320843  44.819  12.350   9.408
 1377POPC   PO420844  44.405  11.864   9.460
 1377POPC   GL120845  44.514  12.061   9.108
 1377POPC   GL220846  44.315  12.299   9.010
 1377POPC   C1A20847  44.856  11.988   8.823
 1377POPC   D2A20848  44.814  11.759   8.451
 1377POPC   C3A20849  44.673  11.951   8.057
 1377POPC   C4A20850  44.926  11.997   7.675
 1377POPC   C1B20851  44.415  12.145   8.599
 1377POPC   C2B20852  44.187  12.076   8.230
 1377POPC   C3B20853  44.262  12.215   7.826
 1377POPC   C4B20854  44.444  11.941   7.500
 1378POPC   NC320855  22.469   2.526   9.378
 1378POPC   PO420856  21.979   2.909   9.614
 1378POPC   GL120857  22.155   2.912   9.218
 1378POPC   GL220858  22.027   2.573   9.141
 1378POPC   C1A20859  22.170   2.917   8.774
 1378POPC   D2A20860  21.904   2.971   8.438
 1378POPC   C3A20861  22.113   2.976   8.066
 1378POPC   C4A20862  22.281   2.848   7.678
 1378POPC   C1B20863  21.946   2.457   8.725
 1378POPC   C2B20864  22.204   2.460   8.385
 1378POPC   C3B20865  22.095   2.459   7.982
 1378POPC   C4B20866  21.803   2.688   7.765
 1379POPC   NC320867  24.028  39.695   9.469
 1379POPC   PO420868  24.118  38.983   9.470
 1379POPC   GL120869  23.826  39.150   9.129
 1379POPC   GL220870  23.698  39.479   9.135
 1379POPC   C1A20871  23.601  39.194   8.706
 1379POPC   D2A20872  23.479  39.083   8.292
 1379POPC   C3A20873  23.754  39.317   8.080
 1379POPC   C4A20874  23.618  39.342   7.700
 1379POPC   C1B20875  23.368  39.644   8.864
 1379POPC   C2B20876  23.196  39.468   8.487
 1379POPC   C3B20877  23.310  39.565   8.050
 1379POPC   C4B20878  23.314  39.756   7.651
 1380POPC   NC320879  18.280   3.090   9.282
 1380POPC   PO420880  18.159   2.433   9.436
 1380POPC   GL120881  18.442   2.634   9.132
 1380POPC   GL220882  18.167   2.678   8.945
 1380POPC   C1A20883  18.601   2.730   8.683
 1380POPC   D2A20884  18.261   2.581   8.421
 1380POPC   C3A20885  18.255   2.614   7.979
 1380POPC   C4A20886  17.882   2.497   7.788
 1380POPC   C1B20887  18.189   3.028   8.664
 1380POPC   C2B20888  18.475   3.123   8.349
 1380POPC   C3B20889  18.360   3.119   7.921
 1380POPC   C4B20890  18.216   2.909   7.546
 1381POPC   NC320891   2.261  28.375   9.243
 1381POPC   PO420892   1.643  28.050   9.396
 1381POPC   GL120893   1.638  28.321   9.015
 1381POPC   GL220894   1.854  28.568   9.028
 1381POPC   C1A20895   1.790  28.452   8.556
 1381POPC   D2A20896   2.212  28.369   8.370
 1381POPC   C3A20897   2.189  28.230   7.951
 1381POPC   C4A20898   1.973  28.203   7.597
 1381POPC   C1B20899   2.208  28.733   8.718
 1381POPC   C2B20900   2.105  28.882   8.343
 1381POPC   C3B20901   2.199  28.731   7.961
 1381POPC   C4B20902   1.835  28.691   7.689
 1382POPC   NC320903  16.090   2.446   9.443
 1382POPC   PO420904  15.876   3.060   9.544
 1382POPC   GL120905  15.956   2.886   9.166
 1382POPC   GL220906  15.763   2.598   9.105
 1382POPC   C1A20907  15.909   2.972   8.742
 1382POPC   D2A20908  16.091   2.841   8.359
 1382POPC   C3A20909  15.857   3.005   8.007
 1382POPC   C4A20910  15.999   3.196   7.648
 1382POPC   C1B20911  16.006   2.478   8.768
 1382POPC   C2B20912  15.787   2.398   8.397
 1382POPC   C3B20913  15.940   2.486   8.016
 1382POPC   C4B20914  16.164   2.720   7.734
 1383POPC   NC320915  27.945  12.936   9.399
 1383POPC   PO420916  27.388  12.680   9.557
 1383POPC   GL120917  27.522  12.770   9.147
 1383POPC   GL220918  27.783  12.548   9.113
 1383POPC   C1A20919  27.477  12.700   8.706
 1383POPC   D2A20920  27.274  12.680   8.308
 1383POPC   C3A20921  27.468  12.656   7.881
 1383POPC   C4A20922  27.495  12.692   7.391
 1383POPC   C1B20923  27.978  12.705   8.754
 1383POPC   C2B20924  27.881  12.857   8.368
 1383POPC   C3B20925  27.966  12.684   7.995
 1383POPC   C4B20926  27.868  12.930   7.649
 1384POPC   NC320927  25.475   2.406   9.550
 1384POPC   PO420928  25.082   1.896   9.622
 1384POPC   GL120929  25.018   1.976   9.170
 1384POPC   GL220930  25.121   2.302   9.127
 1384POPC   C1A20931  25.105   1.913   8.710
 1384POPC   D2A20932  25.181   2.132   8.292
 1384POPC   C3A20933  25.093   1.925   7.904
 1384POPC   C4A20934  25.497   1.804   7.678
 1384POPC   C1B20935  25.415   2.324   8.751
 1384POPC   C2B20936  25.601   2.425   8.302
 1384POPC   C3B20937  25.697   2.336   7.837
 1384POPC   C4B20938  25.600   2.281   7.379
 1385POPC   NC320939  13.323  34.616   9.311
 1385POPC   PO420940  12.783  34.791   9.548
 1385POPC   GL120941  12.842  34.616   9.100
 1385POPC   GL220942  13.097  34.386   8.936
 1385POPC   C1A20943  12.882  34.725   8.650
 1385POPC   D2A20944  13.006  34.562   8.279
 1385POPC   C3A20945  12.726  34.667   7.967
 1385POPC   C4A20946  12.794  34.757   7.553
 1385POPC   C1B20947  12.802  34.221   8.664
 1385POPC   C2B20948  13.020  34.042   8.366
 1385POPC   C3B20949  13.126  34.163   7.964
 1385POPC   C4B20950  12.829  34.258   7.685
 1386POPC   NC320951   5.410  32.842   9.625
 1386POPC   PO420952   4.836  33.223   9.491
 1386POPC   GL120953   4.853  33.128   9.120
 1386POPC   GL220954   5.143  32.905   9.171
 1386POPC   C1A20955   5.029  33.209   8.742
 1386POPC   D2A20956   5.180  32.988   8.390
 1386POPC   C3A20957   5.007  33.123   8.006
 1386POPC   C4A20958   5.264  33.179   7.604
 1386POPC   C1B20959   4.885  32.706   8.848
 1386POPC   C2B20960   4.793  32.608   8.440
 1386POPC   C3B20961   5.020  32.609   8.043
 1386POPC   C4B20962   4.872  32.814   7.635
 1387POPC   NC320963  37.273  31.260   9.360
 1387POPC   PO420964  36.841  31.767   9.453
 1387POPC   GL120965  36.833  31.443   9.133
 1387POPC   GL220966  37.099  31.411   8.910
 1387POPC   C1A20967  36.590  31.516   8.779
 1387POPC   D2A20968  36.850  31.515   8.418
 1387POPC   C3A20969  36.671  31.378   8.039
 1387POPC   C4A20970  36.569  31.161   7.674
 1387POPC   C1B20971  37.367  31.717   8.754
 1387POPC   C2B20972  37.293  31.933   8.369
 1387POPC   C3B20973  37.174  31.661   8.032
 1387POPC   C4B20974  37.053  31.349   7.722
 1388POPC   NC320975  20.912  33.123   9.465
 1388POPC   PO420976  20.422  32.719   9.543
 1388POPC   GL120977  20.522  32.890   9.157
 1388POPC   GL220978  20.796  32.688   9.130
 1388POPC   C1A20979  20.671  33.043   8.728
 1388POPC   D2A20980  20.519  33.177   8.296
 1388POPC   C3A20981  20.835  33.211   7.964
 1388POPC   C4A20982  21.141  33.212   7.589
 1388POPC   C1B20983  20.545  32.534   8.775
 1388POPC   C2B20984  20.384  32.662   8.349
 1388POPC   C3B20985  20.493  32.823   7.914
 1388POPC   C4B20986  20.390  33.141   7.584
 1389POPC   NC320987  30.358  40.863   9.398
 1389POPC   PO420988  30.954  40.574   9.412
 1389POPC   GL120989  30.755  40.753   9.057
 1389POPC   GL220990  30.423  40.630   8.953
 1389POPC   C1A20991  30.788  40.856   8.628
 1389POPC   D2A20992  30.756  40.676   8.225
 1389POPC   C3A20993  30.926  40.830   7.847
 1389POPC   C4A20994  30.680  40.881   7.481
 1389POPC   C1B20995  30.362  40.396   8.573
 1389POPC   C2B20996  30.411  40.296   8.134
 1389POPC   C3B20997  30.384  40.646   7.847
 1389POPC   C4B20998  30.186  40.915   7.540
 1390POPC   NC320999   7.755  30.827   9.407
 1390POPC   PO421000   7.095  30.770   9.483
 1390POPC   GL121001   7.315  30.746   9.119
 1390POPC   GL221002   7.498  31.030   9.042
 1390POPC   C1A21003   7.481  30.613   8.715
 1390POPC   D2A21004   7.338  30.822   8.389
 1390POPC   C3A21005   7.202  30.806   7.967
 1390POPC   C4A21006   7.309  30.769   7.531
 1390POPC   C1B21007   7.848  30.936   8.781
 1390POPC   C2B21008   7.809  30.998   8.364
 1390POPC   C3B21009   7.749  30.823   7.951
 1390POPC   C4B21010   7.904  31.049   7.564
 1391POPC   NC321011   5.912   9.262   9.392
 1391POPC   PO421012   6.075   8.607   9.551
 1391POPC   GL121013   5.962   8.811   9.172
 1391POPC   GL221014   6.216   9.006   9.066
 1391POPC   C1A21015   5.799   9.010   8.769
 1391POPC   D2A21016   5.872   9.161   8.350
 1391POPC   C3A21017   5.823   8.923   7.970
 1391POPC   C4A21018   5.787   8.985   7.529
 1391POPC   C1B21019   6.282   8.677   8.778
 1391POPC   C2B21020   6.442   8.736   8.394
 1391POPC   C3B21021   6.309   8.948   8.082
 1391POPC   C4B21022   6.248   8.813   7.670
 1392POPC   NC321023  11.786  42.658   9.362
 1392POPC   PO421024  12.300  42.302   9.480
 1392POPC   GL121025  12.146  42.344   9.099
 1392POPC   GL221026  12.261  42.685   9.121
 1392POPC   C1A21027  11.923  42.157   8.739
 1392POPC   D2A21028  11.747  42.122   8.329
 1392POPC   C3A21029  11.995  42.151   7.936
 1392POPC   C4A21030  11.817  42.053   7.510
 1392POPC   C1B21031  12.056  42.657   8.719
 1392POPC   C2B21032  12.158  42.451   8.353
 1392POPC   C3B21033  12.232  42.623   7.970
 1392POPC   C4B21034  11.872  42.711   7.725
 1393POPC   NC321035  27.690   4.215   9.585
 1393POPC   PO421036  27.779   4.736   9.278
 1393POPC   GL121037  27.418   4.604   9.063
 1393POPC   GL221038  27.355   4.235   9.128
 1393POPC   C1A21039  27.583   4.472   8.662
 1393POPC   D2A21040  27.934   4.361   8.402
 1393POPC   C3A21041  27.720   4.280   8.017
 1393POPC   C4A21042  27.624   4.489   7.642
 1393POPC   C1B21043  27.327   4.037   8.705
 1393POPC   C2B21044  27.233   4.164   8.245
 1393POPC   C3B21045  27.275   4.037   7.770
 1393POPC   C4B21046  27.476   3.938   7.317
 1394POPC   NC321047   1.660  10.428   9.516
 1394POPC   PO421048   2.133  10.893   9.521
 1394POPC   GL121049   2.091  10.539   9.220
 1394POPC   GL221050   1.820  10.289   9.058
 1394POPC   C1A21051   2.074  10.683   8.814
 1394POPC   D2A21052   2.289  10.605   8.447
 1394POPC   C3A21053   2.113  10.724   8.051
 1394POPC   C4A21054   1.921  10.557   7.662
 1394POPC   C1B21055   2.154  10.116   8.842
 1394POPC   C2B21056   2.277  10.093   8.462
 1394POPC   C3B21057   2.011  10.152   8.127
 1394POPC   C4B21058   2.032  10.038   7.730
 1395POPC   NC321059  23.209  35.207   9.533
 1395POPC   PO421060  23.876  35.265   9.591
 1395POPC   GL121061  23.977  35.380   9.189
 1395POPC   GL221062  23.599  35.374   9.149
 1395POPC   C1A21063  23.930  35.473   8.749
 1395POPC   D2A21064  23.680  35.405   8.415
 1395POPC   C3A21065  23.852  35.385   8.056
 1395POPC   C4A21066  23.780  35.198   7.698
 1395POPC   C1B21067  23.422  35.593   8.814
 1395POPC   C2B21068  23.234  35.648   8.395
 1395POPC   C3B21069  23.413  35.627   7.976
 1395POPC   C4B21070  23.528  35.611   7.523
 1396POPC   NC321071  28.041   6.056   9.653
 1396POPC   PO421072  28.460   5.525   9.593
 1396POPC   GL121073  28.375   5.693   9.147
 1396POPC   GL221074  28.239   6.055   9.125
 1396POPC   C1A21075  28.559   5.686   8.713
 1396POPC   D2A21076  28.817   5.579   8.375
 1396POPC   C3A21077  28.574   5.570   7.972
 1396POPC   C4A21078  28.662   5.876   7.672
 1396POPC   C1B21079  28.098   5.856   8.722
 1396POPC   C2B21080  28.192   5.719   8.310
 1396POPC   C3B21081  28.258   6.009   7.974
 1396POPC   C4B21082  28.075   6.292   7.673
 1397POPC   NC321083  31.727   1.425   9.492
 1397POPC   PO421084  31.272   0.870   9.560
 1397POPC   GL121085  31.432   1.107   9.204
 1397POPC   GL221086  31.780   1.051   9.116
 1397POPC   C1A21087  31.373   1.326   8.828
 1397POPC   D2A21088  31.196   1.385   8.439
 1397POPC   C3A21089  31.377   1.208   8.076
 1397POPC   C4A21090  31.388   1.009   7.679
 1397POPC   C1B21091  31.882   1.425   8.860
 1397POPC   C2B21092  31.746   1.536   8.453
 1397POPC   C3B21093  31.879   1.317   8.087
 1397POPC   C4B21094  31.687   1.428   7.709
 1398POPC   NC321095   0.850  17.369   9.431
 1398POPC   PO421096   0.167  17.579   9.449
 1398POPC   GL121097   0.402  17.343   9.182
 1398POPC   GL221098   0.330  17.028   9.301
 1398POPC   C1A21099   0.640  17.390   8.807
 1398POPC   D2A21100   0.593  17.664   8.464
 1398POPC   C3A21101   0.722  17.650   8.056
 1398POPC   C4A21102   0.385  17.828   7.821
 1398POPC   C1B21103   0.231  17.007   8.840
 1398POPC   C2B21104   0.291  17.210   8.452
 1398POPC   C3B21105   0.275  17.363   8.043
 1398POPC   C4B21106   0.545  17.332   7.691
 1399POPC   NC321107  26.848   6.887   9.519
 1399POPC   PO421108  27.002   6.261   9.451
 1399POPC   GL121109  27.056   6.623   9.147
 1399POPC   GL221110  26.745   6.744   9.035
 1399POPC   C1A21111  27.157   6.891   8.758
 1399POPC   D2A21112  27.237   7.130   8.353
 1399POPC   C3A21113  27.000   7.001   7.989
 1399POPC   C4A21114  26.831   6.645   7.791
 1399POPC   C1B21115  26.844   6.482   8.680
 1399POPC   C2B21116  26.711   6.491   8.261
 1399POPC   C3B21117  26.360   6.574   7.976
 1399POPC   C4B21118  26.362   6.486   7.522
 1400POPC   NC321119   7.234   8.598   9.280
 1400POPC   PO421120   7.584   9.277   9.441
 1400POPC   GL121121   7.514   9.020   9.119
 1400POPC   GL221122   7.225   9.137   9.047
 1400POPC   C1A21123   7.525   8.876   8.687
 1400POPC   D2A21124   7.516   8.717   8.280
 1400POPC   C3A21125   7.547   8.976   7.905
 1400POPC   C4A21126   7.548   8.945   7.456
 1400POPC   C1B21127   7.071   9.107   8.665
 1400POPC   C2B21128   7.201   9.139   8.248
 1400POPC   C3B21129   7.076   9.210   7.822
 1400POPC   C4B21130   7.105   9.270   7.358
 1401POPC   NC321131   1.499  35.544   9.466
 1401POPC   PO421132   1.091  34.986   9.465
 1401POPC   GL121133   1.168  35.288   9.155
 1401POPC   GL221134   1.486  35.166   9.111
 1401POPC   C1A21135   1.198  35.496   8.758
 1401POPC   D2A21136   1.107  35.247   8.392
 1401POPC   C3A21137   1.191  35.359   8.011
 1401POPC   C4A21138   0.912  35.477   7.739
 1401POPC   C1B21139   1.437  35.046   8.720
 1401POPC   C2B21140   1.586  35.161   8.325
 1401POPC   C3B21141   1.580  35.059   7.895
 1401POPC   C4B21142   1.638  35.115   7.456
 1402POPC   NC321143  27.888  39.311   9.390
 1402POPC   PO421144  27.327  38.982   9.562
 1402POPC   GL121145  27.482  39.062   9.172
 1402POPC   GL221146  27.446  39.422   9.107
 1402POPC   C1A21147  27.630  39.109   8.757
 1402POPC   D2A21148  27.486  39.207   8.360
 1402POPC   C3A21149  27.294  38.864   8.120
 1402POPC   C4A21150  27.271  38.850   7.655
 1402POPC   C1B21151  27.461  39.677   8.725
 1402POPC   C2B21152  27.742  39.800   8.379
 1402POPC   C3B21153  27.680  39.539   8.025
 1402POPC   C4B21154  27.673  39.123   7.841
 1403POPC   NC321155  42.574  22.583   9.512
 1403POPC   PO421156  42.263  23.261   9.526
 1403POPC   GL121157  42.188  22.954   9.169
 1403POPC   GL221158  42.464  22.809   9.093
 1403POPC   C1A21159  42.142  22.743   8.733
 1403POPC   D2A21160  42.369  22.736   8.335
 1403POPC   C3A21161  42.375  22.970   7.933
 1403POPC   C4A21162  42.002  22.923   7.725
 1403POPC   C1B21163  42.697  22.607   8.800
 1403POPC   C2B21164  42.861  22.624   8.385
 1403POPC   C3B21165  42.723  22.599   7.980
 1403POPC   C4B21166  42.581  22.586   7.561
 1404POPC   NC321167  19.444   1.843   9.287
 1404POPC   PO421168  20.053   1.810   9.596
 1404POPC   GL121169  19.987   1.801   9.156
 1404POPC   GL221170  19.980   2.175   9.153
 1404POPC   C1A21171  19.772   1.734   8.741
 1404POPC   D2A21172  19.496   1.858   8.394
 1404POPC   C3A21173  19.666   2.069   8.044
 1404POPC   C4A21174  19.643   1.923   7.639
 1404POPC   C1B21175  20.191   2.094   8.762
 1404POPC   C2B21176  20.051   1.989   8.371
 1404POPC   C3B21177  20.168   1.917   7.953
 1404POPC   C4B21178  20.133   1.934   7.517
 1405POPC   NC321179   4.988  27.896   9.443
 1405POPC   PO421180   4.657  27.344   9.575
 1405POPC   GL121181   4.938  27.471   9.166
 1405POPC   GL221182   5.302  27.604   9.126
 1405POPC   C1A21183   4.960  27.752   8.767
 1405POPC   D2A21184   5.215  27.821   8.363
 1405POPC   C3A21185   4.996  27.761   7.981
 1405POPC   C4A21186   4.662  27.802   7.672
 1405POPC   C1B21187   5.361  27.424   8.718
 1405POPC   C2B21188   5.484  27.279   8.318
 1405POPC   C3B21189   5.420  27.471   7.932
 1405POPC   C4B21190   5.455  27.867   7.741
 1406POPC   NC321191  21.352  37.347   9.618
 1406POPC   PO421192  21.748  36.835   9.582
 1406POPC   GL121193  21.520  36.994   9.251
 1406POPC   GL221194  21.818  37.005   9.044
 1406POPC   C1A21195  21.311  37.051   8.860
 1406POPC   D2A21196  21.269  37.176   8.452
 1406POPC   C3A21197  21.302  36.996   8.061
 1406POPC   C4A21198  21.630  37.060   7.749
 1406POPC   C1B21199  21.573  36.626   8.866
 1406POPC   C2B21200  21.340  36.652   8.486
 1406POPC   C3B21201  21.416  36.501   8.086
 1406POPC   C4B21202  21.362  36.643   7.696
 1407POPC   NC321203   6.399   8.927   9.561
 1407POPC   PO421204   7.101   8.980   9.508
 1407POPC   GL121205   6.740   9.011   9.173
 1407POPC   GL221206   6.591   8.662   9.182
 1407POPC   C1A21207   6.554   9.136   8.716
 1407POPC   D2A21208   6.711   9.188   8.300
 1407POPC   C3A21209   6.583   9.309   7.870
 1407POPC   C4A21210   6.688   9.020   7.518
 1407POPC   C1B21211   6.796   8.694   8.786
 1407POPC   C2B21212   6.983   8.681   8.377
 1407POPC   C3B21213   6.795   8.775   8.002
 1407POPC   C4B21214   6.665   8.511   7.689
 1408POPC   NC321215  27.974  20.341   9.495
 1408POPC   PO421216  28.466  19.819   9.519
 1408POPC   GL121217  28.485  19.871   9.119
 1408POPC   GL221218  28.126  19.972   9.154
 1408POPC   C1A21219  28.649  19.724   8.724
 1408POPC   D2A21220  28.636  19.477   8.341
 1408POPC   C3A21221  28.714  19.707   7.987
 1408POPC   C4A21222  28.524  19.799   7.624
 1408POPC   C1B21223  28.228  20.132   8.769
 1408POPC   C2B21224  28.256  19.923   8.411
 1408POPC   C3B21225  28.296  20.027   8.019
 1408POPC   C4B21226  28.203  20.226   7.650
 1409POPC   NC321227   7.894  32.613   9.303
 1409POPC   PO421228   8.336  32.068   9.421
 1409POPC   GL121229   8.383  32.220   9.063
 1409POPC   GL221230   8.035  32.221   9.029
 1409POPC   C1A21231   8.318  32.105   8.645
 1409POPC   D2A21232   8.137  32.315   8.318
 1409POPC   C3A21233   8.179  32.026   8.043
 1409POPC   C4A21234   8.371  31.961   7.683
 1409POPC   C1B21235   7.779  32.390   8.706
 1409POPC   C2B21236   7.599  32.431   8.342
 1409POPC   C3B21237   7.769  32.320   7.962
 1409POPC   C4B21238   7.836  32.542   7.596
 1410POPC   NC321239  23.588  23.902   9.616
 1410POPC   PO421240  23.611  24.555   9.786
 1410POPC   GL121241  23.586  24.530   9.318
 1410POPC   GL221242  23.438  24.308   9.269
 1410POPC   C1A21243  23.632  24.752   8.905
 1410POPC   D2A21244  23.786  24.877   8.497
 1410POPC   C3A21245  23.616  24.795   8.070
 1410POPC   C4A21246  23.961  24.774   7.774
 1410POPC   C1B21247  23.429  24.295   8.801
 1410POPC   C2B21248  23.458  24.383   8.344
 1410POPC   C3B21249  23.499  24.234   7.890
 1410POPC   C4B21250  23.604  24.188   7.410
 1411POPC   NC321251  32.825  41.530   9.662
 1411POPC   PO421252  33.293  41.116   9.415
 1411POPC   GL121253  33.017  41.284   9.113
 1411POPC   GL221254  32.961  41.616   9.126
 1411POPC   C1A21255  32.820  41.239   8.716
 1411POPC   D2A21256  32.920  41.461   8.318
 1411POPC   C3A21257  32.971  41.431   7.860
 1411POPC   C4A21258  32.745  41.693   7.539
 1411POPC   C1B21259  33.231  41.554   8.766
 1411POPC   C2B21260  33.422  41.437   8.415
 1411POPC   C3B21261  33.446  41.624   8.020
 1411POPC   C4B21262  33.495  41.375   7.644
 1412POPC   NC321263   9.064  16.448   9.568
 1412POPC   PO421264   8.883  15.779   9.702
 1412POPC   GL121265   9.106  15.971   9.346
 1412POPC   GL221266   8.799  16.030   9.206
 1412POPC   C1A21267   9.198  16.186   8.924
 1412POPC   D2A21268   9.202  16.000   8.512
 1412POPC   C3A21269   9.053  16.211   8.189
 1412POPC   C4A21270   9.008  16.102   7.784
 1412POPC   C1B21271   8.582  15.765   8.870
 1412POPC   C2B21272   8.665  15.921   8.452
 1412POPC   C3B21273   8.582  15.903   8.022
 1412POPC   C4B21274   8.719  15.663   7.658
 1413POPC   NC321275   2.322  20.846   9.219
 1413POPC   PO421276   2.865  20.770   9.638
 1413POPC   GL121277   2.793  20.602   9.197
 1413POPC   GL221278   2.977  20.334   9.086
 1413POPC   C1A21279   2.679  20.579   8.737
 1413POPC   D2A21280   2.395  20.721   8.408
 1413POPC   C3A21281   2.583  20.610   8.028
 1413POPC   C4A21282   2.652  20.530   7.631
 1413POPC   C1B21283   3.167  20.318   8.700
 1413POPC   C2B21284   3.008  20.497   8.331
 1413POPC   C3B21285   3.053  20.341   7.918
 1413POPC   C4B21286   3.148  20.510   7.528
 1414POPC   NC321287  38.836  41.605   9.426
 1414POPC   PO421288  39.480  41.378   9.512
 1414POPC   GL121289  39.297  41.498   9.165
 1414POPC   GL221290  39.192  41.151   9.087
 1414POPC   C1A21291  39.215  41.745   8.787
 1414POPC   D2A21292  39.419  41.754   8.354
 1414POPC   C3A21293  39.094  41.715   7.998
 1414POPC   C4A21294  38.794  41.665   7.632
 1414POPC   C1B21295  39.349  41.253   8.663
 1414POPC   C2B21296  39.290  41.263   8.192
 1414POPC   C3B21297  39.408  41.345   7.760
 1414POPC   C4B21298  39.512  41.298   7.289
 1415POPC   NC321299   2.143   5.915   9.554
 1415POPC   PO421300   1.564   6.184   9.456
 1415POPC   GL121301   1.865   6.054   9.142
 1415POPC   GL221302   1.798   5.717   9.162
 1415POPC   C1A21303   2.036   5.964   8.731
 1415POPC   D2A21304   2.049   5.833   8.302
 1415POPC   C3A21305   2.177   6.134   7.984
 1415POPC   C4A21306   2.458   6.118   7.654
 1415POPC   C1B21307   1.554   5.828   8.768
 1415POPC   C2B21308   1.551   5.977   8.327
 1415POPC   C3B21309   1.722   5.888   7.922
 1415POPC   C4B21310   1.878   5.502   7.831
 1416POPC   NC321311  16.347  23.509   9.405
 1416POPC   PO421312  15.672  23.351   9.535
 1416POPC   GL121313  15.712  23.749   9.259
 1416POPC   GL221314  15.912  23.534   9.073
 1416POPC   C1A21315  15.728  23.926   8.807
 1416POPC   D2A21316  15.793  23.711   8.401
 1416POPC   C3A21317  15.859  23.912   8.009
 1416POPC   C4A21318  16.001  23.837   7.571
 1416POPC   C1B21319  16.111  23.343   8.729
 1416POPC   C2B21320  16.262  23.362   8.318
 1416POPC   C3B21321  16.041  23.438   7.947
 1416POPC   C4B21322  16.104  23.312   7.537
 1417POPC   NC321323  27.441  27.032   9.459
 1417POPC   PO421324  27.897  27.588   9.533
 1417POPC   GL121325  27.712  27.461   9.164
 1417POPC   GL221326  27.977  27.337   8.997
 1417POPC   C1A21327  27.526  27.541   8.743
 1417POPC   D2A21328  27.385  27.387   8.340
 1417POPC   C3A21329  27.455  27.584   7.906
 1417POPC   C4A21330  27.286  27.917   7.625
 1417POPC   C1B21331  28.025  27.698   8.724
 1417POPC   C2B21332  27.859  27.639   8.327
 1417POPC   C3B21333  27.845  27.289   8.081
 1417POPC   C4B21334  27.920  27.366   7.661
 1418POPC   NC321335  32.715  18.768   9.439
 1418POPC   PO421336  33.062  18.099   9.558
 1418POPC   GL121337  32.946  18.359   9.192
 1418POPC   GL221338  33.232  18.517   8.998
 1418POPC   C1A21339  32.821  18.226   8.777
 1418POPC   D2A21340  33.048  18.255   8.393
 1418POPC   C3A21341  32.881  18.006   8.078
 1418POPC   C4A21342  32.865  18.035   7.649
 1418POPC   C1B21343  32.884  18.737   8.754
 1418POPC   C2B21344  32.665  18.625   8.352
 1418POPC   C3B21345  32.698  18.473   7.916
 1418POPC   C4B21346  33.072  18.526   7.655
 1419POPC   NC321347  28.984  10.646   9.460
 1419POPC   PO421348  29.225  10.010   9.361
 1419POPC   GL121349  29.312  10.383   9.112
 1419POPC   GL221350  28.998  10.320   9.027
 1419POPC   C1A21351  29.197  10.705   8.733
 1419POPC   D2A21352  29.200  10.911   8.284
 1419POPC   C3A21353  29.320  10.734   7.830
 1419POPC   C4A21354  29.401  10.943   7.376
 1419POPC   C1B21355  29.145  10.211   8.639
 1419POPC   C2B21356  28.920  10.424   8.325
 1419POPC   C3B21357  28.927  10.453   7.916
 1419POPC   C4B21358  29.165  10.226   7.619
 1420POPC   NC321359   3.472  28.917   9.282
 1420POPC   PO421360   3.292  29.476   9.355
 1420POPC   GL121361   3.632  29.349   9.046
 1420POPC   GL221362   3.930  29.076   9.082
 1420POPC   C1A21363   3.406  29.210   8.694
 1420POPC   D2A21364   3.169  28.902   8.483
 1420POPC   C3A21365   3.105  29.184   8.174
 1420POPC   C4A21366   3.445  29.308   7.903
 1420POPC   C1B21367   3.832  28.940   8.694
 1420POPC   C2B21368   3.747  29.136   8.292
 1420POPC   C3B21369   3.888  28.975   7.900
 1420POPC   C4B21370   3.834  28.545   7.764
 1421POPC   NC321371  24.931  14.375   9.644
 1421POPC   PO421372  24.372  14.410   9.637
 1421POPC   GL121373  24.432  14.351   9.184
 1421POPC   GL221374  24.767  14.213   9.188
 1421POPC   C1A21375  24.648  14.528   8.786
 1421POPC   D2A21376  24.843  14.607   8.357
 1421POPC   C3A21377  24.494  14.542   8.049
 1421POPC   C4A21378  24.318  14.839   7.786
 1421POPC   C1B21379  24.560  14.019   8.816
 1421POPC   C2B21380  24.617  14.156   8.393
 1421POPC   C3B21381  24.677  14.071   7.952
 1421POPC   C4B21382  24.249  14.071   7.721
 1422POPC   NC321383  33.933  39.496   9.489
 1422POPC   PO421384  33.786  38.772   9.477
 1422POPC   GL121385  33.752  39.017   9.091
 1422POPC   GL221386  33.568  39.328   9.109
 1422POPC   C1A21387  33.786  39.201   8.674
 1422POPC   D2A21388  33.925  39.470   8.353
 1422POPC   C3A21389  33.989  39.175   8.003
 1422POPC   C4A21390  33.733  39.079   7.631
 1422POPC   C1B21391  33.308  39.366   8.776
 1422POPC   C2B21392  33.368  39.463   8.392
 1422POPC   C3B21393  33.525  39.358   8.026
 1422POPC   C4B21394  33.647  39.601   7.695
 1423POPC   NC321395  20.233  10.498   9.446
 1423POPC   PO421396  20.875  10.515   9.498
 1423POPC   GL121397  20.610  10.732   9.130
 1423POPC   GL221398  20.352  10.555   8.960
 1423POPC   C1A21399  20.622  10.875   8.678
 1423POPC   D2A21400  20.737  10.595   8.323
 1423POPC   C3A21401  20.755  10.687   7.883
 1423POPC   C4A21402  20.936  10.784   7.474
 1423POPC   C1B21403  20.143  10.351   8.615
 1423POPC   C2B21404  20.289  10.364   8.217
 1423POPC   C3B21405  20.293  10.470   7.828
 1423POPC   C4B21406  20.029  10.350   7.482
 1424POPC   NC321407  37.691  38.805   9.529
 1424POPC   PO421408  37.358  38.262   9.603
 1424POPC   GL121409  37.719  38.281   9.350
 1424POPC   GL221410  37.612  38.534   9.121
 1424POPC   C1A21411  37.800  38.124   8.915
 1424POPC   D2A21412  37.621  38.307   8.529
 1424POPC   C3A21413  37.808  38.089   8.145
 1424POPC   C4A21414  38.081  37.942   7.808
 1424POPC   C1B21415  37.515  38.818   8.808
 1424POPC   C2B21416  37.330  38.739   8.416
 1424POPC   C3B21417  37.560  38.550   8.088
 1424POPC   C4B21418  37.989  38.528   7.905
 1425POPC   NC321419  38.878  28.811   9.543
 1425POPC   PO421420  38.549  29.444   9.529
 1425POPC   GL121421  38.440  29.164   9.162
 1425POPC   GL221422  38.668  28.895   9.093
 1425POPC   C1A21423  38.503  29.210   8.710
 1425POPC   D2A21424  38.453  29.573   8.475
 1425POPC   C3A21425  38.486  29.512   8.077
 1425POPC   C4A21426  38.317  29.434   7.693
 1425POPC   C1B21427  38.345  28.727   8.850
 1425POPC   C2B21428  38.208  28.834   8.473
 1425POPC   C3B21429  38.363  29.029   8.136
 1425POPC   C4B21430  38.432  28.884   7.734
 1426POPC   NC321431  42.499  13.095   9.184
 1426POPC   PO421432  42.112  12.732   9.574
 1426POPC   GL121433  42.255  12.657   9.147
 1426POPC   GL221434  42.624  12.573   9.064
 1426POPC   C1A21435  42.196  12.755   8.718
 1426POPC   D2A21436  42.051  12.542   8.391
 1426POPC   C3A21437  42.338  12.532   8.087
 1426POPC   C4A21438  42.066  12.727   7.800
 1426POPC   C1B21439  42.713  12.685   8.661
 1426POPC   C2B21440  42.571  13.068   8.501
 1426POPC   C3B21441  42.345  13.075   8.128
 1426POPC   C4B21442  42.527  12.921   7.753
 1427POPC   NC321443  39.209  37.636   9.506
 1427POPC   PO421444  38.760  37.996   9.573
 1427POPC   GL121445  38.869  37.737   9.148
 1427POPC   GL221446  39.206  37.798   9.037
 1427POPC   C1A21447  38.972  37.492   8.714
 1427POPC   D2A21448  38.851  37.467   8.260
 1427POPC   C3A21449  39.062  37.636   7.889
 1427POPC   C4A21450  39.036  37.703   7.469
 1427POPC   C1B21451  39.491  37.609   8.783
 1427POPC   C2B21452  39.431  37.465   8.376
 1427POPC   C3B21453  39.510  37.713   8.070
 1427POPC   C4B21454  39.544  37.712   7.642
 1428POPC   NC321455   0.746  28.273   9.535
 1428POPC   PO421456   0.378  28.822   9.566
 1428POPC   GL121457   0.428  28.613   9.164
 1428POPC   GL221458   0.499  28.236   9.088
 1428POPC   C1A21459   0.614  28.625   8.761
 1428POPC   D2A21460   0.363  28.636   8.402
 1428POPC   C3A21461   0.515  28.489   8.015
 1428POPC   C4A21462   0.557  28.664   7.620
 1428POPC   C1B21463   0.218  28.252   8.732
 1428POPC   C2B21464  44.988  28.323   8.366
 1428POPC   C3B21465   0.074  28.190   7.952
 1428POPC   C4B21466   0.208  28.307   7.566
 1429POPC   NC321467  38.095  41.318   9.433
 1429POPC   PO421468  38.476  41.860   9.545
 1429POPC   GL121469  38.381  41.634   9.168
 1429POPC   GL221470  38.129  41.823   9.091
 1429POPC   C1A21471  38.556  41.426   8.779
 1429POPC   D2A21472  38.543  41.188   8.386
 1429POPC   C3A21473  38.596  41.469   8.064
 1429POPC   C4A21474  38.301  41.585   7.744
 1429POPC   C1B21475  38.522  41.966   8.839
 1429POPC   C2B21476  38.662  41.880   8.427
 1429POPC   C3B21477  38.396  41.950   8.084
 1429POPC   C4B21478  38.510  42.088   7.713
 1430POPC   NC321479  28.026  19.559   9.512
 1430POPC   PO421480  28.255  18.843   9.460
 1430POPC   GL121481  28.392  19.043   9.109
 1430POPC   GL221482  28.392  19.376   9.182
 1430POPC   C1A21483  28.478  19.137   8.695
 1430POPC   D2A21484  28.317  19.016   8.292
 1430POPC   C3A21485  28.466  18.718   8.015
 1430POPC   C4A21486  28.185  18.841   7.733
 1430POPC   C1B21487  28.154  19.568   8.847
 1430POPC   C2B21488  28.115  19.445   8.443
 1430POPC   C3B21489  28.239  19.493   8.009
 1430POPC   C4B21490  28.562  19.204   7.849
 1431POPC   NC321491  24.020   6.945   9.373
 1431POPC   PO421492  24.709   6.712   9.437
 1431POPC   GL121493  24.670   6.777   9.028
 1431POPC   GL221494  24.454   7.034   9.110
 1431POPC   C1A21495  24.609   6.499   8.687
 1431POPC   D2A21496  24.411   6.368   8.329
 1431POPC   C3A21497  24.593   6.517   7.969
 1431POPC   C4A21498  24.400   6.555   7.567
 1431POPC   C1B21499  24.273   6.876   8.722
 1431POPC   C2B21500  24.478   6.877   8.333
 1431POPC   C3B21501  24.221   6.871   7.962
 1431POPC   C4B21502  24.331   7.041   7.555
 1432POPC   NC321503  13.204  17.713   9.498
 1432POPC   PO421504  13.746  17.398   9.660
 1432POPC   GL121505  13.636  17.571   9.259
 1432POPC   GL221506  13.707  17.279   9.109
 1432POPC   C1A21507  13.587  17.640   8.792
 1432POPC   D2A21508  13.604  17.448   8.343
 1432POPC   C3A21509  13.530  17.603   7.907
 1432POPC   C4A21510  13.712  17.816   7.566
 1432POPC   C1B21511  13.897  17.233   8.713
 1432POPC   C2B21512  13.819  16.976   8.354
 1432POPC   C3B21513  13.765  17.143   7.920
 1432POPC   C4B21514  13.845  17.311   7.505
 1433POPC   NC321515  28.548  38.571   9.523
 1433POPC   PO421516  27.998  38.226   9.463
 1433POPC   GL121517  28.331  38.257   9.143
 1433POPC   GL221518  28.340  38.600   9.078
 1433POPC   C1A21519  28.282  38.312   8.682
 1433POPC   D2A21520  27.981  38.322   8.378
 1433POPC   C3A21521  28.233  38.457   8.049
 1433POPC   C4A21522  28.324  38.275   7.631
 1433POPC   C1B21523  28.574  38.768   8.763
 1433POPC   C2B21524  28.693  38.601   8.365
 1433POPC   C3B21525  28.698  38.567   7.902
 1433POPC   C4B21526  28.457  38.771   7.549
 1434POPC   NC321527  19.475  32.912   9.114
 1434POPC   PO421528  18.970  33.133   9.547
 1434POPC   GL121529  19.053  33.158   9.086
 1434POPC   GL221530  18.994  32.801   9.056
 1434POPC   C1A21531  19.130  33.032   8.610
 1434POPC   D2A21532  18.967  33.063   8.225
 1434POPC   C3A21533  19.149  33.340   7.955
 1434POPC   C4A21534  19.178  33.237   7.532
 1434POPC   C1B21535  18.884  32.559   8.711
 1434POPC   C2B21536  18.766  32.607   8.310
 1434POPC   C3B21537  18.935  32.666   7.893
 1434POPC   C4B21538  18.842  32.733   7.470
 1435POPC   NC321539  38.588   1.718   9.653
 1435POPC   PO421540  38.102   1.889   9.148
 1435POPC   GL121541  38.457   1.861   8.934
 1435POPC   GL221542  38.710   2.012   9.157
 1435POPC   C1A21543  38.474   1.553   8.612
 1435POPC   D2A21544  38.228   1.655   8.237
 1435POPC   C3A21545  38.467   1.846   7.907
 1435POPC   C4A21546  38.471   2.142   7.589
 1435POPC   C1B21547  38.895   1.950   8.713
 1435POPC   C2B21548  38.807   1.764   8.298
 1435POPC   C3B21549  38.934   1.645   7.871
 1435POPC   C4B21550  38.873   1.841   7.470
 1436POPC   NC321551  26.414  29.215   9.518
 1436POPC   PO421552  26.974  28.952   9.366
 1436POPC   GL121553  26.918  29.185   9.022
 1436POPC   GL221554  26.644  29.322   9.082
 1436POPC   C1A21555  26.952  29.348   8.650
 1436POPC   D2A21556  26.956  29.085   8.349
 1436POPC   C3A21557  26.979  29.291   7.993
 1436POPC   C4A21558  26.930  29.105   7.615
 1436POPC   C1B21559  26.503  29.139   8.714
 1436POPC   C2B21560  26.481  29.367   8.337
 1436POPC   C3B21561  26.226  29.514   8.005
 1436POPC   C4B21562  26.482  29.121   7.878
 1437POPC   NC321563  13.791  43.693   9.597
 1437POPC   PO421564  13.218  43.812   9.371
 1437POPC   GL121565  13.586  43.803   9.140
 1437POPC   GL221566  13.559  43.471   9.180
 1437POPC   C1A21567  13.880  43.958   8.828
 1437POPC   D2A21568  13.721  43.981   8.407
 1437POPC   C3A21569  13.909  44.092   8.022
 1437POPC   C4A21570  13.772  43.865   7.705
 1437POPC   C1B21571  13.291  43.518   8.805
 1437POPC   C2B21572  13.500  43.506   8.434
 1437POPC   C3B21573  13.434  43.642   8.018
 1437POPC   C4B21574  13.452  43.451   7.606
 1438POPC   NC321575  19.588  33.868   9.180
 1438POPC   PO421576  19.914  33.464   9.548
 1438POPC   GL121577  20.024  33.595   9.069
 1438POPC   GL221578  20.052  33.949   8.998
 1438POPC   C1A21579  19.912  33.683   8.585
 1438POPC   D2A21580  19.632  33.900   8.249
 1438POPC   C3A21581  19.629  33.751   7.795
 1438POPC   C4A21582  20.003  33.511   7.601
 1438POPC   C1B21583  19.921  34.207   8.669
 1438POPC   C2B21584  20.120  34.149   8.301
 1438POPC   C3B21585  20.066  33.936   7.935
 1438POPC   C4B21586  20.114  34.008   7.506
 1439POPC   NC321587  18.449   9.071   9.466
 1439POPC   PO421588  17.994   8.583   9.680
 1439POPC   GL121589  18.184   8.668   9.246
 1439POPC   GL221590  18.077   9.001   9.097
 1439POPC   C1A21591  18.382   8.720   8.819
 1439POPC   D2A21592  18.190   8.957   8.483
 1439POPC   C3A21593  18.135   8.821   8.075
 1439POPC   C4A21594  18.416   8.702   7.758
 1439POPC   C1B21595  18.401   9.247   8.845
 1439POPC   C2B21596  18.455   9.386   8.403
 1439POPC   C3B21597  18.354   9.300   7.962
 1439POPC   C4B21598  18.458   9.555   7.637
 1440POPC   NC321599  25.136   6.525   9.519
 1440POPC   PO421600  25.681   6.915   9.555
 1440POPC   GL121601  25.458   6.802   9.170
 1440POPC   GL221602  25.495   6.446   9.132
 1440POPC   C1A21603  25.163   6.769   8.795
 1440POPC   D2A21604  24.979   6.637   8.387
 1440POPC   C3A21605  25.017   6.818   8.006
 1440POPC   C4A21606  25.016   6.556   7.652
 1440POPC   C1B21607  25.565   6.417   8.697
 1440POPC   C2B21608  25.495   6.610   8.322
 1440POPC   C3B21609  25.490   6.689   7.913
 1440POPC   C4B21610  25.368   6.934   7.596
 1441POPC   NC321611  19.275  35.373   9.631
 1441POPC   PO421612  18.739  35.791   9.688
 1441POPC   GL121613  18.832  35.418   9.321
 1441POPC   GL221614  19.175  35.251   9.152
 1441POPC   C1A21615  18.777  35.298   8.855
 1441POPC   D2A21616  18.803  35.546   8.468
 1441POPC   C3A21617  18.879  35.328   8.094
 1441POPC   C4A21618  18.533  35.265   7.792
 1441POPC   C1B21619  19.283  35.524   8.789
 1441POPC   C2B21620  19.285  35.710   8.374
 1441POPC   C3B21621  19.244  35.741   7.935
 1441POPC   C4B21622  19.106  35.537   7.541
 1442POPC   NC321623   5.363  32.033   9.425
 1442POPC   PO421624   4.999  32.559   9.665
 1442POPC   GL121625   5.015  32.390   9.245
 1442POPC   GL221626   5.330  32.434   9.069
 1442POPC   C1A21627   4.949  32.201   8.808
 1442POPC   D2A21628   5.117  32.215   8.413
 1442POPC   C3A21629   4.865  32.089   8.041
 1442POPC   C4A21630   4.844  32.311   7.661
 1442POPC   C1B21631   5.475  32.101   8.783
 1442POPC   C2B21632   5.627  32.081   8.367
 1442POPC   C3B21633   5.405  32.218   8.010
 1442POPC   C4B21634   5.261  32.035   7.676
 1443POPC   NC321635  43.530  16.697   9.412
 1443POPC   PO421636  44.216  16.624   9.460
 1443POPC   GL121637  44.013  16.687   9.063
 1443POPC   GL221638  43.800  16.447   9.047
 1443POPC   C1A21639  43.790  16.802   8.639
 1443POPC   D2A21640  43.798  16.641   8.199
 1443POPC   C3A21641  43.718  16.940   7.855
 1443POPC   C4A21642  43.853  17.035   7.424
 1443POPC   C1B21643  44.031  16.359   8.679
 1443POPC   C2B21644  44.184  16.261   8.310
 1443POPC   C3B21645  44.166  16.371   7.901
 1443POPC   C4B21646  43.978  16.582   7.592
 1444POPC   NC321647  44.149  32.382   9.533
 1444POPC   PO421648  43.628  31.842   9.557
 1444POPC   GL121649  43.922  32.016   9.240
 1444POPC   GL221650  43.786  32.374   9.181
 1444POPC   C1A21651  44.077  32.150   8.827
 1444POPC   D2A21652  43.865  32.255   8.438
 1444POPC   C3A21653  44.015  32.148   8.042
 1444POPC   C4A21654  43.925  32.040   7.644
 1444POPC   C1B21655  43.595  32.566   8.818
 1444POPC   C2B21656  43.683  32.743   8.412
 1444POPC   C3B21657  43.648  32.529   8.026
 1444POPC   C4B21658  43.639  32.468   7.580
 1445POPC   NC321659  39.810  25.441   9.437
 1445POPC   PO421660  40.321  25.050   9.546
 1445POPC   GL121661  40.103  25.136   9.157
 1445POPC   GL221662  39.759  24.949   9.230
 1445POPC   C1A21663  40.072  25.500   8.838
 1445POPC   D2A21664  40.164  25.336   8.448
 1445POPC   C3A21665  39.981  25.473   8.079
 1445POPC   C4A21666  40.115  25.313   7.688
 1445POPC   C1B21667  39.706  25.124   8.808
 1445POPC   C2B21668  39.694  25.027   8.369
 1445POPC   C3B21669  39.821  25.008   7.959
 1445POPC   C4B21670  39.678  25.159   7.499
 1446POPC   NC321671  40.915  32.306   9.427
 1446POPC   PO421672  40.756  31.738   9.725
 1446POPC   GL121673  40.575  32.018   9.203
 1446POPC   GL221674  40.625  31.922   8.885
 1446POPC   C1A21675  40.687  32.408   8.826
 1446POPC   D2A21676  40.689  32.644   8.405
 1446POPC   C3A21677  40.879  32.577   7.973
 1446POPC   C4A21678  40.734  32.476   7.513
 1446POPC   C1B21679  40.991  32.028   8.635
 1446POPC   C2B21680  41.005  32.142   8.212
 1446POPC   C3B21681  40.761  32.101   7.858
 1446POPC   C4B21682  40.999  32.028   7.540
 1447POPC   NC321683  19.841  38.180   9.498
 1447POPC   PO421684  19.495  38.599   9.409
 1447POPC   GL121685  19.909  38.511   9.116
 1447POPC   GL221686  19.946  38.152   9.000
 1447POPC   C1A21687  20.118  38.539   8.694
 1447POPC   D2A21688  19.891  38.612   8.288
 1447POPC   C3A21689  19.997  38.452   7.889
 1447POPC   C4A21690  20.217  38.724   7.697
 1447POPC   C1B21691  19.711  38.235   8.618
 1447POPC   C2B21692  19.628  38.177   8.170
 1447POPC   C3B21693  19.516  38.347   7.781
 1447POPC   C4B21694  19.301  38.359   7.398
 1448POPC   NC321695  40.595  16.970   9.478
 1448POPC   PO421696  41.122  16.604   9.509
 1448POPC   GL121697  40.844  16.575   9.176
 1448POPC   GL221698  40.615  16.340   9.243
 1448POPC   C1A21699  40.664  16.786   8.817
 1448POPC   D2A21700  40.659  17.026   8.423
 1448POPC   C3A21701  40.542  16.953   8.033
 1448POPC   C4A21702  40.959  16.887   7.864
 1448POPC   C1B21703  40.570  16.280   8.783
 1448POPC   C2B21704  40.495  16.539   8.402
 1448POPC   C3B21705  40.646  16.466   7.971
 1448POPC   C4B21706  40.441  16.356   7.578
 1449POPC   NC321707   0.032  34.366   9.537
 1449POPC   PO421708   0.453  34.960   9.521
 1449POPC   GL121709   0.331  34.842   9.166
 1449POPC   GL221710   0.308  34.528   9.133
 1449POPC   C1A21711   0.441  34.851   8.762
 1449POPC   D2A21712   0.255  34.998   8.411
 1449POPC   C3A21713   0.250  34.643   8.153
 1449POPC   C4A21714   0.484  34.657   7.791
 1449POPC   C1B21715   0.663  34.391   8.858
 1449POPC   C2B21716   0.788  34.422   8.439
 1449POPC   C3B21717   0.639  34.259   8.076
 1449POPC   C4B21718   0.313  34.180   7.803
 1450POPC   NC321719  26.624  17.969   9.373
 1450POPC   PO421720  27.143  18.409   9.430
 1450POPC   GL121721  27.049  18.199   9.096
 1450POPC   GL221722  26.750  18.330   9.054
 1450POPC   C1A21723  27.093  18.214   8.640
 1450POPC   D2A21724  27.089  18.026   8.190
 1450POPC   C3A21725  26.948  18.242   7.789
 1450POPC   C4A21726  27.092  18.391   7.353
 1450POPC   C1B21727  26.590  18.104   8.735
 1450POPC   C2B21728  26.625  17.867   8.406
 1450POPC   C3B21729  26.551  18.024   8.016
 1450POPC   C4B21730  26.343  18.270   7.729
 1451POPC   NC321731  37.291  28.373   9.486
 1451POPC   PO421732  36.580  28.582   9.550
 1451POPC   GL121733  36.790  28.537   9.145
 1451POPC   GL221734  37.135  28.656   9.086
 1451POPC   C1A21735  36.876  28.389   8.716
 1451POPC   D2A21736  36.963  28.043   8.427
 1451POPC   C3A21737  36.687  28.126   8.082
 1451POPC   C4A21738  36.732  28.439   7.774
 1451POPC   C1B21739  37.380  28.349   8.844
 1451POPC   C2B21740  37.389  28.374   8.420
 1451POPC   C3B21741  37.180  28.471   8.038
 1451POPC   C4B21742  37.122  28.093   7.815
 1452POPC   NC321743  42.556  42.001   9.412
 1452POPC   PO421744  42.179  42.609   9.396
 1452POPC   GL121745  42.397  42.413   9.092
 1452POPC   GL221746  42.254  42.096   9.015
 1452POPC   C1A21747  42.393  42.519   8.657
 1452POPC   D2A21748  42.208  42.565   8.248
 1452POPC   C3A21749  42.525  42.586   7.896
 1452POPC   C4A21750  42.629  42.547   7.436
 1452POPC   C1B21751  42.580  42.035   8.722
 1452POPC   C2B21752  42.574  42.211   8.304
 1452POPC   C3B21753  42.289  42.138   7.970
 1452POPC   C4B21754  42.524  42.055   7.629
 1453POPC   NC321755   0.106  10.899   9.474
 1453POPC   PO421756   0.554  11.401   9.387
 1453POPC   GL121757   0.560  11.089   9.058
 1453POPC   GL221758   0.236  11.006   8.996
 1453POPC   C1A21759   0.598  11.038   8.608
 1453POPC   D2A21760   0.683  11.271   8.219
 1453POPC   C3A21761   0.415  11.248   7.863
 1453POPC   C4A21762   0.275  11.603   7.574
 1453POPC   C1B21763   0.157  11.382   8.769
 1453POPC   C2B21764   0.282  11.553   8.382
 1453POPC   C3B21765   0.036  11.577   8.009
 1453POPC   C4B21766  44.898  11.171   7.833
 1454POPC   NC321767   0.256   9.292   9.540
 1454POPC   PO421768   0.697   9.921   9.474
 1454POPC   GL121769   0.630   9.761   9.107
 1454POPC   GL221770   0.315   9.708   9.157
 1454POPC   C1A21771   0.636   9.604   8.718
 1454POPC   D2A21772   0.499   9.836   8.362
 1454POPC   C3A21773   0.709   9.752   7.987
 1454POPC   C4A21774   0.637   9.901   7.566
 1454POPC   C1B21775   0.103   9.761   8.744
 1454POPC   C2B21776  44.998   9.969   8.342
 1454POPC   C3B21777   0.175   9.909   7.918
 1454POPC   C4B21778   0.332   9.519   7.727
 1455POPC   NC321779  40.341   2.856   9.819
 1455POPC   PO421780  40.347   3.070   9.235
 1455POPC   GL121781  40.013   2.777   9.107
 1455POPC   GL221782  39.781   2.969   9.054
 1455POPC   C1A21783  40.129   2.584   8.724
 1455POPC   D2A21784  40.384   2.812   8.406
 1455POPC   C3A21785  40.243   2.767   8.029
 1455POPC   C4A21786  40.141   2.821   7.658
 1455POPC   C1B21787  39.970   3.068   8.676
 1455POPC   C2B21788  39.852   2.773   8.353
 1455POPC   C3B21789  39.707   2.861   7.974
 1455POPC   C4B21790  39.586   3.225   7.749
 1456POPC   NC321791  27.064   2.654   9.759
 1456POPC   PO421792  26.639   3.194   9.649
 1456POPC   GL121793  26.948   2.989   9.359
 1456POPC   GL221794  26.749   2.728   9.291
 1456POPC   C1A21795  27.040   2.965   8.892
 1456POPC   D2A21796  26.922   2.687   8.520
 1456POPC   C3A21797  27.045   2.772   8.074
 1456POPC   C4A21798  27.322   2.852   7.725
 1456POPC   C1B21799  26.516   2.954   8.934
 1456POPC   C2B21800  26.484   2.960   8.449
 1456POPC   C3B21801  26.555   2.673   8.078
 1456POPC   C4B21802  26.440   2.496   7.638
 1457POPC   NC321803  24.286  32.536   9.443
 1457POPC   PO421804  24.586  31.899   9.534
 1457POPC   GL121805  24.544  32.116   9.180
 1457POPC   GL221806  24.202  32.087   9.131
 1457POPC   C1A21807  24.539  32.074   8.739
 1457POPC   D2A21808  24.387  32.410   8.539
 1457POPC   C3A21809  24.520  32.626   8.181
 1457POPC   C4A21810  24.341  32.618   7.763
 1457POPC   C1B21811  23.983  32.160   8.757
 1457POPC   C2B21812  24.002  32.134   8.350
 1457POPC   C3B21813  24.330  32.152   8.071
 1457POPC   C4B21814  24.278  32.146   7.633
 1458POPC   NC321815   6.248  40.916   9.447
 1458POPC   PO421816   6.736  40.557   9.548
 1458POPC   GL121817   6.696  40.590   9.161
 1458POPC   GL221818   6.345  40.535   9.128
 1458POPC   C1A21819   6.647  40.924   8.846
 1458POPC   D2A21820   6.714  41.035   8.419
 1458POPC   C3A21821   6.896  40.771   8.148
 1458POPC   C4A21822   6.826  40.837   7.739
 1458POPC   C1B21823   6.495  40.443   8.729
 1458POPC   C2B21824   6.437  40.599   8.338
 1458POPC   C3B21825   6.346  40.602   7.931
 1458POPC   C4B21826   6.164  40.379   7.631
 1459POPC   NC321827  39.504   3.099   9.444
 1459POPC   PO421828  39.202   3.584   9.843
 1459POPC   GL121829  39.299   3.691   9.356
 1459POPC   GL221830  39.238   3.393   9.128
 1459POPC   C1A21831  39.272   3.833   8.874
 1459POPC   D2A21832  39.288   3.592   8.448
 1459POPC   C3A21833  39.264   3.687   8.012
 1459POPC   C4A21834  39.552   3.896   7.762
 1459POPC   C1B21835  39.460   3.218   8.764
 1459POPC   C2B21836  39.599   3.207   8.356
 1459POPC   C3B21837  39.265   3.150   8.130
 1459POPC   C4B21838  39.086   3.254   7.795
 1460POPC   NC321839   0.794   2.415   9.664
 1460POPC   PO421840   1.174   1.867   9.576
 1460POPC   GL121841   1.277   1.847   9.163
 1460POPC   GL221842   1.081   1.551   9.126
 1460POPC   C1A21843   1.315   2.108   8.791
 1460POPC   D2A21844   1.033   2.194   8.435
 1460POPC   C3A21845   1.225   2.136   8.029
 1460POPC   C4A21846   1.448   2.264   7.652
 1460POPC   C1B21847   0.962   1.748   8.761
 1460POPC   C2B21848   1.171   1.697   8.388
 1460POPC   C3B21849   1.001   1.684   7.981
 1460POPC   C4B21850   1.022   1.922   7.603
 1461POPC   NC321851   4.266  28.928   9.449
 1461POPC   PO421852   4.069  29.479   9.341
 1461POPC   GL121853   4.427  29.344   9.111
 1461POPC   GL221854   4.621  29.034   9.083
 1461POPC   C1A21855   4.465  29.465   8.712
 1461POPC   D2A21856   4.384  29.533   8.278
 1461POPC   C3A21857   4.454  29.184   7.996
 1461POPC   C4A21858   4.259  29.253   7.600
 1461POPC   C1B21859   4.386  28.949   8.715
 1461POPC   C2B21860   4.179  28.743   8.370
 1461POPC   C3B21861   4.314  28.651   7.968
 1461POPC   C4B21862   4.436  28.786   7.593
 1462POPC   NC321863  43.958   8.623   9.763
 1462POPC   PO421864  43.853   8.060   9.387
 1462POPC   GL121865  43.720   8.145   9.024
 1462POPC   GL221866  44.023   8.342   8.995
 1462POPC   C1A21867  43.772   8.098   8.602
 1462POPC   D2A21868  43.951   7.846   8.301
 1462POPC   C3A21869  43.791   7.945   7.912
 1462POPC   C4A21870  43.589   8.314   7.789
 1462POPC   C1B21871  44.257   8.024   8.774
 1462POPC   C2B21872  44.414   8.111   8.368
 1462POPC   C3B21873  44.267   8.207   7.961
 1462POPC   C4B21874  44.239   7.865   7.684
 1463POPC   NC321875  12.866   3.890   9.503
 1463POPC   PO421876  12.984   3.231   9.403
 1463POPC   GL121877  12.749   3.238   9.063
 1463POPC   GL221878  12.686   3.588   9.132
 1463POPC   C1A21879  12.762   3.144   8.612
 1463POPC   D2A21880  12.738   3.425   8.259
 1463POPC   C3A21881  13.081   3.444   7.942
 1463POPC   C4A21882  13.289   3.672   7.630
 1463POPC   C1B21883  12.910   3.620   8.735
 1463POPC   C2B21884  13.073   3.803   8.324
 1463POPC   C3B21885  12.955   3.946   7.894
 1463POPC   C4B21886  12.852   3.864   7.424
 1464POPC   NC321887  39.029  31.294   9.779
 1464POPC   PO421888  39.165  31.643   9.206
 1464POPC   GL121889  39.402  31.707   8.916
 1464POPC   GL221890  39.679  31.495   9.026
 1464POPC   C1A21891  39.183  31.574   8.542
 1464POPC   D2A21892  39.048  31.336   8.230
 1464POPC   C3A21893  38.999  31.564   7.886
 1464POPC   C4A21894  38.977  31.351   7.503
 1464POPC   C1B21895  39.685  31.480   8.550
 1464POPC   C2B21896  39.546  31.215   8.230
 1464POPC   C3B21897  39.376  31.244   7.839
 1464POPC   C4B21898  39.471  31.197   7.417
 1465POPC   NC321899   1.642  14.115   9.663
 1465POPC   PO421900   1.146  14.346   9.464
 1465POPC   GL121901   1.098  14.164   9.053
 1465POPC   GL221902   0.798  13.946   9.031
 1465POPC   C1A21903   1.116  14.358   8.657
 1465POPC   D2A21904   0.928  14.675   8.404
 1465POPC   C3A21905   0.975  14.554   7.982
 1465POPC   C4A21906   0.832  14.429   7.610
 1465POPC   C1B21907   0.916  13.889   8.572
 1465POPC   C2B21908   1.146  14.102   8.203
 1465POPC   C3B21909   1.136  14.045   7.758
 1465POPC   C4B21910   1.210  13.806   7.355
 1466POPC   NC321911  11.443  10.972   9.548
 1466POPC   PO421912  11.091  10.321   9.568
 1466POPC   GL121913  11.283  10.301   9.188
 1466POPC   GL221914  11.308  10.651   9.179
 1466POPC   C1A21915  11.152  10.361   8.779
 1466POPC   D2A21916  11.226  10.631   8.473
 1466POPC   C3A21917  11.296  10.435   8.079
 1466POPC   C4A21918  11.096  10.354   7.669
 1466POPC   C1B21919  11.592  10.647   8.843
 1466POPC   C2B21920  11.678  10.874   8.453
 1466POPC   C3B21921  11.800  10.833   8.046
 1466POPC   C4B21922  11.584  10.622   7.711
 1467POPC   NC321923  15.269  24.075   9.348
 1467POPC   PO421924  15.114  24.742   9.562
 1467POPC   GL121925  15.161  24.600   9.128
 1467POPC   GL221926  14.843  24.498   9.085
 1467POPC   C1A21927  15.205  24.362   8.743
 1467POPC   D2A21928  14.919  24.273   8.389
 1467POPC   C3A21929  15.027  24.439   7.993
 1467POPC   C4A21930  15.214  24.368   7.576
 1467POPC   C1B21931  14.863  24.733   8.671
 1467POPC   C2B21932  14.602  24.697   8.306
 1467POPC   C3B21933  14.654  24.775   7.883
 1467POPC   C4B21934  14.940  24.798   7.560
 1468POPC   NC321935  24.066  31.771   9.545
 1468POPC   PO421936  23.434  31.358   9.601
 1468POPC   GL121937  23.624  31.653   9.319
 1468POPC   GL221938  23.868  31.418   9.211
 1468POPC   C1A21939  23.674  31.752   8.861
 1468POPC   D2A21940  23.553  31.877   8.440
 1468POPC   C3A21941  23.795  31.757   8.086
 1468POPC   C4A21942  23.870  31.406   7.826
 1468POPC   C1B21943  23.850  31.261   8.793
 1468POPC   C2B21944  23.965  31.356   8.372
 1468POPC   C3B21945  24.244  31.144   8.071
 1468POPC   C4B21946  24.164  30.900   7.688
 1469POPC   NC321947  31.840  23.982   9.386
 1469POPC   PO421948  31.230  23.723   9.512
 1469POPC   GL121949  31.412  23.845   9.143
 1469POPC   GL221950  31.622  23.597   9.087
 1469POPC   C1A21951  31.535  23.933   8.732
 1469POPC   D2A21952  31.519  23.656   8.392
 1469POPC   C3A21953  31.471  23.965   8.130
 1469POPC   C4A21954  31.642  24.118   7.787
 1469POPC   C1B21955  31.254  23.370   8.923
 1469POPC   C2B21956  31.165  23.248   8.474
 1469POPC   C3B21957  31.166  23.426   8.085
 1469POPC   C4B21958  31.435  23.583   7.806
 1470POPC   NC321959  22.311  39.603   9.514
 1470POPC   PO421960  21.827  39.060   9.473
 1470POPC   GL121961  22.217  38.988   9.201
 1470POPC   GL221962  22.455  39.239   9.161
 1470POPC   C1A21963  22.288  38.980   8.767
 1470POPC   D2A21964  21.914  38.899   8.482
 1470POPC   C3A21965  21.940  39.097   8.092
 1470POPC   C4A21966  22.069  39.204   7.737
 1470POPC   C1B21967  22.359  39.488   8.807
 1470POPC   C2B21968  22.276  39.306   8.394
 1470POPC   C3B21969  22.476  39.349   8.006
 1470POPC   C4B21970  22.452  39.496   7.581
 1471POPC   NC321971  44.147  34.705   9.734
 1471POPC   PO421972  43.844  34.229   9.542
 1471POPC   GL121973  44.065  34.459   9.193
 1471POPC   GL221974  44.288  34.734   9.210
 1471POPC   C1A21975  43.915  34.401   8.746
 1471POPC   D2A21976  43.734  34.219   8.345
 1471POPC   C3A21977  43.928  34.103   7.936
 1471POPC   C4A21978  43.821  34.418   7.640
 1471POPC   C1B21979  44.315  34.744   8.752
 1471POPC   C2B21980  44.183  34.680   8.305
 1471POPC   C3B21981  44.193  34.732   7.847
 1471POPC   C4B21982  44.142  35.068   7.535
 1472POPC   NC321983  35.124  12.860   9.639
 1472POPC   PO421984  35.697  12.532   9.565
 1472POPC   GL121985  35.451  12.768   9.220
 1472POPC   GL221986  35.110  12.637   9.155
 1472POPC   C1A21987  35.307  12.899   8.774
 1472POPC   D2A21988  35.103  13.090   8.397
 1472POPC   C3A21989  35.339  13.101   8.021
 1472POPC   C4A21990  35.241  13.048   7.600
 1472POPC   C1B21991  35.091  12.416   8.742
 1472POPC   C2B21992  35.258  12.530   8.309
 1472POPC   C3B21993  35.417  12.586   7.859
 1472POPC   C4B21994  35.471  12.668   7.380
 1473POPC   NC321995  12.372  44.988   9.482
 1473POPC   PO421996  12.023   0.624   9.471
 1473POPC   GL121997  12.245   0.565   9.065
 1473POPC   GL221998  12.421   0.864   8.945
 1473POPC   C1A21999  12.199   0.347   8.665
 1473POPC   D2A22000  11.930   0.338   8.320
 1473POPC   C3A22001  12.130   0.150   7.946
 1473POPC   C4A22002  11.919   0.137   7.516
 1473POPC   C1B22003  12.363   0.853   8.548
 1473POPC   C2B22004  12.333   0.618   8.192
 1473POPC   C3B22005  12.036   0.639   7.856
 1473POPC   C4B22006  11.979   0.630   7.410
 1474POPC   NC322007  28.043  40.972   9.508
 1474POPC   PO422008  28.551  40.521   9.553
 1474POPC   GL122009  28.462  40.807   9.209
 1474POPC   GL222010  28.175  40.683   9.128
 1474POPC   C1A22011  28.540  40.800   8.754
 1474POPC   D2A22012  28.456  40.608   8.333
 1474POPC   C3A22013  28.633  40.819   7.946
 1474POPC   C4A22014  28.639  40.721   7.471
 1474POPC   C1B22015  28.049  40.950   8.824
 1474POPC   C2B22016  28.239  41.085   8.444
 1474POPC   C3B22017  28.115  40.915   8.057
 1474POPC   C4B22018  28.230  40.927   7.665
 1475POPC   NC322019   2.059  32.428   9.398
 1475POPC   PO422020   1.804  31.861   9.477
 1475POPC   GL122021   1.972  31.974   9.114
 1475POPC   GL222022   2.250  32.174   8.997
 1475POPC   C1A22023   1.831  32.039   8.721
 1475POPC   D2A22024   1.767  32.294   8.386
 1475POPC   C3A22025   1.940  32.105   8.040
 1475POPC   C4A22026   1.804  32.148   7.626
 1475POPC   C1B22027   2.148  32.465   8.669
 1475POPC   C2B22028   2.133  32.623   8.227
 1475POPC   C3B22029   2.057  32.550   7.800
 1475POPC   C4B22030   2.236  32.446   7.402
 1476POPC   NC322031  13.154   1.382   9.358
 1476POPC   PO422032  12.794   1.962   9.542
 1476POPC   GL122033  12.892   2.088   9.093
 1476POPC   GL222034  12.898   1.733   9.090
 1476POPC   C1A22035  12.689   2.268   8.695
 1476POPC   D2A22036  12.469   2.169   8.268
 1476POPC   C3A22037  12.727   2.169   7.866
 1476POPC   C4A22038  12.685   2.363   7.414
 1476POPC   C1B22039  12.776   1.773   8.662
 1476POPC   C2B22040  12.941   1.970   8.317
 1476POPC   C3B22041  13.129   1.883   7.957
 1476POPC   C4B22042  12.987   1.792   7.510
 1477POPC   NC322043  12.812  18.421   9.519
 1477POPC   PO422044  12.315  17.910   9.479
 1477POPC   GL122045  12.664  18.089   9.171
 1477POPC   GL222046  12.686  18.485   9.042
 1477POPC   C1A22047  12.921  18.069   8.809
 1477POPC   D2A22048  12.756  18.040   8.409
 1477POPC   C3A22049  13.004  18.168   8.111
 1477POPC   C4A22050  13.013  17.918   7.775
 1477POPC   C1B22051  13.126  18.542   8.894
 1477POPC   C2B22052  13.265  18.541   8.457
 1477POPC   C3B22053  13.034  18.677   8.108
 1477POPC   C4B22054  12.814  18.695   7.727
 1478POPC   NC322055  23.401   6.606   9.461
 1478POPC   PO422056  24.046   6.412   9.459
 1478POPC   GL122057  24.026   6.552   9.063
 1478POPC   GL222058  23.674   6.538   9.007
 1478POPC   C1A22059  24.063   6.424   8.682
 1478POPC   D2A22060  23.894   6.513   8.284
 1478POPC   C3A22061  24.034   6.417   7.899
 1478POPC   C4A22062  23.897   6.471   7.494
 1478POPC   C1B22063  23.695   6.818   8.643
 1478POPC   C2B22064  23.557   6.910   8.199
 1478POPC   C3B22065  23.705   6.887   7.748
 1478POPC   C4B22066  23.875   7.080   7.343
 1479POPC   NC322067   1.106   8.936   9.619
 1479POPC   PO422068   1.380   8.496   9.234
 1479POPC   GL122069   1.135   8.854   9.095
 1479POPC   GL222070   0.826   8.803   9.225
 1479POPC   C1A22071   0.943   9.161   8.772
 1479POPC   D2A22072   0.828   9.256   8.310
 1479POPC   C3A22073   1.129   9.086   7.964
 1479POPC   C4A22074   1.500   9.279   7.771
 1479POPC   C1B22075   0.703   8.714   8.827
 1479POPC   C2B22076   0.931   8.767   8.440
 1479POPC   C3B22077   0.767   8.749   8.055
 1479POPC   C4B22078   0.945   8.733   7.660
 1480POPC   NC322079   2.866  29.285   9.496
 1480POPC   PO422080   2.305  29.529   9.209
 1480POPC   GL122081   2.573  29.252   9.045
 1480POPC   GL222082   2.908  29.409   8.993
 1480POPC   C1A22083   2.691  29.041   8.678
 1480POPC   D2A22084   2.593  28.773   8.350
 1480POPC   C3A22085   2.878  28.758   8.047
 1480POPC   C4A22086   3.025  28.989   7.707
 1480POPC   C1B22087   2.665  29.630   8.664
 1480POPC   C2B22088   2.649  29.466   8.264
 1480POPC   C3B22089   2.597  29.185   7.929
 1480POPC   C4B22090   2.593  29.373   7.496
 1481POPC   NC322091   7.742   7.217   9.676
 1481POPC   PO422092   7.130   7.416   9.566
 1481POPC   GL122093   7.417   7.470   9.221
 1481POPC   GL222094   7.141   7.414   9.020
 1481POPC   C1A22095   7.588   7.464   8.776
 1481POPC   D2A22096   7.808   7.320   8.371
 1481POPC   C3A22097   7.646   7.333   7.944
 1481POPC   C4A22098   7.341   7.441   7.650
 1481POPC   C1B22099   7.101   7.395   8.573
 1481POPC   C2B22100   7.164   7.264   8.138
 1481POPC   C3B22101   6.946   7.158   7.742
 1481POPC   C4B22102   7.229   6.995   7.391
 1482POPC   NC322103  23.664  41.067   9.467
 1482POPC   PO422104  24.191  40.708   9.681
 1482POPC   GL122105  23.905  40.697   9.236
 1482POPC   GL222106  23.569  40.517   9.190
 1482POPC   C1A22107  23.832  40.710   8.788
 1482POPC   D2A22108  24.166  40.794   8.474
 1482POPC   C3A22109  24.071  40.761   8.031
 1482POPC   C4A22110  23.947  40.910   7.611
 1482POPC   C1B22111  23.527  40.251   8.769
 1482POPC   C2B22112  23.602  40.267   8.281
 1482POPC   C3B22113  23.636  40.543   7.888
 1482POPC   C4B22114  23.655  40.535   7.417
 1483POPC   NC322115  12.704  16.851   9.580
 1483POPC   PO422116  13.054  16.410   9.492
 1483POPC   GL122117  12.993  16.774   9.161
 1483POPC   GL222118  12.687  17.048   9.125
 1483POPC   C1A22119  12.786  16.647   8.799
 1483POPC   D2A22120  12.644  16.614   8.409
 1483POPC   C3A22121  12.978  16.644   8.130
 1483POPC   C4A22122  12.706  16.593   7.810
 1483POPC   C1B22123  12.828  17.164   8.772
 1483POPC   C2B22124  12.891  17.097   8.384
 1483POPC   C3B22125  12.719  17.070   8.016
 1483POPC   C4B22126  13.007  17.001   7.722
 1484POPC   NC322127  38.882   4.564   9.433
 1484POPC   PO422128  38.364   4.084   9.527
 1484POPC   GL122129  38.497   4.277   9.189
 1484POPC   GL222130  38.784   4.130   9.128
 1484POPC   C1A22131  38.490   4.487   8.796
 1484POPC   D2A22132  38.148   4.577   8.487
 1484POPC   C3A22133  38.353   4.595   8.069
 1484POPC   C4A22134  38.230   4.346   7.737
 1484POPC   C1B22135  38.581   3.979   8.763
 1484POPC   C2B22136  38.503   4.165   8.374
 1484POPC   C3B22137  38.635   4.128   7.970
 1484POPC   C4B22138  38.745   4.489   7.725
 1485POPC   NC322139  18.550  31.017   9.503
 1485POPC   PO422140  17.965  30.749   9.623
 1485POPC   GL122141  18.163  30.788   9.198
 1485POPC   GL222142  18.190  31.102   9.131
 1485POPC   C1A22143  18.304  30.703   8.761
 1485POPC   D2A22144  18.154  30.931   8.409
 1485POPC   C3A22145  18.274  30.824   7.986
 1485POPC   C4A22146  18.110  30.820   7.570
 1485POPC   C1B22147  18.552  31.139   8.851
 1485POPC   C2B22148  18.709  31.257   8.445
 1485POPC   C3B22149  18.618  31.207   8.006
 1485POPC   C4B22150  18.588  31.024   7.606
 1486POPC   NC322151  11.485  42.994   9.784
 1486POPC   PO422152  10.974  43.428   9.567
 1486POPC   GL122153  11.170  43.250   9.216
 1486POPC   GL222154  11.495  43.112   9.249
 1486POPC   C1A22155  11.146  43.137   8.779
 1486POPC   D2A22156  10.909  43.195   8.396
 1486POPC   C3A22157  11.147  43.045   8.031
 1486POPC   C4A22158  11.212  43.157   7.640
 1486POPC   C1B22159  11.638  43.045   8.825
 1486POPC   C2B22160  11.498  43.050   8.392
 1486POPC   C3B22161  11.641  43.141   7.927
 1486POPC   C4B22162  11.672  43.073   7.433
 1487POPC   NC322163   3.058  34.693   9.489
 1487POPC   PO422164   2.687  34.131   9.609
 1487POPC   GL122165   2.843  34.297   9.209
 1487POPC   GL222166   2.682  34.620   9.138
 1487POPC   C1A22167   3.004  34.464   8.810
 1487POPC   D2A22168   2.976  34.876   8.560
 1487POPC   C3A22169   2.967  34.840   8.095
 1487POPC   C4A22170   2.803  34.571   7.826
 1487POPC   C1B22171   2.507  34.528   8.721
 1487POPC   C2B22172   2.479  34.552   8.259
 1487POPC   C3B22173   2.324  34.427   7.842
 1487POPC   C4B22174   2.443  34.688   7.484
 1488POPC   NC322175  37.471  33.031   9.386
 1488POPC   PO422176  37.919  33.483   9.474
 1488POPC   GL122177  37.713  33.364   9.088
 1488POPC   GL222178  37.835  32.981   9.049
 1488POPC   C1A22179  37.595  33.196   8.663
 1488POPC   D2A22180  37.745  32.873   8.380
 1488POPC   C3A22181  37.571  32.983   7.968
 1488POPC   C4A22182  37.498  33.374   7.729
 1488POPC   C1B22183  38.145  33.234   8.846
 1488POPC   C2B22184  38.263  33.255   8.428
 1488POPC   C3B22185  38.071  33.106   8.059
 1488POPC   C4B22186  37.987  32.677   7.950
 1489POPC   NC322187  40.411  28.147   9.344
 1489POPC   PO422188  39.968  28.656   9.406
 1489POPC   GL122189  39.786  28.391   9.068
 1489POPC   GL222190  40.062  28.172   8.981
 1489POPC   C1A22191  39.773  28.273   8.601
 1489POPC   D2A22192  39.551  28.046   8.286
 1489POPC   C3A22193  39.775  28.230   7.959
 1489POPC   C4A22194  39.907  28.636   7.875
 1489POPC   C1B22195  40.333  28.395   8.664
 1489POPC   C2B22196  40.319  28.672   8.277
 1489POPC   C3B22197  40.406  28.520   7.861
 1489POPC   C4B22198  40.249  28.100   7.781
 1490POPC   NC322199  14.658  13.627   9.405
 1490POPC   PO422200  14.079  13.493   9.693
 1490POPC   GL122201  14.121  13.609   9.177
 1490POPC   GL222202  14.286  13.890   9.129
 1490POPC   C1A22203  14.300  13.471   8.737
 1490POPC   D2A22204  14.574  13.498   8.386
 1490POPC   C3A22205  14.388  13.555   8.005
 1490POPC   C4A22206  14.492  13.843   7.720
 1490POPC   C1B22207  14.004  13.873   8.755
 1490POPC   C2B22208  14.038  13.695   8.338
 1490POPC   C3B22209  14.004  13.898   7.913
 1490POPC   C4B22210  14.061  13.952   7.445
 1491POPC   NC322211   9.842  35.241   9.451
 1491POPC   PO422212   9.698  35.863   9.504
 1491POPC   GL122213   9.754  35.627   9.072
 1491POPC   GL222214   9.681  35.234   8.945
 1491POPC   C1A22215   9.718  35.621   8.627
 1491POPC   D2A22216   9.745  35.184   8.410
 1491POPC   C3A22217   9.869  35.221   7.988
 1491POPC   C4A22218  10.037  35.471   7.653
 1491POPC   C1B22219   9.300  35.342   8.641
 1491POPC   C2B22220   9.403  35.525   8.198
 1491POPC   C3B22221   9.532  35.544   7.744
 1491POPC   C4B22222   9.446  35.476   7.280
 1492POPC   NC322223   9.953  12.335   9.380
 1492POPC   PO422224   9.428  11.964   9.479
 1492POPC   GL122225   9.615  11.935   9.077
 1492POPC   GL222226   9.704  12.288   8.961
 1492POPC   C1A22227   9.464  12.023   8.641
 1492POPC   D2A22228   9.603  12.349   8.355
 1492POPC   C3A22229   9.722  12.036   8.098
 1492POPC   C4A22230   9.525  11.912   7.723
 1492POPC   C1B22231   9.962  12.112   8.610
 1492POPC   C2B22232  10.188  12.320   8.320
 1492POPC   C3B22233  10.134  12.283   7.908
 1492POPC   C4B22234   9.785  12.347   7.706
 1493POPC   NC322235  10.130   5.971   9.615
 1493POPC   PO422236   9.506   5.800   9.583
 1493POPC   GL122237   9.846   5.663   9.327
 1493POPC   GL222238   9.886   5.996   9.166
 1493POPC   C1A22239   9.973   5.576   8.909
 1493POPC   D2A22240   9.713   5.549   8.546
 1493POPC   C3A22241   9.803   5.619   8.121
 1493POPC   C4A22242   9.545   5.617   7.750
 1493POPC   C1B22243   9.757   6.039   8.742
 1493POPC   C2B22244   9.931   6.093   8.316
 1493POPC   C3B22245   9.803   6.070   7.874
 1493POPC   C4B22246   9.927   6.338   7.527
 1494POPC   NC322247  11.939   3.522   9.563
 1494POPC   PO422248  12.374   4.018   9.495
 1494POPC   GL122249  12.168   3.720   9.149
 1494POPC   GL222250  12.226   3.327   9.172
 1494POPC   C1A22251  11.866   3.487   8.834
 1494POPC   D2A22252  11.680   3.362   8.425
 1494POPC   C3A22253  11.868   3.503   8.006
 1494POPC   C4A22254  12.103   3.411   7.606
 1494POPC   C1B22255  12.374   3.442   8.769
 1494POPC   C2B22256  12.191   3.470   8.404
 1494POPC   C3B22257  12.318   3.274   8.042
 1494POPC   C4B22258  12.567   3.596   7.787
 1495POPC   NC322259  25.559  39.477   9.718
 1495POPC   PO422260  25.073  39.129   9.431
 1495POPC   GL122261  25.298  39.320   9.106
 1495POPC   GL222262  25.020  39.272   8.909
 1495POPC   C1A22263  25.286  39.661   8.767
 1495POPC   D2A22264  25.029  39.642   8.451
 1495POPC   C3A22265  25.203  39.331   8.228
 1495POPC   C4A22266  25.149  39.493   7.807
 1495POPC   C1B22267  25.190  38.945   8.668
 1495POPC   C2B22268  25.062  38.738   8.277
 1495POPC   C3B22269  25.105  38.968   7.891
 1495POPC   C4B22270  25.515  39.150   7.786
 1496POPC   NC322271  24.446  37.163   9.627
 1496POPC   PO422272  24.249  37.737   9.527
 1496POPC   GL122273  24.446  37.772   9.149
 1496POPC   GL222274  24.806  37.818   9.163
 1496POPC   C1A22275  24.299  37.882   8.742
 1496POPC   D2A22276  24.498  37.858   8.339
 1496POPC   C3A22277  24.201  37.809   7.990
 1496POPC   C4A22278  24.243  37.599   7.561
 1496POPC   C1B22279  24.771  37.600   8.767
 1496POPC   C2B22280  24.697  37.376   8.367
 1496POPC   C3B22281  24.645  37.554   7.914
 1496POPC   C4B22282  24.726  37.611   7.430
 1497POPC   NC322283  10.239  18.518   9.392
 1497POPC   PO422284  10.798  18.447   9.618
 1497POPC   GL122285  10.593  18.260   9.157
 1497POPC   GL222286  10.339  18.489   8.917
 1497POPC   C1A22287  10.474  18.031   8.784
 1497POPC   D2A22288  10.742  17.962   8.416
 1497POPC   C3A22289  10.667  18.248   8.111
 1497POPC   C4A22290  10.307  18.262   7.816
 1497POPC   C1B22291  10.517  18.518   8.530
 1497POPC   C2B22292  10.914  18.661   8.390
 1497POPC   C3B22293  11.067  18.590   8.003
 1497POPC   C4B22294  10.778  18.450   7.661
 1498POPC   NC322295  22.617  21.513   9.366
 1498POPC   PO422296  22.042  21.127   9.402
 1498POPC   GL122297  21.975  21.311   9.036
 1498POPC   GL222298  22.323  21.329   9.008
 1498POPC   C1A22299  22.062  21.337   8.590
 1498POPC   D2A22300  22.158  21.545   8.216
 1498POPC   C3A22301  21.829  21.446   7.922
 1498POPC   C4A22302  21.859  21.288   7.510
 1498POPC   C1B22303  22.592  21.414   8.669
 1498POPC   C2B22304  22.689  21.735   8.392
 1498POPC   C3B22305  22.641  21.605   7.976
 1498POPC   C4B22306  22.285  21.630   7.677
 1499POPC   NC322307  35.606   9.966   9.541
 1499POPC   PO422308  35.088   9.532   9.580
 1499POPC   GL122309  35.314   9.708   9.207
 1499POPC   GL222310  35.566   9.477   9.142
 1499POPC   C1A22311  35.200   9.960   8.827
 1499POPC   D2A22312  35.269  10.189   8.452
 1499POPC   C3A22313  35.229   9.994   8.069
 1499POPC   C4A22314  35.485   9.940   7.755
 1499POPC   C1B22315  35.306   9.463   8.742
 1499POPC   C2B22316  35.252   9.582   8.347
 1499POPC   C3B22317  35.547   9.518   8.004
 1499POPC   C4B22318  35.495   9.342   7.556
 1500POPC   NC322319   1.935   7.767   9.503
 1500POPC   PO422320   1.555   7.159   9.313
 1500POPC   GL122321   1.822   7.418   9.150
 1500POPC   GL222322   2.125   7.312   9.266
 1500POPC   C1A22323   1.860   7.711   8.837
 1500POPC   D2A22324   1.843   7.554   8.433
 1500POPC   C3A22325   1.752   7.809   8.113
 1500POPC   C4A22326   1.765   7.680   7.717
 1500POPC   C1B22327   2.181   7.308   8.802
 1500POPC   C2B22328   2.352   7.444   8.405
 1500POPC   C3B22329   2.151   7.460   8.003
 1500POPC   C4B22330   2.248   7.156   7.697
 1501POPC   NC322331  17.761  23.644   9.441
 1501POPC   PO422332  17.417  24.119   9.600
 1501POPC   GL122333  17.640  24.044   9.160
 1501POPC   GL222334  17.441  23.841   8.896
 1501POPC   C1A22335  17.860  24.065   8.739
 1501POPC   D2A22336  17.626  23.983   8.350
 1501POPC   C3A22337  17.710  23.902   7.920
 1501POPC   C4A22338  17.412  24.015   7.559
 1501POPC   C1B22339  17.646  23.532   8.629
 1501POPC   C2B22340  17.852  23.497   8.253
 1501POPC   C3B22341  17.553  23.435   7.959
 1501POPC   C4B22342  17.476  23.507   7.556
 1502POPC   NC322343   4.992  44.910   9.511
 1502POPC   PO422344   5.400  44.364   9.550
 1502POPC   GL122345   5.175  44.409   9.167
 1502POPC   GL222346   4.815  44.536   9.177
 1502POPC   C1A22347   5.135  44.655   8.787
 1502POPC   D2A22348   4.947  44.612   8.402
 1502POPC   C3A22349   5.144  44.492   8.008
 1502POPC   C4A22350   5.009  44.426   7.562
 1502POPC   C1B22351   4.708  44.918   8.885
 1502POPC   C2B22352   4.552  44.916   8.433
 1502POPC   C3B22353   4.723  44.894   8.006
 1502POPC   C4B22354   5.066  44.915   7.718
 1503POPC   NC322355  44.903   8.140   9.609
 1503POPC   PO422356  44.310   8.345   9.640
 1503POPC   GL122357  44.504   8.284   9.233
 1503POPC   GL222358  44.454   8.602   9.128
 1503POPC   C1A22359  44.735   8.227   8.825
 1503POPC   D2A22360  44.841   7.856   8.545
 1503POPC   C3A22361  44.988   7.985   8.136
 1503POPC   C4A22362  44.775   8.003   7.719
 1503POPC   C1B22363  44.357   8.559   8.702
 1503POPC   C2B22364  44.571   8.593   8.366
 1503POPC   C3B22365  44.746   8.421   8.012
 1503POPC   C4B22366  44.823   8.622   7.634
 1504POPC   NC322367  21.298  16.524   9.595
 1504POPC   PO422368  21.457  17.133   9.452
 1504POPC   GL122369  21.531  16.781   9.192
 1504POPC   GL222370  21.814  16.622   9.301
 1504POPC   C1A22371  21.387  16.655   8.763
 1504POPC   D2A22372  21.470  16.775   8.329
 1504POPC   C3A22373  21.170  16.849   8.012
 1504POPC   C4A22374  20.937  16.617   7.719
 1504POPC   C1B22375  21.891  16.642   8.829
 1504POPC   C2B22376  21.969  16.832   8.411
 1504POPC   C3B22377  21.801  16.935   7.973
 1504POPC   C4B22378  21.533  16.677   7.688
 1505POPC   NC322379   1.264  24.453   9.492
 1505POPC   PO422380   0.805  24.011   9.217
 1505POPC   GL122381   1.104  24.307   9.015
 1505POPC   GL222382   1.201  24.668   9.045
 1505POPC   C1A22383   1.334  24.373   8.648
 1505POPC   D2A22384   1.267  24.461   8.255
 1505POPC   C3A22385   1.366  24.144   8.020
 1505POPC   C4A22386   1.243  24.218   7.625
 1505POPC   C1B22387   0.996  24.770   8.673
 1505POPC   C2B22388   1.099  24.945   8.297
 1505POPC   C3B22389   1.135  24.788   7.892
 1505POPC   C4B22390   0.951  24.617   7.567
 1506POPC   NC322391  33.155   6.941   9.522
 1506POPC   PO422392  32.850   7.634   9.523
 1506POPC   GL122393  33.022   7.567   9.145
 1506POPC   GL222394  32.721   7.407   9.044
 1506POPC   C1A22395  33.203   7.537   8.726
 1506POPC   D2A22396  33.170   7.761   8.321
 1506POPC   C3A22397  33.238   7.424   8.020
 1506POPC   C4A22398  33.100   7.079   7.798
 1506POPC   C1B22399  32.722   7.747   8.752
 1506POPC   C2B22400  32.640   7.597   8.374
 1506POPC   C3B22401  32.777   7.624   7.980
 1506POPC   C4B22402  32.867   7.474   7.566
 1507POPC   NC322403   7.579  41.992   9.523
 1507POPC   PO422404   7.176  42.607   9.385
 1507POPC   GL122405   7.336  42.441   9.016
 1507POPC   GL222406   7.607  42.312   9.125
 1507POPC   C1A22407   7.339  42.093   8.714
 1507POPC   D2A22408   7.244  41.892   8.332
 1507POPC   C3A22409   7.428  42.087   7.962
 1507POPC   C4A22410   7.280  42.262   7.565
 1507POPC   C1B22411   7.792  42.365   8.720
 1507POPC   C2B22412   7.676  42.403   8.294
 1507POPC   C3B22413   7.661  42.553   7.881
 1507POPC   C4B22414   7.786  42.299   7.516
 1508POPC   NC322415  35.170  33.977   9.352
 1508POPC   PO422416  35.433  33.402   9.504
 1508POPC   GL122417  35.485  33.663   9.114
 1508POPC   GL222418  35.169  33.703   8.934
 1508POPC   C1A22419  35.568  33.933   8.739
 1508POPC   D2A22420  35.407  33.779   8.355
 1508POPC   C3A22421  35.296  33.937   7.961
 1508POPC   C4A22422  35.190  33.851   7.538
 1508POPC   C1B22423  35.033  34.071   8.703
 1508POPC   C2B22424  34.807  34.248   8.343
 1508POPC   C3B22425  34.736  34.114   7.901
 1508POPC   C4B22426  34.893  34.252   7.496
 1509POPC   NC322427  33.445  40.652   9.416
 1509POPC   PO422428  34.149  40.789   9.481
 1509POPC   GL122429  33.861  40.871   9.167
 1509POPC   GL222430  33.811  40.568   9.019
 1509POPC   C1A22431  33.830  40.977   8.726
 1509POPC   D2A22432  34.085  40.976   8.367
 1509POPC   C3A22433  33.769  40.790   8.131
 1509POPC   C4A22434  33.634  40.872   7.718
 1509POPC   C1B22435  33.747  40.369   8.649
 1509POPC   C2B22436  33.432  40.571   8.436
 1509POPC   C3B22437  33.345  40.542   8.019
 1509POPC   C4B22438  33.268  40.532   7.611
 1510POPC   NC322439  44.117  44.891   9.596
 1510POPC   PO422440  43.729  44.374   9.598
 1510POPC   GL122441  43.911  44.574   9.198
 1510POPC   GL222442  44.035  44.922   9.111
 1510POPC   C1A22443  43.948  44.386   8.759
 1510POPC   D2A22444  43.827  44.073   8.411
 1510POPC   C3A22445  43.932  44.276   8.042
 1510POPC   C4A22446  43.957  44.369   7.620
 1510POPC   C1B22447  43.995  44.913   8.689
 1510POPC   C2B22448  44.113  44.690   8.320
 1510POPC   C3B22449  43.968  44.814   7.910
 1510POPC   C4B22450  44.039  44.874   7.486
 1511POPC   NC322451  17.136  23.253   9.447
 1511POPC   PO422452  17.568  22.792   9.642
 1511POPC   GL122453  17.657  22.989   9.233
 1511POPC   GL222454  17.539  23.319   9.112
 1511POPC   C1A22455  17.650  22.964   8.771
 1511POPC   D2A22456  17.759  22.740   8.402
 1511POPC   C3A22457  17.796  23.004   8.060
 1511POPC   C4A22458  17.631  23.021   7.625
 1511POPC   C1B22459  17.222  23.292   8.770
 1511POPC   C2B22460  17.336  23.144   8.355
 1511POPC   C3B22461  17.173  23.116   7.945
 1511POPC   C4B22462  17.143  23.103   7.492
 1512POPC   NC322463  27.183  32.832   9.413
 1512POPC   PO422464  27.870  32.717   9.413
 1512POPC   GL122465  27.593  32.919   9.109
 1512POPC   GL222466  27.254  32.764   8.927
 1512POPC   C1A22467  27.783  33.049   8.734
 1512POPC   D2A22468  27.886  32.829   8.372
 1512POPC   C3A22469  27.869  33.134   8.049
 1512POPC   C4A22470  27.703  32.985   7.676
 1512POPC   C1B22471  27.287  33.172   8.778
 1512POPC   C2B22472  27.448  33.304   8.390
 1512POPC   C3B22473  27.381  33.250   7.938
 1512POPC   C4B22474  27.206  33.419   7.548
 1513POPC   NC322475  35.078   3.905   9.557
 1513POPC   PO422476  35.567   3.426   9.613
 1513POPC   GL122477  35.518   3.448   9.185
 1513POPC   GL222478  35.178   3.511   9.229
 1513POPC   C1A22479  35.618   3.524   8.747
 1513POPC   D2A22480  35.469   3.752   8.385
 1513POPC   C3A22481  35.624   3.613   7.980
 1513POPC   C4A22482  35.621   3.310   7.648
 1513POPC   C1B22483  35.100   3.646   8.811
 1513POPC   C2B22484  35.094   3.413   8.414
 1513POPC   C3B22485  35.119   3.602   8.018
 1513POPC   C4B22486  35.248   3.656   7.612
 1514POPC   NC322487  36.103   1.789   9.439
 1514POPC   PO422488  36.501   2.250   9.408
 1514POPC   GL122489  36.200   2.254   9.073
 1514POPC   GL222490  36.132   1.918   8.960
 1514POPC   C1A22491  35.871   2.309   8.740
 1514POPC   D2A22492  35.751   2.217   8.288
 1514POPC   C3A22493  35.984   2.178   7.939
 1514POPC   C4A22494  35.967   1.991   7.513
 1514POPC   C1B22495  36.048   1.878   8.548
 1514POPC   C2B22496  36.297   1.746   8.257
 1514POPC   C3B22497  36.256   1.773   7.851
 1514POPC   C4B22498  36.466   2.088   7.606
 1515POPC   NC322499  15.826  32.368   9.629
 1515POPC   PO422500  16.457  32.523   9.433
 1515POPC   GL122501  16.124  32.289   9.187
 1515POPC   GL222502  15.766  32.418   9.136
 1515POPC   C1A22503  15.995  32.058   8.812
 1515POPC   D2A22504  15.652  31.896   8.546
 1515POPC   C3A22505  15.684  32.141   8.186
 1515POPC   C4A22506  15.998  32.126   7.858
 1515POPC   C1B22507  15.588  32.379   8.749
 1515POPC   C2B22508  15.825  32.587   8.459
 1515POPC   C3B22509  15.757  32.659   8.056
 1515POPC   C4B22510  15.438  32.450   7.822
 1516POPC   NC322511  40.534   5.366   9.467
 1516POPC   PO422512  40.846   4.748   9.448
 1516POPC   GL122513  40.859   5.079   9.178
 1516POPC   GL222514  40.519   5.072   9.044
 1516POPC   C1A22515  40.950   5.122   8.761
 1516POPC   D2A22516  40.782   4.866   8.434
 1516POPC   C3A22517  40.972   4.921   8.019
 1516POPC   C4A22518  41.018   5.195   7.678
 1516POPC   C1B22519  40.504   5.339   8.663
 1516POPC   C2B22520  40.650   5.331   8.241
 1516POPC   C3B22521  40.540   5.204   7.842
 1516POPC   C4B22522  40.458   5.409   7.452
 1517POPC   NC322523  28.918  23.475   9.484
 1517POPC   PO422524  28.990  24.143   9.300
 1517POPC   GL122525  29.122  23.736   9.095
 1517POPC   GL222526  28.847  23.452   8.986
 1517POPC   C1A22527  29.266  23.532   8.728
 1517POPC   D2A22528  29.050  23.366   8.352
 1517POPC   C3A22529  29.299  23.487   7.969
 1517POPC   C4A22530  29.222  23.642   7.547
 1517POPC   C1B22531  28.663  23.834   8.805
 1517POPC   C2B22532  28.639  24.022   8.404
 1517POPC   C3B22533  28.714  23.766   8.043
 1517POPC   C4B22534  28.750  23.912   7.636
 1518POPC   NC322535  39.390  40.917   9.529
 1518POPC   PO422536  38.931  40.392   9.537
 1518POPC   GL122537  39.062  40.622   9.183
 1518POPC   GL222538  39.407  40.585   9.144
 1518POPC   C1A22539  39.116  40.749   8.757
 1518POPC   D2A22540  38.978  40.904   8.393
 1518POPC   C3A22541  39.197  40.769   8.052
 1518POPC   C4A22542  39.091  40.609   7.700
 1518POPC   C1B22543  39.615  40.658   8.783
 1518POPC   C2B22544  39.570  40.879   8.407
 1518POPC   C3B22545  39.693  40.896   8.005
 1518POPC   C4B22546  39.505  40.882   7.611
 1519POPC   NC322547  42.176  41.178   9.453
 1519POPC   PO422548  42.071  41.789   9.520
 1519POPC   GL122549  42.238  41.595   9.166
 1519POPC   GL222550  42.569  41.406   9.185
 1519POPC   C1A22551  42.305  41.604   8.747
 1519POPC   D2A22552  42.253  41.814   8.367
 1519POPC   C3A22553  42.382  41.639   7.964
 1519POPC   C4A22554  42.104  41.742   7.643
 1519POPC   C1B22555  42.553  41.170   8.787
 1519POPC   C2B22556  42.471  41.309   8.359
 1519POPC   C3B22557  42.470  41.133   7.941
 1519POPC   C4B22558  42.711  41.240   7.586
 1520POPC   NC322559  11.786  27.471   9.488
 1520POPC   PO422560  12.454  27.337   9.403
 1520POPC   GL122561  12.358  27.518   9.045
 1520POPC   GL222562  12.046  27.623   9.067
 1520POPC   C1A22563  12.341  27.617   8.620
 1520POPC   D2A22564  12.626  27.570   8.312
 1520POPC   C3A22565  12.429  27.344   7.993
 1520POPC   C4A22566  12.147  27.516   7.735
 1520POPC   C1B22567  11.853  27.697   8.652
 1520POPC   C2B22568  11.904  27.588   8.212
 1520POPC   C3B22569  11.707  27.767   7.832
 1520POPC   C4B22570  11.916  27.882   7.452
 1521POPC   NC322571  18.287   1.328   9.523
 1521POPC   PO422572  18.805   1.776   9.417
 1521POPC   GL122573  18.552   1.443   9.126
 1521POPC   GL222574  18.520   1.054   9.145
 1521POPC   C1A22575  18.273   1.412   8.766
 1521POPC   D2A22576  18.081   1.453   8.349
 1521POPC   C3A22577  18.272   1.142   8.085
 1521POPC   C4A22578  18.400   1.009   7.670
 1521POPC   C1B22579  18.210   0.857   8.828
 1521POPC   C2B22580  17.902   0.991   8.483
 1521POPC   C3B22581  17.755   1.108   8.069
 1521POPC   C4B22582  17.868   0.950   7.645
 1522POPC   NC322583  28.168  40.246   9.505
 1522POPC   PO422584  28.634  39.776   9.410
 1522POPC   GL122585  28.444  40.007   9.128
 1522POPC   GL222586  28.527  40.312   9.102
 1522POPC   C1A22587  28.340  39.913   8.732
 1522POPC   D2A22588  28.242  40.074   8.353
 1522POPC   C3A22589  28.188  39.780   8.057
 1522POPC   C4A22590  28.491  39.722   7.725
 1522POPC   C1B22591  28.665  40.317   8.716
 1522POPC   C2B22592  28.793  40.163   8.350
 1522POPC   C3B22593  28.591  40.190   7.979
 1522POPC   C4B22594  28.279  40.455   7.875
 1523POPC   NC322595  18.504  13.490   9.585
 1523POPC   PO422596  17.979  13.094   9.418
 1523POPC   GL122597  18.309  13.354   9.094
 1523POPC   GL222598  18.432  13.674   9.104
 1523POPC   C1A22599  18.252  13.430   8.697
 1523POPC   D2A22600  18.387  13.557   8.367
 1523POPC   C3A22601  18.058  13.503   8.100
 1523POPC   C4A22602  18.251  13.717   7.833
 1523POPC   C1B22603  18.452  13.929   8.692
 1523POPC   C2B22604  18.518  14.038   8.225
 1523POPC   C3B22605  18.309  14.221   7.845
 1523POPC   C4B22606  18.025  14.022   7.501
 1524POPC   NC322607  42.591   1.589   9.832
 1524POPC   PO422608  42.220   2.134   9.619
 1524POPC   GL122609  42.305   2.109   9.178
 1524POPC   GL222610  42.248   1.809   8.974
 1524POPC   C1A22611  42.203   2.257   8.782
 1524POPC   D2A22612  41.966   2.031   8.456
 1524POPC   C3A22613  42.297   1.972   8.147
 1524POPC   C4A22614  42.703   2.092   7.934
 1524POPC   C1B22615  42.152   1.488   8.680
 1524POPC   C2B22616  42.245   1.438   8.292
 1524POPC   C3B22617  42.311   1.513   7.887
 1524POPC   C4B22618  42.364   1.864   7.641
 1525POPC   NC322619  20.182  35.523   9.472
 1525POPC   PO422620  20.020  34.900   9.413
 1525POPC   GL122621  20.029  35.207   9.087
 1525POPC   GL222622  19.689  35.326   9.082
 1525POPC   C1A22623  20.038  35.567   8.787
 1525POPC   D2A22624  19.782  35.571   8.419
 1525POPC   C3A22625  19.901  35.259   8.146
 1525POPC   C4A22626  19.979  35.215   7.714
 1525POPC   C1B22627  19.617  35.154   8.659
 1525POPC   C2B22628  19.388  35.223   8.259
 1525POPC   C3B22629  19.461  35.293   7.815
 1525POPC   C4B22630  19.575  35.273   7.367
 1526POPC   NC322631  27.571  24.378   9.469
 1526POPC   PO422632  27.571  25.094   9.495
 1526POPC   GL122633  27.550  24.809   9.107
 1526POPC   GL222634  27.747  24.529   9.021
 1526POPC   C1A22635  27.385  24.690   8.690
 1526POPC   D2A22636  27.609  24.680   8.306
 1526POPC   C3A22637  27.470  24.622   7.881
 1526POPC   C4A22638  27.810  24.719   7.625
 1526POPC   C1B22639  27.725  24.248   8.695
 1526POPC   C2B22640  27.595  24.178   8.326
 1526POPC   C3B22641  27.814  24.256   7.968
 1526POPC   C4B22642  27.690  24.244   7.597
 1527POPC   NC322643  15.727  20.426   9.533
 1527POPC   PO422644  15.846  20.963   9.890
 1527POPC   GL122645  15.740  20.903   9.332
 1527POPC   GL222646  15.688  20.632   9.064
 1527POPC   C1A22647  15.994  20.983   8.892
 1527POPC   D2A22648  16.198  20.838   8.513
 1527POPC   C3A22649  15.937  20.713   8.147
 1527POPC   C4A22650  15.851  20.791   7.713
 1527POPC   C1B22651  15.681  20.607   8.617
 1527POPC   C2B22652  15.483  20.365   8.271
 1527POPC   C3B22653  15.711  20.299   7.867
 1527POPC   C4B22654  15.979  20.331   7.480
 1528POPC   NC322655  38.050  27.792   9.481
 1528POPC   PO422656  38.709  27.609   9.572
 1528POPC   GL122657  38.435  27.517   9.234
 1528POPC   GL222658  38.671  27.248   9.192
 1528POPC   C1A22659  38.331  27.741   8.839
 1528POPC   D2A22660  38.501  27.793   8.415
 1528POPC   C3A22661  38.270  27.762   8.038
 1528POPC   C4A22662  38.256  27.854   7.608
 1528POPC   C1B22663  38.766  27.450   8.810
 1528POPC   C2B22664  38.790  27.349   8.400
 1528POPC   C3B22665  38.705  27.165   8.017
 1528POPC   C4B22666  38.429  27.351   7.724
 1529POPC   NC322667   3.238  36.571   9.452
 1529POPC   PO422668   2.738  36.124   9.690
 1529POPC   GL122669   2.698  36.058   9.251
 1529POPC   GL222670   3.036  36.080   9.164
 1529POPC   C1A22671   2.638  35.947   8.834
 1529POPC   D2A22672   2.609  36.133   8.447
 1529POPC   C3A22673   2.771  35.881   8.118
 1529POPC   C4A22674   2.630  36.012   7.703
 1529POPC   C1B22675   2.945  36.389   8.828
 1529POPC   C2B22676   3.017  36.445   8.376
 1529POPC   C3B22677   2.902  36.343   7.956
 1529POPC   C4B22678   2.904  36.379   7.475
 1530POPC   NC322679   0.094  18.017   9.340
 1530POPC   PO422680   0.642  18.453   9.557
 1530POPC   GL122681   0.525  18.255   9.215
 1530POPC   GL222682   0.647  17.894   9.328
 1530POPC   C1A22683   0.304  18.393   8.847
 1530POPC   D2A22684   0.106  18.532   8.437
 1530POPC   C3A22685   0.423  18.505   8.180
 1530POPC   C4A22686   0.435  18.341   7.780
 1530POPC   C1B22687   0.767  17.925   8.888
 1530POPC   C2B22688   0.635  18.168   8.519
 1530POPC   C3B22689   0.788  18.161   8.116
 1530POPC   C4B22690   0.856  18.039   7.720
 1531POPC   NC322691  23.244   2.728   9.597
 1531POPC   PO422692  22.687   3.036   9.388
 1531POPC   GL122693  23.071   2.979   9.136
 1531POPC   GL222694  23.098   2.649   9.110
 1531POPC   C1A22695  22.999   2.976   8.697
 1531POPC   D2A22696  22.638   2.739   8.551
 1531POPC   C3A22697  22.559   2.735   8.113
 1531POPC   C4A22698  22.703   2.557   7.759
 1531POPC   C1B22699  23.120   2.477   8.680
 1531POPC   C2B22700  23.104   2.575   8.234
 1531POPC   C3B22701  23.213   2.639   7.807
 1531POPC   C4B22702  23.108   2.420   7.433
 1532POPC   NC322703  23.313  32.410   9.387
 1532POPC   PO422704  23.925  32.225   9.529
 1532POPC   GL122705  23.691  32.154   9.176
 1532POPC   GL222706  23.799  32.500   9.102
 1532POPC   C1A22707  23.474  32.248   8.785
 1532POPC   D2A22708  23.583  32.432   8.432
 1532POPC   C3A22709  23.469  32.207   8.059
 1532POPC   C4A22710  23.453  32.359   7.650
 1532POPC   C1B22711  23.974  32.696   8.720
 1532POPC   C2B22712  24.023  32.650   8.267
 1532POPC   C3B22713  23.911  32.394   7.912
 1532POPC   C4B22714  23.903  32.466   7.474
 1533POPC   NC322715  17.530  21.528   9.527
 1533POPC   PO422716  17.194  20.941   9.439
 1533POPC   GL122717  17.385  21.193   9.120
 1533POPC   GL222718  17.304  21.526   9.066
 1533POPC   C1A22719  17.437  21.179   8.671
 1533POPC   D2A22720  17.520  21.437   8.328
 1533POPC   C3A22721  17.622  21.161   7.981
 1533POPC   C4A22722  17.539  21.197   7.550
 1533POPC   C1B22723  17.745  21.526   8.873
 1533POPC   C2B22724  17.920  21.742   8.518
 1533POPC   C3B22725  17.811  21.805   8.115
 1533POPC   C4B22726  17.480  21.649   7.846
 1534POPC   NC322727   4.207  27.321   9.685
 1534POPC   PO422728   3.819  27.877   9.460
 1534POPC   GL122729   4.173  27.739   9.211
 1534POPC   GL222730   4.518  27.772   9.270
 1534POPC   C1A22731   4.300  27.920   8.800
 1534POPC   D2A22732   4.098  27.846   8.440
 1534POPC   C3A22733   4.316  27.813   8.067
 1534POPC   C4A22734   4.181  27.558   7.745
 1534POPC   C1B22735   4.511  27.480   8.889
 1534POPC   C2B22736   4.577  27.532   8.416
 1534POPC   C3B22737   4.630  27.384   7.951
 1534POPC   C4B22738   4.659  27.345   7.454
 1535POPC   NC322739  11.036  31.371   9.548
 1535POPC   PO422740  11.695  31.384   9.453
 1535POPC   GL122741  11.446  31.253   9.124
 1535POPC   GL222742  11.098  31.213   9.082
 1535POPC   C1A22743  11.381  31.446   8.695
 1535POPC   D2A22744  11.364  31.729   8.333
 1535POPC   C3A22745  11.469  31.401   8.046
 1535POPC   C4A22746  11.246  31.116   7.781
 1535POPC   C1B22747  10.901  31.545   8.822
 1535POPC   C2B22748  10.960  31.423   8.374
 1535POPC   C3B22749  10.999  31.576   7.963
 1535POPC   C4B22750  10.800  31.749   7.617
 1536POPC   NC322751  29.007  27.247   9.420
 1536POPC   PO422752  29.269  26.617   9.424
 1536POPC   GL122753  28.966  26.793   9.161
 1536POPC   GL222754  29.213  27.022   8.983
 1536POPC   C1A22755  28.783  26.880   8.755
 1536POPC   D2A22756  29.143  26.899   8.459
 1536POPC   C3A22757  29.064  26.759   8.055
 1536POPC   C4A22758  29.049  26.859   7.618
 1536POPC   C1B22759  29.491  27.243   8.662
 1536POPC   C2B22760  29.641  27.195   8.270
 1536POPC   C3B22761  29.377  27.130   7.923
 1536POPC   C4B22762  29.361  27.261   7.506
 1537POPC   NC322763   0.078  22.469   9.458
 1537POPC   PO422764  44.505  22.133   9.590
 1537POPC   GL122765  44.753  22.161   9.189
 1537POPC   GL222766  44.451  22.283   9.098
 1537POPC   C1A22767  44.982  22.356   8.810
 1537POPC   D2A22768  44.893  22.509   8.378
 1537POPC   C3A22769   0.002  22.226   8.014
 1537POPC   C4A22770  44.964  21.953   7.659
 1537POPC   C1B22771  44.491  22.376   8.697
 1537POPC   C2B22772  44.376  22.171   8.331
 1537POPC   C3B22773  44.463  22.204   7.897
 1537POPC   C4B22774  44.400  22.121   7.463
 1538POPC   NC322775  30.118   9.300   9.410
 1538POPC   PO422776  29.776   8.714   9.431
 1538POPC   GL122777  29.818   8.973   9.127
 1538POPC   GL222778  30.171   8.904   9.074
 1538POPC   C1A22779  29.763   9.101   8.715
 1538POPC   D2A22780  29.638   8.934   8.347
 1538POPC   C3A22781  29.697   9.185   7.991
 1538POPC   C4A22782  29.660   9.009   7.558
 1538POPC   C1B22783  30.294   9.090   8.683
 1538POPC   C2B22784  30.156   9.148   8.240
 1538POPC   C3B22785  30.119   8.987   7.801
 1538POPC   C4B22786  30.109   8.773   7.402
 1539POPC   NC322787  12.531  35.181   9.601
 1539POPC   PO422788  13.204  35.351   9.711
 1539POPC   GL122789  13.013  35.157   9.269
 1539POPC   GL222790  12.637  35.090   9.121
 1539POPC   C1A22791  13.018  35.172   8.786
 1539POPC   D2A22792  13.078  35.462   8.449
 1539POPC   C3A22793  13.071  35.416   8.042
 1539POPC   C4A22794  13.118  35.008   7.860
 1539POPC   C1B22795  12.519  35.213   8.694
 1539POPC   C2B22796  12.705  35.076   8.293
 1539POPC   C3B22797  12.649  35.184   7.860
 1539POPC   C4B22798  12.429  35.533   7.703
 1540POPC   NC322799   0.126  21.027   9.559
 1540POPC   PO422800   0.612  21.492   9.670
 1540POPC   GL122801   0.370  21.416   9.259
 1540POPC   GL222802   0.014  21.324   9.171
 1540POPC   C1A22803   0.443  21.422   8.792
 1540POPC   D2A22804   0.612  21.226   8.397
 1540POPC   C3A22805   0.758  21.448   8.013
 1540POPC   C4A22806   0.751  21.411   7.560
 1540POPC   C1B22807  44.935  21.533   8.772
 1540POPC   C2B22808   0.107  21.543   8.360
 1540POPC   C3B22809   0.244  21.343   7.981
 1540POPC   C4B22810   0.259  21.519   7.586
 1541POPC   NC322811  29.801   2.812   9.614
 1541POPC   PO422812  29.079   2.742   9.533
 1541POPC   GL122813  29.041   2.800   9.089
 1541POPC   GL222814  29.279   3.051   8.933
 1541POPC   C1A22815  29.097   2.697   8.650
 1541POPC   D2A22816  29.428   2.674   8.377
 1541POPC   C3A22817  29.317   2.796   7.996
 1541POPC   C4A22818  29.066   2.607   7.681
 1541POPC   C1B22819  28.882   3.142   8.685
 1541POPC   C2B22820  28.863   3.035   8.205
 1541POPC   C3B22821  29.025   3.111   7.734
 1541POPC   C4B22822  28.948   3.343   7.332
 1542POPC   NC322823  10.785  12.297   9.393
 1542POPC   PO422824  11.408  12.299   9.520
 1542POPC   GL122825  11.386  11.997   9.156
 1542POPC   GL222826  11.050  11.898   9.155
 1542POPC   C1A22827  11.337  12.063   8.728
 1542POPC   D2A22828  11.191  12.362   8.487
 1542POPC   C3A22829  11.422  12.435   8.147
 1542POPC   C4A22830  11.467  12.213   7.749
 1542POPC   C1B22831  10.840  11.917   8.781
 1542POPC   C2B22832  10.960  11.856   8.367
 1542POPC   C3B22833  11.050  12.067   7.986
 1542POPC   C4B22834  10.887  11.914   7.584
 1543POPC   NC322835  24.260  38.173   9.409
 1543POPC   PO422836  24.873  38.328   9.482
 1543POPC   GL122837  24.641  38.521   9.175
 1543POPC   GL222838  24.778  38.853   9.089
 1543POPC   C1A22839  24.611  38.314   8.783
 1543POPC   D2A22840  24.848  38.255   8.399
 1543POPC   C3A22841  24.636  38.250   8.007
 1543POPC   C4A22842  24.514  38.023   7.658
 1543POPC   C1B22843  24.443  38.828   8.778
 1543POPC   C2B22844  24.261  38.532   8.461
 1543POPC   C3B22845  24.254  38.617   8.019
 1543POPC   C4B22846  24.624  38.764   7.812
 1544POPC   NC322847  44.931  29.561   9.248
 1544POPC   PO422848  44.428  30.036   9.501
 1544POPC   GL122849  44.535  29.934   9.096
 1544POPC   GL222850  44.863  30.044   9.094
 1544POPC   C1A22851  44.559  29.648   8.738
 1544POPC   D2A22852  44.844  29.473   8.402
 1544POPC   C3A22853  44.698  29.627   8.009
 1544POPC   C4A22854  44.415  29.656   7.657
 1544POPC   C1B22855  44.811  30.084   8.647
 1544POPC   C2B22856   0.106  29.957   8.333
 1544POPC   C3B22857   0.064  29.982   7.912
 1544POPC   C4B22858  44.660  30.097   7.762
 1545POPC   NC322859  34.047  10.246   9.381
 1545POPC   PO422860  33.658  10.733   9.403
 1545POPC   GL122861  33.853  10.633   9.051
 1545POPC   GL222862  34.200  10.630   9.091
 1545POPC   C1A22863  33.734  10.587   8.639
 1545POPC   D2A22864  33.835  10.395   8.259
 1545POPC   C3A22865  33.706  10.585   7.860
 1545POPC   C4A22866  33.608  10.351   7.471
 1545POPC   C1B22867  34.239  10.722   8.669
 1545POPC   C2B22868  34.249  10.710   8.238
 1545POPC   C3B22869  34.173  10.435   7.866
 1545POPC   C4B22870  34.103  10.522   7.386
 1546POPC   NC322871  20.510  19.920   9.447
 1546POPC   PO422872  21.167  19.769   9.461
 1546POPC   GL122873  20.919  20.016   9.154
 1546POPC   GL222874  20.767  20.353   9.149
 1546POPC   C1A22875  20.747  19.964   8.729
 1546POPC   D2A22876  20.693  20.064   8.291
 1546POPC   C3A22877  20.730  19.814   7.921
 1546POPC   C4A22878  20.989  19.788   7.565
 1546POPC   C1B22879  20.377  20.289   8.874
 1546POPC   C2B22880  20.193  20.159   8.445
 1546POPC   C3B22881  20.307  20.209   7.984
 1546POPC   C4B22882  20.212  20.445   7.587
 1547POPC   NC322883  11.819  12.118   9.385
 1547POPC   PO422884  12.362  12.536   9.334
 1547POPC   GL122885  12.113  12.344   9.040
 1547POPC   GL222886  12.144  11.945   9.010
 1547POPC   C1A22887  12.017  12.288   8.632
 1547POPC   D2A22888  12.190  11.948   8.428
 1547POPC   C3A22889  12.147  12.119   8.039
 1547POPC   C4A22890  12.201  11.920   7.665
 1547POPC   C1B22891  11.791  11.830   8.734
 1547POPC   C2B22892  11.692  12.012   8.307
 1547POPC   C3B22893  11.755  11.833   7.897
 1547POPC   C4B22894  11.759  11.938   7.411
 1548POPC   NC322895  28.508   2.803   9.564
 1548POPC   PO422896  28.018   2.927   9.151
 1548POPC   GL122897  28.456   2.840   9.032
 1548POPC   GL222898  28.597   2.521   9.152
 1548POPC   C1A22899  28.414   2.989   8.598
 1548POPC   D2A22900  28.051   2.892   8.333
 1548POPC   C3A22901  28.219   2.728   7.953
 1548POPC   C4A22902  28.557   2.933   7.801
 1548POPC   C1B22903  28.418   2.428   8.745
 1548POPC   C2B22904  28.595   2.574   8.363
 1548POPC   C3B22905  28.680   2.410   7.985
 1548POPC   C4B22906  28.577   2.471   7.587
 1549POPC   NC322907  14.541  30.822   9.569
 1549POPC   PO422908  13.885  31.055   9.659
 1549POPC   GL122909  14.182  30.760   9.237
 1549POPC   GL222910  14.546  30.882   9.078
 1549POPC   C1A22911  14.210  30.777   8.736
 1549POPC   D2A22912  14.287  30.975   8.345
 1549POPC   C3A22913  14.137  30.745   7.988
 1549POPC   C4A22914  14.118  30.865   7.577
 1549POPC   C1B22915  14.703  30.640   8.695
 1549POPC   C2B22916  14.557  30.554   8.254
 1549POPC   C3B22917  14.621  30.873   7.911
 1549POPC   C4B22918  14.609  30.881   7.445
 1550POPC   NC322919  33.541   7.765   9.427
 1550POPC   PO422920  33.599   7.085   9.505
 1550POPC   GL122921  33.913   7.268   9.238
 1550POPC   GL222922  34.029   7.010   9.035
 1550POPC   C1A22923  33.842   7.438   8.818
 1550POPC   D2A22924  33.936   7.275   8.404
 1550POPC   C3A22925  33.713   7.544   8.178
 1550POPC   C4A22926  33.672   7.630   7.777
 1550POPC   C1B22927  33.681   6.930   8.710
 1550POPC   C2B22928  33.505   7.033   8.265
 1550POPC   C3B22929  33.603   7.128   7.813
 1550POPC   C4B22930  33.830   6.944   7.485
 1551POPC   NC322931  42.155   2.600   9.718
 1551POPC   PO422932  42.509   3.121   9.723
 1551POPC   GL122933  42.318   2.922   9.300
 1551POPC   GL222934  42.503   2.591   9.218
 1551POPC   C1A22935  42.122   2.768   8.848
 1551POPC   D2A22936  42.078   2.540   8.388
 1551POPC   C3A22937  42.088   2.752   7.985
 1551POPC   C4A22938  42.269   2.982   7.642
 1551POPC   C1B22939  42.759   2.417   8.844
 1551POPC   C2B22940  42.710   2.266   8.425
 1551POPC   C3B22941  42.542   2.543   8.118
 1551POPC   C4B22942  42.503   2.525   7.686
 1552POPC   NC322943  34.114  30.948   9.460
 1552POPC   PO422944  33.465  30.713   9.525
 1552POPC   GL122945  33.763  30.707   9.161
 1552POPC   GL222946  33.916  30.391   9.028
 1552POPC   C1A22947  34.033  30.817   8.791
 1552POPC   D2A22948  34.023  30.587   8.411
 1552POPC   C3A22949  34.054  30.869   8.130
 1552POPC   C4A22950  33.741  30.836   7.879
 1552POPC   C1B22951  33.604  30.442   8.672
 1552POPC   C2B22952  33.577  30.445   8.188
 1552POPC   C3B22953  33.602  30.338   7.737
 1552POPC   C4B22954  33.513  30.287   7.287
 1553POPC   NC322955  20.081  40.622   9.231
 1553POPC   PO422956  20.002  41.217   9.463
 1553POPC   GL122957  19.920  41.181   9.026
 1553POPC   GL222958  20.251  41.070   8.994
 1553POPC   C1A22959  19.920  41.093   8.562
 1553POPC   D2A22960  20.165  40.920   8.187
 1553POPC   C3A22961  19.982  40.933   7.803
 1553POPC   C4A22962  19.634  40.727   7.607
 1553POPC   C1B22963  20.313  40.792   8.644
 1553POPC   C2B22964  20.141  40.442   8.436
 1553POPC   C3B22965  19.929  40.436   8.044
 1553POPC   C4B22966  20.206  40.474   7.748
 1554POPC   NC322967  30.588  26.660   9.526
 1554POPC   PO422968  30.437  27.356   9.460
 1554POPC   GL122969  30.789  27.096   9.248
 1554POPC   GL222970  30.885  26.720   9.144
 1554POPC   C1A22971  30.764  27.055   8.810
 1554POPC   D2A22972  30.431  26.997   8.544
 1554POPC   C3A22973  30.563  26.970   8.107
 1554POPC   C4A22974  30.995  27.058   7.946
 1554POPC   C1B22975  30.757  26.519   8.785
 1554POPC   C2B22976  30.602  26.529   8.383
 1554POPC   C3B22977  30.861  26.542   8.030
 1554POPC   C4B22978  30.734  26.694   7.677
 1555POPC   NC322979  19.226  30.844   9.528
 1555POPC   PO422980  18.619  30.559   9.380
 1555POPC   GL122981  18.923  30.770   9.110
 1555POPC   GL222982  19.250  30.589   9.091
 1555POPC   C1A22983  18.937  30.833   8.674
 1555POPC   D2A22984  18.707  30.764   8.290
 1555POPC   C3A22985  18.938  30.799   7.905
 1555POPC   C4A22986  18.861  30.592   7.521
 1555POPC   C1B22987  19.219  30.412   8.678
 1555POPC   C2B22988  19.221  30.554   8.260
 1555POPC   C3B22989  19.178  30.341   7.858
 1555POPC   C4B22990  19.293  30.121   7.469
 1556POPC   NC322991   3.717   9.109   9.509
 1556POPC   PO422992   3.162   8.727   9.673
 1556POPC   GL122993   3.359   8.886   9.210
 1556POPC   GL222994   3.159   9.094   9.059
 1556POPC   C1A22995   3.587   9.232   8.876
 1556POPC   D2A22996   3.734   9.451   8.512
 1556POPC   C3A22997   3.745   9.268   8.099
 1556POPC   C4A22998   3.953   9.104   7.694
 1556POPC   C1B22999   3.258   8.884   8.677
 1556POPC   C2B23000   3.245   9.012   8.230
 1556POPC   C3B23001   3.506   8.885   7.866
 1556POPC   C4B23002   3.507   9.125   7.455
 1557POPC   NC323003  43.287  13.622   9.514
 1557POPC   PO423004  42.721  13.469   9.280
 1557POPC   GL123005  42.852  13.768   8.989
 1557POPC   GL223006  43.195  13.770   9.042
 1557POPC   C1A23007  43.014  13.681   8.571
 1557POPC   D2A23008  43.359  13.437   8.466
 1557POPC   C3A23009  43.334  13.393   8.063
 1557POPC   C4A23010  42.989  13.699   7.933
 1557POPC   C1B23011  43.491  13.856   8.727
 1557POPC   C2B23012  43.649  13.852   8.313
 1557POPC   C3B23013  43.461  13.872   7.927
 1557POPC   C4B23014  43.248  13.861   7.510
 1558POPC   NC323015  21.589  21.072   9.373
 1558POPC   PO423016  21.336  21.720   9.395
 1558POPC   GL123017  21.344  21.416   9.059
 1558POPC   GL223018  21.218  21.067   9.050
 1558POPC   C1A23019  21.132  21.338   8.654
 1558POPC   D2A23020  21.046  21.378   8.278
 1558POPC   C3A23021  21.358  21.236   8.016
 1558POPC   C4A23022  21.127  21.428   7.723
 1558POPC   C1B23023  21.596  21.149   8.718
 1558POPC   C2B23024  21.799  21.015   8.295
 1558POPC   C3B23025  21.740  20.924   7.865
 1558POPC   C4B23026  21.414  21.036   7.551
 1559POPC   NC323027  12.166  44.289   9.464
 1559POPC   PO423028  11.874  44.879   9.547
 1559POPC   GL123029  12.026  44.686   9.188
 1559POPC   GL223030  11.796  44.421   9.138
 1559POPC   C1A23031  12.282  44.661   8.812
 1559POPC   D2A23032  12.235  44.856   8.409
 1559POPC   C3A23033  12.108  44.634   8.052
 1559POPC   C4A23034  11.809  44.681   7.721
 1559POPC   C1B23035  11.916  44.282   8.753
 1559POPC   C2B23036  11.769  44.358   8.345
 1559POPC   C3B23037  11.831  44.201   7.932
 1559POPC   C4B23038  12.170  44.329   7.633
 1560POPC   NC323039  26.457  31.009   9.419
 1560POPC   PO423040  26.933  31.455   9.426
 1560POPC   GL123041  26.830  31.269   9.090
 1560POPC   GL223042  27.103  31.050   9.055
 1560POPC   C1A23043  26.672  31.460   8.715
 1560POPC   D2A23044  26.670  31.813   8.430
 1560POPC   C3A23045  26.638  31.640   8.020
 1560POPC   C4A23046  26.736  31.504   7.604
 1560POPC   C1B23047  26.938  31.034   8.647
 1560POPC   C2B23048  26.686  31.072   8.283
 1560POPC   C3B23049  26.831  31.073   7.862
 1560POPC   C4B23050  27.049  31.111   7.448
 1561POPC   NC323051   8.481  39.325   9.368
 1561POPC   PO423052   7.896  39.106   9.270
 1561POPC   GL123053   8.163  38.905   9.039
 1561POPC   GL223054   8.529  38.890   9.129
 1561POPC   C1A23055   8.088  38.917   8.593
 1561POPC   D2A23056   8.019  39.333   8.397
 1561POPC   C3A23057   7.849  39.291   7.984
 1561POPC   C4A23058   8.012  39.206   7.533
 1561POPC   C1B23059   8.523  39.145   8.745
 1561POPC   C2B23060   8.501  39.139   8.321
 1561POPC   C3B23061   8.351  39.289   7.960
 1561POPC   C4B23062   8.417  38.995   7.727
 1562POPC   NC323063  31.295  42.355   9.690
 1562POPC   PO423064  31.900  42.099   9.465
 1562POPC   GL123065  31.707  42.171   9.070
 1562POPC   GL223066  31.438  42.355   9.185
 1562POPC   C1A23067  31.780  42.278   8.655
 1562POPC   D2A23068  31.719  42.419   8.249
 1562POPC   C3A23069  31.714  42.110   7.940
 1562POPC   C4A23070  31.438  42.160   7.599
 1562POPC   C1B23071  31.296  42.393   8.770
 1562POPC   C2B23072  31.223  42.589   8.396
 1562POPC   C3B23073  31.275  42.482   7.972
 1562POPC   C4B23074  31.257  42.668   7.546
 1563POPC   NC323075  12.852  37.835   9.542
 1563POPC   PO423076  12.890  37.139   9.607
 1563POPC   GL123077  12.846  37.427   9.228
 1563POPC   GL223078  13.097  37.704   9.104
 1563POPC   C1A23079  12.608  37.681   8.911
 1563POPC   D2A23080  12.504  37.702   8.464
 1563POPC   C3A23081  12.795  37.723   8.127
 1563POPC   C4A23082  12.629  37.480   7.780
 1563POPC   C1B23083  13.023  37.404   8.746
 1563POPC   C2B23084  13.106  37.334   8.315
 1563POPC   C3B23085  13.100  37.357   7.877
 1563POPC   C4B23086  13.078  37.369   7.420
 1564POPC   NC323087  25.832  27.144   9.491
 1564POPC   PO423088  26.183  27.717   9.764
 1564POPC   GL123089  26.102  27.660   9.251
 1564POPC   GL223090  25.936  27.416   9.098
 1564POPC   C1A23091  26.145  27.723   8.744
 1564POPC   D2A23092  26.329  27.789   8.319
 1564POPC   C3A23093  26.029  27.964   8.014
 1564POPC   C4A23094  25.901  27.744   7.642
 1564POPC   C1B23095  25.838  27.304   8.722
 1564POPC   C2B23096  25.872  27.522   8.343
 1564POPC   C3B23097  26.018  27.386   7.985
 1564POPC   C4B23098  25.987  27.137   7.628
 1565POPC   NC323099   0.670  12.579   9.570
 1565POPC   PO423100   0.259  13.091   9.653
 1565POPC   GL123101   0.186  12.845   9.284
 1565POPC   GL223102   0.002  13.037   9.051
 1565POPC   C1A23103   0.382  12.725   8.899
 1565POPC   D2A23104   0.594  12.812   8.530
 1565POPC   C3A23105   0.450  12.575   8.188
 1565POPC   C4A23106   0.512  12.708   7.784
 1565POPC   C1B23107   0.140  13.226   8.647
 1565POPC   C2B23108   0.253  13.066   8.215
 1565POPC   C3B23109   0.282  13.182   7.781
 1565POPC   C4B23110   0.137  13.177   7.358
 1566POPC   NC323111  37.304  13.984   9.344
 1566POPC   PO423112  37.499  14.551   9.658
 1566POPC   GL123113  37.602  14.652   9.226
 1566POPC   GL223114  37.682  14.329   9.149
 1566POPC   C1A23115  37.601  14.673   8.747
 1566POPC   D2A23116  37.627  14.452   8.347
 1566POPC   C3A23117  37.581  14.672   7.959
 1566POPC   C4A23118  37.481  14.475   7.539
 1566POPC   C1B23119  37.907  14.272   8.752
 1566POPC   C2B23120  38.122  14.220   8.386
 1566POPC   C3B23121  38.007  14.360   8.001
 1566POPC   C4B23122  37.938  14.193   7.588
 1567POPC   NC323123   8.348  42.841   9.340
 1567POPC   PO423124   7.958  42.370   9.508
 1567POPC   GL123125   8.093  42.480   9.116
 1567POPC   GL223126   7.907  42.783   9.045
 1567POPC   C1A23127   8.314  42.227   8.792
 1567POPC   D2A23128   8.526  42.079   8.404
 1567POPC   C3A23129   8.604  42.352   8.053
 1567POPC   C4A23130   8.520  42.139   7.662
 1567POPC   C1B23131   8.210  42.726   8.698
 1567POPC   C2B23132   8.181  42.444   8.358
 1567POPC   C3B23133   8.108  42.335   7.947
 1567POPC   C4B23134   8.090  42.671   7.650
 1568POPC   NC323135   3.126  31.228   9.885
 1568POPC   PO423136   2.663  31.412   9.461
 1568POPC   GL123137   2.755  31.297   9.062
 1568POPC   GL223138   3.079  31.387   9.146
 1568POPC   C1A23139   2.553  31.306   8.699
 1568POPC   D2A23140   2.669  31.495   8.339
 1568POPC   C3A23141   2.550  31.368   7.948
 1568POPC   C4A23142   2.696  31.591   7.584
 1568POPC   C1B23143   3.161  31.209   8.760
 1568POPC   C2B23144   3.178  31.363   8.352
 1568POPC   C3B23145   3.088  31.400   7.911
 1568POPC   C4B23146   2.894  31.119   7.610
 1569POPC   NC323147   2.011  22.644   9.536
 1569POPC   PO423148   1.746  23.192   9.226
 1569POPC   GL123149   1.841  22.850   9.018
 1569POPC   GL223150   2.182  22.846   9.116
 1569POPC   C1A23151   1.647  22.815   8.611
 1569POPC   D2A23152   1.883  22.711   8.234
 1569POPC   C3A23153   2.036  23.056   7.965
 1569POPC   C4A23154   1.711  23.323   7.785
 1569POPC   C1B23155   2.365  22.741   8.732
 1569POPC   C2B23156   2.349  22.509   8.368
 1569POPC   C3B23157   2.395  22.626   7.944
 1569POPC   C4B23158   2.266  22.736   7.538
 1570POPC   NC323159  36.284  39.720   9.687
 1570POPC   PO423160  36.144  39.124   9.595
 1570POPC   GL123161  36.290  39.145   9.190
 1570POPC   GL223162  36.500  39.462   9.215
 1570POPC   C1A23163  36.112  39.066   8.763
 1570POPC   D2A23164  35.865  39.209   8.410
 1570POPC   C3A23165  36.045  39.194   8.011
 1570POPC   C4A23166  35.995  39.532   7.744
 1570POPC   C1B23167  36.156  39.563   8.960
 1570POPC   C2B23168  36.256  39.516   8.527
 1570POPC   C3B23169  36.385  39.574   8.104
 1570POPC   C4B23170  36.464  39.339   7.725
 1571POPC   NC323171  36.602  41.616   9.718
 1571POPC   PO423172  36.884  41.226   9.252
 1571POPC   GL123173  36.659  41.615   9.175
 1571POPC   GL223174  36.376  41.384   9.277
 1571POPC   C1A23175  36.895  41.755   8.780
 1571POPC   D2A23176  37.055  41.519   8.410
 1571POPC   C3A23177  37.068  41.693   7.983
 1571POPC   C4A23178  37.069  41.777   7.522
 1571POPC   C1B23179  36.349  41.426   8.827
 1571POPC   C2B23180  36.437  41.280   8.448
 1571POPC   C3B23181  36.574  41.453   8.030
 1571POPC   C4B23182  36.807  41.352   7.669
 1572POPC   NC323183  23.025  29.566   9.489
 1572POPC   PO423184  22.648  29.096   9.609
 1572POPC   GL123185  22.981  29.068   9.236
 1572POPC   GL223186  23.273  29.290   9.132
 1572POPC   C1A23187  23.094  28.946   8.782
 1572POPC   D2A23188  22.936  29.100   8.358
 1572POPC   C3A23189  23.108  28.919   7.962
 1572POPC   C4A23190  23.222  28.733   7.555
 1572POPC   C1B23191  23.141  29.455   8.732
 1572POPC   C2B23192  23.077  29.630   8.339
 1572POPC   C3B23193  23.069  29.428   7.931
 1572POPC   C4B23194  23.118  29.228   7.517
 1573POPC   NC323195  18.170  10.900   9.484
 1573POPC   PO423196  18.415  10.228   9.533
 1573POPC   GL123197  18.164  10.463   9.195
 1573POPC   GL223198  18.436  10.402   8.994
 1573POPC   C1A23199  18.085  10.615   8.722
 1573POPC   D2A23200  18.331  10.593   8.333
 1573POPC   C3A23201  18.122  10.471   7.963
 1573POPC   C4A23202  18.103  10.801   7.683
 1573POPC   C1B23203  18.587  10.242   8.620
 1573POPC   C2B23204  18.762  10.330   8.191
 1573POPC   C3B23205  18.590  10.570   7.837
 1573POPC   C4B23206  18.363  10.408   7.466
 1574POPC   NC323207  28.352   9.148   9.496
 1574POPC   PO423208  28.490   9.785   9.573
 1574POPC   GL123209  28.508   9.556   9.179
 1574POPC   GL223210  28.169   9.500   9.117
 1574POPC   C1A23211  28.622   9.502   8.739
 1574POPC   D2A23212  28.514   9.729   8.314
 1574POPC   C3A23213  28.656   9.601   7.876
 1574POPC   C4A23214  28.361   9.426   7.549
 1574POPC   C1B23215  28.208   9.796   8.781
 1574POPC   C2B23216  28.047   9.920   8.359
 1574POPC   C3B23217  28.170   9.792   7.918
 1574POPC   C4B23218  28.005   9.809   7.511
 1575POPC   NC323219  44.324  40.036   9.575
 1575POPC   PO423220  44.928  39.935   9.509
 1575POPC   GL123221  44.712  40.049   9.158
 1575POPC   GL223222  44.746  40.402   9.218
 1575POPC   C1A23223  44.707  39.882   8.726
 1575POPC   D2A23224  44.862  39.900   8.293
 1575POPC   C3A23225  44.593  39.853   7.890
 1575POPC   C4A23226  44.753  39.655   7.480
 1575POPC   C1B23227  44.642  40.396   8.771
 1575POPC   C2B23228  44.884  40.425   8.389
 1575POPC   C3B23229  44.764  40.345   7.957
 1575POPC   C4B23230  44.545  40.319   7.568
 1576POPC   NC323231  12.035   2.403   9.521
 1576POPC   PO423232  12.010   3.072   9.564
 1576POPC   GL123233  11.919   2.815   9.214
 1576POPC   GL223234  11.720   3.063   9.074
 1576POPC   C1A23235  12.085   2.524   8.886
 1576POPC   D2A23236  12.061   2.429   8.466
 1576POPC   C3A23237  12.275   2.666   8.138
 1576POPC   C4A23238  12.310   2.432   7.771
 1576POPC   C1B23239  12.006   3.008   8.724
 1576POPC   C2B23240  11.862   2.903   8.324
 1576POPC   C3B23241  11.890   2.999   7.888
 1576POPC   C4B23242  12.266   2.930   7.662
 1577POPC   NC323243   4.026  18.465   9.494
 1577POPC   PO423244   4.154  17.866   9.756
 1577POPC   GL123245   4.278  18.071   9.269
 1577POPC   GL223246   4.486  18.341   9.193
 1577POPC   C1A23247   4.198  18.332   8.796
 1577POPC   D2A23248   4.366  18.387   8.348
 1577POPC   C3A23249   4.042  18.206   8.042
 1577POPC   C4A23250   3.915  18.332   7.644
 1577POPC   C1B23251   4.699  18.527   8.824
 1577POPC   C2B23252   4.872  18.544   8.401
 1577POPC   C3B23253   4.776  18.421   7.976
 1577POPC   C4B23254   4.374  18.487   7.819
 1578POPC   NC323255  35.677  36.897   9.449
 1578POPC   PO423256  36.384  37.107   9.337
 1578POPC   GL123257  36.198  37.278   8.976
 1578POPC   GL223258  35.846  37.189   9.051
 1578POPC   C1A23259  36.040  37.126   8.567
 1578POPC   D2A23260  36.085  36.675   8.450
 1578POPC   C3A23261  36.200  36.600   8.029
 1578POPC   C4A23262  36.021  36.746   7.660
 1578POPC   C1B23263  35.702  36.817   8.807
 1578POPC   C2B23264  35.591  36.760   8.387
 1578POPC   C3B23265  35.777  36.955   8.058
 1578POPC   C4B23266  35.733  37.248   7.728
 1579POPC   NC323267  29.595  35.407   9.843
 1579POPC   PO423268  30.200  35.243   9.487
 1579POPC   GL123269  29.784  35.215   9.278
 1579POPC   GL223270  29.689  35.558   9.287
 1579POPC   C1A23271  29.633  35.187   8.828
 1579POPC   D2A23272  29.944  35.308   8.471
 1579POPC   C3A23273  30.013  35.194   8.042
 1579POPC   C4A23274  29.685  35.414   7.876
 1579POPC   C1B23275  29.944  35.600   8.909
 1579POPC   C2B23276  29.979  35.869   8.540
 1579POPC   C3B23277  29.950  35.908   8.121
 1579POPC   C4B23278  30.128  35.655   7.838
 1580POPC   NC323279  28.583  12.731   9.552
 1580POPC   PO423280  28.178  13.332   9.416
 1580POPC   GL123281  28.436  13.091   9.170
 1580POPC   GL223282  28.336  12.751   9.116
 1580POPC   C1A23283  28.431  13.052   8.723
 1580POPC   D2A23284  28.393  12.888   8.321
 1580POPC   C3A23285  28.191  13.133   8.010
 1580POPC   C4A23286  28.406  12.892   7.689
 1580POPC   C1B23287  28.441  12.514   8.746
 1580POPC   C2B23288  28.223  12.408   8.372
 1580POPC   C3B23289  28.432  12.459   7.971
 1580POPC   C4B23290  28.376  12.300   7.548
 1581POPC   NC323291  41.220  17.730   9.381
 1581POPC   PO423292  41.764  17.314   9.388
 1581POPC   GL123293  41.469  17.313   9.057
 1581POPC   GL223294  41.495  17.677   8.949
 1581POPC   C1A23295  41.534  17.301   8.610
 1581POPC   D2A23296  41.644  17.496   8.250
 1581POPC   C3A23297  41.459  17.517   7.885
 1581POPC   C4A23298  41.669  17.494   7.532
 1581POPC   C1B23299  41.282  17.755   8.530
 1581POPC   C2B23300  41.393  17.982   8.133
 1581POPC   C3B23301  41.383  18.003   7.670
 1581POPC   C4B23302  41.401  17.785   7.224
 1582POPC   NC323303  42.365  31.383   9.688
 1582POPC   PO423304  42.696  31.931   9.305
 1582POPC   GL123305  42.400  31.744   9.018
 1582POPC   GL223306  42.233  31.428   9.137
 1582POPC   C1A23307  42.269  31.591   8.629
 1582POPC   D2A23308  42.273  31.801   8.236
 1582POPC   C3A23309  42.474  31.588   7.898
 1582POPC   C4A23310  42.186  31.581   7.624
 1582POPC   C1B23311  42.280  31.087   8.818
 1582POPC   C2B23312  42.407  30.994   8.414
 1582POPC   C3B23313  42.230  31.184   8.083
 1582POPC   C4B23314  42.247  31.076   7.683
 1583POPC   NC323315  43.442  44.734   9.484
 1583POPC   PO423316  42.887  44.442   9.228
 1583POPC   GL123317  43.233  44.543   9.058
 1583POPC   GL223318  43.474  44.292   9.176
 1583POPC   C1A23319  43.151  44.738   8.683
 1583POPC   D2A23320  42.769  44.696   8.433
 1583POPC   C3A23321  42.946  44.738   8.043
 1583POPC   C4A23322  43.091   0.062   7.780
 1583POPC   C1B23323  43.463  44.215   8.750
 1583POPC   C2B23324  43.399  44.376   8.357
 1583POPC   C3B23325  43.365  44.264   7.942
 1583POPC   C4B23326  43.256  44.582   7.646
 1584POPC   NC323327  17.062   4.076   9.407
 1584POPC   PO423328  17.769   4.222   9.535
 1584POPC   GL123329  17.802   4.125   9.150
 1584POPC   GL223330  17.474   4.007   9.083
 1584POPC   C1A23331  17.843   4.274   8.761
 1584POPC   D2A23332  17.580   4.174   8.431
 1584POPC   C3A23333  17.627   4.462   8.095
 1584POPC   C4A23334  17.719   4.404   7.675
 1584POPC   C1B23335  17.196   3.940   8.703
 1584POPC   C2B23336  17.101   4.075   8.251
 1584POPC   C3B23337  17.203   4.264   7.827
 1584POPC   C4B23338  16.988   4.216   7.405
 1585POPC   NC323339  25.526   3.155   9.517
 1585POPC   PO423340  25.106   2.678   9.470
 1585POPC   GL123341  25.457   2.693   9.141
 1585POPC   GL223342  25.359   2.943   9.098
 1585POPC   C1A23343  25.544   2.815   8.673
 1585POPC   D2A23344  25.448   3.045   8.293
 1585POPC   C3A23345  25.547   2.812   7.946
 1585POPC   C4A23346  25.456   2.772   7.525
 1585POPC   C1B23347  25.056   2.696   8.812
 1585POPC   C2B23348  25.141   2.615   8.428
 1585POPC   C3B23349  25.087   2.622   8.032
 1585POPC   C4B23350  25.199   2.383   7.721
 1586POPC   NC323351  11.487  10.034   9.590
 1586POPC   PO423352  11.037   9.545   9.461
 1586POPC   GL123353  11.236   9.784   9.179
 1586POPC   GL223354  11.595   9.769   9.176
 1586POPC   C1A23355  11.200   9.862   8.771
 1586POPC   D2A23356  11.331  10.037   8.400
 1586POPC   C3A23357  11.142   9.938   8.026
 1586POPC   C4A23358  11.301   9.884   7.633
 1586POPC   C1B23359  11.593   9.555   8.790
 1586POPC   C2B23360  11.388   9.527   8.390
 1586POPC   C3B23361  11.552   9.611   8.005
 1586POPC   C4B23362  11.475   9.402   7.650
 1587POPC   NC323363  17.254  42.143   9.362
 1587POPC   PO423364  17.575  42.659   9.564
 1587POPC   GL123365  17.611  42.458   9.164
 1587POPC   GL223366  17.786  42.148   9.209
 1587POPC   C1A23367  17.360  42.496   8.756
 1587POPC   D2A23368  17.303  42.571   8.292
 1587POPC   C3A23369  17.469  42.714   7.869
 1587POPC   C4A23370  17.391  42.480   7.454
 1587POPC   C1B23371  17.676  42.081   8.753
 1587POPC   C2B23372  17.495  42.099   8.307
 1587POPC   C3B23373  17.590  42.212   7.852
 1587POPC   C4B23374  17.760  42.123   7.421
 1588POPC   NC323375  41.570  28.499   9.555
 1588POPC   PO423376  41.448  27.902   9.485
 1588POPC   GL123377  41.410  28.108   9.057
 1588POPC   GL223378  41.604  28.443   9.041
 1588POPC   C1A23379  41.627  28.139   8.642
 1588POPC   D2A23380  41.820  28.547   8.499
 1588POPC   C3A23381  41.891  28.685   8.057
 1588POPC   C4A23382  41.742  28.521   7.646
 1588POPC   C1B23383  41.257  28.464   8.687
 1588POPC   C2B23384  41.213  28.178   8.295
 1588POPC   C3B23385  41.335  28.320   7.882
 1588POPC   C4B23386  41.377  28.772   7.943
 1589POPC   NC323387  43.479   4.516   9.833
 1589POPC   PO423388  43.857   4.098   9.455
 1589POPC   GL123389  43.974   4.079   9.015
 1589POPC   GL223390  44.320   3.936   8.929
 1589POPC   C1A23391  43.958   4.045   8.581
 1589POPC   D2A23392  43.879   4.305   8.297
 1589POPC   C3A23393  43.803   4.208   7.915
 1589POPC   C4A23394  43.752   4.483   7.624
 1589POPC   C1B23395  44.410   4.321   8.754
 1589POPC   C2B23396  44.301   4.541   8.402
 1589POPC   C3B23397  44.313   4.361   7.999
 1589POPC   C4B23398  44.313   4.429   7.575
 1590POPC   NC323399  39.388  40.246   9.537
 1590POPC   PO423400  39.110  39.764   9.869
 1590POPC   GL123401  39.029  39.806   9.290
 1590POPC   GL223402  39.129  40.104   9.146
 1590POPC   C1A23403  38.847  39.837   8.843
 1590POPC   D2A23404  39.086  39.962   8.444
 1590POPC   C3A23405  38.998  39.815   8.020
 1590POPC   C4A23406  39.029  39.963   7.597
 1590POPC   C1B23407  39.312  40.240   8.801
 1590POPC   C2B23408  39.348  40.420   8.410
 1590POPC   C3B23409  39.317  40.236   8.005
 1590POPC   C4B23410  39.610  40.413   7.738
 1591POPC   NC323411  28.254  15.704   9.770
 1591POPC   PO423412  28.821  15.691   9.636
 1591POPC   GL123413  28.518  15.901   9.312
 1591POPC   GL223414  28.174  15.758   9.198
 1591POPC   C1A23415  28.547  15.829   8.849
 1591POPC   D2A23416  28.442  15.641   8.439
 1591POPC   C3A23417  28.400  15.998   8.185
 1591POPC   C4A23418  28.539  16.139   7.794
 1591POPC   C1B23419  28.019  15.812   8.728
 1591POPC   C2B23420  27.938  15.765   8.239
 1591POPC   C3B23421  28.037  15.952   7.811
 1591POPC   C4B23422  27.863  15.927   7.380
 1592POPC   NC323423  28.773  35.125   9.348
 1592POPC   PO423424  29.222  35.549   9.543
 1592POPC   GL123425  29.258  35.303   9.185
 1592POPC   GL223426  29.310  34.959   9.299
 1592POPC   C1A23427  29.175  35.464   8.773
 1592POPC   D2A23428  28.844  35.425   8.468
 1592POPC   C3A23429  28.987  35.301   8.059
 1592POPC   C4A23430  29.207  35.565   7.757
 1592POPC   C1B23431  29.151  34.905   8.861
 1592POPC   C2B23432  29.247  35.044   8.459
 1592POPC   C3B23433  29.461  35.010   8.087
 1592POPC   C4B23434  29.261  35.055   7.680
 1593POPC   NC323435  11.821  18.044   9.566
 1593POPC   PO423436  11.741  18.728   9.442
 1593POPC   GL123437  11.883  18.393   9.175
 1593POPC   GL223438  12.201  18.303   9.162
 1593POPC   C1A23439  11.846  18.193   8.774
 1593POPC   D2A23440  11.778  18.036   8.370
 1593POPC   C3A23441  12.013  18.256   8.047
 1593POPC   C4A23442  11.727  18.096   7.767
 1593POPC   C1B23443  12.380  18.238   8.738
 1593POPC   C2B23444  12.658  18.529   8.488
 1593POPC   C3B23445  12.570  18.415   8.060
 1593POPC   C4B23446  12.434  18.137   7.746
 1594POPC   NC323447  29.440  33.653   9.616
 1594POPC   PO423448  29.013  34.039   9.587
 1594POPC   GL123449  29.019  33.889   9.175
 1594POPC   GL223450  29.351  33.978   9.197
 1594POPC   C1A23451  29.097  33.683   8.769
 1594POPC   D2A23452  29.115  33.408   8.383
 1594POPC   C3A23453  29.156  33.469   7.951
 1594POPC   C4A23454  28.973  33.747   7.679
 1594POPC   C1B23455  29.453  34.084   8.785
 1594POPC   C2B23456  29.242  34.016   8.389
 1594POPC   C3B23457  29.077  34.167   8.017
 1594POPC   C4B23458  29.281  34.150   7.636
 1595POPC   NC323459  33.320  17.705   9.572
 1595POPC   PO423460  32.737  17.447   9.806
 1595POPC   GL123461  32.907  17.536   9.339
 1595POPC   GL223462  32.856  17.850   9.167
 1595POPC   C1A23463  33.091  17.505   8.871
 1595POPC   D2A23464  33.021  17.456   8.389
 1595POPC   C3A23465  33.294  17.387   8.022
 1595POPC   C4A23466  33.018  17.397   7.669
 1595POPC   C1B23467  33.243  17.988   8.928
 1595POPC   C2B23468  33.350  17.834   8.509
 1595POPC   C3B23469  33.393  17.887   8.088
 1595POPC   C4B23470  33.301  17.811   7.684
 1596POPC   NC323471  29.339  35.949   9.366
 1596POPC   PO423472  29.483  36.568   9.321
 1596POPC   GL123473  29.276  36.336   9.011
 1596POPC   GL223474  28.925  36.293   9.065
 1596POPC   C1A23475  29.210  36.010   8.688
 1596POPC   D2A23476  29.184  35.880   8.254
 1596POPC   C3A23477  29.102  36.245   7.998
 1596POPC   C4A23478  29.259  36.307   7.587
 1596POPC   C1B23479  28.756  35.907   8.896
 1596POPC   C2B23480  28.684  35.909   8.438
 1596POPC   C3B23481  28.738  35.750   8.031
 1596POPC   C4B23482  28.886  35.948   7.654
 1597POPC   NC323483   9.941  40.798   9.489
 1597POPC   PO423484   9.282  40.574   9.578
 1597POPC   GL123485   9.581  40.563   9.204
 1597POPC   GL223486   9.946  40.482   9.086
 1597POPC   C1A23487   9.582  40.743   8.810
 1597POPC   D2A23488   9.403  40.644   8.407
 1597POPC   C3A23489   9.428  41.002   8.165
 1597POPC   C4A23490   9.729  41.028   7.862
 1597POPC   C1B23491  10.068  40.661   8.706
 1597POPC   C2B23492   9.905  40.792   8.329
 1597POPC   C3B23493  10.138  40.755   7.947
 1597POPC   C4B23494   9.971  40.627   7.580
 1598POPC   NC323495   5.859   0.095   9.504
 1598POPC   PO423496   6.347   0.527   9.366
 1598POPC   GL123497   6.016   0.349   9.079
 1598POPC   GL223498   6.060  44.980   9.041
 1598POPC   C1A23499   5.789   0.476   8.665
 1598POPC   D2A23500   5.639   0.375   8.219
 1598POPC   C3A23501   5.621   0.709   7.877
 1598POPC   C4A23502   5.613   0.728   7.421
 1598POPC   C1B23503   5.945  44.987   8.598
 1598POPC   C2B23504   6.051   0.046   8.162
 1598POPC   C3B23505   5.956   0.325   7.796
 1598POPC   C4B23506   6.210   0.402   7.436
 1599POPC   NC323507   9.188  35.016   9.559
 1599POPC   PO423508   8.918  34.420   9.405
 1599POPC   GL123509   8.939  34.627   9.024
 1599POPC   GL223510   9.242  34.888   9.046
 1599POPC   C1A23511   8.850  34.455   8.599
 1599POPC   D2A23512   9.042  34.433   8.172
 1599POPC   C3A23513   8.833  34.226   7.802
 1599POPC   C4A23514   8.594  34.435   7.466
 1599POPC   C1B23515   9.338  34.592   8.717
 1599POPC   C2B23516   9.515  34.585   8.331
 1599POPC   C3B23517   9.443  34.769   7.935
 1599POPC   C4B23518   9.100  34.625   7.671
 1600POPC   NC323519  10.502  36.704   9.767
 1600POPC   PO423520  10.664  36.094   9.523
 1600POPC   GL123521  10.538  36.188   9.174
 1600POPC   GL223522  10.303  36.447   9.282
 1600POPC   C1A23523  10.689  35.995   8.804
 1600POPC   D2A23524  10.583  35.779   8.431
 1600POPC   C3A23525  10.735  35.961   8.062
 1600POPC   C4A23526  10.628  35.902   7.665
 1600POPC   C1B23527  10.292  36.390   8.793
 1600POPC   C2B23528  10.518  36.314   8.394
 1600POPC   C3B23529  10.369  36.370   7.949
 1600POPC   C4B23530  10.040  36.510   7.647
 1601POPC   NC323531  28.221   7.650   9.544
 1601POPC   PO423532  28.720   7.338   9.472
 1601POPC   GL123533  28.434   7.356   9.149
 1601POPC   GL223534  28.393   7.708   9.085
 1601POPC   C1A23535  28.523   7.286   8.721
 1601POPC   D2A23536  28.231   7.312   8.336
 1601POPC   C3A23537  28.306   7.109   7.947
 1601POPC   C4A23538  28.556   7.223   7.596
 1601POPC   C1B23539  28.180   7.638   8.723
 1601POPC   C2B23540  28.271   7.820   8.326
 1601POPC   C3B23541  28.374   7.624   7.929
 1601POPC   C4B23542  28.184   7.557   7.553
 1602POPC   NC323543  22.922  37.253   9.349
 1602POPC   PO423544  23.109  36.664   9.693
 1602POPC   GL123545  23.147  36.825   9.195
 1602POPC   GL223546  22.833  36.856   8.941
 1602POPC   C1A23547  23.241  36.987   8.710
 1602POPC   D2A23548  22.900  36.870   8.428
 1602POPC   C3A23549  22.974  37.002   8.043
 1602POPC   C4A23550  23.282  36.913   7.771
 1602POPC   C1B23551  22.714  37.256   8.687
 1602POPC   C2B23552  22.556  37.422   8.254
 1602POPC   C3B23553  22.577  37.237   7.822
 1602POPC   C4B23554  22.609  37.215   7.353
 1603POPC   NC323555  12.762  33.644   9.419
 1603POPC   PO423556  13.042  34.250   9.416
 1603POPC   GL123557  12.774  34.032   9.115
 1603POPC   GL223558  13.088  33.852   9.070
 1603POPC   C1A23559  12.769  33.693   8.731
 1603POPC   D2A23560  12.972  33.549   8.332
 1603POPC   C3A23561  12.788  33.793   7.973
 1603POPC   C4A23562  12.589  33.830   7.561
 1603POPC   C1B23563  13.301  33.723   8.716
 1603POPC   C2B23564  13.467  33.767   8.289
 1603POPC   C3B23565  13.280  33.668   7.902
 1603POPC   C4B23566  13.127  33.860   7.503
 1604POPC   NC323567  44.883  31.228   9.408
 1604POPC   PO423568  44.256  31.065   9.504
 1604POPC   GL123569  44.318  31.274   9.133
 1604POPC   GL223570  44.638  31.282   8.955
 1604POPC   C1A23571  44.243  31.660   8.904
 1604POPC   D2A23572  44.194  31.737   8.453
 1604POPC   C3A23573  44.368  31.402   8.166
 1604POPC   C4A23574  44.525  31.585   7.776
 1604POPC   C1B23575  44.885  31.170   8.572
 1604POPC   C2B23576  44.985  31.428   8.217
 1604POPC   C3B23577  44.982  31.374   7.788
 1604POPC   C4B23578   0.034  31.355   7.341
 1605POPC   NC323579   8.574  27.654   9.569
 1605POPC   PO423580   9.233  27.871   9.578
 1605POPC   GL123581   9.002  27.949   9.211
 1605POPC   GL223582   8.917  27.605   9.182
 1605POPC   C1A23583   9.115  27.856   8.772
 1605POPC   D2A23584   9.090  27.788   8.318
 1605POPC   C3A23585   8.749  27.925   8.073
 1605POPC   C4A23586   8.718  27.854   7.634
 1605POPC   C1B23587   8.794  27.420   8.773
 1605POPC   C2B23588   8.708  27.456   8.327
 1605POPC   C3B23589   8.973  27.475   7.912
 1605POPC   C4B23590   9.048  27.362   7.467
 1606POPC   NC323591   3.060  33.894   9.457
 1606POPC   PO423592   2.474  33.778   9.157
 1606POPC   GL123593   2.861  33.837   8.976
 1606POPC   GL223594   2.948  33.509   9.106
 1606POPC   C1A23595   3.015  33.987   8.561
 1606POPC   D2A23596   2.999  33.803   8.127
 1606POPC   C3A23597   2.890  34.090   7.827
 1606POPC   C4A23598   2.596  34.176   7.476
 1606POPC   C1B23599   3.150  33.498   8.701
 1606POPC   C2B23600   3.203  33.346   8.290
 1606POPC   C3B23601   3.168  33.381   7.829
 1606POPC   C4B23602   2.884  33.650   7.589
 1607POPC   NC323603  31.676  10.098   9.390
 1607POPC   PO423604  31.237   9.584   9.662
 1607POPC   GL123605  31.457   9.439   9.199
 1607POPC   GL223606  31.201   9.419   9.076
 1607POPC   C1A23607  31.535   9.630   8.709
 1607POPC   D2A23608  31.301   9.924   8.442
 1607POPC   C3A23609  31.422  10.062   8.058
 1607POPC   C4A23610  31.530   9.822   7.750
 1607POPC   C1B23611  31.312   9.175   8.748
 1607POPC   C2B23612  31.502   9.139   8.379
 1607POPC   C3B23613  31.357   9.457   8.111
 1607POPC   C4B23614  31.227   9.416   7.712
 1608POPC   NC323615  36.429  14.054   9.420
 1608POPC   PO423616  36.133  13.415   9.392
 1608POPC   GL123617  36.101  13.606   9.006
 1608POPC   GL223618  36.155  13.968   9.002
 1608POPC   C1A23619  36.225  13.409   8.630
 1608POPC   D2A23620  36.248  13.192   8.231
 1608POPC   C3A23621  36.162  13.481   7.916
 1608POPC   C4A23622  36.048  13.793   7.637
 1608POPC   C1B23623  36.460  13.882   8.704
 1608POPC   C2B23624  36.285  13.813   8.314
 1608POPC   C3B23625  36.315  14.037   7.981
 1608POPC   C4B23626  36.563  13.985   7.662
 1609POPC   NC323627  40.804  33.183   9.542
 1609POPC   PO423628  40.485  32.565   9.422
 1609POPC   GL123629  40.690  32.939   9.107
 1609POPC   GL223630  40.606  33.346   9.115
 1609POPC   C1A23631  41.003  33.123   8.797
 1609POPC   D2A23632  41.131  32.927   8.390
 1609POPC   C3A23633  41.008  33.067   7.954
 1609POPC   C4A23634  41.065  32.857   7.554
 1609POPC   C1B23635  40.513  33.274   8.698
 1609POPC   C2B23636  40.496  33.452   8.287
 1609POPC   C3B23637  40.290  33.239   7.951
 1609POPC   C4B23638  40.526  32.894   7.786
 1610POPC   NC323639  30.610  21.167   9.658
 1610POPC   PO423640  31.067  21.569   9.315
 1610POPC   GL123641  30.837  21.226   9.153
 1610POPC   GL223642  30.465  21.240   9.137
 1610POPC   C1A23643  30.735  21.337   8.721
 1610POPC   D2A23644  30.996  21.287   8.377
 1610POPC   C3A23645  30.795  21.325   7.987
 1610POPC   C4A23646  30.733  21.697   7.752
 1610POPC   C1B23647  30.246  21.559   8.811
 1610POPC   C2B23648  30.078  21.603   8.414
 1610POPC   C3B23649  30.322  21.567   8.035
 1610POPC   C4B23650  30.403  21.316   7.636
 1611POPC   NC323651   2.900   7.513   9.573
 1611POPC   PO423652   2.346   7.778   9.292
 1611POPC   GL123653   2.625   7.399   9.136
 1611POPC   GL223654   3.002   7.318   9.120
 1611POPC   C1A23655   2.703   7.188   8.728
 1611POPC   D2A23656   2.843   7.182   8.302
 1611POPC   C3A23657   2.654   7.423   7.948
 1611POPC   C4A23658   2.643   7.396   7.473
 1611POPC   C1B23659   3.202   7.409   8.743
 1611POPC   C2B23660   3.091   7.650   8.390
 1611POPC   C3B23661   3.165   7.458   8.010
 1611POPC   C4B23662   3.025   7.660   7.664
 1612POPC   NC323663  34.052  29.391   9.345
 1612POPC   PO423664  33.525  29.216   9.721
 1612POPC   GL123665  33.469  29.248   9.241
 1612POPC   GL223666  33.747  29.066   9.082
 1612POPC   C1A23667  33.384  29.328   8.759
 1612POPC   D2A23668  33.314  29.134   8.333
 1612POPC   C3A23669  33.507  29.336   8.004
 1612POPC   C4A23670  33.383  29.519   7.645
 1612POPC   C1B23671  33.903  29.343   8.737
 1612POPC   C2B23672  33.882  29.222   8.347
 1612POPC   C3B23673  33.777  28.878   8.116
 1612POPC   C4B23674  33.866  29.011   7.719
 1613POPC   NC323675   2.824  30.969   9.423
 1613POPC   PO423676   3.181  30.630   9.808
 1613POPC   GL123677   2.997  30.586   9.205
 1613POPC   GL223678   2.639  30.655   9.081
 1613POPC   C1A23679   2.990  30.732   8.756
 1613POPC   D2A23680   2.824  30.996   8.429
 1613POPC   C3A23681   2.963  30.916   8.060
 1613POPC   C4A23682   2.962  30.620   7.736
 1613POPC   C1B23683   2.425  30.798   8.706
 1613POPC   C2B23684   2.316  30.969   8.273
 1613POPC   C3B23685   2.488  30.856   7.856
 1613POPC   C4B23686   2.542  30.697   7.415
 1614POPC   NC323687  38.782   5.296   9.526
 1614POPC   PO423688  38.449   4.742   9.429
 1614POPC   GL123689  38.708   4.968   9.137
 1614POPC   GL223690  38.448   5.251   9.135
 1614POPC   C1A23691  38.797   5.218   8.743
 1614POPC   D2A23692  38.781   5.350   8.288
 1614POPC   C3A23693  38.775   4.960   7.981
 1614POPC   C4A23694  38.846   4.965   7.507
 1614POPC   C1B23695  38.332   4.975   8.802
 1614POPC   C2B23696  38.443   4.985   8.402
 1614POPC   C3B23697  38.328   5.200   8.059
 1614POPC   C4B23698  38.362   5.058   7.659
 1615POPC   NC323699  20.883  21.824   9.483
 1615POPC   PO423700  20.518  21.172   9.569
 1615POPC   GL123701  20.511  21.346   9.176
 1615POPC   GL223702  20.848  21.443   9.154
 1615POPC   C1A23703  20.629  21.257   8.755
 1615POPC   D2A23704  20.575  21.538   8.443
 1615POPC   C3A23705  20.519  21.314   8.092
 1615POPC   C4A23706  20.624  21.401   7.701
 1615POPC   C1B23707  20.895  21.748   8.808
 1615POPC   C2B23708  20.959  21.911   8.397
 1615POPC   C3B23709  20.817  21.763   8.010
 1615POPC   C4B23710  20.861  21.844   7.583
 1616POPC   NC323711  39.685  20.457   9.495
 1616POPC   PO423712  40.182  20.895   9.494
 1616POPC   GL123713  39.939  20.764   9.159
 1616POPC   GL223714  39.633  20.930   9.084
 1616POPC   C1A23715  40.040  20.590   8.762
 1616POPC   D2A23716  40.165  20.316   8.420
 1616POPC   C3A23717  40.133  20.518   8.014
 1616POPC   C4A23718  40.042  20.366   7.616
 1616POPC   C1B23719  39.544  20.704   8.712
 1616POPC   C2B23720  39.748  20.795   8.332
 1616POPC   C3B23721  39.630  21.056   7.990
 1616POPC   C4B23722  39.679  20.721   7.754
 1617POPC   NC323723  43.302  22.389   9.434
 1617POPC   PO423724  42.698  22.057   9.456
 1617POPC   GL123725  42.943  22.181   9.098
 1617POPC   GL223726  43.277  21.988   9.091
 1617POPC   C1A23727  43.004  22.214   8.644
 1617POPC   D2A23728  43.244  22.326   8.250
 1617POPC   C3A23729  43.076  22.239   7.818
 1617POPC   C4A23730  43.218  21.945   7.508
 1617POPC   C1B23731  43.509  22.236   8.754
 1617POPC   C2B23732  43.699  22.059   8.367
 1617POPC   C3B23733  43.582  22.092   7.946
 1617POPC   C4B23734  43.513  22.488   7.791
 1618POPC   NC323735  30.225  24.813   9.283
 1618POPC   PO423736  30.680  24.414   9.629
 1618POPC   GL123737  30.601  24.423   9.187
 1618POPC   GL223738  30.516  24.073   9.159
 1618POPC   C1A23739  30.678  24.642   8.768
 1618POPC   D2A23740  30.362  24.755   8.444
 1618POPC   C3A23741  30.482  24.688   8.008
 1618POPC   C4A23742  30.856  24.637   7.783
 1618POPC   C1B23743  30.390  24.219   8.754
 1618POPC   C2B23744  30.601  24.188   8.387
 1618POPC   C3B23745  30.682  24.199   7.981
 1618POPC   C4B23746  30.416  24.266   7.701
 1619POPC   NC323747   8.183  17.830   9.519
 1619POPC   PO423748   8.037  17.194   9.480
 1619POPC   GL123749   7.977  17.407   9.120
 1619POPC   GL223750   8.304  17.522   9.071
 1619POPC   C1A23751   7.879  17.488   8.690
 1619POPC   D2A23752   8.088  17.442   8.312
 1619POPC   C3A23753   7.858  17.530   7.943
 1619POPC   C4A23754   8.087  17.510   7.568
 1619POPC   C1B23755   8.502  17.610   8.660
 1619POPC   C2B23756   8.410  17.862   8.271
 1619POPC   C3B23757   8.382  17.849   7.806
 1619POPC   C4B23758   8.533  17.714   7.373
 1620POPC   NC323759  15.624  22.851   9.610
 1620POPC   PO423760  16.096  22.449   9.620
 1620POPC   GL123761  15.909  22.653   9.209
 1620POPC   GL223762  15.793  23.021   9.161
 1620POPC   C1A23763  16.159  22.817   8.826
 1620POPC   D2A23764  16.322  22.805   8.382
 1620POPC   C3A23765  16.085  22.918   8.005
 1620POPC   C4A23766  16.022  22.716   7.591
 1620POPC   C1B23767  15.703  23.009   8.737
 1620POPC   C2B23768  15.768  23.199   8.338
 1620POPC   C3B23769  15.584  23.054   7.959
 1620POPC   C4B23770  15.457  22.789   7.617
 1621POPC   NC323771  20.043  30.291   9.689
 1621POPC   PO423772  19.654  30.701   9.460
 1621POPC   GL123773  19.778  30.984   9.145
 1621POPC   GL223774  19.454  31.066   9.109
 1621POPC   C1A23775  19.994  30.901   8.752
 1621POPC   D2A23776  20.140  30.573   8.454
 1621POPC   C3A23777  19.947  30.576   8.041
 1621POPC   C4A23778  19.967  30.867   7.717
 1621POPC   C1B23779  19.490  30.845   8.711
 1621POPC   C2B23780  19.670  30.916   8.326
 1621POPC   C3B23781  19.492  30.860   7.922
 1621POPC   C4B23782  19.586  30.527   7.635
 1622POPC   NC323783  42.704  28.772   9.389
 1622POPC   PO423784  42.034  28.554   9.442
 1622POPC   GL123785  42.370  28.511   9.111
 1622POPC   GL223786  42.532  28.157   8.991
 1622POPC   C1A23787  42.550  28.619   8.748
 1622POPC   D2A23788  42.532  28.326   8.424
 1622POPC   C3A23789  42.340  28.412   8.056
 1622POPC   C4A23790  42.348  28.160   7.716
 1622POPC   C1B23791  42.146  28.210   8.748
 1622POPC   C2B23792  42.013  28.092   8.331
 1622POPC   C3B23793  41.883  28.158   7.945
 1622POPC   C4B23794  41.881  27.933   7.571
 1623POPC   NC323795  15.210  42.121   9.373
 1623POPC   PO423796  15.383  42.763   9.536
 1623POPC   GL123797  15.123  42.740   9.086
 1623POPC   GL223798  15.090  42.401   8.961
 1623POPC   C1A23799  14.989  42.730   8.606
 1623POPC   D2A23800  15.156  42.389   8.341
 1623POPC   C3A23801  14.994  42.355   7.915
 1623POPC   C4A23802  15.200  42.385   7.526
 1623POPC   C1B23803  15.423  42.179   8.747
 1623POPC   C2B23804  15.502  41.999   8.355
 1623POPC   C3B23805  15.540  42.136   7.942
 1623POPC   C4B23806  15.562  42.023   7.524
 1624POPC   NC323807   1.114  27.767   9.507
 1624POPC   PO423808   1.535  27.267   9.548
 1624POPC   GL123809   1.447  27.405   9.154
 1624POPC   GL223810   1.113  27.372   9.169
 1624POPC   C1A23811   1.503  27.513   8.713
 1624POPC   D2A23812   1.423  27.683   8.298
 1624POPC   C3A23813   1.421  27.450   7.922
 1624POPC   C4A23814   1.298  27.531   7.484
 1624POPC   C1B23815   0.978  27.611   8.801
 1624POPC   C2B23816   0.886  27.830   8.427
 1624POPC   C3B23817   0.982  27.715   8.025
 1624POPC   C4B23818   1.169  27.975   7.759
 1625POPC   NC323819  44.279  34.077   9.492
 1625POPC   PO423820  44.694  33.567   9.357
 1625POPC   GL123821  44.448  33.776   9.119
 1625POPC   GL223822  44.736  33.896   8.980
 1625POPC   C1A23823  44.324  33.774   8.715
 1625POPC   D2A23824  44.580  33.836   8.351
 1625POPC   C3A23825  44.362  33.779   7.974
 1625POPC   C4A23826  44.697  33.585   7.833
 1625POPC   C1B23827  44.878  34.148   8.676
 1625POPC   C2B23828   0.230  34.166   8.426
 1625POPC   C3B23829   0.048  33.912   8.120
 1625POPC   C4B23830  44.791  34.072   7.790
 1626POPC   NC323831  16.871   9.402   9.681
 1626POPC   PO423832  17.315  10.004   9.645
 1626POPC   GL123833  17.394   9.947   9.223
 1626POPC   GL223834  17.092  10.163   9.198
 1626POPC   C1A23835  17.546   9.746   8.807
 1626POPC   D2A23836  17.303   9.639   8.437
 1626POPC   C3A23837  17.490   9.491   8.065
 1626POPC   C4A23838  17.464   9.451   7.643
 1626POPC   C1B23839  17.310  10.198   8.798
 1626POPC   C2B23840  17.478  10.129   8.405
 1626POPC   C3B23841  17.352   9.991   8.025
 1626POPC   C4B23842  17.553   9.955   7.632
 1627POPC   NC323843  29.969   7.621   9.514
 1627POPC   PO423844  29.626   6.993   9.406
 1627POPC   GL123845  29.720   7.325   9.163
 1627POPC   GL223846  30.059   7.309   9.091
 1627POPC   C1A23847  29.676   7.514   8.756
 1627POPC   D2A23848  29.693   7.646   8.341
 1627POPC   C3A23849  29.763   7.262   8.103
 1627POPC   C4A23850  29.868   7.273   7.684
 1627POPC   C1B23851  30.148   7.672   8.893
 1627POPC   C2B23852  30.176   7.805   8.489
 1627POPC   C3B23853  30.172   7.580   8.098
 1627POPC   C4B23854  30.312   7.525   7.690
 1628POPC   NC323855  19.048  22.461   9.793
 1628POPC   PO423856  18.829  21.966   9.405
 1628POPC   GL123857  19.082  22.176   9.144
 1628POPC   GL223858  18.800  22.431   9.104
 1628POPC   C1A23859  19.229  22.299   8.725
 1628POPC   D2A23860  19.432  22.404   8.351
 1628POPC   C3A23861  19.278  22.116   8.084
 1628POPC   C4A23862  19.529  22.001   7.791
 1628POPC   C1B23863  18.757  22.131   8.753
 1628POPC   C2B23864  18.832  21.899   8.404
 1628POPC   C3B23865  18.769  21.979   8.021
 1628POPC   C4B23866  18.801  22.237   7.693
 1629POPC   NC323867  24.033  24.461   9.623
 1629POPC   PO423868  24.660  24.365   9.434
 1629POPC   GL123869  24.315  24.393   9.143
 1629POPC   GL223870  24.049  24.609   9.139
 1629POPC   C1A23871  24.421  24.234   8.760
 1629POPC   D2A23872  24.646  24.482   8.454
 1629POPC   C3A23873  24.491  24.489   8.040
 1629POPC   C4A23874  24.802  24.359   7.745
 1629POPC   C1B23875  23.937  24.387   8.714
 1629POPC   C2B23876  23.974  24.462   8.259
 1629POPC   C3B23877  24.037  24.263   7.859
 1629POPC   C4B23878  24.325  24.442   7.558
 1630POPC   NC323879   8.411   6.606   9.761
 1630POPC   PO423880   8.132   6.285   9.300
 1630POPC   GL123881   8.289   6.663   9.112
 1630POPC   GL223882   8.553   6.834   9.309
 1630POPC   C1A23883   8.388   6.591   8.660
 1630POPC   D2A23884   8.429   6.601   8.199
 1630POPC   C3A23885   8.052   6.803   7.961
 1630POPC   C4A23886   7.692   6.731   7.671
 1630POPC   C1B23887   8.675   6.938   8.884
 1630POPC   C2B23888   8.526   7.059   8.487
 1630POPC   C3B23889   8.481   7.095   8.035
 1630POPC   C4B23890   8.501   6.778   7.727
 1631POPC   NC323891  18.367  21.003   9.681
 1631POPC   PO423892  17.993  21.539   9.505
 1631POPC   GL123893  18.196  21.441   9.140
 1631POPC   GL223894  18.469  21.239   9.223
 1631POPC   C1A23895  18.323  21.469   8.736
 1631POPC   D2A23896  18.442  21.531   8.333
 1631POPC   C3A23897  18.088  21.376   8.125
 1631POPC   C4A23898  17.946  21.466   7.719
 1631POPC   C1B23899  18.651  21.094   8.812
 1631POPC   C2B23900  18.582  21.038   8.316
 1631POPC   C3B23901  18.510  21.236   7.867
 1631POPC   C4B23902  18.456  21.288   7.410
 1632POPC   NC323903  20.620   8.608   9.453
 1632POPC   PO423904  20.829   7.938   9.487
 1632POPC   GL123905  20.710   8.145   9.142
 1632POPC   GL223906  20.951   8.381   9.108
 1632POPC   C1A23907  20.479   8.043   8.772
 1632POPC   D2A23908  20.371   8.121   8.363
 1632POPC   C3A23909  20.587   7.920   8.013
 1632POPC   C4A23910  20.426   8.034   7.619
 1632POPC   C1B23911  20.865   8.352   8.654
 1632POPC   C2B23912  20.781   8.371   8.184
 1632POPC   C3B23913  20.874   8.454   7.744
 1632POPC   C4B23914  20.944   8.388   7.264
 1633POPC   NC323915   1.505  17.319   9.571
 1633POPC   PO423916   1.067  17.717   9.644
 1633POPC   GL123917   1.206  17.742   9.223
 1633POPC   GL223918   1.288  17.407   9.123
 1633POPC   C1A23919   1.317  17.914   8.822
 1633POPC   D2A23920   1.080  17.904   8.435
 1633POPC   C3A23921   1.227  17.794   8.009
 1633POPC   C4A23922   1.564  17.659   7.726
 1633POPC   C1B23923   1.147  17.456   8.699
 1633POPC   C2B23924   1.392  17.432   8.321
 1633POPC   C3B23925   1.316  17.259   7.889
 1633POPC   C4B23926   1.367  17.256   7.404
 1634POPC   NC323927  13.301   9.925   9.523
 1634POPC   PO423928  13.829  10.321   9.328
 1634POPC   GL123929  13.510  10.090   9.058
 1634POPC   GL223930  13.389   9.705   9.069
 1634POPC   C1A23931  13.487   9.954   8.627
 1634POPC   D2A23932  13.485   9.600   8.289
 1634POPC   C3A23933  13.571   9.662   7.834
 1634POPC   C4A23934  13.793   9.765   7.435
 1634POPC   C1B23935  13.142   9.412   8.742
 1634POPC   C2B23936  13.223   9.153   8.343
 1634POPC   C3B23937  13.468   9.159   7.916
 1634POPC   C4B23938  13.572   9.287   7.449
 1635POPC   NC323939   1.497  11.924   9.586
 1635POPC   PO423940   0.958  12.230   9.529
 1635POPC   GL123941   1.135  11.937   9.180
 1635POPC   GL223942   1.490  11.879   9.080
 1635POPC   C1A23943   1.062  11.986   8.731
 1635POPC   D2A23944   0.784  12.288   8.481
 1635POPC   C3A23945   0.823  12.237   8.026
 1635POPC   C4A23946   1.037  11.899   7.884
 1635POPC   C1B23947   1.479  11.682   8.699
 1635POPC   C2B23948   1.336  11.855   8.291
 1635POPC   C3B23949   1.499  12.078   7.883
 1635POPC   C4B23950   1.606  12.012   7.439
 1636POPC   NC323951  33.990   9.534   9.351
 1636POPC   PO423952  33.683   8.961   9.530
 1636POPC   GL123953  33.726   9.068   9.123
 1636POPC   GL223954  34.103   9.059   9.161
 1636POPC   C1A23955  33.570   8.822   8.741
 1636POPC   D2A23956  33.721   8.569   8.399
 1636POPC   C3A23957  33.587   8.808   8.076
 1636POPC   C4A23958  33.429   8.587   7.778
 1636POPC   C1B23959  34.061   8.833   8.785
 1636POPC   C2B23960  34.012   8.979   8.382
 1636POPC   C3B23961  34.071   8.982   7.973
 1636POPC   C4B23962  34.040   9.274   7.681
 1637POPC   NC323963  34.862   0.644   9.488
 1637POPC   PO423964  34.370   0.196   9.276
 1637POPC   GL123965  34.612   0.432   9.061
 1637POPC   GL223966  34.692   0.786   9.039
 1637POPC   C1A23967  34.552   0.429   8.629
 1637POPC   D2A23968  34.370   0.126   8.371
 1637POPC   C3A23969  34.278   0.348   8.024
 1637POPC   C4A23970  34.505   0.384   7.691
 1637POPC   C1B23971  35.031   0.518   8.817
 1637POPC   C2B23972  35.003   0.477   8.368
 1637POPC   C3B23973  34.700   0.665   8.100
 1637POPC   C4B23974  34.761   0.840   7.698
 1638POPC   NC323975  15.711  34.458   9.536
 1638POPC   PO423976  15.099  34.572   9.520
 1638POPC   GL123977  15.364  34.551   9.172
 1638POPC   GL223978  15.385  34.223   9.064
 1638POPC   C1A23979  15.260  34.683   8.782
 1638POPC   D2A23980  14.929  34.681   8.485
 1638POPC   C3A23981  15.080  34.772   8.063
 1638POPC   C4A23982  14.799  34.713   7.683
 1638POPC   C1B23983  15.186  34.189   8.679
 1638POPC   C2B23984  15.225  34.320   8.268
 1638POPC   C3B23985  15.131  34.314   7.841
 1638POPC   C4B23986  15.361  34.186   7.567
 1639POPC   NC323987  29.652  37.277   9.492
 1639POPC   PO423988  30.010  37.808   9.434
 1639POPC   GL123989  30.143  37.598   9.107
 1639POPC   GL223990  29.836  37.447   9.055
 1639POPC   C1A23991  30.193  37.663   8.676
 1639POPC   D2A23992  29.945  37.750   8.327
 1639POPC   C3A23993  30.052  37.587   7.963
 1639POPC   C4A23994  30.050  37.792   7.609
 1639POPC   C1B23995  29.647  37.560   8.688
 1639POPC   C2B23996  29.562  37.379   8.273
 1639POPC   C3B23997  29.646  37.296   7.823
 1639POPC   C4B23998  29.636  37.553   7.448
 1640POPC   NC323999  39.565  41.850   9.501
 1640POPC   PO424000  40.256  41.581   9.516
 1640POPC   GL124001  39.908  41.496   9.265
 1640POPC   GL224002  40.144  41.429   9.024
 1640POPC   C1A24003  39.712  41.587   8.849
 1640POPC   D2A24004  39.989  41.493   8.493
 1640POPC   C3A24005  39.779  41.412   8.122
 1640POPC   C4A24006  39.782  41.690   7.757
 1640POPC   C1B24007  40.406  41.198   8.747
 1640POPC   C2B24008  40.485  41.402   8.359
 1640POPC   C3B24009  40.239  41.617   8.034
 1640POPC   C4B24010  40.293  41.491   7.655
 1641POPC   NC324011  31.308  40.897   9.358
 1641POPC   PO424012  31.814  40.499   9.502
 1641POPC   GL124013  31.579  40.526   9.120
 1641POPC   GL224014  31.762  40.832   9.069
 1641POPC   C1A24015  31.285  40.673   8.752
 1641POPC   D2A24016  31.213  40.928   8.365
 1641POPC   C3A24017  31.405  40.763   8.033
 1641POPC   C4A24018  31.405  40.608   7.625
 1641POPC   C1B24019  31.702  41.143   8.761
 1641POPC   C2B24020  31.681  41.131   8.363
 1641POPC   C3B24021  31.830  41.069   7.984
 1641POPC   C4B24022  31.893  40.780   7.688
 1642POPC   NC324023  38.292  38.961   9.851
 1642POPC   PO424024  38.573  39.468   9.479
 1642POPC   GL124025  38.336  39.345   9.076
 1642POPC   GL224026  38.194  38.992   9.070
 1642POPC   C1A24027  38.376  39.387   8.639
 1642POPC   D2A24028  38.698  39.232   8.352
 1642POPC   C3A24029  38.613  39.292   7.927
 1642POPC   C4A24030  38.757  39.531   7.597
 1642POPC   C1B24031  38.405  38.898   8.680
 1642POPC   C2B24032  38.308  38.895   8.240
 1642POPC   C3B24033  38.424  38.827   7.821
 1642POPC   C4B24034  38.443  39.060   7.437
 1643POPC   NC324035   5.234   8.630   9.303
 1643POPC   PO424036   5.207   8.153   9.753
 1643POPC   GL124037   5.049   8.187   9.209
 1643POPC   GL224038   5.373   8.264   8.976
 1643POPC   C1A24039   4.957   8.416   8.752
 1643POPC   D2A24040   5.340   8.398   8.487
 1643POPC   C3A24041   5.238   8.460   8.066
 1643POPC   C4A24042   5.321   8.316   7.653
 1643POPC   C1B24043   5.142   7.955   8.735
 1643POPC   C2B24044   4.968   8.065   8.329
 1643POPC   C3B24045   5.024   7.952   7.894
 1643POPC   C4B24046   5.287   7.609   7.782
 1644POPC   NC324047  31.047  36.202   9.379
 1644POPC   PO424048  30.386  36.215   9.340
 1644POPC   GL124049  30.643  36.218   9.036
 1644POPC   GL224050  30.788  35.911   9.019
 1644POPC   C1A24051  30.768  36.216   8.626
 1644POPC   D2A24052  30.849  35.960   8.292
 1644POPC   C3A24053  30.838  36.281   7.946
 1644POPC   C4A24054  30.752  36.189   7.496
 1644POPC   C1B24055  30.457  35.802   8.709
 1644POPC   C2B24056  30.421  35.645   8.274
 1644POPC   C3B24057  30.640  35.759   7.865
 1644POPC   C4B24058  30.401  35.834   7.475
 1645POPC   NC324059  26.675   5.905   9.455
 1645POPC   PO424060  27.168   5.505   9.464
 1645POPC   GL124061  26.872   5.716   9.060
 1645POPC   GL224062  26.862   6.083   9.001
 1645POPC   C1A24063  26.763   5.537   8.660
 1645POPC   D2A24064  26.800   5.605   8.206
 1645POPC   C3A24065  26.862   6.031   8.105
 1645POPC   C4A24066  27.162   6.242   7.843
 1645POPC   C1B24067  26.497   6.060   8.729
 1645POPC   C2B24068  26.340   6.158   8.302
 1645POPC   C3B24069  26.420   6.078   7.860
 1645POPC   C4B24070  26.406   6.007   7.405
 1646POPC   NC324071  37.119  32.152   9.560
 1646POPC   PO424072  36.586  32.529   9.592
 1646POPC   GL124073  36.657  32.240   9.234
 1646POPC   GL224074  37.020  32.281   9.079
 1646POPC   C1A24075  36.611  32.319   8.788
 1646POPC   D2A24076  37.008  32.368   8.554
 1646POPC   C3A24077  36.925  32.494   8.157
 1646POPC   C4A24078  36.826  32.332   7.758
 1646POPC   C1B24079  36.908  31.920   8.789
 1646POPC   C2B24080  36.684  31.994   8.382
 1646POPC   C3B24081  36.726  31.881   7.954
 1646POPC   C4B24082  36.692  31.673   7.556
 1647POPC   NC324083  27.363  35.174   9.438
 1647POPC   PO424084  27.891  35.780   9.554
 1647POPC   GL124085  27.670  35.568   9.260
 1647POPC   GL224086  27.868  35.261   9.282
 1647POPC   C1A24087  27.433  35.597   8.882
 1647POPC   D2A24088  27.525  35.551   8.466
 1647POPC   C3A24089  27.335  35.247   8.252
 1647POPC   C4A24090  27.364  35.179   7.837
 1647POPC   C1B24091  27.878  35.309   8.833
 1647POPC   C2B24092  27.873  35.126   8.422
 1647POPC   C3B24093  27.856  35.285   8.009
 1647POPC   C4B24094  27.799  35.051   7.632
 1648POPC   NC324095  32.422  12.175   9.607
 1648POPC   PO424096  32.026  11.623   9.692
 1648POPC   GL124097  32.107  11.932   9.298
 1648POPC   GL224098  32.443  11.851   9.185
 1648POPC   C1A24099  32.115  12.106   8.834
 1648POPC   D2A24100  31.969  12.256   8.385
 1648POPC   C3A24101  32.224  12.269   7.986
 1648POPC   C4A24102  32.100  12.496   7.620
 1648POPC   C1B24103  32.411  11.702   8.753
 1648POPC   C2B24104  32.257  11.803   8.344
 1648POPC   C3B24105  32.169  11.759   7.911
 1648POPC   C4B24106  32.389  11.673   7.525
 1649POPC   NC324107   0.018  41.367   9.491
 1649POPC   PO424108  44.313  41.328   9.675
 1649POPC   GL124109  44.473  41.581   9.272
 1649POPC   GL224110  44.818  41.580   9.077
 1649POPC   C1A24111  44.389  41.682   8.822
 1649POPC   D2A24112  44.338  41.415   8.454
 1649POPC   C3A24113  44.525  41.517   8.078
 1649POPC   C4A24114  44.474  41.583   7.658
 1649POPC   C1B24115  44.926  41.375   8.665
 1649POPC   C2B24116   0.011  41.424   8.203
 1649POPC   C3B24117  44.959  41.654   7.817
 1649POPC   C4B24118  44.925  41.719   7.348
 1650POPC   NC324119  33.420  28.642   9.542
 1650POPC   PO424120  34.017  28.341   9.628
 1650POPC   GL124121  34.097  28.435   9.194
 1650POPC   GL224122  33.756  28.543   9.098
 1650POPC   C1A24123  34.220  28.436   8.751
 1650POPC   D2A24124  33.903  28.451   8.417
 1650POPC   C3A24125  33.879  28.194   8.041
 1650POPC   C4A24126  33.834  28.506   7.734
 1650POPC   C1B24127  33.472  28.341   8.781
 1650POPC   C2B24128  33.505  28.111   8.399
 1650POPC   C3B24129  33.296  28.185   8.024
 1650POPC   C4B24130  33.406  28.278   7.624
 1651POPC   NC324131  39.324  14.129   9.680
 1651POPC   PO424132  39.408  14.807   9.538
 1651POPC   GL124133  39.296  14.420   9.219
 1651POPC   GL224134  39.320  14.010   9.173
 1651POPC   C1A24135  39.402  14.294   8.749
 1651POPC   D2A24136  39.456  14.267   8.268
 1651POPC   C3A24137  39.412  14.278   7.791
 1651POPC   C4A24138  39.609  14.121   7.377
 1651POPC   C1B24139  39.013  13.928   8.836
 1651POPC   C2B24140  39.011  14.036   8.400
 1651POPC   C3B24141  39.026  13.935   7.936
 1651POPC   C4B24142  39.165  13.917   7.462
 1652POPC   NC324143  31.315  37.162   9.459
 1652POPC   PO424144  31.328  36.535   9.239
 1652POPC   GL124145  31.469  36.877   9.031
 1652POPC   GL224146  31.732  36.960   9.213
 1652POPC   C1A24147  31.635  36.815   8.631
 1652POPC   D2A24148  31.361  36.871   8.302
 1652POPC   C3A24149  31.310  36.593   7.988
 1652POPC   C4A24150  31.523  36.575   7.624
 1652POPC   C1B24151  31.863  37.212   8.849
 1652POPC   C2B24152  31.912  37.240   8.424
 1652POPC   C3B24153  31.834  36.969   8.108
 1652POPC   C4B24154  31.608  37.052   7.760
 1653POPC   NC324155  23.936  14.439   9.546
 1653POPC   PO424156  23.452  14.045   9.494
 1653POPC   GL124157  23.607  14.303   9.126
 1653POPC   GL224158  23.932  14.520   9.052
 1653POPC   C1A24159  23.684  14.300   8.670
 1653POPC   D2A24160  23.910  14.190   8.307
 1653POPC   C3A24161  23.645  14.096   7.962
 1653POPC   C4A24162  23.690  14.234   7.529
 1653POPC   C1B24163  23.859  14.784   8.665
 1653POPC   C2B24164  23.967  14.700   8.250
 1653POPC   C3B24165  23.973  14.484   7.867
 1653POPC   C4B24166  24.124  14.512   7.433
 1654POPC   NC324167   8.063  44.355   9.481
 1654POPC   PO424168   8.667  44.690   9.487
 1654POPC   GL124169   8.341  44.672   9.164
 1654POPC   GL224170   8.378  44.322   9.085
 1654POPC   C1A24171   8.347  44.865   8.769
 1654POPC   D2A24172   8.422  44.980   8.353
 1654POPC   C3A24173   8.404  44.681   8.014
 1654POPC   C4A24174   8.088  44.867   7.774
 1654POPC   C1B24175   8.316  44.366   8.672
 1654POPC   C2B24176   8.032  44.548   8.393
 1654POPC   C3B24177   7.940  44.413   7.999
 1654POPC   C4B24178   8.091  44.380   7.597
 1655POPC   NC324179  36.147  27.001   9.578
 1655POPC   PO424180  36.001  26.326   9.419
 1655POPC   GL124181  35.946  26.718   9.202
 1655POPC   GL224182  36.291  26.792   9.132
 1655POPC   C1A24183  35.898  26.935   8.786
 1655POPC   D2A24184  36.144  26.945   8.388
 1655POPC   C3A24185  35.905  26.935   8.000
 1655POPC   C4A24186  35.686  27.293   7.819
 1655POPC   C1B24187  36.180  26.506   8.797
 1655POPC   C2B24188  36.296  26.459   8.374
 1655POPC   C3B24189  36.289  26.480   7.941
 1655POPC   C4B24190  36.287  26.609   7.522
 1656POPC   NC324191  22.335  31.272   9.503
 1656POPC   PO424192  22.161  30.604   9.684
 1656POPC   GL124193  22.071  30.684   9.247
 1656POPC   GL224194  22.398  30.805   9.155
 1656POPC   C1A24195  22.089  30.639   8.784
 1656POPC   D2A24196  22.073  30.876   8.367
 1656POPC   C3A24197  22.264  30.681   8.002
 1656POPC   C4A24198  22.039  30.397   7.685
 1656POPC   C1B24199  22.405  31.033   8.716
 1656POPC   C2B24200  22.498  31.194   8.311
 1656POPC   C3B24201  22.812  31.141   8.012
 1656POPC   C4B24202  22.674  30.809   7.722
 1657POPC   NC324203   6.116  31.200   9.414
 1657POPC   PO424204   5.594  31.630   9.417
 1657POPC   GL124205   5.708  31.340   9.117
 1657POPC   GL224206   6.023  31.538   9.070
 1657POPC   C1A24207   5.639  31.206   8.680
 1657POPC   D2A24208   5.867  31.254   8.291
 1657POPC   C3A24209   5.747  31.378   7.873
 1657POPC   C4A24210   5.810  31.264   7.417
 1657POPC   C1B24211   6.244  31.627   8.723
 1657POPC   C2B24212   6.149  31.716   8.310
 1657POPC   C3B24213   6.318  31.666   7.901
 1657POPC   C4B24214   6.035  31.678   7.565
 1658POPC   NC324215  44.498  43.200   9.743
 1658POPC   PO424216  43.897  42.997   9.681
 1658POPC   GL124217  43.953  43.164   9.256
 1658POPC   GL224218  44.282  43.032   9.172
 1658POPC   C1A24219  43.906  43.304   8.832
 1658POPC   D2A24220  43.846  43.061   8.456
 1658POPC   C3A24221  43.956  43.317   8.132
 1658POPC   C4A24222  43.819  43.211   7.750
 1658POPC   C1B24223  44.261  42.927   8.733
 1658POPC   C2B24224  44.305  42.911   8.283
 1658POPC   C3B24225  43.974  42.803   8.004
 1658POPC   C4B24226  44.045  42.798   7.558
 1659POPC   NC324227  13.304  25.097   9.507
 1659POPC   PO424228  12.730  25.419   9.431
 1659POPC   GL124229  12.751  25.075   9.160
 1659POPC   GL224230  13.042  25.195   9.055
 1659POPC   C1A24231  12.641  25.130   8.715
 1659POPC   D2A24232  12.493  25.374   8.371
 1659POPC   C3A24233  12.573  25.268   7.961
 1659POPC   C4A24234  12.614  25.579   7.635
 1659POPC   C1B24235  13.215  25.151   8.675
 1659POPC   C2B24236  13.099  25.131   8.252
 1659POPC   C3B24237  13.079  25.287   7.850
 1659POPC   C4B24238  13.130  25.470   7.453
 1660POPC   NC324239  35.501  32.885   9.505
 1660POPC   PO424240  36.205  32.936   9.404
 1660POPC   GL124241  35.849  32.869   9.115
 1660POPC   GL224242  35.699  33.186   9.125
 1660POPC   C1A24243  35.814  32.982   8.670
 1660POPC   D2A24244  36.181  33.180   8.449
 1660POPC   C3A24245  36.187  33.075   8.007
 1660POPC   C4A24246  35.898  32.949   7.683
 1660POPC   C1B24247  35.867  33.475   8.825
 1660POPC   C2B24248  35.872  33.603   8.424
 1660POPC   C3B24249  35.924  33.539   7.989
 1660POPC   C4B24250  36.143  33.410   7.620
 1661POPC   NC324251  19.377  42.992   9.538
 1661POPC   PO424252  19.935  43.339   9.561
 1661POPC   GL124253  19.893  43.251   9.119
 1661POPC   GL224254  19.532  43.168   9.090
 1661POPC   C1A24255  19.831  42.990   8.704
 1661POPC   D2A24256  19.709  42.977   8.279
 1661POPC   C3A24257  19.925  43.325   8.140
 1661POPC   C4A24258  20.162  43.404   7.791
 1661POPC   C1B24259  19.367  43.192   8.691
 1661POPC   C2B24260  19.423  43.458   8.340
 1661POPC   C3B24261  19.437  43.313   7.944
 1661POPC   C4B24262  19.722  43.039   7.733
 1662POPC   NC324263  37.242  26.621   9.228
 1662POPC   PO424264  36.634  26.843   9.564
 1662POPC   GL124265  36.803  26.869   9.155
 1662POPC   GL224266  36.745  26.538   9.167
 1662POPC   C1A24267  36.984  26.997   8.752
 1662POPC   D2A24268  37.293  26.910   8.414
 1662POPC   C3A24269  37.161  26.983   7.979
 1662POPC   C4A24270  37.142  26.704   7.639
 1662POPC   C1B24271  36.675  26.580   8.739
 1662POPC   C2B24272  36.782  26.730   8.340
 1662POPC   C3B24273  36.943  26.479   8.033
 1662POPC   C4B24274  36.715  26.335   7.671
 1663POPC   NC324275  19.558  34.857   9.323
 1663POPC   PO424276  19.932  34.245   9.403
 1663POPC   GL124277  19.884  34.508   9.099
 1663POPC   GL224278  19.550  34.415   9.037
 1663POPC   C1A24279  19.886  34.725   8.722
 1663POPC   D2A24280  19.979  34.651   8.296
 1663POPC   C3A24281  19.742  34.358   8.040
 1663POPC   C4A24282  19.751  34.347   7.617
 1663POPC   C1B24283  19.355  34.705   8.737
 1663POPC   C2B24284  19.474  34.722   8.341
 1663POPC   C3B24285  19.645  34.849   7.967
 1663POPC   C4B24286  19.448  34.790   7.635
 1664POPC   NC324287  29.566  23.184   9.457
 1664POPC   PO424288  29.858  22.609   9.479
 1664POPC   GL124289  29.839  22.879   9.139
 1664POPC   GL224290  30.032  23.183   9.199
 1664POPC   C1A24291  29.952  22.943   8.734
 1664POPC   D2A24292  29.916  23.159   8.356
 1664POPC   C3A24293  30.039  22.864   8.065
 1664POPC   C4A24294  30.013  22.665   7.674
 1664POPC   C1B24295  30.278  23.311   8.832
 1664POPC   C2B24296  30.393  23.117   8.464
 1664POPC   C3B24297  30.324  23.274   8.052
 1664POPC   C4B24298  30.426  23.011   7.744
 1665POPC   NC324299  10.800  10.700   9.584
 1665POPC   PO424300  10.343  10.263   9.520
 1665POPC   GL124301  10.467  10.536   9.194
 1665POPC   GL224302  10.780  10.384   9.148
 1665POPC   C1A24303  10.389  10.729   8.781
 1665POPC   D2A24304  10.276  10.533   8.364
 1665POPC   C3A24305  10.382  10.691   7.975
 1665POPC   C4A24306  10.402  10.455   7.620
 1665POPC   C1B24307  10.873  10.775   8.924
 1665POPC   C2B24308  10.781  10.908   8.505
 1665POPC   C3B24309  10.858  10.705   8.127
 1665POPC   C4B24310  10.880  10.816   7.716
 1666POPC   NC324311  30.602  12.255   9.920
 1666POPC   PO424312  30.588  12.139   9.283
 1666POPC   GL124313  30.954  12.065   9.069
 1666POPC   GL224314  31.190  11.836   9.194
 1666POPC   C1A24315  30.832  12.114   8.677
 1666POPC   D2A24316  30.513  12.298   8.439
 1666POPC   C3A24317  30.603  12.114   8.089
 1666POPC   C4A24318  30.517  11.965   7.719
 1666POPC   C1B24319  31.209  11.708   8.751
 1666POPC   C2B24320  31.211  11.840   8.303
 1666POPC   C3B24321  30.997  11.854   7.888
 1666POPC   C4B24322  30.909  11.864   7.437
 1667POPC   NC324323  19.661   5.310   9.347
 1667POPC   PO424324  20.068   4.697   9.399
 1667POPC   GL124325  19.855   4.959   9.062
 1667POPC   GL224326  19.951   5.382   8.964
 1667POPC   C1A24327  19.764   5.014   8.654
 1667POPC   D2A24328  19.710   4.726   8.347
 1667POPC   C3A24329  19.557   4.922   8.000
 1667POPC   C4A24330  19.701   4.911   7.595
 1667POPC   C1B24331  20.048   5.463   8.548
 1667POPC   C2B24332  20.032   5.168   8.241
 1667POPC   C3B24333  19.958   5.247   7.859
 1667POPC   C4B24334  19.854   5.381   7.445
 1668POPC   NC324335   4.573  35.093   9.571
 1668POPC   PO424336   4.228  35.583   9.601
 1668POPC   GL124337   4.259  35.302   9.218
 1668POPC   GL224338   4.013  35.045   9.176
 1668POPC   C1A24339   4.493  35.180   8.843
 1668POPC   D2A24340   4.603  35.389   8.433
 1668POPC   C3A24341   4.372  35.269   8.075
 1668POPC   C4A24342   4.579  35.153   7.734
 1668POPC   C1B24343   3.959  35.266   8.774
 1668POPC   C2B24344   3.917  35.148   8.325
 1668POPC   C3B24345   3.772  35.317   7.941
 1668POPC   C4B24346   3.872  35.605   7.630
 1669POPC   NC324347  15.475  28.573   9.442
 1669POPC   PO424348  15.192  27.966   9.576
 1669POPC   GL124349  15.117  28.277   9.201
 1669POPC   GL224350  14.943  28.615   9.237
 1669POPC   C1A24351  15.252  28.178   8.749
 1669POPC   D2A24352  15.136  28.132   8.289
 1669POPC   C3A24353  15.404  28.213   7.910
 1669POPC   C4A24354  15.490  28.094   7.440
 1669POPC   C1B24355  15.036  28.630   8.778
 1669POPC   C2B24356  15.198  28.677   8.343
 1669POPC   C3B24357  15.279  28.718   7.891
 1669POPC   C4B24358  15.541  28.584   7.567
 1670POPC   NC324359  13.358  23.510   9.526
 1670POPC   PO424360  13.973  23.869   9.512
 1670POPC   GL124361  13.701  23.655   9.191
 1670POPC   GL224362  13.378  23.822   9.115
 1670POPC   C1A24363  13.718  23.466   8.790
 1670POPC   D2A24364  13.760  23.626   8.356
 1670POPC   C3A24365  13.588  23.373   8.012
 1670POPC   C4A24366  13.729  23.197   7.610
 1670POPC   C1B24367  13.342  23.877   8.674
 1670POPC   C2B24368  13.295  23.844   8.232
 1670POPC   C3B24369  13.274  23.732   7.819
 1670POPC   C4B24370  13.216  23.562   7.418
 1671POPC   NC324371  22.690  40.518   9.685
 1671POPC   PO424372  23.305  40.785   9.586
 1671POPC   GL124373  22.874  40.844   9.328
 1671POPC   GL224374  22.744  40.541   9.154
 1671POPC   C1A24375  22.750  41.006   8.913
 1671POPC   D2A24376  22.840  40.798   8.521
 1671POPC   C3A24377  22.892  41.025   8.142
 1671POPC   C4A24378  22.709  40.880   7.764
 1671POPC   C1B24379  23.163  40.693   8.934
 1671POPC   C2B24380  23.341  40.652   8.521
 1671POPC   C3B24381  23.184  40.611   8.105
 1671POPC   C4B24382  23.183  40.719   7.654
 1672POPC   NC324383   7.609  13.372   9.586
 1672POPC   PO424384   7.042  13.574   9.654
 1672POPC   GL124385   7.222  13.419   9.237
 1672POPC   GL224386   7.464  13.631   9.181
 1672POPC   C1A24387   7.406  13.294   8.801
 1672POPC   D2A24388   7.289  13.102   8.414
 1672POPC   C3A24389   7.341  13.386   8.082
 1672POPC   C4A24390   7.651  13.357   7.732
 1672POPC   C1B24391   7.487  13.828   8.794
 1672POPC   C2B24392   7.785  13.842   8.478
 1672POPC   C3B24393   7.774  13.679   8.084
 1672POPC   C4B24394   7.406  13.803   7.794
 1673POPC   NC324395  43.508  18.570   9.410
 1673POPC   PO424396  43.891  18.026   9.524
 1673POPC   GL124397  44.004  18.086   9.105
 1673POPC   GL224398  43.896  18.429   9.089
 1673POPC   C1A24399  44.151  18.111   8.695
 1673POPC   D2A24400  43.871  18.117   8.368
 1673POPC   C3A24401  43.970  18.170   7.979
 1673POPC   C4A24402  43.766  18.257   7.590
 1673POPC   C1B24403  44.062  18.640   8.733
 1673POPC   C2B24404  44.071  18.596   8.281
 1673POPC   C3B24405  44.032  18.646   7.826
 1673POPC   C4B24406  44.140  18.501   7.364
 1674POPC   NC324407  13.147  28.231   9.576
 1674POPC   PO424408  12.462  28.337   9.422
 1674POPC   GL124409  12.777  28.220   9.178
 1674POPC   GL224410  13.006  28.510   9.155
 1674POPC   C1A24411  12.717  28.293   8.758
 1674POPC   D2A24412  12.654  28.531   8.405
 1674POPC   C3A24413  12.845  28.321   8.090
 1674POPC   C4A24414  13.016  28.207   7.707
 1674POPC   C1B24415  12.964  28.726   8.764
 1674POPC   C2B24416  13.140  28.714   8.359
 1674POPC   C3B24417  12.948  28.801   7.946
 1674POPC   C4B24418  12.723  28.614   7.666
 1675POPC   NC324419  14.518  38.466   9.867
 1675POPC   PO424420  13.995  38.669   9.626
 1675POPC   GL124421  13.872  38.452   9.176
 1675POPC   GL224422  13.895  38.080   9.155
 1675POPC   C1A24423  14.010  38.408   8.694
 1675POPC   D2A24424  14.244  38.647   8.335
 1675POPC   C3A24425  14.269  38.573   7.863
 1675POPC   C4A24426  14.238  38.599   7.394
 1675POPC   C1B24427  14.065  37.907   8.726
 1675POPC   C2B24428  14.230  38.113   8.300
 1675POPC   C3B24429  14.553  38.172   7.974
 1675POPC   C4B24430  14.618  38.262   7.523
 1676POPC   NC324431  26.619   7.467   9.429
 1676POPC   PO424432  27.265   7.119   9.448
 1676POPC   GL124433  26.968   7.207   9.145
 1676POPC   GL224434  27.095   7.474   9.067
 1676POPC   C1A24435  26.677   7.185   8.809
 1676POPC   D2A24436  26.717   6.956   8.437
 1676POPC   C3A24437  26.514   7.107   8.045
 1676POPC   C4A24438  26.673   7.301   7.656
 1676POPC   C1B24439  26.901   7.626   8.731
 1676POPC   C2B24440  26.747   7.469   8.364
 1676POPC   C3B24441  26.974   7.515   8.021
 1676POPC   C4B24442  26.973   7.727   7.645
 1677POPC   NC324443  11.432  37.149   9.769
 1677POPC   PO424444  11.009  36.644   9.593
 1677POPC   GL124445  11.324  36.702   9.251
 1677POPC   GL224446  11.326  37.061   9.143
 1677POPC   C1A24447  11.481  36.502   8.877
 1677POPC   D2A24448  11.458  36.378   8.430
 1677POPC   C3A24449  11.504  36.727   8.139
 1677POPC   C4A24450  11.559  36.738   7.694
 1677POPC   C1B24451  11.203  36.900   8.707
 1677POPC   C2B24452  11.082  36.961   8.272
 1677POPC   C3B24453  11.081  36.904   7.801
 1677POPC   C4B24454  10.957  36.578   7.477
 1678POPC   NC324455   0.897  11.068   9.435
 1678POPC   PO424456   1.372  11.515   9.419
 1678POPC   GL124457   1.142  11.395   9.067
 1678POPC   GL224458   1.336  11.072   9.139
 1678POPC   C1A24459   1.051  11.444   8.595
 1678POPC   D2A24460   1.432  11.348   8.310
 1678POPC   C3A24461   1.374  11.502   7.886
 1678POPC   C4A24462   0.914  11.430   7.792
 1678POPC   C1B24463   1.216  10.994   8.739
 1678POPC   C2B24464   1.055  10.964   8.356
 1678POPC   C3B24465   1.184  11.046   7.969
 1678POPC   C4B24466   1.223  11.161   7.505
 1679POPC   NC324467   3.963  37.488   9.502
 1679POPC   PO424468   3.420  37.892   9.525
 1679POPC   GL124469   3.392  37.710   9.131
 1679POPC   GL224470   3.558  37.424   9.159
 1679POPC   C1A24471   3.579  37.802   8.725
 1679POPC   D2A24472   3.833  37.704   8.383
 1679POPC   C3A24473   3.735  37.893   8.005
 1679POPC   C4A24474   3.515  37.642   7.710
 1679POPC   C1B24475   3.841  37.350   8.813
 1679POPC   C2B24476   3.958  37.200   8.403
 1679POPC   C3B24477   3.790  37.341   8.017
 1679POPC   C4B24478   4.012  37.381   7.636
 1680POPC   NC324479  37.399  30.268   9.380
 1680POPC   PO424480  37.821  29.721   9.479
 1680POPC   GL124481  37.736  29.854   9.102
 1680POPC   GL224482  38.025  30.085   9.085
 1680POPC   C1A24483  37.603  29.639   8.712
 1680POPC   D2A24484  37.357  29.670   8.348
 1680POPC   C3A24485  37.527  29.540   8.003
 1680POPC   C4A24486  37.498  29.830   7.696
 1680POPC   C1B24487  37.789  30.202   8.728
 1680POPC   C2B24488  37.821  30.374   8.313
 1680POPC   C3B24489  37.787  30.198   7.889
 1680POPC   C4B24490  37.684  30.216   7.410
 1681POPC   NC324491  25.813  26.344   9.443
 1681POPC   PO424492  26.140  25.742   9.415
 1681POPC   GL124493  25.967  25.937   9.129
 1681POPC   GL224494  25.727  25.734   8.987
 1681POPC   C1A24495  26.132  25.993   8.735
 1681POPC   D2A24496  26.350  25.832   8.419
 1681POPC   C3A24497  26.104  25.975   8.083
 1681POPC   C4A24498  26.235  25.871   7.693
 1681POPC   C1B24499  25.643  26.127   8.793
 1681POPC   C2B24500  25.766  26.331   8.451
 1681POPC   C3B24501  25.729  26.374   8.017
 1681POPC   C4B24502  25.796  26.118   7.662
 1682POPC   NC324503  41.918  18.428   9.546
 1682POPC   PO424504  41.220  18.193   9.325
 1682POPC   GL124505  41.568  18.376   9.175
 1682POPC   GL224506  41.811  18.121   9.134
 1682POPC   C1A24507  41.709  18.634   8.872
 1682POPC   D2A24508  41.777  18.728   8.458
 1682POPC   C3A24509  41.728  18.397   8.171
 1682POPC   C4A24510  41.724  18.390   7.745
 1682POPC   C1B24511  41.616  18.130   8.717
 1682POPC   C2B24512  41.841  17.945   8.388
 1682POPC   C3B24513  41.862  17.859   7.935
 1682POPC   C4B24514  41.878  17.959   7.503
 1683POPC   NC324515   0.095  30.259   9.533
 1683POPC   PO424516   0.745  30.532   9.573
 1683POPC   GL124517   0.411  30.507   9.195
 1683POPC   GL224518   0.245  30.860   9.051
 1683POPC   C1A24519   0.572  30.557   8.793
 1683POPC   D2A24520   0.641  30.723   8.374
 1683POPC   C3A24521   0.702  30.544   7.991
 1683POPC   C4A24522   0.567  30.690   7.587
 1683POPC   C1B24523   0.500  31.050   8.745
 1683POPC   C2B24524   0.427  31.188   8.353
 1683POPC   C3B24525   0.299  30.968   7.997
 1683POPC   C4B24526   0.134  30.930   7.603
 1684POPC   NC324527  26.650  40.348   9.747
 1684POPC   PO424528  26.882  40.944   9.562
 1684POPC   GL124529  26.844  40.756   9.145
 1684POPC   GL224530  26.622  40.470   9.188
 1684POPC   C1A24531  26.768  40.746   8.683
 1684POPC   D2A24532  26.504  40.922   8.350
 1684POPC   C3A24533  26.658  41.029   7.935
 1684POPC   C4A24534  26.808  40.765   7.586
 1684POPC   C1B24535  26.598  40.264   8.783
 1684POPC   C2B24536  26.432  40.416   8.380
 1684POPC   C3B24537  26.597  40.539   8.008
 1684POPC   C4B24538  26.439  40.425   7.621
 1685POPC   NC324539  23.080  41.849   9.425
 1685POPC   PO424540  22.831  42.400   9.414
 1685POPC   GL124541  22.770  42.258   9.008
 1685POPC   GL224542  22.784  41.927   9.012
 1685POPC   C1A24543  22.741  42.454   8.601
 1685POPC   D2A24544  23.135  42.584   8.405
 1685POPC   C3A24545  23.276  42.435   7.984
 1685POPC   C4A24546  23.253  42.704   7.644
 1685POPC   C1B24547  22.966  41.954   8.608
 1685POPC   C2B24548  22.909  42.143   8.209
 1685POPC   C3B24549  22.880  42.193   7.765
 1685POPC   C4B24550  22.763  42.035   7.291
 1686POPC   NC324551  43.104  24.042   9.481
 1686POPC   PO424552  43.373  23.448   9.628
 1686POPC   GL124553  43.236  23.567   9.182
 1686POPC   GL224554  43.328  23.886   9.049
 1686POPC   C1A24555  42.996  23.432   8.796
 1686POPC   D2A24556  42.760  23.592   8.459
 1686POPC   C3A24557  42.997  23.729   8.104
 1686POPC   C4A24558  42.962  23.692   7.660
 1686POPC   C1B24559  43.134  23.900   8.668
 1686POPC   C2B24560  42.867  24.119   8.426
 1686POPC   C3B24561  42.724  24.200   8.042
 1686POPC   C4B24562  42.886  24.219   7.656
 1687POPC   NC324563  22.367  44.475   9.371
 1687POPC   PO424564  21.763  44.628   9.569
 1687POPC   GL124565  21.898  44.617   9.123
 1687POPC   GL224566  22.136  44.903   9.076
 1687POPC   C1A24567  22.111  44.502   8.706
 1687POPC   D2A24568  22.385  44.436   8.313
 1687POPC   C3A24569  22.256  44.614   7.895
 1687POPC   C4A24570  21.814  44.615   7.805
 1687POPC   C1B24571  21.853   0.110   8.745
 1687POPC   C2B24572  21.884   0.280   8.301
 1687POPC   C3B24573  22.023   0.087   7.935
 1687POPC   C4B24574  22.074  44.995   7.501
 1688POPC   NC324575  22.477  20.523   9.344
 1688POPC   PO424576  21.906  20.331   9.537
 1688POPC   GL124577  22.025  20.651   9.161
 1688POPC   GL224578  22.295  20.513   8.893
 1688POPC   C1A24579  21.907  20.759   8.736
 1688POPC   D2A24580  22.059  20.489   8.409
 1688POPC   C3A24581  22.152  20.623   7.994
 1688POPC   C4A24582  22.092  20.353   7.634
 1688POPC   C1B24583  22.415  20.910   8.718
 1688POPC   C2B24584  22.398  21.080   8.289
 1688POPC   C3B24585  22.229  21.131   7.867
 1688POPC   C4B24586  22.107  20.848   7.511
 1689POPC   NC324587  34.704  44.791   9.342
 1689POPC   PO424588  34.068  44.617   9.623
 1689POPC   GL124589  34.312  44.462   9.207
 1689POPC   GL224590  34.405  44.782   8.945
 1689POPC   C1A24591  34.296  44.344   8.747
 1689POPC   D2A24592  34.245  44.596   8.384
 1689POPC   C3A24593  34.441  44.479   7.981
 1689POPC   C4A24594  34.564  44.794   7.689
 1689POPC   C1B24595  34.743  44.900   8.644
 1689POPC   C2B24596  34.800  44.813   8.182
 1689POPC   C3B24597  35.067  44.843   7.794
 1689POPC   C4B24598  34.904  44.998   7.387
 1690POPC   NC324599   5.467  17.644   9.598
 1690POPC   PO424600   4.890  17.736   9.602
 1690POPC   GL124601   5.121  17.591   9.202
 1690POPC   GL224602   5.492  17.497   9.130
 1690POPC   C1A24603   5.028  17.722   8.778
 1690POPC   D2A24604   5.013  17.530   8.389
 1690POPC   C3A24605   5.009  17.747   8.004
 1690POPC   C4A24606   4.953  17.397   7.781
 1690POPC   C1B24607   5.403  17.369   8.736
 1690POPC   C2B24608   5.452  17.215   8.352
 1690POPC   C3B24609   5.445  17.452   8.009
 1690POPC   C4B24610   5.407  17.422   7.583
 1691POPC   NC324611  27.344  10.108   9.328
 1691POPC   PO424612  27.241  10.763   9.642
 1691POPC   GL124613  27.535  10.589   9.274
 1691POPC   GL224614  27.816  10.305   9.195
 1691POPC   C1A24615  27.648  10.640   8.819
 1691POPC   D2A24616  27.932  10.579   8.454
 1691POPC   C3A24617  27.746  10.679   8.040
 1691POPC   C4A24618  27.380  10.702   7.744
 1691POPC   C1B24619  27.737  10.137   8.763
 1691POPC   C2B24620  27.509  10.320   8.415
 1691POPC   C3B24621  27.456  10.260   8.005
 1691POPC   C4B24622  27.720  10.248   7.688
 1692POPC   NC324623   8.302  37.182   9.793
 1692POPC   PO424624   8.288  37.703   9.384
 1692POPC   GL124625   8.099  37.700   9.042
 1692POPC   GL224626   8.343  37.430   8.962
 1692POPC   C1A24627   8.028  37.634   8.624
 1692POPC   D2A24628   8.085  37.883   8.289
 1692POPC   C3A24629   8.099  37.567   7.997
 1692POPC   C4A24630   8.364  37.574   7.680
 1692POPC   C1B24631   8.548  37.712   8.693
 1692POPC   C2B24632   8.568  37.691   8.254
 1692POPC   C3B24633   8.656  37.933   7.957
 1692POPC   C4B24634   8.611  38.058   7.575
 1693POPC   NC324635  15.294  13.032   9.283
 1693POPC   PO424636  14.965  12.463   9.531
 1693POPC   GL124637  15.034  12.610   9.094
 1693POPC   GL224638  14.806  12.911   9.123
 1693POPC   C1A24639  15.370  12.717   8.752
 1693POPC   D2A24640  15.434  13.136   8.487
 1693POPC   C3A24641  15.483  13.045   8.031
 1693POPC   C4A24642  15.543  12.717   7.694
 1693POPC   C1B24643  14.890  12.926   8.675
 1693POPC   C2B24644  15.113  12.723   8.328
 1693POPC   C3B24645  15.094  12.713   7.931
 1693POPC   C4B24646  15.028  13.009   7.648
 1694POPC   NC324647  21.245  41.172   9.418
 1694POPC   PO424648  21.384  40.550   9.666
 1694POPC   GL124649  21.356  40.712   9.205
 1694POPC   GL224650  21.492  40.982   9.016
 1694POPC   C1A24651  21.145  40.686   8.773
 1694POPC   D2A24652  21.228  40.583   8.320
 1694POPC   C3A24653  21.021  40.814   7.993
 1694POPC   C4A24654  21.173  41.139   7.712
 1694POPC   C1B24655  21.213  41.182   8.692
 1694POPC   C2B24656  21.179  41.214   8.257
 1694POPC   C3B24657  21.497  40.980   8.058
 1694POPC   C4B24658  21.699  41.015   7.705
 1695POPC   NC324659  28.251  27.196   9.609
 1695POPC   PO424660  28.455  26.526   9.573
 1695POPC   GL124661  28.441  26.651   9.163
 1695POPC   GL224662  28.656  26.412   9.035
 1695POPC   C1A24663  28.203  26.865   8.819
 1695POPC   D2A24664  28.036  26.687   8.410
 1695POPC   C3A24665  28.197  26.889   8.041
 1695POPC   C4A24666  28.600  26.939   7.875
 1695POPC   C1B24667  28.460  26.448   8.664
 1695POPC   C2B24668  28.644  26.621   8.325
 1695POPC   C3B24669  28.657  26.434   7.963
 1695POPC   C4B24670  28.362  26.533   7.695
 1696POPC   NC324671  33.166  32.134   9.568
 1696POPC   PO424672  33.099  32.753   9.347
 1696POPC   GL124673  33.078  32.403   9.089
 1696POPC   GL224674  33.034  32.037   9.080
 1696POPC   C1A24675  33.189  32.439   8.660
 1696POPC   D2A24676  32.980  32.278   8.296
 1696POPC   C3A24677  32.979  32.565   7.964
 1696POPC   C4A24678  32.829  32.366   7.589
 1696POPC   C1B24679  33.192  31.919   8.676
 1696POPC   C2B24680  33.445  32.074   8.340
 1696POPC   C3B24681  33.322  32.178   7.918
 1696POPC   C4B24682  33.250  32.078   7.503
 1697POPC   NC324683  41.853   3.678   9.304
 1697POPC   PO424684  41.310   3.330   9.298
 1697POPC   GL124685  41.159   3.680   9.018
 1697POPC   GL224686  41.458   3.846   9.001
 1697POPC   C1A24687  41.147   3.850   8.578
 1697POPC   D2A24688  41.298   3.978   8.146
 1697POPC   C3A24689  41.539   3.664   7.930
 1697POPC   C4A24690  41.530   3.328   7.645
 1697POPC   C1B24691  41.555   3.511   8.714
 1697POPC   C2B24692  41.753   3.434   8.345
 1697POPC   C3B24693  41.893   3.233   8.003
 1697POPC   C4B24694  42.031   3.429   7.669
 1698POPC   NC324695   0.984  40.106   9.852
 1698POPC   PO424696   1.597  39.834   9.519
 1698POPC   GL124697   1.370  40.069   9.177
 1698POPC   GL224698   1.008  40.162   9.193
 1698POPC   C1A24699   1.278  40.063   8.742
 1698POPC   D2A24700   1.370  40.223   8.328
 1698POPC   C3A24701   1.235  39.978   7.946
 1698POPC   C4A24702   1.391  40.019   7.503
 1698POPC   C1B24703   0.893  40.382   8.782
 1698POPC   C2B24704   0.961  40.530   8.334
 1698POPC   C3B24705   1.051  40.455   7.891
 1698POPC   C4B24706   0.931  40.231   7.536
 1699POPC   NC324707  32.215  15.709   9.600
 1699POPC   PO424708  32.154  15.045   9.623
 1699POPC   GL124709  32.122  15.222   9.228
 1699POPC   GL224710  32.336  15.499   9.163
 1699POPC   C1A24711  32.160  15.095   8.816
 1699POPC   D2A24712  31.876  14.940   8.503
 1699POPC   C3A24713  32.115  15.011   8.135
 1699POPC   C4A24714  32.488  15.182   7.932
 1699POPC   C1B24715  32.163  15.636   8.782
 1699POPC   C2B24716  32.336  15.568   8.378
 1699POPC   C3B24717  32.224  15.639   7.972
 1699POPC   C4B24718  32.049  15.345   7.763
 1700POPC   NC324719   0.653  31.695   9.490
 1700POPC   PO424720   0.648  32.370   9.563
 1700POPC   GL124721   0.523  32.559   9.161
 1700POPC   GL224722   0.137  32.621   9.204
 1700POPC   C1A24723   0.658  32.281   8.805
 1700POPC   D2A24724   0.773  32.097   8.413
 1700POPC   C3A24725   0.478  32.056   8.069
 1700POPC   C4A24726   0.664  31.953   7.691
 1700POPC   C1B24727   0.155  32.287   8.865
 1700POPC   C2B24728   0.293  32.379   8.452
 1700POPC   C3B24729   0.420  32.558   8.090
 1700POPC   C4B24730   0.379  32.384   7.688
 1701POPC   NC324731   5.178   6.809   9.707
 1701POPC   PO424732   4.539   6.753   9.557
 1701POPC   GL124733   4.761   6.898   9.142
 1701POPC   GL224734   5.094   6.769   9.017
 1701POPC   C1A24735   4.762   6.958   8.668
 1701POPC   D2A24736   4.754   6.917   8.195
 1701POPC   C3A24737   5.102   6.757   7.952
 1701POPC   C4A24738   5.559   6.719   7.988
 1701POPC   C1B24739   5.248   6.607   8.567
 1701POPC   C2B24740   5.313   6.318   8.178
 1701POPC   C3B24741   5.300   6.343   7.699
 1701POPC   C4B24742   5.237   6.284   7.219
 1702POPC   NC324743  30.239  20.812   9.472
 1702POPC   PO424744  29.710  20.735   9.212
 1702POPC   GL124745  30.068  20.622   9.040
 1702POPC   GL224746  30.071  20.347   9.281
 1702POPC   C1A24747  30.088  20.577   8.601
 1702POPC   D2A24748  29.715  20.564   8.357
 1702POPC   C3A24749  29.767  20.803   7.987
 1702POPC   C4A24750  29.777  20.739   7.537
 1702POPC   C1B24751  30.170  20.151   8.882
 1702POPC   C2B24752  30.187  20.098   8.429
 1702POPC   C3B24753  30.106  20.370   8.068
 1702POPC   C4B24754  30.107  20.153   7.655
 1703POPC   NC324755   2.323  38.799   9.373
 1703POPC   PO424756   2.591  38.277   9.783
 1703POPC   GL124757   2.681  38.386   9.316
 1703POPC   GL224758   3.046  38.339   9.155
 1703POPC   C1A24759   2.661  38.416   8.856
 1703POPC   D2A24760   2.880  38.256   8.521
 1703POPC   C3A24761   2.758  38.134   8.107
 1703POPC   C4A24762   2.714  38.339   7.740
 1703POPC   C1B24763   3.114  38.692   8.887
 1703POPC   C2B24764   3.172  38.699   8.458
 1703POPC   C3B24765   3.077  38.531   8.104
 1703POPC   C4B24766   3.191  38.515   7.711
 1704POPC   NC324767  24.292  34.220   9.615
 1704POPC   PO424768  24.449  34.871   9.551
 1704POPC   GL124769  24.356  34.656   9.147
 1704POPC   GL224770  24.276  34.294   9.124
 1704POPC   C1A24771  24.492  34.665   8.696
 1704POPC   D2A24772  24.257  34.560   8.319
 1704POPC   C3A24773  24.550  34.559   7.999
 1704POPC   C4A24774  24.617  34.879   7.726
 1704POPC   C1B24775  24.333  34.181   8.725
 1704POPC   C2B24776  24.628  34.198   8.399
 1704POPC   C3B24777  24.416  34.071   8.051
 1704POPC   C4B24778  24.543  34.085   7.663
 1705POPC   NC324779  16.980  24.201   9.725
 1705POPC   PO424780  17.256  23.679   9.328
 1705POPC   GL124781  16.882  23.594   9.102
 1705POPC   GL224782  16.638  23.876   9.123
 1705POPC   C1A24783  16.826  23.666   8.674
 1705POPC   D2A24784  17.204  23.673   8.405
 1705POPC   C3A24785  17.151  23.762   7.977
 1705POPC   C4A24786  16.931  23.513   7.702
 1705POPC   C1B24787  16.272  23.853   8.820
 1705POPC   C2B24788  16.260  23.884   8.354
 1705POPC   C3B24789  16.482  23.738   7.977
 1705POPC   C4B24790  16.481  23.663   7.520
 1706POPC   NC324791  30.601  42.189   9.396
 1706POPC   PO424792  31.111  42.673   9.426
 1706POPC   GL124793  30.917  42.456   9.114
 1706POPC   GL224794  30.964  42.103   9.012
 1706POPC   C1A24795  30.782  42.502   8.720
 1706POPC   D2A24796  30.818  42.284   8.357
 1706POPC   C3A24797  30.738  42.644   8.142
 1706POPC   C4A24798  30.808  42.595   7.767
 1706POPC   C1B24799  30.574  42.031   8.741
 1706POPC   C2B24800  30.406  41.940   8.326
 1706POPC   C3B24801  30.531  42.142   7.944
 1706POPC   C4B24802  30.927  42.112   7.849
 1707POPC   NC324803  39.814  35.437   9.560
 1707POPC   PO424804  40.103  34.840   9.570
 1707POPC   GL124805  40.025  35.091   9.167
 1707POPC   GL224806  39.707  35.207   9.135
 1707POPC   C1A24807  39.962  35.250   8.692
 1707POPC   D2A24808  40.017  35.090   8.251
 1707POPC   C3A24809  40.256  35.372   7.944
 1707POPC   C4A24810  40.097  35.647   7.564
 1707POPC   C1B24811  39.462  35.343   8.828
 1707POPC   C2B24812  39.491  35.133   8.444
 1707POPC   C3B24813  39.576  35.302   8.074
 1707POPC   C4B24814  39.830  35.204   7.762
 1708POPC   NC324815   4.715   9.100   9.458
 1708POPC   PO424816   4.109   9.365   9.502
 1708POPC   GL124817   4.268   9.055   9.187
 1708POPC   GL224818   4.198   8.681   9.214
 1708POPC   C1A24819   4.315   8.963   8.747
 1708POPC   D2A24820   4.207   9.204   8.374
 1708POPC   C3A24821   4.375   9.047   7.979
 1708POPC   C4A24822   4.608   8.917   7.614
 1708POPC   C1B24823   3.857   8.809   8.916
 1708POPC   C2B24824   3.797   8.906   8.479
 1708POPC   C3B24825   3.954   8.755   8.055
 1708POPC   C4B24826   4.190   8.628   7.637
 1709POPC   NC324827  14.202  19.849   9.650
 1709POPC   PO424828  14.622  20.308   9.731
 1709POPC   GL124829  14.566  19.886   9.317
 1709POPC   GL224830  14.228  19.987   9.162
 1709POPC   C1A24831  14.430  19.603   8.902
 1709POPC   D2A24832  14.245  19.613   8.441
 1709POPC   C3A24833  14.396  19.765   8.017
 1709POPC   C4A24834  14.267  19.537   7.651
 1709POPC   C1B24835  14.245  20.037   8.716
 1709POPC   C2B24836  14.053  20.129   8.315
 1709POPC   C3B24837  14.086  20.153   7.879
 1709POPC   C4B24838  14.285  20.072   7.488
 1710POPC   NC324839  23.754  19.419   9.500
 1710POPC   PO424840  24.192  19.874   9.527
 1710POPC   GL124841  23.948  19.907   9.127
 1710POPC   GL224842  23.607  19.716   9.104
 1710POPC   C1A24843  23.836  19.857   8.690
 1710POPC   D2A24844  23.542  19.814   8.392
 1710POPC   C3A24845  23.823  19.823   8.100
 1710POPC   C4A24846  24.094  19.876   7.774
 1710POPC   C1B24847  23.376  19.489   8.750
 1710POPC   C2B24848  23.535  19.250   8.397
 1710POPC   C3B24849  23.414  19.470   8.034
 1710POPC   C4B24850  23.425  19.880   7.796
 1711POPC   NC324851  35.755  40.428   9.472
 1711POPC   PO424852  36.460  40.507   9.557
 1711POPC   GL124853  36.180  40.590   9.219
 1711POPC   GL224854  36.077  40.932   9.123
 1711POPC   C1A24855  36.030  40.526   8.806
 1711POPC   D2A24856  36.070  40.347   8.413
 1711POPC   C3A24857  36.064  40.633   8.144
 1711POPC   C4A24858  36.023  40.832   7.774
 1711POPC   C1B24859  36.418  40.884   8.854
 1711POPC   C2B24860  36.470  40.734   8.430
 1711POPC   C3B24861  36.427  40.975   8.057
 1711POPC   C4B24862  36.483  40.978   7.613
 1712POPC   NC324863  37.590  21.846   9.362
 1712POPC   PO424864  37.753  21.156   9.555
 1712POPC   GL124865  37.645  21.348   9.182
 1712POPC   GL224866  37.923  21.552   9.110
 1712POPC   C1A24867  37.494  21.543   8.793
 1712POPC   D2A24868  37.585  21.656   8.395
 1712POPC   C3A24869  37.348  21.533   8.046
 1712POPC   C4A24870  37.586  21.631   7.683
 1712POPC   C1B24871  37.948  21.252   8.773
 1712POPC   C2B24872  38.128  21.296   8.384
 1712POPC   C3B24873  37.912  21.455   8.048
 1712POPC   C4B24874  38.042  21.422   7.647
 1713POPC   NC324875  12.181  40.974   9.577
 1713POPC   PO424876  11.792  40.467   9.687
 1713POPC   GL124877  12.058  40.547   9.292
 1713POPC   GL224878  11.952  40.902   9.132
 1713POPC   C1A24879  11.973  40.477   8.837
 1713POPC   D2A24880  12.071  40.564   8.391
 1713POPC   C3A24881  11.746  40.592   8.076
 1713POPC   C4A24882  11.777  40.618   7.622
 1713POPC   C1B24883  11.940  41.122   8.736
 1713POPC   C2B24884  12.046  41.103   8.300
 1713POPC   C3B24885  12.149  40.871   7.915
 1713POPC   C4B24886  12.137  40.989   7.461
 1714POPC   NC324887   8.030  33.473   9.410
 1714POPC   PO424888   8.394  33.999   9.476
 1714POPC   GL124889   8.191  33.981   9.111
 1714POPC   GL224890   7.839  33.985   9.113
 1714POPC   C1A24891   8.420  33.912   8.734
 1714POPC   D2A24892   8.542  33.726   8.358
 1714POPC   C3A24893   8.421  34.008   8.047
 1714POPC   C4A24894   8.274  34.084   7.660
 1714POPC   C1B24895   7.916  33.771   8.738
 1714POPC   C2B24896   8.020  33.823   8.327
 1714POPC   C3B24897   7.914  33.804   7.916
 1714POPC   C4B24898   8.010  33.491   7.629
 1715POPC   NC324899  30.641  15.328   9.464
 1715POPC   PO424900  30.784  14.760   9.591
 1715POPC   GL124901  30.707  14.915   9.182
 1715POPC   GL224902  31.071  14.846   9.155
 1715POPC   C1A24903  30.493  15.107   8.810
 1715POPC   D2A24904  30.411  15.242   8.411
 1715POPC   C3A24905  30.555  14.981   8.119
 1715POPC   C4A24906  30.564  15.133   7.740
 1715POPC   C1B24907  30.997  15.195   8.886
 1715POPC   C2B24908  30.905  15.253   8.466
 1715POPC   C3B24909  30.830  15.431   8.070
 1715POPC   C4B24910  31.086  15.349   7.715
 1716POPC   NC324911   9.073   7.886   9.386
 1716POPC   PO424912   8.599   8.278   9.474
 1716POPC   GL124913   8.848   8.299   9.159
 1716POPC   GL224914   9.169   8.419   9.279
 1716POPC   C1A24915   8.834   8.154   8.769
 1716POPC   D2A24916   8.938   8.158   8.372
 1716POPC   C3A24917   8.840   7.854   8.123
 1716POPC   C4A24918   8.906   8.017   7.752
 1716POPC   C1B24919   9.241   8.501   8.838
 1716POPC   C2B24920   9.380   8.399   8.426
 1716POPC   C3B24921   9.205   8.503   8.014
 1716POPC   C4B24922   9.369   8.735   7.649
 1717POPC   NC324923  22.032  20.763   9.674
 1717POPC   PO424924  21.299  20.754   9.572
 1717POPC   GL124925  21.257  20.566   9.174
 1717POPC   GL224926  21.572  20.439   9.142
 1717POPC   C1A24927  21.401  20.686   8.738
 1717POPC   D2A24928  21.289  20.907   8.388
 1717POPC   C3A24929  21.298  20.704   8.004
 1717POPC   C4A24930  21.071  20.582   7.660
 1717POPC   C1B24931  21.693  20.271   8.751
 1717POPC   C2B24932  21.558  20.376   8.336
 1717POPC   C3B24933  21.690  20.394   7.927
 1717POPC   C4B24934  21.611  20.565   7.514
 1718POPC   NC324935  21.996   1.631   9.534
 1718POPC   PO424936  22.439   2.069   9.324
 1718POPC   GL124937  22.304   1.720   9.137
 1718POPC   GL224938  21.919   1.743   9.068
 1718POPC   C1A24939  22.327   1.618   8.736
 1718POPC   D2A24940  22.357   1.921   8.413
 1718POPC   C3A24941  22.699   1.785   8.192
 1718POPC   C4A24942  22.488   1.601   7.867
 1718POPC   C1B24943  21.921   1.945   8.721
 1718POPC   C2B24944  21.856   2.073   8.321
 1718POPC   C3B24945  22.059   1.926   7.955
 1718POPC   C4B24946  22.452   2.114   7.881
 1719POPC   NC324947   0.235   7.559   9.564
 1719POPC   PO424948   0.891   7.654   9.462
 1719POPC   GL124949   0.574   7.604   9.201
 1719POPC   GL224950   0.576   7.277   9.274
 1719POPC   C1A24951   0.432   7.616   8.801
 1719POPC   D2A24952   0.753   7.499   8.482
 1719POPC   C3A24953   0.423   7.403   8.173
 1719POPC   C4A24954   0.197   7.628   7.833
 1719POPC   C1B24955   0.567   7.139   8.849
 1719POPC   C2B24956   0.666   6.996   8.426
 1719POPC   C3B24957   0.744   7.057   7.998
 1719POPC   C4B24958   0.388   7.144   7.724
 1720POPC   NC324959   6.021  34.771   9.394
 1720POPC   PO424960   5.729  34.151   9.466
 1720POPC   GL124961   5.675  34.466   9.159
 1720POPC   GL224962   5.995  34.357   9.060
 1720POPC   C1A24963   5.796  34.691   8.756
 1720POPC   D2A24964   5.885  34.476   8.334
 1720POPC   C3A24965   5.960  34.700   7.937
 1720POPC   C4A24966   5.740  34.790   7.566
 1720POPC   C1B24967   6.257  34.400   8.701
 1720POPC   C2B24968   6.287  34.167   8.320
 1720POPC   C3B24969   6.247  34.263   7.886
 1720POPC   C4B24970   6.170  34.454   7.448
 1721POPC   NC324971   0.223  10.203   9.306
 1721POPC   PO424972   0.562  10.735   9.484
 1721POPC   GL124973   0.517  10.569   9.082
 1721POPC   GL224974   0.702  10.278   9.119
 1721POPC   C1A24975   0.303  10.439   8.683
 1721POPC   D2A24976   0.363  10.381   8.248
 1721POPC   C3A24977   0.651  10.738   8.096
 1721POPC   C4A24978   0.796  10.911   7.691
 1721POPC   C1B24979   0.790  10.089   8.747
 1721POPC   C2B24980   0.842  10.240   8.344
 1721POPC   C3B24981   0.723  10.258   7.919
 1721POPC   C4B24982   0.842  10.414   7.528
 1722POPC   NC324983   2.514  21.859   9.460
 1722POPC   PO424984   3.126  22.204   9.365
 1722POPC   GL124985   2.836  22.238   9.044
 1722POPC   GL224986   2.536  22.458   9.143
 1722POPC   C1A24987   2.899  22.256   8.587
 1722POPC   D2A24988   2.819  22.494   8.211
 1722POPC   C3A24989   2.856  22.302   7.815
 1722POPC   C4A24990   2.990  21.886   7.974
 1722POPC   C1B24991   2.398  22.179   8.800
 1722POPC   C2B24992   2.515  21.944   8.440
 1722POPC   C3B24993   2.479  22.096   8.055
 1722POPC   C4B24994   2.384  22.213   7.627
 1723POPC   NC324995  10.063   7.743   9.409
 1723POPC   PO424996   9.383   7.558   9.339
 1723POPC   GL124997   9.760   7.433   9.132
 1723POPC   GL224998   9.598   7.143   9.081
 1723POPC   C1A24999  10.008   7.483   8.725
 1723POPC   D2A25000  10.093   7.762   8.337
 1723POPC   C3A25001  10.090   7.586   7.880
 1723POPC   C4A25002   9.868   7.325   7.533
 1723POPC   C1B25003   9.491   7.407   8.699
 1723POPC   C2B25004   9.711   7.422   8.295
 1723POPC   C3B25005   9.589   7.596   7.906
 1723POPC   C4B25006   9.232   7.674   7.621
 1724POPC   NC325007  32.856   3.191   9.514
 1724POPC   PO425008  33.018   3.862   9.395
 1724POPC   GL125009  33.064   3.690   9.008
 1724POPC   GL225010  33.006   3.380   9.070
 1724POPC   C1A25011  33.093   3.667   8.566
 1724POPC   D2A25012  33.259   3.517   8.213
 1724POPC   C3A25013  33.146   3.735   7.875
 1724POPC   C4A25014  33.357   3.398   7.690
 1724POPC   C1B25015  32.753   3.300   8.709
 1724POPC   C2B25016  32.762   3.443   8.263
 1724POPC   C3B25017  32.847   3.322   7.839
 1724POPC   C4B25018  32.463   3.180   7.616
 1725POPC   NC325019  29.491  30.280   9.511
 1725POPC   PO425020  28.950  29.912   9.515
 1725POPC   GL125021  29.101  29.803   9.135
 1725POPC   GL225022  29.435  29.933   9.113
 1725POPC   C1A25023  29.013  30.025   8.753
 1725POPC   D2A25024  28.864  30.162   8.352
 1725POPC   C3A25025  29.172  30.095   8.034
 1725POPC   C4A25026  28.920  29.844   7.785
 1725POPC   C1B25027  29.455  30.303   8.841
 1725POPC   C2B25028  29.604  30.230   8.438
 1725POPC   C3B25029  29.589  30.431   8.058
 1725POPC   C4B25030  29.405  30.417   7.673
 1726POPC   NC325031  10.660   5.183   9.643
 1726POPC   PO425032  10.216   4.779   9.531
 1726POPC   GL125033  10.399   5.033   9.222
 1726POPC   GL225034  10.769   5.048   9.171
 1726POPC   C1A25035  10.358   5.238   8.861
 1726POPC   D2A25036  10.423   5.078   8.468
 1726POPC   C3A25037  10.336   5.248   8.070
 1726POPC   C4A25038  10.095   5.026   7.816
 1726POPC   C1B25039  10.855   5.208   8.750
 1726POPC   C2B25040  10.753   5.431   8.350
 1726POPC   C3B25041  10.819   5.177   7.973
 1726POPC   C4B25042  10.570   5.067   7.623
 1727POPC   NC325043  41.670  13.034   9.526
 1727POPC   PO425044  42.098  13.299   9.119
 1727POPC   GL125045  41.815  12.917   9.040
 1727POPC   GL225046  41.729  12.595   9.246
 1727POPC   C1A25047  41.628  12.783   8.640
 1727POPC   D2A25048  41.407  13.021   8.310
 1727POPC   C3A25049  41.603  13.182   7.918
 1727POPC   C4A25050  41.295  13.096   7.599
 1727POPC   C1B25051  41.869  12.395   8.877
 1727POPC   C2B25052  41.637  12.271   8.520
 1727POPC   C3B25053  41.476  12.486   8.179
 1727POPC   C4B25054  41.564  12.698   7.798
 1728POPC   NC325055  26.605  25.751   9.301
 1728POPC   PO425056  26.945  26.292   9.638
 1728POPC   GL125057  26.912  26.223   9.186
 1728POPC   GL225058  27.038  25.900   9.054
 1728POPC   C1A25059  26.583  26.212   8.846
 1728POPC   D2A25060  26.643  26.296   8.387
 1728POPC   C3A25061  26.612  26.025   8.026
 1728POPC   C4A25062  26.670  26.107   7.572
 1728POPC   C1B25063  26.894  25.877   8.652
 1728POPC   C2B25064  27.105  26.046   8.322
 1728POPC   C3B25065  27.120  25.984   7.908
 1728POPC   C4B25066  27.334  25.731   7.638
 1729POPC   NC325067  26.503  15.674   9.480
 1729POPC   PO425068  27.095  15.966   9.587
 1729POPC   GL125069  26.991  16.063   9.177
 1729POPC   GL225070  26.639  16.112   9.136
 1729POPC   C1A25071  26.962  16.184   8.737
 1729POPC   D2A25072  26.705  16.123   8.385
 1729POPC   C3A25073  26.983  16.156   8.069
 1729POPC   C4A25074  26.925  16.208   7.668
 1729POPC   C1B25075  26.548  15.823   8.805
 1729POPC   C2B25076  26.695  15.595   8.419
 1729POPC   C3B25077  26.701  15.710   7.985
 1729POPC   C4B25078  26.797  15.735   7.544
 1730POPC   NC325079  31.059  30.693   9.641
 1730POPC   PO425080  30.590  31.054   9.612
 1730POPC   GL125081  30.774  30.884   9.236
 1730POPC   GL225082  31.150  30.972   9.230
 1730POPC   C1A25083  30.555  30.775   8.836
 1730POPC   D2A25084  30.718  30.578   8.482
 1730POPC   C3A25085  30.474  30.689   8.141
 1730POPC   C4A25086  30.346  30.929   7.790
 1730POPC   C1B25087  31.061  30.822   8.832
 1730POPC   C2B25088  31.117  30.981   8.445
 1730POPC   C3B25089  30.971  30.843   8.090
 1730POPC   C4B25090  30.780  30.666   7.727
 1731POPC   NC325091  41.920  30.897   9.419
 1731POPC   PO425092  41.226  30.908   9.427
 1731POPC   GL125093  41.494  30.805   9.119
 1731POPC   GL225094  41.651  30.481   9.135
 1731POPC   C1A25095  41.625  30.889   8.725
 1731POPC   D2A25096  41.917  30.924   8.421
 1731POPC   C3A25097  41.762  30.909   8.027
 1731POPC   C4A25098  41.726  30.503   7.816
 1731POPC   C1B25099  41.330  30.458   8.773
 1731POPC   C2B25100  41.248  30.726   8.399
 1731POPC   C3B25101  41.277  30.836   7.962
 1731POPC   C4B25102  41.346  30.772   7.554
 1732POPC   NC325103  33.149  19.460   9.659
 1732POPC   PO425104  33.174  18.783   9.442
 1732POPC   GL125105  33.169  19.040   9.122
 1732POPC   GL225106  33.005  19.353   9.186
 1732POPC   C1A25107  33.350  19.002   8.723
 1732POPC   D2A25108  33.519  18.941   8.305
 1732POPC   C3A25109  33.240  19.142   8.036
 1732POPC   C4A25110  32.838  18.964   7.958
 1732POPC   C1B25111  32.890  19.301   8.777
 1732POPC   C2B25112  32.881  19.532   8.415
 1732POPC   C3B25113  32.682  19.471   8.018
 1732POPC   C4B25114  32.768  19.350   7.626
 1733POPC   NC325115   3.399   6.883   9.471
 1733POPC   PO425116   3.601   6.259   9.575
 1733POPC   GL125117   3.512   6.533   9.114
 1733POPC   GL225118   3.216   6.816   9.007
 1733POPC   C1A25119   3.530   6.688   8.646
 1733POPC   D2A25120   3.295   6.962   8.399
 1733POPC   C3A25121   3.156   6.676   8.078
 1733POPC   C4A25122   3.465   6.595   7.743
 1733POPC   C1B25123   3.113   6.422   8.740
 1733POPC   C2B25124   3.020   6.179   8.339
 1733POPC   C3B25125   3.205   6.180   7.902
 1733POPC   C4B25126   3.275   6.243   7.430
 1734POPC   NC325127  20.256  17.846   9.594
 1734POPC   PO425128  20.826  17.833   9.488
 1734POPC   GL125129  20.745  17.573   9.157
 1734POPC   GL225130  20.448  17.421   9.301
 1734POPC   C1A25131  20.711  17.679   8.727
 1734POPC   D2A25132  20.853  17.831   8.346
 1734POPC   C3A25133  20.703  17.625   7.985
 1734POPC   C4A25134  20.565  17.670   7.542
 1734POPC   C1B25135  20.309  17.400   8.863
 1734POPC   C2B25136  20.304  17.450   8.410
 1734POPC   C3B25137  20.409  17.191   8.054
 1734POPC   C4B25138  20.779  17.128   7.811
 1735POPC   NC325139   2.251  31.697   9.479
 1735POPC   PO425140   1.759  31.148   9.511
 1735POPC   GL125141   1.901  31.431   9.173
 1735POPC   GL225142   2.237  31.344   9.101
 1735POPC   C1A25143   1.782  31.504   8.743
 1735POPC   D2A25144   1.807  31.318   8.317
 1735POPC   C3A25145   2.067  31.598   8.104
 1735POPC   C4A25146   2.201  31.695   7.688
 1735POPC   C1B25147   2.261  31.700   8.810
 1735POPC   C2B25148   2.251  31.919   8.444
 1735POPC   C3B25149   2.493  31.887   8.069
 1735POPC   C4B25150   2.412  32.193   7.815
 1736POPC   NC325151  36.798  29.007  10.001
 1736POPC   PO425152  37.177  29.249   9.524
 1736POPC   GL125153  36.861  29.078   9.188
 1736POPC   GL225154  36.579  29.281   9.058
 1736POPC   C1A25155  36.781  28.912   8.769
 1736POPC   D2A25156  37.060  28.799   8.449
 1736POPC   C3A25157  36.876  28.911   8.084
 1736POPC   C4A25158  36.968  28.889   7.690
 1736POPC   C1B25159  36.628  29.461   8.678
 1736POPC   C2B25160  36.948  29.326   8.405
 1736POPC   C3B25161  37.044  29.394   8.010
 1736POPC   C4B25162  36.698  29.397   7.787
 1737POPC   NC325163  35.774  24.206   9.533
 1737POPC   PO425164  35.264  24.663   9.776
 1737POPC   GL125165  35.432  24.584   9.315
 1737POPC   GL225166  35.510  24.254   9.104
 1737POPC   C1A25167  35.528  24.715   8.890
 1737POPC   D2A25168  35.566  24.376   8.567
 1737POPC   C3A25169  35.636  24.465   8.119
 1737POPC   C4A25170  35.447  24.290   7.767
 1737POPC   C1B25171  35.131  24.400   8.932
 1737POPC   C2B25172  34.928  24.281   8.545
 1737POPC   C3B25173  35.034  24.315   8.108
 1737POPC   C4B25174  35.059  24.616   7.768
 1738POPC   NC325175  43.727  27.243   9.505
 1738POPC   PO425176  44.157  27.709   9.560
 1738POPC   GL125177  44.061  27.580   9.159
 1738POPC   GL225178  43.723  27.683   9.202
 1738POPC   C1A25179  43.939  27.511   8.723
 1738POPC   D2A25180  44.074  27.553   8.288
 1738POPC   C3A25181  43.899  27.268   8.004
 1738POPC   C4A25182  43.749  27.362   7.600
 1738POPC   C1B25183  43.584  27.872   8.829
 1738POPC   C2B25184  43.765  27.978   8.429
 1738POPC   C3B25185  43.699  27.793   8.032
 1738POPC   C4B25186  43.613  27.833   7.629
 1739POPC   NC325187  37.635  29.311   9.547
 1739POPC   PO425188  37.551  28.721   9.679
 1739POPC   GL125189  37.525  28.970   9.196
 1739POPC   GL225190  37.419  29.372   9.104
 1739POPC   C1A25191  37.775  29.117   8.792
 1739POPC   D2A25192  37.976  29.311   8.398
 1739POPC   C3A25193  37.902  29.195   7.945
 1739POPC   C4A25194  37.821  29.425   7.557
 1739POPC   C1B25195  37.240  29.172   8.791
 1739POPC   C2B25196  37.440  29.166   8.401
 1739POPC   C3B25197  37.394  29.005   8.024
 1739POPC   C4B25198  37.362  29.206   7.632
 1740POPC   NC325199   9.658   8.606   9.758
 1740POPC   PO425200  10.119   8.186   9.590
 1740POPC   GL125201   9.826   8.311   9.275
 1740POPC   GL225202   9.572   8.047   9.256
 1740POPC   C1A25203   9.824   8.260   8.818
 1740POPC   D2A25204   9.896   8.314   8.374
 1740POPC   C3A25205   9.835   8.060   8.012
 1740POPC   C4A25206   9.963   8.227   7.649
 1740POPC   C1B25207   9.393   8.003   8.836
 1740POPC   C2B25208   9.544   7.905   8.433
 1740POPC   C3B25209   9.331   8.008   8.054
 1740POPC   C4B25210   9.416   8.195   7.658
 1741POPC   NC325211  39.366  10.764   9.567
 1741POPC   PO425212  38.900  10.351   9.405
 1741POPC   GL125213  39.265  10.460   9.144
 1741POPC   GL225214  39.264  10.828   9.082
 1741POPC   C1A25215  39.404  10.483   8.715
 1741POPC   D2A25216  39.413  10.241   8.309
 1741POPC   C3A25217  39.432  10.425   7.879
 1741POPC   C4A25218  39.187  10.611   7.540
 1741POPC   C1B25219  39.441  10.996   8.724
 1741POPC   C2B25220  39.465  10.785   8.320
 1741POPC   C3B25221  39.228  10.872   7.984
 1741POPC   C4B25222  39.509  10.976   7.685
 1742POPC   NC325223  22.435  34.739   9.494
 1742POPC   PO425224  22.030  34.235   9.542
 1742POPC   GL125225  22.041  34.517   9.206
 1742POPC   GL225226  21.767  34.714   9.229
 1742POPC   C1A25227  22.225  34.733   8.844
 1742POPC   D2A25228  22.465  34.607   8.514
 1742POPC   C3A25229  22.333  34.536   8.077
 1742POPC   C4A25230  22.518  34.628   7.673
 1742POPC   C1B25231  21.728  34.681   8.780
 1742POPC   C2B25232  21.952  34.595   8.399
 1742POPC   C3B25233  21.828  34.392   8.001
 1742POPC   C4B25234  21.740  34.529   7.540
 1743POPC   NC325235  27.826  25.444   9.631
 1743POPC   PO425236  27.107  25.496   9.348
 1743POPC   GL125237  27.498  25.476   9.131
 1743POPC   GL225238  27.858  25.364   9.148
 1743POPC   C1A25239  27.546  25.211   8.761
 1743POPC   D2A25240  27.334  25.123   8.377
 1743POPC   C3A25241  27.581  25.105   8.008
 1743POPC   C4A25242  27.548  25.242   7.603
 1743POPC   C1B25243  27.997  25.038   8.937
 1743POPC   C2B25244  27.950  25.031   8.487
 1743POPC   C3B25245  28.038  25.278   8.115
 1743POPC   C4B25246  28.044  25.157   7.704
 1744POPC   NC325247  18.054   5.684   9.586
 1744POPC   PO425248  18.555   6.130   9.623
 1744POPC   GL125249  18.293   6.041   9.239
 1744POPC   GL225250  18.380   5.712   9.181
 1744POPC   C1A25251  18.148   5.953   8.761
 1744POPC   D2A25252  18.378   5.785   8.372
 1744POPC   C3A25253  18.331   5.893   7.946
 1744POPC   C4A25254  18.282   5.660   7.555
 1744POPC   C1B25255  18.003   5.513   8.927
 1744POPC   C2B25256  17.994   5.448   8.445
 1744POPC   C3B25257  17.989   5.483   7.964
 1744POPC   C4B25258  17.793   5.649   7.557
 1745POPC   NC325259  23.744   1.880   9.443
 1745POPC   PO425260  23.650   2.507   9.549
 1745POPC   GL125261  23.795   2.316   9.174
 1745POPC   GL225262  23.547   2.450   9.006
 1745POPC   C1A25263  23.763   2.053   8.781
 1745POPC   D2A25264  23.587   1.744   8.497
 1745POPC   C3A25265  23.738   1.722   8.105
 1745POPC   C4A25266  23.894   1.989   7.826
 1745POPC   C1B25267  23.840   2.549   8.676
 1745POPC   C2B25268  23.559   2.347   8.411
 1745POPC   C3B25269  23.471   2.239   8.021
 1745POPC   C4B25270  23.678   2.416   7.658
 1746POPC   NC325271  17.238  10.473   9.695
 1746POPC   PO425272  17.729  10.777   9.540
 1746POPC   GL125273  17.507  10.496   9.269
 1746POPC   GL225274  17.684  10.593   9.027
 1746POPC   C1A25275  17.180  10.650   8.962
 1746POPC   D2A25276  17.074  10.567   8.495
 1746POPC   C3A25277  17.323  10.596   8.118
 1746POPC   C4A25278  17.637  10.399   7.891
 1746POPC   C1B25279  17.590  10.594   8.602
 1746POPC   C2B25280  17.806  10.754   8.255
 1746POPC   C3B25281  17.653  10.939   7.870
 1746POPC   C4B25282  17.705  10.943   7.390
 1747POPC   NC325283  22.518  27.894   9.390
 1747POPC   PO425284  22.952  27.491   9.711
 1747POPC   GL125285  22.959  27.460   9.238
 1747POPC   GL225286  23.044  27.814   9.230
 1747POPC   C1A25287  22.996  27.282   8.784
 1747POPC   D2A25288  22.821  27.176   8.351
 1747POPC   C3A25289  22.902  27.429   7.961
 1747POPC   C4A25290  23.243  27.727   7.800
 1747POPC   C1B25291  23.179  27.767   8.803
 1747POPC   C2B25292  22.991  27.685   8.421
 1747POPC   C3B25293  22.890  27.934   8.078
 1747POPC   C4B25294  22.733  27.967   7.647
 1748POPC   NC325295   8.406   0.073   9.489
 1748POPC   PO425296   8.192   0.668   9.280
 1748POPC   GL125297   8.221   0.316   9.055
 1748POPC   GL225298   7.984   0.105   9.080
 1748POPC   C1A25299   8.118   0.347   8.614
 1748POPC   D2A25300   7.939   0.547   8.239
 1748POPC   C3A25301   8.145   0.381   7.875
 1748POPC   C4A25302   8.393   0.625   7.583
 1748POPC   C1B25303   7.847  44.923   8.686
 1748POPC   C2B25304   7.903   0.026   8.262
 1748POPC   C3B25305   7.659   0.177   7.956
 1748POPC   C4B25306   7.768   0.202   7.550
 1749POPC   NC325307  40.143  16.239   9.432
 1749POPC   PO425308  39.676  15.769   9.485
 1749POPC   GL125309  39.896  15.923   9.114
 1749POPC   GL225310  40.236  15.950   9.027
 1749POPC   C1A25311  39.760  15.880   8.708
 1749POPC   D2A25312  39.869  15.932   8.302
 1749POPC   C3A25313  39.745  15.692   7.965
 1749POPC   C4A25314  39.654  16.111   7.847
 1749POPC   C1B25315  40.296  15.870   8.627
 1749POPC   C2B25316  40.346  16.085   8.279
 1749POPC   C3B25317  40.162  16.059   7.886
 1749POPC   C4B25318  40.261  15.854   7.520
 1750POPC   NC325319  30.426   3.540   9.334
 1750POPC   PO425320  30.943   3.240   9.706
 1750POPC   GL125321  30.925   3.393   9.240
 1750POPC   GL225322  30.788   3.199   8.928
 1750POPC   C1A25323  30.905   3.648   8.814
 1750POPC   D2A25324  30.809   3.408   8.423
 1750POPC   C3A25325  31.002   3.550   8.054
 1750POPC   C4A25326  31.105   3.432   7.627
 1750POPC   C1B25327  30.497   2.948   8.626
 1750POPC   C2B25328  30.396   2.937   8.179
 1750POPC   C3B25329  30.648   3.219   7.918
 1750POPC   C4B25330  30.528   3.652   7.784
 1751POPC   NC325331  25.854  31.776   9.358
 1751POPC   PO425332  26.010  31.113   9.599
 1751POPC   GL125333  26.155  31.355   9.200
 1751POPC   GL225334  26.048  31.042   9.087
 1751POPC   C1A25335  26.164  31.542   8.750
 1751POPC   D2A25336  26.139  31.826   8.346
 1751POPC   C3A25337  26.104  31.648   7.936
 1751POPC   C4A25338  26.319  31.250   7.848
 1751POPC   C1B25339  25.793  31.160   8.756
 1751POPC   C2B25340  25.837  31.382   8.384
 1751POPC   C3B25341  25.822  31.228   8.002
 1751POPC   C4B25342  25.807  31.346   7.606
 1752POPC   NC325343  24.071  26.801   9.505
 1752POPC   PO425344  24.744  26.497   9.557
 1752POPC   GL125345  24.435  26.632   9.193
 1752POPC   GL225346  24.425  26.985   9.010
 1752POPC   C1A25347  24.275  26.585   8.772
 1752POPC   D2A25348  24.494  26.841   8.500
 1752POPC   C3A25349  24.310  26.868   8.118
 1752POPC   C4A25350  24.102  26.663   7.806
 1752POPC   C1B25351  24.772  27.207   8.789
 1752POPC   C2B25352  24.937  27.120   8.400
 1752POPC   C3B25353  24.716  27.178   8.025
 1752POPC   C4B25354  24.426  27.072   7.664
 1753POPC   NC325355  35.611   4.458   9.436
 1753POPC   PO425356  34.884   4.297   9.440
 1753POPC   GL125357  35.216   4.279   9.152
 1753POPC   GL225358  35.388   3.973   9.125
 1753POPC   C1A25359  35.387   4.469   8.768
 1753POPC   D2A25360  35.203   4.401   8.376
 1753POPC   C3A25361  35.190   4.595   8.003
 1753POPC   C4A25362  35.244   4.361   7.621
 1753POPC   C1B25363  35.668   4.047   8.768
 1753POPC   C2B25364  35.688   4.233   8.370
 1753POPC   C3B25365  35.488   4.118   8.002
 1753POPC   C4B25366  35.664   3.990   7.607
 1754POPC   NC325367   9.477  40.151   9.507
 1754POPC   PO425368  10.099  40.252   9.515
 1754POPC   GL125369   9.909  39.972   9.130
 1754POPC   GL225370   9.557  39.878   9.100
 1754POPC   C1A25371   9.817  39.832   8.660
 1754POPC   D2A25372  10.007  39.961   8.271
 1754POPC   C3A25373   9.814  40.338   8.066
 1754POPC   C4A25374   9.827  40.163   7.674
 1754POPC   C1B25375   9.557  40.238   8.791
 1754POPC   C2B25376   9.414  40.135   8.372
 1754POPC   C3B25377   9.557  39.908   8.020
 1754POPC   C4B25378   9.557  39.732   7.635
 1755POPC   NC325379  44.310  20.015   9.321
 1755POPC   PO425380  44.938  19.855   9.458
 1755POPC   GL125381  44.813  19.915   9.104
 1755POPC   GL225382  44.835  20.267   9.152
 1755POPC   C1A25383  44.621  19.642   8.796
 1755POPC   D2A25384  44.552  19.411   8.425
 1755POPC   C3A25385  44.533  19.591   8.053
 1755POPC   C4A25386  44.476  19.794   7.673
 1755POPC   C1B25387  44.665  20.230   8.755
 1755POPC   C2B25388  44.696  19.981   8.413
 1755POPC   C3B25389  44.519  20.107   8.069
 1755POPC   C4B25390  44.654  20.289   7.700
 1756POPC   NC325391  24.657  19.632   9.524
 1756POPC   PO425392  24.595  20.255   9.268
 1756POPC   GL125393  24.487  19.880   9.102
 1756POPC   GL225394  24.822  19.745   9.062
 1756POPC   C1A25395  24.322  19.693   8.753
 1756POPC   D2A25396  24.409  19.765   8.300
 1756POPC   C3A25397  24.503  19.456   7.964
 1756POPC   C4A25398  24.291  19.464   7.552
 1756POPC   C1B25399  24.801  19.924   8.667
 1756POPC   C2B25400  24.831  20.145   8.293
 1756POPC   C3B25401  24.504  20.176   8.019
 1756POPC   C4B25402  24.596  19.899   7.698
 1757POPC   NC325403   9.061  11.763   9.286
 1757POPC   PO425404   8.667  12.224   9.338
 1757POPC   GL125405   8.931  12.170   9.010
 1757POPC   GL225406   9.217  12.277   9.137
 1757POPC   C1A25407   8.972  12.062   8.578
 1757POPC   D2A25408   8.664  12.128   8.279
 1757POPC   C3A25409   8.763  12.252   7.879
 1757POPC   C4A25410   9.004  12.024   7.597
 1757POPC   C1B25411   9.257  12.491   8.739
 1757POPC   C2B25412   9.093  12.474   8.298
 1757POPC   C3B25413   9.303  12.322   7.922
 1757POPC   C4B25414   9.348  12.338   7.446
 1758POPC   NC325415  25.691  40.227   9.490
 1758POPC   PO425416  26.316  40.186   9.492
 1758POPC   GL125417  26.141  40.064   9.133
 1758POPC   GL225418  26.388  39.879   9.013
 1758POPC   C1A25419  26.104  40.181   8.688
 1758POPC   D2A25420  26.050  40.074   8.279
 1758POPC   C3A25421  25.767  40.187   8.016
 1758POPC   C4A25422  26.004  40.156   7.673
 1758POPC   C1B25423  26.245  39.700   8.662
 1758POPC   C2B25424  26.517  39.918   8.376
 1758POPC   C3B25425  26.460  40.046   7.973
 1758POPC   C4B25426  26.310  39.746   7.725
 1759POPC   NC325427  24.675  31.180   9.740
 1759POPC   PO425428  24.776  30.612   9.383
 1759POPC   GL125429  24.514  30.771   9.086
 1759POPC   GL225430  24.322  30.503   9.108
 1759POPC   C1A25431  24.471  30.679   8.650
 1759POPC   D2A25432  24.682  30.529   8.334
 1759POPC   C3A25433  24.571  30.751   7.977
 1759POPC   C4A25434  24.634  30.518   7.628
 1759POPC   C1B25435  24.256  30.248   8.798
 1759POPC   C2B25436  24.008  30.301   8.463
 1759POPC   C3B25437  24.211  30.410   8.090
 1759POPC   C4B25438  24.241  30.152   7.718
 1760POPC   NC325439  39.163  12.384   9.807
 1760POPC   PO425440  39.147  13.012   9.501
 1760POPC   GL125441  38.972  13.037   9.105
 1760POPC   GL225442  38.822  12.701   9.180
 1760POPC   C1A25443  39.125  13.021   8.669
 1760POPC   D2A25444  39.261  12.685   8.388
 1760POPC   C3A25445  39.385  12.893   8.024
 1760POPC   C4A25446  39.372  13.074   7.569
 1760POPC   C1B25447  38.978  12.494   8.823
 1760POPC   C2B25448  38.789  12.477   8.419
 1760POPC   C3B25449  38.932  12.412   7.982
 1760POPC   C4B25450  39.223  12.576   7.676
 1761POPC   NC325451  22.327  30.277   9.400
 1761POPC   PO425452  21.726  30.156   9.344
 1761POPC   GL125453  21.935  30.210   8.995
 1761POPC   GL225454  22.170  29.941   9.038
 1761POPC   C1A25455  21.970  30.078   8.561
 1761POPC   D2A25456  22.333  29.798   8.417
 1761POPC   C3A25457  22.352  29.687   7.958
 1761POPC   C4A25458  22.019  29.880   7.698
 1761POPC   C1B25459  22.431  30.197   8.778
 1761POPC   C2B25460  22.343  30.395   8.419
 1761POPC   C3B25461  22.261  30.175   8.075
 1761POPC   C4B25462  22.473  30.133   7.683
 1762POPC   NC325463  29.127  17.078   9.392
 1762POPC   PO425464  29.369  16.403   9.500
 1762POPC   GL125465  29.013  16.468   9.253
 1762POPC   GL225466  29.214  16.684   9.084
 1762POPC   C1A25467  28.859  16.436   8.817
 1762POPC   D2A25468  29.017  16.504   8.405
 1762POPC   C3A25469  28.861  16.870   8.212
 1762POPC   C4A25470  28.805  17.025   7.813
 1762POPC   C1B25471  29.407  16.665   8.720
 1762POPC   C2B25472  29.315  16.959   8.434
 1762POPC   C3B25473  29.422  16.872   8.051
 1762POPC   C4B25474  29.278  16.912   7.658
 1763POPC   NC325475   2.491   6.470   9.539
 1763POPC   PO425476   2.951   7.017   9.525
 1763POPC   GL125477   2.725   6.825   9.188
 1763POPC   GL225478   2.411   6.926   9.070
 1763POPC   C1A25479   2.637   6.546   8.839
 1763POPC   D2A25480   2.759   6.662   8.413
 1763POPC   C3A25481   2.669   6.405   8.046
 1763POPC   C4A25482   2.863   6.459   7.643
 1763POPC   C1B25483   2.306   6.860   8.601
 1763POPC   C2B25484   2.391   6.961   8.169
 1763POPC   C3B25485   2.714   6.914   7.870
 1763POPC   C4B25486   2.711   6.909   7.423
 1764POPC   NC325487  30.402  44.962   9.696
 1764POPC   PO425488  29.772  44.639   9.576
 1764POPC   GL125489  29.878  44.612   9.134
 1764POPC   GL225490  30.200  44.768   9.220
 1764POPC   C1A25491  29.833  44.383   8.713
 1764POPC   D2A25492  29.925  44.311   8.302
 1764POPC   C3A25493  29.873  44.725   8.097
 1764POPC   C4A25494  29.715  44.734   7.693
 1764POPC   C1B25495  30.304  44.490   8.863
 1764POPC   C2B25496  30.428  44.351   8.409
 1764POPC   C3B25497  30.328  44.514   8.015
 1764POPC   C4B25498  30.007  44.333   7.760
 1765POPC   NC325499  30.158   0.308   9.306
 1765POPC   PO425500  29.665   0.916   9.409
 1765POPC   GL125501  29.857   0.692   9.083
 1765POPC   GL225502  30.189   0.749   9.081
 1765POPC   C1A25503  29.862   0.427   8.688
 1765POPC   D2A25504  29.744   0.211   8.290
 1765POPC   C3A25505  29.836   0.383   7.898
 1765POPC   C4A25506  29.682   0.663   7.566
 1765POPC   C1B25507  30.353   0.552   8.709
 1765POPC   C2B25508  30.294   0.272   8.338
 1765POPC   C3B25509  30.358   0.431   7.920
 1765POPC   C4B25510  30.173   0.448   7.512
 1766POPC   NC325511  20.109  31.302   9.427
 1766POPC   PO425512  19.562  31.695   9.478
 1766POPC   GL125513  19.743  31.521   9.130
 1766POPC   GL225514  20.000  31.727   9.121
 1766POPC   C1A25515  19.731  31.343   8.733
 1766POPC   D2A25516  19.537  31.426   8.353
 1766POPC   C3A25517  19.766  31.312   8.005
 1766POPC   C4A25518  19.649  31.270   7.593
 1766POPC   C1B25519  20.119  31.697   8.740
 1766POPC   C2B25520  19.959  31.719   8.372
 1766POPC   C3B25521  20.126  31.705   8.004
 1766POPC   C4B25522  19.881  31.706   7.677
 1767POPC   NC325523  28.648  32.485   9.572
 1767POPC   PO425524  28.217  32.094   9.847
 1767POPC   GL125525  28.273  32.109   9.386
 1767POPC   GL225526  28.625  31.990   9.331
 1767POPC   C1A25527  28.262  32.327   8.975
 1767POPC   D2A25528  28.511  32.434   8.588
 1767POPC   C3A25529  28.404  32.250   8.178
 1767POPC   C4A25530  28.309  32.342   7.760
 1767POPC   C1B25531  28.715  32.044   8.889
 1767POPC   C2B25532  28.703  31.926   8.448
 1767POPC   C3B25533  28.812  31.930   8.004
 1767POPC   C4B25534  28.839  32.321   7.781
 1768POPC   NC325535  20.466   6.880   9.584
 1768POPC   PO425536  20.771   6.267   9.416
 1768POPC   GL125537  20.648   6.558   9.126
 1768POPC   GL225538  20.780   6.894   9.195
 1768POPC   C1A25539  20.666   6.369   8.728
 1768POPC   D2A25540  20.410   6.277   8.394
 1768POPC   C3A25541  20.656   6.313   8.063
 1768POPC   C4A25542  20.636   6.456   7.685
 1768POPC   C1B25543  20.631   7.107   8.855
 1768POPC   C2B25544  20.456   7.079   8.465
 1768POPC   C3B25545  20.520   6.857   8.094
 1768POPC   C4B25546  20.614   6.978   7.703
 1769POPC   NC325547  39.418   8.836   9.412
 1769POPC   PO425548  39.245   9.483   9.327
 1769POPC   GL125549  39.194   9.165   9.072
 1769POPC   GL225550  39.543   9.182   9.044
 1769POPC   C1A25551  39.234   8.842   8.756
 1769POPC   D2A25552  39.440   8.830   8.351
 1769POPC   C3A25553  39.204   8.610   8.031
 1769POPC   C4A25554  39.137   8.812   7.631
 1769POPC   C1B25555  39.462   9.292   8.612
 1769POPC   C2B25556  39.574   9.318   8.177
 1769POPC   C3B25557  39.540   9.124   7.734
 1769POPC   C4B25558  39.288   9.234   7.355
 1770POPC   NC325559  33.458  23.240   9.470
 1770POPC   PO425560  34.148  22.961   9.634
 1770POPC   GL125561  33.867  22.778   9.272
 1770POPC   GL225562  33.645  22.999   9.079
 1770POPC   C1A25563  33.887  22.664   8.809
 1770POPC   D2A25564  33.677  22.767   8.410
 1770POPC   C3A25565  33.940  23.082   8.228
 1770POPC   C4A25566  34.179  22.828   7.919
 1770POPC   C1B25567  33.641  23.200   8.698
 1770POPC   C2B25568  33.405  23.221   8.318
 1770POPC   C3B25569  33.323  22.920   8.016
 1770POPC   C4B25570  33.688  23.012   7.800
 1771POPC   NC325571  41.828  23.105   9.501
 1771POPC   PO425572  41.370  22.582   9.501
 1771POPC   GL125573  41.294  22.872   9.154
 1771POPC   GL225574  41.371  23.228   9.215
 1771POPC   C1A25575  41.369  22.979   8.739
 1771POPC   D2A25576  41.751  23.000   8.479
 1771POPC   C3A25577  41.618  23.036   8.089
 1771POPC   C4A25578  41.320  22.791   7.860
 1771POPC   C1B25579  41.601  23.402   8.844
 1771POPC   C2B25580  41.457  23.418   8.441
 1771POPC   C3B25581  41.569  23.537   7.999
 1771POPC   C4B25582  41.596  23.298   7.662
 1772POPC   NC325583  43.406  23.106   9.326
 1772POPC   PO425584  44.021  23.006   9.532
 1772POPC   GL125585  43.953  22.982   9.134
 1772POPC   GL225586  44.125  22.665   9.135
 1772POPC   C1A25587  43.841  23.122   8.722
 1772POPC   D2A25588  43.997  23.009   8.325
 1772POPC   C3A25589  43.747  22.858   8.044
 1772POPC   C4A25590  43.527  22.986   7.698
 1772POPC   C1B25591  44.245  22.821   8.742
 1772POPC   C2B25592  44.412  22.718   8.340
 1772POPC   C3B25593  44.283  22.787   7.951
 1772POPC   C4B25594  44.060  22.968   7.654
 1773POPC   NC325595  43.646  40.315   9.566
 1773POPC   PO425596  43.940  39.797   9.570
 1773POPC   GL125597  43.926  40.080   9.189
 1773POPC   GL225598  44.230  40.234   9.125
 1773POPC   C1A25599  43.732  40.068   8.749
 1773POPC   D2A25600  43.924  39.916   8.347
 1773POPC   C3A25601  43.745  40.039   7.962
 1773POPC   C4A25602  43.640  40.026   7.505
 1773POPC   C1B25603  44.240  40.073   8.743
 1773POPC   C2B25604  44.420  40.124   8.354
 1773POPC   C3B25605  44.245  40.210   7.982
 1773POPC   C4B25606  44.032  40.333   7.633
 1774POPC   NC325607  30.094   0.997   9.535
 1774POPC   PO425608  29.839   1.584   9.544
 1774POPC   GL125609  29.748   1.427   9.092
 1774POPC   GL225610  30.029   1.223   9.056
 1774POPC   C1A25611  29.838   1.389   8.619
 1774POPC   D2A25612  29.930   1.186   8.234
 1774POPC   C3A25613  29.931   1.456   7.912
 1774POPC   C4A25614  29.882   1.417   7.492
 1774POPC   C1B25615  30.006   0.926   8.665
 1774POPC   C2B25616  30.037   0.696   8.260
 1774POPC   C3B25617  30.073   0.867   7.832
 1774POPC   C4B25618  30.049   0.937   7.359
 1775POPC   NC325619  35.998  38.751   9.357
 1775POPC   PO425620  35.610  38.285   9.697
 1775POPC   GL125621  35.883  38.195   9.289
 1775POPC   GL225622  36.222  38.343   9.169
 1775POPC   C1A25623  35.904  38.110   8.850
 1775POPC   D2A25624  36.099  38.032   8.462
 1775POPC   C3A25625  36.075  38.284   8.131
 1775POPC   C4A25626  36.082  38.217   7.716
 1775POPC   C1B25627  36.171  38.533   8.717
 1775POPC   C2B25628  36.099  38.765   8.307
 1775POPC   C3B25629  36.221  38.712   7.857
 1775POPC   C4B25630  36.512  38.548   7.511
 1776POPC   NC325631  34.169  42.121   9.393
 1776POPC   PO425632  34.700  42.509   9.459
 1776POPC   GL125633  34.632  42.220   9.130
 1776POPC   GL225634  34.382  42.460   9.040
 1776POPC   C1A25635  34.600  42.108   8.681
 1776POPC   D2A25636  34.422  42.138   8.262
 1776POPC   C3A25637  34.696  42.264   7.971
 1776POPC   C4A25638  35.061  42.239   7.798
 1776POPC   C1B25639  34.738  42.589   8.772
 1776POPC   C2B25640  34.636  42.629   8.362
 1776POPC   C3B25641  34.331  42.606   8.077
 1776POPC   C4B25642  34.191  42.294   7.810
 1777POPC   NC325643  15.006  32.622   9.320
 1777POPC   PO425644  15.444  32.159   9.449
 1777POPC   GL125645  15.220  32.192   9.068
 1777POPC   GL225646  14.964  31.961   9.085
 1777POPC   C1A25647  15.163  31.984   8.636
 1777POPC   D2A25648  14.935  32.108   8.282
 1777POPC   C3A25649  15.172  32.035   7.951
 1777POPC   C4A25650  15.537  31.963   7.732
 1777POPC   C1B25651  14.798  32.305   8.764
 1777POPC   C2B25652  14.846  32.610   8.416
 1777POPC   C3B25653  14.940  32.543   7.974
 1777POPC   C4B25654  14.676  32.517   7.632
 1778POPC   NC325655  12.545   1.594   9.702
 1778POPC   PO425656  12.944   1.008   9.534
 1778POPC   GL125657  12.895   1.031   9.073
 1778POPC   GL225658  13.021   1.317   8.865
 1778POPC   C1A25659  12.869   0.937   8.630
 1778POPC   D2A25660  12.862   1.212   8.270
 1778POPC   C3A25661  12.837   0.948   7.924
 1778POPC   C4A25662  12.489   0.794   7.703
 1778POPC   C1B25663  12.541   1.338   8.655
 1778POPC   C2B25664  12.489   1.623   8.261
 1778POPC   C3B25665  12.754   1.550   7.906
 1778POPC   C4B25666  13.134   1.379   7.789
 1779POPC   NC325667   6.226  37.922   9.535
 1779POPC   PO425668   6.830  37.590   9.498
 1779POPC   GL125669   6.525  37.661   9.175
 1779POPC   GL225670   6.393  38.001   9.061
 1779POPC   C1A25671   6.641  37.608   8.732
 1779POPC   D2A25672   6.542  37.391   8.366
 1779POPC   C3A25673   6.781  37.416   7.986
 1779POPC   C4A25674   6.535  37.604   7.673
 1779POPC   C1B25675   6.843  38.023   8.952
 1779POPC   C2B25676   6.972  38.018   8.542
 1779POPC   C3B25677   6.746  37.891   8.184
 1779POPC   C4B25678   6.959  37.866   7.797
 1780POPC   NC325679  10.874  33.922   9.598
 1780POPC   PO425680  11.531  34.047   9.455
 1780POPC   GL125681  11.315  33.853   9.139
 1780POPC   GL225682  11.148  33.589   9.278
 1780POPC   C1A25683  11.349  33.947   8.700
 1780POPC   D2A25684  11.383  33.695   8.325
 1780POPC   C3A25685  11.447  33.891   7.931
 1780POPC   C4A25686  11.459  33.736   7.506
 1780POPC   C1B25687  11.001  33.599   8.825
 1780POPC   C2B25688  10.863  33.743   8.396
 1780POPC   C3B25689  10.968  33.700   7.968
 1780POPC   C4B25690  10.953  33.769   7.536
 1781POPC   NC325691  33.183  21.696   9.646
 1781POPC   PO425692  32.555  21.794   9.515
 1781POPC   GL125693  32.729  21.544   9.161
 1781POPC   GL225694  33.092  21.450   9.201
 1781POPC   C1A25695  32.727  21.523   8.705
 1781POPC   D2A25696  33.045  21.508   8.397
 1781POPC   C3A25697  33.053  21.571   7.974
 1781POPC   C4A25698  33.241  21.267   7.687
 1781POPC   C1B25699  33.119  21.235   8.848
 1781POPC   C2B25700  33.169  21.021   8.452
 1781POPC   C3B25701  33.025  21.038   8.075
 1781POPC   C4B25702  32.963  20.816   7.716
 1782POPC   NC325703  20.796  38.442   9.360
 1782POPC   PO425704  20.263  37.997   9.447
 1782POPC   GL125705  20.428  38.292   9.061
 1782POPC   GL225706  20.499  38.699   9.032
 1782POPC   C1A25707  20.608  38.368   8.641
 1782POPC   D2A25708  20.391  38.451   8.244
 1782POPC   C3A25709  20.479  38.251   7.884
 1782POPC   C4A25710  20.511  38.379   7.488
 1782POPC   C1B25711  20.896  38.799   8.777
 1782POPC   C2B25712  20.905  38.650   8.305
 1782POPC   C3B25713  20.717  38.710   7.892
 1782POPC   C4B25714  20.878  38.762   7.459
 1783POPC   NC325715  24.676   7.306   9.514
 1783POPC   PO425716  24.053   7.412   9.443
 1783POPC   GL125717  24.360   7.534   9.126
 1783POPC   GL225718  24.709   7.571   9.101
 1783POPC   C1A25719  24.422   7.351   8.720
 1783POPC   D2A25720  24.173   7.287   8.341
 1783POPC   C3A25721  24.484   7.288   8.000
 1783POPC   C4A25722  24.576   7.478   7.625
 1783POPC   C1B25723  24.707   7.783   8.730
 1783POPC   C2B25724  24.552   7.651   8.351
 1783POPC   C3B25725  24.676   7.784   8.008
 1783POPC   C4B25726  24.914   7.832   7.680
 1784POPC   NC325727  25.602   4.789   9.490
 1784POPC   PO425728  25.101   5.199   9.710
 1784POPC   GL125729  25.141   5.188   9.233
 1784POPC   GL225730  24.831   5.405   9.174
 1784POPC   C1A25731  25.392   5.055   8.799
 1784POPC   D2A25732  25.558   5.027   8.355
 1784POPC   C3A25733  25.248   4.740   8.134
 1784POPC   C4A25734  25.082   4.750   7.708
 1784POPC   C1B25735  24.995   5.380   8.766
 1784POPC   C2B25736  25.097   5.218   8.341
 1784POPC   C3B25737  25.054   5.411   7.940
 1784POPC   C4B25738  24.800   5.481   7.576
 1785POPC   NC325739  40.432   3.464   9.452
 1785POPC   PO425740  39.753   3.410   9.707
 1785POPC   GL125741  39.949   3.394   9.251
 1785POPC   GL225742  39.713   3.559   9.042
 1785POPC   C1A25743  40.179   3.562   8.849
 1785POPC   D2A25744  40.226   3.594   8.415
 1785POPC   C3A25745  40.117   3.238   8.199
 1785POPC   C4A25746  40.078   3.301   7.795
 1785POPC   C1B25747  39.745   3.743   8.619
 1785POPC   C2B25748  39.776   3.649   8.154
 1785POPC   C3B25749  40.050   3.819   7.814
 1785POPC   C4B25750  40.057   4.055   7.398
 1786POPC   NC325751  34.880  12.261   9.403
 1786POPC   PO425752  34.492  11.743   9.503
 1786POPC   GL125753  34.507  11.991   9.160
 1786POPC   GL225754  34.189  12.155   9.168
 1786POPC   C1A25755  34.642  12.047   8.740
 1786POPC   D2A25756  34.486  11.816   8.388
 1786POPC   C3A25757  34.600  11.978   7.989
 1786POPC   C4A25758  34.877  12.048   7.634
 1786POPC   C1B25759  34.131  11.968   8.752
 1786POPC   C2B25760  34.104  12.180   8.352
 1786POPC   C3B25761  34.209  12.340   7.955
 1786POPC   C4B25762  34.387  12.194   7.575
 1787POPC   NC325763  39.289   6.311   9.525
 1787POPC   PO425764  38.948   5.736   9.481
 1787POPC   GL125765  39.135   5.985   9.125
 1787POPC   GL225766  38.987   6.304   9.115
 1787POPC   C1A25767  39.262   5.822   8.700
 1787POPC   D2A25768  39.364   5.621   8.303
 1787POPC   C3A25769  39.049   5.773   8.070
 1787POPC   C4A25770  39.115   5.850   7.653
 1787POPC   C1B25771  38.823   6.132   8.741
 1787POPC   C2B25772  38.858   6.219   8.308
 1787POPC   C3B25773  38.763   6.137   7.870
 1787POPC   C4B25774  38.907   6.291   7.432
 1788POPC   NC325775  24.281  27.836   9.487
 1788POPC   PO425776  24.375  27.142   9.474
 1788POPC   GL125777  24.545  27.447   9.207
 1788POPC   GL225778  24.907  27.513   9.214
 1788POPC   C1A25779  24.409  27.566   8.783
 1788POPC   D2A25780  24.390  27.323   8.389
 1788POPC   C3A25781  24.234  27.447   7.974
 1788POPC   C4A25782  24.206  27.880   7.791
 1788POPC   C1B25783  24.937  27.691   8.768
 1788POPC   C2B25784  24.814  27.635   8.364
 1788POPC   C3B25785  24.697  27.686   7.951
 1788POPC   C4B25786  24.933  27.452   7.663
 1789POPC   NC325787  19.086  20.016   9.697
 1789POPC   PO425788  18.582  19.815   9.586
 1789POPC   GL125789  18.815  19.875   9.158
 1789POPC   GL225790  19.180  19.875   9.156
 1789POPC   C1A25791  18.817  19.841   8.668
 1789POPC   D2A25792  19.072  19.935   8.306
 1789POPC   C3A25793  18.923  19.955   7.883
 1789POPC   C4A25794  19.199  19.949   7.529
 1789POPC   C1B25795  19.078  19.483   8.906
 1789POPC   C2B25796  19.092  19.415   8.444
 1789POPC   C3B25797  19.156  19.514   7.984
 1789POPC   C4B25798  19.318  19.449   7.543
 1790POPC   NC325799   0.574  33.528   9.488
 1790POPC   PO425800   0.459  34.212   9.493
 1790POPC   GL125801   0.191  33.872   9.299
 1790POPC   GL225802   0.224  34.047   9.017
 1790POPC   C1A25803   0.190  33.539   8.933
 1790POPC   D2A25804   0.305  33.551   8.495
 1790POPC   C3A25805   0.080  33.409   8.139
 1790POPC   C4A25806   0.190  33.487   7.705
 1790POPC   C1B25807   0.605  33.861   8.877
 1790POPC   C2B25808   0.674  33.907   8.468
 1790POPC   C3B25809   0.543  33.755   8.067
 1790POPC   C4B25810   0.853  33.634   7.786
 1791POPC   NC325811  44.192  17.073   9.342
 1791POPC   PO425812  44.896  16.795   9.517
 1791POPC   GL125813  44.915  16.686   9.112
 1791POPC   GL225814  44.550  16.748   9.072
 1791POPC   C1A25815  44.896  16.648   8.679
 1791POPC   D2A25816  44.996  16.825   8.301
 1791POPC   C3A25817  44.978  16.601   7.912
 1791POPC   C4A25818  44.570  16.643   7.758
 1791POPC   C1B25819  44.322  16.813   8.679
 1791POPC   C2B25820  44.290  16.800   8.232
 1791POPC   C3B25821  44.212  17.001   7.837
 1791POPC   C4B25822  44.385  17.012   7.439
 1792POPC   NC325823  18.025  22.750   9.568
 1792POPC   PO425824  18.100  23.345   9.399
 1792POPC   GL125825  18.152  23.028   9.102
 1792POPC   GL225826  18.329  22.710   9.157
 1792POPC   C1A25827  18.173  22.915   8.684
 1792POPC   D2A25828  18.513  22.965   8.384
 1792POPC   C3A25829  18.315  23.023   8.010
 1792POPC   C4A25830  18.104  22.751   7.723
 1792POPC   C1B25831  18.392  22.479   8.800
 1792POPC   C2B25832  18.252  22.513   8.390
 1792POPC   C3B25833  18.488  22.528   8.030
 1792POPC   C4B25834  18.672  22.773   7.713
 1793POPC   NC325835  40.591  26.313   9.625
 1793POPC   PO425836  40.948  25.709   9.697
 1793POPC   GL125837  40.844  25.957   9.355
 1793POPC   GL225838  40.664  25.726   9.180
 1793POPC   C1A25839  40.866  26.173   8.942
 1793POPC   D2A25840  40.963  26.269   8.481
 1793POPC   C3A25841  40.896  25.987   8.153
 1793POPC   C4A25842  40.960  26.193   7.788
 1793POPC   C1B25843  40.499  25.824   8.794
 1793POPC   C2B25844  40.608  25.640   8.420
 1793POPC   C3B25845  40.451  25.732   8.040
 1793POPC   C4B25846  40.553  25.914   7.685
 1794POPC   NC325847   1.557  44.792   9.448
 1794POPC   PO425848   0.859  44.444   9.488
 1794POPC   GL125849   1.134  44.588   9.177
 1794POPC   GL225850   1.070  44.944   9.188
 1794POPC   C1A25851   1.302  44.630   8.769
 1794POPC   D2A25852   1.359  44.427   8.359
 1794POPC   C3A25853   0.991  44.430   8.124
 1794POPC   C4A25854   0.940  44.466   7.705
 1794POPC   C1B25855   1.170   0.138   8.780
 1794POPC   C2B25856   1.157  44.936   8.387
 1794POPC   C3B25857   1.300  44.840   8.011
 1794POPC   C4B25858   1.127   0.019   7.684
 1795POPC   NC325859  33.457  16.735   9.370
 1795POPC   PO425860  32.843  17.041   9.418
 1795POPC   GL125861  33.087  17.042   9.109
 1795POPC   GL225862  33.041  16.715   9.070
 1795POPC   C1A25863  32.966  17.054   8.690
 1795POPC   D2A25864  32.669  17.036   8.370
 1795POPC   C3A25865  32.891  17.042   8.022
 1795POPC   C4A25866  32.819  16.884   7.654
 1795POPC   C1B25867  33.337  16.707   8.731
 1795POPC   C2B25868  33.138  16.722   8.348
 1795POPC   C3B25869  33.177  16.461   8.012
 1795POPC   C4B25870  33.049  16.454   7.594
 1796POPC   NC325871  27.066  21.682   9.660
 1796POPC   PO425872  26.741  21.122   9.491
 1796POPC   GL125873  26.952  21.365   9.203
 1796POPC   GL225874  26.696  21.228   8.998
 1796POPC   C1A25875  27.170  21.364   8.802
 1796POPC   D2A25876  27.318  21.641   8.437
 1796POPC   C3A25877  27.340  21.622   7.959
 1796POPC   C4A25878  27.029  21.656   7.624
 1796POPC   C1B25879  26.597  21.201   8.605
 1796POPC   C2B25880  26.859  21.403   8.333
 1796POPC   C3B25881  26.954  21.265   7.955
 1796POPC   C4B25882  26.733  21.118   7.601
 1797POPC   NC325883   8.607  18.723   9.348
 1797POPC   PO425884   8.356  18.205   9.699
 1797POPC   GL125885   8.438  18.034   9.171
 1797POPC   GL225886   8.655  18.231   9.103
 1797POPC   C1A25887   8.131  17.940   8.788
 1797POPC   D2A25888   7.892  17.933   8.359
 1797POPC   C3A25889   8.073  18.217   8.013
 1797POPC   C4A25890   8.327  18.394   7.639
 1797POPC   C1B25891   8.596  18.127   8.690
 1797POPC   C2B25892   8.483  18.392   8.362
 1797POPC   C3B25893   8.638  18.264   8.007
 1797POPC   C4B25894   8.760  18.131   7.593
 1798POPC   NC325895  40.274  10.454   9.506
 1798POPC   PO425896  40.916  10.167   9.564
 1798POPC   GL125897  40.723  10.444   9.210
 1798POPC   GL225898  40.403  10.294   9.053
 1798POPC   C1A25899  40.666  10.670   8.796
 1798POPC   D2A25900  40.431  10.678   8.392
 1798POPC   C3A25901  40.748  10.717   8.080
 1798POPC   C4A25902  40.830  10.585   7.704
 1798POPC   C1B25903  40.670  10.165   8.736
 1798POPC   C2B25904  40.811  10.298   8.370
 1798POPC   C3B25905  40.757  10.166   7.970
 1798POPC   C4B25906  41.083  10.138   7.640
 1799POPC   NC325907   9.563  27.535   9.655
 1799POPC   PO425908  10.132  27.942   9.600
 1799POPC   GL125909   9.855  27.899   9.261
 1799POPC   GL225910   9.884  27.529   9.209
 1799POPC   C1A25911   9.734  27.848   8.820
 1799POPC   D2A25912   9.516  27.597   8.516
 1799POPC   C3A25913   9.544  27.806   8.094
 1799POPC   C4A25914   9.206  27.928   7.799
 1799POPC   C1B25915  10.025  27.333   8.806
 1799POPC   C2B25916   9.859  27.148   8.397
 1799POPC   C3B25917   9.540  27.293   8.074
 1799POPC   C4B25918   9.499  27.531   7.670
 1800POPC   NC325919  22.042   7.869   9.547
 1800POPC   PO425920  22.218   8.506   9.566
 1800POPC   GL125921  21.998   8.276   9.198
 1800POPC   GL225922  21.801   7.936   9.102
 1800POPC   C1A25923  22.249   8.069   8.889
 1800POPC   D2A25924  22.265   8.058   8.435
 1800POPC   C3A25925  22.457   7.903   8.074
 1800POPC   C4A25926  22.535   8.189   7.748
 1800POPC   C1B25927  21.806   7.960   8.639
 1800POPC   C2B25928  21.938   7.721   8.250
 1800POPC   C3B25929  21.944   7.938   7.832
 1800POPC   C4B25930  21.839   7.858   7.362
 1801POPC   NC325931  21.040  35.066   9.494
 1801POPC   PO425932  21.427  35.560   9.441
 1801POPC   GL125933  21.099  35.403   9.135
 1801POPC   GL225934  20.864  35.630   9.004
 1801POPC   C1A25935  21.072  35.269   8.692
 1801POPC   D2A25936  21.291  35.148   8.289
 1801POPC   C3A25937  21.622  35.335   8.070
 1801POPC   C4A25938  21.750  35.230   7.662
 1801POPC   C1B25939  21.285  35.732   8.818
 1801POPC   C2B25940  21.462  35.676   8.437
 1801POPC   C3B25941  21.230  35.648   8.052
 1801POPC   C4B25942  21.288  35.495   7.653
 1802POPC   NC325943  34.313  23.314   9.403
 1802POPC   PO425944  34.542  23.878   9.691
 1802POPC   GL125945  34.526  23.676   9.149
 1802POPC   GL225946  34.674  23.923   8.821
 1802POPC   C1A25947  34.328  23.571   8.794
 1802POPC   D2A25948  34.395  23.800   8.424
 1802POPC   C3A25949  34.230  23.638   8.070
 1802POPC   C4A25950  34.377  23.727   7.655
 1802POPC   C1B25951  34.823  23.555   8.722
 1802POPC   C2B25952  34.905  23.381   8.356
 1802POPC   C3B25953  34.769  23.651   8.033
 1802POPC   C4B25954  34.852  23.565   7.620
 1803POPC   NC325955  41.519   5.314   9.632
 1803POPC   PO425956  41.663   4.743   9.371
 1803POPC   GL125957  41.347   4.894   9.144
 1803POPC   GL225958  41.368   5.261   9.120
 1803POPC   C1A25959  41.366   4.851   8.705
 1803POPC   D2A25960  41.302   5.140   8.356
 1803POPC   C3A25961  41.662   5.145   8.093
 1803POPC   C4A25962  41.624   4.869   7.774
 1803POPC   C1B25963  41.575   5.387   8.714
 1803POPC   C2B25964  41.870   5.534   8.376
 1803POPC   C3B25965  41.801   5.625   7.938
 1803POPC   C4B25966  41.756   5.328   7.582
 1804POPC   NC325967  37.183  24.858   9.541
 1804POPC   PO425968  36.904  24.164   9.459
 1804POPC   GL125969  36.887  24.564   9.210
 1804POPC   GL225970  37.226  24.669   9.083
 1804POPC   C1A25971  36.788  24.778   8.799
 1804POPC   D2A25972  36.872  24.759   8.346
 1804POPC   C3A25973  36.654  24.471   8.084
 1804POPC   C4A25974  36.738  24.316   7.653
 1804POPC   C1B25975  37.405  24.513   8.711
 1804POPC   C2B25976  37.368  24.598   8.276
 1804POPC   C3B25977  37.179  24.436   7.890
 1804POPC   C4B25978  37.240  24.593   7.426
 1805POPC   NC325979  44.633   3.947   9.965
 1805POPC   PO425980  44.955   3.439   9.596
 1805POPC   GL125981  44.851   3.317   9.161
 1805POPC   GL225982  44.597   3.581   9.205
 1805POPC   C1A25983  44.842   3.043   8.747
 1805POPC   D2A25984  44.933   2.972   8.288
 1805POPC   C3A25985   0.019   3.343   8.046
 1805POPC   C4A25986  44.864   3.409   7.668
 1805POPC   C1B25987  44.497   3.425   8.810
 1805POPC   C2B25988  44.757   3.488   8.465
 1805POPC   C3B25989  44.592   3.591   8.077
 1805POPC   C4B25990  44.356   3.462   7.763
 1806POPC   NC325991  12.449  26.863   9.427
 1806POPC   PO425992  11.874  26.583   9.710
 1806POPC   GL125993  11.969  26.754   9.293
 1806POPC   GL225994  12.021  27.097   9.231
 1806POPC   C1A25995  12.059  26.681   8.868
 1806POPC   D2A25996  11.970  26.742   8.436
 1806POPC   C3A25997  11.958  26.543   8.008
 1806POPC   C4A25998  11.791  26.628   7.585
 1806POPC   C1B25999  12.034  27.192   8.800
 1806POPC   C2B26000  12.219  27.179   8.424
 1806POPC   C3B26001  11.988  27.091   8.068
 1806POPC   C4B26002  12.177  26.974   7.704
 1807POPC   NC326003  28.296  11.869   9.451
 1807POPC   PO426004  28.101  12.499   9.500
 1807POPC   GL126005  28.217  12.252   9.132
 1807POPC   GL226006  28.574  12.267   9.225
 1807POPC   C1A26007  28.255  11.948   8.773
 1807POPC   D2A26008  27.991  11.941   8.378
 1807POPC   C3A26009  28.225  11.998   8.029
 1807POPC   C4A26010  28.391  11.703   7.769
 1807POPC   C1B26011  28.757  12.125   8.828
 1807POPC   C2B26012  28.608  12.076   8.416
 1807POPC   C3B26013  28.725  12.031   8.005
 1807POPC   C4B26014  28.801  11.994   7.590
 1808POPC   NC326015  34.497   9.007   9.552
 1808POPC   PO426016  35.025   8.728   9.271
 1808POPC   GL126017  34.623   8.873   9.070
 1808POPC   GL226018  34.590   9.230   9.097
 1808POPC   C1A26019  34.527   8.693   8.649
 1808POPC   D2A26020  34.805   8.622   8.300
 1808POPC   C3A26021  34.644   8.665   7.890
 1808POPC   C4A26022  34.744   8.644   7.446
 1808POPC   C1B26023  34.395   9.202   8.694
 1808POPC   C2B26024  34.520   9.061   8.265
 1808POPC   C3B26025  34.525   9.178   7.814
 1808POPC   C4B26026  34.620   9.124   7.394
 1809POPC   NC326027  20.908  35.841   9.459
 1809POPC   PO426028  20.310  36.308   9.529
 1809POPC   GL126029  20.491  36.000   9.199
 1809POPC   GL226030  20.787  36.154   9.033
 1809POPC   C1A26031  20.508  35.870   8.732
 1809POPC   D2A26032  20.523  36.113   8.364
 1809POPC   C3A26033  20.582  35.875   8.013
 1809POPC   C4A26034  20.252  35.664   7.823
 1809POPC   C1B26035  20.497  36.419   8.800
 1809POPC   C2B26036  20.425  36.648   8.411
 1809POPC   C3B26037  20.435  36.477   7.994
 1809POPC   C4B26038  20.210  36.162   7.796
 1810POPC   NC326039  31.075   0.460   9.394
 1810POPC   PO426040  30.385   0.640   9.532
 1810POPC   GL126041  30.673   0.632   9.151
 1810POPC   GL226042  30.960   0.879   9.104
 1810POPC   C1A26043  30.851   0.477   8.763
 1810POPC   D2A26044  30.716   0.575   8.344
 1810POPC   C3A26045  30.883   0.400   7.995
 1810POPC   C4A26046  30.758   0.426   7.571
 1810POPC   C1B26047  30.951   0.975   8.648
 1810POPC   C2B26048  30.895   1.029   8.205
 1810POPC   C3B26049  30.687   0.858   7.849
 1810POPC   C4B26050  30.903   0.914   7.469
 1811POPC   NC326051  23.170  36.203   9.613
 1811POPC   PO426052  22.656  35.829   9.539
 1811POPC   GL126053  22.942  35.992   9.214
 1811POPC   GL226054  22.997  36.343   9.135
 1811POPC   C1A26055  23.066  35.953   8.810
 1811POPC   D2A26056  23.090  36.128   8.402
 1811POPC   C3A26057  22.981  35.930   8.006
 1811POPC   C4A26058  22.902  35.968   7.547
 1811POPC   C1B26059  23.216  36.485   8.758
 1811POPC   C2B26060  23.294  36.576   8.286
 1811POPC   C3B26061  23.089  36.445   7.899
 1811POPC   C4B26062  23.164  36.493   7.465
 1812POPC   NC326063  32.023  18.986   9.655
 1812POPC   PO426064  32.605  19.339   9.523
 1812POPC   GL126065  32.349  19.249   9.199
 1812POPC   GL226066  32.278  18.935   9.202
 1812POPC   C1A26067  32.363  19.267   8.744
 1812POPC   D2A26068  32.570  19.118   8.382
 1812POPC   C3A26069  32.334  19.048   7.985
 1812POPC   C4A26070  32.267  19.132   7.536
 1812POPC   C1B26071  32.068  18.808   8.852
 1812POPC   C2B26072  32.166  18.780   8.428
 1812POPC   C3B26073  31.876  18.863   8.104
 1812POPC   C4B26074  31.765  18.706   7.752
 1813POPC   NC326075  33.281  13.347   9.549
 1813POPC   PO426076  32.553  13.440   9.520
 1813POPC   GL126077  32.818  13.356   9.178
 1813POPC   GL226078  33.104  13.591   9.115
 1813POPC   C1A26079  32.905  13.282   8.733
 1813POPC   D2A26080  32.848  13.534   8.348
 1813POPC   C3A26081  32.983  13.537   7.904
 1813POPC   C4A26082  33.005  13.208   7.568
 1813POPC   C1B26083  33.170  13.741   8.684
 1813POPC   C2B26084  33.279  13.811   8.225
 1813POPC   C3B26085  33.141  14.027   7.861
 1813POPC   C4B26086  32.788  13.936   7.577
 1814POPC   NC326087  25.628  35.014   9.496
 1814POPC   PO426088  25.538  35.579   9.283
 1814POPC   GL126089  25.430  35.219   9.064
 1814POPC   GL226090  25.081  35.217   9.087
 1814POPC   C1A26091  25.354  35.173   8.636
 1814POPC   D2A26092  25.122  35.289   8.287
 1814POPC   C3A26093  25.422  35.224   7.956
 1814POPC   C4A26094  25.448  35.418   7.571
 1814POPC   C1B26095  24.827  35.076   8.725
 1814POPC   C2B26096  24.711  34.968   8.280
 1814POPC   C3B26097  25.042  34.900   7.948
 1814POPC   C4B26098  25.086  35.060   7.513
 1815POPC   NC326099  34.987  29.266   9.533
 1815POPC   PO426100  35.657  28.948   9.427
 1815POPC   GL126101  35.535  29.090   9.039
 1815POPC   GL226102  35.310  29.327   9.141
 1815POPC   C1A26103  35.637  29.135   8.605
 1815POPC   D2A26104  35.508  28.877   8.285
 1815POPC   C3A26105  35.487  29.075   7.873
 1815POPC   C4A26106  35.601  29.191   7.458
 1815POPC   C1B26107  35.215  29.390   8.727
 1815POPC   C2B26108  35.184  29.272   8.318
 1815POPC   C3B26109  35.072  29.520   7.968
 1815POPC   C4B26110  35.090  29.437   7.543
 1816POPC   NC326111  22.723  23.361   9.574
 1816POPC   PO426112  22.275  23.812   9.436
 1816POPC   GL126113  21.904  23.702   9.184
 1816POPC   GL226114  22.029  23.343   9.158
 1816POPC   C1A26115  21.806  23.824   8.758
 1816POPC   D2A26116  22.114  23.841   8.411
 1816POPC   C3A26117  22.024  23.790   7.977
 1816POPC   C4A26118  22.172  23.983   7.619
 1816POPC   C1B26119  21.974  23.358   8.707
 1816POPC   C2B26120  21.810  23.447   8.286
 1816POPC   C3B26121  21.891  23.295   7.868
 1816POPC   C4B26122  21.973  23.418   7.438
 1817POPC   NC326123   7.365  16.500   9.524
 1817POPC   PO426124   7.168  17.085   9.308
 1817POPC   GL126125   7.425  16.820   9.104
 1817POPC   GL226126   7.724  16.624   9.141
 1817POPC   C1A26127   7.443  16.660   8.683
 1817POPC   D2A26128   7.400  16.352   8.370
 1817POPC   C3A26129   7.176  16.476   8.047
 1817POPC   C4A26130   7.197  16.760   7.746
 1817POPC   C1B26131   7.812  16.981   8.836
 1817POPC   C2B26132   7.717  17.067   8.407
 1817POPC   C3B26133   7.637  16.752   8.092
 1817POPC   C4B26134   7.706  16.745   7.699
 1818POPC   NC326135  35.590  16.903   9.583
 1818POPC   PO426136  35.058  16.552   9.671
 1818POPC   GL126137  35.205  16.719   9.293
 1818POPC   GL226138  34.956  16.824   9.075
 1818POPC   C1A26139  35.443  16.722   8.913
 1818POPC   D2A26140  35.439  16.421   8.589
 1818POPC   C3A26141  35.317  16.542   8.170
 1818POPC   C4A26142  35.265  16.743   7.789
 1818POPC   C1B26143  34.976  16.679   8.623
 1818POPC   C2B26144  34.797  16.524   8.209
 1818POPC   C3B26145  34.935  16.358   7.773
 1818POPC   C4B26146  34.802  16.241   7.337
 1819POPC   NC326147  20.777   0.676   9.615
 1819POPC   PO426148  20.272   0.273   9.698
 1819POPC   GL126149  20.532   0.350   9.277
 1819POPC   GL226150  20.539   0.712   9.154
 1819POPC   C1A26151  20.478   0.366   8.802
 1819POPC   D2A26152  20.262   0.499   8.437
 1819POPC   C3A26153  20.468   0.389   8.053
 1819POPC   C4A26154  20.902   0.407   7.963
 1819POPC   C1B26155  20.589   0.855   8.709
 1819POPC   C2B26156  20.650   0.822   8.235
 1819POPC   C3B26157  20.600   0.780   7.752
 1819POPC   C4B26158  20.433   0.704   7.317
 1820POPC   NC326159  36.467  10.078   9.549
 1820POPC   PO426160  36.152  10.746   9.514
 1820POPC   GL126161  35.975  10.543   9.148
 1820POPC   GL226162  35.690  10.399   9.256
 1820POPC   C1A26163  36.114  10.654   8.714
 1820POPC   D2A26164  36.229  10.482   8.281
 1820POPC   C3A26165  36.056  10.658   7.899
 1820POPC   C4A26166  36.230  10.843   7.539
 1820POPC   C1B26167  35.593  10.305   8.849
 1820POPC   C2B26168  35.750  10.377   8.463
 1820POPC   C3B26169  35.647  10.341   8.049
 1820POPC   C4B26170  35.870  10.228   7.643
 1821POPC   NC326171  43.592  19.323   9.256
 1821POPC   PO426172  43.971  18.850   9.421
 1821POPC   GL126173  43.990  19.100   9.023
 1821POPC   GL226174  43.686  19.010   8.852
 1821POPC   C1A26175  43.962  19.362   8.631
 1821POPC   D2A26176  43.698  19.102   8.339
 1821POPC   C3A26177  43.822  19.121   7.913
 1821POPC   C4A26178  44.143  19.333   7.676
 1821POPC   C1B26179  43.564  18.637   8.636
 1821POPC   C2B26180  43.566  18.563   8.209
 1821POPC   C3B26181  43.517  18.652   7.795
 1821POPC   C4B26182  43.757  18.839   7.453
 1822POPC   NC326183  32.456  33.176   9.367
 1822POPC   PO426184  32.131  32.525   9.453
 1822POPC   GL126185  32.251  32.739   9.133
 1822POPC   GL226186  32.007  33.001   9.127
 1822POPC   C1A26187  32.536  32.764   8.799
 1822POPC   D2A26188  32.744  32.715   8.403
 1822POPC   C3A26189  32.514  32.883   8.059
 1822POPC   C4A26190  32.412  33.172   7.739
 1822POPC   C1B26191  31.810  33.232   8.789
 1822POPC   C2B26192  31.875  33.398   8.350
 1822POPC   C3B26193  31.927  33.204   7.924
 1822POPC   C4B26194  31.676  33.309   7.554
 1823POPC   NC326195  11.169   6.647   9.479
 1823POPC   PO426196  11.814   6.990   9.636
 1823POPC   GL126197  11.585   6.857   9.212
 1823POPC   GL226198  11.487   6.497   9.127
 1823POPC   C1A26199  11.334   6.868   8.796
 1823POPC   D2A26200  11.415   6.678   8.376
 1823POPC   C3A26201  11.213   6.845   7.974
 1823POPC   C4A26202  10.925   7.144   7.723
 1823POPC   C1B26203  11.172   6.376   8.785
 1823POPC   C2B26204  10.956   6.454   8.356
 1823POPC   C3B26205  11.117   6.330   7.934
 1823POPC   C4B26206  10.997   6.331   7.475
 1824POPC   NC326207  42.866  10.180   9.572
 1824POPC   PO426208  43.278  10.649   9.568
 1824POPC   GL126209  43.202  10.383   9.223
 1824POPC   GL226210  42.874  10.459   9.136
 1824POPC   C1A26211  43.323  10.428   8.791
 1824POPC   D2A26212  43.324  10.723   8.420
 1824POPC   C3A26213  43.258  10.566   8.000
 1824POPC   C4A26214  43.246  10.760   7.606
 1824POPC   C1B26215  42.867  10.646   8.700
 1824POPC   C2B26216  42.802  10.490   8.269
 1824POPC   C3B26217  42.786  10.396   7.816
 1824POPC   C4B26218  42.859  10.482   7.393
 1825POPC   NC326219  23.938  29.754   9.498
 1825POPC   PO426220  24.097  30.405   9.544
 1825POPC   GL126221  23.932  30.165   9.189
 1825POPC   GL226222  23.610  30.033   9.235
 1825POPC   C1A26223  23.901  29.893   8.813
 1825POPC   D2A26224  23.934  29.710   8.408
 1825POPC   C3A26225  23.881  30.001   8.065
 1825POPC   C4A26226  23.885  29.788   7.699
 1825POPC   C1B26227  23.409  29.870   8.858
 1825POPC   C2B26228  23.485  29.940   8.425
 1825POPC   C3B26229  23.516  29.652   8.054
 1825POPC   C4B26230  23.436  29.605   7.597
 1826POPC   NC326231  40.561  18.698   9.603
 1826POPC   PO426232  41.028  19.165   9.466
 1826POPC   GL126233  40.804  19.097   9.110
 1826POPC   GL226234  40.562  19.344   9.188
 1826POPC   C1A26235  40.782  18.896   8.692
 1826POPC   D2A26236  40.606  18.978   8.295
 1826POPC   C3A26237  40.964  19.110   8.076
 1826POPC   C4A26238  41.156  19.055   7.691
 1826POPC   C1B26239  40.541  19.354   8.733
 1826POPC   C2B26240  40.684  19.468   8.329
 1826POPC   C3B26241  40.597  19.428   7.912
 1826POPC   C4B26242  40.411  19.077   7.804
 1827POPC   NC326243  31.041  39.398   9.883
 1827POPC   PO426244  30.565  39.162   9.458
 1827POPC   GL126245  30.792  39.080   9.133
 1827POPC   GL226246  30.776  39.385   9.017
 1827POPC   C1A26247  30.662  38.965   8.714
 1827POPC   D2A26248  30.738  38.673   8.436
 1827POPC   C3A26249  30.653  38.875   8.064
 1827POPC   C4A26250  30.450  39.142   7.842
 1827POPC   C1B26251  30.928  39.391   8.612
 1827POPC   C2B26252  30.775  39.410   8.208
 1827POPC   C3B26253  30.890  39.409   7.786
 1827POPC   C4B26254  30.859  39.376   7.351
 1828POPC   NC326255   3.722  29.775   9.335
 1828POPC   PO426256   3.350  30.292   9.345
 1828POPC   GL126257   3.539  30.127   9.005
 1828POPC   GL226258   3.829  30.289   9.045
 1828POPC   C1A26259   3.582  29.774   8.697
 1828POPC   D2A26260   3.274  29.616   8.393
 1828POPC   C3A26261   3.311  29.845   8.012
 1828POPC   C4A26262   3.590  29.775   7.692
 1828POPC   C1B26263   3.843  30.241   8.603
 1828POPC   C2B26264   3.929  30.042   8.223
 1828POPC   C3B26265   3.892  30.196   7.800
 1828POPC   C4B26266   3.685  30.185   7.390
 1829POPC   NC326267  32.671  19.771   9.369
 1829POPC   PO426268  33.205  19.890   9.791
 1829POPC   GL126269  33.162  19.848   9.304
 1829POPC   GL226270  33.405  19.689   9.180
 1829POPC   C1A26271  32.999  19.837   8.841
 1829POPC   D2A26272  33.020  20.063   8.458
 1829POPC   C3A26273  32.938  19.898   8.073
 1829POPC   C4A26274  33.072  19.795   7.656
 1829POPC   C1B26275  33.377  19.524   8.793
 1829POPC   C2B26276  33.404  19.671   8.380
 1829POPC   C3B26277  33.467  19.597   7.950
 1829POPC   C4B26278  33.465  19.445   7.534
 1830POPC   NC326279  19.250  20.953   9.561
 1830POPC   PO426280  19.447  20.306   9.689
 1830POPC   GL126281  19.416  20.527   9.297
 1830POPC   GL226282  19.077  20.383   9.225
 1830POPC   C1A26283  19.318  20.718   8.876
 1830POPC   D2A26284  18.974  20.784   8.563
 1830POPC   C3A26285  19.040  20.786   8.107
 1830POPC   C4A26286  19.263  20.830   7.706
 1830POPC   C1B26287  19.088  20.269   8.764
 1830POPC   C2B26288  19.315  20.404   8.385
 1830POPC   C3B26289  19.232  20.353   7.939
 1830POPC   C4B26290  18.807  20.437   7.762
 1831POPC   NC326291  33.500  38.319   9.564
 1831POPC   PO426292  34.108  38.113   9.479
 1831POPC   GL126293  34.044  38.323   9.130
 1831POPC   GL226294  33.763  38.372   9.118
 1831POPC   C1A26295  34.063  38.449   8.707
 1831POPC   D2A26296  33.785  38.359   8.386
 1831POPC   C3A26297  33.812  38.650   8.045
 1831POPC   C4A26298  34.092  38.722   7.724
 1831POPC   C1B26299  33.533  38.151   8.817
 1831POPC   C2B26300  33.341  38.084   8.402
 1831POPC   C3B26301  33.454  38.271   8.000
 1831POPC   C4B26302  33.726  38.305   7.642
 1832POPC   NC326303  22.379   0.889   9.732
 1832POPC   PO426304  22.607   0.392   9.251
 1832POPC   GL126305  22.222   0.434   9.004
 1832POPC   GL226306  21.890   0.442   9.183
 1832POPC   C1A26307  22.250   0.516   8.566
 1832POPC   D2A26308  22.144   0.731   8.178
 1832POPC   C3A26309  22.350   0.511   7.818
 1832POPC   C4A26310  22.543   0.076   7.805
 1832POPC   C1B26311  21.792   0.622   8.769
 1832POPC   C2B26312  21.686   0.821   8.394
 1832POPC   C3B26313  21.664   0.680   7.987
 1832POPC   C4B26314  21.846   0.464   7.642
 1833POPC   NC326315  33.424  27.162   9.908
 1833POPC   PO426316  32.844  26.848   9.698
 1833POPC   GL126317  33.005  27.031   9.264
 1833POPC   GL226318  32.749  27.105   8.992
 1833POPC   C1A26319  33.246  27.049   8.860
 1833POPC   D2A26320  33.318  26.796   8.507
 1833POPC   C3A26321  33.084  26.867   8.142
 1833POPC   C4A26322  33.251  26.680   7.819
 1833POPC   C1B26323  32.771  26.804   8.663
 1833POPC   C2B26324  32.634  26.607   8.279
 1833POPC   C3B26325  32.744  26.598   7.848
 1833POPC   C4B26326  32.895  26.988   7.648
 1834POPC   NC326327  34.696  42.947   9.596
 1834POPC   PO426328  34.351  43.446   9.479
 1834POPC   GL126329  34.421  43.081   9.169
 1834POPC   GL226330  34.792  42.965   9.098
 1834POPC   C1A26331  34.373  42.930   8.750
 1834POPC   D2A26332  34.343  43.098   8.354
 1834POPC   C3A26333  34.569  43.080   8.044
 1834POPC   C4A26334  34.423  42.931   7.695
 1834POPC   C1B26335  34.737  43.356   8.848
 1834POPC   C2B26336  34.704  43.479   8.411
 1834POPC   C3B26337  34.856  43.489   7.992
 1834POPC   C4B26338  34.948  43.184   7.661
 1835POPC   NC326339  28.539  17.463   9.516
 1835POPC   PO426340  28.078  17.880   9.419
 1835POPC   GL126341  28.346  17.674   9.103
 1835POPC   GL226342  28.252  17.320   9.122
 1835POPC   C1A26343  28.515  17.477   8.728
 1835POPC   D2A26344  28.412  17.648   8.330
 1835POPC   C3A26345  28.568  17.481   7.946
 1835POPC   C4A26346  28.308  17.643   7.644
 1835POPC   C1B26347  28.104  17.181   8.744
 1835POPC   C2B26348  27.916  17.284   8.390
 1835POPC   C3B26349  28.048  17.421   8.025
 1835POPC   C4B26350  27.921  17.287   7.645
 1836POPC   NC326351  31.611   7.438   9.471
 1836POPC   PO426352  31.006   7.357   9.561
 1836POPC   GL126353  31.196   7.478   9.150
 1836POPC   GL226354  31.382   7.176   9.074
 1836POPC   C1A26355  31.150   7.499   8.704
 1836POPC   D2A26356  31.249   7.178   8.416
 1836POPC   C3A26357  31.412   7.325   8.025
 1836POPC   C4A26358  31.346   7.702   7.803
 1836POPC   C1B26359  31.714   7.371   8.801
 1836POPC   C2B26360  31.786   7.752   8.555
 1836POPC   C3B26361  31.783   7.738   8.086
 1836POPC   C4B26362  31.863   7.419   7.774
 1837POPC   NC326363   4.161  19.229   9.450
 1837POPC   PO426364   4.493  18.654   9.575
 1837POPC   GL126365   4.705  18.984   9.276
 1837POPC   GL226366   4.613  19.363   9.202
 1837POPC   C1A26367   4.728  19.023   8.818
 1837POPC   D2A26368   4.467  18.899   8.498
 1837POPC   C3A26369   4.593  18.874   8.102
 1837POPC   C4A26370   4.559  18.933   7.689
 1837POPC   C1B26371   4.381  19.412   8.828
 1837POPC   C2B26372   4.127  19.427   8.485
 1837POPC   C3B26373   4.214  19.209   8.147
 1837POPC   C4B26374   4.079  19.011   7.803
 1838POPC   NC326375  19.867  36.196   9.599
 1838POPC   PO426376  19.701  35.566   9.536
 1838POPC   GL126377  19.873  35.827   9.199
 1838POPC   GL226378  19.640  36.087   9.135
 1838POPC   C1A26379  20.090  36.099   8.898
 1838POPC   D2A26380  20.055  36.270   8.487
 1838POPC   C3A26381  20.057  35.935   8.208
 1838POPC   C4A26382  19.761  35.710   7.911
 1838POPC   C1B26383  19.638  35.977   8.677
 1838POPC   C2B26384  19.581  36.097   8.214
 1838POPC   C3B26385  19.704  36.252   7.780
 1838POPC   C4B26386  19.633  36.502   7.361
 1839POPC   NC326387  38.195  33.863   9.382
 1839POPC   PO426388  38.782  33.541   9.478
 1839POPC   GL126389  38.527  33.586   9.106
 1839POPC   GL226390  38.603  33.912   9.093
 1839POPC   C1A26391  38.262  33.714   8.746
 1839POPC   D2A26392  38.085  33.785   8.331
 1839POPC   C3A26393  38.281  33.566   8.012
 1839POPC   C4A26394  38.467  33.679   7.664
 1839POPC   C1B26395  38.645  34.198   8.793
 1839POPC   C2B26396  38.542  33.991   8.427
 1839POPC   C3B26397  38.481  34.032   8.047
 1839POPC   C4B26398  38.645  34.185   7.678
 1840POPC   NC326399  17.967  34.002   9.521
 1840POPC   PO426400  17.283  33.765   9.507
 1840POPC   GL126401  17.560  33.979   9.199
 1840POPC   GL226402  17.763  33.688   9.110
 1840POPC   C1A26403  17.542  34.022   8.753
 1840POPC   D2A26404  17.332  33.767   8.451
 1840POPC   C3A26405  17.311  33.837   8.010
 1840POPC   C4A26406  17.429  33.932   7.581
 1840POPC   C1B26407  17.840  33.599   8.660
 1840POPC   C2B26408  17.820  33.737   8.228
 1840POPC   C3B26409  17.713  33.572   7.824
 1840POPC   C4B26410  17.746  33.565   7.388
 1841POPC   NC326411  29.501  31.172   9.389
 1841POPC   PO426412  29.084  30.591   9.475
 1841POPC   GL126413  29.161  30.857   9.168
 1841POPC   GL226414  28.845  30.957   9.028
 1841POPC   C1A26415  29.381  30.861   8.796
 1841POPC   D2A26416  29.639  30.780   8.465
 1841POPC   C3A26417  29.418  30.917   8.141
 1841POPC   C4A26418  29.204  31.049   7.813
 1841POPC   C1B26419  28.965  30.547   8.805
 1841POPC   C2B26420  29.191  30.531   8.406
 1841POPC   C3B26421  29.019  30.588   7.976
 1841POPC   C4B26422  28.733  30.871   7.743
 1842POPC   NC326423  27.486  16.218   9.490
 1842POPC   PO426424  27.823  15.675   9.575
 1842POPC   GL126425  27.653  15.818   9.190
 1842POPC   GL226426  27.833  16.145   9.123
 1842POPC   C1A26427  27.452  15.953   8.812
 1842POPC   D2A26428  27.404  16.172   8.424
 1842POPC   C3A26429  27.429  15.877   8.075
 1842POPC   C4A26430  27.398  16.028   7.671
 1842POPC   C1B26431  27.846  16.307   8.714
 1842POPC   C2B26432  27.967  16.267   8.338
 1842POPC   C3B26433  27.705  16.308   8.020
 1842POPC   C4B26434  27.747  16.386   7.639
 1843POPC   NC326435  33.279  25.556   9.530
 1843POPC   PO426436  32.841  25.042   9.591
 1843POPC   GL126437  33.020  25.227   9.219
 1843POPC   GL226438  33.351  25.108   9.183
 1843POPC   C1A26439  33.185  25.501   8.867
 1843POPC   D2A26440  32.944  25.459   8.501
 1843POPC   C3A26441  33.064  25.502   8.084
 1843POPC   C4A26442  32.922  25.395   7.661
 1843POPC   C1B26443  33.148  25.019   8.762
 1843POPC   C2B26444  33.220  25.065   8.321
 1843POPC   C3B26445  32.892  24.984   8.011
 1843POPC   C4B26446  32.881  24.893   7.586
 1844POPC   NC326447  18.905   4.292   9.405
 1844POPC   PO426448  19.219   4.879   9.430
 1844POPC   GL126449  19.133   4.604   9.074
 1844POPC   GL226450  18.759   4.625   9.043
 1844POPC   C1A26451  19.299   4.339   8.710
 1844POPC   D2A26452  19.465   4.276   8.271
 1844POPC   C3A26453  19.291   4.066   7.919
 1844POPC   C4A26454  18.849   3.996   7.871
 1844POPC   C1B26455  18.790   4.366   8.676
 1844POPC   C2B26456  18.818   4.378   8.221
 1844POPC   C3B26457  19.051   4.511   7.858
 1844POPC   C4B26458  19.204   4.706   7.493
 1845POPC   NC326459   2.656  27.483   9.462
 1845POPC   PO426460   3.098  27.951   9.638
 1845POPC   GL126461   3.006  27.703   9.170
 1845POPC   GL226462   2.677  27.802   9.040
 1845POPC   C1A26463   2.776  27.370   8.832
 1845POPC   D2A26464   2.492  27.311   8.455
 1845POPC   C3A26465   2.696  27.511   8.138
 1845POPC   C4A26466   2.893  27.354   7.799
 1845POPC   C1B26467   2.523  28.025   8.681
 1845POPC   C2B26468   2.337  27.860   8.308
 1845POPC   C3B26469   2.314  27.753   7.878
 1845POPC   C4B26470   2.416  27.487   7.582
 1846POPC   NC326471  35.631   5.216   9.402
 1846POPC   PO426472  35.267   4.725   9.616
 1846POPC   GL126473  35.282   4.784   9.154
 1846POPC   GL226474  35.629   4.824   9.076
 1846POPC   C1A26475  35.278   5.002   8.714
 1846POPC   D2A26476  35.501   5.267   8.365
 1846POPC   C3A26477  35.390   5.071   7.969
 1846POPC   C4A26478  34.953   5.095   7.820
 1846POPC   C1B26479  35.776   4.982   8.697
 1846POPC   C2B26480  35.579   4.747   8.355
 1846POPC   C3B26481  35.702   4.598   7.956
 1846POPC   C4B26482  35.790   4.921   7.660
 1847POPC   NC326483  24.088  25.790   9.437
 1847POPC   PO426484  23.948  26.396   9.311
 1847POPC   GL126485  23.726  26.101   9.052
 1847POPC   GL226486  23.551  25.759   9.045
 1847POPC   C1A26487  23.716  26.026   8.614
 1847POPC   D2A26488  23.639  25.948   8.176
 1847POPC   C3A26489  23.977  26.067   7.866
 1847POPC   C4A26490  24.000  25.915   7.435
 1847POPC   C1B26491  23.270  25.817   8.726
 1847POPC   C2B26492  23.232  25.669   8.337
 1847POPC   C3B26493  23.162  25.819   7.918
 1847POPC   C4B26494  23.509  25.997   7.695
 1848POPC   NC326495  44.554  27.806   9.360
 1848POPC   PO426496  44.854  27.253   9.411
 1848POPC   GL126497  44.558  27.380   9.080
 1848POPC   GL226498  44.841  27.302   8.845
 1848POPC   C1A26499  44.449  27.541   8.656
 1848POPC   D2A26500  44.754  27.384   8.344
 1848POPC   C3A26501  44.601  27.440   7.949
 1848POPC   C4A26502  44.233  27.499   7.710
 1848POPC   C1B26503  44.921  27.742   8.708
 1848POPC   C2B26504  44.798  27.876   8.295
 1848POPC   C3B26505   0.058  27.686   7.983
 1848POPC   C4B26506  44.957  27.532   7.564
 1849POPC   NC326507   2.729  38.707   9.839
 1849POPC   PO426508   2.393  39.230   9.556
 1849POPC   GL126509   2.420  39.246   9.153
 1849POPC   GL226510   2.361  39.595   9.153
 1849POPC   C1A26511   2.673  38.992   8.833
 1849POPC   D2A26512   3.081  39.158   8.640
 1849POPC   C3A26513   3.064  39.175   8.166
 1849POPC   C4A26514   2.903  38.933   7.804
 1849POPC   C1B26515   2.651  39.507   8.798
 1849POPC   C2B26516   2.645  39.291   8.417
 1849POPC   C3B26517   2.510  39.236   8.013
 1849POPC   C4B26518   2.697  39.403   7.735
 1850POPC   NC326519  19.172   1.613   9.649
 1850POPC   PO426520  19.307   2.250   9.468
 1850POPC   GL126521  19.054   2.118   9.128
 1850POPC   GL226522  18.819   2.307   9.152
 1850POPC   C1A26523  19.118   2.019   8.719
 1850POPC   D2A26524  18.975   1.902   8.333
 1850POPC   C3A26525  19.148   2.136   8.017
 1850POPC   C4A26526  19.107   1.871   7.713
 1850POPC   C1B26527  18.638   2.239   8.753
 1850POPC   C2B26528  18.638   2.272   8.331
 1850POPC   C3B26529  18.657   2.262   7.907
 1850POPC   C4B26530  18.819   2.241   7.501
 1851POPC   NC326531  15.331  12.066   9.532
 1851POPC   PO426532  14.715  11.624   9.573
 1851POPC   GL126533  14.896  11.711   9.171
 1851POPC   GL226534  15.231  11.830   9.081
 1851POPC   C1A26535  14.815  11.951   8.788
 1851POPC   D2A26536  15.021  12.264   8.526
 1851POPC   C3A26537  14.983  12.227   8.084
 1851POPC   C4A26538  15.006  11.946   7.741
 1851POPC   C1B26539  15.377  12.214   8.894
 1851POPC   C2B26540  15.601  12.279   8.518
 1851POPC   C3B26541  15.486  12.400   8.108
 1851POPC   C4B26542  15.444  12.195   7.723
 1852POPC   NC326543  40.313  13.779   9.510
 1852POPC   PO426544  39.677  13.881   9.547
 1852POPC   GL126545  39.783  13.709   9.098
 1852POPC   GL226546  40.105  13.511   9.081
 1852POPC   C1A26547  39.930  13.613   8.635
 1852POPC   D2A26548  40.188  13.557   8.323
 1852POPC   C3A26549  40.055  13.652   7.936
 1852POPC   C4A26550  40.327  13.528   7.684
 1852POPC   C1B26551  39.753  13.216   8.867
 1852POPC   C2B26552  39.533  13.290   8.445
 1852POPC   C3B26553  39.650  13.317   7.989
 1852POPC   C4B26554  39.853  13.282   7.582
 1853POPC   NC326555  33.063   4.644   9.766
 1853POPC   PO426556  33.408   4.166   9.710
 1853POPC   GL126557  32.995   4.359   9.348
 1853POPC   GL226558  32.816   4.158   9.069
 1853POPC   C1A26559  33.011   4.608   8.933
 1853POPC   D2A26560  33.166   4.734   8.530
 1853POPC   C3A26561  33.155   4.612   8.118
 1853POPC   C4A26562  33.024   4.566   7.719
 1853POPC   C1B26563  33.009   4.146   8.710
 1853POPC   C2B26564  33.107   4.128   8.315
 1853POPC   C3B26565  32.859   4.186   8.008
 1853POPC   C4B26566  32.849   4.077   7.631
 1854POPC   NC326567  44.635  16.397   9.442
 1854POPC   PO426568  44.306  15.744   9.420
 1854POPC   GL126569  44.525  15.970   9.133
 1854POPC   GL226570  44.287  16.241   9.100
 1854POPC   C1A26571  44.695  15.807   8.744
 1854POPC   D2A26572  44.792  15.929   8.328
 1854POPC   C3A26573  44.699  15.665   7.927
 1854POPC   C4A26574  44.831  15.762   7.486
 1854POPC   C1B26575  44.535  16.295   8.712
 1854POPC   C2B26576  44.652  16.429   8.280
 1854POPC   C3B26577  44.685  16.181   7.911
 1854POPC   C4B26578  44.466  16.099   7.567
 1855POPC   NC326579  26.903   8.426   9.439
 1855POPC   PO426580  26.997   7.717   9.493
 1855POPC   GL126581  26.988   7.980   9.170
 1855POPC   GL226582  26.645   7.868   9.091
 1855POPC   C1A26583  26.957   8.140   8.757
 1855POPC   D2A26584  26.748   7.985   8.382
 1855POPC   C3A26585  26.967   8.091   8.010
 1855POPC   C4A26586  27.010   8.453   7.727
 1855POPC   C1B26587  26.396   7.665   8.752
 1855POPC   C2B26588  26.303   7.731   8.297
 1855POPC   C3B26589  26.537   7.806   7.917
 1855POPC   C4B26590  26.645   8.114   7.592
 1856POPC   NC326591   2.579  10.753   9.499
 1856POPC   PO426592   3.098  11.077   9.340
 1856POPC   GL126593   2.708  11.017   9.089
 1856POPC   GL226594   2.459  11.281   9.143
 1856POPC   C1A26595   2.593  11.005   8.667
 1856POPC   D2A26596   2.964  11.179   8.402
 1856POPC   C3A26597   2.914  11.156   7.947
 1856POPC   C4A26598   2.532  11.019   7.810
 1856POPC   C1B26599   2.460  11.482   8.709
 1856POPC   C2B26600   2.490  11.328   8.257
 1856POPC   C3B26601   2.548  11.525   7.840
 1856POPC   C4B26602   2.873  11.689   7.555
 1857POPC   NC326603  20.779   3.086   9.497
 1857POPC   PO426604  20.176   2.737   9.557
 1857POPC   GL126605  20.386   2.910   9.196
 1857POPC   GL226606  20.345   3.257   9.097
 1857POPC   C1A26607  20.575   2.795   8.798
 1857POPC   D2A26608  20.432   2.861   8.379
 1857POPC   C3A26609  20.607   2.661   8.007
 1857POPC   C4A26610  20.342   2.728   7.659
 1857POPC   C1B26611  20.702   3.295   8.837
 1857POPC   C2B26612  20.762   3.290   8.386
 1857POPC   C3B26613  20.611   3.160   7.981
 1857POPC   C4B26614  20.935   2.984   7.728
 1858POPC   NC326615  13.642  16.979   9.518
 1858POPC   PO426616  13.740  16.393   9.697
 1858POPC   GL126617  13.721  16.553   9.250
 1858POPC   GL226618  13.879  16.338   9.065
 1858POPC   C1A26619  13.631  16.835   8.865
 1858POPC   D2A26620  13.354  17.086   8.612
 1858POPC   C3A26621  13.335  17.015   8.144
 1858POPC   C4A26622  13.411  16.700   7.798
 1858POPC   C1B26623  13.884  16.450   8.662
 1858POPC   C2B26624  14.088  16.531   8.309
 1858POPC   C3B26625  13.889  16.635   7.966
 1858POPC   C4B26626  13.768  16.325   7.752
 1859POPC   NC326627  15.887  42.729   9.681
 1859POPC   PO426628  15.986  42.031   9.490
 1859POPC   GL126629  15.788  42.219   9.134
 1859POPC   GL226630  15.579  42.492   9.154
 1859POPC   C1A26631  15.895  42.391   8.733
 1859POPC   D2A26632  15.714  42.472   8.361
 1859POPC   C3A26633  15.983  42.431   8.040
 1859POPC   C4A26634  16.020  42.163   7.707
 1859POPC   C1B26635  15.509  42.735   8.763
 1859POPC   C2B26636  15.419  42.892   8.348
 1859POPC   C3B26637  15.427  42.632   7.976
 1859POPC   C4B26638  15.684  42.546   7.618
 1860POPC   NC326639  41.122   1.895   9.383
 1860POPC   PO426640  40.569   1.592   9.628
 1860POPC   GL126641  40.497   1.960   9.293
 1860POPC   GL226642  40.720   2.189   9.164
 1860POPC   C1A26643  40.467   1.952   8.802
 1860POPC   D2A26644  40.718   1.925   8.363
 1860POPC   C3A26645  40.518   1.968   7.994
 1860POPC   C4A26646  40.661   2.134   7.649
 1860POPC   C1B26647  40.961   2.085   8.781
 1860POPC   C2B26648  41.040   2.317   8.394
 1860POPC   C3B26649  41.161   2.301   7.947
 1860POPC   C4B26650  41.068   2.366   7.493
 1861POPC   NC326651  12.378  17.475   9.299
 1861POPC   PO426652  11.848  17.609   9.730
 1861POPC   GL126653  11.832  17.576   9.298
 1861POPC   GL226654  11.946  17.840   9.114
 1861POPC   C1A26655  11.773  17.403   8.873
 1861POPC   D2A26656  11.740  17.506   8.427
 1861POPC   C3A26657  12.130  17.385   8.235
 1861POPC   C4A26658  12.279  17.228   7.849
 1861POPC   C1B26659  12.120  17.768   8.696
 1861POPC   C2B26660  12.271  17.885   8.283
 1861POPC   C3B26661  12.090  17.755   7.878
 1861POPC   C4B26662  12.250  17.589   7.490
 1862POPC   NC326663  37.538  10.689   9.574
 1862POPC   PO426664  37.658  10.077   9.530
 1862POPC   GL126665  37.763  10.382   9.190
 1862POPC   GL226666  37.783  10.767   9.142
 1862POPC   C1A26667  37.643  10.473   8.758
 1862POPC   D2A26668  37.566  10.265   8.376
 1862POPC   C3A26669  37.433  10.509   8.021
 1862POPC   C4A26670  37.578  10.632   7.621
 1862POPC   C1B26671  37.853  10.960   8.759
 1862POPC   C2B26672  37.608  10.859   8.393
 1862POPC   C3B26673  37.552  11.017   7.991
 1862POPC   C4B26674  37.667  11.162   7.567
 1863POPC   NC326675  35.816  35.252   9.496
 1863POPC   PO426676  35.164  35.034   9.412
 1863POPC   GL126677  35.392  35.304   9.142
 1863POPC   GL226678  35.087  35.487   9.012
 1863POPC   C1A26679  35.476  35.464   8.719
 1863POPC   D2A26680  35.260  35.345   8.367
 1863POPC   C3A26681  35.425  35.300   8.000
 1863POPC   C4A26682  35.507  35.643   7.775
 1863POPC   C1B26683  34.934  35.203   8.733
 1863POPC   C2B26684  34.754  35.372   8.345
 1863POPC   C3B26685  34.945  35.538   7.954
 1863POPC   C4B26686  35.042  35.796   7.582
 1864POPC   NC326687   8.064   9.364   9.488
 1864POPC   PO426688   7.921   9.974   9.528
 1864POPC   GL126689   8.094   9.805   9.178
 1864POPC   GL226690   7.892   9.530   9.055
 1864POPC   C1A26691   8.379   9.628   8.875
 1864POPC   D2A26692   8.545   9.501   8.451
 1864POPC   C3A26693   8.468   9.747   8.098
 1864POPC   C4A26694   8.382   9.555   7.746
 1864POPC   C1B26695   7.881   9.811   8.714
 1864POPC   C2B26696   7.974   9.750   8.304
 1864POPC   C3B26697   7.930   9.690   7.907
 1864POPC   C4B26698   8.099  10.018   7.733
 1865POPC   NC326699  37.069  16.122   9.434
 1865POPC   PO426700  36.421  15.912   9.520
 1865POPC   GL126701  36.649  15.932   9.148
 1865POPC   GL226702  36.920  15.739   9.133
 1865POPC   C1A26703  36.707  16.035   8.728
 1865POPC   D2A26704  36.532  15.933   8.334
 1865POPC   C3A26705  36.725  16.262   8.123
 1865POPC   C4A26706  36.956  16.163   7.780
 1865POPC   C1B26707  36.806  15.527   8.786
 1865POPC   C2B26708  37.077  15.425   8.479
 1865POPC   C3B26709  37.324  15.509   8.147
 1865POPC   C4B26710  37.176  15.550   7.708
 1866POPC   NC326711  29.851  43.481   9.417
 1866POPC   PO426712  30.165  42.932   9.622
 1866POPC   GL126713  30.095  43.087   9.179
 1866POPC   GL226714  29.966  42.822   9.065
 1866POPC   C1A26715  30.109  43.290   8.756
 1866POPC   D2A26716  29.879  43.276   8.365
 1866POPC   C3A26717  30.007  43.455   7.987
 1866POPC   C4A26718  30.175  43.301   7.592
 1866POPC   C1B26719  29.937  42.802   8.633
 1866POPC   C2B26720  29.849  42.798   8.175
 1866POPC   C3B26721  29.730  42.786   7.721
 1866POPC   C4B26722  29.483  42.906   7.342
 1867POPC   NC326723   2.441  10.003   9.447
 1867POPC   PO426724   2.934  10.420   9.525
 1867POPC   GL126725   2.989  10.449   9.110
 1867POPC   GL226726   2.935  10.064   9.107
 1867POPC   C1A26727   2.954  10.652   8.671
 1867POPC   D2A26728   2.719  10.763   8.238
 1867POPC   C3A26729   2.920  10.613   7.877
 1867POPC   C4A26730   3.290  10.823   7.741
 1867POPC   C1B26731   2.651  10.249   8.804
 1867POPC   C2B26732   2.743  10.277   8.381
 1867POPC   C3B26733   2.479  10.341   8.040
 1867POPC   C4B26734   2.439  10.557   7.674
 1868POPC   NC326735  15.960  13.471   9.476
 1868POPC   PO426736  15.657  14.063   9.452
 1868POPC   GL126737  15.704  13.727   9.131
 1868POPC   GL226738  16.091  13.668   9.031
 1868POPC   C1A26739  15.731  13.541   8.720
 1868POPC   D2A26740  15.993  13.696   8.401
 1868POPC   C3A26741  15.779  13.505   8.027
 1868POPC   C4A26742  15.665  13.675   7.627
 1868POPC   C1B26743  16.327  13.932   8.784
 1868POPC   C2B26744  16.497  13.967   8.388
 1868POPC   C3B26745  16.414  13.668   8.058
 1868POPC   C4B26746  16.196  13.685   7.670
 1869POPC   NC326747   3.296   8.400   9.333
 1869POPC   PO426748   2.830   7.972   9.696
 1869POPC   GL126749   2.906   7.857   9.221
 1869POPC   GL226750   2.951   8.156   9.067
 1869POPC   C1A26751   2.813   7.741   8.804
 1869POPC   D2A26752   2.670   7.989   8.474
 1869POPC   C3A26753   2.798   7.955   8.048
 1869POPC   C4A26754   2.620   8.321   7.807
 1869POPC   C1B26755   3.021   8.391   8.710
 1869POPC   C2B26756   3.104   8.230   8.348
 1869POPC   C3B26757   3.111   8.360   7.942
 1869POPC   C4B26758   3.234   8.547   7.598
 1870POPC   NC326759  12.655  25.875   9.322
 1870POPC   PO426760  13.322  26.178   9.345
 1870POPC   GL126761  13.074  26.041   9.059
 1870POPC   GL226762  13.102  25.685   9.168
 1870POPC   C1A26763  12.800  26.218   8.745
 1870POPC   D2A26764  12.654  26.020   8.398
 1870POPC   C3A26765  12.842  26.203   8.037
 1870POPC   C4A26766  12.711  26.069   7.667
 1870POPC   C1B26767  13.254  25.654   8.768
 1870POPC   C2B26768  12.945  25.582   8.485
 1870POPC   C3B26769  12.874  25.687   8.075
 1870POPC   C4B26770  13.171  25.845   7.789
 1871POPC   NC326771  31.665  16.746   9.295
 1871POPC   PO426772  31.091  16.469   9.567
 1871POPC   GL126773  31.055  16.833   9.116
 1871POPC   GL226774  31.344  17.043   9.042
 1871POPC   C1A26775  31.135  16.858   8.638
 1871POPC   D2A26776  31.389  16.673   8.320
 1871POPC   C3A26777  31.238  16.896   7.997
 1871POPC   C4A26778  31.147  16.770   7.596
 1871POPC   C1B26779  31.659  16.973   8.671
 1871POPC   C2B26780  31.865  16.916   8.247
 1871POPC   C3B26781  31.923  16.638   7.939
 1871POPC   C4B26782  31.567  16.534   7.769
 1872POPC   NC326783  26.433  20.222   9.576
 1872POPC   PO426784  25.959  20.757   9.441
 1872POPC   GL126785  26.193  20.615   9.107
 1872POPC   GL226786  26.267  20.932   8.934
 1872POPC   C1A26787  25.977  20.512   8.705
 1872POPC   D2A26788  25.705  20.759   8.416
 1872POPC   C3A26789  25.891  20.694   8.018
 1872POPC   C4A26790  25.968  20.277   7.896
 1872POPC   C1B26791  26.500  20.645   8.674
 1872POPC   C2B26792  26.572  20.416   8.263
 1872POPC   C3B26793  26.430  20.527   7.863
 1872POPC   C4B26794  26.288  20.956   7.784
 1873POPC   NC326795  33.725  30.318   9.532
 1873POPC   PO426796  34.031  29.753   9.636
 1873POPC   GL126797  33.964  29.926   9.239
 1873POPC   GL226798  34.256  29.981   9.054
 1873POPC   C1A26799  33.737  29.922   8.828
 1873POPC   D2A26800  33.629  29.678   8.437
 1873POPC   C3A26801  33.571  29.885   8.013
 1873POPC   C4A26802  33.767  29.885   7.571
 1873POPC   C1B26803  34.234  29.889   8.642
 1873POPC   C2B26804  33.952  30.077   8.373
 1873POPC   C3B26805  34.017  30.158   7.973
 1873POPC   C4B26806  34.112  30.508   7.770
 1874POPC   NC326807  26.420  39.722   9.475
 1874POPC   PO426808  26.996  40.060   9.634
 1874POPC   GL126809  26.896  40.032   9.198
 1874POPC   GL226810  26.905  39.680   9.187
 1874POPC   C1A26811  27.098  40.170   8.782
 1874POPC   D2A26812  26.928  40.349   8.383
 1874POPC   C3A26813  26.960  40.203   7.957
 1874POPC   C4A26814  27.288  40.320   7.674
 1874POPC   C1B26815  26.814  39.733   8.764
 1874POPC   C2B26816  27.018  39.831   8.385
 1874POPC   C3B26817  26.834  39.686   7.996
 1874POPC   C4B26818  26.801  39.840   7.594
 1875POPC   NC326819  34.502  20.979   9.535
 1875POPC   PO426820  34.852  21.528   9.443
 1875POPC   GL126821  34.527  21.368   9.158
 1875POPC   GL226822  34.728  21.088   9.097
 1875POPC   C1A26823  34.406  21.220   8.722
 1875POPC   D2A26824  34.545  21.369   8.293
 1875POPC   C3A26825  34.360  21.178   7.932
 1875POPC   C4A26826  34.337  21.210   7.470
 1875POPC   C1B26827  34.890  21.365   8.758
 1875POPC   C2B26828  35.058  21.483   8.350
 1875POPC   C3B26829  34.887  21.701   8.000
 1875POPC   C4B26830  34.748  21.415   7.738
 1876POPC   NC326831  29.395   8.974   9.522
 1876POPC   PO426832  28.799   9.159   9.397
 1876POPC   GL126833  29.080   8.932   9.106
 1876POPC   GL226834  29.352   8.659   9.141
 1876POPC   C1A26835  29.267   8.885   8.693
 1876POPC   D2A26836  29.068   8.834   8.295
 1876POPC   C3A26837  29.241   8.993   7.953
 1876POPC   C4A26838  29.161   9.183   7.541
 1876POPC   C1B26839  29.509   8.445   8.825
 1876POPC   C2B26840  29.323   8.405   8.460
 1876POPC   C3B26841  29.482   8.530   8.097
 1876POPC   C4B26842  29.413   8.612   7.695
 1877POPC   NC326843  35.986  12.913   9.424
 1877POPC   PO426844  36.484  12.482   9.317
 1877POPC   GL126845  36.319  12.777   9.036
 1877POPC   GL226846  36.463  13.105   9.076
 1877POPC   C1A26847  36.016  12.923   8.713
 1877POPC   D2A26848  35.685  12.868   8.376
 1877POPC   C3A26849  35.832  12.905   7.942
 1877POPC   C4A26850  35.909  12.592   7.619
 1877POPC   C1B26851  36.532  13.001   8.632
 1877POPC   C2B26852  36.319  12.701   8.348
 1877POPC   C3B26853  36.325  12.745   7.906
 1877POPC   C4B26854  36.406  12.648   7.484
 1878POPC   NC326855   0.760  10.352   9.645
 1878POPC   PO426856   1.310  10.768   9.552
 1878POPC   GL126857   1.036  10.644   9.217
 1878POPC   GL226858   1.266  10.431   9.152
 1878POPC   C1A26859   0.948  10.574   8.766
 1878POPC   D2A26860   1.253  10.518   8.433
 1878POPC   C3A26861   1.133  10.550   7.997
 1878POPC   C4A26862   1.369  10.688   7.631
 1878POPC   C1B26863   1.532  10.619   8.851
 1878POPC   C2B26864   1.770  10.411   8.515
 1878POPC   C3B26865   1.633  10.475   8.085
 1878POPC   C4B26866   1.556  10.217   7.754
 1879POPC   NC326867  23.465  15.251   9.381
 1879POPC   PO426868  24.020  14.890   9.441
 1879POPC   GL126869  23.801  15.011   9.105
 1879POPC   GL226870  23.477  14.815   9.076
 1879POPC   C1A26871  23.878  15.331   8.837
 1879POPC   D2A26872  23.928  15.499   8.455
 1879POPC   C3A26873  24.100  15.185   8.167
 1879POPC   C4A26874  23.822  14.975   7.841
 1879POPC   C1B26875  23.425  15.083   8.717
 1879POPC   C2B26876  23.595  15.114   8.308
 1879POPC   C3B26877  23.371  15.213   7.933
 1879POPC   C4B26878  23.088  14.914   7.783
 1880POPC   NC326879  39.422   3.207  10.003
 1880POPC   PO426880  39.173   2.759   9.529
 1880POPC   GL126881  39.330   2.720   9.142
 1880POPC   GL226882  39.083   2.918   8.997
 1880POPC   C1A26883  39.506   2.691   8.748
 1880POPC   D2A26884  39.321   2.719   8.385
 1880POPC   C3A26885  39.355   2.478   8.039
 1880POPC   C4A26886  39.218   2.757   7.718
 1880POPC   C1B26887  38.981   3.066   8.570
 1880POPC   C2B26888  38.738   3.152   8.178
 1880POPC   C3B26889  38.649   3.023   7.750
 1880POPC   C4B26890  38.862   2.855   7.340
 1881POPC   NC326891   0.793  29.951   9.571
 1881POPC   PO426892   0.108  29.784   9.599
 1881POPC   GL126893   0.337  29.921   9.214
 1881POPC   GL226894   0.327  29.646   8.945
 1881POPC   C1A26895   0.304  30.129   8.804
 1881POPC   D2A26896   0.549  30.221   8.424
 1881POPC   C3A26897   0.563  29.992   8.066
 1881POPC   C4A26898   0.497  30.188   7.670
 1881POPC   C1B26899   0.676  29.775   8.662
 1881POPC   C2B26900   0.937  29.533   8.420
 1881POPC   C3B26901   0.776  29.412   8.048
 1881POPC   C4B26902   0.721  29.681   7.695
 1882POPC   NC326903  19.980  42.317   9.384
 1882POPC   PO426904  19.289  42.524   9.486
 1882POPC   GL126905  19.561  42.517   9.103
 1882POPC   GL226906  19.866  42.736   9.128
 1882POPC   C1A26907  19.833  42.405   8.736
 1882POPC   D2A26908  20.106  42.328   8.403
 1882POPC   C3A26909  19.873  42.468   8.076
 1882POPC   C4A26910  19.746  42.212   7.740
 1882POPC   C1B26911  20.246  42.719   8.801
 1882POPC   C2B26912  20.232  42.818   8.370
 1882POPC   C3B26913  20.164  42.866   7.941
 1882POPC   C4B26914  20.157  42.505   7.661
 1883POPC   NC326915  21.100   7.543   9.470
 1883POPC   PO426916  21.738   7.531   9.440
 1883POPC   GL126917  21.585   7.237   9.149
 1883POPC   GL226918  21.257   7.099   9.249
 1883POPC   C1A26919  21.678   7.352   8.747
 1883POPC   D2A26920  21.441   7.284   8.380
 1883POPC   C3A26921  21.583   7.440   7.997
 1883POPC   C4A26922  21.443   7.754   7.719
 1883POPC   C1B26923  21.143   7.277   8.850
 1883POPC   C2B26924  20.940   7.234   8.461
 1883POPC   C3B26925  20.996   7.099   8.055
 1883POPC   C4B26926  21.217   7.238   7.709
 1884POPC   NC326927   7.750  38.947   9.681
 1884POPC   PO426928   7.490  38.303   9.437
 1884POPC   GL126929   7.345  38.387   9.046
 1884POPC   GL226930   7.163  38.667   9.166
 1884POPC   C1A26931   7.559  38.472   8.661
 1884POPC   D2A26932   7.599  38.244   8.330
 1884POPC   C3A26933   7.553  38.499   8.051
 1884POPC   C4A26934   7.533  38.371   7.679
 1884POPC   C1B26935   7.134  38.762   8.722
 1884POPC   C2B26936   7.125  38.497   8.346
 1884POPC   C3B26937   7.072  38.597   7.905
 1884POPC   C4B26938   7.193  38.766   7.488
 1885POPC   NC326939  28.683  21.047   9.508
 1885POPC   PO426940  28.344  21.672   9.533
 1885POPC   GL126941  28.475  21.427   9.211
 1885POPC   GL226942  28.267  21.127   9.188
 1885POPC   C1A26943  28.465  21.350   8.774
 1885POPC   D2A26944  28.199  21.367   8.420
 1885POPC   C3A26945  28.482  21.459   8.102
 1885POPC   C4A26946  28.679  21.723   7.836
 1885POPC   C1B26947  28.052  20.998   8.780
 1885POPC   C2B26948  27.930  20.934   8.328
 1885POPC   C3B26949  28.191  21.061   7.959
 1885POPC   C4B26950  28.584  21.151   7.724
 1886POPC   NC326951  44.172  41.891   9.578
 1886POPC   PO426952  43.665  41.378   9.573
 1886POPC   GL126953  43.969  41.390   9.268
 1886POPC   GL226954  43.966  41.729   9.152
 1886POPC   C1A26955  44.006  41.333   8.825
 1886POPC   D2A26956  43.811  41.417   8.420
 1886POPC   C3A26957  44.014  41.437   8.027
 1886POPC   C4A26958  43.834  41.319   7.638
 1886POPC   C1B26959  43.767  41.880   8.800
 1886POPC   C2B26960  43.914  41.912   8.399
 1886POPC   C3B26961  43.776  41.915   7.977
 1886POPC   C4B26962  43.989  41.786   7.637
 1887POPC   NC326963  10.695  25.830   9.564
 1887POPC   PO426964  10.311  26.384   9.651
 1887POPC   GL126965  10.581  26.207   9.194
 1887POPC   GL226966  10.591  25.859   9.080
 1887POPC   C1A26967  10.836  26.111   8.739
 1887POPC   D2A26968  10.832  25.823   8.387
 1887POPC   C3A26969  10.702  26.026   8.018
 1887POPC   C4A26970  10.296  26.048   7.808
 1887POPC   C1B26971  10.345  26.017   8.737
 1887POPC   C2B26972  10.277  25.927   8.313
 1887POPC   C3B26973  10.400  25.586   8.034
 1887POPC   C4B26974  10.745  25.588   7.767
 1888POPC   NC326975  44.403  23.137   9.770
 1888POPC   PO426976   0.018  22.936   9.497
 1888POPC   GL126977  44.694  22.778   9.226
 1888POPC   GL226978  44.467  23.050   9.268
 1888POPC   C1A26979  44.714  22.939   8.809
 1888POPC   D2A26980  44.890  23.165   8.489
 1888POPC   C3A26981  44.782  22.982   8.109
 1888POPC   C4A26982  44.740  22.623   7.845
 1888POPC   C1B26983  44.350  23.304   8.935
 1888POPC   C2B26984  44.388  23.312   8.485
 1888POPC   C3B26985  44.305  23.309   8.026
 1888POPC   C4B26986  44.563  23.150   7.680
 1889POPC   NC326987   3.616  23.299   9.579
 1889POPC   PO426988   3.241  23.838   9.519
 1889POPC   GL126989   3.302  23.586   9.201
 1889POPC   GL226990   3.642  23.668   9.157
 1889POPC   C1A26991   3.290  23.690   8.791
 1889POPC   D2A26992   3.507  23.612   8.466
 1889POPC   C3A26993   3.359  23.751   8.096
 1889POPC   C4A26994   3.268  23.576   7.719
 1889POPC   C1B26995   3.888  23.793   8.782
 1889POPC   C2B26996   4.002  23.608   8.369
 1889POPC   C3B26997   3.855  23.470   7.970
 1889POPC   C4B26998   3.728  23.780   7.699
 1890POPC   NC326999   3.680  33.208   9.481
 1890POPC   PO427000   3.384  32.596   9.591
 1890POPC   GL127001   3.503  32.768   9.181
 1890POPC   GL227002   3.841  32.876   9.032
 1890POPC   C1A27003   3.405  33.022   8.800
 1890POPC   D2A27004   3.684  33.003   8.455
 1890POPC   C3A27005   3.523  33.047   8.054
 1890POPC   C4A27006   3.566  32.835   7.711
 1890POPC   C1B27007   3.900  33.298   8.833
 1890POPC   C2B27008   3.879  33.471   8.397
 1890POPC   C3B27009   4.016  33.212   8.093
 1890POPC   C4B27010   3.891  33.215   7.711
 1891POPC   NC327011  40.482  20.462   9.453
 1891POPC   PO427012  41.037  20.986   9.436
 1891POPC   GL127013  40.748  20.917   9.102
 1891POPC   GL227014  41.033  21.024   8.883
 1891POPC   C1A27015  40.561  20.558   8.818
 1891POPC   D2A27016  40.690  20.251   8.488
 1891POPC   C3A27017  40.654  20.356   8.052
 1891POPC   C4A27018  40.566  20.379   7.598
 1891POPC   C1B27019  41.010  20.651   8.592
 1891POPC   C2B27020  41.191  20.330   8.347
 1891POPC   C3B27021  41.151  20.407   7.905
 1891POPC   C4B27022  41.166  20.824   7.722
 1892POPC   NC327023  42.251  14.995   9.398
 1892POPC   PO427024  42.680  15.609   9.527
 1892POPC   GL127025  42.521  15.329   9.171
 1892POPC   GL227026  42.799  15.110   9.158
 1892POPC   C1A27027  42.210  15.103   8.778
 1892POPC   D2A27028  42.026  14.924   8.360
 1892POPC   C3A27029  42.037  15.081   7.921
 1892POPC   C4A27030  41.969  14.984   7.431
 1892POPC   C1B27031  42.686  15.244   8.730
 1892POPC   C2B27032  42.546  15.068   8.389
 1892POPC   C3B27033  42.513  15.206   8.012
 1892POPC   C4B27034  42.645  15.037   7.692
 1893POPC   NC327035  10.109  17.565   9.501
 1893POPC   PO427036   9.394  17.864   9.458
 1893POPC   GL127037   9.710  17.636   9.198
 1893POPC   GL227038  10.014  17.817   9.033
 1893POPC   C1A27039   9.649  17.527   8.782
 1893POPC   D2A27040   9.522  17.736   8.413
 1893POPC   C3A27041   9.509  17.443   8.062
 1893POPC   C4A27042   9.414  17.351   7.638
 1893POPC   C1B27043  10.106  17.679   8.615
 1893POPC   C2B27044   9.946  17.388   8.343
 1893POPC   C3B27045  10.025  17.376   7.902
 1893POPC   C4B27046  10.335  17.736   7.804
 1894POPC   NC327047  42.130  27.099   9.395
 1894POPC   PO427048  42.615  26.654   9.515
 1894POPC   GL127049  42.494  26.758   9.121
 1894POPC   GL227050  42.275  26.493   9.091
 1894POPC   C1A27051  42.397  26.821   8.675
 1894POPC   D2A27052  42.589  26.846   8.243
 1894POPC   C3A27053  42.273  26.845   7.945
 1894POPC   C4A27054  42.096  26.830   7.541
 1894POPC   C1B27055  42.624  26.360   8.804
 1894POPC   C2B27056  42.819  26.374   8.377
 1894POPC   C3B27057  42.648  26.426   7.942
 1894POPC   C4B27058  42.390  26.425   7.558
 1895POPC   NC327059  33.176  42.006   9.441
 1895POPC   PO427060  32.932  42.598   9.662
 1895POPC   GL127061  33.082  42.520   9.194
 1895POPC   GL227062  32.926  42.224   9.067
 1895POPC   C1A27063  32.992  42.580   8.708
 1895POPC   D2A27064  32.852  42.318   8.321
 1895POPC   C3A27065  33.052  42.411   7.908
 1895POPC   C4A27066  32.956  42.227   7.473
 1895POPC   C1B27067  32.936  41.972   8.722
 1895POPC   C2B27068  33.157  41.907   8.368
 1895POPC   C3B27069  33.000  41.914   7.963
 1895POPC   C4B27070  33.240  41.823   7.585
 1896POPC   NC327071  38.446  40.597   9.458
 1896POPC   PO427072  38.567  41.215   9.388
 1896POPC   GL127073  38.363  40.959   9.071
 1896POPC   GL227074  38.165  40.594   9.050
 1896POPC   C1A27075  38.579  40.805   8.739
 1896POPC   D2A27076  38.481  40.681   8.337
 1896POPC   C3A27077  38.669  40.788   7.988
 1896POPC   C4A27078  38.412  41.068   7.805
 1896POPC   C1B27079  38.285  40.381   8.703
 1896POPC   C2B27080  38.394  40.190   8.319
 1896POPC   C3B27081  38.234  40.266   7.934
 1896POPC   C4B27082  38.374  40.548   7.645
 1897POPC   NC327083   7.374  44.550   9.416
 1897POPC   PO427084   7.948  44.823   9.490
 1897POPC   GL127085   7.774  44.631   9.109
 1897POPC   GL227086   7.489  44.913   9.078
 1897POPC   C1A27087   7.534  44.529   8.720
 1897POPC   D2A27088   7.544  44.277   8.334
 1897POPC   C3A27089   7.442  44.417   7.931
 1897POPC   C4A27090   7.605  44.727   7.662
 1897POPC   C1B27091   7.315  44.989   8.668
 1897POPC   C2B27092   7.432  44.815   8.260
 1897POPC   C3B27093   7.161  44.847   7.866
 1897POPC   C4B27094   7.058   0.023   7.423
 1898POPC   NC327095  16.712  40.865   9.641
 1898POPC   PO427096  17.036  40.523   9.633
 1898POPC   GL127097  16.884  40.669   9.188
 1898POPC   GL227098  16.511  40.680   9.142
 1898POPC   C1A27099  16.811  40.658   8.718
 1898POPC   D2A27100  16.570  40.649   8.323
 1898POPC   C3A27101  16.788  40.746   7.901
 1898POPC   C4A27102  16.968  40.621   7.472
 1898POPC   C1B27103  16.359  40.933   8.766
 1898POPC   C2B27104  16.122  40.962   8.370
 1898POPC   C3B27105  16.295  40.889   7.949
 1898POPC   C4B27106  16.594  41.200   7.713
 1899POPC   NC327107  15.928  35.449   9.606
 1899POPC   PO427108  16.541  35.221   9.469
 1899POPC   GL127109  16.266  35.070   9.122
 1899POPC   GL227110  15.903  35.138   9.198
 1899POPC   C1A27111  16.221  34.977   8.668
 1899POPC   D2A27112  15.889  35.144   8.356
 1899POPC   C3A27113  15.993  35.277   7.930
 1899POPC   C4A27114  15.720  35.080   7.659
 1899POPC   C1B27115  15.905  35.360   8.822
 1899POPC   C2B27116  15.616  35.567   8.533
 1899POPC   C3B27117  15.563  35.494   8.128
 1899POPC   C4B27118  15.639  35.596   7.727
 1900POPC   NC327119  39.127  30.593   9.331
 1900POPC   PO427120  39.282  30.013   9.691
 1900POPC   GL127121  39.235  30.083   9.198
 1900POPC   GL227122  39.037  29.844   9.118
 1900POPC   C1A27123  39.429  29.951   8.776
 1900POPC   D2A27124  39.283  29.726   8.382
 1900POPC   C3A27125  39.425  29.830   7.931
 1900POPC   C4A27126  39.301  29.640   7.524
 1900POPC   C1B27127  38.916  30.076   8.740
 1900POPC   C2B27128  38.762  29.951   8.343
 1900POPC   C3B27129  38.926  29.762   8.003
 1900POPC   C4B27130  38.905  29.920   7.606
 1901POPC   NC327131  13.641  32.454   9.548
 1901POPC   PO427132  13.910  31.815   9.586
 1901POPC   GL127133  13.936  32.068   9.155
 1901POPC   GL227134  13.612  32.165   9.149
 1901POPC   C1A27135  13.806  32.241   8.680
 1901POPC   D2A27136  13.809  32.503   8.327
 1901POPC   C3A27137  13.899  32.324   7.939
 1901POPC   C4A27138  13.814  32.441   7.506
 1901POPC   C1B27139  13.350  32.370   8.835
 1901POPC   C2B27140  13.347  32.268   8.406
 1901POPC   C3B27141  13.387  32.286   7.969
 1901POPC   C4B27142  13.281  32.547   7.643
 1902POPC   NC327143   2.278  37.945   9.626
 1902POPC   PO427144   2.086  37.266   9.589
 1902POPC   GL127145   2.081  37.528   9.199
 1902POPC   GL227146   2.039  37.920   9.179
 1902POPC   C1A27147   1.979  37.650   8.767
 1902POPC   D2A27148   1.945  37.925   8.406
 1902POPC   C3A27149   1.920  37.731   8.021
 1902POPC   C4A27150   1.785  37.582   7.671
 1902POPC   C1B27151   2.275  38.081   8.810
 1902POPC   C2B27152   2.354  38.242   8.396
 1902POPC   C3B27153   2.216  38.202   7.961
 1902POPC   C4B27154   2.213  38.004   7.546
 1903POPC   NC327155  17.084  12.369   9.198
 1903POPC   PO427156  16.494  12.143   9.476
 1903POPC   GL127157  16.528  12.019   9.048
 1903POPC   GL227158  16.831  11.984   9.006
 1903POPC   C1A27159  16.502  12.043   8.592
 1903POPC   D2A27160  16.648  12.390   8.317
 1903POPC   C3A27161  16.858  12.311   7.912
 1903POPC   C4A27162  16.706  11.960   7.667
 1903POPC   C1B27163  17.015  12.118   8.615
 1903POPC   C2B27164  16.915  11.929   8.256
 1903POPC   C3B27165  17.143  11.881   7.913
 1903POPC   C4B27166  17.222  12.097   7.533
 1904POPC   NC327167   6.892  17.219   9.648
 1904POPC   PO427168   6.546  17.819   9.581
 1904POPC   GL127169   6.773  17.583   9.287
 1904POPC   GL227170   6.487  17.349   9.321
 1904POPC   C1A27171   6.922  17.500   8.861
 1904POPC   D2A27172   6.822  17.338   8.458
 1904POPC   C3A27173   6.998  17.372   8.058
 1904POPC   C4A27174   6.850  17.554   7.726
 1904POPC   C1B27175   6.408  17.590   8.926
 1904POPC   C2B27176   6.327  17.501   8.489
 1904POPC   C3B27177   6.443  17.415   8.070
 1904POPC   C4B27178   6.354  17.592   7.662
 1905POPC   NC327179   5.167  35.098   9.597
 1905POPC   PO427180   4.961  35.778   9.591
 1905POPC   GL127181   4.950  35.373   9.234
 1905POPC   GL227182   5.245  35.080   9.102
 1905POPC   C1A27183   4.990  35.338   8.763
 1905POPC   D2A27184   4.989  35.012   8.408
 1905POPC   C3A27185   5.033  35.180   7.974
 1905POPC   C4A27186   4.934  35.541   7.700
 1905POPC   C1B27187   5.443  35.128   8.671
 1905POPC   C2B27188   5.310  35.426   8.326
 1905POPC   C3B27189   5.407  35.550   7.904
 1905POPC   C4B27190   5.359  35.272   7.523
 1906POPC   NC327191  26.293  23.331   9.488
 1906POPC   PO427192  25.850  23.798   9.574
 1906POPC   GL127193  26.084  23.808   9.182
 1906POPC   GL227194  25.828  24.028   9.079
 1906POPC   C1A27195  26.216  23.540   8.791
 1906POPC   D2A27196  25.982  23.382   8.391
 1906POPC   C3A27197  26.188  23.452   7.986
 1906POPC   C4A27198  26.165  23.582   7.573
 1906POPC   C1B27199  25.843  23.848   8.663
 1906POPC   C2B27200  26.168  23.858   8.356
 1906POPC   C3B27201  26.235  23.983   7.944
 1906POPC   C4B27202  25.967  24.071   7.583
 1907POPC   NC327203  37.219  40.017   9.886
 1907POPC   PO427204  36.730  39.620   9.634
 1907POPC   GL127205  36.979  39.709   9.249
 1907POPC   GL227206  37.002  40.038   9.101
 1907POPC   C1A27207  37.031  39.609   8.804
 1907POPC   D2A27208  36.770  39.595   8.453
 1907POPC   C3A27209  36.813  39.884   8.126
 1907POPC   C4A27210  36.919  39.887   7.725
 1907POPC   C1B27211  37.264  40.139   8.766
 1907POPC   C2B27212  37.272  39.907   8.372
 1907POPC   C3B27213  37.248  40.152   7.976
 1907POPC   C4B27214  36.954  40.397   7.655
 1908POPC   NC327215  41.196   4.434   9.381
 1908POPC   PO427216  41.715   4.030   9.554
 1908POPC   GL127217  41.669   4.263   9.175
 1908POPC   GL227218  41.995   4.159   9.085
 1908POPC   C1A27219  41.475   4.319   8.746
 1908POPC   D2A27220  41.575   4.530   8.320
 1908POPC   C3A27221  41.328   4.470   7.926
 1908POPC   C4A27222  41.180   4.732   7.567
 1908POPC   C1B27223  41.874   3.986   8.678
 1908POPC   C2B27224  41.819   4.073   8.235
 1908POPC   C3B27225  41.724   4.134   7.819
 1908POPC   C4B27226  41.728   3.805   7.471
 1909POPC   NC327227  10.674  32.219   9.471
 1909POPC   PO427228  10.288  32.655   9.633
 1909POPC   GL127229  10.424  32.598   9.191
 1909POPC   GL227230  10.742  32.680   8.976
 1909POPC   C1A27231  10.304  32.484   8.775
 1909POPC   D2A27232  10.516  32.315   8.403
 1909POPC   C3A27233  10.631  32.511   8.047
 1909POPC   C4A27234  10.257  32.420   7.769
 1909POPC   C1B27235  10.740  32.208   8.833
 1909POPC   C2B27236  10.796  31.898   8.435
 1909POPC   C3B27237  10.616  31.991   8.009
 1909POPC   C4B27238  10.755  32.256   7.629
 1910POPC   NC327239  42.044  34.027   9.587
 1910POPC   PO427240  42.654  34.011   9.390
 1910POPC   GL127241  42.263  33.829   9.156
 1910POPC   GL227242  42.038  33.572   9.261
 1910POPC   C1A27243  42.142  33.979   8.748
 1910POPC   D2A27244  42.518  34.104   8.492
 1910POPC   C3A27245  42.526  34.029   8.047
 1910POPC   C4A27246  42.669  33.814   7.684
 1910POPC   C1B27247  41.928  33.501   8.837
 1910POPC   C2B27248  41.993  33.590   8.410
 1910POPC   C3B27249  41.863  33.709   8.006
 1910POPC   C4B27250  42.215  33.575   7.748
 1911POPC   NC327251  37.348   6.685   9.426
 1911POPC   PO427252  37.975   6.422   9.484
 1911POPC   GL127253  37.818   6.675   9.137
 1911POPC   GL227254  37.540   6.851   8.987
 1911POPC   C1A27255  37.944   6.643   8.727
 1911POPC   D2A27256  37.966   6.363   8.412
 1911POPC   C3A27257  37.775   6.474   8.027
 1911POPC   C4A27258  37.742   6.531   7.599
 1911POPC   C1B27259  37.441   6.720   8.580
 1911POPC   C2B27260  37.565   6.894   8.205
 1911POPC   C3B27261  37.690   6.975   7.790
 1911POPC   C4B27262  37.621   6.971   7.303
 1912POPC   NC327263  18.988  31.692   9.608
 1912POPC   PO427264  18.917  31.079   9.765
 1912POPC   GL127265  18.969  31.257   9.263
 1912POPC   GL227266  19.218  31.510   9.153
 1912POPC   C1A27267  18.838  31.557   8.851
 1912POPC   D2A27268  19.044  31.663   8.412
 1912POPC   C3A27269  18.806  31.669   8.011
 1912POPC   C4A27270  18.535  31.652   7.604
 1912POPC   C1B27271  19.210  31.262   8.720
 1912POPC   C2B27272  19.164  31.079   8.285
 1912POPC   C3B27273  19.211  31.321   7.916
 1912POPC   C4B27274  19.439  31.715   7.938
 1913POPC   NC327275  18.289  35.722   9.557
 1913POPC   PO427276  18.159  35.067   9.381
 1913POPC   GL127277  18.345  35.309   9.137
 1913POPC   GL227278  18.109  35.567   9.101
 1913POPC   C1A27279  18.302  35.143   8.726
 1913POPC   D2A27280  18.390  35.223   8.295
 1913POPC   C3A27281  18.078  35.076   7.989
 1913POPC   C4A27282  17.966  35.289   7.633
 1913POPC   C1B27283  18.374  35.627   8.747
 1913POPC   C2B27284  18.227  35.721   8.381
 1913POPC   C3B27285  18.040  35.588   8.037
 1913POPC   C4B27286  18.263  35.690   7.701
 1914POPC   NC327287  10.907  42.180   9.384
 1914POPC   PO427288  11.340  42.675   9.489
 1914POPC   GL127289  11.236  42.495   9.101
 1914POPC   GL227290  11.525  42.276   9.058
 1914POPC   C1A27291  11.062  42.281   8.727
 1914POPC   D2A27292  11.234  42.218   8.312
 1914POPC   C3A27293  11.047  42.436   7.977
 1914POPC   C4A27294  11.135  42.650   7.620
 1914POPC   C1B27295  11.537  42.533   8.658
 1914POPC   C2B27296  11.613  42.592   8.204
 1914POPC   C3B27297  11.536  42.355   7.837
 1914POPC   C4B27298  11.530  42.454   7.365
 1915POPC   NC327299  13.485  35.596   9.420
 1915POPC   PO427300  13.751  34.954   9.457
 1915POPC   GL127301  13.490  35.109   9.068
 1915POPC   GL227302  13.322  35.487   8.983
 1915POPC   C1A27303  13.519  35.243   8.615
 1915POPC   D2A27304  13.564  35.522   8.270
 1915POPC   C3A27305  13.557  35.280   7.923
 1915POPC   C4A27306  13.544  35.000   7.589
 1915POPC   C1B27307  13.315  35.829   8.687
 1915POPC   C2B27308  13.235  35.934   8.237
 1915POPC   C3B27309  13.403  35.782   7.823
 1915POPC   C4B27310  13.480  35.487   7.458
 1916POPC   NC327311   6.737  28.794   9.432
 1916POPC   PO427312   6.298  29.326   9.376
 1916POPC   GL127313   6.551  29.117   9.085
 1916POPC   GL227314   6.343  28.828   9.089
 1916POPC   C1A27315   6.808  28.967   8.708
 1916POPC   D2A27316   6.881  28.944   8.230
 1916POPC   C3A27317   6.698  29.265   7.932
 1916POPC   C4A27318   6.818  29.354   7.488
 1916POPC   C1B27319   6.278  28.973   8.683
 1916POPC   C2B27320   6.366  29.087   8.307
 1916POPC   C3B27321   6.394  28.845   7.969
 1916POPC   C4B27322   6.360  29.010   7.603
 1917POPC   NC327323  40.343  31.861   9.602
 1917POPC   PO427324  39.805  32.208   9.590
 1917POPC   GL127325  39.815  32.163   9.183
 1917POPC   GL227326  40.148  32.275   9.136
 1917POPC   C1A27327  39.773  32.449   8.830
 1917POPC   D2A27328  39.713  32.476   8.403
 1917POPC   C3A27329  39.875  32.111   8.172
 1917POPC   C4A27330  39.864  32.370   7.841
 1917POPC   C1B27331  40.231  32.237   8.697
 1917POPC   C2B27332  40.218  32.469   8.328
 1917POPC   C3B27333  40.363  32.429   7.927
 1917POPC   C4B27334  40.265  32.017   7.786
 1918POPC   NC327335  30.228   2.656   9.268
 1918POPC   PO427336  29.563   2.781   9.220
 1918POPC   GL127337  29.855   2.698   8.937
 1918POPC   GL227338  30.019   2.352   8.928
 1918POPC   C1A27339  29.963   2.766   8.515
 1918POPC   D2A27340  29.776   3.015   8.176
 1918POPC   C3A27341  29.959   2.811   7.865
 1918POPC   C4A27342  30.165   2.444   7.905
 1918POPC   C1B27343  29.668   2.333   8.665
 1918POPC   C2B27344  29.764   2.325   8.245
 1918POPC   C3B27345  29.629   2.420   7.854
 1918POPC   C4B27346  29.657   2.633   7.477
 1919POPC   NC327347  26.132  30.064   9.396
 1919POPC   PO427348  25.947  29.440   9.491
 1919POPC   GL127349  25.850  29.714   9.126
 1919POPC   GL227350  26.163  29.814   8.960
 1919POPC   C1A27351  25.743  29.791   8.706
 1919POPC   D2A27352  26.036  29.865   8.403
 1919POPC   C3A27353  25.784  29.901   8.069
 1919POPC   C4A27354  25.871  29.860   7.684
 1919POPC   C1B27355  26.354  30.160   8.694
 1919POPC   C2B27356  26.216  30.360   8.324
 1919POPC   C3B27357  26.244  30.115   7.968
 1919POPC   C4B27358  26.350  29.979   7.567
 1920POPC   NC327359  26.735  26.717   9.549
 1920POPC   PO427360  27.394  26.585   9.332
 1920POPC   GL127361  27.034  26.744   9.120
 1920POPC   GL227362  26.674  26.890   9.088
 1920POPC   C1A27363  26.845  26.615   8.725
 1920POPC   D2A27364  26.533  26.840   8.498
 1920POPC   C3A27365  26.597  26.803   8.065
 1920POPC   C4A27366  26.833  26.459   7.915
 1920POPC   C1B27367  26.918  27.108   8.770
 1920POPC   C2B27368  27.001  27.036   8.377
 1920POPC   C3B27369  26.984  27.159   7.995
 1920POPC   C4B27370  26.685  27.136   7.623
 1921POPC   NC327371  30.966  18.473   9.566
 1921POPC   PO427372  30.545  17.990   9.448
 1921POPC   GL127373  30.893  18.122   9.174
 1921POPC   GL227374  30.866  18.476   9.085
 1921POPC   C1A27375  30.946  18.121   8.727
 1921POPC   D2A27376  30.724  18.154   8.339
 1921POPC   C3A27377  30.999  18.185   8.001
 1921POPC   C4A27378  31.157  17.917   7.700
 1921POPC   C1B27379  30.544  18.593   8.827
 1921POPC   C2B27380  30.560  18.665   8.410
 1921POPC   C3B27381  30.426  18.496   8.054
 1921POPC   C4B27382  30.527  18.208   7.786
 1922POPC   NC327383  31.682  38.708   9.546
 1922POPC   PO427384  31.114  39.013   9.633
 1922POPC   GL127385  31.279  38.783   9.225
 1922POPC   GL227386  31.592  38.904   9.079
 1922POPC   C1A27387  31.429  38.526   8.783
 1922POPC   D2A27388  31.432  38.356   8.293
 1922POPC   C3A27389  31.642  38.255   7.810
 1922POPC   C4A27390  31.614  38.255   7.299
 1922POPC   C1B27391  31.631  38.988   8.653
 1922POPC   C2B27392  31.756  38.776   8.305
 1922POPC   C3B27393  31.512  38.738   7.953
 1922POPC   C4B27394  31.545  38.698   7.538
 1923POPC   NC327395  14.137  20.582   9.574
 1923POPC   PO427396  14.592  20.359   9.198
 1923POPC   GL127397  14.230  20.494   8.965
 1923POPC   GL227398  13.951  20.732   9.037
 1923POPC   C1A27399  14.376  20.488   8.530
 1923POPC   D2A27400  14.576  20.130   8.332
 1923POPC   C3A27401  14.619  20.228   7.915
 1923POPC   C4A27402  14.444  20.526   7.682
 1923POPC   C1B27403  14.215  20.952   8.710
 1923POPC   C2B27404  14.416  20.959   8.267
 1923POPC   C3B27405  14.248  20.986   7.827
 1923POPC   C4B27406  14.096  20.988   7.404
 1924POPC   NC327407   2.759  39.804   9.468
 1924POPC   PO427408   2.956  40.542   9.474
 1924POPC   GL127409   2.884  40.197   9.179
 1924POPC   GL227410   2.557  40.225   9.173
 1924POPC   C1A27411   2.997  39.899   8.822
 1924POPC   D2A27412   3.069  39.625   8.437
 1924POPC   C3A27413   3.040  39.820   8.024
 1924POPC   C4A27414   2.800  40.118   7.719
 1924POPC   C1B27415   2.457  39.984   8.840
 1924POPC   C2B27416   2.635  39.883   8.456
 1924POPC   C3B27417   2.546  39.781   8.056
 1924POPC   C4B27418   2.402  39.798   7.647
 1925POPC   NC327419  30.097  17.980   9.537
 1925POPC   PO427420  29.544  18.331   9.638
 1925POPC   GL127421  29.776  18.274   9.262
 1925POPC   GL227422  29.619  18.432   9.038
 1925POPC   C1A27423  29.981  18.114   8.876
 1925POPC   D2A27424  30.271  18.237   8.557
 1925POPC   C3A27425  30.238  17.995   8.185
 1925POPC   C4A27426  29.993  18.230   7.922
 1925POPC   C1B27427  29.607  18.402   8.629
 1925POPC   C2B27428  29.577  18.227   8.244
 1925POPC   C3B27429  29.521  18.444   7.906
 1925POPC   C4B27430  29.613  18.629   7.562
 1926POPC   NC327431  30.555  31.557   9.627
 1926POPC   PO427432  31.167  31.497   9.660
 1926POPC   GL127433  30.878  31.400   9.278
 1926POPC   GL227434  30.877  31.645   9.079
 1926POPC   C1A27435  30.560  31.272   8.913
 1926POPC   D2A27436  30.623  31.116   8.443
 1926POPC   C3A27437  30.412  31.345   8.078
 1926POPC   C4A27438  30.443  31.440   7.624
 1926POPC   C1B27439  30.967  31.466   8.693
 1926POPC   C2B27440  30.766  31.598   8.352
 1926POPC   C3B27441  30.953  31.536   7.963
 1926POPC   C4B27442  30.852  31.180   7.751
 1927POPC   NC327443  22.736  18.076   9.564
 1927POPC   PO427444  23.337  18.415   9.466
 1927POPC   GL127445  23.031  18.592   9.150
 1927POPC   GL227446  22.681  18.471   9.199
 1927POPC   C1A27447  22.901  18.516   8.736
 1927POPC   D2A27448  22.889  18.280   8.387
 1927POPC   C3A27449  22.820  18.449   7.968
 1927POPC   C4A27450  22.745  18.841   7.710
 1927POPC   C1B27451  22.640  18.099   8.854
 1927POPC   C2B27452  22.488  17.952   8.439
 1927POPC   C3B27453  22.422  18.092   8.032
 1927POPC   C4B27454  22.609  18.087   7.642
 1928POPC   NC327455  32.979  20.489   9.592
 1928POPC   PO427456  33.129  21.203   9.638
 1928POPC   GL127457  33.283  20.937   9.271
 1928POPC   GL227458  33.121  20.617   9.138
 1928POPC   C1A27459  33.427  20.840   8.833
 1928POPC   D2A27460  33.200  20.527   8.581
 1928POPC   C3A27461  33.193  20.545   8.116
 1928POPC   C4A27462  33.280  20.437   7.653
 1928POPC   C1B27463  32.859  20.325   8.914
 1928POPC   C2B27464  32.611  20.351   8.560
 1928POPC   C3B27465  32.688  20.395   8.149
 1928POPC   C4B27466  32.808  20.272   7.759
 1929POPC   NC327467  24.361  17.920   9.506
 1929POPC   PO427468  24.631  18.538   9.435
 1929POPC   GL127469  24.412  18.324   9.148
 1929POPC   GL227470  24.653  18.024   9.086
 1929POPC   C1A27471  24.436  18.522   8.740
 1929POPC   D2A27472  24.676  18.459   8.346
 1929POPC   C3A27473  24.458  18.521   7.937
 1929POPC   C4A27474  24.381  18.601   7.481
 1929POPC   C1B27475  24.344  18.004   8.760
 1929POPC   C2B27476  24.242  18.212   8.388
 1929POPC   C3B27477  24.251  18.063   8.026
 1929POPC   C4B27478  24.292  18.137   7.640
 1930POPC   NC327479  35.868  30.732   9.565
 1930POPC   PO427480  36.440  31.027   9.333
 1930POPC   GL127481  36.195  30.700   9.123
 1930POPC   GL227482  36.467  30.679   8.920
 1930POPC   C1A27483  35.885  30.697   8.798
 1930POPC   D2A27484  35.738  30.545   8.414
 1930POPC   C3A27485  35.907  30.708   8.014
 1930POPC   C4A27486  35.820  30.840   7.601
 1930POPC   C1B27487  36.331  30.389   8.641
 1930POPC   C2B27488  36.157  30.285   8.253
 1930POPC   C3B27489  36.425  30.292   7.923
 1930POPC   C4B27490  36.526  30.742   7.961
 1931POPC   NC327491  19.628   4.698   9.543
 1931POPC   PO427492  19.795   4.076   9.633
 1931POPC   GL127493  19.623   4.081   9.170
 1931POPC   GL227494  19.674   4.455   9.062
 1931POPC   C1A27495  19.729   4.056   8.716
 1931POPC   D2A27496  19.955   4.273   8.385
 1931POPC   C3A27497  19.900   4.227   7.956
 1931POPC   C4A27498  19.566   4.462   7.776
 1931POPC   C1B27499  20.027   4.586   8.756
 1931POPC   C2B27500  20.236   4.714   8.363
 1931POPC   C3B27501  20.047   4.734   7.947
 1931POPC   C4B27502  20.046   4.511   7.545
 1932POPC   NC327503  37.806  17.639   9.330
 1932POPC   PO427504  37.214  17.238   9.467
 1932POPC   GL127505  37.436  17.380   9.075
 1932POPC   GL227506  37.350  17.741   9.059
 1932POPC   C1A27507  37.661  17.243   8.677
 1932POPC   D2A27508  37.733  17.233   8.229
 1932POPC   C3A27509  37.875  17.623   8.014
 1932POPC   C4A27510  37.790  17.729   7.584
 1932POPC   C1B27511  37.125  17.621   8.663
 1932POPC   C2B27512  37.213  17.358   8.299
 1932POPC   C3B27513  37.370  17.513   7.910
 1932POPC   C4B27514  37.172  17.714   7.546
 1933POPC   NC327515  21.798  15.295   9.322
 1933POPC   PO427516  21.227  15.068   9.478
 1933POPC   GL127517  21.422  15.085   9.044
 1933POPC   GL227518  21.743  14.919   8.948
 1933POPC   C1A27519  21.423  15.164   8.598
 1933POPC   D2A27520  21.375  15.218   8.126
 1933POPC   C3A27521  21.543  14.902   7.827
 1933POPC   C4A27522  21.554  14.873   7.339
 1933POPC   C1B27523  21.889  15.344   8.716
 1933POPC   C2B27524  21.741  15.490   8.360
 1933POPC   C3B27525  21.837  15.516   7.947
 1933POPC   C4B27526  21.708  15.321   7.566
 1934POPC   NC327527   3.609  34.986   9.495
 1934POPC   PO427528   3.368  34.325   9.446
 1934POPC   GL127529   3.453  34.606   9.141
 1934POPC   GL227530   3.778  34.567   9.057
 1934POPC   C1A27531   3.439  34.686   8.698
 1934POPC   D2A27532   3.228  34.468   8.360
 1934POPC   C3A27533   3.377  34.232   8.059
 1934POPC   C4A27534   3.277  34.416   7.674
 1934POPC   C1B27535   3.948  34.751   8.718
 1934POPC   C2B27536   3.793  34.632   8.326
 1934POPC   C3B27537   3.758  34.585   7.902
 1934POPC   C4B27538   4.043  34.471   7.575
 1935POPC   NC327539  36.481  18.180   9.366
 1935POPC   PO427540  37.150  18.079   9.388
 1935POPC   GL127541  36.947  18.093   9.017
 1935POPC   GL227542  36.861  18.439   9.033
 1935POPC   C1A27543  37.060  18.276   8.599
 1935POPC   D2A27544  37.312  18.586   8.386
 1935POPC   C3A27545  37.167  18.449   7.973
 1935POPC   C4A27546  36.958  18.100   7.774
 1935POPC   C1B27547  36.558  18.349   8.668
 1935POPC   C2B27548  36.650  18.237   8.205
 1935POPC   C3B27549  36.674  18.501   7.798
 1935POPC   C4B27550  36.446  18.439   7.389
 1936POPC   NC327551  38.614   2.970   9.500
 1936POPC   PO427552  38.038   2.717   9.494
 1936POPC   GL127553  38.338   2.688   9.163
 1936POPC   GL227554  38.723   2.557   9.184
 1936POPC   C1A27555  38.545   2.890   8.821
 1936POPC   D2A27556  38.560   2.729   8.414
 1936POPC   C3A27557  38.235   2.855   8.122
 1936POPC   C4A27558  38.175   2.838   7.683
 1936POPC   C1B27559  38.514   2.353   8.810
 1936POPC   C2B27560  38.440   2.118   8.426
 1936POPC   C3B27561  38.434   2.365   8.044
 1936POPC   C4B27562  38.740   2.541   7.744
 1937POPC   NC327563   9.925  26.578   9.803
 1937POPC   PO427564   9.896  27.224   9.664
 1937POPC   GL127565   9.931  27.004   9.262
 1937POPC   GL227566   9.965  26.653   9.309
 1937POPC   C1A27567   9.869  26.838   8.823
 1937POPC   D2A27568   9.635  26.646   8.467
 1937POPC   C3A27569   9.672  26.783   8.041
 1937POPC   C4A27570   9.962  27.058   7.893
 1937POPC   C1B27571  10.148  26.418   8.985
 1937POPC   C2B27572  10.109  26.452   8.568
 1937POPC   C3B27573  10.156  26.719   8.241
 1937POPC   C4B27574  10.100  26.578   7.828
 1938POPC   NC327575  41.404  29.469   9.376
 1938POPC   PO427576  41.544  28.927   9.698
 1938POPC   GL127577  41.547  28.936   9.251
 1938POPC   GL227578  41.750  29.195   9.108
 1938POPC   C1A27579  41.525  28.882   8.806
 1938POPC   D2A27580  41.591  29.003   8.393
 1938POPC   C3A27581  41.328  29.244   8.151
 1938POPC   C4A27582  41.242  29.209   7.711
 1938POPC   C1B27583  41.861  29.389   8.718
 1938POPC   C2B27584  41.731  29.536   8.293
 1938POPC   C3B27585  41.690  29.470   7.819
 1938POPC   C4B27586  41.843  29.557   7.344
 1939POPC   NC327587  14.619  27.397   9.639
 1939POPC   PO427588  14.222  26.844   9.544
 1939POPC   GL127589  14.309  26.980   9.137
 1939POPC   GL227590  14.623  27.141   9.158
 1939POPC   C1A27591  14.515  26.741   8.847
 1939POPC   D2A27592  14.422  26.494   8.474
 1939POPC   C3A27593  14.547  26.614   8.079
 1939POPC   C4A27594  14.646  26.540   7.666
 1939POPC   C1B27595  14.765  27.259   8.742
 1939POPC   C2B27596  14.609  27.316   8.339
 1939POPC   C3B27597  14.804  27.080   8.012
 1939POPC   C4B27598  14.756  27.034   7.597
 1940POPC   NC327599   1.341  39.560   9.256
 1940POPC   PO427600   0.729  39.416   9.442
 1940POPC   GL127601   1.022  39.207   9.073
 1940POPC   GL227602   1.175  39.440   8.798
 1940POPC   C1A27603   1.278  38.917   8.774
 1940POPC   D2A27604   1.411  39.029   8.329
 1940POPC   C3A27605   1.287  38.899   7.901
 1940POPC   C4A27606   0.858  38.933   7.716
 1940POPC   C1B27607   1.622  39.310   8.727
 1940POPC   C2B27608   1.807  39.325   8.361
 1940POPC   C3B27609   1.527  39.460   8.052
 1940POPC   C4B27610   1.245  39.532   7.699
 1941POPC   NC327611  41.599  41.726   9.508
 1941POPC   PO427612  41.695  41.038   9.463
 1941POPC   GL127613  41.747  41.353   9.195
 1941POPC   GL227614  41.380  41.411   9.161
 1941POPC   C1A27615  41.804  41.573   8.829
 1941POPC   D2A27616  41.916  41.438   8.421
 1941POPC   C3A27617  41.803  41.595   8.034
 1941POPC   C4A27618  41.642  41.528   7.615
 1941POPC   C1B27619  41.306  41.701   8.822
 1941POPC   C2B27620  41.441  41.676   8.414
 1941POPC   C3B27621  41.269  41.598   8.041
 1941POPC   C4B27622  41.145  41.642   7.665
 1942POPC   NC327623  14.037  19.166   9.527
 1942POPC   PO427624  13.454  18.902   9.479
 1942POPC   GL127625  13.643  18.896   9.099
 1942POPC   GL227626  13.685  19.235   9.145
 1942POPC   C1A27627  13.648  18.914   8.665
 1942POPC   D2A27628  13.442  18.985   8.266
 1942POPC   C3A27629  13.556  18.667   8.014
 1942POPC   C4A27630  13.740  18.803   7.633
 1942POPC   C1B27631  13.489  19.387   8.787
 1942POPC   C2B27632  13.299  19.473   8.434
 1942POPC   C3B27633  13.443  19.467   8.043
 1942POPC   C4B27634  13.636  19.325   7.684
 1943POPC   NC327635   6.904  39.440   9.492
 1943POPC   PO427636   6.382  39.027   9.478
 1943POPC   GL127637   6.554  39.270   9.134
 1943POPC   GL227638   6.863  39.075   9.107
 1943POPC   C1A27639   6.837  39.476   8.804
 1943POPC   D2A27640   7.035  39.261   8.467
 1943POPC   C3A27641   6.775  39.369   8.132
 1943POPC   C4A27642   6.822  39.554   7.724
 1943POPC   C1B27643   6.673  38.977   8.697
 1943POPC   C2B27644   6.760  38.853   8.269
 1943POPC   C3B27645   6.547  38.977   7.890
 1943POPC   C4B27646   6.590  39.117   7.467
 1944POPC   NC327647   4.851  36.171   9.342
 1944POPC   PO427648   5.536  36.107   9.268
 1944POPC   GL127649   5.255  36.072   8.941
 1944POPC   GL227650   5.027  35.829   9.030
 1944POPC   C1A27651   5.027  36.270   8.589
 1944POPC   D2A27652   4.814  36.366   8.194
 1944POPC   C3A27653   5.064  36.202   7.867
 1944POPC   C4A27654   5.268  35.932   7.568
 1944POPC   C1B27655   4.807  35.809   8.677
 1944POPC   C2B27656   4.914  35.805   8.247
 1944POPC   C3B27657   4.658  35.919   7.917
 1944POPC   C4B27658   4.696  35.957   7.457
 1945POPC   NC327659  11.196   3.770   9.860
 1945POPC   PO427660  11.559   4.208   9.463
 1945POPC   GL127661  11.396   4.319   9.106
 1945POPC   GL227662  11.110   4.475   9.159
 1945POPC   C1A27663  11.527   4.301   8.719
 1945POPC   D2A27664  11.386   4.179   8.386
 1945POPC   C3A27665  11.524   4.386   8.063
 1945POPC   C4A27666  11.441   4.256   7.682
 1945POPC   C1B27667  11.019   4.256   8.777
 1945POPC   C2B27668  10.863   4.183   8.421
 1945POPC   C3B27669  11.027   4.218   8.038
 1945POPC   C4B27670  10.917   4.280   7.673
 1946POPC   NC327671  12.848   9.077   9.518
 1946POPC   PO427672  12.581   8.482   9.487
 1946POPC   GL127673  12.715   8.799   9.111
 1946POPC   GL227674  12.679   9.193   9.066
 1946POPC   C1A27675  12.838   8.962   8.661
 1946POPC   D2A27676  12.701   9.126   8.238
 1946POPC   C3A27677  12.981   8.970   7.907
 1946POPC   C4A27678  13.132   9.003   7.453
 1946POPC   C1B27679  12.564   9.406   8.679
 1946POPC   C2B27680  12.296   9.421   8.336
 1946POPC   C3B27681  12.431   9.474   7.915
 1946POPC   C4B27682  12.670   9.250   7.638
 1947POPC   NC327683  18.211   3.011   9.787
 1947POPC   PO427684  18.419   3.548   9.428
 1947POPC   GL127685  18.555   3.510   9.036
 1947POPC   GL227686  18.611   3.188   8.911
 1947POPC   C1A27687  18.302   3.543   8.658
 1947POPC   D2A27688  18.036   3.389   8.341
 1947POPC   C3A27689  18.101   3.564   7.999
 1947POPC   C4A27690  18.033   3.405   7.620
 1947POPC   C1B27691  18.803   3.503   8.591
 1947POPC   C2B27692  18.649   3.579   8.161
 1947POPC   C3B27693  18.526   3.578   7.732
 1947POPC   C4B27694  18.498   3.297   7.396
 1948POPC   NC327695  40.326  33.780   9.387
 1948POPC   PO427696  40.984  33.606   9.476
 1948POPC   GL127697  40.895  33.814   9.099
 1948POPC   GL227698  40.789  34.150   9.150
 1948POPC   C1A27699  40.865  33.655   8.678
 1948POPC   D2A27700  41.016  33.414   8.343
 1948POPC   C3A27701  40.852  33.537   7.914
 1948POPC   C4A27702  40.488  33.765   7.807
 1948POPC   C1B27703  40.922  34.167   8.682
 1948POPC   C2B27704  40.899  33.956   8.229
 1948POPC   C3B27705  41.028  33.987   7.768
 1948POPC   C4B27706  40.974  34.230   7.351
 1949POPC   NC327707  13.305  22.759   9.500
 1949POPC   PO427708  13.761  23.264   9.529
 1949POPC   GL127709  13.833  23.064   9.167
 1949POPC   GL227710  13.521  23.085   9.115
 1949POPC   C1A27711  13.857  22.818   8.809
 1949POPC   D2A27712  13.788  23.091   8.421
 1949POPC   C3A27713  13.822  22.882   8.044
 1949POPC   C4A27714  13.997  22.675   7.687
 1949POPC   C1B27715  13.392  22.942   8.697
 1949POPC   C2B27716  13.497  22.622   8.438
 1949POPC   C3B27717  13.317  22.659   8.045
 1949POPC   C4B27718  13.496  22.734   7.672
 1950POPC   NC327719  31.800  34.621   9.518
 1950POPC   PO427720  32.460  34.425   9.595
 1950POPC   GL127721  32.384  34.700   9.249
 1950POPC   GL227722  32.660  34.940   9.233
 1950POPC   C1A27723  32.134  34.623   8.878
 1950POPC   D2A27724  32.157  34.344   8.537
 1950POPC   C3A27725  31.982  34.421   8.154
 1950POPC   C4A27726  32.141  34.471   7.753
 1950POPC   C1B27727  32.562  34.957   8.790
 1950POPC   C2B27728  32.694  35.076   8.351
 1950POPC   C3B27729  32.531  34.951   7.922
 1950POPC   C4B27730  32.230  34.941   7.537
 1951POPC   NC327731  12.165  18.820   9.290
 1951POPC   PO427732  12.021  19.416   9.570
 1951POPC   GL127733  11.929  19.320   9.126
 1951POPC   GL227734  12.281  19.243   9.012
 1951POPC   C1A27735  11.951  19.381   8.637
 1951POPC   D2A27736  11.866  19.075   8.293
 1951POPC   C3A27737  11.898  19.100   7.862
 1951POPC   C4A27738  11.620  18.890   7.528
 1951POPC   C1B27739  12.138  18.896   8.675
 1951POPC   C2B27740  12.236  18.733   8.257
 1951POPC   C3B27741  12.225  18.707   7.815
 1951POPC   C4B27742  12.414  18.573   7.415
 1952POPC   NC327743  14.964  20.174   9.440
 1952POPC   PO427744  15.579  20.021   9.686
 1952POPC   GL127745  15.470  20.016   9.220
 1952POPC   GL227746  15.162  19.828   9.111
 1952POPC   C1A27747  15.455  20.131   8.767
 1952POPC   D2A27748  15.271  19.871   8.438
 1952POPC   C3A27749  15.056  20.047   8.100
 1952POPC   C4A27750  15.176  20.200   7.718
 1952POPC   C1B27751  14.851  19.851   8.747
 1952POPC   C2B27752  14.777  19.652   8.337
 1952POPC   C3B27753  14.866  19.592   7.876
 1952POPC   C4B27754  14.735  19.461   7.450
 1953POPC   NC327755  42.913   9.486   9.526
 1953POPC   PO427756  42.566  10.007   9.282
 1953POPC   GL127757  42.982   9.909   9.142
 1953POPC   GL227758  43.175   9.580   9.119
 1953POPC   C1A27759  43.180   9.935   8.763
 1953POPC   D2A27760  43.062   9.763   8.399
 1953POPC   C3A27761  43.056  10.065   8.111
 1953POPC   C4A27762  42.834   9.830   7.849
 1953POPC   C1B27763  43.302   9.433   8.729
 1953POPC   C2B27764  43.542   9.617   8.368
 1953POPC   C3B27765  43.359   9.677   7.954
 1953POPC   C4B27766  43.092   9.373   7.695
 1954POPC   NC327767   0.369   5.645   9.882
 1954POPC   PO427768   0.503   5.029   9.615
 1954POPC   GL127769   0.437   5.061   9.173
 1954POPC   GL227770   0.107   5.020   9.178
 1954POPC   C1A27771   0.335   5.315   8.782
 1954POPC   D2A27772   0.135   5.233   8.395
 1954POPC   C3A27773   0.420   5.216   8.048
 1954POPC   C4A27774   0.357   5.413   7.707
 1954POPC   C1B27775   0.151   4.853   8.780
 1954POPC   C2B27776   0.198   4.734   8.385
 1954POPC   C3B27777   0.190   4.775   7.995
 1954POPC   C4B27778   0.540   4.679   7.787
 1955POPC   NC327779   6.502  18.856   9.262
 1955POPC   PO427780   6.571  19.302   9.757
 1955POPC   GL127781   6.793  19.265   9.232
 1955POPC   GL227782   6.949  18.953   9.038
 1955POPC   C1A27783   6.664  19.241   8.749
 1955POPC   D2A27784   6.711  18.951   8.431
 1955POPC   C3A27785   6.514  19.089   8.075
 1955POPC   C4A27786   6.749  19.258   7.727
 1955POPC   C1B27787   7.183  18.874   8.680
 1955POPC   C2B27788   7.135  18.676   8.286
 1955POPC   C3B27789   6.856  18.756   7.941
 1955POPC   C4B27790   6.900  18.774   7.476
 1956POPC   NC327791  39.796   7.107   9.503
 1956POPC   PO427792  39.732   7.828   9.487
 1956POPC   GL127793  39.942   7.652   9.118
 1956POPC   GL227794  40.136   7.322   9.142
 1956POPC   C1A27795  40.008   7.560   8.700
 1956POPC   D2A27796  40.300   7.430   8.440
 1956POPC   C3A27797  40.232   7.634   8.079
 1956POPC   C4A27798  39.923   7.735   7.750
 1956POPC   C1B27799  40.144   7.044   8.764
 1956POPC   C2B27800  39.895   7.102   8.402
 1956POPC   C3B27801  39.863   7.269   8.003
 1956POPC   C4B27802  40.170   7.292   7.699
 1957POPC   NC327803  23.842  40.392   9.612
 1957POPC   PO427804  23.567  39.816   9.522
 1957POPC   GL127805  23.745  40.003   9.155
 1957POPC   GL227806  23.971  40.246   9.015
 1957POPC   C1A27807  23.852  39.818   8.756
 1957POPC   D2A27808  23.655  39.718   8.388
 1957POPC   C3A27809  23.785  39.797   7.942
 1957POPC   C4A27810  23.685  40.098   7.671
 1957POPC   C1B27811  24.021  40.288   8.593
 1957POPC   C2B27812  24.085  40.061   8.250
 1957POPC   C3B27813  24.157  40.225   7.817
 1957POPC   C4B27814  24.081  40.225   7.331
 1958POPC   NC327815  31.690  15.054   9.542
 1958POPC   PO427816  31.745  15.717   9.642
 1958POPC   GL127817  31.695  15.523   9.214
 1958POPC   GL227818  31.417  15.267   9.176
 1958POPC   C1A27819  31.724  15.376   8.774
 1958POPC   D2A27820  31.841  15.439   8.336
 1958POPC   C3A27821  31.616  15.230   8.012
 1958POPC   C4A27822  31.590  15.281   7.576
 1958POPC   C1B27823  31.461  14.951   8.841
 1958POPC   C2B27824  31.393  15.124   8.460
 1958POPC   C3B27825  31.163  15.011   8.108
 1958POPC   C4B27826  31.303  14.877   7.715
 1959POPC   NC327827  31.617  17.720   9.665
 1959POPC   PO427828  31.217  17.266   9.536
 1959POPC   GL127829  31.433  17.510   9.231
 1959POPC   GL227830  31.286  17.790   9.123
 1959POPC   C1A27831  31.522  17.462   8.794
 1959POPC   D2A27832  31.329  17.295   8.429
 1959POPC   C3A27833  31.581  17.305   8.061
 1959POPC   C4A27834  31.635  17.046   7.725
 1959POPC   C1B27835  31.440  17.967   8.737
 1959POPC   C2B27836  31.600  17.783   8.342
 1959POPC   C3B27837  31.615  17.797   7.900
 1959POPC   C4B27838  31.500  17.539   7.575
 1960POPC   NC327839   2.592  18.653   9.446
 1960POPC   PO427840   3.092  18.256   9.543
 1960POPC   GL127841   2.909  18.402   9.149
 1960POPC   GL227842   2.558  18.258   9.101
 1960POPC   C1A27843   2.757  18.568   8.752
 1960POPC   D2A27844   2.636  18.371   8.386
 1960POPC   C3A27845   2.947  18.251   8.078
 1960POPC   C4A27846   2.841  18.428   7.700
 1960POPC   C1B27847   2.347  18.014   8.725
 1960POPC   C2B27848   2.203  18.116   8.292
 1960POPC   C3B27849   2.402  18.213   7.920
 1960POPC   C4B27850   2.374  18.040   7.522
 1961POPC   NC327851  41.885   5.145   9.237
 1961POPC   PO427852  42.326   4.787   9.535
 1961POPC   GL127853  42.411   5.121   9.232
 1961POPC   GL227854  42.729   5.244   9.254
 1961POPC   C1A27855  42.386   5.292   8.809
 1961POPC   D2A27856  42.141   5.108   8.471
 1961POPC   C3A27857  42.198   5.266   8.058
 1961POPC   C4A27858  42.140   5.026   7.706
 1961POPC   C1B27859  42.823   5.018   8.847
 1961POPC   C2B27860  42.743   4.766   8.441
 1961POPC   C3B27861  42.539   4.812   8.012
 1961POPC   C4B27862  42.617   5.180   7.718
 1962POPC   NC327863  25.346  35.939   9.494
 1962POPC   PO427864  24.982  36.398   9.124
 1962POPC   GL127865  25.199  36.069   8.985
 1962POPC   GL227866  25.065  35.759   9.119
 1962POPC   C1A27867  25.347  36.227   8.603
 1962POPC   D2A27868  25.049  36.308   8.336
 1962POPC   C3A27869  25.311  36.247   7.991
 1962POPC   C4A27870  25.257  36.432   7.597
 1962POPC   C1B27871  25.022  35.586   8.735
 1962POPC   C2B27872  25.140  35.793   8.385
 1962POPC   C3B27873  25.360  35.726   8.012
 1962POPC   C4B27874  25.435  35.908   7.627
 1963POPC   NC327875  29.461  25.457   9.235
 1963POPC   PO427876  30.127  25.239   9.513
 1963POPC   GL127877  29.923  25.257   9.156
 1963POPC   GL227878  29.978  25.566   9.020
 1963POPC   C1A27879  29.900  25.138   8.719
 1963POPC   D2A27880  29.818  25.037   8.299
 1963POPC   C3A27881  30.183  25.105   8.081
 1963POPC   C4A27882  30.211  25.076   7.667
 1963POPC   C1B27883  29.729  25.613   8.648
 1963POPC   C2B27884  29.944  25.555   8.274
 1963POPC   C3B27885  29.830  25.424   7.872
 1963POPC   C4B27886  29.453  25.489   7.682
 1964POPC   NC327887  42.725  18.442   9.446
 1964POPC   PO427888  42.182  18.043   9.547
 1964POPC   GL127889  42.332  18.216   9.145
 1964POPC   GL227890  42.160  18.526   9.113
 1964POPC   C1A27891  42.586  18.330   8.747
 1964POPC   D2A27892  42.576  18.634   8.387
 1964POPC   C3A27893  42.568  18.566   7.941
 1964POPC   C4A27894  42.729  18.227   7.710
 1964POPC   C1B27895  42.082  18.345   8.676
 1964POPC   C2B27896  42.228  18.266   8.243
 1964POPC   C3B27897  42.200  18.245   7.795
 1964POPC   C4B27898  42.376  18.009   7.419
 1965POPC   NC327899  21.010  10.082   9.521
 1965POPC   PO427900  20.683   9.536   9.399
 1965POPC   GL127901  20.425   9.706   9.052
 1965POPC   GL227902  20.281  10.057   9.107
 1965POPC   C1A27903  20.449   9.559   8.633
 1965POPC   D2A27904  20.683   9.323   8.313
 1965POPC   C3A27905  20.687   9.576   7.983
 1965POPC   C4A27906  21.012   9.861   7.867
 1965POPC   C1B27907  20.552  10.074   8.699
 1965POPC   C2B27908  20.687  10.045   8.237
 1965POPC   C3B27909  20.512  10.021   7.796
 1965POPC   C4B27910  20.419  10.050   7.332
 1966POPC   NC327911  29.957  36.410   9.394
 1966POPC   PO427912  30.114  37.098   9.452
 1966POPC   GL127913  29.830  36.923   9.151
 1966POPC   GL227914  29.841  36.611   8.953
 1966POPC   C1A27915  29.656  37.046   8.772
 1966POPC   D2A27916  29.599  36.847   8.392
 1966POPC   C3A27917  29.928  37.013   8.164
 1966POPC   C4A27918  30.136  37.097   7.789
 1966POPC   C1B27919  30.118  36.802   8.661
 1966POPC   C2B27920  30.314  36.671   8.273
 1966POPC   C3B27921  30.071  36.602   7.886
 1966POPC   C4B27922  30.020  36.633   7.433
 1967POPC   NC327923   8.950  30.090   9.498
 1967POPC   PO427924   8.519  29.687   9.491
 1967POPC   GL127925   8.821  29.748   9.126
 1967POPC   GL227926   9.189  29.777   9.172
 1967POPC   C1A27927   8.823  30.028   8.738
 1967POPC   D2A27928   8.805  30.294   8.344
 1967POPC   C3A27929   8.682  30.037   7.990
 1967POPC   C4A27930   8.884  29.670   7.861
 1967POPC   C1B27931   9.332  29.910   8.789
 1967POPC   C2B27932   9.177  29.897   8.368
 1967POPC   C3B27933   9.211  30.063   7.975
 1967POPC   C4B27934   9.288  29.895   7.604
 1968POPC   NC327935  38.665   7.726   9.369
 1968POPC   PO427936  38.234   7.318   9.517
 1968POPC   GL127937  38.452   7.296   9.129
 1968POPC   GL227938  38.275   7.597   9.032
 1968POPC   C1A27939  38.681   7.421   8.746
 1968POPC   D2A27940  38.659   7.695   8.420
 1968POPC   C3A27941  38.536   7.390   8.124
 1968POPC   C4A27942  38.510   7.510   7.730
 1968POPC   C1B27943  38.183   7.514   8.588
 1968POPC   C2B27944  38.175   7.730   8.178
 1968POPC   C3B27945  38.046   7.746   7.750
 1968POPC   C4B27946  38.175   7.521   7.349
 1969POPC   NC327947  31.637  11.718   9.452
 1969POPC   PO427948  31.297  12.300   9.591
 1969POPC   GL127949  31.429  12.288   9.138
 1969POPC   GL227950  31.648  12.006   9.028
 1969POPC   C1A27951  31.324  12.224   8.682
 1969POPC   D2A27952  31.058  12.372   8.306
 1969POPC   C3A27953  31.320  12.259   7.995
 1969POPC   C4A27954  31.724  12.250   7.824
 1969POPC   C1B27955  31.701  11.836   8.601
 1969POPC   C2B27956  31.735  11.868   8.166
 1969POPC   C3B27957  31.485  11.778   7.845
 1969POPC   C4B27958  31.357  11.613   7.451
 1970POPC   NC327959  20.423  23.415   9.842
 1970POPC   PO427960  20.949  23.748   9.487
 1970POPC   GL127961  20.702  23.867   9.099
 1970POPC   GL227962  20.325  23.761   9.143
 1970POPC   C1A27963  20.629  23.556   8.725
 1970POPC   D2A27964  20.661  23.309   8.352
 1970POPC   C3A27965  20.685  23.596   8.002
 1970POPC   C4A27966  20.388  23.856   7.795
 1970POPC   C1B27967  20.357  23.968   8.748
 1970POPC   C2B27968  20.667  23.961   8.419
 1970POPC   C3B27969  20.703  24.163   8.075
 1970POPC   C4B27970  20.904  24.038   7.757
 1971POPC   NC327971  34.033  11.741   9.510
 1971POPC   PO427972  33.692  12.343   9.477
 1971POPC   GL127973  33.679  12.162   9.105
 1971POPC   GL227974  33.773  11.812   9.075
 1971POPC   C1A27975  33.803  12.367   8.741
 1971POPC   D2A27976  33.595  12.333   8.361
 1971POPC   C3A27977  33.724  12.098   8.010
 1971POPC   C4A27978  33.873  12.163   7.606
 1971POPC   C1B27979  33.590  11.898   8.676
 1971POPC   C2B27980  33.344  11.869   8.324
 1971POPC   C3B27981  33.385  11.715   7.932
 1971POPC   C4B27982  33.679  11.708   7.645
 1972POPC   NC327983  28.931   9.655   9.468
 1972POPC   PO427984  29.604   9.445   9.498
 1972POPC   GL127985  29.263   9.492   9.138
 1972POPC   GL227986  28.976   9.786   8.994
 1972POPC   C1A27987  29.138   9.383   8.737
 1972POPC   D2A27988  29.334   9.340   8.353
 1972POPC   C3A27989  29.160   9.493   7.979
 1972POPC   C4A27990  29.095   9.722   7.595
 1972POPC   C1B27991  28.708   9.995   8.709
 1972POPC   C2B27992  28.995   9.774   8.418
 1972POPC   C3B27993  28.987   9.966   8.048
 1972POPC   C4B27994  28.569  10.112   7.922
 1973POPC   NC327995  40.577  24.661   9.477
 1973POPC   PO427996  41.214  24.453   9.641
 1973POPC   GL127997  40.937  24.500   9.152
 1973POPC   GL227998  40.662  24.755   9.003
 1973POPC   C1A27999  40.813  24.355   8.707
 1973POPC   D2A28000  40.473  24.280   8.402
 1973POPC   C3A28001  40.657  24.340   8.006
 1973POPC   C4A28002  40.973  24.140   7.811
 1973POPC   C1B28003  40.976  24.870   8.749
 1973POPC   C2B28004  41.045  24.836   8.341
 1973POPC   C3B28005  40.780  24.828   7.992
 1973POPC   C4B28006  40.495  24.907   7.625
 1974POPC   NC328007  43.628  20.003   9.464
 1974POPC   PO428008  44.080  19.589   9.289
 1974POPC   GL128009  43.888  19.922   9.041
 1974POPC   GL228010  43.588  19.765   9.011
 1974POPC   C1A28011  43.870  19.911   8.621
 1974POPC   D2A28012  44.212  19.786   8.426
 1974POPC   C3A28013  44.038  19.592   8.101
 1974POPC   C4A28014  44.028  19.944   7.851
 1974POPC   C1B28015  43.462  19.512   8.673
 1974POPC   C2B28016  43.583  19.605   8.323
 1974POPC   C3B28017  43.569  19.923   8.057
 1974POPC   C4B28018  43.639  19.621   7.734
 1975POPC   NC328019  36.346   7.670   9.478
 1975POPC   PO428020  36.078   7.088   9.388
 1975POPC   GL128021  36.145   7.410   9.093
 1975POPC   GL228022  35.901   7.665   9.169
 1975POPC   C1A28023  36.447   7.630   8.835
 1975POPC   D2A28024  36.297   7.469   8.467
 1975POPC   C3A28025  36.406   7.572   8.077
 1975POPC   C4A28026  36.291   7.473   7.676
 1975POPC   C1B28027  35.976   7.785   8.738
 1975POPC   C2B28028  36.053   7.894   8.267
 1975POPC   C3B28029  35.965   7.875   7.799
 1975POPC   C4B28030  35.862   7.677   7.392
 1976POPC   NC328031  33.340  14.979   9.350
 1976POPC   PO428032  33.522  15.583   9.758
 1976POPC   GL128033  33.786  15.345   9.345
 1976POPC   GL228034  33.791  15.063   9.147
 1976POPC   C1A28035  33.798  15.480   8.845
 1976POPC   D2A28036  33.791  15.341   8.401
 1976POPC   C3A28037  33.775  15.575   8.013
 1976POPC   C4A28038  33.823  15.393   7.587
 1976POPC   C1B28039  33.557  15.037   8.741
 1976POPC   C2B28040  33.621  14.815   8.344
 1976POPC   C3B28041  33.579  14.945   7.913
 1976POPC   C4B28042  33.352  15.202   7.631
 1977POPC   NC328043   9.303  35.833   9.270
 1977POPC   PO428044   8.794  36.190   9.591
 1977POPC   GL128045   8.879  36.140   9.117
 1977POPC   GL228046   9.226  36.156   8.927
 1977POPC   C1A28047   8.839  36.364   8.726
 1977POPC   D2A28048   8.690  36.224   8.364
 1977POPC   C3A28049   8.873  36.367   8.046
 1977POPC   C4A28050   8.875  36.122   7.713
 1977POPC   C1B28051   9.170  35.869   8.614
 1977POPC   C2B28052   9.069  35.916   8.198
 1977POPC   C3B28053   9.330  36.005   7.886
 1977POPC   C4B28054   9.326  35.928   7.469
 1978POPC   NC328055   6.952  42.207   9.294
 1978POPC   PO428056   6.365  42.190   9.440
 1978POPC   GL128057   6.501  42.319   9.026
 1978POPC   GL228058   6.720  42.589   9.052
 1978POPC   C1A28059   6.471  42.589   8.614
 1978POPC   D2A28060   6.490  42.584   8.140
 1978POPC   C3A28061   6.444  42.267   7.807
 1978POPC   C4A28062   6.296  42.184   7.374
 1978POPC   C1B28063   6.946  42.460   8.704
 1978POPC   C2B28064   7.213  42.502   8.434
 1978POPC   C3B28065   7.188  42.552   8.030
 1978POPC   C4B28066   6.877  42.545   7.765
 1979POPC   NC328067  43.838  31.100   9.327
 1979POPC   PO428068  43.841  30.431   9.472
 1979POPC   GL128069  43.826  30.624   9.118
 1979POPC   GL228070  44.146  30.771   9.091
 1979POPC   C1A28071  43.752  30.831   8.731
 1979POPC   D2A28072  43.469  30.764   8.416
 1979POPC   C3A28073  43.661  30.591   8.085
 1979POPC   C4A28074  43.554  30.658   7.679
 1979POPC   C1B28075  44.174  30.442   8.802
 1979POPC   C2B28076  44.168  30.670   8.431
 1979POPC   C3B28077  44.280  30.808   8.036
 1979POPC   C4B28078  44.062  30.615   7.698
 1980POPC   NC328079  31.324   3.125   9.483
 1980POPC   PO428080  31.181   2.425   9.581
 1980POPC   GL128081  31.470   2.532   9.216
 1980POPC   GL228082  31.684   2.871   9.214
 1980POPC   C1A28083  31.498   2.684   8.793
 1980POPC   D2A28084  31.427   2.892   8.442
 1980POPC   C3A28085  31.370   2.620   8.154
 1980POPC   C4A28086  31.378   2.605   7.744
 1980POPC   C1B28087  31.703   3.151   8.857
 1980POPC   C2B28088  31.839   3.181   8.393
 1980POPC   C3B28089  31.684   2.986   7.980
 1980POPC   C4B28090  31.938   3.094   7.611
 1981POPC   NC328091   1.484  15.809   9.841
 1981POPC   PO428092   0.925  16.092   9.641
 1981POPC   GL128093   1.174  16.058   9.298
 1981POPC   GL228094   0.986  15.777   9.157
 1981POPC   C1A28095   1.282  16.102   8.864
 1981POPC   D2A28096   1.112  16.063   8.446
 1981POPC   C3A28097   1.288  16.129   8.034
 1981POPC   C4A28098   1.269  15.855   7.654
 1981POPC   C1B28099   1.093  15.628   8.713
 1981POPC   C2B28100   1.192  15.594   8.213
 1981POPC   C3B28101   1.002  15.441   7.800
 1981POPC   C4B28102   0.867  15.606   7.374
 1982POPC   NC328103  25.426  16.571   9.450
 1982POPC   PO428104  24.774  16.901   9.436
 1982POPC   GL128105  24.943  17.031   9.075
 1982POPC   GL228106  25.256  16.854   9.058
 1982POPC   C1A28107  24.861  16.979   8.651
 1982POPC   D2A28108  25.177  16.846   8.373
 1982POPC   C3A28109  25.132  16.871   7.922
 1982POPC   C4A28110  25.321  16.783   7.519
 1982POPC   C1B28111  25.270  16.478   8.790
 1982POPC   C2B28112  25.299  16.342   8.347
 1982POPC   C3B28113  25.313  16.400   7.887
 1982POPC   C4B28114  25.616  16.258   7.571
 1983POPC   NC328115  39.951  30.994   9.531
 1983POPC   PO428116  39.586  30.479   9.237
 1983POPC   GL128117  39.940  30.752   9.037
 1983POPC   GL228118  40.234  31.013   9.109
 1983POPC   C1A28119  40.227  30.733   8.665
 1983POPC   D2A28120  40.249  30.722   8.186
 1983POPC   C3A28121  39.829  30.661   8.090
 1983POPC   C4A28122  39.598  30.814   7.741
 1983POPC   C1B28123  40.039  31.213   8.808
 1983POPC   C2B28124  40.021  31.125   8.393
 1983POPC   C3B28125  39.971  31.123   7.951
 1983POPC   C4B28126  39.988  31.202   7.499
 1984POPC   NC328127   0.181  18.719   9.503
 1984POPC   PO428128   0.618  19.171   9.389
 1984POPC   GL128129   0.521  18.825   9.115
 1984POPC   GL228130   0.229  19.006   9.066
 1984POPC   C1A28131   0.457  18.825   8.641
 1984POPC   D2A28132   0.286  19.081   8.324
 1984POPC   C3A28133   0.238  18.876   7.916
 1984POPC   C4A28134   0.522  18.814   7.564
 1984POPC   C1B28135   0.434  19.322   8.771
 1984POPC   C2B28136   0.512  19.558   8.388
 1984POPC   C3B28137   0.338  19.471   7.979
 1984POPC   C4B28138   0.274  19.269   7.599
 1985POPC   NC328139  10.034  29.014   9.439
 1985POPC   PO428140   9.412  29.428   9.464
 1985POPC   GL128141   9.712  29.292   9.118
 1985POPC   GL228142   9.771  28.943   9.022
 1985POPC   C1A28143   9.910  29.279   8.682
 1985POPC   D2A28144  10.072  28.922   8.440
 1985POPC   C3A28145   9.987  29.012   8.008
 1985POPC   C4A28146   9.926  29.370   7.739
 1985POPC   C1B28147   9.406  28.833   8.820
 1985POPC   C2B28148   9.252  28.652   8.433
 1985POPC   C3B28149   9.288  28.847   8.026
 1985POPC   C4B28150   9.569  29.017   7.697
 1986POPC   NC328151  38.377  34.845   9.431
 1986POPC   PO428152  38.606  34.201   9.525
 1986POPC   GL128153  38.305  34.326   9.165
 1986POPC   GL228154  38.333  34.613   8.983
 1986POPC   C1A28155  38.137  34.221   8.718
 1986POPC   D2A28156  38.367  34.459   8.411
 1986POPC   C3A28157  38.416  34.533   7.965
 1986POPC   C4A28158  38.614  34.768   7.645
 1986POPC   C1B28159  38.067  34.764   8.668
 1986POPC   C2B28160  38.036  34.810   8.224
 1986POPC   C3B28161  38.185  34.955   7.839
 1986POPC   C4B28162  37.983  34.607   7.643
 1987POPC   NC328163  34.867  15.167   9.566
 1987POPC   PO428164  35.575  15.011   9.486
 1987POPC   GL128165  35.455  15.159   9.122
 1987POPC   GL228166  35.123  15.214   9.126
 1987POPC   C1A28167  35.519  14.941   8.748
 1987POPC   D2A28168  35.608  15.121   8.363
 1987POPC   C3A28169  35.440  14.938   7.983
 1987POPC   C4A28170  35.541  15.193   7.652
 1987POPC   C1B28171  35.195  15.337   8.722
 1987POPC   C2B28172  35.094  15.130   8.360
 1987POPC   C3B28173  35.155  15.364   7.996
 1987POPC   C4B28174  35.012  15.114   7.680
 1988POPC   NC328175  41.836   7.783   9.219
 1988POPC   PO428176  42.382   8.103   9.526
 1988POPC   GL128177  42.373   8.177   9.121
 1988POPC   GL228178  42.056   8.243   9.111
 1988POPC   C1A28179  42.409   8.271   8.683
 1988POPC   D2A28180  42.670   8.361   8.349
 1988POPC   C3A28181  42.546   8.400   7.943
 1988POPC   C4A28182  42.368   8.175   7.627
 1988POPC   C1B28183  41.874   8.240   8.742
 1988POPC   C2B28184  41.965   8.381   8.365
 1988POPC   C3B28185  41.961   8.195   7.989
 1988POPC   C4B28186  41.883   8.357   7.608
 1989POPC   NC328187  28.587  43.767   9.811
 1989POPC   PO428188  28.972  44.156   9.701
 1989POPC   GL128189  28.723  43.969   9.328
 1989POPC   GL228190  28.363  43.969   9.317
 1989POPC   C1A28191  28.690  43.973   8.858
 1989POPC   D2A28192  28.534  44.067   8.418
 1989POPC   C3A28193  28.714  43.806   8.091
 1989POPC   C4A28194  28.823  43.834   7.642
 1989POPC   C1B28195  28.223  44.213   8.928
 1989POPC   C2B28196  28.040  44.196   8.507
 1989POPC   C3B28197  28.105  43.929   8.138
 1989POPC   C4B28198  28.324  43.843   7.761
 1990POPC   NC328199  36.621  10.849   9.469
 1990POPC   PO428200  36.899  10.288   9.462
 1990POPC   GL128201  37.235  10.386   9.133
 1990POPC   GL228202  37.396  10.077   8.974
 1990POPC   C1A28203  37.138  10.619   8.717
 1990POPC   D2A28204  36.851  10.838   8.390
 1990POPC   C3A28205  36.970  10.733   7.951
 1990POPC   C4A28206  37.087  10.641   7.503
 1990POPC   C1B28207  36.953  10.085   8.820
 1990POPC   C2B28208  36.670  10.325   8.541
 1990POPC   C3B28209  36.701  10.293   8.095
 1990POPC   C4B28210  37.039  10.217   7.769
 1991POPC   NC328211  40.321  23.933   9.322
 1991POPC   PO428212  39.823  23.453   9.452
 1991POPC   GL128213  39.656  23.523   9.044
 1991POPC   GL228214  39.950  23.711   9.018
 1991POPC   C1A28215  39.754  23.445   8.603
 1991POPC   D2A28216  39.916  23.700   8.254
 1991POPC   C3A28217  39.652  23.899   7.997
 1991POPC   C4A28218  39.442  23.644   7.707
 1991POPC   C1B28219  40.212  23.718   8.678
 1991POPC   C2B28220  40.411  23.758   8.303
 1991POPC   C3B28221  40.290  23.996   7.981
 1991POPC   C4B28222  40.061  23.807   7.720
 1992POPC   NC328223  39.941  44.543   9.519
 1992POPC   PO428224  39.646   0.102   9.479
 1992POPC   GL128225  39.779   0.082   9.068
 1992POPC   GL228226  40.037  44.845   9.105
 1992POPC   C1A28227  39.691  44.755   8.750
 1992POPC   D2A28228  39.810  44.561   8.366
 1992POPC   C3A28229  39.885  44.880   8.036
 1992POPC   C4A28230  39.781  44.650   7.666
 1992POPC   C1B28231  40.210  44.614   8.771
 1992POPC   C2B28232  40.284  44.735   8.368
 1992POPC   C3B28233  40.241  44.516   8.012
 1992POPC   C4B28234  40.298  44.646   7.616
 1993POPC   NC328235  37.379  43.394   9.695
 1993POPC   PO428236  36.806  43.006   9.638
 1993POPC   GL128237  36.658  43.117   9.209
 1993POPC   GL228238  36.776  42.821   9.051
 1993POPC   C1A28239  36.803  43.226   8.763
 1993POPC   D2A28240  36.958  43.083   8.328
 1993POPC   C3A28241  36.799  43.270   7.937
 1993POPC   C4A28242  36.549  43.172   7.571
 1993POPC   C1B28243  37.011  42.678   8.691
 1993POPC   C2B28244  37.314  42.696   8.381
 1993POPC   C3B28245  37.327  42.725   7.953
 1993POPC   C4B28246  37.224  43.078   7.774
 1994POPC   NC328247  40.455  13.063   9.601
 1994POPC   PO428248  41.193  13.065   9.474
 1994POPC   GL128249  40.915  12.791   9.265
 1994POPC   GL228250  41.180  12.560   9.190
 1994POPC   C1A28251  40.799  12.747   8.819
 1994POPC   D2A28252  40.734  13.013   8.447
 1994POPC   C3A28253  40.593  12.866   8.051
 1994POPC   C4A28254  40.764  13.032   7.655
 1994POPC   C1B28255  41.229  12.453   8.761
 1994POPC   C2B28256  40.992  12.554   8.369
 1994POPC   C3B28257  41.082  12.764   7.991
 1994POPC   C4B28258  41.085  12.619   7.600
 1995POPC   NC328259  35.684  27.623   9.416
 1995POPC   PO428260  36.296  27.435   9.475
 1995POPC   GL128261  36.068  27.257   9.153
 1995POPC   GL228262  35.825  27.407   8.983
 1995POPC   C1A28263  36.326  27.222   8.795
 1995POPC   D2A28264  36.415  27.467   8.433
 1995POPC   C3A28265  36.129  27.415   8.098
 1995POPC   C4A28266  36.203  27.618   7.724
 1995POPC   C1B28267  35.964  27.748   8.716
 1995POPC   C2B28268  35.806  27.867   8.304
 1995POPC   C3B28269  35.873  28.057   7.911
 1995POPC   C4B28270  35.890  27.931   7.491
 1996POPC   NC328271  39.837   3.819   9.471
 1996POPC   PO428272  39.926   4.410   9.644
 1996POPC   GL128273  39.976   4.251   9.192
 1996POPC   GL228274  39.686   4.087   9.073
 1996POPC   C1A28275  40.155   4.085   8.763
 1996POPC   D2A28276  40.026   4.067   8.317
 1996POPC   C3A28277  40.250   4.251   7.977
 1996POPC   C4A28278  40.233   4.494   7.636
 1996POPC   C1B28279  39.564   4.250   8.691
 1996POPC   C2B28280  39.524   4.123   8.267
 1996POPC   C3B28281  39.716   4.340   7.911
 1996POPC   C4B28282  39.638   4.318   7.457
 1997POPC   NC328283   3.692  40.119   9.528
 1997POPC   PO428284   3.240  39.584   9.427
 1997POPC   GL128285   3.380  39.954   9.152
 1997POPC   GL228286   3.379  40.336   9.176
 1997POPC   C1A28287   3.502  40.084   8.741
 1997POPC   D2A28288   3.514  39.858   8.392
 1997POPC   C3A28289   3.515  40.067   8.049
 1997POPC   C4A28290   3.339  39.966   7.650
 1997POPC   C1B28291   3.127  40.407   8.799
 1997POPC   C2B28292   3.084  40.190   8.404
 1997POPC   C3B28293   3.109  40.377   8.012
 1997POPC   C4B28294   3.171  40.535   7.612
 1998POPC   NC328295  32.883  34.583   9.673
 1998POPC   PO428296  33.497  34.905   9.598
 1998POPC   GL128297  33.185  34.631   9.254
 1998POPC   GL228298  32.848  34.403   9.208
 1998POPC   C1A28299  33.050  34.688   8.810
 1998POPC   D2A28300  33.220  34.835   8.418
 1998POPC   C3A28301  32.997  34.744   8.068
 1998POPC   C4A28302  32.972  34.449   7.804
 1998POPC   C1B28303  32.613  34.424   8.837
 1998POPC   C2B28304  32.609  34.583   8.447
 1998POPC   C3B28305  32.530  34.467   8.068
 1998POPC   C4B28306  32.578  34.148   7.786
 1999POPC   NC328307  14.314   0.275   9.594
 1999POPC   PO428308  14.689   0.753   9.239
 1999POPC   GL128309  14.497   0.378   9.112
 1999POPC   GL228310  14.152   0.376   9.098
 1999POPC   C1A28311  14.410   0.224   8.689
 1999POPC   D2A28312  14.561   0.348   8.280
 1999POPC   C3A28313  14.473   0.142   7.902
 1999POPC   C4A28314  14.653   0.453   7.692
 1999POPC   C1B28315  14.071   0.643   8.742
 1999POPC   C2B28316  14.250   0.738   8.354
 1999POPC   C3B28317  14.192   0.569   7.949
 1999POPC   C4B28318  14.173   0.394   7.531
 2000POPC   NC328319  39.966  11.083   9.452
 2000POPC   PO428320  40.029  11.713   9.418
 2000POPC   GL128321  39.866  11.458   9.105
 2000POPC   GL228322  40.077  11.206   8.980
 2000POPC   C1A28323  39.726  11.431   8.697
 2000POPC   D2A28324  39.938  11.484   8.290
 2000POPC   C3A28325  39.823  11.316   7.900
 2000POPC   C4A28326  39.764  11.502   7.472
 2000POPC   C1B28327  40.220  11.562   8.721
 2000POPC   C2B28328  40.464  11.500   8.335
 2000POPC   C3B28329  40.330  11.154   8.072
 2000POPC   C4B28330  40.202  11.114   7.628
 2001POPC   NC328331  22.567  14.919   9.388
 2001POPC   PO428332  23.031  15.381   9.470
 2001POPC   GL128333  23.018  15.151   9.077
 2001POPC   GL228334  22.679  15.071   8.928
 2001POPC   C1A28335  22.984  15.366   8.667
 2001POPC   D2A28336  22.767  15.506   8.298
 2001POPC   C3A28337  22.880  15.396   7.895
 2001POPC   C4A28338  23.059  15.486   7.547
 2001POPC   C1B28339  22.951  14.838   8.667
 2001POPC   C2B28340  23.000  15.010   8.278
 2001POPC   C3B28341  22.604  15.010   8.022
 2001POPC   C4B28342  22.652  14.985   7.570
 2002POPC   NC328343  29.587   3.871   9.464
 2002POPC   PO428344  29.745   3.258   9.688
 2002POPC   GL128345  29.736   3.392   9.224
 2002POPC   GL228346  29.982   3.160   9.120
 2002POPC   C1A28347  29.672   3.696   8.826
 2002POPC   D2A28348  29.418   3.892   8.465
 2002POPC   C3A28349  29.589   3.897   8.040
 2002POPC   C4A28350  29.680   3.573   7.752
 2002POPC   C1B28351  29.736   3.195   8.718
 2002POPC   C2B28352  29.728   3.497   8.357
 2002POPC   C3B28353  30.057   3.658   8.089
 2002POPC   C4B28354  30.152   3.294   7.856
 2003POPC   NC328355  36.326  14.718   9.563
 2003POPC   PO428356  35.945  14.187   9.408
 2003POPC   GL128357  36.008  14.493   9.072
 2003POPC   GL228358  36.334  14.703   9.071
 2003POPC   C1A28359  35.942  14.352   8.636
 2003POPC   D2A28360  35.892  14.187   8.216
 2003POPC   C3A28361  35.900  14.327   7.768
 2003POPC   C4A28362  36.066  14.214   7.358
 2003POPC   C1B28363  36.422  14.389   8.826
 2003POPC   C2B28364  36.418  14.322   8.426
 2003POPC   C3B28365  36.251  14.541   8.113
 2003POPC   C4B28366  36.374  14.477   7.715
 2004POPC   NC328367  36.549  15.485   9.403
 2004POPC   PO428368  37.211  15.489   9.466
 2004POPC   GL128369  37.072  15.229   9.113
 2004POPC   GL228370  36.782  15.008   9.213
 2004POPC   C1A28371  37.214  15.002   8.738
 2004POPC   D2A28372  37.234  14.956   8.267
 2004POPC   C3A28373  36.932  15.222   8.030
 2004POPC   C4A28374  36.761  15.245   7.632
 2004POPC   C1B28375  36.742  14.809   8.802
 2004POPC   C2B28376  36.547  14.854   8.395
 2004POPC   C3B28377  36.682  14.798   7.965
 2004POPC   C4B28378  37.102  14.816   7.762
 2005POPC   NC328379   6.917  30.375   9.258
 2005POPC   PO428380   6.322  30.767   9.447
 2005POPC   GL128381   6.443  30.883   9.081
 2005POPC   GL228382   6.779  30.830   9.075
 2005POPC   C1A28383   6.496  30.806   8.649
 2005POPC   D2A28384   6.328  31.097   8.407
 2005POPC   C3A28385   6.402  31.161   7.993
 2005POPC   C4A28386   6.315  30.857   7.670
 2005POPC   C1B28387   6.973  30.697   8.724
 2005POPC   C2B28388   6.868  30.582   8.333
 2005POPC   C3B28389   6.688  30.738   8.007
 2005POPC   C4B28390   6.756  30.613   7.597
 2006POPC   NC328391  32.434  11.444   9.521
 2006POPC   PO428392  31.897  11.505   9.145
 2006POPC   GL128393  32.290  11.276   9.049
 2006POPC   GL228394  32.638  11.128   9.170
 2006POPC   C1A28395  32.280  11.050   8.688
 2006POPC   D2A28396  32.087  11.282   8.347
 2006POPC   C3A28397  32.254  11.050   8.035
 2006POPC   C4A28398  32.232  11.207   7.643
 2006POPC   C1B28399  32.731  11.315   8.773
 2006POPC   C2B28400  32.585  11.357   8.376
 2006POPC   C3B28401  32.566  11.458   7.968
 2006POPC   C4B28402  32.848  11.483   7.646
 2007POPC   NC328403   8.763  18.045   9.565
 2007POPC   PO428404   9.138  18.644   9.525
 2007POPC   GL128405   9.050  18.552   9.176
 2007POPC   GL228406   9.150  18.239   9.178
 2007POPC   C1A28407   8.863  18.546   8.775
 2007POPC   D2A28408   8.999  18.350   8.425
 2007POPC   C3A28409   9.022  18.579   8.077
 2007POPC   C4A28410   8.800  18.627   7.678
 2007POPC   C1B28411   9.365  18.468   8.807
 2007POPC   C2B28412   9.517  18.290   8.439
 2007POPC   C3B28413   9.315  18.090   8.103
 2007POPC   C4B28414   9.266  18.302   7.748
 2008POPC   NC328415  20.798  32.384   9.574
 2008POPC   PO428416  20.294  31.864   9.497
 2008POPC   GL128417  20.540  32.109   9.196
 2008POPC   GL228418  20.872  32.069   9.183
 2008POPC   C1A28419  20.655  32.028   8.746
 2008POPC   D2A28420  20.663  32.216   8.353
 2008POPC   C3A28421  20.561  32.030   7.960
 2008POPC   C4A28422  20.690  32.387   7.749
 2008POPC   C1B28423  21.082  32.353   8.910
 2008POPC   C2B28424  21.020  32.585   8.556
 2008POPC   C3B28425  21.070  32.472   8.135
 2008POPC   C4B28426  21.055  32.762   7.826
 2009POPC   NC328427  20.564   5.036   9.629
 2009POPC   PO428428  20.045   5.422   9.581
 2009POPC   GL128429  20.296   5.124   9.219
 2009POPC   GL228430  20.668   5.071   9.094
 2009POPC   C1A28431  20.281   5.044   8.762
 2009POPC   D2A28432  20.514   5.215   8.420
 2009POPC   C3A28433  20.512   5.084   7.976
 2009POPC   C4A28434  20.898   4.908   7.763
 2009POPC   C1B28435  20.919   5.381   8.870
 2009POPC   C2B28436  20.948   5.483   8.447
 2009POPC   C3B28437  21.045   5.311   8.064
 2009POPC   C4B28438  20.842   5.437   7.696
 2010POPC   NC328439  32.506  13.074   9.830
 2010POPC   PO428440  32.108  12.545   9.548
 2010POPC   GL128441  32.208  12.535   9.135
 2010POPC   GL228442  32.553  12.568   9.044
 2010POPC   C1A28443  32.141  12.602   8.706
 2010POPC   D2A28444  32.434  12.569   8.351
 2010POPC   C3A28445  32.321  12.802   7.978
 2010POPC   C4A28446  32.149  13.235   7.908
 2010POPC   C1B28447  32.511  12.939   8.707
 2010POPC   C2B28448  32.466  13.180   8.351
 2010POPC   C3B28449  32.685  13.147   7.978
 2010POPC   C4B28450  32.510  13.121   7.572
 2011POPC   NC328451   4.937  40.966   9.364
 2011POPC   PO428452   5.204  40.619   9.925
 2011POPC   GL128453   5.176  40.517   9.376
 2011POPC   GL228454   5.387  40.741   9.191
 2011POPC   C1A28455   5.075  40.620   8.820
 2011POPC   D2A28456   5.137  40.909   8.422
 2011POPC   C3A28457   5.035  40.768   7.967
 2011POPC   C4A28458   4.965  40.636   7.512
 2011POPC   C1B28459   5.563  40.568   8.738
 2011POPC   C2B28460   5.375  40.471   8.294
 2011POPC   C3B28461   5.252  40.329   7.857
 2011POPC   C4B28462   5.542  40.243   7.506
 2012POPC   NC328463  20.917  30.773   9.620
 2012POPC   PO428464  20.493  30.206   9.672
 2012POPC   GL128465  20.529  30.568   9.291
 2012POPC   GL228466  20.810  30.819   9.150
 2012POPC   C1A28467  20.471  30.755   8.818
 2012POPC   D2A28468  20.558  30.954   8.416
 2012POPC   C3A28469  20.450  30.714   8.048
 2012POPC   C4A28470  20.352  30.534   7.641
 2012POPC   C1B28471  20.933  31.047   8.786
 2012POPC   C2B28472  21.079  30.943   8.369
 2012POPC   C3B28473  20.858  31.094   8.004
 2012POPC   C4B28474  20.597  30.996   7.636
 2013POPC   NC328475  22.813   7.987   9.473
 2013POPC   PO428476  23.096   8.441   9.091
 2013POPC   GL128477  22.758   8.187   9.014
 2013POPC   GL228478  22.514   8.408   9.145
 2013POPC   C1A28479  22.694   7.905   8.676
 2013POPC   D2A28480  22.975   7.763   8.356
 2013POPC   C3A28481  23.012   7.989   7.959
 2013POPC   C4A28482  23.263   8.187   7.611
 2013POPC   C1B28483  22.529   8.448   8.661
 2013POPC   C2B28484  22.739   8.288   8.284
 2013POPC   C3B28485  22.954   8.487   7.913
 2013POPC   C4B28486  22.861   8.510   7.477
 2014POPC   NC328487   5.130  28.550   9.378
 2014POPC   PO428488   5.463  27.928   9.479
 2014POPC   GL128489   5.276  28.162   9.075
 2014POPC   GL228490   5.336  28.584   8.940
 2014POPC   C1A28491   5.113  28.240   8.656
 2014POPC   D2A28492   5.215  28.526   8.320
 2014POPC   C3A28493   5.215  28.260   7.964
 2014POPC   C4A28494   5.046  28.130   7.593
 2014POPC   C1B28495   4.904  28.709   8.755
 2014POPC   C2B28496   4.709  28.711   8.322
 2014POPC   C3B28497   4.844  28.610   7.906
 2014POPC   C4B28498   5.180  28.616   7.604
 2015POPC   NC328499  37.176  34.671   9.481
 2015POPC   PO428500  36.596  34.445   9.610
 2015POPC   GL128501  36.812  34.434   9.226
 2015POPC   GL228502  36.791  34.775   9.122
 2015POPC   C1A28503  36.990  34.376   8.801
 2015POPC   D2A28504  36.851  34.524   8.398
 2015POPC   C3A28505  37.055  34.511   7.991
 2015POPC   C4A28506  36.788  34.532   7.650
 2015POPC   C1B28507  36.900  34.924   8.724
 2015POPC   C2B28508  37.121  34.957   8.324
 2015POPC   C3B28509  36.895  35.001   7.899
 2015POPC   C4B28510  37.027  34.975   7.473
 2016POPC   NC328511  43.660  25.125   9.342
 2016POPC   PO428512  44.229  25.410   9.653
 2016POPC   GL128513  44.008  25.459   9.165
 2016POPC   GL228514  43.930  25.155   8.903
 2016POPC   C1A28515  43.710  25.580   8.786
 2016POPC   D2A28516  43.493  25.271   8.536
 2016POPC   C3A28517  43.716  25.223   8.154
 2016POPC   C4A28518  43.950  25.342   7.780
 2016POPC   C1B28519  43.662  24.803   8.758
 2016POPC   C2B28520  43.588  24.721   8.327
 2016POPC   C3B28521  43.853  24.768   7.951
 2016POPC   C4B28522  43.554  24.947   7.703
 2017POPC   NC328523  23.315  21.943   9.401
 2017POPC   PO428524  22.600  21.947   9.529
 2017POPC   GL128525  22.740  22.092   9.129
 2017POPC   GL228526  23.030  22.309   9.199
 2017POPC   C1A28527  22.906  22.153   8.710
 2017POPC   D2A28528  23.142  22.041   8.325
 2017POPC   C3A28529  22.845  22.095   8.001
 2017POPC   C4A28530  22.693  21.957   7.602
 2017POPC   C1B28531  23.192  22.569   8.885
 2017POPC   C2B28532  23.091  22.558   8.438
 2017POPC   C3B28533  23.227  22.462   8.013
 2017POPC   C4B28534  23.147  22.222   7.614
 2018POPC   NC328535  38.813  25.475   9.404
 2018POPC   PO428536  39.398  25.085   9.664
 2018POPC   GL128537  39.291  25.243   9.269
 2018POPC   GL228538  39.254  24.961   9.079
 2018POPC   C1A28539  39.285  25.428   8.847
 2018POPC   D2A28540  39.500  25.492   8.443
 2018POPC   C3A28541  39.211  25.535   8.088
 2018POPC   C4A28542  39.247  25.459   7.644
 2018POPC   C1B28543  39.288  24.848   8.656
 2018POPC   C2B28544  39.158  25.050   8.290
 2018POPC   C3B28545  39.328  25.054   7.904
 2018POPC   C4B28546  39.212  24.952   7.444
 2019POPC   NC328547   0.120  42.299   9.143
 2019POPC   PO428548   0.777  42.140   9.516
 2019POPC   GL128549   0.629  42.193   9.126
 2019POPC   GL228550   0.718  42.491   9.045
 2019POPC   C1A28551   0.735  42.106   8.689
 2019POPC   D2A28552   0.791  41.857   8.324
 2019POPC   C3A28553   0.722  42.058   7.933
 2019POPC   C4A28554   0.256  42.080   7.835
 2019POPC   C1B28555   0.486  42.559   8.655
 2019POPC   C2B28556   0.470  42.402   8.228
 2019POPC   C3B28557   0.330  42.580   7.810
 2019POPC   C4B28558   0.154  42.917   7.564
 2020POPC   NC328559   4.216   6.583   9.859
 2020POPC   PO428560   3.901   7.126   9.497
 2020POPC   GL128561   4.071   6.731   9.291
 2020POPC   GL228562   3.926   6.829   9.026
 2020POPC   C1A28563   4.389   6.664   8.896
 2020POPC   D2A28564   4.298   6.749   8.439
 2020POPC   C3A28565   4.401   6.610   8.014
 2020POPC   C4A28566   4.594   6.847   7.694
 2020POPC   C1B28567   3.961   6.471   8.728
 2020POPC   C2B28568   3.864   6.505   8.265
 2020POPC   C3B28569   3.969   6.442   7.820
 2020POPC   C4B28570   4.305   6.494   7.468
 2021POPC   NC328571   2.356  29.928   9.432
 2021POPC   PO428572   1.693  29.784   9.420
 2021POPC   GL128573   1.899  29.796   9.061
 2021POPC   GL228574   2.029  30.126   9.093
 2021POPC   C1A28575   1.868  29.749   8.626
 2021POPC   D2A28576   1.872  30.104   8.320
 2021POPC   C3A28577   1.600  30.014   7.980
 2021POPC   C4A28578   1.687  29.597   7.874
 2021POPC   C1B28579   2.289  30.028   8.728
 2021POPC   C2B28580   2.413  29.974   8.298
 2021POPC   C3B28581   2.183  30.033   7.895
 2021POPC   C4B28582   2.208  30.313   7.505
 2022POPC   NC328583  39.394   5.609   9.342
 2022POPC   PO428584  39.153   5.000   9.507
 2022POPC   GL128585  39.193   5.177   9.122
 2022POPC   GL228586  39.548   5.134   9.143
 2022POPC   C1A28587  39.312   5.286   8.694
 2022POPC   D2A28588  39.213   5.087   8.300
 2022POPC   C3A28589  39.133   5.307   7.908
 2022POPC   C4A28590  38.745   5.435   7.764
 2022POPC   C1B28591  39.599   4.870   8.774
 2022POPC   C2B28592  39.714   5.032   8.378
 2022POPC   C3B28593  39.595   5.104   7.953
 2022POPC   C4B28594  39.358   5.058   7.529
 2023POPC   NC328595   5.154  19.252   9.564
 2023POPC   PO428596   5.145  18.663   9.326
 2023POPC   GL128597   5.322  18.985   9.101
 2023POPC   GL228598   5.107  19.250   9.071
 2023POPC   C1A28599   5.252  19.004   8.660
 2023POPC   D2A28600   5.004  19.069   8.336
 2023POPC   C3A28601   5.106  18.831   7.992
 2023POPC   C4A28602   5.044  18.858   7.566
 2023POPC   C1B28603   4.921  19.472   8.742
 2023POPC   C2B28604   4.646  19.416   8.391
 2023POPC   C3B28605   4.669  19.369   7.946
 2023POPC   C4B28606   4.802  19.328   7.522
 2024POPC   NC328607  24.529  41.083   9.841
 2024POPC   PO428608  25.046  41.057   9.298
 2024POPC   GL128609  24.954  41.265   8.979
 2024POPC   GL228610  25.004  41.617   9.059
 2024POPC   C1A28611  25.103  41.443   8.600
 2024POPC   D2A28612  25.292  41.500   8.205
 2024POPC   C3A28613  25.048  41.461   7.838
 2024POPC   C4A28614  25.175  41.566   7.415
 2024POPC   C1B28615  25.264  41.909   8.734
 2024POPC   C2B28616  25.373  42.008   8.272
 2024POPC   C3B28617  25.378  41.867   7.809
 2024POPC   C4B28618  25.679  41.743   7.461
 2025POPC   NC328619  25.729  25.437   9.408
 2025POPC   PO428620  25.097  25.113   9.430
 2025POPC   GL128621  25.006  25.343   9.072
 2025POPC   GL228622  25.345  25.412   9.055
 2025POPC   C1A28623  25.026  25.355   8.630
 2025POPC   D2A28624  25.045  25.601   8.276
 2025POPC   C3A28625  24.973  25.305   7.964
 2025POPC   C4A28626  24.820  25.336   7.595
 2025POPC   C1B28627  25.566  25.282   8.691
 2025POPC   C2B28628  25.433  25.255   8.272
 2025POPC   C3B28629  25.421  25.529   7.929
 2025POPC   C4B28630  25.411  25.176   7.662
 2026POPC   NC328631  43.149  31.930   9.510
 2026POPC   PO428632  43.044  32.598   9.527
 2026POPC   GL128633  43.134  32.323   9.171
 2026POPC   GL228634  43.415  32.047   9.100
 2026POPC   C1A28635  43.074  32.207   8.763
 2026POPC   D2A28636  43.388  32.125   8.495
 2026POPC   C3A28637  43.222  32.209   8.123
 2026POPC   C4A28638  43.191  32.497   7.782
 2026POPC   C1B28639  43.257  31.747   8.814
 2026POPC   C2B28640  43.144  31.684   8.391
 2026POPC   C3B28641  43.325  31.702   7.957
 2026POPC   C4B28642  43.424  32.023   7.711
 2027POPC   NC328643  21.629  36.393   9.508
 2027POPC   PO428644  20.978  36.304   9.476
 2027POPC   GL128645  21.265  36.304   9.143
 2027POPC   GL228646  21.456  36.012   9.204
 2027POPC   C1A28647  21.213  36.212   8.711
 2027POPC   D2A28648  21.001  35.945   8.418
 2027POPC   C3A28649  21.046  36.127   7.996
 2027POPC   C4A28650  21.296  36.009   7.639
 2027POPC   C1B28651  21.697  36.115   8.830
 2027POPC   C2B28652  21.708  36.253   8.429
 2027POPC   C3B28653  21.580  36.018   8.085
 2027POPC   C4B28654  21.744  35.739   7.781
 2028POPC   NC328655  22.620  22.400   9.512
 2028POPC   PO428656  21.903  22.402   9.479
 2028POPC   GL128657  22.221  22.204   9.236
 2028POPC   GL228658  22.225  21.826   9.191
 2028POPC   C1A28659  22.389  22.312   8.843
 2028POPC   D2A28660  22.253  22.349   8.423
 2028POPC   C3A28661  22.346  22.027   8.120
 2028POPC   C4A28662  22.289  22.328   7.823
 2028POPC   C1B28663  22.231  21.808   8.737
 2028POPC   C2B28664  21.927  21.956   8.437
 2028POPC   C3B28665  21.853  22.149   8.046
 2028POPC   C4B28666  21.846  21.896   7.696
 2029POPC   NC328667  35.124   2.028   9.511
 2029POPC   PO428668  35.672   1.653   9.498
 2029POPC   GL128669  35.386   1.746   9.189
 2029POPC   GL228670  35.041   1.564   9.232
 2029POPC   C1A28671  35.401   2.045   8.840
 2029POPC   D2A28672  35.123   2.044   8.482
 2029POPC   C3A28673  35.244   2.196   8.100
 2029POPC   C4A28674  35.518   2.077   7.791
 2029POPC   C1B28675  35.109   1.614   8.783
 2029POPC   C2B28676  34.970   1.560   8.364
 2029POPC   C3B28677  35.252   1.648   8.035
 2029POPC   C4B28678  35.169   1.732   7.620
 2030POPC   NC328679   1.223  16.480   9.617
 2030POPC   PO428680   1.785  16.953   9.610
 2030POPC   GL128681   1.382  16.899   9.281
 2030POPC   GL228682   1.236  16.569   9.126
 2030POPC   C1A28683   1.199  16.972   8.832
 2030POPC   D2A28684   1.077  17.034   8.356
 2030POPC   C3A28685   1.261  16.775   8.007
 2030POPC   C4A28686   1.060  16.899   7.616
 2030POPC   C1B28687   0.951  16.483   8.771
 2030POPC   C2B28688   0.920  16.519   8.317
 2030POPC   C3B28689   0.872  16.484   7.877
 2030POPC   C4B28690   1.221  16.396   7.609
 2031POPC   NC328691  42.547  26.196   9.502
 2031POPC   PO428692  41.853  26.007   9.493
 2031POPC   GL128693  41.952  26.088   9.113
 2031POPC   GL228694  42.272  25.963   9.129
 2031POPC   C1A28695  42.135  26.187   8.696
 2031POPC   D2A28696  42.310  26.410   8.355
 2031POPC   C3A28697  42.097  26.365   7.981
 2031POPC   C4A28698  42.024  26.062   7.651
 2031POPC   C1B28699  42.491  25.796   8.776
 2031POPC   C2B28700  42.526  25.929   8.386
 2031POPC   C3B28701  42.430  25.972   7.991
 2031POPC   C4B28702  42.667  26.016   7.609
 2032POPC   NC328703  12.492  40.342   9.606
 2032POPC   PO428704  13.101  40.172   9.786
 2032POPC   GL128705  12.810  40.108   9.324
 2032POPC   GL228706  12.840  40.466   9.229
 2032POPC   C1A28707  12.748  40.009   8.845
 2032POPC   D2A28708  13.068  40.080   8.532
 2032POPC   C3A28709  13.084  40.075   8.083
 2032POPC   C4A28710  13.148  39.738   7.810
 2032POPC   C1B28711  12.494  40.425   8.924
 2032POPC   C2B28712  12.562  40.424   8.455
 2032POPC   C3B28713  12.635  40.314   7.996
 2032POPC   C4B28714  12.902  40.352   7.645
 2033POPC   NC328715  22.238  32.938   9.792
 2033POPC   PO428716  21.640  33.005   9.517
 2033POPC   GL128717  21.915  33.022   9.165
 2033POPC   GL228718  22.255  32.871   9.271
 2033POPC   C1A28719  21.956  33.244   8.731
 2033POPC   D2A28720  21.801  33.240   8.270
 2033POPC   C3A28721  22.124  33.216   7.911
 2033POPC   C4A28722  22.052  33.214   7.431
 2033POPC   C1B28723  22.248  32.821   8.816
 2033POPC   C2B28724  22.194  32.921   8.391
 2033POPC   C3B28725  22.264  32.732   8.008
 2033POPC   C4B28726  22.411  32.899   7.637
 2034POPC   NC328727  22.755  42.834   9.552
 2034POPC   PO428728  22.793  43.448   9.429
 2034POPC   GL128729  22.734  43.115   9.102
 2034POPC   GL228730  23.032  42.940   8.965
 2034POPC   C1A28731  22.650  43.022   8.640
 2034POPC   D2A28732  22.900  43.014   8.246
 2034POPC   C3A28733  22.780  42.849   7.836
 2034POPC   C4A28734  22.888  42.998   7.426
 2034POPC   C1B28735  23.269  43.131   8.596
 2034POPC   C2B28736  23.259  43.401   8.217
 2034POPC   C3B28737  23.184  43.213   7.817
 2034POPC   C4B28738  23.388  43.141   7.408
 2035POPC   NC328739  44.444   4.759   9.734
 2035POPC   PO428740  44.820   5.297   9.579
 2035POPC   GL128741  44.619   5.077   9.281
 2035POPC   GL228742  44.333   5.213   9.216
 2035POPC   C1A28743  44.757   5.206   8.849
 2035POPC   D2A28744  44.623   5.329   8.427
 2035POPC   C3A28745  44.748   5.054   8.083
 2035POPC   C4A28746  44.926   5.082   7.673
 2035POPC   C1B28747  44.285   4.989   8.831
 2035POPC   C2B28748  44.189   5.041   8.435
 2035POPC   C3B28749  44.245   5.182   8.050
 2035POPC   C4B28750  44.413   4.965   7.681
 2036POPC   NC328751   0.679  32.823   9.594
 2036POPC   PO428752   0.217  33.268   9.650
 2036POPC   GL128753   0.347  33.098   9.263
 2036POPC   GL228754   0.689  33.097   9.165
 2036POPC   C1A28755   0.275  32.972   8.846
 2036POPC   D2A28756   0.389  33.009   8.428
 2036POPC   C3A28757   0.068  32.911   8.139
 2036POPC   C4A28758   0.239  32.890   7.759
 2036POPC   C1B28759   0.671  33.323   8.787
 2036POPC   C2B28760   0.781  33.366   8.341
 2036POPC   C3B28761   0.549  33.241   7.980
 2036POPC   C4B28762   0.568  33.175   7.521
 2037POPC   NC328763  30.990  10.960   9.537
 2037POPC   PO428764  30.677  10.387   9.645
 2037POPC   GL128765  30.714  10.425   9.213
 2037POPC   GL228766  30.920  10.693   9.111
 2037POPC   C1A28767  30.525  10.490   8.802
 2037POPC   D2A28768  30.309  10.614   8.416
 2037POPC   C3A28769  30.620  10.647   8.097
 2037POPC   C4A28770  30.728  10.831   7.704
 2037POPC   C1B28771  31.033  10.370   8.812
 2037POPC   C2B28772  31.163  10.411   8.405
 2037POPC   C3B28773  30.958  10.270   8.070
 2037POPC   C4B28774  31.031  10.393   7.675
 2038POPC   NC328775  19.256  14.068   9.268
 2038POPC   PO428776  18.831  14.512   9.488
 2038POPC   GL128777  19.024  14.470   9.070
 2038POPC   GL228778  19.372  14.450   8.943
 2038POPC   C1A28779  18.971  14.297   8.645
 2038POPC   D2A28780  19.245  14.432   8.305
 2038POPC   C3A28781  19.065  14.515   7.916
 2038POPC   C4A28782  18.939  14.343   7.532
 2038POPC   C1B28783  19.413  14.068   8.642
 2038POPC   C2B28784  19.504  13.969   8.215
 2038POPC   C3B28785  19.378  14.097   7.787
 2038POPC   C4B28786  19.333  14.077   7.342
 2039POPC   NC328787   8.494  12.606   9.498
 2039POPC   PO428788   7.998  13.126   9.522
 2039POPC   GL128789   8.230  12.959   9.212
 2039POPC   GL228790   8.553  13.092   9.297
 2039POPC   C1A28791   8.229  12.667   8.853
 2039POPC   D2A28792   7.935  12.662   8.496
 2039POPC   C3A28793   8.000  12.650   8.081
 2039POPC   C4A28794   8.139  13.009   7.913
 2039POPC   C1B28795   8.569  13.091   8.846
 2039POPC   C2B28796   8.378  12.949   8.446
 2039POPC   C3B28797   8.499  12.616   8.157
 2039POPC   C4B28798   8.507  12.686   7.697
 2040POPC   NC328799  23.869   5.186   9.510
 2040POPC   PO428800  23.470   4.736   9.391
 2040POPC   GL128801  23.776   4.885   9.110
 2040POPC   GL228802  24.054   4.650   9.087
 2040POPC   C1A28803  23.719   5.098   8.715
 2040POPC   D2A28804  23.738   4.903   8.319
 2040POPC   C3A28805  23.626   5.166   7.981
 2040POPC   C4A28806  23.482   5.210   7.561
 2040POPC   C1B28807  24.122   4.697   8.642
 2040POPC   C2B28808  24.074   4.542   8.223
 2040POPC   C3B28809  23.900   4.723   7.839
 2040POPC   C4B28810  24.088   4.655   7.403
 2041POPC   NC328811  43.379   2.022   9.522
 2041POPC   PO428812  43.987   1.851   9.378
 2041POPC   GL128813  43.884   2.233   9.158
 2041POPC   GL228814  44.184   2.269   8.920
 2041POPC   C1A28815  43.686   2.225   8.772
 2041POPC   D2A28816  43.910   2.015   8.459
 2041POPC   C3A28817  43.728   2.149   8.091
 2041POPC   C4A28818  43.931   2.225   7.715
 2041POPC   C1B28819  44.269   1.801   8.787
 2041POPC   C2B28820  44.462   1.648   8.399
 2041POPC   C3B28821  44.230   1.848   8.067
 2041POPC   C4B28822  44.135   1.743   7.663
 2042POPC   NC328823  42.547   5.763   9.662
 2042POPC   PO428824  41.876   5.570   9.454
 2042POPC   GL128825  42.190   5.641   9.148
 2042POPC   GL228826  42.550   5.712   9.170
 2042POPC   C1A28827  42.323   5.835   8.753
 2042POPC   D2A28828  42.537   5.900   8.391
 2042POPC   C3A28829  42.256   5.822   8.059
 2042POPC   C4A28830  42.021   6.104   7.789
 2042POPC   C1B28831  42.841   5.573   8.864
 2042POPC   C2B28832  42.908   5.507   8.443
 2042POPC   C3B28833  42.724   5.564   8.036
 2042POPC   C4B28834  42.628   5.875   7.737
 2043POPC   NC328835  26.746  31.932   9.411
 2043POPC   PO428836  26.344  32.456   9.655
 2043POPC   GL128837  26.539  32.399   9.213
 2043POPC   GL228838  26.922  32.414   9.138
 2043POPC   C1A28839  26.614  32.216   8.783
 2043POPC   D2A28840  26.897  32.292   8.442
 2043POPC   C3A28841  26.763  32.164   8.039
 2043POPC   C4A28842  26.784  32.516   7.781
 2043POPC   C1B28843  27.208  32.165   8.838
 2043POPC   C2B28844  27.251  31.937   8.402
 2043POPC   C3B28845  27.295  32.123   7.960
 2043POPC   C4B28846  27.451  32.125   7.496
 2044POPC   NC328847  43.520  20.889   9.284
 2044POPC   PO428848  43.972  20.344   9.429
 2044POPC   GL128849  43.832  20.499   9.085
 2044POPC   GL228850  43.996  20.825   9.060
 2044POPC   C1A28851  43.661  20.365   8.710
 2044POPC   D2A28852  43.605  20.580   8.352
 2044POPC   C3A28853  43.677  20.436   7.954
 2044POPC   C4A28854  43.672  20.821   7.751
 2044POPC   C1B28855  44.033  20.783   8.599
 2044POPC   C2B28856  44.046  20.808   8.130
 2044POPC   C3B28857  44.159  20.897   7.683
 2044POPC   C4B28858  44.365  20.688   7.329
 2045POPC   NC328859  11.608  25.513   9.374
 2045POPC   PO428860  10.989  25.443   9.541
 2045POPC   GL128861  11.151  25.425   9.127
 2045POPC   GL228862  11.351  25.113   9.114
 2045POPC   C1A28863  11.325  25.443   8.696
 2045POPC   D2A28864  11.483  25.673   8.330
 2045POPC   C3A28865  11.572  25.507   7.907
 2045POPC   C4A28866  11.191  25.333   7.737
 2045POPC   C1B28867  11.562  24.984   8.718
 2045POPC   C2B28868  11.634  25.132   8.289
 2045POPC   C3B28869  11.541  24.975   7.867
 2045POPC   C4B28870  11.510  24.949   7.408
 2046POPC   NC328871  10.004  13.961   9.356
 2046POPC   PO428872   9.503  13.483   9.519
 2046POPC   GL128873   9.565  13.323   9.143
 2046POPC   GL228874   9.905  13.466   9.111
 2046POPC   C1A28875   9.474  13.513   8.748
 2046POPC   D2A28876   9.387  13.811   8.404
 2046POPC   C3A28877   9.636  13.768   8.026
 2046POPC   C4A28878   9.530  13.617   7.616
 2046POPC   C1B28879   9.925  13.746   8.738
 2046POPC   C2B28880  10.095  13.735   8.332
 2046POPC   C3B28881  10.135  13.969   7.982
 2046POPC   C4B28882   9.922  13.963   7.590
 2047POPC   NC328883  23.575  16.984   9.242
 2047POPC   PO428884  23.369  16.317   9.444
 2047POPC   GL128885  23.567  16.497   9.073
 2047POPC   GL228886  23.289  16.661   8.928
 2047POPC   C1A28887  23.848  16.573   8.698
 2047POPC   D2A28888  23.859  16.885   8.349
 2047POPC   C3A28889  23.733  16.711   7.949
 2047POPC   C4A28890  23.918  16.397   7.707
 2047POPC   C1B28891  23.399  16.895   8.544
 2047POPC   C2B28892  23.452  17.123   8.117
 2047POPC   C3B28893  23.432  17.018   7.673
 2047POPC   C4B28894  23.481  16.986   7.208
 2048POPC   NC328895  26.092  28.123   9.491
 2048POPC   PO428896  25.405  28.271   9.526
 2048POPC   GL128897  25.721  28.348   9.178
 2048POPC   GL228898  25.963  28.125   9.010
 2048POPC   C1A28899  25.680  28.456   8.730
 2048POPC   D2A28900  25.765  28.674   8.341
 2048POPC   C3A28901  26.024  28.552   7.971
 2048POPC   C4A28902  26.025  28.287   7.578
 2048POPC   C1B28903  26.198  28.370   8.705
 2048POPC   C2B28904  26.335  28.303   8.290
 2048POPC   C3B28905  26.460  28.279   7.857
 2048POPC   C4B28906  26.411  28.675   7.657
 2049POPC   NC328907  26.975  33.654   9.512
 2049POPC   PO428908  26.459  34.094   9.446
 2049POPC   GL128909  26.631  33.856   9.132
 2049POPC   GL228910  26.556  33.506   9.206
 2049POPC   C1A28911  26.833  34.034   8.752
 2049POPC   D2A28912  26.805  34.191   8.337
 2049POPC   C3A28913  27.009  34.021   8.000
 2049POPC   C4A28914  26.844  33.813   7.643
 2049POPC   C1B28915  26.428  33.544   8.787
 2049POPC   C2B28916  26.627  33.546   8.412
 2049POPC   C3B28917  26.512  33.683   8.010
 2049POPC   C4B28918  26.275  33.465   7.744
 2050POPC   NC328919   1.724  20.404   9.492
 2050POPC   PO428920   1.443  20.987   9.439
 2050POPC   GL128921   1.797  20.936   9.148
 2050POPC   GL228922   1.906  20.582   9.061
 2050POPC   C1A28923   1.912  20.957   8.703
 2050POPC   D2A28924   1.882  20.729   8.329
 2050POPC   C3A28925   1.883  20.863   7.896
 2050POPC   C4A28926   1.740  21.019   7.514
 2050POPC   C1B28927   2.110  20.427   8.705
 2050POPC   C2B28928   1.976  20.228   8.351
 2050POPC   C3B28929   1.870  20.345   7.972
 2050POPC   C4B28930   2.184  20.309   7.699
 2051POPC   NC328931  30.641  21.712   9.299
 2051POPC   PO428932  30.654  22.441   9.448
 2051POPC   GL128933  30.743  22.197   9.124
 2051POPC   GL228934  31.090  22.072   9.213
 2051POPC   C1A28935  30.484  22.062   8.781
 2051POPC   D2A28936  30.560  21.808   8.433
 2051POPC   C3A28937  30.530  22.074   8.072
 2051POPC   C4A28938  30.847  22.179   7.781
 2051POPC   C1B28939  31.138  22.261   8.806
 2051POPC   C2B28940  30.855  22.292   8.462
 2051POPC   C3B28941  30.961  22.524   8.125
 2051POPC   C4B28942  30.983  22.666   7.741
 2052POPC   NC328943  44.015  31.606   9.606
 2052POPC   PO428944  43.430  31.262   9.423
 2052POPC   GL128945  43.647  31.556   9.121
 2052POPC   GL228946  43.838  31.344   8.899
 2052POPC   C1A28947  43.746  31.793   8.714
 2052POPC   D2A28948  43.711  31.786   8.255
 2052POPC   C3A28949  43.966  31.587   7.897
 2052POPC   C4A28950  44.149  31.639   7.433
 2052POPC   C1B28951  44.156  31.177   8.655
 2052POPC   C2B28952  43.937  31.103   8.309
 2052POPC   C3B28953  43.824  31.044   7.942
 2052POPC   C4B28954  43.719  31.129   7.558
 2053POPC   NC328955  19.254   9.071   9.433
 2053POPC   PO428956  18.664   8.642   9.426
 2053POPC   GL128957  18.777   8.953   9.078
 2053POPC   GL228958  19.134   9.003   8.948
 2053POPC   C1A28959  18.771   8.968   8.612
 2053POPC   D2A28960  19.032   8.863   8.289
 2053POPC   C3A28961  18.751   8.991   8.011
 2053POPC   C4A28962  18.742   9.127   7.594
 2053POPC   C1B28963  19.345   8.691   8.661
 2053POPC   C2B28964  19.352   8.464   8.237
 2053POPC   C3B28965  19.428   8.793   7.912
 2053POPC   C4B28966  19.195   9.201   7.847
 2054POPC   NC328967  28.494   6.932   9.483
 2054POPC   PO428968  28.006   6.448   9.412
 2054POPC   GL128969  28.288   6.595   9.147
 2054POPC   GL228970  28.644   6.518   9.202
 2054POPC   C1A28971  28.248   6.870   8.839
 2054POPC   D2A28972  28.228   6.818   8.410
 2054POPC   C3A28973  28.469   6.617   8.108
 2054POPC   C4A28974  28.402   6.679   7.680
 2054POPC   C1B28975  28.581   6.331   8.810
 2054POPC   C2B28976  28.472   6.140   8.447
 2054POPC   C3B28977  28.755   6.056   8.132
 2054POPC   C4B28978  28.816   6.362   7.828
 2055POPC   NC328979   9.580  20.717   9.784
 2055POPC   PO428980   9.702  20.165   9.543
 2055POPC   GL128981   9.620  20.322   9.155
 2055POPC   GL228982   9.949  20.539   9.184
 2055POPC   C1A28983   9.576  20.265   8.687
 2055POPC   D2A28984   9.591  20.625   8.417
 2055POPC   C3A28985   9.683  20.642   7.975
 2055POPC   C4A28986   9.499  20.347   7.779
 2055POPC   C1B28987  10.109  20.737   8.772
 2055POPC   C2B28988  10.063  20.793   8.299
 2055POPC   C3B28989  10.035  20.996   7.867
 2055POPC   C4B28990  10.095  20.992   7.401
 2056POPC   NC328991  41.990   4.423   9.544
 2056POPC   PO428992  42.259   3.790   9.491
 2056POPC   GL128993  42.512   4.049   9.196
 2056POPC   GL228994  42.447   4.399   9.236
 2056POPC   C1A28995  42.417   4.172   8.765
 2056POPC   D2A28996  42.319   3.999   8.365
 2056POPC   C3A28997  42.309   4.297   8.051
 2056POPC   C4A28998  42.473   4.282   7.649
 2056POPC   C1B28999  42.358   4.693   8.885
 2056POPC   C2B29000  42.249   4.594   8.467
 2056POPC   C3B29001  42.016   4.731   8.113
 2056POPC   C4B29002  42.006   4.541   7.717
 2057POPC   NC329003  42.823  24.563   9.473
 2057POPC   PO429004  43.448  24.709   9.443
 2057POPC   GL129005  43.225  24.456   9.128
 2057POPC   GL229006  42.938  24.243   9.053
 2057POPC   C1A29007  43.321  24.375   8.705
 2057POPC   D2A29008  43.377  24.254   8.293
 2057POPC   C3A29009  43.131  24.505   8.067
 2057POPC   C4A29010  43.046  24.728   7.715
 2057POPC   C1B29011  42.828  24.510   8.745
 2057POPC   C2B29012  42.650  24.600   8.389
 2057POPC   C3B29013  42.613  24.782   8.031
 2057POPC   C4B29014  42.555  24.623   7.653
 2058POPC   NC329015  29.832   4.962   9.604
 2058POPC   PO429016  30.152   5.571   9.375
 2058POPC   GL129017  30.089   5.134   9.138
 2058POPC   GL229018  29.787   4.861   9.119
 2058POPC   C1A29019  30.140   4.836   8.768
 2058POPC   D2A29020  30.032   4.685   8.351
 2058POPC   C3A29021  29.986   5.008   8.047
 2058POPC   C4A29022  30.313   5.107   7.760
 2058POPC   C1B29023  29.638   5.145   8.804
 2058POPC   C2B29024  29.673   5.285   8.383
 2058POPC   C3B29025  29.619   5.410   7.990
 2058POPC   C4B29026  29.742   5.188   7.590
 2059POPC   NC329027   5.643  21.262   9.458
 2059POPC   PO429028   6.184  20.937   9.630
 2059POPC   GL129029   5.992  21.026   9.158
 2059POPC   GL229030   5.840  21.379   9.015
 2059POPC   C1A29031   5.652  20.999   8.788
 2059POPC   D2A29032   5.637  21.346   8.481
 2059POPC   C3A29033   5.727  21.430   8.023
 2059POPC   C4A29034   5.476  21.344   7.673
 2059POPC   C1B29035   6.102  21.230   8.681
 2059POPC   C2B29036   6.128  21.181   8.250
 2059POPC   C3B29037   6.234  21.443   7.871
 2059POPC   C4B29038   6.109  21.702   7.489
 2060POPC   NC329039   2.495  37.192   9.346
 2060POPC   PO429040   2.157  36.650   9.576
 2060POPC   GL129041   2.110  36.901   9.157
 2060POPC   GL229042   2.210  36.644   8.899
 2060POPC   C1A29043   2.214  37.188   8.767
 2060POPC   D2A29044   2.116  37.396   8.360
 2060POPC   C3A29045   2.139  37.228   7.949
 2060POPC   C4A29046   1.876  37.093   7.581
 2060POPC   C1B29047   1.857  36.845   8.690
 2060POPC   C2B29048   1.584  36.804   8.330
 2060POPC   C3B29049   1.659  36.780   7.928
 2060POPC   C4B29050   2.069  36.724   7.879
 2061POPC   NC329051  35.909  42.902   9.664
 2061POPC   PO429052  36.008  43.569   9.427
 2061POPC   GL129053  36.094  43.111   9.245
 2061POPC   GL229054  35.820  42.816   9.183
 2061POPC   C1A29055  36.257  42.889   8.891
 2061POPC   D2A29056  36.328  43.151   8.557
 2061POPC   C3A29057  36.299  43.075   8.126
 2061POPC   C4A29058  36.066  43.236   7.757
 2061POPC   C1B29059  35.748  43.054   8.831
 2061POPC   C2B29060  35.883  42.900   8.431
 2061POPC   C3B29061  35.746  42.912   8.012
 2061POPC   C4B29062  35.783  42.762   7.593
 2062POPC   NC329063  22.021   4.093   9.619
 2062POPC   PO429064  22.580   4.531   9.474
 2062POPC   GL129065  22.282   4.336   9.236
 2062POPC   GL229066  22.342   3.981   9.254
 2062POPC   C1A29067  22.070   4.472   8.857
 2062POPC   D2A29068  22.198   4.309   8.458
 2062POPC   C3A29069  22.123   4.492   8.047
 2062POPC   C4A29070  22.444   4.565   7.761
 2062POPC   C1B29071  22.023   3.966   8.911
 2062POPC   C2B29072  21.963   3.861   8.473
 2062POPC   C3B29073  22.071   3.967   8.054
 2062POPC   C4B29074  22.000   4.005   7.625
 2063POPC   NC329075  15.353  26.748   9.540
 2063POPC   PO429076  15.084  27.328   9.771
 2063POPC   GL129077  15.115  27.094   9.292
 2063POPC   GL229078  15.440  27.093   9.147
 2063POPC   C1A29079  15.028  26.822   8.899
 2063POPC   D2A29080  14.822  26.811   8.456
 2063POPC   C3A29081  15.057  26.642   8.064
 2063POPC   C4A29082  15.199  26.764   7.648
 2063POPC   C1B29083  15.294  27.234   8.779
 2063POPC   C2B29084  15.294  26.939   8.450
 2063POPC   C3B29085  15.337  27.051   8.045
 2063POPC   C4B29086  15.292  27.281   7.719
 2064POPC   NC329087  44.177  22.544   9.678
 2064POPC   PO429088  43.646  22.079   9.538
 2064POPC   GL129089  43.903  22.037   9.192
 2064POPC   GL229090  44.189  21.867   9.297
 2064POPC   C1A29091  44.029  22.174   8.792
 2064POPC   D2A29092  43.921  22.513   8.498
 2064POPC   C3A29093  43.983  22.392   8.088
 2064POPC   C4A29094  44.024  22.428   7.677
 2064POPC   C1B29095  44.117  21.655   8.931
 2064POPC   C2B29096  44.110  21.746   8.513
 2064POPC   C3B29097  44.197  21.702   8.092
 2064POPC   C4B29098  44.044  21.932   7.775
 2065POPC   NC329099  11.766  33.669   9.356
 2065POPC   PO429100  12.346  33.928   9.432
 2065POPC   GL129101  12.131  33.839   9.054
 2065POPC   GL229102  11.787  34.010   8.981
 2065POPC   C1A29103  12.266  33.746   8.670
 2065POPC   D2A29104  12.431  33.492   8.357
 2065POPC   C3A29105  12.292  33.721   8.004
 2065POPC   C4A29106  12.365  34.142   7.888
 2065POPC   C1B29107  11.768  33.626   8.710
 2065POPC   C2B29108  11.897  33.560   8.307
 2065POPC   C3B29109  11.813  33.554   7.891
 2065POPC   C4B29110  11.956  33.885   7.632
 2066POPC   NC329111  19.283  17.953   9.388
 2066POPC   PO429112  19.818  17.813   9.517
 2066POPC   GL129113  20.011  17.709   9.126
 2066POPC   GL229114  20.332  17.876   9.091
 2066POPC   C1A29115  19.874  17.629   8.678
 2066POPC   D2A29116  19.826  17.871   8.273
 2066POPC   C3A29117  19.703  17.627   7.919
 2066POPC   C4A29118  19.890  17.255   7.847
 2066POPC   C1B29119  20.269  17.940   8.666
 2066POPC   C2B29120  20.345  17.924   8.243
 2066POPC   C3B29121  20.211  17.649   7.921
 2066POPC   C4B29122  20.039  17.677   7.510
 2067POPC   NC329123   5.872  29.519   9.355
 2067POPC   PO429124   5.744  30.124   9.612
 2067POPC   GL129125   5.940  30.011   9.220
 2067POPC   GL229126   5.594  30.025   9.142
 2067POPC   C1A29127   5.884  29.824   8.781
 2067POPC   D2A29128   5.730  29.864   8.389
 2067POPC   C3A29129   5.951  29.998   7.996
 2067POPC   C4A29130   6.146  29.965   7.583
 2067POPC   C1B29131   5.616  30.270   8.785
 2067POPC   C2B29132   5.474  30.388   8.395
 2067POPC   C3B29133   5.673  30.418   8.037
 2067POPC   C4B29134   5.561  30.179   7.690
 2068POPC   NC329135  20.232  33.856   9.467
 2068POPC   PO429136  20.903  33.595   9.425
 2068POPC   GL129137  20.804  33.581   9.011
 2068POPC   GL229138  20.585  33.859   9.083
 2068POPC   C1A29139  20.710  33.580   8.568
 2068POPC   D2A29140  20.354  33.682   8.295
 2068POPC   C3A29141  20.427  33.529   7.898
 2068POPC   C4A29142  20.823  33.605   7.657
 2068POPC   C1B29143  20.477  34.013   8.686
 2068POPC   C2B29144  20.625  34.141   8.284
 2068POPC   C3B29145  20.558  34.005   7.888
 2068POPC   C4B29146  20.617  34.121   7.483
 2069POPC   NC329147  40.540   0.343   9.571
 2069POPC   PO429148  41.080   0.740   9.742
 2069POPC   GL129149  40.968   0.543   9.299
 2069POPC   GL229150  40.872   0.191   9.209
 2069POPC   C1A29151  40.655   0.582   8.929
 2069POPC   D2A29152  40.694   0.583   8.480
 2069POPC   C3A29153  40.618   0.580   8.029
 2069POPC   C4A29154  40.881   0.632   7.671
 2069POPC   C1B29155  40.933   0.200   8.758
 2069POPC   C2B29156  40.827   0.088   8.328
 2069POPC   C3B29157  40.902   0.168   7.897
 2069POPC   C4B29158  41.051   0.200   7.465
 2070POPC   NC329159  40.626   9.764   9.619
 2070POPC   PO429160  40.800   9.140   9.507
 2070POPC   GL129161  40.819   9.528   9.191
 2070POPC   GL229162  40.763   9.915   9.162
 2070POPC   C1A29163  40.646   9.646   8.771
 2070POPC   D2A29164  40.760   9.793   8.365
 2070POPC   C3A29165  40.608   9.639   7.966
 2070POPC   C4A29166  40.574   9.895   7.590
 2070POPC   C1B29167  41.090   9.875   8.848
 2070POPC   C2B29168  41.325   9.829   8.492
 2070POPC   C3B29169  41.182   9.900   8.079
 2070POPC   C4B29170  41.058   9.650   7.723
 2071POPC   NC329171  16.036  21.230   9.564
 2071POPC   PO429172  15.587  21.727   9.335
 2071POPC   GL129173  15.712  21.370   9.105
 2071POPC   GL229174  16.057  21.451   9.109
 2071POPC   C1A29175  15.554  21.163   8.709
 2071POPC   D2A29176  15.425  21.366   8.328
 2071POPC   C3A29177  15.652  21.278   7.917
 2071POPC   C4A29178  15.968  21.599   7.847
 2071POPC   C1B29179  15.996  21.465   8.663
 2071POPC   C2B29180  15.942  21.221   8.313
 2071POPC   C3B29181  16.177  21.136   7.934
 2071POPC   C4B29182  16.359  21.089   7.529
 2072POPC   NC329183  31.517  42.899   9.384
 2072POPC   PO429184  31.741  43.574   9.419
 2072POPC   GL129185  31.477  43.365   9.103
 2072POPC   GL229186  31.680  43.129   8.971
 2072POPC   C1A29187  31.215  43.286   8.717
 2072POPC   D2A29188  30.926  43.170   8.359
 2072POPC   C3A29189  31.169  42.979   8.057
 2072POPC   C4A29190  31.338  43.159   7.715
 2072POPC   C1B29191  31.635  42.784   8.731
 2072POPC   C2B29192  31.595  42.928   8.359
 2072POPC   C3B29193  31.683  42.874   7.965
 2072POPC   C4B29194  31.719  42.569   7.711
 2073POPC   NC329195  37.405   2.950   9.688
 2073POPC   PO429196  36.848   2.651   9.795
 2073POPC   GL129197  36.986   2.798   9.322
 2073POPC   GL229198  36.979   3.075   9.076
 2073POPC   C1A29199  37.059   2.640   8.838
 2073POPC   D2A29200  37.110   2.821   8.374
 2073POPC   C3A29201  36.925   2.610   7.965
 2073POPC   C4A29202  36.680   2.565   7.537
 2073POPC   C1B29203  36.703   3.017   8.709
 2073POPC   C2B29204  36.591   2.740   8.353
 2073POPC   C3B29205  36.461   2.869   7.929
 2073POPC   C4B29206  36.624   3.073   7.579
 2074POPC   NC329207   0.727   1.578   9.484
 2074POPC   PO429208   0.115   1.166   9.513
 2074POPC   GL129209   0.267   1.322   9.137
 2074POPC   GL229210   0.612   1.273   9.096
 2074POPC   C1A29211   0.276   1.181   8.714
 2074POPC   D2A29212   0.383   1.388   8.329
 2074POPC   C3A29213   0.237   1.197   7.986
 2074POPC   C4A29214   0.364   1.286   7.568
 2074POPC   C1B29215   0.770   1.289   8.715
 2074POPC   C2B29216   0.891   1.279   8.304
 2074POPC   C3B29217   0.735   1.261   7.914
 2074POPC   C4B29218   0.824   1.465   7.538
 2075POPC   NC329219  31.093  26.186   9.692
 2075POPC   PO429220  31.649  25.929   9.545
 2075POPC   GL129221  31.377  25.970   9.170
 2075POPC   GL229222  31.159  26.282   9.202
 2075POPC   C1A29223  31.441  25.722   8.786
 2075POPC   D2A29224  31.333  25.836   8.392
 2075POPC   C3A29225  31.463  25.699   8.010
 2075POPC   C4A29226  31.315  25.847   7.606
 2075POPC   C1B29227  31.362  26.395   8.820
 2075POPC   C2B29228  31.543  26.333   8.407
 2075POPC   C3B29229  31.428  26.225   7.954
 2075POPC   C4B29230  31.050  26.269   7.623
 2076POPC   NC329231   5.563  18.511   9.253
 2076POPC   PO429232   6.174  18.565   9.448
 2076POPC   GL129233   6.021  18.360   9.115
 2076POPC   GL229234   6.213  18.514   8.915
 2076POPC   C1A29235   5.807  18.292   8.699
 2076POPC   D2A29236   5.778  18.175   8.282
 2076POPC   C3A29237   5.731  18.444   7.927
 2076POPC   C4A29238   5.689  18.333   7.496
 2076POPC   C1B29239   6.281  18.094   8.728
 2076POPC   C2B29240   6.250  17.958   8.285
 2076POPC   C3B29241   6.080  18.068   7.867
 2076POPC   C4B29242   6.166  18.415   7.607
 2077POPC   NC329243   8.831  34.027   9.634
 2077POPC   PO429244   9.246  33.527   9.703
 2077POPC   GL129245   9.047  33.650   9.238
 2077POPC   GL229246   8.814  33.959   9.135
 2077POPC   C1A29247   8.929  33.669   8.747
 2077POPC   D2A29248   9.079  33.655   8.306
 2077POPC   C3A29249   8.849  33.736   7.938
 2077POPC   C4A29250   8.503  33.613   7.689
 2077POPC   C1B29251   9.178  34.115   8.873
 2077POPC   C2B29252   9.407  34.095   8.465
 2077POPC   C3B29253   9.310  34.007   8.015
 2077POPC   C4B29254   9.199  33.874   7.580
 2078POPC   NC329255  26.387   2.731   9.799
 2078POPC   PO429256  25.787   2.751   9.596
 2078POPC   GL129257  25.913   2.960   9.174
 2078POPC   GL229258  25.755   3.202   8.928
 2078POPC   C1A29259  26.055   2.782   8.764
 2078POPC   D2A29260  25.913   2.831   8.336
 2078POPC   C3A29261  26.066   2.721   7.963
 2078POPC   C4A29262  26.354   2.983   7.724
 2078POPC   C1B29263  26.088   3.263   8.598
 2078POPC   C2B29264  26.156   3.232   8.136
 2078POPC   C3B29265  25.886   3.161   7.751
 2078POPC   C4B29266  25.683   3.179   7.339
 2079POPC   NC329267  23.178   1.105   9.443
 2079POPC   PO429268  22.453   1.343   9.519
 2079POPC   GL129269  22.730   1.274   9.183
 2079POPC   GL229270  22.992   1.511   9.081
 2079POPC   C1A29271  22.705   1.274   8.738
 2079POPC   D2A29272  22.932   1.110   8.376
 2079POPC   C3A29273  22.888   1.340   8.031
 2079POPC   C4A29274  22.795   1.244   7.625
 2079POPC   C1B29275  23.173   1.501   8.670
 2079POPC   C2B29276  23.368   1.321   8.297
 2079POPC   C3B29277  23.275   1.034   7.951
 2079POPC   C4B29278  23.291   1.391   7.705
 2080POPC   NC329279  21.428   3.910   9.481
 2080POPC   PO429280  21.160   3.359   9.510
 2080POPC   GL129281  21.451   3.491   9.193
 2080POPC   GL229282  21.183   3.632   9.072
 2080POPC   C1A29283  21.607   3.676   8.809
 2080POPC   D2A29284  21.659   3.470   8.408
 2080POPC   C3A29285  21.585   3.779   8.084
 2080POPC   C4A29286  21.649   3.661   7.676
 2080POPC   C1B29287  21.183   3.424   8.653
 2080POPC   C2B29288  21.200   3.445   8.168
 2080POPC   C3B29289  21.199   3.433   7.699
 2080POPC   C4B29290  21.077   3.288   7.263
 2081POPC   NC329291  34.985  17.700   9.552
 2081POPC   PO429292  35.621  17.377   9.626
 2081POPC   GL129293  35.408  17.511   9.278
 2081POPC   GL229294  35.382  17.186   9.186
 2081POPC   C1A29295  35.432  17.623   8.843
 2081POPC   D2A29296  35.574  17.463   8.437
 2081POPC   C3A29297  35.581  17.683   8.056
 2081POPC   C4A29298  35.219  17.677   7.763
 2081POPC   C1B29299  35.215  17.151   8.787
 2081POPC   C2B29300  35.376  16.993   8.402
 2081POPC   C3B29301  35.439  17.185   7.976
 2081POPC   C4B29302  35.744  17.165   7.602
 2082POPC   NC329303  31.729   6.447   9.547
 2082POPC   PO429304  31.152   6.633   9.491
 2082POPC   GL129305  31.395   6.503   9.149
 2082POPC   GL229306  31.670   6.736   9.133
 2082POPC   C1A29307  31.506   6.363   8.751
 2082POPC   D2A29308  31.677   6.453   8.332
 2082POPC   C3A29309  31.354   6.331   8.015
 2082POPC   C4A29310  31.452   6.454   7.636
 2082POPC   C1B29311  31.648   6.863   8.702
 2082POPC   C2B29312  31.732   6.982   8.294
 2082POPC   C3B29313  31.730   6.945   7.853
 2082POPC   C4B29314  31.453   6.967   7.560
 2083POPC   NC329315  33.494  44.294   9.290
 2083POPC   PO429316  33.954  43.933   9.682
 2083POPC   GL129317  33.994  44.016   9.206
 2083POPC   GL229318  33.873  44.279   8.989
 2083POPC   C1A29319  33.954  43.848   8.758
 2083POPC   D2A29320  33.687  43.728   8.403
 2083POPC   C3A29321  33.862  43.807   7.981
 2083POPC   C4A29322  34.116  44.058   7.693
 2083POPC   C1B29323  33.531  44.189   8.632
 2083POPC   C2B29324  33.450  44.115   8.167
 2083POPC   C3B29325  33.589  44.144   7.718
 2083POPC   C4B29326  33.447  44.007   7.330
 2084POPC   NC329327  22.095  37.154   9.470
 2084POPC   PO429328  22.657  36.771   9.389
 2084POPC   GL129329  22.324  36.760   9.096
 2084POPC   GL229330  22.375  37.117   9.050
 2084POPC   C1A29331  22.068  36.579   8.741
 2084POPC   D2A29332  21.812  36.764   8.380
 2084POPC   C3A29333  21.953  36.682   7.952
 2084POPC   C4A29334  22.411  36.694   7.916
 2084POPC   C1B29335  22.177  37.088   8.676
 2084POPC   C2B29336  22.244  37.016   8.249
 2084POPC   C3B29337  22.083  37.218   7.865
 2084POPC   C4B29338  21.973  37.265   7.414
 2085POPC   NC329339   1.476  31.535   9.456
 2085POPC   PO429340   0.789  31.238   9.524
 2085POPC   GL129341   1.018  31.419   9.195
 2085POPC   GL229342   0.980  31.773   9.070
 2085POPC   C1A29343   1.153  31.368   8.784
 2085POPC   D2A29344   1.052  31.629   8.419
 2085POPC   C3A29345   1.187  31.471   8.026
 2085POPC   C4A29346   0.918  31.519   7.689
 2085POPC   C1B29347   1.368  31.821   8.778
 2085POPC   C2B29348   1.572  31.794   8.320
 2085POPC   C3B29349   1.635  31.703   7.839
 2085POPC   C4B29350   1.505  31.781   7.373
 2086POPC   NC329351   6.653  16.312   9.384
 2086POPC   PO429352   6.572  16.897   9.776
 2086POPC   GL129353   6.647  16.862   9.306
 2086POPC   GL229354   6.920  16.671   9.129
 2086POPC   C1A29355   6.606  17.091   8.891
 2086POPC   D2A29356   6.444  17.002   8.465
 2086POPC   C3A29357   6.718  16.956   8.119
 2086POPC   C4A29358   6.663  17.088   7.736
 2086POPC   C1B29359   6.656  16.603   8.735
 2086POPC   C2B29360   6.605  16.495   8.269
 2086POPC   C3B29361   6.735  16.526   7.800
 2086POPC   C4B29362   6.526  16.449   7.400
 2087POPC   NC329363  36.494  37.531   9.495
 2087POPC   PO429364  37.140  37.729   9.544
 2087POPC   GL129365  36.866  37.760   9.173
 2087POPC   GL229366  36.694  37.467   9.044
 2087POPC   C1A29367  36.823  37.908   8.755
 2087POPC   D2A29368  36.609  38.028   8.395
 2087POPC   C3A29369  36.870  37.921   8.081
 2087POPC   C4A29370  37.103  37.700   7.823
 2087POPC   C1B29371  37.066  37.443   8.796
 2087POPC   C2B29372  36.993  37.509   8.367
 2087POPC   C3B29373  36.741  37.385   8.000
 2087POPC   C4B29374  36.961  37.197   7.698
 2088POPC   NC329375  18.142   8.156   9.727
 2088POPC   PO429376  18.540   7.776   9.476
 2088POPC   GL129377  18.358   8.157   9.239
 2088POPC   GL229378  18.599   8.306   9.032
 2088POPC   C1A29379  18.166   8.262   8.798
 2088POPC   D2A29380  18.325   8.440   8.377
 2088POPC   C3A29381  18.157   8.292   7.948
 2088POPC   C4A29382  18.173   8.315   7.477
 2088POPC   C1B29383  18.830   7.943   8.796
 2088POPC   C2B29384  18.744   7.666   8.407
 2088POPC   C3B29385  18.590   7.913   8.053
 2088POPC   C4B29386  18.631   8.237   7.754
 2089POPC   NC329387  35.616  31.405   9.468
 2089POPC   PO429388  35.001  31.802   9.525
 2089POPC   GL129389  35.225  31.604   9.140
 2089POPC   GL229390  35.579  31.648   8.984
 2089POPC   C1A29391  35.219  31.457   8.690
 2089POPC   D2A29392  35.558  31.571   8.383
 2089POPC   C3A29393  35.359  31.652   7.998
 2089POPC   C4A29394  35.096  31.354   7.849
 2089POPC   C1B29395  35.679  31.226   8.785
 2089POPC   C2B29396  35.729  31.066   8.359
 2089POPC   C3B29397  35.607  31.207   7.925
 2089POPC   C4B29398  35.717  31.331   7.458
 2090POPC   NC329399  34.851   4.923   9.475
 2090POPC   PO429400  34.236   5.412   9.612
 2090POPC   GL129401  34.410   5.255   9.191
 2090POPC   GL229402  34.666   4.983   9.026
 2090POPC   C1A29403  34.397   5.276   8.737
 2090POPC   D2A29404  34.590   5.222   8.349
 2090POPC   C3A29405  34.326   5.196   7.991
 2090POPC   C4A29406  34.458   5.020   7.608
 2090POPC   C1B29407  34.907   4.665   8.797
 2090POPC   C2B29408  34.715   4.537   8.427
 2090POPC   C3B29409  34.630   4.764   8.077
 2090POPC   C4B29410  34.782   4.627   7.705
 2091POPC   NC329411  35.991   3.533   9.411
 2091POPC   PO429412  36.619   3.158   9.459
 2091POPC   GL129413  36.537   3.361   9.101
 2091POPC   GL229414  36.402   3.677   9.127
 2091POPC   C1A29415  36.259   3.288   8.754
 2091POPC   D2A29416  36.226   3.099   8.361
 2091POPC   C3A29417  35.927   3.192   8.065
 2091POPC   C4A29418  36.135   3.182   7.675
 2091POPC   C1B29419  36.094   3.764   8.781
 2091POPC   C2B29420  35.965   3.772   8.355
 2091POPC   C3B29421  36.122   3.674   7.939
 2091POPC   C4B29422  36.044   3.639   7.483
 2092POPC   NC329423  35.789  12.125   9.761
 2092POPC   PO429424  35.171  11.910   9.488
 2092POPC   GL129425  35.223  12.024   9.097
 2092POPC   GL229426  35.474  12.249   9.174
 2092POPC   C1A29427  35.138  11.904   8.685
 2092POPC   D2A29428  34.979  12.066   8.327
 2092POPC   C3A29429  35.255  12.075   7.973
 2092POPC   C4A29430  35.313  11.757   7.640
 2092POPC   C1B29431  35.632  12.053   8.792
 2092POPC   C2B29432  35.596  12.090   8.361
 2092POPC   C3B29433  35.744  11.885   7.980
 2092POPC   C4B29434  35.808  12.060   7.574
 2093POPC   NC329435   5.128   0.775   9.552
 2093POPC   PO429436   5.406   0.215   9.498
 2093POPC   GL129437   5.045   0.301   9.183
 2093POPC   GL229438   5.036   0.633   9.071
 2093POPC   C1A29439   5.054   0.288   8.713
 2093POPC   D2A29440   5.190   0.632   8.405
 2093POPC   C3A29441   5.151   0.469   7.999
 2093POPC   C4A29442   5.424   0.265   7.728
 2093POPC   C1B29443   4.813   0.749   8.719
 2093POPC   C2B29444   4.697   0.879   8.301
 2093POPC   C3B29445   4.759   0.776   7.859
 2093POPC   C4B29446   5.122   0.719   7.550
 2094POPC   NC329447  28.816  25.528   9.522
 2094POPC   PO429448  28.232  25.215   9.669
 2094POPC   GL129449  28.401  25.199   9.253
 2094POPC   GL229450  28.351  25.553   9.254
 2094POPC   C1A29451  28.522  25.021   8.831
 2094POPC   D2A29452  28.435  25.177   8.405
 2094POPC   C3A29453  28.497  25.133   7.932
 2094POPC   C4A29454  28.579  25.235   7.461
 2094POPC   C1B29455  28.258  25.487   8.827
 2094POPC   C2B29456  28.361  25.713   8.474
 2094POPC   C3B29457  28.476  25.611   8.095
 2094POPC   C4B29458  28.334  25.598   7.699
 2095POPC   NC329459  23.620  18.391   9.831
 2095POPC   PO429460  23.733  18.962   9.556
 2095POPC   GL129461  23.836  18.973   9.165
 2095POPC   GL229462  23.578  19.155   9.064
 2095POPC   C1A29463  23.785  18.848   8.714
 2095POPC   D2A29464  23.650  18.728   8.304
 2095POPC   C3A29465  23.664  18.996   7.939
 2095POPC   C4A29466  23.669  18.879   7.498
 2095POPC   C1B29467  23.864  19.356   8.800
 2095POPC   C2B29468  24.022  19.439   8.419
 2095POPC   C3B29469  24.011  19.371   8.014
 2095POPC   C4B29470  23.777  19.455   7.686
 2096POPC   NC329471  43.557  33.875   9.634
 2096POPC   PO429472  44.214  33.634   9.605
 2096POPC   GL129473  43.938  33.677   9.231
 2096POPC   GL229474  43.965  33.983   9.067
 2096POPC   C1A29475  43.856  33.583   8.763
 2096POPC   D2A29476  43.964  33.765   8.344
 2096POPC   C3A29477  43.882  33.570   7.942
 2096POPC   C4A29478  43.994  33.673   7.499
 2096POPC   C1B29479  43.559  33.986   8.815
 2096POPC   C2B29480  43.439  33.782   8.404
 2096POPC   C3B29481  43.427  33.809   7.932
 2096POPC   C4B29482  43.500  33.510   7.557
 2097POPC   NC329483  42.219  31.850   9.466
 2097POPC   PO429484  42.112  32.547   9.392
 2097POPC   GL129485  42.321  32.262   9.120
 2097POPC   GL229486  42.638  32.343   8.983
 2097POPC   C1A29487  42.212  32.306   8.699
 2097POPC   D2A29488  41.973  32.369   8.343
 2097POPC   C3A29489  42.129  32.359   7.945
 2097POPC   C4A29490  42.355  32.054   7.761
 2097POPC   C1B29491  42.621  32.016   8.613
 2097POPC   C2B29492  42.762  31.955   8.168
 2097POPC   C3B29493  42.841  32.139   7.756
 2097POPC   C4B29494  42.664  32.063   7.310
 2098POPC   NC329495  18.482  32.095   9.438
 2098POPC   PO429496  17.878  31.958   9.224
 2098POPC   GL129497  18.165  32.212   8.997
 2098POPC   GL229498  18.519  32.226   8.941
 2098POPC   C1A29499  18.125  32.173   8.562
 2098POPC   D2A29500  17.796  32.277   8.320
 2098POPC   C3A29501  17.979  32.215   7.911
 2098POPC   C4A29502  18.364  31.974   7.944
 2098POPC   C1B29503  18.375  32.585   8.680
 2098POPC   C2B29504  18.185  32.625   8.291
 2098POPC   C3B29505  18.423  32.468   7.962
 2098POPC   C4B29506  18.363  32.598   7.589
 2099POPC   NC329507   8.053  15.073   9.528
 2099POPC   PO429508   8.187  15.691   9.490
 2099POPC   GL129509   8.275  15.420   9.131
 2099POPC   GL229510   8.475  15.122   9.252
 2099POPC   C1A29511   8.306  15.402   8.656
 2099POPC   D2A29512   8.555  15.454   8.289
 2099POPC   C3A29513   8.347  15.420   7.902
 2099POPC   C4A29514   7.981  15.484   7.665
 2099POPC   C1B29515   8.293  14.943   8.889
 2099POPC   C2B29516   8.246  14.776   8.463
 2099POPC   C3B29517   8.404  14.904   8.063
 2099POPC   C4B29518   8.294  14.979   7.636
 2100POPC   NC329519   1.338   3.216   9.498
 2100POPC   PO429520   1.405   3.876   9.276
 2100POPC   GL129521   1.116   3.533   9.109
 2100POPC   GL229522   0.913   3.230   9.180
 2100POPC   C1A29523   1.230   3.363   8.719
 2100POPC   D2A29524   1.161   3.642   8.397
 2100POPC   C3A29525   1.382   3.498   8.070
 2100POPC   C4A29526   1.389   3.462   7.627
 2100POPC   C1B29527   0.747   3.398   8.778
 2100POPC   C2B29528   0.837   3.262   8.373
 2100POPC   C3B29529   0.873   3.470   7.966
 2100POPC   C4B29530   0.949   3.149   7.657
 2101POPC   NC329531  12.586  23.250   9.528
 2101POPC   PO429532  12.975  23.868   9.451
 2101POPC   GL129533  12.867  23.704   9.065
 2101POPC   GL229534  12.737  23.381   9.071
 2101POPC   C1A29535  12.883  23.665   8.619
 2101POPC   D2A29536  12.777  23.970   8.377
 2101POPC   C3A29537  12.793  23.845   8.014
 2101POPC   C4A29538  12.807  23.508   7.724
 2101POPC   C1B29539  12.439  23.449   8.745
 2101POPC   C2B29540  12.451  23.562   8.314
 2101POPC   C3B29541  12.390  23.299   7.960
 2101POPC   C4B29542  12.384  23.347   7.514
 2102POPC   NC329543   1.171   6.218   9.718
 2102POPC   PO429544   1.159   6.824   9.705
 2102POPC   GL129545   1.109   6.822   9.185
 2102POPC   GL229546   0.767   6.821   9.217
 2102POPC   C1A29547   1.294   6.616   8.780
 2102POPC   D2A29548   1.535   6.609   8.357
 2102POPC   C3A29549   1.523   6.382   7.953
 2102POPC   C4A29550   1.227   6.413   7.606
 2102POPC   C1B29551   0.755   6.668   8.805
 2102POPC   C2B29552   0.920   6.551   8.427
 2102POPC   C3B29553   0.872   6.570   7.996
 2102POPC   C4B29554   0.869   6.764   7.594
 2103POPC   NC329555   6.103  18.013   9.530
 2103POPC   PO429556   5.808  17.340   9.584
 2103POPC   GL129557   5.996  17.576   9.240
 2103POPC   GL229558   5.854  17.884   9.095
 2103POPC   C1A29559   5.916  17.510   8.786
 2103POPC   D2A29560   5.767  17.651   8.397
 2103POPC   C3A29561   5.961  17.601   8.020
 2103POPC   C4A29562   5.846  17.657   7.588
 2103POPC   C1B29563   5.516  17.878   8.789
 2103POPC   C2B29564   5.338  17.922   8.366
 2103POPC   C3B29565   5.514  17.943   7.906
 2103POPC   C4B29566   5.398  17.921   7.464
 2104POPC   NC329567   4.989  43.191   9.342
 2104POPC   PO429568   5.554  42.771   9.504
 2104POPC   GL129569   5.389  42.900   9.101
 2104POPC   GL229570   5.050  42.750   9.102
 2104POPC   C1A29571   5.205  43.093   8.694
 2104POPC   D2A29572   5.274  43.356   8.307
 2104POPC   C3A29573   5.215  43.138   7.906
 2104POPC   C4A29574   5.564  42.915   7.715
 2104POPC   C1B29575   4.799  42.752   8.741
 2104POPC   C2B29576   4.745  42.909   8.336
 2104POPC   C3B29577   4.776  42.884   7.897
 2104POPC   C4B29578   4.686  43.055   7.462
 2105POPC   NC329579  36.872  21.215   9.607
 2105POPC   PO429580  37.148  21.728   9.348
 2105POPC   GL129581  36.795  21.481   9.152
 2105POPC   GL229582  36.873  21.116   9.120
 2105POPC   C1A29583  36.607  21.314   8.762
 2105POPC   D2A29584  36.935  21.233   8.452
 2105POPC   C3A29585  36.784  21.311   8.043
 2105POPC   C4A29586  36.924  21.485   7.690
 2105POPC   C1B29587  37.250  21.086   8.871
 2105POPC   C2B29588  37.478  21.129   8.472
 2105POPC   C3B29589  37.409  20.987   8.045
 2105POPC   C4B29590  37.339  21.183   7.629
 2106POPC   NC329591  29.245  38.596   9.409
 2106POPC   PO429592  28.753  38.146   9.471
 2106POPC   GL129593  28.843  38.449   9.131
 2106POPC   GL229594  29.064  38.185   9.040
 2106POPC   C1A29595  29.053  38.595   8.751
 2106POPC   D2A29596  29.132  38.335   8.423
 2106POPC   C3A29597  29.170  38.590   8.122
 2106POPC   C4A29598  29.325  38.462   7.762
 2106POPC   C1B29599  28.753  38.156   8.708
 2106POPC   C2B29600  28.694  38.126   8.247
 2106POPC   C3B29601  28.960  38.130   7.891
 2106POPC   C4B29602  28.858  38.139   7.422
 2107POPC   NC329603  21.338  23.372   9.440
 2107POPC   PO429604  21.505  24.025   9.442
 2107POPC   GL129605  21.356  23.777   9.089
 2107POPC   GL229606  21.071  23.526   9.046
 2107POPC   C1A29607  21.302  23.892   8.662
 2107POPC   D2A29608  21.582  23.926   8.287
 2107POPC   C3A29609  21.380  23.900   7.922
 2107POPC   C4A29610  21.630  23.717   7.618
 2107POPC   C1B29611  21.095  23.346   8.672
 2107POPC   C2B29612  21.279  23.506   8.318
 2107POPC   C3B29613  21.399  23.391   7.945
 2107POPC   C4B29614  21.091  23.537   7.677
 2108POPC   NC329615  35.685  10.879   9.467
 2108POPC   PO429616  35.260  10.295   9.494
 2108POPC   GL129617  35.172  10.418   9.119
 2108POPC   GL229618  35.324  10.752   9.124
 2108POPC   C1A29619  35.094  10.585   8.728
 2108POPC   D2A29620  35.324  10.683   8.402
 2108POPC   C3A29621  35.145  10.568   8.055
 2108POPC   C4A29622  35.068  10.294   7.708
 2108POPC   C1B29623  35.631  10.822   8.793
 2108POPC   C2B29624  35.805  10.870   8.357
 2108POPC   C3B29625  35.587  10.866   7.997
 2108POPC   C4B29626  35.465  10.610   7.663
 2109POPC   NC329627  42.770  40.617   9.848
 2109POPC   PO429628  43.433  40.761   9.615
 2109POPC   GL129629  43.191  40.740   9.208
 2109POPC   GL229630  42.911  40.990   9.120
 2109POPC   C1A29631  43.260  40.649   8.765
 2109POPC   D2A29632  43.401  40.870   8.405
 2109POPC   C3A29633  43.227  40.746   8.015
 2109POPC   C4A29634  42.831  40.776   7.780
 2109POPC   C1B29635  43.065  41.125   8.704
 2109POPC   C2B29636  42.966  41.146   8.231
 2109POPC   C3B29637  43.160  41.200   7.799
 2109POPC   C4B29638  43.434  41.009   7.511
 2110POPC   NC329639   4.652  32.804   9.472
 2110POPC   PO429640   4.015  32.889   9.498
 2110POPC   GL129641   4.310  33.145   9.243
 2110POPC   GL229642   4.393  32.861   9.029
 2110POPC   C1A29643   4.475  33.353   8.867
 2110POPC   D2A29644   4.368  33.377   8.442
 2110POPC   C3A29645   4.569  33.406   8.037
 2110POPC   C4A29646   4.773  33.345   7.607
 2110POPC   C1B29647   4.209  32.917   8.621
 2110POPC   C2B29648   4.430  32.928   8.202
 2110POPC   C3B29649   4.387  33.015   7.752
 2110POPC   C4B29650   4.494  32.887   7.321
 2111POPC   NC329651  11.173  21.196   9.369
 2111POPC   PO429652  10.518  21.244   9.441
 2111POPC   GL129653  10.789  21.454   9.177
 2111POPC   GL229654  10.535  21.587   9.020
 2111POPC   C1A29655  10.911  21.371   8.758
 2111POPC   D2A29656  10.624  21.472   8.451
 2111POPC   C3A29657  10.770  21.377   8.025
 2111POPC   C4A29658  10.434  21.307   7.704
 2111POPC   C1B29659  10.260  21.773   8.790
 2111POPC   C2B29660  10.198  21.786   8.399
 2111POPC   C3B29661  10.398  21.721   8.051
 2111POPC   C4B29662  10.295  21.790   7.662
 2112POPC   NC329663   3.017  38.150   9.617
 2112POPC   PO429664   2.695  37.536   9.578
 2112POPC   GL129665   2.563  37.723   9.247
 2112POPC   GL229666   2.868  37.870   9.186
 2112POPC   C1A29667   2.498  37.621   8.842
 2112POPC   D2A29668   2.639  37.796   8.482
 2112POPC   C3A29669   2.414  37.749   8.128
 2112POPC   C4A29670   2.451  37.574   7.733
 2112POPC   C1B29671   3.062  37.825   8.773
 2112POPC   C2B29672   3.218  37.581   8.407
 2112POPC   C3B29673   2.934  37.642   8.076
 2112POPC   C4B29674   2.983  37.676   7.644
 2113POPC   NC329675   5.328  31.247   9.528
 2113POPC   PO429676   4.898  31.794   9.555
 2113POPC   GL129677   4.995  31.554   9.218
 2113POPC   GL229678   4.890  31.183   9.242
 2113POPC   C1A29679   5.109  31.704   8.819
 2113POPC   D2A29680   4.920  31.749   8.425
 2113POPC   C3A29681   5.185  31.685   8.065
 2113POPC   C4A29682   5.053  31.564   7.649
 2113POPC   C1B29683   5.179  31.196   8.891
 2113POPC   C2B29684   5.166  31.300   8.451
 2113POPC   C3B29685   4.999  31.198   8.045
 2113POPC   C4B29686   4.835  31.098   7.656
 2114POPC   NC329687  36.437  20.442   9.498
 2114POPC   PO429688  35.775  20.680   9.443
 2114POPC   GL129689  35.932  20.701   9.043
 2114POPC   GL229690  36.192  20.467   9.067
 2114POPC   C1A29691  35.949  20.474   8.633
 2114POPC   D2A29692  36.125  20.654   8.277
 2114POPC   C3A29693  35.896  20.738   7.924
 2114POPC   C4A29694  35.939  20.975   7.559
 2114POPC   C1B29695  36.474  20.374   8.723
 2114POPC   C2B29696  36.621  20.512   8.328
 2114POPC   C3B29697  36.477  20.657   7.888
 2114POPC   C4B29698  36.267  20.590   7.477
 2115POPC   NC329699  21.193   6.214   9.619
 2115POPC   PO429700  21.626   6.782   9.477
 2115POPC   GL129701  21.450   6.644   9.135
 2115POPC   GL229702  21.160   6.549   9.207
 2115POPC   C1A29703  21.492   6.879   8.762
 2115POPC   D2A29704  21.406   6.714   8.379
 2115POPC   C3A29705  21.579   6.909   8.037
 2115POPC   C4A29706  21.600   6.938   7.614
 2115POPC   C1B29707  21.016   6.745   8.791
 2115POPC   C2B29708  20.901   6.665   8.370
 2115POPC   C3B29709  21.087   6.613   7.950
 2115POPC   C4B29710  21.061   6.789   7.537
 2116POPC   NC329711  35.423  18.572   9.576
 2116POPC   PO429712  34.842  18.177   9.552
 2116POPC   GL129713  35.210  18.273   9.204
 2116POPC   GL229714  35.555  18.520   9.104
 2116POPC   C1A29715  35.121  18.069   8.815
 2116POPC   D2A29716  35.310  17.927   8.444
 2116POPC   C3A29717  35.307  18.125   8.053
 2116POPC   C4A29718  35.551  18.042   7.662
 2116POPC   C1B29719  35.490  18.396   8.706
 2116POPC   C2B29720  35.512  18.562   8.327
 2116POPC   C3B29721  35.656  18.491   7.939
 2116POPC   C4B29722  35.451  18.523   7.549
 2117POPC   NC329723   7.496  28.918   9.507
 2117POPC   PO429724   7.152  28.269   9.530
 2117POPC   GL129725   7.208  28.588   9.192
 2117POPC   GL229726   7.574  28.571   9.137
 2117POPC   C1A29727   7.300  28.636   8.722
 2117POPC   D2A29728   7.734  28.625   8.499
 2117POPC   C3A29729   7.717  28.528   8.038
 2117POPC   C4A29730   7.560  28.529   7.576
 2117POPC   C1B29731   7.612  28.239   8.813
 2117POPC   C2B29732   7.425  28.220   8.359
 2117POPC   C3B29733   7.295  28.244   7.900
 2117POPC   C4B29734   7.347  28.085   7.444
 2118POPC   NC329735  19.294  12.277   9.516
 2118POPC   PO429736  19.856  11.841   9.538
 2118POPC   GL129737  19.673  12.095   9.179
 2118POPC   GL229738  19.484  12.398   9.084
 2118POPC   C1A29739  19.716  12.070   8.733
 2118POPC   D2A29740  20.053  12.027   8.464
 2118POPC   C3A29741  19.888  12.170   8.062
 2118POPC   C4A29742  20.015  12.262   7.655
 2118POPC   C1B29743  19.304  12.354   8.699
 2118POPC   C2B29744  19.520  12.446   8.330
 2118POPC   C3B29745  19.387  12.278   7.949
 2118POPC   C4B29746  19.576  12.029   7.637
 2119POPC   NC329747  11.440   4.661   9.504
 2119POPC   PO429748  11.112   5.224   9.544
 2119POPC   GL129749  11.249   5.224   9.121
 2119POPC   GL229750  11.365   4.928   9.081
 2119POPC   C1A29751  11.347   5.337   8.704
 2119POPC   D2A29752  11.196   5.145   8.308
 2119POPC   C3A29753  11.321   5.227   7.842
 2119POPC   C4A29754  11.300   5.178   7.363
 2119POPC   C1B29755  11.247   4.735   8.714
 2119POPC   C2B29756  11.122   4.635   8.304
 2119POPC   C3B29757  11.171   4.715   7.841
 2119POPC   C4B29758  10.929   4.726   7.443
 2120POPC   NC329759  31.421   0.553   9.876
 2120POPC   PO429760  31.786   0.216   9.467
 2120POPC   GL129761  31.680   0.318   9.082
 2120POPC   GL229762  31.523   0.596   9.192
 2120POPC   C1A29763  31.514   0.202   8.694
 2120POPC   D2A29764  31.212   0.357   8.419
 2120POPC   C3A29765  31.384   0.453   8.031
 2120POPC   C4A29766  31.255   0.510   7.628
 2120POPC   C1B29767  31.394   0.745   8.790
 2120POPC   C2B29768  31.558   0.819   8.359
 2120POPC   C3B29769  31.773   0.772   7.933
 2120POPC   C4B29770  31.707   0.677   7.452
 2121POPC   NC329771  21.230  43.332   9.606
 2121POPC   PO429772  21.836  43.322   9.361
 2121POPC   GL129773  21.624  43.228   9.026
 2121POPC   GL229774  21.290  43.154   9.033
 2121POPC   C1A29775  21.547  43.252   8.575
 2121POPC   D2A29776  21.324  43.175   8.241
 2121POPC   C3A29777  21.481  43.296   7.838
 2121POPC   C4A29778  21.207  43.553   7.626
 2121POPC   C1B29779  21.373  42.805   8.703
 2121POPC   C2B29780  21.219  42.660   8.313
 2121POPC   C3B29781  21.386  42.801   7.927
 2121POPC   C4B29782  21.691  42.692   7.691
 2122POPC   NC329783  41.547  20.445   9.639
 2122POPC   PO429784  41.573  19.736   9.574
 2122POPC   GL129785  41.388  20.002   9.262
 2122POPC   GL229786  41.660  19.914   9.085
 2122POPC   C1A29787  41.288  20.075   8.796
 2122POPC   D2A29788  41.468  19.852   8.442
 2122POPC   C3A29789  41.387  19.986   8.031
 2122POPC   C4A29790  41.458  19.920   7.639
 2122POPC   C1B29791  41.860  19.741   8.773
 2122POPC   C2B29792  41.993  19.871   8.410
 2122POPC   C3B29793  41.817  19.749   8.053
 2122POPC   C4B29794  41.943  19.739   7.650
 2123POPC   NC329795  39.787   0.528   9.436
 2123POPC   PO429796  40.367   0.773   9.650
 2123POPC   GL129797  40.246   0.668   9.214
 2123POPC   GL229798  40.243   0.311   9.163
 2123POPC   C1A29799  40.158   0.591   8.741
 2123POPC   D2A29800  40.217   0.714   8.316
 2123POPC   C3A29801  40.109   0.491   7.931
 2123POPC   C4A29802  39.896   0.543   7.508
 2123POPC   C1B29803  40.390   0.137   8.770
 2123POPC   C2B29804  40.340   0.228   8.333
 2123POPC   C3B29805  40.388   0.058   7.919
 2123POPC   C4B29806  40.090   0.090   7.568
 2124POPC   NC329807  24.659   5.267   9.714
 2124POPC   PO429808  24.189   4.819   9.557
 2124POPC   GL129809  24.488   5.011   9.265
 2124POPC   GL229810  24.332   5.350   9.288
 2124POPC   C1A29811  24.640   4.996   8.788
 2124POPC   D2A29812  24.530   4.848   8.338
 2124POPC   C3A29813  24.724   5.021   7.942
 2124POPC   C4A29814  24.752   5.002   7.432
 2124POPC   C1B29815  24.174   5.137   8.907
 2124POPC   C2B29816  24.155   5.198   8.467
 2124POPC   C3B29817  24.162   5.088   8.063
 2124POPC   C4B29818  24.282   5.066   7.651
 2125POPC   NC329819  31.621   2.207   9.584
 2125POPC   PO429820  31.292   1.627   9.465
 2125POPC   GL129821  31.364   1.962   9.201
 2125POPC   GL229822  31.703   1.942   9.157
 2125POPC   C1A29823  31.365   1.869   8.773
 2125POPC   D2A29824  31.113   1.888   8.421
 2125POPC   C3A29825  31.365   1.731   8.100
 2125POPC   C4A29826  31.361   1.807   7.698
 2125POPC   C1B29827  31.764   2.268   8.866
 2125POPC   C2B29828  31.556   2.258   8.474
 2125POPC   C3B29829  31.625   2.183   8.061
 2125POPC   C4B29830  31.884   2.442   7.859
 2126POPC   NC329831  29.775  16.355   9.286
 2126POPC   PO429832  29.616  17.028   9.247
 2126POPC   GL129833  29.908  17.007   8.928
 2126POPC   GL229834  30.044  16.736   9.087
 2126POPC   C1A29835  29.820  16.938   8.512
 2126POPC   D2A29836  29.742  16.547   8.325
 2126POPC   C3A29837  29.914  16.634   7.964
 2126POPC   C4A29838  29.790  16.970   7.718
 2126POPC   C1B29839  30.181  16.630   8.678
 2126POPC   C2B29840  30.325  16.953   8.391
 2126POPC   C3B29841  30.264  17.022   7.963
 2126POPC   C4B29842  30.288  16.723   7.634
 2127POPC   NC329843   0.942  18.823   9.447
 2127POPC   PO429844   1.403  19.334   9.543
 2127POPC   GL129845   1.265  19.141   9.175
 2127POPC   GL229846   1.188  18.809   9.021
 2127POPC   C1A29847   1.319  19.238   8.762
 2127POPC   D2A29848   1.288  18.916   8.499
 2127POPC   C3A29849   1.210  18.983   8.072
 2127POPC   C4A29850   1.295  19.361   7.865
 2127POPC   C1B29851   0.877  19.030   8.806
 2127POPC   C2B29852   0.832  19.172   8.408
 2127POPC   C3B29853   0.696  19.090   8.006
 2127POPC   C4B29854   0.895  19.152   7.622
 2128POPC   NC329855  30.100  34.795   9.406
 2128POPC   PO429856  30.670  34.627   9.627
 2128POPC   GL129857  30.702  34.580   9.179
 2128POPC   GL229858  30.334  34.508   9.072
 2128POPC   C1A29859  30.941  34.510   8.750
 2128POPC   D2A29860  31.136  34.689   8.345
 2128POPC   C3A29861  30.927  34.574   7.947
 2128POPC   C4A29862  30.795  34.235   7.637
 2128POPC   C1B29863  30.484  34.739   8.736
 2128POPC   C2B29864  30.619  34.656   8.349
 2128POPC   C3B29865  30.410  34.665   7.997
 2128POPC   C4B29866  30.284  34.887   7.661
 2129POPC   NC329867  14.697  24.827   9.740
 2129POPC   PO429868  15.214  25.233   9.363
 2129POPC   GL129869  15.217  25.093   8.962
 2129POPC   GL229870  14.912  25.328   8.903
 2129POPC   C1A29871  15.189  25.137   8.533
 2129POPC   D2A29872  14.892  25.122   8.239
 2129POPC   C3A29873  15.153  24.934   7.989
 2129POPC   C4A29874  15.409  25.051   7.663
 2129POPC   C1B29875  15.293  25.575   8.793
 2129POPC   C2B29876  15.484  25.565   8.410
 2129POPC   C3B29877  15.324  25.432   8.029
 2129POPC   C4B29878  14.990  25.357   7.770
 2130POPC   NC329879   5.277   1.669   9.974
 2130POPC   PO429880   5.006   1.205   9.670
 2130POPC   GL129881   4.996   1.133   9.205
 2130POPC   GL229882   4.795   1.426   9.130
 2130POPC   C1A29883   5.254   1.006   8.816
 2130POPC   D2A29884   5.241   1.186   8.405
 2130POPC   C3A29885   5.200   0.998   8.012
 2130POPC   C4A29886   5.441   1.145   7.660
 2130POPC   C1B29887   4.824   1.254   8.709
 2130POPC   C2B29888   4.784   1.385   8.288
 2130POPC   C3B29889   4.689   1.300   7.855
 2130POPC   C4B29890   4.637   1.631   7.530
 2131POPC   NC329891  13.702  33.207   9.462
 2131POPC   PO429892  13.885  32.614   9.198
 2131POPC   GL129893  13.726  32.956   8.964
 2131POPC   GL229894  13.456  33.229   9.022
 2131POPC   C1A29895  13.463  32.848   8.598
 2131POPC   D2A29896  13.380  32.740   8.175
 2131POPC   C3A29897  13.702  32.810   7.891
 2131POPC   C4A29898  13.832  33.223   7.725
 2131POPC   C1B29899  13.623  33.341   8.628
 2131POPC   C2B29900  13.513  33.250   8.213
 2131POPC   C3B29901  13.311  33.148   7.847
 2131POPC   C4B29902  13.346  33.358   7.490
 2132POPC   NC329903  40.953   3.566   9.470
 2132POPC   PO429904  40.301   3.911   9.407
 2132POPC   GL129905  40.624   3.774   9.087
 2132POPC   GL229906  40.719   3.397   9.057
 2132POPC   C1A29907  40.674   3.659   8.657
 2132POPC   D2A29908  40.814   3.544   8.256
 2132POPC   C3A29909  40.521   3.612   7.905
 2132POPC   C4A29910  40.515   3.970   7.604
 2132POPC   C1B29911  41.007   3.271   8.734
 2132POPC   C2B29912  41.274   3.205   8.402
 2132POPC   C3B29913  41.166   3.287   7.994
 2132POPC   C4B29914  41.027   3.661   7.778
 2133POPC   NC329915  11.173  30.295   9.362
 2133POPC   PO429916  11.193  30.944   9.525
 2133POPC   GL129917  11.312  30.740   9.140
 2133POPC   GL229918  10.994  30.689   9.024
 2133POPC   C1A29919  11.411  30.918   8.747
 2133POPC   D2A29920  11.255  31.024   8.340
 2133POPC   C3A29921  11.178  30.696   8.054
 2133POPC   C4A29922  11.434  30.629   7.658
 2133POPC   C1B29923  11.061  30.552   8.590
 2133POPC   C2B29924  10.883  30.268   8.265
 2133POPC   C3B29925  10.886  30.335   7.824
 2133POPC   C4B29926  10.926  30.735   7.569
 2134POPC   NC329927   3.696  30.489   9.579
 2134POPC   PO429928   3.269  31.060   9.478
 2134POPC   GL129929   3.467  30.775   9.185
 2134POPC   GL229930   3.788  30.784   9.147
 2134POPC   C1A29931   3.484  30.613   8.758
 2134POPC   D2A29932   3.344  30.859   8.405
 2134POPC   C3A29933   3.460  30.781   7.975
 2134POPC   C4A29934   3.415  31.075   7.644
 2134POPC   C1B29935   3.980  30.699   8.769
 2134POPC   C2B29936   3.840  30.707   8.348
 2134POPC   C3B29937   3.983  30.764   7.926
 2134POPC   C4B29938   3.902  30.637   7.528
 2135POPC   NC329939  13.937  40.079   9.505
 2135POPC   PO429940  13.284  40.152   9.221
 2135POPC   GL129941  13.650  40.015   9.066
 2135POPC   GL229942  13.905  40.238   9.007
 2135POPC   C1A29943  13.719  39.963   8.635
 2135POPC   D2A29944  13.849  39.726   8.330
 2135POPC   C3A29945  13.589  39.864   8.045
 2135POPC   C4A29946  13.621  39.875   7.641
 2135POPC   C1B29947  14.092  40.330   8.628
 2135POPC   C2B29948  14.033  40.193   8.216
 2135POPC   C3B29949  13.900  40.280   7.800
 2135POPC   C4B29950  13.843  40.391   7.350
 2136POPC   NC329951  15.353  15.291   9.731
 2136POPC   PO429952  14.814  15.174   9.425
 2136POPC   GL129953  15.229  14.990   9.289
 2136POPC   GL229954  15.081  14.839   9.032
 2136POPC   C1A29955  15.547  14.998   8.900
 2136POPC   D2A29956  15.681  15.029   8.411
 2136POPC   C3A29957  15.440  15.230   8.046
 2136POPC   C4A29958  15.030  15.362   7.881
 2136POPC   C1B29959  15.163  14.799   8.598
 2136POPC   C2B29960  15.001  14.919   8.224
 2136POPC   C3B29961  15.138  14.846   7.833
 2136POPC   C4B29962  14.996  14.896   7.438
 2137POPC   NC329963  19.855  32.063   9.487
 2137POPC   PO429964  19.567  32.692   9.494
 2137POPC   GL129965  19.750  32.422   9.142
 2137POPC   GL229966  20.125  32.420   9.224
 2137POPC   C1A29967  19.703  32.029   8.828
 2137POPC   D2A29968  19.505  31.959   8.409
 2137POPC   C3A29969  19.774  32.088   8.048
 2137POPC   C4A29970  19.717  32.452   7.795
 2137POPC   C1B29971  20.181  32.185   8.850
 2137POPC   C2B29972  20.159  32.188   8.394
 2137POPC   C3B29973  20.196  32.369   7.953
 2137POPC   C4B29974  20.055  32.173   7.545
 2138POPC   NC329975  35.627  23.391   9.490
 2138POPC   PO429976  36.190  23.905   9.595
 2138POPC   GL129977  36.086  23.837   9.171
 2138POPC   GL229978  35.886  23.575   9.084
 2138POPC   C1A29979  36.338  23.761   8.775
 2138POPC   D2A29980  36.500  24.008   8.426
 2138POPC   C3A29981  36.411  23.786   8.059
 2138POPC   C4A29982  36.219  23.831   7.634
 2138POPC   C1B29983  35.736  23.712   8.686
 2138POPC   C2B29984  35.651  23.927   8.282
 2138POPC   C3B29985  35.741  23.814   7.833
 2138POPC   C4B29986  35.855  23.550   7.438
 2139POPC   NC329987  31.109   9.161   9.499
 2139POPC   PO429988  30.491   9.006   9.481
 2139POPC   GL129989  30.700   8.804   9.165
 2139POPC   GL229990  30.828   9.091   9.031
 2139POPC   C1A29991  30.704   8.703   8.726
 2139POPC   D2A29992  30.499   8.749   8.320
 2139POPC   C3A29993  30.600   8.966   7.941
 2139POPC   C4A29994  30.594   8.852   7.498
 2139POPC   C1B29995  30.810   9.173   8.576
 2139POPC   C2B29996  31.020   8.930   8.271
 2139POPC   C3B29997  31.097   8.935   7.834
 2139POPC   C4B29998  31.033   9.069   7.407
 2140POPC   NC329999  36.321  44.579   9.659
 2140POPC   PO430000  35.702  44.519   9.488
 2140POPC   GL130001  36.075  44.490   9.199
 2140POPC   GL230002  36.361  44.748   9.159
 2140POPC   C1A30003  36.183  44.404   8.757
 2140POPC   D2A30004  36.097  44.234   8.343
 2140POPC   C3A30005  35.835  44.351   8.058
 2140POPC   C4A30006  36.036  44.387   7.692
 2140POPC   C1B30007  36.212  44.915   8.754
 2140POPC   C2B30008  36.108  44.747   8.327
 2140POPC   C3B30009  36.019  44.886   7.897
 2140POPC   C4B30010  36.258   0.009   7.519
 2141POPC   NC330011   2.464  44.976   9.491
 2141POPC   PO430012   2.080  44.396   9.559
 2141POPC   GL130013   2.178  44.462   9.151
 2141POPC   GL230014   2.160  44.821   9.109
 2141POPC   C1A30015   2.249  44.506   8.714
 2141POPC   D2A30016   2.152  44.691   8.300
 2141POPC   C3A30017   1.839  44.429   8.067
 2141POPC   C4A30018   1.871  44.243   7.672
 2141POPC   C1B30019   1.811  44.773   8.820
 2141POPC   C2B30020   1.673  44.831   8.401
 2141POPC   C3B30021   1.813  44.917   7.974
 2141POPC   C4B30022   1.621  44.713   7.614
 2142POPC   NC330023  26.497  24.908   9.426
 2142POPC   PO430024  27.142  24.537   9.335
 2142POPC   GL130025  26.902  24.473   9.026
 2142POPC   GL230026  26.765  24.780   9.028
 2142POPC   C1A30027  26.972  24.372   8.631
 2142POPC   D2A30028  27.119  24.500   8.232
 2142POPC   C3A30029  26.822  24.370   7.891
 2142POPC   C4A30030  26.420  24.427   7.658
 2142POPC   C1B30031  26.909  24.949   8.654
 2142POPC   C2B30032  26.849  25.081   8.225
 2142POPC   C3B30033  27.008  24.847   7.854
 2142POPC   C4B30034  26.792  24.737   7.456
 2143POPC   NC330035   4.792  20.736   9.465
 2143POPC   PO430036   5.188  20.144   9.498
 2143POPC   GL130037   5.139  20.417   9.160
 2143POPC   GL230038   4.792  20.345   9.133
 2143POPC   C1A30039   5.118  20.716   8.804
 2143POPC   D2A30040   5.237  20.880   8.397
 2143POPC   C3A30041   5.355  20.541   8.122
 2143POPC   C4A30042   5.277  20.514   7.709
 2143POPC   C1B30043   4.719  20.335   8.719
 2143POPC   C2B30044   4.902  20.476   8.374
 2143POPC   C3B30045   4.832  20.592   7.967
 2143POPC   C4B30046   4.797  20.327   7.631
 2144POPC   NC330047  34.949  25.349   9.586
 2144POPC   PO430048  34.338  24.940   9.519
 2144POPC   GL130049  34.547  25.035   9.087
 2144POPC   GL230050  34.734  25.356   9.112
 2144POPC   C1A30051  34.802  25.154   8.670
 2144POPC   D2A30052  34.763  25.447   8.348
 2144POPC   C3A30053  34.712  25.304   7.967
 2144POPC   C4A30054  34.415  25.323   7.725
 2144POPC   C1B30055  34.488  25.542   8.764
 2144POPC   C2B30056  34.106  25.574   8.523
 2144POPC   C3B30057  34.080  25.570   8.088
 2144POPC   C4B30058  34.002  25.605   7.669
 2145POPC   NC330059  28.951  37.657   9.570
 2145POPC   PO430060  29.355  38.148   9.457
 2145POPC   GL130061  29.477  37.862   9.132
 2145POPC   GL230062  29.249  37.579   9.150
 2145POPC   C1A30063  29.386  37.988   8.701
 2145POPC   D2A30064  29.540  38.054   8.275
 2145POPC   C3A30065  29.381  37.770   7.953
 2145POPC   C4A30066  29.309  37.941   7.552
 2145POPC   C1B30067  28.966  37.706   8.809
 2145POPC   C2B30068  29.043  37.780   8.376
 2145POPC   C3B30069  28.800  37.658   8.036
 2145POPC   C4B30070  28.891  37.687   7.650
 2146POPC   NC330071  16.207  28.097   9.608
 2146POPC   PO430072  15.928  28.639   9.501
 2146POPC   GL130073  15.885  28.272   9.235
 2146POPC   GL230074  16.196  28.189   9.065
 2146POPC   C1A30075  15.764  28.163   8.810
 2146POPC   D2A30076  15.607  28.361   8.434
 2146POPC   C3A30077  15.856  28.238   8.125
 2146POPC   C4A30078  15.903  28.229   7.696
 2146POPC   C1B30079  16.043  28.597   8.819
 2146POPC   C2B30080  15.970  28.761   8.359
 2146POPC   C3B30081  16.123  28.651   7.923
 2146POPC   C4B30082  16.407  28.424   7.636
 2147POPC   NC330083  34.183  33.816   9.313
 2147POPC   PO430084  33.728  33.342   9.537
 2147POPC   GL130085  33.661  33.702   9.214
 2147POPC   GL230086  33.733  34.096   9.226
 2147POPC   C1A30087  33.579  33.887   8.788
 2147POPC   D2A30088  33.421  33.977   8.378
 2147POPC   C3A30089  33.684  33.900   8.000
 2147POPC   C4A30090  33.785  33.845   7.553
 2147POPC   C1B30091  33.984  34.201   8.831
 2147POPC   C2B30092  33.939  34.064   8.426
 2147POPC   C3B30093  33.989  34.320   8.076
 2147POPC   C4B30094  33.805  34.359   7.700
 2148POPC   NC330095  19.178  21.664   9.447
 2148POPC   PO430096  18.808  21.072   9.609
 2148POPC   GL130097  18.987  21.251   9.215
 2148POPC   GL230098  18.820  21.575   9.053
 2148POPC   C1A30099  19.168  21.229   8.813
 2148POPC   D2A30100  18.917  21.390   8.490
 2148POPC   C3A30101  18.982  21.276   8.076
 2148POPC   C4A30102  18.977  21.253   7.602
 2148POPC   C1B30103  19.151  21.761   8.773
 2148POPC   C2B30104  19.308  21.664   8.318
 2148POPC   C3B30105  19.176  21.665   7.846
 2148POPC   C4B30106  19.313  21.589   7.385
 2149POPC   NC330107  34.420  37.765   9.455
 2149POPC   PO430108  35.108  37.728   9.346
 2149POPC   GL130109  34.758  37.749   9.084
 2149POPC   GL230110  34.654  37.409   9.171
 2149POPC   C1A30111  34.465  37.599   8.737
 2149POPC   D2A30112  34.452  37.518   8.309
 2149POPC   C3A30113  34.510  37.851   8.015
 2149POPC   C4A30114  34.416  37.810   7.600
 2149POPC   C1B30115  34.906  37.323   8.844
 2149POPC   C2B30116  35.013  37.424   8.439
 2149POPC   C3B30117  34.897  37.451   8.058
 2149POPC   C4B30118  34.885  37.669   7.714
 2150POPC   NC330119  32.722  31.604   9.444
 2150POPC   PO430120  33.382  31.710   9.531
 2150POPC   GL130121  33.134  31.529   9.166
 2150POPC   GL230122  33.213  31.177   9.073
 2150POPC   C1A30123  32.940  31.443   8.742
 2150POPC   D2A30124  33.106  31.251   8.349
 2150POPC   C3A30125  32.899  31.406   7.949
 2150POPC   C4A30126  32.844  31.841   7.760
 2150POPC   C1B30127  33.523  30.983   8.787
 2150POPC   C2B30128  33.602  31.051   8.326
 2150POPC   C3B30129  33.364  31.173   7.899
 2150POPC   C4B30130  33.204  31.200   7.428
 2151POPC   NC330131   7.958  37.991   9.541
 2151POPC   PO430132   8.133  38.678   9.548
 2151POPC   GL130133   8.263  38.424   9.234
 2151POPC   GL230134   7.987  38.245   9.110
 2151POPC   C1A30135   8.385  38.523   8.830
 2151POPC   D2A30136   8.543  38.677   8.511
 2151POPC   C3A30137   8.379  38.671   8.109
 2151POPC   C4A30138   8.360  38.490   7.688
 2151POPC   C1B30139   8.137  38.113   8.749
 2151POPC   C2B30140   8.072  38.404   8.430
 2151POPC   C3B30141   8.014  38.315   8.017
 2151POPC   C4B30142   8.169  38.026   7.784
 2152POPC   NC330143  34.633  19.617   9.576
 2152POPC   PO430144  34.291  20.130   9.694
 2152POPC   GL130145  34.450  20.133   9.186
 2152POPC   GL230146  34.778  19.935   9.167
 2152POPC   C1A30147  34.451  20.030   8.724
 2152POPC   D2A30148  34.404  19.735   8.346
 2152POPC   C3A30149  34.391  19.879   7.912
 2152POPC   C4A30150  34.571  20.234   7.706
 2152POPC   C1B30151  34.714  19.607   8.840
 2152POPC   C2B30152  34.827  19.410   8.452
 2152POPC   C3B30153  34.786  19.521   8.035
 2152POPC   C4B30154  34.854  19.774   7.685
 2153POPC   NC330155   0.566  44.896   9.531
 2153POPC   PO430156   0.088  44.492   9.454
 2153POPC   GL130157   0.288  44.729   9.127
 2153POPC   GL230158   0.632  44.659   9.087
 2153POPC   C1A30159   0.302  44.586   8.697
 2153POPC   D2A30160   0.134  44.407   8.319
 2153POPC   C3A30161   0.404  44.449   7.977
 2153POPC   C4A30162   0.306  44.607   7.566
 2153POPC   C1B30163   0.783  44.807   8.725
 2153POPC   C2B30164   0.633  44.756   8.320
 2153POPC   C3B30165   0.678  44.857   7.879
 2153POPC   C4B30166   0.732  44.837   7.408
 2154POPC   NC330167  32.090  20.427   9.463
 2154POPC   PO430168  32.596  20.803   9.649
 2154POPC   GL130169  32.592  20.704   9.227
 2154POPC   GL230170  32.778  21.019   9.186
 2154POPC   C1A30171  32.313  20.646   8.838
 2154POPC   D2A30172  32.174  20.703   8.376
 2154POPC   C3A30173  32.079  20.402   8.015
 2154POPC   C4A30174  31.925  20.345   7.554
 2154POPC   C1B30175  32.817  20.824   8.786
 2154POPC   C2B30176  32.666  20.867   8.402
 2154POPC   C3B30177  32.524  20.852   7.990
 2154POPC   C4B30178  32.388  20.604   7.665
 2155POPC   NC330179  34.948  41.712   9.395
 2155POPC   PO430180  34.266  41.630   9.449
 2155POPC   GL130181  34.511  41.667   9.088
 2155POPC   GL230182  34.260  41.879   8.975
 2155POPC   C1A30183  34.671  41.441   8.721
 2155POPC   D2A30184  34.804  41.377   8.268
 2155POPC   C3A30185  34.737  41.727   7.950
 2155POPC   C4A30186  34.982  41.805   7.549
 2155POPC   C1B30187  34.138  41.883   8.604
 2155POPC   C2B30188  34.381  41.644   8.349
 2155POPC   C3B30189  34.323  41.357   8.043
 2155POPC   C4B30190  34.363  41.535   7.663
 2156POPC   NC330191   1.066  39.123   9.579
 2156POPC   PO430192   1.164  38.495   9.622
 2156POPC   GL130193   1.231  38.482   9.139
 2156POPC   GL230194   1.568  38.313   9.057
 2156POPC   C1A30195   1.190  38.371   8.706
 2156POPC   D2A30196   1.238  38.124   8.343
 2156POPC   C3A30197   0.932  38.227   8.028
 2156POPC   C4A30198   0.665  38.446   7.702
 2156POPC   C1B30199   1.693  38.334   8.615
 2156POPC   C2B30200   1.484  38.540   8.243
 2156POPC   C3B30201   1.391  38.362   7.845
 2156POPC   C4B30202   1.741  38.098   7.714
 2157POPC   NC330203  18.636  33.769   9.454
 2157POPC   PO430204  18.057  33.492   9.498
 2157POPC   GL130205  18.225  33.441   9.112
 2157POPC   GL230206  18.288  33.779   9.082
 2157POPC   C1A30207  18.329  33.460   8.671
 2157POPC   D2A30208  18.308  33.834   8.433
 2157POPC   C3A30209  18.304  33.807   7.998
 2157POPC   C4A30210  18.202  33.533   7.660
 2157POPC   C1B30211  18.051  34.035   8.856
 2157POPC   C2B30212  17.953  34.249   8.502
 2157POPC   C3B30213  18.020  34.219   8.094
 2157POPC   C4B30214  17.926  34.016   7.719
 2158POPC   NC330215   5.315  36.084   9.670
 2158POPC   PO430216   6.003  36.128   9.591
 2158POPC   GL130217   6.007  36.139   9.043
 2158POPC   GL230218   6.022  35.800   8.855
 2158POPC   C1A30219   5.689  36.109   8.633
 2158POPC   D2A30220   5.401  36.039   8.275
 2158POPC   C3A30221   5.575  36.205   7.887
 2158POPC   C4A30222   5.744  36.137   7.444
 2158POPC   C1B30223   6.214  36.057   8.562
 2158POPC   C2B30224   5.995  36.156   8.208
 2158POPC   C3B30225   6.074  36.305   7.831
 2158POPC   C4B30226   6.293  36.024   7.651
 2159POPC   NC330227  23.271  18.949   9.420
 2159POPC   PO430228  22.620  19.106   9.552
 2159POPC   GL130229  22.761  19.021   9.134
 2159POPC   GL230230  23.047  19.218   9.031
 2159POPC   C1A30231  22.790  18.992   8.681
 2159POPC   D2A30232  23.026  19.273   8.406
 2159POPC   C3A30233  22.973  19.204   7.986
 2159POPC   C4A30234  22.695  19.364   7.687
 2159POPC   C1B30235  23.275  18.920   8.726
 2159POPC   C2B30236  23.125  18.760   8.303
 2159POPC   C3B30237  23.241  18.727   7.845
 2159POPC   C4B30238  23.183  18.756   7.383
 2160POPC   NC330239  43.083  44.137   9.507
 2160POPC   PO430240  43.400  43.635   9.733
 2160POPC   GL130241  43.147  43.683   9.260
 2160POPC   GL230242  43.088  44.005   9.026
 2160POPC   C1A30243  43.089  43.602   8.762
 2160POPC   D2A30244  43.255  43.873   8.410
 2160POPC   C3A30245  43.067  43.820   8.008
 2160POPC   C4A30246  43.213  43.777   7.598
 2160POPC   C1B30247  42.957  44.236   8.638
 2160POPC   C2B30248  42.911  44.250   8.219
 2160POPC   C3B30249  42.866  44.256   7.799
 2160POPC   C4B30250  42.984  44.239   7.375
 2161POPC   NC330251  23.265  15.830   9.533
 2161POPC   PO430252  22.650  16.084   9.524
 2161POPC   GL130253  22.959  16.005   9.138
 2161POPC   GL230254  23.137  15.663   9.073
 2161POPC   C1A30255  23.010  15.913   8.663
 2161POPC   D2A30256  23.133  16.151   8.304
 2161POPC   C3A30257  22.855  16.096   7.978
 2161POPC   C4A30258  22.665  15.839   7.677
 2161POPC   C1B30259  23.442  15.614   8.743
 2161POPC   C2B30260  23.326  15.555   8.344
 2161POPC   C3B30261  23.238  15.740   7.995
 2161POPC   C4B30262  23.519  15.663   7.696
 2162POPC   NC330263  13.164  24.294   9.383
 2162POPC   PO430264  12.552  24.549   9.420
 2162POPC   GL130265  12.799  24.517   9.069
 2162POPC   GL230266  13.118  24.689   9.057
 2162POPC   C1A30267  12.975  24.226   8.772
 2162POPC   D2A30268  13.172  24.308   8.375
 2162POPC   C3A30269  12.846  24.403   8.136
 2162POPC   C4A30270  12.623  24.324   7.796
 2162POPC   C1B30271  12.943  24.724   8.621
 2162POPC   C2B30272  12.672  24.863   8.270
 2162POPC   C3B30273  12.862  24.817   7.849
 2162POPC   C4B30274  13.254  24.542   7.826
 2163POPC   NC330275  42.471  16.686   9.848
 2163POPC   PO430276  43.090  16.609   9.643
 2163POPC   GL130277  43.053  16.659   9.192
 2163POPC   GL230278  42.978  16.345   9.006
 2163POPC   C1A30279  43.100  16.764   8.754
 2163POPC   D2A30280  42.836  16.807   8.385
 2163POPC   C3A30281  43.062  16.538   8.149
 2163POPC   C4A30282  43.237  16.876   7.972
 2163POPC   C1B30283  42.747  16.395   8.653
 2163POPC   C2B30284  42.547  16.390   8.282
 2163POPC   C3B30285  42.656  16.437   7.877
 2163POPC   C4B30286  43.052  16.579   7.605
 2164POPC   NC330287  18.620  10.630   9.404
 2164POPC   PO430288  19.144  10.290   9.458
 2164POPC   GL130289  18.976  10.463   9.066
 2164POPC   GL230290  19.004  10.834   9.088
 2164POPC   C1A30291  19.075  10.453   8.622
 2164POPC   D2A30292  19.239  10.147   8.312
 2164POPC   C3A30293  19.196  10.302   7.886
 2164POPC   C4A30294  19.031  10.676   7.616
 2164POPC   C1B30295  19.436  10.743   8.879
 2164POPC   C2B30296  19.546  10.609   8.441
 2164POPC   C3B30297  19.416  10.739   8.035
 2164POPC   C4B30298  19.537  10.597   7.612
 2165POPC   NC330299  39.327  42.643   9.451
 2165POPC   PO430300  39.088  42.019   9.459
 2165POPC   GL130301  39.391  42.148   9.136
 2165POPC   GL230302  39.168  42.399   9.024
 2165POPC   C1A30303  39.595  42.089   8.752
 2165POPC   D2A30304  39.230  42.211   8.529
 2165POPC   C3A30305  39.204  42.274   8.105
 2165POPC   C4A30306  39.020  42.155   7.725
 2165POPC   C1B30307  39.507  42.578   8.787
 2165POPC   C2B30308  39.672  42.457   8.364
 2165POPC   C3B30309  39.569  42.628   7.957
 2165POPC   C4B30310  39.315  42.597   7.587
 2166POPC   NC330311  14.566  28.986   9.386
 2166POPC   PO430312  14.650  29.665   9.463
 2166POPC   GL130313  14.765  29.407   9.082
 2166POPC   GL230314  14.815  29.046   8.968
 2166POPC   C1A30315  14.436  29.282   8.762
 2166POPC   D2A30316  14.054  29.192   8.563
 2166POPC   C3A30317  14.114  29.277   8.148
 2166POPC   C4A30318  14.425  29.157   7.840
 2166POPC   C1B30319  14.549  28.769   8.722
 2166POPC   C2B30320  14.486  28.943   8.331
 2166POPC   C3B30321  14.822  28.924   8.030
 2166POPC   C4B30322  14.702  28.778   7.638
 2167POPC   NC330323  43.078  26.834   9.547
 2167POPC   PO430324  43.397  26.310   9.519
 2167POPC   GL130325  43.389  26.668   9.164
 2167POPC   GL230326  43.021  26.768   9.053
 2167POPC   C1A30327  43.415  26.840   8.714
 2167POPC   D2A30328  43.326  26.510   8.396
 2167POPC   C3A30329  43.111  26.640   8.009
 2167POPC   C4A30330  43.201  26.777   7.584
 2167POPC   C1B30331  42.916  26.840   8.633
 2167POPC   C2B30332  43.054  27.120   8.293
 2167POPC   C3B30333  42.962  27.150   7.851
 2167POPC   C4B30334  42.688  26.842   7.646
 2168POPC   NC330335  25.738  17.521   9.487
 2168POPC   PO430336  26.382  17.707   9.662
 2168POPC   GL130337  26.169  17.625   9.199
 2168POPC   GL230338  25.787  17.682   9.018
 2168POPC   C1A30339  26.199  17.739   8.736
 2168POPC   D2A30340  26.119  17.856   8.303
 2168POPC   C3A30341  26.342  17.561   8.043
 2168POPC   C4A30342  26.231  17.372   7.657
 2168POPC   C1B30343  25.848  17.313   8.802
 2168POPC   C2B30344  26.042  17.353   8.408
 2168POPC   C3B30345  25.866  17.405   8.007
 2168POPC   C4B30346  25.782  17.118   7.671
 2169POPC   NC330347  37.739  44.075   9.375
 2169POPC   PO430348  37.304  43.834   9.788
 2169POPC   GL130349  37.370  43.769   9.299
 2169POPC   GL230350  37.741  43.641   9.142
 2169POPC   C1A30351  37.381  43.873   8.844
 2169POPC   D2A30352  37.625  43.896   8.447
 2169POPC   C3A30353  37.457  43.967   8.013
 2169POPC   C4A30354  37.614  43.880   7.583
 2169POPC   C1B30355  38.089  43.663   8.831
 2169POPC   C2B30356  38.010  43.525   8.408
 2169POPC   C3B30357  37.932  43.742   8.046
 2169POPC   C4B30358  38.083  43.698   7.658
 2170POPC   NC330359  43.395  14.502   9.508
 2170POPC   PO430360  42.992  13.986   9.577
 2170POPC   GL130361  42.994  14.236   9.165
 2170POPC   GL230362  43.142  14.535   9.051
 2170POPC   C1A30363  43.085  14.171   8.703
 2170POPC   D2A30364  43.290  14.221   8.301
 2170POPC   C3A30365  43.095  14.238   7.867
 2170POPC   C4A30366  43.106  14.324   7.399
 2170POPC   C1B30367  43.186  14.669   8.639
 2170POPC   C2B30368  42.938  14.603   8.313
 2170POPC   C3B30369  42.978  14.754   7.936
 2170POPC   C4B30370  42.729  14.554   7.653
 2171POPC   NC330371  35.292  22.722   9.386
 2171POPC   PO430372  35.185  23.296   9.642
 2171POPC   GL130373  35.240  23.177   9.178
 2171POPC   GL230374  35.558  23.191   9.009
 2171POPC   C1A30375  35.094  22.991   8.771
 2171POPC   D2A30376  35.286  22.705   8.492
 2171POPC   C3A30377  35.236  22.835   8.076
 2171POPC   C4A30378  35.556  22.782   7.757
 2171POPC   C1B30379  35.735  22.935   8.679
 2171POPC   C2B30380  35.734  22.973   8.212
 2171POPC   C3B30381  35.695  23.268   7.846
 2171POPC   C4B30382  35.563  23.145   7.390
 2172POPC   NC330383  35.582  39.690   9.490
 2172POPC   PO430384  35.181  40.277   9.481
 2172POPC   GL130385  35.415  40.092   9.166
 2172POPC   GL230386  35.223  39.772   9.138
 2172POPC   C1A30387  35.588  40.258   8.783
 2172POPC   D2A30388  35.597  40.122   8.373
 2172POPC   C3A30389  35.461  40.316   8.000
 2172POPC   C4A30390  35.505  40.175   7.593
 2172POPC   C1B30391  35.528  39.714   8.805
 2172POPC   C2B30392  35.399  39.628   8.389
 2172POPC   C3B30393  35.418  39.766   7.943
 2172POPC   C4B30394  35.549  39.668   7.527
 2173POPC   NC330395  24.755   3.074   9.497
 2173POPC   PO430396  24.368   2.488   9.551
 2173POPC   GL130397  24.402   2.836   9.210
 2173POPC   GL230398  24.687   2.690   9.135
 2173POPC   C1A30399  24.583   3.066   8.784
 2173POPC   D2A30400  24.411   3.063   8.355
 2173POPC   C3A30401  24.189   2.653   8.146
 2173POPC   C4A30402  24.222   2.377   7.742
 2173POPC   C1B30403  24.397   2.611   8.749
 2173POPC   C2B30404  24.636   2.622   8.374
 2173POPC   C3B30405  24.628   2.828   7.914
 2173POPC   C4B30406  24.948   2.833   7.560
 2174POPC   NC330407   6.500  33.288   9.635
 2174POPC   PO430408   7.084  32.968   9.775
 2174POPC   GL130409   6.831  32.999   9.341
 2174POPC   GL230410   6.442  32.999   9.203
 2174POPC   C1A30411   6.799  32.877   8.883
 2174POPC   D2A30412   6.593  33.006   8.509
 2174POPC   C3A30413   6.775  32.953   8.128
 2174POPC   C4A30414   6.621  32.962   7.735
 2174POPC   C1B30415   6.315  32.693   8.812
 2174POPC   C2B30416   6.095  32.773   8.454
 2174POPC   C3B30417   6.261  32.826   8.090
 2174POPC   C4B30418   6.245  32.573   7.774
 2175POPC   NC330419   0.199   3.809   9.446
 2175POPC   PO430420   0.867   3.566   9.555
 2175POPC   GL130421   0.582   3.613   9.199
 2175POPC   GL230422   0.366   3.350   9.264
 2175POPC   C1A30423   0.366   3.723   8.781
 2175POPC   D2A30424   0.611   3.752   8.364
 2175POPC   C3A30425   0.382   3.739   7.967
 2175POPC   C4A30426   0.497   3.758   7.531
 2175POPC   C1B30427   0.311   3.177   8.881
 2175POPC   C2B30428   0.327   3.303   8.448
 2175POPC   C3B30429   0.477   3.151   8.027
 2175POPC   C4B30430   0.378   3.268   7.594
 2176POPC   NC330431  34.004  12.699   9.388
 2176POPC   PO430432  34.710  12.796   9.440
 2176POPC   GL130433  34.621  12.812   9.047
 2176POPC   GL230434  34.603  12.478   9.033
 2176POPC   C1A30435  34.758  12.796   8.636
 2176POPC   D2A30436  34.601  12.994   8.271
 2176POPC   C3A30437  34.847  12.939   7.921
 2176POPC   C4A30438  34.509  12.714   7.726
 2176POPC   C1B30439  34.336  12.480   8.703
 2176POPC   C2B30440  34.570  12.407   8.320
 2176POPC   C3B30441  34.865  12.432   7.981
 2176POPC   C4B30442  34.986  12.558   7.568
 2177POPC   NC330443   0.364  13.512   9.760
 2177POPC   PO430444   0.236  14.075   9.446
 2177POPC   GL130445   0.308  13.728   9.182
 2177POPC   GL230446   0.319  13.388   9.241
 2177POPC   C1A30447   0.448  13.707   8.770
 2177POPC   D2A30448   0.342  13.894   8.401
 2177POPC   C3A30449   0.349  13.604   8.081
 2177POPC   C4A30450   0.562  13.583   7.693
 2177POPC   C1B30451   0.576  13.222   8.903
 2177POPC   C2B30452   0.627  13.341   8.450
 2177POPC   C3B30453   0.731  13.172   8.035
 2177POPC   C4B30454   0.763  13.125   7.594
 2178POPC   NC330455   7.498  36.476   9.552
 2178POPC   PO430456   7.652  37.053   9.308
 2178POPC   GL130457   7.499  36.724   9.088
 2178POPC   GL230458   7.800  36.535   9.119
 2178POPC   C1A30459   7.413  36.845   8.671
 2178POPC   D2A30460   7.228  36.753   8.308
 2178POPC   C3A30461   7.248  37.000   7.970
 2178POPC   C4A30462   7.341  36.841   7.588
 2178POPC   C1B30463   7.898  36.687   8.731
 2178POPC   C2B30464   7.739  36.594   8.332
 2178POPC   C3B30465   7.755  36.787   7.918
 2178POPC   C4B30466   7.717  37.255   7.794
 2179POPC   NC330467  16.285  25.499   9.457
 2179POPC   PO430468  15.844  25.935   9.597
 2179POPC   GL130469  15.892  26.090   9.183
 2179POPC   GL230470  16.240  26.011   9.249
 2179POPC   C1A30471  15.888  26.203   8.725
 2179POPC   D2A30472  15.770  25.993   8.321
 2179POPC   C3A30473  15.912  26.245   7.990
 2179POPC   C4A30474  15.835  26.254   7.578
 2179POPC   C1B30475  16.288  25.816   8.830
 2179POPC   C2B30476  16.267  25.976   8.396
 2179POPC   C3B30477  16.193  25.822   7.975
 2179POPC   C4B30478  16.271  25.982   7.548
 2180POPC   NC330479  41.296  21.248   9.731
 2180POPC   PO430480  41.437  21.880   9.637
 2180POPC   GL130481  41.330  21.656   9.217
 2180POPC   GL230482  41.361  21.301   9.196
 2180POPC   C1A30483  41.535  21.649   8.763
 2180POPC   D2A30484  41.434  21.562   8.355
 2180POPC   C3A30485  41.753  21.654   8.044
 2180POPC   C4A30486  41.564  21.667   7.647
 2180POPC   C1B30487  41.591  21.160   8.834
 2180POPC   C2B30488  41.744  21.154   8.401
 2180POPC   C3B30489  41.543  21.197   7.970
 2180POPC   C4B30490  41.472  21.189   7.516
 2181POPC   NC330491  23.627   7.581   9.475
 2181POPC   PO430492  23.572   6.973   9.265
 2181POPC   GL130493  23.670   7.285   9.008
 2181POPC   GL230494  23.986   7.221   8.947
 2181POPC   C1A30495  23.679   7.328   8.549
 2181POPC   D2A30496  23.499   7.584   8.253
 2181POPC   C3A30497  23.403   7.320   7.927
 2181POPC   C4A30498  23.086   6.991   7.920
 2181POPC   C1B30499  24.009   7.649   8.765
 2181POPC   C2B30500  24.012   7.794   8.338
 2181POPC   C3B30501  24.147   7.679   7.958
 2181POPC   C4B30502  23.984   7.306   7.819
 2182POPC   NC330503  18.163   3.956   9.463
 2182POPC   PO430504  18.495   4.543   9.481
 2182POPC   GL130505  18.281   4.360   9.159
 2182POPC   GL230506  18.236   4.660   9.041
 2182POPC   C1A30507  18.305   4.059   8.809
 2182POPC   D2A30508  18.520   4.001   8.411
 2182POPC   C3A30509  18.351   4.007   7.974
 2182POPC   C4A30510  18.508   4.022   7.489
 2182POPC   C1B30511  18.309   4.547   8.638
 2182POPC   C2B30512  18.098   4.374   8.317
 2182POPC   C3B30513  18.158   4.481   7.936
 2182POPC   C4B30514  18.558   4.429   7.775
 2183POPC   NC330515  39.538  13.447   9.498
 2183POPC   PO430516  38.949  13.921   9.525
 2183POPC   GL130517  39.032  13.555   9.268
 2183POPC   GL230518  38.689  13.476   9.226
 2183POPC   C1A30519  39.291  13.486   8.897
 2183POPC   D2A30520  39.461  13.803   8.610
 2183POPC   C3A30521  39.425  13.743   8.182
 2183POPC   C4A30522  39.578  13.782   7.768
 2183POPC   C1B30523  38.753  13.433   8.811
 2183POPC   C2B30524  39.015  13.519   8.469
 2183POPC   C3B30525  39.121  13.329   8.110
 2183POPC   C4B30526  39.159  13.490   7.737
 2184POPC   NC330527  12.724   2.903   9.575
 2184POPC   PO430528  12.489   2.352   9.355
 2184POPC   GL130529  12.569   2.713   9.093
 2184POPC   GL230530  12.939   2.767   9.150
 2184POPC   C1A30531  12.472   2.734   8.637
 2184POPC   D2A30532  12.755   2.617   8.305
 2184POPC   C3A30533  12.960   2.970   8.139
 2184POPC   C4A30534  12.732   3.122   7.773
 2184POPC   C1B30535  12.985   2.697   8.760
 2184POPC   C2B30536  13.165   2.383   8.519
 2184POPC   C3B30537  13.162   2.410   8.081
 2184POPC   C4B30538  12.882   2.640   7.774
 2185POPC   NC330539  44.883  32.225   9.492
 2185POPC   PO430540  44.325  31.948   9.583
 2185POPC   GL130541  44.461  32.124   9.172
 2185POPC   GL230542  44.698  32.396   9.046
 2185POPC   C1A30543  44.571  32.039   8.725
 2185POPC   D2A30544  44.385  32.230   8.386
 2185POPC   C3A30545  44.530  32.143   7.964
 2185POPC   C4A30546  44.415  32.093   7.522
 2185POPC   C1B30547  44.843  32.662   8.718
 2185POPC   C2B30548  44.809  32.498   8.311
 2185POPC   C3B30549  44.937  32.455   7.908
 2185POPC   C4B30550  44.879  32.676   7.501
 2186POPC   NC330551  44.321  20.872   9.544
 2186POPC   PO430552  44.934  20.598   9.531
 2186POPC   GL130553  44.678  20.767   9.184
 2186POPC   GL230554  44.382  20.507   9.139
 2186POPC   C1A30555  44.554  20.749   8.733
 2186POPC   D2A30556  44.455  20.544   8.342
 2186POPC   C3A30557  44.596  20.730   7.945
 2186POPC   C4A30558  45.000  20.738   7.707
 2186POPC   C1B30559  44.173  20.314   8.739
 2186POPC   C2B30560  44.037  20.273   8.280
 2186POPC   C3B30561  44.181  20.413   7.835
 2186POPC   C4B30562  44.258  20.183   7.409
 2187POPC   NC330563  41.790  42.890   9.334
 2187POPC   PO430564  41.207  43.222   9.443
 2187POPC   GL130565  41.484  43.242   9.100
 2187POPC   GL230566  41.819  43.378   9.045
 2187POPC   C1A30567  41.545  43.073   8.701
 2187POPC   D2A30568  41.308  43.004   8.326
 2187POPC   C3A30569  41.567  43.090   8.008
 2187POPC   C4A30570  41.648  42.841   7.640
 2187POPC   C1B30571  41.943  43.416   8.596
 2187POPC   C2B30572  41.964  43.430   8.142
 2187POPC   C3B30573  41.864  43.338   7.676
 2187POPC   C4B30574  41.423  43.288   7.556
 2188POPC   NC330575  10.994  13.679   9.501
 2188POPC   PO430576  10.301  13.592   9.437
 2188POPC   GL130577  10.669  13.603   9.133
 2188POPC   GL230578  10.504  13.887   8.982
 2188POPC   C1A30579  10.867  13.688   8.692
 2188POPC   D2A30580  10.608  13.862   8.365
 2188POPC   C3A30581  10.550  13.641   7.977
 2188POPC   C4A30582  10.837  13.654   7.592
 2188POPC   C1B30583  10.366  13.492   8.761
 2188POPC   C2B30584  10.229  13.257   8.432
 2188POPC   C3B30585  10.169  13.183   8.026
 2188POPC   C4B30586  10.054  13.498   7.744
 2189POPC   NC330587  26.536  17.262   9.682
 2189POPC   PO430588  27.155  17.587   9.668
 2189POPC   GL130589  26.834  17.516   9.319
 2189POPC   GL230590  26.924  17.242   9.152
 2189POPC   C1A30591  26.647  17.538   8.857
 2189POPC   D2A30592  26.635  17.331   8.422
 2189POPC   C3A30593  26.850  17.557   8.054
 2189POPC   C4A30594  26.651  17.667   7.634
 2189POPC   C1B30595  27.089  17.311   8.703
 2189POPC   C2B30596  27.115  17.113   8.287
 2189POPC   C3B30597  27.108  17.181   7.824
 2189POPC   C4B30598  26.975  17.266   7.424
 2190POPC   NC330599   2.636  25.840   9.569
 2190POPC   PO430600   2.489  26.453   9.473
 2190POPC   GL130601   2.561  26.156   9.136
 2190POPC   GL230602   2.894  26.114   9.091
 2190POPC   C1A30603   2.619  25.807   8.791
 2190POPC   D2A30604   2.924  25.811   8.452
 2190POPC   C3A30605   2.866  25.959   8.029
 2190POPC   C4A30606   2.755  25.812   7.623
 2190POPC   C1B30607   2.771  26.327   8.693
 2190POPC   C2B30608   2.930  26.489   8.315
 2190POPC   C3B30609   2.877  26.456   7.890
 2190POPC   C4B30610   2.496  26.268   7.766
 2191POPC   NC330611  23.334  34.384   9.376
 2191POPC   PO430612  22.848  34.895   9.636
 2191POPC   GL130613  22.834  34.607   9.214
 2191POPC   GL230614  22.539  34.410   9.099
 2191POPC   C1A30615  22.956  34.509   8.774
 2191POPC   D2A30616  22.956  34.663   8.368
 2191POPC   C3A30617  23.218  34.600   8.031
 2191POPC   C4A30618  23.026  34.796   7.685
 2191POPC   C1B30619  22.618  34.118   8.757
 2191POPC   C2B30620  22.706  34.213   8.346
 2191POPC   C3B30621  22.792  34.346   7.961
 2191POPC   C4B30622  22.959  34.301   7.560
 2192POPC   NC330623  27.234   5.065   9.320
 2192POPC   PO430624  26.580   5.404   9.373
 2192POPC   GL130625  26.849   5.210   9.063
 2192POPC   GL230626  27.203   5.379   8.954
 2192POPC   C1A30627  26.814   4.978   8.711
 2192POPC   D2A30628  26.508   5.126   8.424
 2192POPC   C3A30629  26.632   5.166   7.990
 2192POPC   C4A30630  26.702   4.774   7.796
 2192POPC   C1B30631  27.247   5.358   8.578
 2192POPC   C2B30632  27.047   5.167   8.284
 2192POPC   C3B30633  27.137   5.066   7.883
 2192POPC   C4B30634  27.065   5.368   7.564
 2193POPC   NC330635  36.577  13.320   9.517
 2193POPC   PO430636  36.877  13.935   9.533
 2193POPC   GL130637  36.852  13.859   9.108
 2193POPC   GL230638  36.588  13.652   9.145
 2193POPC   C1A30639  37.122  13.750   8.756
 2193POPC   D2A30640  37.247  13.609   8.364
 2193POPC   C3A30641  36.976  13.810   8.038
 2193POPC   C4A30642  36.935  13.632   7.631
 2193POPC   C1B30643  36.713  13.447   8.805
 2193POPC   C2B30644  36.707  13.502   8.382
 2193POPC   C3B30645  36.648  13.413   7.966
 2193POPC   C4B30646  36.453  13.515   7.492
 2194POPC   NC330647  37.734  25.829   9.588
 2194POPC   PO430648  37.517  26.480   9.580
 2194POPC   GL130649  37.524  26.189   9.233
 2194POPC   GL230650  37.902  26.124   9.207
 2194POPC   C1A30651  37.516  26.131   8.768
 2194POPC   D2A30652  37.647  26.366   8.383
 2194POPC   C3A30653  37.479  26.385   7.964
 2194POPC   C4A30654  37.733  26.259   7.607
 2194POPC   C1B30655  37.951  25.906   8.834
 2194POPC   C2B30656  37.729  25.809   8.441
 2194POPC   C3B30657  37.803  25.973   8.049
 2194POPC   C4B30658  38.038  25.843   7.670
 2195POPC   NC330659  10.426   3.257   9.500
 2195POPC   PO430660  10.221   3.840   9.290
 2195POPC   GL130661  10.534   3.546   9.082
 2195POPC   GL230662  10.899   3.506   9.135
 2195POPC   C1A30663  10.670   3.264   8.749
 2195POPC   D2A30664  10.534   3.268   8.320
 2195POPC   C3A30665  10.715   3.321   7.924
 2195POPC   C4A30666  10.534   3.537   7.609
 2195POPC   C1B30667  10.887   3.736   8.703
 2195POPC   C2B30668  10.810   3.716   8.236
 2195POPC   C3B30669  10.931   3.787   7.807
 2195POPC   C4B30670  10.856   3.860   7.359
 2196POPC   NC330671  22.839  33.408   9.407
 2196POPC   PO430672  23.085  32.761   9.615
 2196POPC   GL130673  23.046  32.786   9.159
 2196POPC   GL230674  23.141  33.120   9.124
 2196POPC   C1A30675  22.770  32.885   8.798
 2196POPC   D2A30676  22.629  33.210   8.539
 2196POPC   C3A30677  22.622  33.094   8.113
 2196POPC   C4A30678  22.874  33.151   7.760
 2196POPC   C1B30679  23.162  33.183   8.695
 2196POPC   C2B30680  23.069  32.901   8.367
 2196POPC   C3B30681  23.246  33.139   8.089
 2196POPC   C4B30682  23.417  33.119   7.687
 2197POPC   NC330683   7.707  21.071   9.412
 2197POPC   PO430684   7.021  21.241   9.378
 2197POPC   GL130685   7.329  21.134   9.079
 2197POPC   GL230686   7.546  21.433   9.058
 2197POPC   C1A30687   7.391  21.128   8.650
 2197POPC   D2A30688   7.248  21.337   8.302
 2197POPC   C3A30689   7.438  21.150   7.958
 2197POPC   C4A30690   7.488  21.234   7.561
 2197POPC   C1B30691   7.779  21.486   8.647
 2197POPC   C2B30692   7.813  21.483   8.203
 2197POPC   C3B30693   7.647  21.651   7.828
 2197POPC   C4B30694   7.782  21.617   7.396
 2198POPC   NC330695  32.828  16.942   9.862
 2198POPC   PO430696  32.211  16.819   9.460
 2198POPC   GL130697  32.233  17.036   9.080
 2198POPC   GL230698  32.565  17.011   9.007
 2198POPC   C1A30699  32.216  16.980   8.630
 2198POPC   D2A30700  32.309  16.656   8.314
 2198POPC   C3A30701  32.379  16.877   7.941
 2198POPC   C4A30702  32.121  16.976   7.591
 2198POPC   C1B30703  32.643  16.660   8.732
 2198POPC   C2B30704  32.752  16.410   8.388
 2198POPC   C3B30705  32.677  16.453   7.963
 2198POPC   C4B30706  32.474  16.507   7.575
 2199POPC   NC330707   7.216  31.663   9.514
 2199POPC   PO430708   7.864  31.279   9.514
 2199POPC   GL130709   7.778  31.444   9.093
 2199POPC   GL230710   7.557  31.700   9.130
 2199POPC   C1A30711   7.600  31.391   8.666
 2199POPC   D2A30712   7.400  31.288   8.260
 2199POPC   C3A30713   7.552  31.287   7.829
 2199POPC   C4A30714   7.326  31.250   7.418
 2199POPC   C1B30715   7.193  31.647   8.862
 2199POPC   C2B30716   7.174  31.701   8.419
 2199POPC   C3B30717   7.248  31.662   7.958
 2199POPC   C4B30718   7.379  31.737   7.554
 2200POPC   NC330719  25.701  22.792   9.504
 2200POPC   PO430720  26.373  22.840   9.574
 2200POPC   GL130721  26.155  22.785   9.166
 2200POPC   GL230722  26.316  23.073   9.018
 2200POPC   C1A30723  26.039  22.618   8.737
 2200POPC   D2A30724  25.826  22.823   8.370
 2200POPC   C3A30725  26.045  22.949   8.003
 2200POPC   C4A30726  26.008  22.764   7.581
 2200POPC   C1B30727  26.300  23.037   8.561
 2200POPC   C2B30728  26.555  22.874   8.210
 2200POPC   C3B30729  26.474  22.747   7.806
 2200POPC   C4B30730  26.373  23.120   7.607
 2201POPC   NC330731  10.153  37.461   9.393
 2201POPC   PO430732  10.668  37.920   9.440
 2201POPC   GL130733  10.514  37.856   9.077
 2201POPC   GL230734  10.167  37.892   9.113
 2201POPC   C1A30735  10.683  37.696   8.713
 2201POPC   D2A30736  10.509  37.532   8.335
 2201POPC   C3A30737  10.733  37.719   8.010
 2201POPC   C4A30738  10.840  38.018   7.685
 2201POPC   C1B30739  10.165  37.681   8.711
 2201POPC   C2B30740   9.993  37.640   8.289
 2201POPC   C3B30741  10.141  37.673   7.829
 2201POPC   C4B30742  10.134  37.678   7.354
 2202POPC   NC330743  17.690  43.134   9.474
 2202POPC   PO430744  17.075  43.329   9.593
 2202POPC   GL130745  17.288  43.257   9.187
 2202POPC   GL230746  17.368  42.903   9.152
 2202POPC   C1A30747  17.517  43.282   8.786
 2202POPC   D2A30748  17.433  43.043   8.413
 2202POPC   C3A30749  17.242  43.208   8.054
 2202POPC   C4A30750  17.424  43.216   7.675
 2202POPC   C1B30751  17.716  42.841   8.825
 2202POPC   C2B30752  17.929  43.057   8.473
 2202POPC   C3B30753  17.791  43.137   8.036
 2202POPC   C4B30754  17.910  42.930   7.671
 2203POPC   NC330755  25.221   3.821   9.316
 2203POPC   PO430756  25.537   4.303   9.625
 2203POPC   GL130757  25.235   4.331   9.176
 2203POPC   GL230758  25.057   4.064   8.912
 2203POPC   C1A30759  25.214   4.503   8.697
 2203POPC   D2A30760  25.172   4.184   8.325
 2203POPC   C3A30761  25.058   4.282   7.881
 2203POPC   C4A30762  25.195   4.345   7.431
 2203POPC   C1B30763  25.512   4.106   8.786
 2203POPC   C2B30764  25.650   4.020   8.380
 2203POPC   C3B30765  25.537   4.084   7.944
 2203POPC   C4B30766  25.665   4.070   7.519
 2204POPC   NC330767  37.519  36.428   9.181
 2204POPC   PO430768  37.429  35.876   9.555
 2204POPC   GL130769  37.665  35.937   9.170
 2204POPC   GL230770  37.971  36.118   9.277
 2204POPC   C1A30771  37.624  36.063   8.695
 2204POPC   D2A30772  37.466  35.952   8.323
 2204POPC   C3A30773  37.628  36.082   7.924
 2204POPC   C4A30774  37.449  35.902   7.537
 2204POPC   C1B30775  38.089  36.014   8.856
 2204POPC   C2B30776  38.053  36.173   8.417
 2204POPC   C3B30777  38.109  35.923   8.043
 2204POPC   C4B30778  38.096  36.009   7.606
 2205POPC   NC330779  41.036   9.110   9.922
 2205POPC   PO430780  40.787   8.589   9.668
 2205POPC   GL130781  40.817   8.763   9.182
 2205POPC   GL230782  40.652   8.665   8.930
 2205POPC   C1A30783  40.771   9.150   8.857
 2205POPC   D2A30784  41.028   9.386   8.530
 2205POPC   C3A30785  40.975   9.308   8.105
 2205POPC   C4A30786  40.899   9.171   7.701
 2205POPC   C1B30787  40.595   8.800   8.528
 2205POPC   C2B30788  40.856   8.816   8.217
 2205POPC   C3B30789  40.761   8.698   7.816
 2205POPC   C4B30790  40.514   8.886   7.543
 2206POPC   NC330791  43.628   6.085   9.533
 2206POPC   PO430792  42.980   5.730   9.497
 2206POPC   GL130793  43.288   5.833   9.183
 2206POPC   GL230794  43.339   6.177   9.117
 2206POPC   C1A30795  43.287   5.829   8.738
 2206POPC   D2A30796  43.482   5.717   8.382
 2206POPC   C3A30797  43.239   5.646   8.086
 2206POPC   C4A30798  43.099   5.727   7.703
 2206POPC   C1B30799  43.591   6.251   8.781
 2206POPC   C2B30800  43.408   6.233   8.391
 2206POPC   C3B30801  43.441   6.100   7.964
 2206POPC   C4B30802  43.403   6.094   7.491
 2207POPC   NC330803  13.267  20.116   9.416
 2207POPC   PO430804  13.749  19.820   9.724
 2207POPC   GL130805  13.639  19.724   9.284
 2207POPC   GL230806  13.292  19.638   9.163
 2207POPC   C1A30807  13.843  19.753   8.876
 2207POPC   D2A30808  13.705  19.790   8.443
 2207POPC   C3A30809  13.900  19.684   8.039
 2207POPC   C4A30810  13.811  19.814   7.614
 2207POPC   C1B30811  13.347  19.926   8.789
 2207POPC   C2B30812  13.427  20.208   8.411
 2207POPC   C3B30813  13.488  20.029   7.999
 2207POPC   C4B30814  13.195  19.794   7.750
 2208POPC   NC330815   6.208  20.462   9.662
 2208POPC   PO430816   6.857  20.281   9.605
 2208POPC   GL130817   6.599  20.532   9.330
 2208POPC   GL230818   6.561  20.255   9.112
 2208POPC   C1A30819   6.586  20.713   8.914
 2208POPC   D2A30820   6.584  20.484   8.543
 2208POPC   C3A30821   6.475  20.718   8.184
 2208POPC   C4A30822   6.636  20.775   7.774
 2208POPC   C1B30823   6.960  20.235   8.907
 2208POPC   C2B30824   7.094  20.349   8.513
 2208POPC   C3B30825   6.836  20.331   8.125
 2208POPC   C4B30826   6.942  20.370   7.724
 2209POPC   NC330827  34.322   5.858   9.708
 2209POPC   PO430828  34.933   6.084   9.800
 2209POPC   GL130829  34.722   5.927   9.390
 2209POPC   GL230830  34.539   6.160   9.182
 2209POPC   C1A30831  34.594   5.704   8.971
 2209POPC   D2A30832  34.480   5.750   8.491
 2209POPC   C3A30833  34.654   5.652   8.062
 2209POPC   C4A30834  34.444   5.590   7.657
 2209POPC   C1B30835  34.299   6.137   8.809
 2209POPC   C2B30836  34.240   6.249   8.404
 2209POPC   C3B30837  34.273   6.010   8.049
 2209POPC   C4B30838  34.309   6.090   7.653
 2210POPC   NC330839  36.255  25.222   9.457
 2210POPC   PO430840  35.577  25.434   9.578
 2210POPC   GL130841  35.744  25.315   9.147
 2210POPC   GL230842  35.879  24.995   9.130
 2210POPC   C1A30843  35.871  25.294   8.698
 2210POPC   D2A30844  36.012  25.166   8.276
 2210POPC   C3A30845  36.084  25.540   8.026
 2210POPC   C4A30846  35.877  25.559   7.640
 2210POPC   C1B30847  36.286  25.003   8.868
 2210POPC   C2B30848  36.475  25.167   8.518
 2210POPC   C3B30849  36.504  25.063   8.078
 2210POPC   C4B30850  36.201  25.151   7.725
 2211POPC   NC330851  43.359  30.348   9.498
 2211POPC   PO430852  42.911  30.751   9.700
 2211POPC   GL130853  43.015  30.794   9.232
 2211POPC   GL230854  42.754  30.980   9.117
 2211POPC   C1A30855  43.091  30.653   8.760
 2211POPC   D2A30856  43.161  30.340   8.413
 2211POPC   C3A30857  43.145  30.566   8.025
 2211POPC   C4A30858  43.074  30.807   7.658
 2211POPC   C1B30859  42.810  31.065   8.720
 2211POPC   C2B30860  42.987  31.003   8.355
 2211POPC   C3B30861  42.724  30.967   8.010
 2211POPC   C4B30862  42.722  31.177   7.608
 2212POPC   NC330863  33.184  15.863   9.467
 2212POPC   PO430864  33.067  16.573   9.641
 2212POPC   GL130865  32.978  16.249   9.239
 2212POPC   GL230866  32.914  15.859   9.038
 2212POPC   C1A30867  33.026  16.290   8.800
 2212POPC   D2A30868  33.001  15.976   8.520
 2212POPC   C3A30869  32.982  16.010   8.121
 2212POPC   C4A30870  33.018  15.974   7.708
 2212POPC   C1B30871  33.186  15.566   8.720
 2212POPC   C2B30872  33.374  15.674   8.356
 2212POPC   C3B30873  33.265  15.590   7.957
 2212POPC   C4B30874  33.420  15.717   7.565
 2213POPC   NC330875   7.751  11.088   9.437
 2213POPC   PO430876   7.312  11.640   9.459
 2213POPC   GL130877   7.203  11.312   9.141
 2213POPC   GL230878   7.371  10.983   9.036
 2213POPC   C1A30879   7.261  11.345   8.696
 2213POPC   D2A30880   7.066  11.239   8.322
 2213POPC   C3A30881   7.325  11.308   7.985
 2213POPC   C4A30882   7.201  11.161   7.624
 2213POPC   C1B30883   7.724  10.823   8.772
 2213POPC   C2B30884   7.941  10.817   8.356
 2213POPC   C3B30885   7.794  10.980   7.933
 2213POPC   C4B30886   7.744  11.386   7.693
 2214POPC   NC330887  10.113  19.973   9.552
 2214POPC   PO430888   9.424  19.603   9.536
 2214POPC   GL130889   9.461  19.806   9.163
 2214POPC   GL230890   9.819  19.835   9.140
 2214POPC   C1A30891   9.525  19.742   8.733
 2214POPC   D2A30892   9.853  19.823   8.462
 2214POPC   C3A30893   9.691  19.777   8.038
 2214POPC   C4A30894   9.793  19.624   7.651
 2214POPC   C1B30895  10.021  20.135   8.902
 2214POPC   C2B30896  10.064  20.302   8.506
 2214POPC   C3B30897   9.879  20.229   8.155
 2214POPC   C4B30898   9.961  20.125   7.740
 2215POPC   NC330899  28.539  24.137   9.406
 2215POPC   PO430900  28.316  23.553   9.745
 2215POPC   GL130901  28.211  23.783   9.260
 2215POPC   GL230902  28.038  24.048   9.067
 2215POPC   C1A30903  28.187  23.624   8.794
 2215POPC   D2A30904  28.414  23.528   8.415
 2215POPC   C3A30905  28.147  23.476   8.047
 2215POPC   C4A30906  28.364  23.602   7.656
 2215POPC   C1B30907  28.226  24.118   8.719
 2215POPC   C2B30908  28.062  23.931   8.378
 2215POPC   C3B30909  28.254  23.981   8.022
 2215POPC   C4B30910  28.227  24.149   7.660
 2216POPC   NC330911  29.183  11.684   9.411
 2216POPC   PO430912  28.960  11.092   9.555
 2216POPC   GL130913  29.117  11.095   9.140
 2216POPC   GL230914  28.961  11.395   9.062
 2216POPC   C1A30915  29.255  11.246   8.699
 2216POPC   D2A30916  29.316  11.542   8.397
 2216POPC   C3A30917  29.402  11.340   8.022
 2216POPC   C4A30918  29.147  11.191   7.734
 2216POPC   C1B30919  28.793  11.603   8.706
 2216POPC   C2B30920  28.836  11.639   8.302
 2216POPC   C3B30921  28.788  11.459   7.954
 2216POPC   C4B30922  28.793  11.490   7.529
 2217POPC   NC330923  11.785  19.059   9.752
 2217POPC   PO430924  11.166  19.372   9.565
 2217POPC   GL130925  11.444  19.137   9.283
 2217POPC   GL230926  11.147  19.093   9.104
 2217POPC   C1A30927  11.547  19.105   8.791
 2217POPC   D2A30928  11.384  18.884   8.384
 2217POPC   C3A30929  11.396  19.037   7.963
 2217POPC   C4A30930  11.287  19.257   7.547
 2217POPC   C1B30931  11.020  19.109   8.674
 2217POPC   C2B30932  11.025  19.248   8.265
 2217POPC   C3B30933  10.904  19.046   7.894
 2217POPC   C4B30934  11.094  18.817   7.553
 2218POPC   NC330935   3.276  39.097   9.427
 2218POPC   PO430936   3.964  38.897   9.496
 2218POPC   GL130937   3.753  39.140   9.168
 2218POPC   GL230938   3.713  39.530   9.187
 2218POPC   C1A30939   3.566  39.006   8.781
 2218POPC   D2A30940   3.669  38.778   8.399
 2218POPC   C3A30941   3.471  38.918   8.022
 2218POPC   C4A30942   3.698  39.150   7.721
 2218POPC   C1B30943   3.452  39.518   8.799
 2218POPC   C2B30944   3.538  39.344   8.380
 2218POPC   C3B30945   3.488  39.536   7.984
 2218POPC   C4B30946   3.210  39.393   7.714
 2219POPC   NC330947  34.120   0.586   9.182
 2219POPC   PO430948  33.506   0.599   9.543
 2219POPC   GL130949  33.597   0.538   9.126
 2219POPC   GL230950  33.709   0.233   9.168
 2219POPC   C1A30951  33.743   0.622   8.700
 2219POPC   D2A30952  34.025   0.541   8.418
 2219POPC   C3A30953  33.852   0.650   8.026
 2219POPC   C4A30954  33.968   0.495   7.619
 2219POPC   C1B30955  33.493   0.185   8.754
 2219POPC   C2B30956  33.495   0.407   8.316
 2219POPC   C3B30957  33.621   0.205   7.918
 2219POPC   C4B30958  33.662  44.802   7.726
 2220POPC   NC330959  33.868  31.905   9.616
 2220POPC   PO430960  33.428  32.426   9.799
 2220POPC   GL130961  33.636  32.349   9.377
 2220POPC   GL230962  33.557  32.036   9.188
 2220POPC   C1A30963  33.777  32.439   8.930
 2220POPC   D2A30964  33.690  32.544   8.500
 2220POPC   C3A30965  33.818  32.353   8.125
 2220POPC   C4A30966  33.710  32.413   7.715
 2220POPC   C1B30967  33.722  31.912   8.776
 2220POPC   C2B30968  33.927  31.877   8.357
 2220POPC   C3B30969  33.775  31.889   7.927
 2220POPC   C4B30970  33.752  31.979   7.482
 2221POPC   NC330971  29.343  24.381   9.472
 2221POPC   PO430972  28.716  24.455   9.687
 2221POPC   GL130973  28.993  24.668   9.230
 2221POPC   GL230974  29.238  24.437   8.973
 2221POPC   C1A30975  28.985  24.785   8.729
 2221POPC   D2A30976  29.047  24.439   8.384
 2221POPC   C3A30977  29.253  24.497   7.979
 2221POPC   C4A30978  29.050  24.434   7.569
 2221POPC   C1B30979  29.122  24.056   8.700
 2221POPC   C2B30980  29.145  23.865   8.323
 2221POPC   C3B30981  29.167  23.997   7.923
 2221POPC   C4B30982  29.429  24.116   7.610
 2222POPC   NC330983  19.226  22.649   9.273
 2222POPC   PO430984  18.609  22.936   9.511
 2222POPC   GL130985  18.844  22.955   9.125
 2222POPC   GL230986  18.635  23.024   8.882
 2222POPC   C1A30987  19.189  23.078   8.789
 2222POPC   D2A30988  19.321  22.910   8.420
 2222POPC   C3A30989  18.979  22.953   8.152
 2222POPC   C4A30990  19.103  23.046   7.745
 2222POPC   C1B30991  18.858  22.684   8.658
 2222POPC   C2B30992  18.917  22.436   8.290
 2222POPC   C3B30993  19.137  22.555   7.893
 2222POPC   C4B30994  19.349  22.394   7.543
 2223POPC   NC330995  32.603  30.052   9.598
 2223POPC   PO430996  32.100  29.905   9.874
 2223POPC   GL130997  32.120  29.875   9.360
 2223POPC   GL230998  32.427  29.868   9.172
 2223POPC   C1A30999  31.993  29.772   8.906
 2223POPC   D2A31000  31.776  29.694   8.504
 2223POPC   C3A31001  31.924  29.973   8.197
 2223POPC   C4A31002  31.996  29.970   7.753
 2223POPC   C1B31003  32.232  30.212   8.965
 2223POPC   C2B31004  32.227  30.282   8.528
 2223POPC   C3B31005  32.362  30.240   8.124
 2223POPC   C4B31006  32.269  30.398   7.732
 2224POPC   NC331007  14.165  16.341   9.511
 2224POPC   PO431008  14.070  16.997   9.347
 2224POPC   GL131009  14.117  16.794   8.999
 2224POPC   GL231010  14.349  16.551   9.092
 2224POPC   C1A31011  14.273  16.881   8.612
 2224POPC   D2A31012  14.537  16.879   8.247
 2224POPC   C3A31013  14.385  16.661   7.900
 2224POPC   C4A31014  14.219  17.011   7.764
 2224POPC   C1B31015  14.380  16.341   8.717
 2224POPC   C2B31016  14.583  16.378   8.322
 2224POPC   C3B31017  14.753  16.317   7.921
 2224POPC   C4B31018  14.545  16.180   7.539
 2225POPC   NC331019  25.003  24.660   9.484
 2225POPC   PO431020  25.464  24.197   9.590
 2225POPC   GL131021  25.384  24.379   9.211
 2225POPC   GL231022  25.689  24.521   9.144
 2225POPC   C1A31023  25.130  24.559   8.864
 2225POPC   D2A31024  25.102  24.835   8.519
 2225POPC   C3A31025  25.084  24.575   8.158
 2225POPC   C4A31026  25.180  24.726   7.789
 2225POPC   C1B31027  25.639  24.771   8.774
 2225POPC   C2B31028  25.821  24.916   8.360
 2225POPC   C3B31029  25.670  24.820   7.930
 2225POPC   C4B31030  25.542  24.387   7.796
 2226POPC   NC331031  27.248  39.457   9.582
 2226POPC   PO431032  26.668  39.321   9.459
 2226POPC   GL131033  26.973  39.166   9.193
 2226POPC   GL231034  26.715  39.052   9.024
 2226POPC   C1A31035  27.125  39.288   8.765
 2226POPC   D2A31036  26.999  39.327   8.326
 2226POPC   C3A31037  26.943  39.161   7.910
 2226POPC   C4A31038  26.656  38.854   7.711
 2226POPC   C1B31039  26.628  39.265   8.682
 2226POPC   C2B31040  26.501  39.415   8.331
 2226POPC   C3B31041  26.453  39.294   7.961
 2226POPC   C4B31042  26.617  39.374   7.578
 2227POPC   NC331043  36.702  40.106   9.493
 2227POPC   PO431044  35.951  39.984   9.515
 2227POPC   GL131045  35.976  40.094   9.104
 2227POPC   GL231046  36.329  40.079   9.154
 2227POPC   C1A31047  35.974  39.929   8.672
 2227POPC   D2A31048  35.886  39.706   8.255
 2227POPC   C3A31049  35.864  39.983   7.944
 2227POPC   C4A31050  35.931  40.347   7.770
 2227POPC   C1B31051  36.558  39.859   8.846
 2227POPC   C2B31052  36.428  39.985   8.441
 2227POPC   C3B31053  36.344  40.095   8.039
 2227POPC   C4B31054  36.416  39.864   7.682
 2228POPC   NC331055  13.569  29.031   9.435
 2228POPC   PO431056  13.922  29.410   9.190
 2228POPC   GL131057  13.837  29.002   9.000
 2228POPC   GL231058  14.172  28.883   9.044
 2228POPC   C1A31059  13.592  28.966   8.622
 2228POPC   D2A31060  13.561  29.399   8.381
 2228POPC   C3A31061  13.529  29.408   7.912
 2228POPC   C4A31062  13.380  29.010   7.700
 2228POPC   C1B31063  14.039  28.657   8.665
 2228POPC   C2B31064  13.802  28.615   8.290
 2228POPC   C3B31065  13.862  28.866   7.907
 2228POPC   C4B31066  13.964  29.269   7.670
 2229POPC   NC331067  21.587  42.112   9.447
 2229POPC   PO431068  21.323  42.725   9.329
 2229POPC   GL131069  21.459  42.396   9.019
 2229POPC   GL231070  21.279  42.074   9.064
 2229POPC   C1A31071  21.519  42.334   8.546
 2229POPC   D2A31072  21.645  42.379   8.134
 2229POPC   C3A31073  21.273  42.327   7.871
 2229POPC   C4A31074  21.211  42.561   7.480
 2229POPC   C1B31075  21.614  41.907   8.763
 2229POPC   C2B31076  21.683  41.878   8.284
 2229POPC   C3B31077  21.601  41.955   7.825
 2229POPC   C4B31078  21.389  41.845   7.441
 2230POPC   NC331079  18.853   0.206   9.433
 2230POPC   PO431080  19.098  44.603   9.606
 2230POPC   GL131081  18.943  44.564   9.195
 2230POPC   GL231082  19.175  44.832   9.048
 2230POPC   C1A31083  18.752  44.721   8.800
 2230POPC   D2A31084  18.941  44.790   8.433
 2230POPC   C3A31085  18.722  44.695   8.095
 2230POPC   C4A31086  18.760  44.858   7.726
 2230POPC   C1B31087  19.201  44.447   8.769
 2230POPC   C2B31088  19.236  44.351   8.351
 2230POPC   C3B31089  19.206  44.565   7.967
 2230POPC   C4B31090  19.295  44.298   7.658
 2231POPC   NC331091   0.776  21.880   9.865
 2231POPC   PO431092   0.267  21.972   9.440
 2231POPC   GL131093   0.365  22.151   9.086
 2231POPC   GL231094   0.439  22.516   9.116
 2231POPC   C1A31095   0.296  21.924   8.715
 2231POPC   D2A31096   0.573  21.764   8.394
 2231POPC   C3A31097   0.385  21.835   8.003
 2231POPC   C4A31098   0.599  21.898   7.633
 2231POPC   C1B31099   0.478  22.458   8.685
 2231POPC   C2B31100   0.386  22.264   8.342
 2231POPC   C3B31101   0.521  22.322   7.947
 2231POPC   C4B31102   0.307  22.304   7.575
 2232POPC   NC331103   3.298  25.094   9.637
 2232POPC   PO431104   3.738  25.496   9.555
 2232POPC   GL131105   3.441  25.310   9.174
 2232POPC   GL231106   3.097  25.129   9.172
 2232POPC   C1A31107   3.378  25.189   8.712
 2232POPC   D2A31108   3.581  25.088   8.307
 2232POPC   C3A31109   3.584  25.244   7.872
 2232POPC   C4A31110   3.448  25.074   7.475
 2232POPC   C1B31111   2.925  25.382   8.851
 2232POPC   C2B31112   2.955  25.277   8.426
 2232POPC   C3B31113   2.929  25.449   8.036
 2232POPC   C4B31114   3.163  25.481   7.688
 2233POPC   NC331115  24.672   2.092   9.536
 2233POPC   PO431116  24.136   1.642   9.420
 2233POPC   GL131117  24.172   1.972   9.094
 2233POPC   GL231118  24.411   2.246   9.117
 2233POPC   C1A31119  24.240   2.133   8.653
 2233POPC   D2A31120  24.224   2.137   8.205
 2233POPC   C3A31121  24.522   1.856   7.989
 2233POPC   C4A31122  24.334   1.856   7.631
 2233POPC   C1B31123  24.738   2.254   8.806
 2233POPC   C2B31124  24.698   2.120   8.396
 2233POPC   C3B31125  24.687   2.318   7.983
 2233POPC   C4B31126  24.727   2.225   7.581
 2234POPC   NC331127   2.125   2.575   9.400
 2234POPC   PO431128   1.462   2.765   9.497
 2234POPC   GL131129   1.687   2.638   9.139
 2234POPC   GL231130   1.897   2.955   9.103
 2234POPC   C1A31131   1.802   2.542   8.721
 2234POPC   D2A31132   1.873   2.799   8.335
 2234POPC   C3A31133   1.753   2.607   7.956
 2234POPC   C4A31134   1.965   2.399   7.666
 2234POPC   C1B31135   2.206   2.920   8.741
 2234POPC   C2B31136   2.377   2.884   8.312
 2234POPC   C3B31137   2.152   2.979   7.897
 2234POPC   C4B31138   2.147   3.015   7.430
 2235POPC   NC331139  15.529  40.664   9.543
 2235POPC   PO431140  14.884  40.752   9.724
 2235POPC   GL131141  14.934  40.887   9.297
 2235POPC   GL231142  15.243  41.028   9.294
 2235POPC   C1A31143  15.071  40.715   8.881
 2235POPC   D2A31144  14.843  40.672   8.486
 2235POPC   C3A31145  14.994  40.648   8.058
 2235POPC   C4A31146  15.373  40.650   7.794
 2235POPC   C1B31147  15.248  41.195   8.888
 2235POPC   C2B31148  15.164  41.086   8.471
 2235POPC   C3B31149  15.304  41.092   8.047
 2235POPC   C4B31150  15.765  41.135   7.971
 2236POPC   NC331151   0.997  21.086   9.562
 2236POPC   PO431152   1.279  21.714   9.464
 2236POPC   GL131153   1.199  21.355   9.167
 2236POPC   GL231154   0.863  21.348   9.099
 2236POPC   C1A31155   1.277  21.157   8.735
 2236POPC   D2A31156   1.113  21.082   8.280
 2236POPC   C3A31157   1.392  21.061   7.913
 2236POPC   C4A31158   1.314  21.302   7.532
 2236POPC   C1B31159   1.099  21.662   8.797
 2236POPC   C2B31160   1.102  21.683   8.375
 2236POPC   C3B31161   1.258  21.579   7.986
 2236POPC   C4B31162   1.098  21.753   7.617
 2237POPC   NC331163  31.606  26.976   9.703
 2237POPC   PO431164  31.049  26.639   9.630
 2237POPC   GL131165  31.363  26.766   9.277
 2237POPC   GL231166  31.645  26.974   9.188
 2237POPC   C1A31167  31.248  26.894   8.841
 2237POPC   D2A31168  31.035  26.843   8.440
 2237POPC   C3A31169  31.330  26.717   8.155
 2237POPC   C4A31170  31.331  26.676   7.724
 2237POPC   C1B31171  31.669  27.147   8.752
 2237POPC   C2B31172  31.452  27.233   8.352
 2237POPC   C3B31173  31.521  27.128   7.922
 2237POPC   C4B31174  31.819  26.844   7.714
 2238POPC   NC331175   4.085  39.357   9.522
 2238POPC   PO431176   4.690  39.051   9.554
 2238POPC   GL131177   4.363  39.089   9.180
 2238POPC   GL231178   4.183  38.793   9.054
 2238POPC   C1A31179   4.112  39.279   8.820
 2238POPC   D2A31180   4.249  39.491   8.421
 2238POPC   C3A31181   4.200  39.293   8.025
 2238POPC   C4A31182   4.109  39.444   7.641
 2238POPC   C1B31183   4.437  38.851   8.724
 2238POPC   C2B31184   4.176  38.943   8.397
 2238POPC   C3B31185   4.009  38.819   8.003
 2238POPC   C4B31186   4.123  38.925   7.593
 2239POPC   NC331187  44.312  33.304   9.309
 2239POPC   PO431188  43.868  32.808   9.460
 2239POPC   GL131189  44.072  32.875   9.102
 2239POPC   GL231190  44.237  32.588   9.071
 2239POPC   C1A31191  43.944  33.083   8.721
 2239POPC   D2A31192  43.761  33.271   8.363
 2239POPC   C3A31193  43.840  33.029   8.003
 2239POPC   C4A31194  43.905  33.187   7.599
 2239POPC   C1B31195  44.137  32.618   8.649
 2239POPC   C2B31196  44.155  32.664   8.217
 2239POPC   C3B31197  44.105  32.595   7.787
 2239POPC   C4B31198  44.253  32.839   7.479
 2240POPC   NC331199   4.460  29.651   9.516
 2240POPC   PO431200   3.991  30.135   9.495
 2240POPC   GL131201   4.195  29.927   9.151
 2240POPC   GL231202   4.560  29.950   9.127
 2240POPC   C1A31203   4.202  29.895   8.712
 2240POPC   D2A31204   4.481  30.038   8.393
 2240POPC   C3A31205   4.366  29.969   7.968
 2240POPC   C4A31206   4.101  29.720   7.722
 2240POPC   C1B31207   4.786  29.910   8.785
 2240POPC   C2B31208   4.850  29.665   8.442
 2240POPC   C3B31209   4.832  29.754   8.032
 2240POPC   C4B31210   4.719  29.529   7.664
 2241POPC   NC331211  24.605  39.060   9.537
 2241POPC   PO431212  24.565  39.759   9.540
 2241POPC   GL131213  24.428  39.583   9.139
 2241POPC   GL231214  24.371  39.227   9.111
 2241POPC   C1A31215  24.605  39.474   8.737
 2241POPC   D2A31216  24.744  39.168   8.466
 2241POPC   C3A31217  24.717  39.357   8.080
 2241POPC   C4A31218  24.675  39.250   7.670
 2241POPC   C1B31219  24.109  39.343   8.764
 2241POPC   C2B31220  24.229  39.376   8.355
 2241POPC   C3B31221  24.244  39.193   7.959
 2241POPC   C4B31222  24.111  39.437   7.614
 2242POPC   NC331223  40.249  12.100   9.531
 2242POPC   PO431224  39.761  12.326   9.127
 2242POPC   GL131225  40.029  11.980   8.981
 2242POPC   GL231226  40.383  11.935   9.054
 2242POPC   C1A31227  39.847  11.913   8.598
 2242POPC   D2A31228  39.778  12.291   8.351
 2242POPC   C3A31229  39.916  12.213   7.955
 2242POPC   C4A31230  39.804  11.815   7.899
 2242POPC   C1B31231  40.335  12.050   8.606
 2242POPC   C2B31232  40.199  11.914   8.233
 2242POPC   C3B31233  40.297  11.674   7.879
 2242POPC   C4B31234  40.494  11.997   7.662
 2243POPC   NC331235   2.523  43.317   9.388
 2243POPC   PO431236   2.996  42.991   9.749
 2243POPC   GL131237   3.032  42.915   9.269
 2243POPC   GL231238   2.737  42.973   9.066
 2243POPC   C1A31239   3.180  42.867   8.821
 2243POPC   D2A31240   2.914  42.935   8.459
 2243POPC   C3A31241   3.054  43.056   8.060
 2243POPC   C4A31242   2.863  42.981   7.690
 2243POPC   C1B31243   2.930  43.329   8.829
 2243POPC   C2B31244   2.820  43.457   8.412
 2243POPC   C3B31245   2.650  43.380   8.001
 2243POPC   C4B31246   2.933  43.472   7.684
 2244POPC   NC331247  42.265   0.716   9.584
 2244POPC   PO431248  42.901   0.714   9.397
 2244POPC   GL131249  42.515   0.664   9.120
 2244POPC   GL231250  42.135   0.549   9.119
 2244POPC   C1A31251  42.413   0.472   8.714
 2244POPC   D2A31252  42.490   0.694   8.364
 2244POPC   C3A31253  42.389   0.491   8.011
 2244POPC   C4A31254  42.305   0.629   7.621
 2244POPC   C1B31255  41.942   0.211   8.838
 2244POPC   C2B31256  41.751   0.038   8.441
 2244POPC   C3B31257  41.769   0.081   7.991
 2244POPC   C4B31258  42.081   0.180   7.725
 2245POPC   NC331259  12.783  32.939   9.717
 2245POPC   PO431260  13.205  33.459   9.453
 2245POPC   GL131261  12.952  33.328   9.071
 2245POPC   GL231262  12.601  33.208   9.161
 2245POPC   C1A31263  13.045  33.160   8.660
 2245POPC   D2A31264  12.982  33.043   8.223
 2245POPC   C3A31265  12.722  33.287   7.976
 2245POPC   C4A31266  12.870  33.427   7.616
 2245POPC   C1B31267  12.581  32.899   8.814
 2245POPC   C2B31268  12.510  32.956   8.374
 2245POPC   C3B31269  12.552  32.817   7.942
 2245POPC   C4B31270  12.548  33.038   7.550
 2246POPC   NC331271   7.658  42.850   9.485
 2246POPC   PO431272   7.351  43.493   9.422
 2246POPC   GL131273   7.567  43.262   9.108
 2246POPC   GL231274   7.404  42.959   9.077
 2246POPC   C1A31275   7.415  43.313   8.701
 2246POPC   D2A31276   7.056  43.338   8.472
 2246POPC   C3A31277   7.218  43.424   8.109
 2246POPC   C4A31278   7.172  43.459   7.700
 2246POPC   C1B31279   7.519  42.810   8.688
 2246POPC   C2B31280   7.388  42.969   8.279
 2246POPC   C3B31281   7.432  43.007   7.817
 2246POPC   C4B31282   7.424  42.734   7.452
 2247POPC   NC331283  14.561  40.418   9.588
 2247POPC   PO431284  14.312  39.801   9.621
 2247POPC   GL131285  14.227  39.856   9.154
 2247POPC   GL231286  14.424  40.131   9.064
 2247POPC   C1A31287  14.228  39.851   8.675
 2247POPC   D2A31288  14.365  39.782   8.229
 2247POPC   C3A31289  14.076  39.800   7.866
 2247POPC   C4A31290  14.084  39.917   7.429
 2247POPC   C1B31291  14.594  40.273   8.678
 2247POPC   C2B31292  14.723  40.170   8.245
 2247POPC   C3B31293  14.447  40.165   7.884
 2247POPC   C4B31294  14.330  40.342   7.508
 2248POPC   NC331295   9.258  21.308   9.678
 2248POPC   PO431296   8.577  21.266   9.684
 2248POPC   GL131297   8.760  21.255   9.263
 2248POPC   GL231298   9.098  21.405   9.171
 2248POPC   C1A31299   8.932  21.059   8.865
 2248POPC   D2A31300   9.158  21.211   8.496
 2248POPC   C3A31301   8.933  21.089   8.111
 2248POPC   C4A31302   8.761  21.091   7.681
 2248POPC   C1B31303   8.772  21.571   8.869
 2248POPC   C2B31304   8.711  21.485   8.451
 2248POPC   C3B31305   9.005  21.606   8.158
 2248POPC   C4B31306   9.130  21.412   7.781
 2249POPC   NC331307   3.894  34.215   9.758
 2249POPC   PO431308   3.569  33.693   9.430
 2249POPC   GL131309   3.386  33.779   9.067
 2249POPC   GL231310   3.312  34.111   8.977
 2249POPC   C1A31311   3.602  33.726   8.725
 2249POPC   D2A31312   3.450  33.795   8.359
 2249POPC   C3A31313   3.586  33.627   8.001
 2249POPC   C4A31314   3.336  33.853   7.712
 2249POPC   C1B31315   3.612  34.224   8.627
 2249POPC   C2B31316   3.839  34.098   8.262
 2249POPC   C3B31317   3.814  34.067   7.826
 2249POPC   C4B31318   4.099  33.982   7.468
 2250POPC   NC331319   2.974  26.742   9.578
 2250POPC   PO431320   2.409  27.095   9.583
 2250POPC   GL131321   2.678  26.981   9.217
 2250POPC   GL231322   2.818  26.632   9.120
 2250POPC   C1A31323   2.560  26.881   8.776
 2250POPC   D2A31324   2.365  26.662   8.451
 2250POPC   C3A31325   2.426  26.922   8.091
 2250POPC   C4A31326   2.707  26.898   7.734
 2250POPC   C1B31327   3.061  26.946   8.869
 2250POPC   C2B31328   2.942  27.060   8.443
 2250POPC   C3B31329   3.089  26.919   8.064
 2250POPC   C4B31330   3.306  26.817   7.671
 2251POPC   NC331331   1.715  28.522   9.514
 2251POPC   PO431332   1.143  28.170   9.724
 2251POPC   GL131333   1.159  28.190   9.220
 2251POPC   GL231334   1.303  27.895   9.054
 2251POPC   C1A31335   0.992  28.231   8.769
 2251POPC   D2A31336   0.911  28.481   8.364
 2251POPC   C3A31337   1.031  28.432   7.914
 2251POPC   C4A31338   1.013  28.580   7.447
 2251POPC   C1B31339   1.454  28.024   8.669
 2251POPC   C2B31340   1.357  28.222   8.301
 2251POPC   C3B31341   1.576  28.293   7.934
 2251POPC   C4B31342   1.456  28.345   7.524
 2252POPC   NC331343  13.349   0.793   9.466
 2252POPC   PO431344  13.861   0.299   9.492
 2252POPC   GL131345  13.635   0.414   9.126
 2252POPC   GL231346  13.760   0.749   9.153
 2252POPC   C1A31347  13.641   0.342   8.662
 2252POPC   D2A31348  13.334   0.512   8.341
 2252POPC   C3A31349  13.467   0.493   7.906
 2252POPC   C4A31350  13.766   0.199   7.748
 2252POPC   C1B31351  13.541   0.821   8.786
 2252POPC   C2B31352  13.747   0.800   8.378
 2252POPC   C3B31353  13.874   0.969   8.016
 2252POPC   C4B31354  13.834   0.778   7.633
 2253POPC   NC331355  14.403  33.328   9.443
 2253POPC   PO431356  13.934  32.809   9.668
 2253POPC   GL131357  14.297  32.870   9.270
 2253POPC   GL231358  14.230  33.143   9.009
 2253POPC   C1A31359  14.501  32.751   8.836
 2253POPC   D2A31360  14.479  32.996   8.437
 2253POPC   C3A31361  14.505  32.828   8.040
 2253POPC   C4A31362  14.195  32.714   7.745
 2253POPC   C1B31363  14.650  33.298   8.796
 2253POPC   C2B31364  14.635  33.503   8.397
 2253POPC   C3B31365  14.419  33.361   8.057
 2253POPC   C4B31366  14.400  33.207   7.662
 2254POPC   NC331367   7.443  29.729   9.343
 2254POPC   PO431368   7.055  29.156   9.404
 2254POPC   GL131369   7.318  29.080   9.037
 2254POPC   GL231370   7.684  29.138   9.070
 2254POPC   C1A31371   7.343  29.117   8.585
 2254POPC   D2A31372   7.590  29.016   8.220
 2254POPC   C3A31373   7.318  28.840   7.920
 2254POPC   C4A31374   7.338  29.017   7.526
 2254POPC   C1B31375   7.622  29.505   8.774
 2254POPC   C2B31376   7.536  29.524   8.336
 2254POPC   C3B31377   7.363  29.379   7.933
 2254POPC   C4B31378   7.636  29.448   7.608
 2255POPC   NC331379   8.100  11.829   9.468
 2255POPC   PO431380   8.764  11.720   9.640
 2255POPC   GL131381   8.530  11.761   9.191
 2255POPC   GL231382   8.179  11.729   8.999
 2255POPC   C1A31383   8.500  12.018   8.764
 2255POPC   D2A31384   8.198  12.234   8.538
 2255POPC   C3A31385   8.177  12.184   8.121
 2255POPC   C4A31386   8.180  12.309   7.734
 2255POPC   C1B31387   7.918  11.802   8.647
 2255POPC   C2B31388   7.803  11.739   8.197
 2255POPC   C3B31389   7.953  11.853   7.789
 2255POPC   C4B31390   7.854  11.812   7.327
 2256POPC   NC331391  15.851  29.057   9.644
 2256POPC   PO431392  16.131  29.653   9.677
 2256POPC   GL131393  16.099  29.364   9.289
 2256POPC   GL231394  16.182  29.007   9.235
 2256POPC   C1A31395  15.780  29.214   8.952
 2256POPC   D2A31396  15.606  29.320   8.510
 2256POPC   C3A31397  15.800  29.271   8.093
 2256POPC   C4A31398  15.844  29.029   7.715
 2256POPC   C1B31399  16.280  29.227   8.822
 2256POPC   C2B31400  16.215  29.379   8.386
 2256POPC   C3B31401  16.312  29.225   7.957
 2256POPC   C4B31402  16.347  28.986   7.571
 2257POPC   NC331403  22.325   3.224   9.618
 2257POPC   PO431404  21.837   3.696   9.493
 2257POPC   GL131405  21.973   3.398   9.216
 2257POPC   GL231406  22.332   3.448   9.177
 2257POPC   C1A31407  22.034   3.411   8.773
 2257POPC   D2A31408  22.198   3.387   8.389
 2257POPC   C3A31409  21.989   3.462   8.003
 2257POPC   C4A31410  21.924   3.209   7.628
 2257POPC   C1B31411  22.455   3.721   8.845
 2257POPC   C2B31412  22.475   3.814   8.438
 2257POPC   C3B31413  22.487   3.623   8.042
 2257POPC   C4B31414  22.379   3.494   7.643
 2258POPC   NC331415  40.501  17.855   9.448
 2258POPC   PO431416  40.980  17.317   9.463
 2258POPC   GL131417  40.715  17.449   9.185
 2258POPC   GL231418  40.995  17.532   8.960
 2258POPC   C1A31419  40.572  17.314   8.812
 2258POPC   D2A31420  40.753  17.532   8.434
 2258POPC   C3A31421  40.502  17.714   8.042
 2258POPC   C4A31422  40.534  17.366   7.711
 2258POPC   C1B31423  40.832  17.909   8.784
 2258POPC   C2B31424  40.870  18.019   8.333
 2258POPC   C3B31425  41.003  17.689   8.013
 2258POPC   C4B31426  41.041  17.641   7.557
 2259POPC   NC331427  42.626  42.790   9.435
 2259POPC   PO431428  42.146  43.231   9.400
 2259POPC   GL131429  42.511  43.211   9.142
 2259POPC   GL231430  42.581  42.893   8.946
 2259POPC   C1A31431  42.464  43.372   8.754
 2259POPC   D2A31432  42.381  43.180   8.354
 2259POPC   C3A31433  42.438  43.381   7.952
 2259POPC   C4A31434  42.517  43.054   7.684
 2259POPC   C1B31435  42.143  42.962   8.770
 2259POPC   C2B31436  41.914  42.957   8.370
 2259POPC   C3B31437  42.073  42.947   7.938
 2259POPC   C4B31438  42.148  42.780   7.515
 2260POPC   NC331439   2.532  44.213   9.598
 2260POPC   PO431440   2.952  44.796   9.544
 2260POPC   GL131441   3.009  44.689   9.141
 2260POPC   GL231442   2.659  44.642   9.138
 2260POPC   C1A31443   3.201  44.715   8.710
 2260POPC   D2A31444   3.122  44.482   8.312
 2260POPC   C3A31445   2.877  44.702   7.939
 2260POPC   C4A31446   2.790  44.446   7.561
 2260POPC   C1B31447   2.700  44.728   8.719
 2260POPC   C2B31448   2.621  44.521   8.354
 2260POPC   C3B31449   2.484  44.364   7.972
 2260POPC   C4B31450   2.292  44.550   7.634
 2261POPC   NC331451  39.551  22.116   9.506
 2261POPC   PO431452  39.048  22.443   9.766
 2261POPC   GL131453  39.151  22.193   9.221
 2261POPC   GL231454  39.190  22.500   8.946
 2261POPC   C1A31455  39.284  22.009   8.756
 2261POPC   D2A31456  39.442  22.213   8.343
 2261POPC   C3A31457  39.377  21.967   7.942
 2261POPC   C4A31458  38.947  21.823   7.846
 2261POPC   C1B31459  38.907  22.339   8.689
 2261POPC   C2B31460  38.916  22.107   8.350
 2261POPC   C3B31461  39.042  22.342   8.025
 2261POPC   C4B31462  39.450  22.523   7.876
 2262POPC   NC331463  10.836  28.996   9.469
 2262POPC   PO431464  10.245  29.438   9.439
 2262POPC   GL131465  10.248  29.271   9.046
 2262POPC   GL231466  10.444  28.993   9.093
 2262POPC   C1A31467  10.430  29.269   8.626
 2262POPC   D2A31468  10.770  29.280   8.316
 2262POPC   C3A31469  10.512  29.100   8.044
 2262POPC   C4A31470  10.392  28.864   7.727
 2262POPC   C1B31471  10.813  28.972   8.792
 2262POPC   C2B31472  10.703  28.778   8.370
 2262POPC   C3B31473  10.725  28.558   7.979
 2262POPC   C4B31474  10.828  28.677   7.534
 2263POPC   NC331475  13.034   2.367   9.483
 2263POPC   PO431476  13.757   2.092   9.517
 2263POPC   GL131477  13.743   2.110   9.085
 2263POPC   GL231478  13.385   2.242   9.099
 2263POPC   C1A31479  13.622   2.230   8.668
 2263POPC   D2A31480  13.487   2.022   8.298
 2263POPC   C3A31481  13.599   2.209   7.897
 2263POPC   C4A31482  13.883   2.146   7.530
 2263POPC   C1B31483  13.238   1.933   8.772
 2263POPC   C2B31484  13.252   1.582   8.488
 2263POPC   C3B31485  13.490   1.501   8.124
 2263POPC   C4B31486  13.529   1.732   7.721
 2264POPC   NC331487  43.006   1.170   9.511
 2264POPC   PO431488  42.554   1.702   9.387
 2264POPC   GL131489  42.875   1.448   9.125
 2264POPC   GL231490  42.865   1.084   9.032
 2264POPC   C1A31491  43.091   1.523   8.752
 2264POPC   D2A31492  43.184   1.280   8.389
 2264POPC   C3A31493  43.282   1.482   7.989
 2264POPC   C4A31494  43.266   1.539   7.518
 2264POPC   C1B31495  43.228   0.855   8.833
 2264POPC   C2B31496  43.471   0.816   8.447
 2264POPC   C3B31497  43.235   0.887   8.060
 2264POPC   C4B31498  43.291   1.062   7.687
 2265POPC   NC331499  18.251  44.415   9.519
 2265POPC   PO431500  18.387   0.093   9.469
 2265POPC   GL131501  18.437  44.761   9.199
 2265POPC   GL231502  18.074  44.782   9.156
 2265POPC   C1A31503  18.315  44.457   8.845
 2265POPC   D2A31504  18.320  44.589   8.415
 2265POPC   C3A31505  18.364  44.322   8.067
 2265POPC   C4A31506  18.268  44.527   7.694
 2265POPC   C1B31507  18.281  44.963   8.763
 2265POPC   C2B31508  18.413   0.106   8.370
 2265POPC   C3B31509  18.282  44.954   7.987
 2265POPC   C4B31510  18.301   0.052   7.565
 2266POPC   NC331511  39.980  32.656   9.483
 2266POPC   PO431512  40.294  33.327   9.549
 2266POPC   GL131513  40.206  33.020   9.221
 2266POPC   GL231514  40.095  33.230   8.998
 2266POPC   C1A31515  40.282  32.773   8.808
 2266POPC   D2A31516  40.248  32.967   8.389
 2266POPC   C3A31517  39.949  32.843   8.067
 2266POPC   C4A31518  40.038  32.813   7.630
 2266POPC   C1B31519  39.818  32.976   8.734
 2266POPC   C2B31520  39.597  33.086   8.385
 2266POPC   C3B31521  39.708  33.325   8.046
 2266POPC   C4B31522  39.722  33.209   7.636
 2267POPC   NC331523  28.643   8.701   9.379
 2267POPC   PO431524  28.019   8.993   9.209
 2267POPC   GL131525  28.206   9.053   8.872
 2267POPC   GL231526  28.506   9.055   9.008
 2267POPC   C1A31527  28.206   9.306   8.522
 2267POPC   D2A31528  28.299   9.320   8.095
 2267POPC   C3A31529  28.263   9.010   7.809
 2267POPC   C4A31530  28.215   8.963   7.341
 2267POPC   C1B31531  28.778   9.023   8.691
 2267POPC   C2B31532  28.802   9.275   8.312
 2267POPC   C3B31533  28.756   9.107   7.916
 2267POPC   C4B31534  28.679   9.038   7.494
 2268POPC   NC331535  12.122  14.958   9.357
 2268POPC   PO431536  12.050  15.478   9.795
 2268POPC   GL131537  11.932  15.439   9.320
 2268POPC   GL231538  12.268  15.488   9.161
 2268POPC   C1A31539  11.942  15.284   8.836
 2268POPC   D2A31540  12.261  15.031   8.576
 2268POPC   C3A31541  12.156  15.015   8.131
 2268POPC   C4A31542  11.740  15.128   7.952
 2268POPC   C1B31543  12.406  15.548   8.703
 2268POPC   C2B31544  12.265  15.609   8.257
 2268POPC   C3B31545  12.280  15.406   7.816
 2268POPC   C4B31546  12.426  15.359   7.340
 2269POPC   NC331547  16.504  29.830   9.457
 2269POPC   PO431548  17.070  29.594   9.338
 2269POPC   GL131549  16.824  29.835   9.034
 2269POPC   GL231550  16.513  30.056   8.994
 2269POPC   C1A31551  16.888  30.072   8.659
 2269POPC   D2A31552  16.736  30.168   8.276
 2269POPC   C3A31553  17.036  30.010   7.993
 2269POPC   C4A31554  17.179  29.914   7.587
 2269POPC   C1B31555  16.506  29.711   8.671
 2269POPC   C2B31556  16.677  29.656   8.256
 2269POPC   C3B31557  16.591  29.760   7.832
 2269POPC   C4B31558  16.377  29.509   7.527
 2270POPC   NC331559  37.640  32.743   9.865
 2270POPC   PO431560  37.664  32.087   9.606
 2270POPC   GL131561  37.521  32.194   9.190
 2270POPC   GL231562  37.545  32.551   9.146
 2270POPC   C1A31563  37.622  32.176   8.730
 2270POPC   D2A31564  37.930  32.323   8.409
 2270POPC   C3A31565  37.825  32.189   8.009
 2270POPC   C4A31566  37.664  32.020   7.619
 2270POPC   C1B31567  37.417  32.651   8.725
 2270POPC   C2B31568  37.439  32.468   8.277
 2270POPC   C3B31569  37.306  32.222   7.908
 2270POPC   C4B31570  37.290  32.313   7.428
 2271POPC   NC331571  32.444  17.226   9.516
 2271POPC   PO431572  32.084  17.804   9.578
 2271POPC   GL131573  32.143  17.555   9.234
 2271POPC   GL231574  32.464  17.515   9.114
 2271POPC   C1A31575  32.050  17.445   8.828
 2271POPC   D2A31576  31.901  17.372   8.452
 2271POPC   C3A31577  32.188  17.331   8.133
 2271POPC   C4A31578  32.002  17.432   7.756
 2271POPC   C1B31579  32.568  17.423   8.696
 2271POPC   C2B31580  32.552  17.676   8.325
 2271POPC   C3B31581  32.570  17.637   7.888
 2271POPC   C4B31582  32.520  17.291   7.666
 2272POPC   NC331583  24.020  29.111   9.454
 2272POPC   PO431584  23.502  29.604   9.490
 2272POPC   GL131585  23.735  29.508   9.094
 2272POPC   GL231586  24.081  29.415   9.011
 2272POPC   C1A31587  23.649  29.372   8.667
 2272POPC   D2A31588  23.422  29.206   8.295
 2272POPC   C3A31589  23.582  29.152   7.856
 2272POPC   C4A31590  23.987  29.257   7.627
 2272POPC   C1B31591  23.982  28.993   8.798
 2272POPC   C2B31592  23.863  28.846   8.370
 2272POPC   C3B31593  24.060  28.796   7.950
 2272POPC   C4B31594  24.236  28.512   7.636
 2273POPC   NC331595   8.453  19.686   9.436
 2273POPC   PO431596   7.784  19.905   9.597
 2273POPC   GL131597   8.005  19.945   9.157
 2273POPC   GL231598   8.307  19.913   9.030
 2273POPC   C1A31599   7.909  19.828   8.739
 2273POPC   D2A31600   8.195  19.791   8.425
 2273POPC   C3A31601   8.001  19.930   8.094
 2273POPC   C4A31602   8.114  19.891   7.663
 2273POPC   C1B31603   8.555  19.686   8.784
 2273POPC   C2B31604   8.753  19.802   8.438
 2273POPC   C3B31605   8.600  19.879   8.046
 2273POPC   C4B31606   8.845  19.773   7.707
 2274POPC   NC331607   2.156  23.328   9.369
 2274POPC   PO431608   1.755  23.829   9.470
 2274POPC   GL131609   1.906  23.691   9.064
 2274POPC   GL231610   2.258  23.772   9.114
 2274POPC   C1A31611   1.832  23.672   8.590
 2274POPC   D2A31612   1.952  23.921   8.202
 2274POPC   C3A31613   1.907  23.828   7.759
 2274POPC   C4A31614   2.120  23.893   7.352
 2274POPC   C1B31615   2.355  23.737   8.704
 2274POPC   C2B31616   2.294  23.519   8.331
 2274POPC   C3B31617   2.375  23.671   7.944
 2274POPC   C4B31618   2.224  23.467   7.595
 2275POPC   NC331619  37.216   5.049   9.556
 2275POPC   PO431620  36.859   5.463   9.249
 2275POPC   GL131621  36.971   5.092   9.063
 2275POPC   GL231622  37.203   4.812   9.107
 2275POPC   C1A31623  36.828   5.042   8.657
 2275POPC   D2A31624  36.946   5.273   8.262
 2275POPC   C3A31625  36.686   5.283   7.899
 2275POPC   C4A31626  36.730   5.159   7.464
 2275POPC   C1B31627  37.151   4.628   8.700
 2275POPC   C2B31628  36.996   4.733   8.289
 2275POPC   C3B31629  37.055   4.916   7.891
 2275POPC   C4B31630  37.131   4.789   7.458
 2276POPC   NC331631  16.895   0.632   9.535
 2276POPC   PO431632  16.264   0.509   9.586
 2276POPC   GL131633  16.540   0.594   9.173
 2276POPC   GL231634  16.705   0.262   9.159
 2276POPC   C1A31635  16.946   0.579   8.854
 2276POPC   D2A31636  16.968   0.403   8.437
 2276POPC   C3A31637  16.880   0.609   8.051
 2276POPC   C4A31638  17.045   0.488   7.638
 2276POPC   C1B31639  16.515   0.326   8.723
 2276POPC   C2B31640  16.496   0.262   8.246
 2276POPC   C3B31641  16.705   0.160   7.831
 2276POPC   C4B31642  16.541   0.140   7.376
 2277POPC   NC331643  22.638  32.455   9.245
 2277POPC   PO431644  22.118  32.506   9.652
 2277POPC   GL131645  22.153  32.261   9.254
 2277POPC   GL231646  21.936  32.490   9.128
 2277POPC   C1A31647  22.358  32.069   8.834
 2277POPC   D2A31648  22.204  31.996   8.410
 2277POPC   C3A31649  22.466  32.083   8.056
 2277POPC   C4A31650  22.316  31.865   7.677
 2277POPC   C1B31651  21.988  32.390   8.702
 2277POPC   C2B31652  21.920  32.476   8.291
 2277POPC   C3B31653  22.022  32.292   7.908
 2277POPC   C4B31654  22.403  32.365   7.616
 2278POPC   NC331655  16.421  10.921   9.332
 2278POPC   PO431656  16.792  10.519   9.776
 2278POPC   GL131657  16.712  10.502   9.308
 2278POPC   GL231658  16.325  10.459   9.172
 2278POPC   C1A31659  16.768  10.364   8.852
 2278POPC   D2A31660  16.609  10.390   8.397
 2278POPC   C3A31661  16.879  10.353   8.014
 2278POPC   C4A31662  17.177  10.303   7.661
 2278POPC   C1B31663  16.328  10.640   8.757
 2278POPC   C2B31664  16.317  10.789   8.352
 2278POPC   C3B31665  16.424  10.619   7.951
 2278POPC   C4B31666  16.331  10.445   7.572
 2279POPC   NC331667  13.091  13.747   9.382
 2279POPC   PO431668  12.423  13.522   9.492
 2279POPC   GL131669  12.654  13.622   9.139
 2279POPC   GL231670  12.943  13.347   9.155
 2279POPC   C1A31671  12.730  13.525   8.727
 2279POPC   D2A31672  12.563  13.265   8.428
 2279POPC   C3A31673  12.666  13.548   8.126
 2279POPC   C4A31674  12.517  13.526   7.711
 2279POPC   C1B31675  13.231  13.506   8.787
 2279POPC   C2B31676  13.074  13.763   8.411
 2279POPC   C3B31677  13.140  13.619   7.975
 2279POPC   C4B31678  12.924  13.212   7.835
 2280POPC   NC331679   2.953  17.089   9.703
 2280POPC   PO431680   2.446  16.793   9.550
 2280POPC   GL131681   2.563  17.024   9.171
 2280POPC   GL231682   2.900  17.182   9.163
 2280POPC   C1A31683   2.644  17.053   8.733
 2280POPC   D2A31684   2.822  16.898   8.350
 2280POPC   C3A31685   2.666  16.825   7.928
 2280POPC   C4A31686   2.580  16.493   7.580
 2280POPC   C1B31687   3.119  16.926   8.810
 2280POPC   C2B31688   3.316  17.002   8.380
 2280POPC   C3B31689   3.195  16.908   7.945
 2280POPC   C4B31690   3.263  17.088   7.545
 2281POPC   NC331691  34.811  14.033   9.464
 2281POPC   PO431692  34.668  14.708   9.603
 2281POPC   GL131693  34.760  14.532   9.222
 2281POPC   GL231694  34.754  14.860   9.126
 2281POPC   C1A31695  34.773  14.316   8.825
 2281POPC   D2A31696  34.446  14.276   8.514
 2281POPC   C3A31697  34.619  14.340   8.099
 2281POPC   C4A31698  34.318  14.315   7.797
 2281POPC   C1B31699  34.495  14.742   8.805
 2281POPC   C2B31700  34.629  14.783   8.400
 2281POPC   C3B31701  34.422  14.792   8.034
 2281POPC   C4B31702  34.551  14.752   7.654
 2282POPC   NC331703  37.190  44.832   9.377
 2282POPC   PO431704  36.658  44.398   9.412
 2282POPC   GL131705  36.927  44.497   9.111
 2282POPC   GL231706  36.911  44.885   8.975
 2282POPC   C1A31707  37.079  44.305   8.771
 2282POPC   D2A31708  37.083  44.529   8.431
 2282POPC   C3A31709  36.965  44.401   8.070
 2282POPC   C4A31710  37.201  44.365   7.733
 2282POPC   C1B31711  36.654  44.652   8.716
 2282POPC   C2B31712  36.545  44.478   8.364
 2282POPC   C3B31713  36.455  44.575   7.943
 2282POPC   C4B31714  36.815  44.749   7.717
 2283POPC   NC331715  37.949  12.999   9.342
 2283POPC   PO431716  37.347  12.795   9.616
 2283POPC   GL131717  37.453  12.924   9.191
 2283POPC   GL231718  37.624  12.622   9.135
 2283POPC   C1A31719  37.653  12.930   8.750
 2283POPC   D2A31720  37.776  12.688   8.370
 2283POPC   C3A31721  37.897  12.859   7.987
 2283POPC   C4A31722  37.666  13.116   7.733
 2283POPC   C1B31723  37.410  12.483   8.744
 2283POPC   C2B31724  37.268  12.701   8.364
 2283POPC   C3B31725  37.367  12.763   7.951
 2283POPC   C4B31726  37.624  12.500   7.729
 2284POPC   NC331727  32.169   3.165   9.468
 2284POPC   PO431728  31.913   2.559   9.527
 2284POPC   GL131729  32.176   2.650   9.127
 2284POPC   GL231730  32.567   2.474   9.074
 2284POPC   C1A31731  32.015   2.777   8.737
 2284POPC   D2A31732  31.889   2.655   8.339
 2284POPC   C3A31733  32.158   2.869   8.028
 2284POPC   C4A31734  32.264   2.697   7.642
 2284POPC   C1B31735  32.539   2.808   8.766
 2284POPC   C2B31736  32.519   2.989   8.369
 2284POPC   C3B31737  32.668   2.880   7.979
 2284POPC   C4B31738  32.727   2.522   7.772
 2285POPC   NC331739  35.090  35.502   9.504
 2285POPC   PO431740  34.428  35.209   9.452
 2285POPC   GL131741  34.568  35.344   9.087
 2285POPC   GL231742  34.638  35.688   9.150
 2285POPC   C1A31743  34.425  35.139   8.712
 2285POPC   D2A31744  34.602  34.868   8.421
 2285POPC   C3A31745  34.494  35.055   8.036
 2285POPC   C4A31746  34.621  35.267   7.652
 2285POPC   C1B31747  34.469  35.681   8.716
 2285POPC   C2B31748  34.255  35.483   8.351
 2285POPC   C3B31749  34.424  35.615   7.969
 2285POPC   C4B31750  34.520  35.792   7.544
 2286POPC   NC331751   4.625  30.573   9.591
 2286POPC   PO431752   4.044  30.737   9.815
 2286POPC   GL131753   4.190  30.573   9.341
 2286POPC   GL231754   4.389  30.804   9.114
 2286POPC   C1A31755   4.325  30.355   8.925
 2286POPC   D2A31756   4.467  30.557   8.565
 2286POPC   C3A31757   4.277  30.452   8.185
 2286POPC   C4A31758   4.349  30.432   7.740
 2286POPC   C1B31759   4.322  31.047   8.726
 2286POPC   C2B31760   4.174  31.085   8.324
 2286POPC   C3B31761   4.375  31.131   7.952
 2286POPC   C4B31762   4.363  30.907   7.585
 2287POPC   NC331763  29.278  12.679   9.377
 2287POPC   PO431764  28.858  13.153   9.473
 2287POPC   GL131765  29.140  13.109   9.141
 2287POPC   GL231766  29.515  13.064   9.163
 2287POPC   C1A31767  29.173  12.944   8.756
 2287POPC   D2A31768  28.893  12.971   8.458
 2287POPC   C3A31769  29.088  12.996   8.069
 2287POPC   C4A31770  28.938  12.848   7.675
 2287POPC   C1B31771  29.638  12.738   8.816
 2287POPC   C2B31772  29.527  12.799   8.388
 2287POPC   C3B31773  29.483  12.666   7.962
 2287POPC   C4B31774  29.447  12.910   7.585
 2288POPC   NC331775   4.601  23.221   9.425
 2288POPC   PO431776   4.165  22.790   9.526
 2288POPC   GL131777   4.086  22.974   9.124
 2288POPC   GL231778   4.031  23.311   9.238
 2288POPC   C1A31779   4.417  22.912   8.811
 2288POPC   D2A31780   4.586  23.001   8.387
 2288POPC   C3A31781   4.576  22.710   8.064
 2288POPC   C4A31782   4.366  22.755   7.692
 2288POPC   C1B31783   4.290  23.426   8.876
 2288POPC   C2B31784   4.487  23.496   8.484
 2288POPC   C3B31785   4.410  23.407   8.051
 2288POPC   C4B31786   4.661  23.156   7.753
 2289POPC   NC331787   1.108  32.357   9.697
 2289POPC   PO431788   1.102  31.771   9.583
 2289POPC   GL131789   1.308  32.105   9.281
 2289POPC   GL231790   1.023  32.350   9.194
 2289POPC   C1A31791   1.396  32.316   8.849
 2289POPC   D2A31792   1.304  32.501   8.419
 2289POPC   C3A31793   1.389  32.215   8.045
 2289POPC   C4A31794   1.180  31.952   7.774
 2289POPC   C1B31795   0.981  32.659   8.850
 2289POPC   C2B31796   0.813  32.638   8.404
 2289POPC   C3B31797   0.886  32.386   7.982
 2289POPC   C4B31798   0.861  32.386   7.502
 2290POPC   NC331799  39.190   0.204   9.543
 2290POPC   PO431800  39.086  44.539   9.555
 2290POPC   GL131801  38.963  44.820   9.227
 2290POPC   GL231802  39.299  44.907   9.132
 2290POPC   C1A31803  38.992  44.718   8.763
 2290POPC   D2A31804  39.314  44.475   8.524
 2290POPC   C3A31805  39.213  44.338   8.103
 2290POPC   C4A31806  39.338  44.356   7.696
 2290POPC   C1B31807  39.309   0.118   8.728
 2290POPC   C2B31808  39.438  44.966   8.339
 2290POPC   C3B31809  39.375  44.865   7.926
 2290POPC   C4B31810  39.587   0.130   7.652
 2291POPC   NC331811  32.165  19.596   9.549
 2291POPC   PO431812  32.535  20.192   9.453
 2291POPC   GL131813  32.407  20.031   9.030
 2291POPC   GL231814  32.208  19.696   9.022
 2291POPC   C1A31815  32.508  19.840   8.643
 2291POPC   D2A31816  32.252  20.032   8.355
 2291POPC   C3A31817  32.436  19.960   8.020
 2291POPC   C4A31818  32.338  20.069   7.661
 2291POPC   C1B31819  31.992  19.680   8.625
 2291POPC   C2B31820  32.242  19.505   8.291
 2291POPC   C3B31821  32.196  19.537   7.866
 2291POPC   C4B31822  31.854  19.751   7.769
 2292POPC   NC331823  19.313  14.034   9.806
 2292POPC   PO431824  18.965  13.537   9.667
 2292POPC   GL131825  19.187  13.547   9.261
 2292POPC   GL231826  18.907  13.517   9.130
 2292POPC   C1A31827  19.328  13.526   8.809
 2292POPC   D2A31828  19.136  13.640   8.403
 2292POPC   C3A31829  19.207  13.378   8.013
 2292POPC   C4A31830  19.208  13.646   7.622
 2292POPC   C1B31831  18.767  13.441   8.738
 2292POPC   C2B31832  18.819  13.251   8.350
 2292POPC   C3B31833  18.709  13.495   7.995
 2292POPC   C4B31834  18.759  13.434   7.578
 2293POPC   NC331835  14.925  34.174   9.331
 2293POPC   PO431836  15.364  33.741   9.748
 2293POPC   GL131837  15.219  33.771   9.278
 2293POPC   GL231838  14.957  33.518   9.147
 2293POPC   C1A31839  15.288  33.711   8.821
 2293POPC   D2A31840  15.320  33.586   8.377
 2293POPC   C3A31841  15.371  33.863   8.033
 2293POPC   C4A31842  15.298  33.699   7.621
 2293POPC   C1B31843  14.788  33.801   8.795
 2293POPC   C2B31844  14.865  33.957   8.345
 2293POPC   C3B31845  14.877  33.847   7.888
 2293POPC   C4B31846  14.819  33.506   7.548
 2294POPC   NC331847   5.224  22.211   9.658
 2294POPC   PO431848   5.420  21.583   9.711
 2294POPC   GL131849   5.309  21.765   9.343
 2294POPC   GL231850   5.108  22.020   9.157
 2294POPC   C1A31851   5.418  21.678   8.922
 2294POPC   D2A31852   5.327  21.742   8.516
 2294POPC   C3A31853   4.994  21.906   8.271
 2294POPC   C4A31854   4.974  22.069   7.847
 2294POPC   C1B31855   5.076  22.195   8.700
 2294POPC   C2B31856   4.975  22.424   8.275
 2294POPC   C3B31857   5.093  22.667   7.892
 2294POPC   C4B31858   5.012  22.853   7.466
 2295POPC   NC331859  25.739  20.361   9.320
 2295POPC   PO431860  25.244  20.683   9.581
 2295POPC   GL131861  25.211  20.499   9.179
 2295POPC   GL231862  24.889  20.586   8.988
 2295POPC   C1A31863  25.371  20.593   8.783
 2295POPC   D2A31864  25.132  20.546   8.436
 2295POPC   C3A31865  25.366  20.568   8.071
 2295POPC   C4A31866  25.483  20.866   7.776
 2295POPC   C1B31867  25.105  21.000   8.947
 2295POPC   C2B31868  25.290  21.077   8.538
 2295POPC   C3B31869  25.095  20.988   8.144
 2295POPC   C4B31870  24.994  21.057   7.727
 2296POPC   NC331871   8.061  20.269   9.537
 2296POPC   PO431872   8.162  20.908   9.384
 2296POPC   GL131873   8.078  20.692   9.049
 2296POPC   GL231874   8.253  20.412   9.084
 2296POPC   C1A31875   8.358  20.700   8.663
 2296POPC   D2A31876   8.522  20.823   8.266
 2296POPC   C3A31877   8.245  20.831   7.928
 2296POPC   C4A31878   7.826  20.717   7.761
 2296POPC   C1B31879   8.034  20.315   8.692
 2296POPC   C2B31880   7.983  20.469   8.262
 2296POPC   C3B31881   8.219  20.335   7.897
 2296POPC   C4B31882   8.524  20.141   7.607
 2297POPC   NC331883   8.535  17.075   9.485
 2297POPC   PO431884   9.205  16.914   9.468
 2297POPC   GL131885   8.931  16.856   9.162
 2297POPC   GL231886   8.801  16.531   9.137
 2297POPC   C1A31887   9.106  16.689   8.755
 2297POPC   D2A31888   9.251  16.804   8.336
 2297POPC   C3A31889   9.059  16.693   7.955
 2297POPC   C4A31890   9.046  16.978   7.612
 2297POPC   C1B31891   8.588  16.742   8.813
 2297POPC   C2B31892   8.729  16.832   8.428
 2297POPC   C3B31893   8.649  16.979   8.063
 2297POPC   C4B31894   8.550  16.810   7.705
 2298POPC   NC331895  36.748  42.575   9.488
 2298POPC   PO431896  36.950  41.927   9.628
 2298POPC   GL131897  37.139  42.091   9.216
 2298POPC   GL231898  36.830  42.261   9.072
 2298POPC   C1A31899  37.219  42.160   8.765
 2298POPC   D2A31900  36.859  42.205   8.483
 2298POPC   C3A31901  37.008  42.335   8.101
 2298POPC   C4A31902  37.301  42.156   7.787
 2298POPC   C1B31903  36.540  42.469   8.778
 2298POPC   C2B31904  36.572  42.705   8.382
 2298POPC   C3B31905  36.735  42.761   7.947
 2298POPC   C4B31906  36.986  42.539   7.634
 2299POPC   NC331907   0.320  27.169   9.440
 2299POPC   PO431908   0.666  27.838   9.408
 2299POPC   GL131909   0.612  27.466   9.150
 2299POPC   GL231910   0.272  27.474   9.042
 2299POPC   C1A31911   0.660  27.199   8.774
 2299POPC   D2A31912   0.858  27.300   8.358
 2299POPC   C3A31913   0.539  27.444   8.051
 2299POPC   C4A31914   0.454  27.331   7.622
 2299POPC   C1B31915   0.458  27.746   8.738
 2299POPC   C2B31916   0.347  27.924   8.354
 2299POPC   C3B31917   0.531  27.958   7.973
 2299POPC   C4B31918   0.356  27.830   7.590
 2300POPC   NC331919  31.785  44.756   9.438
 2300POPC   PO431920  31.241   0.151   9.704
 2300POPC   GL131921  31.292   0.030   9.240
 2300POPC   GL231922  31.445  44.750   9.072
 2300POPC   C1A31923  31.075   0.010   8.843
 2300POPC   D2A31924  31.200  44.791   8.477
 2300POPC   C3A31925  31.473  44.956   8.163
 2300POPC   C4A31926  31.408  44.982   7.710
 2300POPC   C1B31927  31.617  44.545   8.713
 2300POPC   C2B31928  31.474  44.401   8.321
 2300POPC   C3B31929  31.485  44.493   7.899
 2300POPC   C4B31930  31.623  44.401   7.460
 2301POPC   NC331931  41.188  43.675   9.544
 2301POPC   PO431932  41.841  44.015   9.562
 2301POPC   GL131933  41.771  43.877   9.188
 2301POPC   GL231934  41.433  43.781   9.125
 2301POPC   C1A31935  41.673  44.126   8.848
 2301POPC   D2A31936  41.424  44.055   8.527
 2301POPC   C3A31937  41.557  44.085   8.152
 2301POPC   C4A31938  41.482  44.094   7.779
 2301POPC   C1B31939  41.481  43.602   8.746
 2301POPC   C2B31940  41.434  43.501   8.341
 2301POPC   C3B31941  41.530  43.621   7.938
 2301POPC   C4B31942  41.918  43.827   7.820
 2302POPC   NC331943  24.797  40.124   9.743
 2302POPC   PO431944  24.192  40.137   9.439
 2302POPC   GL131945  24.452  40.091   9.104
 2302POPC   GL231946  24.796  40.098   9.218
 2302POPC   C1A31947  24.347  39.909   8.712
 2302POPC   D2A31948  24.537  39.781   8.337
 2302POPC   C3A31949  24.332  39.720   7.966
 2302POPC   C4A31950  24.408  39.854   7.550
 2302POPC   C1B31951  24.848  40.000   8.782
 2302POPC   C2B31952  24.861  40.152   8.359
 2302POPC   C3B31953  24.685  40.103   7.929
 2302POPC   C4B31954  24.730  40.301   7.511
 2303POPC   NC331955  14.055  36.404   9.572
 2303POPC   PO431956  14.623  36.053   9.708
 2303POPC   GL131957  14.428  36.130   9.305
 2303POPC   GL231958  14.780  36.180   9.218
 2303POPC   C1A31959  14.170  36.063   8.914
 2303POPC   D2A31960  14.112  36.309   8.513
 2303POPC   C3A31961  14.219  36.069   8.138
 2303POPC   C4A31962  14.338  36.208   7.697
 2303POPC   C1B31963  14.610  36.311   8.835
 2303POPC   C2B31964  14.632  36.170   8.436
 2303POPC   C3B31965  14.609  36.419   8.058
 2303POPC   C4B31966  14.796  36.447   7.627
 2304POPC   NC331967   1.521   6.689   9.435
 2304POPC   PO431968   2.107   6.491   9.812
 2304POPC   GL131969   2.026   6.513   9.328
 2304POPC   GL231970   1.926   6.836   9.163
 2304POPC   C1A31971   2.114   6.456   8.868
 2304POPC   D2A31972   1.965   6.352   8.422
 2304POPC   C3A31973   2.002   6.623   8.064
 2304POPC   C4A31974   2.316   6.632   7.739
 2304POPC   C1B31975   1.793   6.902   8.732
 2304POPC   C2B31976   1.903   7.066   8.333
 2304POPC   C3B31977   1.770   7.096   7.917
 2304POPC   C4B31978   1.756   6.754   7.623
 2305POPC   NC331979  10.705  19.168   9.600
 2305POPC   PO431980  10.790  18.724   9.132
 2305POPC   GL131981  10.433  18.969   9.120
 2305POPC   GL231982  10.533  19.315   9.022
 2305POPC   C1A31983  10.270  18.997   8.696
 2305POPC   D2A31984  10.554  19.032   8.345
 2305POPC   C3A31985  10.506  18.745   8.010
 2305POPC   C4A31986  10.474  18.880   7.577
 2305POPC   C1B31987  10.672  19.473   8.588
 2305POPC   C2B31988  10.604  19.512   8.122
 2305POPC   C3B31989  10.592  19.357   7.700
 2305POPC   C4B31990  10.828  19.201   7.331
 2306POPC   NC331991   1.932  19.759   9.394
 2306POPC   PO431992   2.287  20.415   9.404
 2306POPC   GL131993   2.136  20.079   9.056
 2306POPC   GL231994   1.882  19.758   8.900
 2306POPC   C1A31995   2.256  19.918   8.636
 2306POPC   D2A31996   2.178  19.603   8.394
 2306POPC   C3A31997   2.203  19.856   8.073
 2306POPC   C4A31998   2.274  19.769   7.667
 2306POPC   C1B31999   1.802  19.373   8.665
 2306POPC   C2B32000   1.610  19.284   8.291
 2306POPC   C3B32001   1.852  19.463   7.955
 2306POPC   C4B32002   1.792  19.883   7.789
 2307POPC   NC332003  40.335  42.093   9.438
 2307POPC   PO432004  39.712  42.361   9.468
 2307POPC   GL132005  39.927  42.303   9.133
 2307POPC   GL232006  39.926  41.976   9.143
 2307POPC   C1A32007  40.023  42.441   8.747
 2307POPC   D2A32008  40.207  42.408   8.357
 2307POPC   C3A32009  40.068  42.650   8.036
 2307POPC   C4A32010  40.075  42.499   7.625
 2307POPC   C1B32011  40.105  41.930   8.756
 2307POPC   C2B32012  39.915  41.973   8.355
 2307POPC   C3B32013  39.905  42.154   7.972
 2307POPC   C4B32014  39.541  42.165   7.725
 2308POPC   NC332015  43.311  42.066   9.449
 2308POPC   PO432016  42.700  42.371   9.633
 2308POPC   GL132017  42.902  42.319   9.204
 2308POPC   GL232018  43.273  42.384   9.064
 2308POPC   C1A32019  42.874  42.438   8.775
 2308POPC   D2A32020  43.172  42.413   8.480
 2308POPC   C3A32021  42.998  42.417   8.100
 2308POPC   C4A32022  43.079  42.594   7.734
 2308POPC   C1B32023  43.251  41.997   8.781
 2308POPC   C2B32024  43.416  41.982   8.352
 2308POPC   C3B32025  43.258  42.006   7.927
 2308POPC   C4B32026  43.489  42.157   7.564
 2309POPC   NC332027  25.438  33.151   9.502
 2309POPC   PO432028  25.688  32.591   9.410
 2309POPC   GL132029  25.472  32.867   9.072
 2309POPC   GL232030  25.104  32.945   9.160
 2309POPC   C1A32031  25.492  33.184   8.727
 2309POPC   D2A32032  25.636  33.191   8.260
 2309POPC   C3A32033  25.542  32.814   7.996
 2309POPC   C4A32034  25.167  32.624   7.829
 2309POPC   C1B32035  24.966  33.135   8.780
 2309POPC   C2B32036  25.125  33.270   8.375
 2309POPC   C3B32037  25.166  33.189   7.948
 2309POPC   C4B32038  25.019  33.419   7.610
 2310POPC   NC332039  20.722  22.596   9.560
 2310POPC   PO432040  20.379  21.987   9.510
 2310POPC   GL132041  20.525  21.895   9.117
 2310POPC   GL232042  20.781  22.156   9.095
 2310POPC   C1A32043  20.461  22.000   8.699
 2310POPC   D2A32044  20.597  22.327   8.442
 2310POPC   C3A32045  20.370  22.349   8.062
 2310POPC   C4A32046  20.440  22.076   7.740
 2310POPC   C1B32047  21.033  22.290   8.747
 2310POPC   C2B32048  21.077  22.462   8.333
 2310POPC   C3B32049  20.900  22.270   7.987
 2310POPC   C4B32050  20.716  22.502   7.684
 2311POPC   NC332051  39.574   8.250   9.659
 2311POPC   PO432052  38.922   8.147   9.487
 2311POPC   GL132053  39.198   8.363   9.142
 2311POPC   GL232054  39.494   8.169   9.040
 2311POPC   C1A32055  39.180   8.278   8.648
 2311POPC   D2A32056  39.127   7.974   8.296
 2311POPC   C3A32057  38.962   8.130   7.890
 2311POPC   C4A32058  38.945   8.108   7.439
 2311POPC   C1B32059  39.641   8.480   8.702
 2311POPC   C2B32060  39.598   8.342   8.296
 2311POPC   C3B32061  39.479   8.122   7.941
 2311POPC   C4B32062  39.352   8.351   7.585
 2312POPC   NC332063  44.816  43.457   9.369
 2312POPC   PO432064  44.706  42.826   9.563
 2312POPC   GL132065  44.790  42.986   9.123
 2312POPC   GL232066   0.131  43.122   9.151
 2312POPC   C1A32067  44.696  43.195   8.667
 2312POPC   D2A32068  44.606  43.353   8.197
 2312POPC   C3A32069  44.344  43.146   7.826
 2312POPC   C4A32070  44.512  42.936   7.438
 2312POPC   C1B32071   0.125  42.911   8.744
 2312POPC   C2B32072   0.162  42.803   8.299
 2312POPC   C3B32073  44.846  42.912   7.998
 2312POPC   C4B32074  44.813  43.254   7.708
 2313POPC   NC332075   0.166  40.573   9.517
 2313POPC   PO432076   0.515  41.198   9.527
 2313POPC   GL132077   0.549  40.954   9.162
 2313POPC   GL232078   0.713  40.613   9.215
 2313POPC   C1A32079   0.355  41.057   8.743
 2313POPC   D2A32080   0.189  40.962   8.343
 2313POPC   C3A32081   0.371  41.105   7.991
 2313POPC   C4A32082   0.442  40.960   7.617
 2313POPC   C1B32083   0.430  40.565   8.851
 2313POPC   C2B32084   0.457  40.534   8.394
 2313POPC   C3B32085   0.485  40.565   7.931
 2313POPC   C4B32086   0.121  40.550   7.629
 2314POPC   NC332087  11.350  43.740   9.523
 2314POPC   PO432088  11.062  44.302   9.635
 2314POPC   GL132089  11.125  44.165   9.202
 2314POPC   GL232090  11.470  44.018   9.102
 2314POPC   C1A32091  11.115  44.009   8.770
 2314POPC   D2A32092  11.518  43.962   8.566
 2314POPC   C3A32093  11.397  44.034   8.171
 2314POPC   C4A32094  11.343  44.027   7.749
 2314POPC   C1B32095  11.360  43.595   8.894
 2314POPC   C2B32096  11.295  43.522   8.448
 2314POPC   C3B32097  11.298  43.549   7.996
 2314POPC   C4B32098  11.561  43.569   7.617
 2315POPC   NC332099   2.309  36.216   9.552
 2315POPC   PO432100   2.418  35.638   9.412
 2315POPC   GL132101   2.203  35.907   9.119
 2315POPC   GL232102   1.896  36.107   9.182
 2315POPC   C1A32103   2.154  36.089   8.711
 2315POPC   D2A32104   1.984  35.937   8.321
 2315POPC   C3A32105   2.266  36.095   8.069
 2315POPC   C4A32106   2.211  36.274   7.697
 2315POPC   C1B32107   1.763  36.376   8.819
 2315POPC   C2B32108   1.940  36.439   8.375
 2315POPC   C3B32109   1.790  36.280   7.975
 2315POPC   C4B32110   1.710  36.433   7.558
 2316POPC   NC332111  30.853  23.987   9.551
 2316POPC   PO432112  30.284  23.513   9.512
 2316POPC   GL132113  30.573  23.562   9.156
 2316POPC   GL232114  30.909  23.705   9.101
 2316POPC   C1A32115  30.572  23.728   8.721
 2316POPC   D2A32116  30.711  23.480   8.357
 2316POPC   C3A32117  30.701  23.560   7.899
 2316POPC   C4A32118  30.581  23.392   7.452
 2316POPC   C1B32119  31.071  23.735   8.645
 2316POPC   C2B32120  30.988  23.877   8.236
 2316POPC   C3B32121  31.067  23.928   7.807
 2316POPC   C4B32122  30.747  23.882   7.523
 2317POPC   NC332123  24.009  43.881   9.886
 2317POPC   PO432124  23.440  44.040   9.721
 2317POPC   GL132125  23.407  43.989   9.252
 2317POPC   GL232126  23.217  44.252   9.112
 2317POPC   C1A32127  23.370  43.794   8.791
 2317POPC   D2A32128  23.606  43.801   8.363
 2317POPC   C3A32129  23.429  43.818   7.925
 2317POPC   C4A32130  23.333  43.643   7.509
 2317POPC   C1B32131  23.305  44.281   8.657
 2317POPC   C2B32132  23.404  44.308   8.199
 2317POPC   C3B32133  23.496  44.421   7.759
 2317POPC   C4B32134  23.766  44.439   7.359
 2318POPC   NC332135   8.712  14.459   9.486
 2318POPC   PO432136   9.313  14.460   9.624
 2318POPC   GL132137   9.104  14.301   9.133
 2318POPC   GL232138   8.746  14.294   9.018
 2318POPC   C1A32139   9.351  14.378   8.676
 2318POPC   D2A32140   9.278  14.289   8.246
 2318POPC   C3A32141   9.228  14.553   7.890
 2318POPC   C4A32142   9.006  14.591   7.485
 2318POPC   C1B32143   8.887  14.581   8.677
 2318POPC   C2B32144   8.827  14.594   8.209
 2318POPC   C3B32145   8.743  14.335   7.817
 2318POPC   C4B32146   8.642  14.262   7.359
 2319POPC   NC332147   1.454  23.472   9.465
 2319POPC   PO432148   1.182  24.058   9.725
 2319POPC   GL132149   1.295  23.922   9.289
 2319POPC   GL232150   1.120  23.611   9.124
 2319POPC   C1A32151   1.446  23.908   8.861
 2319POPC   D2A32152   1.264  23.801   8.460
 2319POPC   C3A32153   1.487  23.646   8.112
 2319POPC   C4A32154   1.417  23.752   7.670
 2319POPC   C1B32155   0.877  23.556   8.735
 2319POPC   C2B32156   0.762  23.637   8.327
 2319POPC   C3B32157   0.994  23.767   7.987
 2319POPC   C4B32158   0.922  23.828   7.579
 2320POPC   NC332159   3.283   4.732   9.394
 2320POPC   PO432160   3.804   4.560   9.413
 2320POPC   GL132161   3.523   4.436   9.038
 2320POPC   GL232162   3.224   4.251   9.145
 2320POPC   C1A32163   3.482   4.447   8.567
 2320POPC   D2A32164   3.547   4.183   8.201
 2320POPC   C3A32165   3.565   4.391   7.806
 2320POPC   C4A32166   3.555   4.699   7.466
 2320POPC   C1B32167   3.212   4.047   8.723
 2320POPC   C2B32168   3.065   4.011   8.299
 2320POPC   C3B32169   3.179   4.012   7.851
 2320POPC   C4B32170   3.410   4.084   7.448
 2321POPC   NC332171  38.861  11.596   9.468
 2321POPC   PO432172  39.456  11.190   9.419
 2321POPC   GL132173  39.345  11.430   9.082
 2321POPC   GL232174  39.036  11.311   9.097
 2321POPC   C1A32175  39.225  11.498   8.651
 2321POPC   D2A32176  39.450  11.292   8.303
 2321POPC   C3A32177  39.318  11.386   7.967
 2321POPC   C4A32178  39.351  11.681   7.739
 2321POPC   C1B32179  38.894  11.036   8.811
 2321POPC   C2B32180  39.005  11.056   8.413
 2321POPC   C3B32181  38.842  11.210   8.042
 2321POPC   C4B32182  38.973  11.213   7.648
 2322POPC   NC332183  31.078  44.709   9.573
 2322POPC   PO432184  30.603   0.134   9.322
 2322POPC   GL132185  30.698  44.744   9.112
 2322POPC   GL232186  30.977  44.563   9.114
 2322POPC   C1A32187  30.736  44.677   8.662
 2322POPC   D2A32188  30.766   0.054   8.385
 2322POPC   C3A32189  30.597  44.976   7.965
 2322POPC   C4A32190  30.666  44.680   7.644
 2322POPC   C1B32191  31.137  44.367   8.788
 2322POPC   C2B32192  30.999  44.220   8.393
 2322POPC   C3B32193  30.967  44.393   7.966
 2322POPC   C4B32194  31.129  44.496   7.542
 2323POPC   NC332195  21.255  24.154   9.801
 2323POPC   PO432196  21.013  24.634   9.411
 2323POPC   GL132197  20.705  24.471   9.125
 2323POPC   GL232198  20.400  24.295   9.179
 2323POPC   C1A32199  20.760  24.344   8.727
 2323POPC   D2A32200  20.609  24.561   8.389
 2323POPC   C3A32201  20.874  24.665   8.066
 2323POPC   C4A32202  20.726  24.522   7.693
 2323POPC   C1B32203  20.248  24.449   8.750
 2323POPC   C2B32204  20.219  24.223   8.314
 2323POPC   C3B32205  20.252  24.345   7.868
 2323POPC   C4B32206  20.269  24.661   7.505
 2324POPC   NC332207  23.055  43.786   9.601
 2324POPC   PO432208  22.819  44.445   9.495
 2324POPC   GL132209  22.743  44.077   9.165
 2324POPC   GL232210  22.969  43.781   9.110
 2324POPC   C1A32211  22.860  43.980   8.689
 2324POPC   D2A32212  23.109  43.895   8.333
 2324POPC   C3A32213  23.013  44.103   7.938
 2324POPC   C4A32214  22.913  43.963   7.523
 2324POPC   C1B32215  22.951  43.478   8.772
 2324POPC   C2B32216  22.774  43.499   8.370
 2324POPC   C3B32217  22.823  43.617   7.946
 2324POPC   C4B32218  22.860  43.474   7.538
 2325POPC   NC332219  38.990  34.906   9.672
 2325POPC   PO432220  39.349  35.454   9.520
 2325POPC   GL132221  39.244  35.076   9.269
 2325POPC   GL232222  39.003  35.245   9.134
 2325POPC   C1A32223  39.207  34.906   8.836
 2325POPC   D2A32224  38.997  35.029   8.418
 2325POPC   C3A32225  39.183  34.972   8.002
 2325POPC   C4A32226  39.325  35.228   7.615
 2325POPC   C1B32227  38.993  35.533   8.819
 2325POPC   C2B32228  38.891  35.520   8.411
 2325POPC   C3B32229  39.099  35.480   8.053
 2325POPC   C4B32230  39.088  35.724   7.712
 2326POPC   NC332231  22.625  36.307   9.478
 2326POPC   PO432232  21.951  36.083   9.413
 2326POPC   GL132233  22.165  35.969   9.041
 2326POPC   GL232234  22.474  36.167   9.018
 2326POPC   C1A32235  22.181  36.085   8.603
 2326POPC   D2A32236  22.215  36.350   8.273
 2326POPC   C3A32237  22.062  36.131   7.939
 2326POPC   C4A32238  21.713  36.294   7.687
 2326POPC   C1B32239  22.699  36.362   8.687
 2326POPC   C2B32240  22.716  36.425   8.241
 2326POPC   C3B32241  22.594  36.241   7.845
 2326POPC   C4B32242  22.394  35.966   7.554
 2327POPC   NC332243  10.708   0.082   9.464
 2327POPC   PO432244  10.501   0.804   9.428
 2327POPC   GL132245  10.401   0.415   9.236
 2327POPC   GL232246  10.730   0.428   9.099
 2327POPC   C1A32247  10.298   0.240   8.827
 2327POPC   D2A32248  10.285   0.409   8.391
 2327POPC   C3A32249  10.374   0.222   7.974
 2327POPC   C4A32250  10.343   0.547   7.662
 2327POPC   C1B32251  10.917   0.249   8.741
 2327POPC   C2B32252  10.771   0.203   8.309
 2327POPC   C3B32253  10.848   0.008   7.898
 2327POPC   C4B32254  10.641   0.135   7.521
 2328POPC   NC332255  33.532  37.432   9.479
 2328POPC   PO432256  34.185  37.343   9.315
 2328POPC   GL132257  34.044  37.730   9.112
 2328POPC   GL232258  33.716  37.864   9.210
 2328POPC   C1A32259  33.952  37.894   8.736
 2328POPC   D2A32260  33.772  37.832   8.377
 2328POPC   C3A32261  33.978  37.999   8.048
 2328POPC   C4A32262  33.904  37.826   7.696
 2328POPC   C1B32263  33.534  37.614   8.849
 2328POPC   C2B32264  33.445  37.436   8.444
 2328POPC   C3B32265  33.484  37.520   7.988
 2328POPC   C4B32266  33.392  37.872   7.706
 2329POPC   NC332267  41.087  42.230   9.250
 2329POPC   PO432268  40.466  42.551   9.412
 2329POPC   GL132269  40.607  42.353   9.077
 2329POPC   GL232270  40.823  42.634   9.007
 2329POPC   C1A32271  40.572  42.192   8.678
 2329POPC   D2A32272  40.427  41.955   8.342
 2329POPC   C3A32273  40.555  42.166   7.955
 2329POPC   C4A32274  41.024  42.114   7.813
 2329POPC   C1B32275  40.479  42.702   8.692
 2329POPC   C2B32276  40.501  42.829   8.240
 2329POPC   C3B32277  40.563  42.687   7.801
 2329POPC   C4B32278  40.934  42.545   7.558
 2330POPC   NC332279  30.927   1.953   9.508
 2330POPC   PO432280  30.429   2.389   9.595
 2330POPC   GL132281  30.610   2.220   9.202
 2330POPC   GL232282  30.974   2.302   9.140
 2330POPC   C1A32283  30.761   1.962   8.831
 2330POPC   D2A32284  30.581   1.938   8.432
 2330POPC   C3A32285  30.669   2.061   8.023
 2330POPC   C4A32286  30.843   1.816   7.660
 2330POPC   C1B32287  31.132   2.324   8.749
 2330POPC   C2B32288  30.974   2.366   8.342
 2330POPC   C3B32289  31.132   2.203   7.946
 2330POPC   C4B32290  31.015   2.292   7.528
 2331POPC   NC332291  11.601  19.607   9.541
 2331POPC   PO432292  11.185  19.998   9.260
 2331POPC   GL132293  11.289  19.909   8.943
 2331POPC   GL232294  11.437  19.574   9.035
 2331POPC   C1A32295  11.332  20.120   8.559
 2331POPC   D2A32296  11.496  19.923   8.238
 2331POPC   C3A32297  11.287  20.040   7.883
 2331POPC   C4A32298  11.426  20.065   7.470
 2331POPC   C1B32299  11.295  19.541   8.619
 2331POPC   C2B32300  11.518  19.421   8.314
 2331POPC   C3B32301  11.468  19.531   7.924
 2331POPC   C4B32302  11.049  19.557   7.855
 2332POPC   NC332303  32.784  44.798   9.452
 2332POPC   PO432304  32.159  44.482   9.392
 2332POPC   GL132305  32.275  44.771   9.087
 2332POPC   GL232306  31.944  44.848   8.974
 2332POPC   C1A32307  32.581  44.902   8.754
 2332POPC   D2A32308  32.789  44.824   8.345
 2332POPC   C3A32309  32.455  44.752   8.064
 2332POPC   C4A32310  32.308  44.470   7.779
 2332POPC   C1B32311  32.112  44.728   8.575
 2332POPC   C2B32312  31.981  44.879   8.173
 2332POPC   C3B32313  31.883  44.752   7.749
 2332POPC   C4B32314  31.960  44.738   7.296
 2333POPC   NC332315   3.410  27.635   9.466
 2333POPC   PO432316   3.759  27.171   9.798
 2333POPC   GL132317   3.812  27.351   9.300
 2333POPC   GL232318   3.505  27.413   9.039
 2333POPC   C1A32319   3.949  27.500   8.832
 2333POPC   D2A32320   3.700  27.524   8.436
 2333POPC   C3A32321   3.657  27.710   8.006
 2333POPC   C4A32322   3.251  27.709   7.751
 2333POPC   C1B32323   3.250  27.538   8.696
 2333POPC   C2B32324   3.218  27.486   8.234
 2333POPC   C3B32325   3.399  27.265   7.873
 2333POPC   C4B32326   3.236  27.282   7.422
 2334POPC   NC332327  38.484   8.482   9.374
 2334POPC   PO432328  38.985   8.904   9.598
 2334POPC   GL132329  38.771   8.892   9.204
 2334POPC   GL232330  38.399   8.935   9.167
 2334POPC   C1A32331  38.711   9.068   8.793
 2334POPC   D2A32332  38.519   9.197   8.412
 2334POPC   C3A32333  38.610   9.029   8.034
 2334POPC   C4A32334  38.387   9.069   7.648
 2334POPC   C1B32335  38.274   8.659   8.795
 2334POPC   C2B32336  38.318   8.722   8.390
 2334POPC   C3B32337  38.202   8.726   7.985
 2334POPC   C4B32338  38.199   8.557   7.559
 2335POPC   NC332339  34.966  33.267   9.605
 2335POPC   PO432340  35.105  32.648   9.358
 2335POPC   GL132341  35.308  32.848   9.036
 2335POPC   GL232342  35.183  33.198   9.073
 2335POPC   C1A32343  35.298  32.872   8.612
 2335POPC   D2A32344  35.046  33.066   8.292
 2335POPC   C3A32345  35.261  32.920   7.927
 2335POPC   C4A32346  35.592  32.587   7.890
 2335POPC   C1B32347  35.401  33.352   8.676
 2335POPC   C2B32348  35.525  33.269   8.237
 2335POPC   C3B32349  35.450  33.440   7.802
 2335POPC   C4B32350  35.504  33.519   7.327
 2336POPC   NC332351  23.334  33.166   9.616
 2336POPC   PO432352  23.969  33.224   9.554
 2336POPC   GL132353  23.682  33.015   9.260
 2336POPC   GL232354  23.578  33.353   9.197
 2336POPC   C1A32355  23.497  32.835   8.868
 2336POPC   D2A32356  23.598  32.979   8.458
 2336POPC   C3A32357  23.588  32.772   8.048
 2336POPC   C4A32358  23.880  32.889   7.737
 2336POPC   C1B32359  23.827  33.293   8.837
 2336POPC   C2B32360  23.814  33.525   8.462
 2336POPC   C3B32361  23.751  33.301   8.096
 2336POPC   C4B32362  23.819  33.413   7.724
 2337POPC   NC332363   0.990  18.165   9.704
 2337POPC   PO432364   1.428  18.591   9.470
 2337POPC   GL132365   1.338  18.338   9.109
 2337POPC   GL232366   1.032  18.246   9.190
 2337POPC   C1A32367   1.281  18.407   8.663
 2337POPC   D2A32368   1.368  18.497   8.238
 2337POPC   C3A32369   1.266  18.286   7.915
 2337POPC   C4A32370   1.486  18.135   7.567
 2337POPC   C1B32371   0.822  18.497   8.853
 2337POPC   C2B32372   0.874  18.634   8.388
 2337POPC   C3B32373   0.871  18.619   7.907
 2337POPC   C4B32374   1.059  18.477   7.504
 2338POPC   NC332375  27.693  37.921   9.655
 2338POPC   PO432376  27.313  37.334   9.660
 2338POPC   GL132377  27.327  37.609   9.286
 2338POPC   GL232378  27.611  37.509   9.089
 2338POPC   C1A32379  27.202  37.639   8.815
 2338POPC   D2A32380  27.126  37.613   8.362
 2338POPC   C3A32381  27.462  37.740   8.092
 2338POPC   C4A32382  27.472  37.383   7.824
 2338POPC   C1B32383  27.711  37.572   8.633
 2338POPC   C2B32384  27.967  37.545   8.235
 2338POPC   C3B32385  27.903  37.668   7.786
 2338POPC   C4B32386  27.930  37.978   7.427
 2339POPC   NC332387  11.548   5.403   9.488
 2339POPC   PO432388  11.287   6.131   9.432
 2339POPC   GL132389  11.233   5.757   9.162
 2339POPC   GL232390  10.872   5.566   9.167
 2339POPC   C1A32391  11.433   5.891   8.751
 2339POPC   D2A32392  11.384   6.152   8.356
 2339POPC   C3A32393  11.460   5.943   7.939
 2339POPC   C4A32394  11.218   5.887   7.553
 2339POPC   C1B32395  10.963   5.716   8.737
 2339POPC   C2B32396  11.196   5.676   8.342
 2339POPC   C3B32397  11.017   5.664   7.955
 2339POPC   C4B32398  10.938   5.449   7.566
 2340POPC   NC332399  24.092  30.856   9.435
 2340POPC   PO432400  23.411  30.757   9.543
 2340POPC   GL132401  23.626  30.570   9.235
 2340POPC   GL232402  23.671  30.895   9.101
 2340POPC   C1A32403  23.633  30.367   8.827
 2340POPC   D2A32404  23.538  30.611   8.477
 2340POPC   C3A32405  23.648  30.474   8.092
 2340POPC   C4A32406  23.858  30.496   7.746
 2340POPC   C1B32407  23.981  30.741   8.803
 2340POPC   C2B32408  24.015  30.818   8.388
 2340POPC   C3B32409  23.682  30.996   8.145
 2340POPC   C4B32410  23.618  30.970   7.731
 2341POPC   NC332411   2.422   4.548   9.371
 2341POPC   PO432412   2.286   3.942   9.380
 2341POPC   GL132413   2.719   4.120   9.220
 2341POPC   GL232414   2.763   3.955   8.907
 2341POPC   C1A32415   2.865   4.440   8.844
 2341POPC   D2A32416   3.045   4.704   8.495
 2341POPC   C3A32417   3.121   4.474   8.124
 2341POPC   C4A32418   2.744   4.294   7.932
 2341POPC   C1B32419   2.613   4.138   8.490
 2341POPC   C2B32420   2.513   3.865   8.135
 2341POPC   C3B32421   2.691   3.826   7.732
 2341POPC   C4B32422   2.902   4.072   7.412
 2342POPC   NC332423  28.775  18.668   9.380
 2342POPC   PO432424  29.181  19.220   9.490
 2342POPC   GL132425  28.919  19.118   9.127
 2342POPC   GL232426  29.223  18.990   9.028
 2342POPC   C1A32427  28.971  19.306   8.699
 2342POPC   D2A32428  29.257  19.246   8.336
 2342POPC   C3A32429  29.066  19.341   7.924
 2342POPC   C4A32430  28.870  19.366   7.476
 2342POPC   C1B32431  29.468  18.903   8.703
 2342POPC   C2B32432  29.429  18.761   8.297
 2342POPC   C3B32433  29.466  18.983   7.917
 2342POPC   C4B32434  29.206  18.966   7.550
 2343POPC   NC332435  14.147  41.031   9.730
 2343POPC   PO432436  14.205  40.498   9.319
 2343POPC   GL132437  14.275  40.787   9.044
 2343POPC   GL232438  14.432  41.067   9.217
 2343POPC   C1A32439  14.333  40.811   8.619
 2343POPC   D2A32440  14.408  40.549   8.267
 2343POPC   C3A32441  14.511  40.672   7.880
 2343POPC   C4A32442  14.099  40.744   7.780
 2343POPC   C1B32443  14.719  41.082   8.841
 2343POPC   C2B32444  14.664  41.134   8.397
 2343POPC   C3B32445  14.316  41.073   8.154
 2343POPC   C4B32446  14.414  41.150   7.742
 2344POPC   NC332447  41.115  10.629   9.543
 2344POPC   PO432448  41.733  10.358   9.601
 2344POPC   GL132449  41.522  10.555   9.238
 2344POPC   GL232450  41.230  10.315   9.180
 2344POPC   C1A32451  41.515  10.692   8.804
 2344POPC   D2A32452  41.613  10.479   8.411
 2344POPC   C3A32453  41.595  10.754   8.036
 2344POPC   C4A32454  41.856  10.716   7.699
 2344POPC   C1B32455  41.112  10.403   8.785
 2344POPC   C2B32456  41.135  10.683   8.430
 2344POPC   C3B32457  41.202  10.455   8.029
 2344POPC   C4B32458  41.333  10.579   7.583
 2345POPC   NC332459  10.129  34.564   9.499
 2345POPC   PO432460   9.634  34.901   9.687
 2345POPC   GL132461   9.723  34.771   9.228
 2345POPC   GL232462   9.540  34.437   9.173
 2345POPC   C1A32463  10.035  34.855   8.869
 2345POPC   D2A32464  10.213  34.892   8.438
 2345POPC   C3A32465   9.948  34.741   8.138
 2345POPC   C4A32466   9.927  34.685   7.708
 2345POPC   C1B32467   9.799  34.386   8.798
 2345POPC   C2B32468   9.944  34.282   8.380
 2345POPC   C3B32469   9.782  34.234   8.006
 2345POPC   C4B32470   9.514  34.322   7.677
 2346POPC   NC332471  35.107  19.433   9.340
 2346POPC   PO432472  35.639  18.978   9.428
 2346POPC   GL132473  35.265  18.959   9.153
 2346POPC   GL232474  34.999  18.740   9.273
 2346POPC   C1A32475  35.182  19.138   8.734
 2346POPC   D2A32476  35.356  19.084   8.274
 2346POPC   C3A32477  35.260  19.342   7.892
 2346POPC   C4A32478  35.568  19.335   7.554
 2346POPC   C1B32479  35.008  18.603   8.830
 2346POPC   C2B32480  35.036  18.405   8.404
 2346POPC   C3B32481  35.123  18.626   7.975
 2346POPC   C4B32482  34.808  18.708   7.618
 2347POPC   NC332483  31.067   6.186   9.404
 2347POPC   PO432484  30.480   6.506   9.591
 2347POPC   GL132485  30.721   6.491   9.192
 2347POPC   GL232486  30.882   6.773   9.096
 2347POPC   C1A32487  30.817   6.443   8.720
 2347POPC   D2A32488  30.864   6.317   8.259
 2347POPC   C3A32489  30.596   6.575   7.953
 2347POPC   C4A32490  30.458   6.641   7.513
 2347POPC   C1B32491  31.150   6.827   8.800
 2347POPC   C2B32492  31.224   6.661   8.424
 2347POPC   C3B32493  31.278   6.822   8.037
 2347POPC   C4B32494  31.006   6.764   7.720
 2348POPC   NC332495   2.573  14.464   9.770
 2348POPC   PO432496   2.087  14.165   9.731
 2348POPC   GL132497   1.941  14.241   9.260
 2348POPC   GL232498   1.589  14.358   9.162
 2348POPC   C1A32499   1.946  14.237   8.778
 2348POPC   D2A32500   1.930  14.452   8.343
 2348POPC   C3A32501   1.938  14.212   7.952
 2348POPC   C4A32502   2.027  14.299   7.509
 2348POPC   C1B32503   1.569  14.582   8.727
 2348POPC   C2B32504   1.424  14.569   8.269
 2348POPC   C3B32505   1.477  14.423   7.835
 2348POPC   C4B32506   1.600  14.063   7.565
 2349POPC   NC332507  10.794   7.568   9.369
 2349POPC   PO432508  10.188   7.270   9.506
 2349POPC   GL132509  10.444   7.159   9.122
 2349POPC   GL232510  10.819   7.165   9.053
 2349POPC   C1A32511  10.524   7.180   8.667
 2349POPC   D2A32512  10.531   7.492   8.369
 2349POPC   C3A32513  10.516   7.326   7.978
 2349POPC   C4A32514  10.379   7.220   7.576
 2349POPC   C1B32515  10.929   7.486   8.723
 2349POPC   C2B32516  11.000   7.652   8.295
 2349POPC   C3B32517  10.924   7.631   7.879
 2349POPC   C4B32518  10.623   7.690   7.605
 2350POPC   NC332519  33.442  23.955   9.407
 2350POPC   PO432520  32.987  23.416   9.510
 2350POPC   GL132521  33.190  23.599   9.151
 2350POPC   GL232522  32.883  23.692   8.991
 2350POPC   C1A32523  33.400  23.755   8.743
 2350POPC   D2A32524  33.230  23.862   8.308
 2350POPC   C3A32525  33.256  23.567   7.969
 2350POPC   C4A32526  33.129  23.528   7.546
 2350POPC   C1B32527  32.903  24.010   8.670
 2350POPC   C2B32528  32.720  23.989   8.246
 2350POPC   C3B32529  32.889  23.911   7.824
 2350POPC   C4B32530  32.892  23.930   7.339
 2351POPC   NC332531   3.750  25.939   9.521
 2351POPC   PO432532   3.305  26.392   9.663
 2351POPC   GL132533   3.369  26.160   9.264
 2351POPC   GL232534   3.292  25.801   9.223
 2351POPC   C1A32535   3.612  26.114   8.877
 2351POPC   D2A32536   3.659  25.974   8.449
 2351POPC   C3A32537   3.313  26.105   8.219
 2351POPC   C4A32538   3.275  26.168   7.779
 2351POPC   C1B32539   3.322  25.700   8.757
 2351POPC   C2B32540   3.366  25.577   8.289
 2351POPC   C3B32541   3.555  25.755   7.898
 2351POPC   C4B32542   3.978  25.686   7.703
 2352POPC   NC332543  37.575  37.872   9.659
 2352POPC   PO432544  37.876  37.500   9.214
 2352POPC   GL132545  37.486  37.633   9.051
 2352POPC   GL232546  37.346  37.986   9.155
 2352POPC   C1A32547  37.546  37.516   8.602
 2352POPC   D2A32548  37.922  37.610   8.340
 2352POPC   C3A32549  37.836  37.491   7.923
 2352POPC   C4A32550  37.444  37.347   7.782
 2352POPC   C1B32551  37.316  37.949   8.716
 2352POPC   C2B32552  37.344  37.888   8.295
 2352POPC   C3B32553  37.338  38.127   7.945
 2352POPC   C4B32554  37.568  37.884   7.698
 2353POPC   NC332555  40.064   6.248   9.461
 2353POPC   PO432556  40.226   6.933   9.471
 2353POPC   GL132557  39.909   6.790   9.133
 2353POPC   GL232558  39.998   6.466   9.026
 2353POPC   C1A32559  39.730   6.721   8.701
 2353POPC   D2A32560  40.087   6.583   8.434
 2353POPC   C3A32561  40.167   6.839   8.065
 2353POPC   C4A32562  39.860   6.823   7.743
 2353POPC   C1B32563  40.096   6.130   8.756
 2353POPC   C2B32564  39.914   6.092   8.366
 2353POPC   C3B32565  39.858   6.352   8.011
 2353POPC   C4B32566  40.015   6.058   7.723
 2354POPC   NC332567  30.146  13.100   9.642
 2354POPC   PO432568  29.720  12.602   9.453
 2354POPC   GL132569  29.997  12.865   9.212
 2354POPC   GL232570  30.096  13.235   9.158
 2354POPC   C1A32571  30.167  12.817   8.827
 2354POPC   D2A32572  30.028  12.557   8.501
 2354POPC   C3A32573  29.996  12.774   8.118
 2354POPC   C4A32574  29.926  12.659   7.708
 2354POPC   C1B32575  29.832  13.204   8.808
 2354POPC   C2B32576  29.861  13.192   8.390
 2354POPC   C3B32577  29.653  13.154   7.992
 2354POPC   C4B32578  29.872  13.222   7.595
 2355POPC   NC332579  15.078  35.971   9.674
 2355POPC   PO432580  15.516  36.491   9.605
 2355POPC   GL132581  15.301  36.174   9.257
 2355POPC   GL232582  15.186  35.794   9.204
 2355POPC   C1A32583  15.098  36.138   8.821
 2355POPC   D2A32584  15.091  36.405   8.463
 2355POPC   C3A32585  15.088  36.256   8.035
 2355POPC   C4A32586  15.367  36.244   7.690
 2355POPC   C1B32587  15.150  35.644   8.748
 2355POPC   C2B32588  15.116  35.857   8.342
 2355POPC   C3B32589  15.171  35.780   7.863
 2355POPC   C4B32590  15.128  35.655   7.413
 2356POPC   NC332591  30.878  16.900   9.566
 2356POPC   PO432592  30.409  16.423   9.281
 2356POPC   GL132593  30.567  16.721   8.993
 2356POPC   GL232594  30.446  17.044   9.041
 2356POPC   C1A32595  30.693  16.637   8.570
 2356POPC   D2A32596  30.917  16.370   8.271
 2356POPC   C3A32597  30.768  16.450   7.844
 2356POPC   C4A32598  30.715  16.600   7.415
 2356POPC   C1B32599  30.709  17.160   8.699
 2356POPC   C2B32600  30.835  17.106   8.264
 2356POPC   C3B32601  30.750  16.997   7.819
 2356POPC   C4B32602  30.705  17.108   7.375
 2357POPC   NC332603   7.767  12.717   9.530
 2357POPC   PO432604   7.157  12.586   9.549
 2357POPC   GL132605   7.367  12.783   9.187
 2357POPC   GL232606   7.613  13.053   9.184
 2357POPC   C1A32607   7.486  12.756   8.748
 2357POPC   D2A32608   7.474  12.599   8.321
 2357POPC   C3A32609   7.163  12.733   8.064
 2357POPC   C4A32610   7.219  13.044   7.725
 2357POPC   C1B32611   7.892  13.071   8.815
 2357POPC   C2B32612   7.887  13.180   8.366
 2357POPC   C3B32613   7.639  12.987   8.055
 2357POPC   C4B32614   7.572  12.667   7.777
 2358POPC   NC332615  12.268  39.371   9.514
 2358POPC   PO432616  11.603  39.651   9.428
 2358POPC   GL132617  11.848  39.286   9.241
 2358POPC   GL232618  12.167  39.273   9.035
 2358POPC   C1A32619  11.760  38.993   8.915
 2358POPC   D2A32620  11.692  39.124   8.485
 2358POPC   C3A32621  12.007  39.123   8.186
 2358POPC   C4A32622  11.951  39.211   7.752
 2358POPC   C1B32623  12.426  39.584   8.844
 2358POPC   C2B32624  12.425  39.451   8.442
 2358POPC   C3B32625  12.294  39.515   8.048
 2358POPC   C4B32626  12.319  39.611   7.630
 2359POPC   NC332627  38.582  39.015   9.364
 2359POPC   PO432628  38.183  38.528   9.692
 2359POPC   GL132629  38.168  38.499   9.236
 2359POPC   GL232630  38.490  38.553   9.084
 2359POPC   C1A32631  38.019  38.590   8.809
 2359POPC   D2A32632  38.095  38.434   8.408
 2359POPC   C3A32633  38.442  38.391   8.172
 2359POPC   C4A32634  38.434  38.319   7.749
 2359POPC   C1B32635  38.680  38.489   8.660
 2359POPC   C2B32636  38.804  38.730   8.292
 2359POPC   C3B32637  38.862  38.542   7.889
 2359POPC   C4B32638  38.889  38.177   7.584
 2360POPC   NC332639  25.917  24.256   9.539
 2360POPC   PO432640  26.557  24.441   9.417
 2360POPC   GL132641  26.208  24.379   9.143
 2360POPC   GL232642  26.173  24.702   9.061
 2360POPC   C1A32643  25.978  24.363   8.723
 2360POPC   D2A32644  26.189  24.380   8.321
 2360POPC   C3A32645  26.014  24.451   7.956
 2360POPC   C4A32646  25.940  24.559   7.515
 2360POPC   C1B32647  26.470  24.512   8.733
 2360POPC   C2B32648  26.636  24.628   8.355
 2360POPC   C3B32649  26.503  24.766   8.005
 2360POPC   C4B32650  26.172  24.932   7.805
 2361POPC   NC332651  38.000  44.619   9.492
 2361POPC   PO432652  37.381  44.392   9.398
 2361POPC   GL132653  37.452  44.592   9.017
 2361POPC   GL232654  37.722  44.795   9.118
 2361POPC   C1A32655  37.573  44.383   8.666
 2361POPC   D2A32656  37.853  44.368   8.347
 2361POPC   C3A32657  37.633  44.447   7.994
 2361POPC   C4A32658  37.849  44.326   7.645
 2361POPC   C1B32659  37.957  44.723   8.760
 2361POPC   C2B32660  38.010  44.876   8.365
 2361POPC   C3B32661  38.073  44.699   7.985
 2361POPC   C4B32662  37.780  44.834   7.678
 2362POPC   NC332663  25.014  32.075   9.449
 2362POPC   PO432664  25.577  31.848   9.720
 2362POPC   GL132665  25.507  32.139   9.279
 2362POPC   GL232666  25.245  32.427   9.183
 2362POPC   C1A32667  25.513  32.235   8.812
 2362POPC   D2A32668  25.385  32.478   8.436
 2362POPC   C3A32669  25.346  32.205   8.076
 2362POPC   C4A32670  25.470  32.256   7.652
 2362POPC   C1B32671  24.969  32.435   8.784
 2362POPC   C2B32672  24.869  32.286   8.329
 2362POPC   C3B32673  24.771  32.301   7.856
 2362POPC   C4B32674  24.927  32.117   7.479
 2363POPC   NC332675   2.402   0.961   9.329
 2363POPC   PO432676   1.711   1.042   9.506
 2363POPC   GL132677   1.961   1.313   9.248
 2363POPC   GL232678   2.007   1.096   9.043
 2363POPC   C1A32679   2.028   1.497   8.785
 2363POPC   D2A32680   2.086   1.187   8.470
 2363POPC   C3A32681   2.093   1.349   8.076
 2363POPC   C4A32682   1.812   1.315   7.739
 2363POPC   C1B32683   1.722   0.993   8.753
 2363POPC   C2B32684   1.806   0.731   8.454
 2363POPC   C3B32685   1.844   0.888   8.065
 2363POPC   C4B32686   1.509   0.796   7.786
 2364POPC   NC332687  10.009   5.208   9.516
 2364POPC   PO432688   9.317   5.045   9.498
 2364POPC   GL132689   9.637   5.152   9.164
 2364POPC   GL232690   9.841   4.853   9.188
 2364POPC   C1A32691   9.877   5.103   8.746
 2364POPC   D2A32692   9.924   5.143   8.313
 2364POPC   C3A32693   9.615   5.165   8.009
 2364POPC   C4A32694   9.671   5.161   7.572
 2364POPC   C1B32695   9.698   4.638   8.812
 2364POPC   C2B32696   9.600   4.746   8.355
 2364POPC   C3B32697   9.704   4.683   7.909
 2364POPC   C4B32698   9.456   4.718   7.500
 2365POPC   NC332699  42.085   1.628   9.401
 2365POPC   PO432700  42.404   1.161   9.764
 2365POPC   GL132701  42.261   1.117   9.281
 2365POPC   GL232702  42.399   1.330   9.078
 2365POPC   C1A32703  42.215   0.963   8.804
 2365POPC   D2A32704  41.987   1.022   8.407
 2365POPC   C3A32705  42.197   0.989   8.032
 2365POPC   C4A32706  42.130   1.109   7.624
 2365POPC   C1B32707  42.624   1.294   8.643
 2365POPC   C2B32708  42.698   1.129   8.205
 2365POPC   C3B32709  42.623   1.131   7.761
 2365POPC   C4B32710  42.478   1.423   7.404
 2366POPC   NC332711  28.454  24.816   9.615
 2366POPC   PO432712  28.079  24.238   9.518
 2366POPC   GL132713  28.216  24.517   9.191
 2366POPC   GL232714  28.512  24.591   9.157
 2366POPC   C1A32715  28.178  24.619   8.739
 2366POPC   D2A32716  28.076  24.464   8.341
 2366POPC   C3A32717  28.328  24.548   7.970
 2366POPC   C4A32718  28.720  24.309   7.952
 2366POPC   C1B32719  28.646  24.409   8.772
 2366POPC   C2B32720  28.590  24.662   8.400
 2366POPC   C3B32721  28.848  24.801   8.049
 2366POPC   C4B32722  28.679  24.770   7.635
 2367POPC   NC332723  35.152  42.523   9.390
 2367POPC   PO432724  35.412  41.865   9.393
 2367POPC   GL132725  35.350  42.139   9.069
 2367POPC   GL232726  35.641  42.334   9.011
 2367POPC   C1A32727  35.152  42.314   8.706
 2367POPC   D2A32728  35.117  42.422   8.273
 2367POPC   C3A32729  35.494  42.425   7.980
 2367POPC   C4A32730  35.436  42.401   7.490
 2367POPC   C1B32731  35.591  42.077   8.603
 2367POPC   C2B32732  35.828  42.082   8.203
 2367POPC   C3B32733  35.914  42.227   7.755
 2367POPC   C4B32734  35.796  42.098   7.325
 2368POPC   NC332735  29.646  15.374   9.382
 2368POPC   PO432736  30.244  15.117   9.411
 2368POPC   GL132737  30.005  15.198   9.057
 2368POPC   GL232738  29.740  14.947   9.085
 2368POPC   C1A32739  29.977  15.141   8.640
 2368POPC   D2A32740  30.010  14.931   8.271
 2368POPC   C3A32741  30.112  15.253   7.979
 2368POPC   C4A32742  30.114  15.326   7.532
 2368POPC   C1B32743  29.627  14.761   8.686
 2368POPC   C2B32744  29.516  14.777   8.241
 2368POPC   C3B32745  29.638  15.032   7.906
 2368POPC   C4B32746  29.606  15.407   7.655
 2369POPC   NC332747  34.118  17.386   9.559
 2369POPC   PO432748  33.710  17.845   9.761
 2369POPC   GL132749  33.777  17.690   9.297
 2369POPC   GL232750  33.944  17.369   9.088
 2369POPC   C1A32751  33.681  17.718   8.866
 2369POPC   D2A32752  33.868  17.468   8.546
 2369POPC   C3A32753  33.869  17.664   8.157
 2369POPC   C4A32754  33.784  17.745   7.746
 2369POPC   C1B32755  33.540  17.208   8.879
 2369POPC   C2B32756  33.463  17.144   8.446
 2369POPC   C3B32757  33.822  17.146   8.126
 2369POPC   C4B32758  33.711  17.252   7.700
 2370POPC   NC332759  11.264  11.808   9.606
 2370POPC   PO432760  10.971  11.135   9.598
 2370POPC   GL132761  11.112  11.183   9.198
 2370POPC   GL232762  11.352  11.428   9.256
 2370POPC   C1A32763  11.285  11.051   8.820
 2370POPC   D2A32764  11.203  11.181   8.430
 2370POPC   C3A32765  11.309  10.964   8.084
 2370POPC   C4A32766  11.314  11.078   7.694
 2370POPC   C1B32767  11.302  11.571   8.853
 2370POPC   C2B32768  11.402  11.634   8.437
 2370POPC   C3B32769  11.266  11.569   8.031
 2370POPC   C4B32770  11.391  11.639   7.610
 2371POPC   NC332771  16.526  22.461   9.422
 2371POPC   PO432772  16.672  23.181   9.425
 2371POPC   GL132773  16.839  23.073   9.041
 2371POPC   GL232774  17.170  22.872   9.071
 2371POPC   C1A32775  16.653  23.177   8.631
 2371POPC   D2A32776  16.801  23.362   8.233
 2371POPC   C3A32777  16.540  23.231   7.888
 2371POPC   C4A32778  16.495  22.864   7.682
 2371POPC   C1B32779  17.022  22.825   8.627
 2371POPC   C2B32780  16.830  22.787   8.196
 2371POPC   C3B32781  16.990  22.691   7.770
 2371POPC   C4B32782  17.292  22.634   7.428
 2372POPC   NC332783  39.644   4.793   9.585
 2372POPC   PO432784  40.113   5.254   9.631
 2372POPC   GL132785  40.048   5.167   9.227
 2372POPC   GL232786  40.029   4.789   9.214
 2372POPC   C1A32787  40.053   5.093   8.795
 2372POPC   D2A32788  40.244   4.955   8.450
 2372POPC   C3A32789  40.146   5.238   8.171
 2372POPC   C4A32790  40.039   5.218   7.751
 2372POPC   C1B32791  40.002   4.571   8.802
 2372POPC   C2B32792  39.865   4.549   8.385
 2372POPC   C3B32793  39.991   4.759   8.018
 2372POPC   C4B32794  39.794   4.771   7.617
 2373POPC   NC332795  12.886  14.766   9.045
 2373POPC   PO432796  12.852  14.146   9.377
 2373POPC   GL132797  13.047  14.244   9.008
 2373POPC   GL232798  13.016  13.934   8.907
 2373POPC   C1A32799  12.955  14.364   8.548
 2373POPC   D2A32800  12.590  14.600   8.301
 2373POPC   C3A32801  12.581  14.504   7.850
 2373POPC   C4A32802  12.946  14.424   7.627
 2373POPC   C1B32803  12.608  14.031   8.758
 2373POPC   C2B32804  12.588  14.073   8.333
 2373POPC   C3B32805  12.928  14.143   8.072
 2373POPC   C4B32806  12.776  13.952   7.737
 2374POPC   NC332807  36.140  32.432   9.550
 2374POPC   PO432808  35.846  31.831   9.374
 2374POPC   GL132809  36.118  32.120   9.106
 2374POPC   GL232810  36.205  32.490   9.068
 2374POPC   C1A32811  36.144  32.130   8.655
 2374POPC   D2A32812  35.942  31.922   8.305
 2374POPC   C3A32813  35.979  32.166   7.952
 2374POPC   C4A32814  35.959  32.388   7.579
 2374POPC   C1B32815  36.230  32.658   8.676
 2374POPC   C2B32816  36.408  32.465   8.306
 2374POPC   C3B32817  36.341  32.566   7.873
 2374POPC   C4B32818  36.462  32.513   7.441
 2375POPC   NC332819  19.988   1.121   9.714
 2375POPC   PO432820  19.491   1.398   9.363
 2375POPC   GL132821  19.742   1.276   9.075
 2375POPC   GL232822  20.040   1.227   9.223
 2375POPC   C1A32823  19.682   1.132   8.685
 2375POPC   D2A32824  19.685   1.372   8.366
 2375POPC   C3A32825  19.816   1.189   8.012
 2375POPC   C4A32826  19.970   1.494   7.754
 2375POPC   C1B32827  20.113   0.941   8.869
 2375POPC   C2B32828  20.158   0.997   8.419
 2375POPC   C3B32829  20.150   0.777   8.032
 2375POPC   C4B32830  19.859   0.734   7.776
 2376POPC   NC332831  33.128  42.966   9.473
 2376POPC   PO432832  32.707  43.462   9.418
 2376POPC   GL132833  32.836  43.187   9.132
 2376POPC   GL232834  32.673  42.858   9.216
 2376POPC   C1A32835  33.077  43.112   8.768
 2376POPC   D2A32836  32.877  43.123   8.389
 2376POPC   C3A32837  33.071  42.929   8.087
 2376POPC   C4A32838  33.215  43.227   7.798
 2376POPC   C1B32839  32.562  42.955   8.782
 2376POPC   C2B32840  32.560  42.709   8.429
 2376POPC   C3B32841  32.618  42.728   8.002
 2376POPC   C4B32842  32.697  43.142   7.835
 2377POPC   NC332843  30.548  28.403   9.561
 2377POPC   PO432844  31.021  28.880   9.449
 2377POPC   GL132845  30.862  28.805   9.052
 2377POPC   GL232846  30.585  28.598   9.089
 2377POPC   C1A32847  30.951  28.508   8.749
 2377POPC   D2A32848  30.922  28.268   8.390
 2377POPC   C3A32849  30.766  28.442   8.013
 2377POPC   C4A32850  30.812  28.362   7.611
 2377POPC   C1B32851  30.466  28.359   8.693
 2377POPC   C2B32852  30.294  28.481   8.366
 2377POPC   C3B32853  30.318  28.769   8.076
 2377POPC   C4B32854  30.467  28.722   7.672
 2378POPC   NC332855  38.984  29.636   9.586
 2378POPC   PO432856  39.353  29.025   9.554
 2378POPC   GL132857  39.136  29.083   9.179
 2378POPC   GL232858  38.920  29.347   9.160
 2378POPC   C1A32859  39.120  29.047   8.734
 2378POPC   D2A32860  39.426  29.192   8.419
 2378POPC   C3A32861  39.300  29.350   8.009
 2378POPC   C4A32862  39.241  29.151   7.608
 2378POPC   C1B32863  38.917  29.536   8.734
 2378POPC   C2B32864  38.904  29.334   8.347
 2378POPC   C3B32865  38.840  29.145   7.960
 2378POPC   C4B32866  38.818  29.417   7.642
 2379POPC   NC332867  12.523  43.046   9.423
 2379POPC   PO432868  11.891  43.111   9.571
 2379POPC   GL132869  12.056  43.154   9.136
 2379POPC   GL232870  12.287  43.420   9.060
 2379POPC   C1A32871  12.101  43.152   8.661
 2379POPC   D2A32872  11.988  42.955   8.273
 2379POPC   C3A32873  12.156  43.133   7.888
 2379POPC   C4A32874  12.112  43.306   7.443
 2379POPC   C1B32875  12.514  43.431   8.649
 2379POPC   C2B32876  12.386  43.532   8.225
 2379POPC   C3B32877  12.439  43.536   7.759
 2379POPC   C4B32878  12.444  43.661   7.297
 2380POPC   NC332879  20.885  14.497   9.580
 2380POPC   PO432880  20.385  14.070   9.501
 2380POPC   GL132881  20.526  14.362   9.211
 2380POPC   GL232882  20.816  14.203   9.176
 2380POPC   C1A32883  20.665  14.511   8.804
 2380POPC   D2A32884  20.809  14.624   8.415
 2380POPC   C3A32885  20.613  14.491   8.025
 2380POPC   C4A32886  20.735  14.485   7.601
 2380POPC   C1B32887  20.972  14.124   8.763
 2380POPC   C2B32888  20.733  14.128   8.405
 2380POPC   C3B32889  20.954  14.128   8.026
 2380POPC   C4B32890  20.825  14.000   7.639
 2381POPC   NC332891  27.998  23.376   9.450
 2381POPC   PO432892  27.488  22.967   9.509
 2381POPC   GL132893  27.551  22.757   9.142
 2381POPC   GL232894  27.193  22.656   9.093
 2381POPC   C1A32895  27.728  22.974   8.815
 2381POPC   D2A32896  27.473  23.146   8.479
 2381POPC   C3A32897  27.641  23.273   8.113
 2381POPC   C4A32898  27.555  23.134   7.748
 2381POPC   C1B32899  27.337  22.668   8.679
 2381POPC   C2B32900  27.673  22.538   8.455
 2381POPC   C3B32901  27.579  22.740   8.083
 2381POPC   C4B32902  27.360  22.654   7.715
 2382POPC   NC332903  31.083  13.449   9.678
 2382POPC   PO432904  30.424  13.476   9.641
 2382POPC   GL132905  30.698  13.604   9.296
 2382POPC   GL232906  31.017  13.420   9.188
 2382POPC   C1A32907  30.574  13.576   8.873
 2382POPC   D2A32908  30.462  13.336   8.508
 2382POPC   C3A32909  30.537  13.605   8.177
 2382POPC   C4A32910  30.628  13.599   7.765
 2382POPC   C1B32911  31.088  13.720   8.886
 2382POPC   C2B32912  30.969  13.574   8.493
 2382POPC   C3B32913  31.056  13.555   8.074
 2382POPC   C4B32914  31.037  13.897   7.781
 2383POPC   NC332915   2.354   1.925   9.593
 2383POPC   PO432916   1.824   2.191   9.407
 2383POPC   GL132917   2.071   2.003   9.142
 2383POPC   GL232918   1.784   1.764   9.135
 2383POPC   C1A32919   2.212   2.235   8.767
 2383POPC   D2A32920   2.076   2.291   8.333
 2383POPC   C3A32921   2.223   1.965   8.011
 2383POPC   C4A32922   2.318   2.073   7.562
 2383POPC   C1B32923   1.791   1.943   8.725
 2383POPC   C2B32924   1.596   2.002   8.371
 2383POPC   C3B32925   1.740   2.086   8.003
 2383POPC   C4B32926   1.823   1.844   7.630
 2384POPC   NC332927  23.316  30.309   9.601
 2384POPC   PO432928  22.700  30.054   9.545
 2384POPC   GL132929  23.038  30.003   9.227
 2384POPC   GL232930  23.204  30.268   9.075
 2384POPC   C1A32931  22.894  29.910   8.797
 2384POPC   D2A32932  22.754  30.077   8.389
 2384POPC   C3A32933  22.839  29.903   7.974
 2384POPC   C4A32934  22.914  29.737   7.554
 2384POPC   C1B32935  23.149  30.308   8.615
 2384POPC   C2B32936  23.188  30.265   8.166
 2384POPC   C3B32937  23.403  30.086   7.803
 2384POPC   C4B32938  23.263  30.051   7.359
 2385POPC   NC332939   3.114  40.897   9.777
 2385POPC   PO432940   3.671  40.620   9.493
 2385POPC   GL132941   3.760  40.699   9.116
 2385POPC   GL232942   3.738  41.064   9.152
 2385POPC   C1A32943   3.581  40.631   8.728
 2385POPC   D2A32944   3.300  40.670   8.392
 2385POPC   C3A32945   3.479  40.772   8.015
 2385POPC   C4A32946   3.376  41.218   7.821
 2385POPC   C1B32947   3.988  41.010   8.795
 2385POPC   C2B32948   3.890  40.877   8.386
 2385POPC   C3B32949   3.861  41.095   8.021
 2385POPC   C4B32950   3.735  40.934   7.617
 2386POPC   NC332951  33.147  29.531   9.747
 2386POPC   PO432952  32.851  29.054   9.395
 2386POPC   GL132953  33.042  29.012   9.013
 2386POPC   GL232954  33.285  28.778   9.079
 2386POPC   C1A32955  32.870  29.127   8.614
 2386POPC   D2A32956  32.669  29.391   8.297
 2386POPC   C3A32957  32.971  29.342   7.962
 2386POPC   C4A32958  33.087  29.107   7.593
 2386POPC   C1B32959  33.489  28.830   8.697
 2386POPC   C2B32960  33.378  28.610   8.323
 2386POPC   C3B32961  33.300  28.719   7.888
 2386POPC   C4B32962  33.489  28.795   7.470
 2387POPC   NC332963  42.023  42.238   9.604
 2387POPC   PO432964  41.462  42.505   9.329
 2387POPC   GL132965  41.818  42.353   9.138
 2387POPC   GL232966  41.773  41.998   9.129
 2387POPC   C1A32967  41.905  42.502   8.748
 2387POPC   D2A32968  41.577  42.575   8.479
 2387POPC   C3A32969  41.693  42.583   8.074
 2387POPC   C4A32970  41.919  42.406   7.755
 2387POPC   C1B32971  41.677  42.054   8.690
 2387POPC   C2B32972  41.769  42.078   8.236
 2387POPC   C3B32973  41.572  42.008   7.812
 2387POPC   C4B32974  41.790  42.060   7.419
 2388POPC   NC332975   7.839  14.289   9.545
 2388POPC   PO432976   8.349  14.724   9.641
 2388POPC   GL132977   8.236  14.554   9.266
 2388POPC   GL232978   7.927  14.674   9.213
 2388POPC   C1A32979   8.287  14.433   8.856
 2388POPC   D2A32980   8.519  14.282   8.505
 2388POPC   C3A32981   8.355  14.379   8.121
 2388POPC   C4A32982   8.221  14.290   7.694
 2388POPC   C1B32983   7.843  14.722   8.791
 2388POPC   C2B32984   7.740  14.821   8.371
 2388POPC   C3B32985   7.936  14.656   8.028
 2388POPC   C4B32986   7.883  14.679   7.612
 2389POPC   NC332987  32.619   9.687   9.516
 2389POPC   PO432988  32.118  10.031   9.507
 2389POPC   GL132989  32.250   9.808   9.145
 2389POPC   GL232990  32.549  10.019   9.061
 2389POPC   C1A32991  32.088   9.763   8.722
 2389POPC   D2A32992  32.305  10.067   8.451
 2389POPC   C3A32993  32.230  10.049   8.024
 2389POPC   C4A32994  32.031   9.760   7.751
 2389POPC   C1B32995  32.594   9.733   8.699
 2389POPC   C2B32996  32.391   9.529   8.296
 2389POPC   C3B32997  32.367   9.401   7.820
 2389POPC   C4B32998  32.572   9.364   7.385
 2390POPC   NC332999  38.898   6.897   9.405
 2390POPC   PO433000  39.551   6.703   9.508
 2390POPC   GL133001  39.433   6.580   9.106
 2390POPC   GL233002  39.340   6.917   9.053
 2390POPC   C1A33003  39.200   6.531   8.710
 2390POPC   D2A33004  39.119   6.693   8.304
 2390POPC   C3A33005  39.159   6.451   7.936
 2390POPC   C4A33006  39.380   6.395   7.581
 2390POPC   C1B33007  39.039   7.040   8.729
 2390POPC   C2B33008  38.740   7.016   8.384
 2390POPC   C3B33009  38.941   7.069   7.974
 2390POPC   C4B33010  39.372   6.949   7.862
 2391POPC   NC333011  20.944  42.540   9.531
 2391POPC   PO433012  20.278  42.664   9.433
 2391POPC   GL133013  20.464  42.326   9.163
 2391POPC   GL233014  20.837  42.340   9.092
 2391POPC   C1A33015  20.511  42.284   8.718
 2391POPC   D2A33016  20.680  42.538   8.403
 2391POPC   C3A33017  20.519  42.488   8.016
 2391POPC   C4A33018  20.692  42.588   7.610
 2391POPC   C1B33019  21.040  42.335   8.711
 2391POPC   C2B33020  21.062  42.137   8.334
 2391POPC   C3B33021  20.818  42.054   7.971
 2391POPC   C4B33022  20.952  42.116   7.541
 2392POPC   NC333023   5.161  10.993   9.437
 2392POPC   PO433024   4.715  10.587   9.686
 2392POPC   GL133025   4.973  10.507   9.258
 2392POPC   GL233026   5.213  10.226   9.182
 2392POPC   C1A33027   5.117  10.571   8.813
 2392POPC   D2A33028   4.955  10.410   8.389
 2392POPC   C3A33029   5.286  10.291   8.079
 2392POPC   C4A33030   5.546  10.592   7.821
 2392POPC   C1B33031   5.193  10.043   8.770
 2392POPC   C2B33032   5.037   9.894   8.375
 2392POPC   C3B33033   4.811  10.002   8.024
 2392POPC   C4B33034   4.870  10.246   7.649
 2393POPC   NC333035  28.638  29.582   9.563
 2393POPC   PO433036  28.202  30.092   9.480
 2393POPC   GL133037  28.488  30.074   9.123
 2393POPC   GL233038  28.577  29.739   9.069
 2393POPC   C1A33039  28.463  30.232   8.699
 2393POPC   D2A33040  28.065  30.223   8.424
 2393POPC   C3A33041  28.207  30.177   7.981
 2393POPC   C4A33042  28.615  30.298   7.761
 2393POPC   C1B33043  28.198  29.803   8.796
 2393POPC   C2B33044  27.945  29.577   8.472
 2393POPC   C3B33045  27.971  29.556   8.029
 2393POPC   C4B33046  28.304  29.725   7.759
 2394POPC   NC333047  25.719  19.531   9.469
 2394POPC   PO433048  25.081  19.421   9.458
 2394POPC   GL133049  25.309  19.610   9.156
 2394POPC   GL233050  25.288  19.964   9.266
 2394POPC   C1A33051  25.199  19.570   8.751
 2394POPC   D2A33052  25.224  19.790   8.384
 2394POPC   C3A33053  24.963  19.704   8.045
 2394POPC   C4A33054  25.092  19.792   7.647
 2394POPC   C1B33055  25.287  20.087   8.830
 2394POPC   C2B33056  25.526  20.218   8.443
 2394POPC   C3B33057  25.416  20.066   8.005
 2394POPC   C4B33058  25.036  20.254   7.818
 2395POPC   NC333059  15.908  41.591   9.592
 2395POPC   PO433060  15.594  41.085   9.686
 2395POPC   GL133061  15.647  41.325   9.222
 2395POPC   GL233062  15.690  41.701   9.139
 2395POPC   C1A33063  15.813  41.325   8.767
 2395POPC   D2A33064  16.047  41.507   8.410
 2395POPC   C3A33065  16.211  41.369   8.014
 2395POPC   C4A33066  16.102  41.190   7.569
 2395POPC   C1B33067  15.867  41.879   8.747
 2395POPC   C2B33068  15.996  42.010   8.325
 2395POPC   C3B33069  15.904  41.756   7.957
 2395POPC   C4B33070  16.278  41.722   7.654
 2396POPC   NC333071  16.859  12.322   9.701
 2396POPC   PO433072  16.617  12.874   9.503
 2396POPC   GL133073  16.799  12.840   9.139
 2396POPC   GL233074  16.615  12.516   9.130
 2396POPC   C1A33075  16.760  12.926   8.711
 2396POPC   D2A33076  17.032  12.688   8.435
 2396POPC   C3A33077  16.920  12.808   8.000
 2396POPC   C4A33078  16.705  12.767   7.593
 2396POPC   C1B33079  16.417  12.538   8.766
 2396POPC   C2B33080  16.320  12.802   8.432
 2396POPC   C3B33081  16.422  12.731   8.016
 2396POPC   C4B33082  16.405  12.381   7.700
 2397POPC   NC333083   7.160  43.751   9.762
 2397POPC   PO433084   7.680  44.098   9.436
 2397POPC   GL133085   7.448  44.138   9.093
 2397POPC   GL233086   7.490  43.779   8.993
 2397POPC   C1A33087   7.240  44.094   8.704
 2397POPC   D2A33088   7.375  43.788   8.428
 2397POPC   C3A33089   7.290  43.914   8.011
 2397POPC   C4A33090   7.302  44.057   7.603
 2397POPC   C1B33091   7.809  43.646   8.684
 2397POPC   C2B33092   7.722  43.398   8.284
 2397POPC   C3B33093   7.645  43.476   7.839
 2397POPC   C4B33094   7.726  43.579   7.423
 2398POPC   NC333095   9.129  37.657   9.492
 2398POPC   PO433096   8.714  37.144   9.570
 2398POPC   GL133097   8.797  37.409   9.187
 2398POPC   GL233098   8.778  37.791   9.150
 2398POPC   C1A33099   9.001  37.414   8.784
 2398POPC   D2A33100   9.306  37.468   8.445
 2398POPC   C3A33101   9.038  37.519   8.067
 2398POPC   C4A33102   8.864  37.558   7.660
 2398POPC   C1B33103   9.149  37.882   8.859
 2398POPC   C2B33104   9.002  37.885   8.441
 2398POPC   C3B33105   9.152  38.031   8.059
 2398POPC   C4B33106   9.104  37.995   7.669
 2399POPC   NC333107  43.044   6.855   9.518
 2399POPC   PO433108  43.162   7.478   9.561
 2399POPC   GL133109  43.172   7.541   9.144
 2399POPC   GL233110  43.085   7.191   9.133
 2399POPC   C1A33111  43.061   7.545   8.741
 2399POPC   D2A33112  42.667   7.422   8.559
 2399POPC   C3A33113  42.721   7.452   8.111
 2399POPC   C4A33114  43.010   7.438   7.743
 2399POPC   C1B33115  42.881   7.017   8.812
 2399POPC   C2B33116  43.061   7.124   8.445
 2399POPC   C3B33117  43.215   7.103   8.079
 2399POPC   C4B33118  43.567   6.976   7.878
 2400POPC   NC333119   3.857  35.920   9.554
 2400POPC   PO433120   3.346  35.343   9.599
 2400POPC   GL133121   3.611  35.410   9.206
 2400POPC   GL233122   3.528  35.106   9.004
 2400POPC   C1A33123   3.530  35.607   8.802
 2400POPC   D2A33124   3.634  35.629   8.339
 2400POPC   C3A33125   3.366  35.649   7.950
 2400POPC   C4A33126   3.375  35.519   7.489
 2400POPC   C1B33127   3.469  35.164   8.565
 2400POPC   C2B33128   3.449  34.966   8.165
 2400POPC   C3B33129   3.371  35.009   7.716
 2400POPC   C4B33130   3.241  34.982   7.244
 2401POPC   NC333131  33.881  24.915   9.623
 2401POPC   PO433132  33.671  24.344   9.535
 2401POPC   GL133133  33.834  24.416   9.133
 2401POPC   GL233134  33.623  24.194   9.000
 2401POPC   C1A33135  33.974  24.614   8.709
 2401POPC   D2A33136  34.091  24.645   8.265
 2401POPC   C3A33137  33.862  24.515   7.893
 2401POPC   C4A33138  33.743  24.329   7.494
 2401POPC   C1B33139  33.422  24.244   8.616
 2401POPC   C2B33140  33.572  24.232   8.210
 2401POPC   C3B33141  33.495  24.008   7.855
 2401POPC   C4B33142  33.246  24.182   7.614
 2402POPC   NC333143  12.126   8.609   9.513
 2402POPC   PO433144  12.351   9.233   9.475
 2402POPC   GL133145  12.226   8.968   9.132
 2402POPC   GL233146  11.930   8.810   9.067
 2402POPC   C1A33147  12.104   9.175   8.758
 2402POPC   D2A33148  11.821   9.282   8.438
 2402POPC   C3A33149  11.923   9.239   8.038
 2402POPC   C4A33150  11.869   9.042   7.665
 2402POPC   C1B33151  11.912   8.707   8.659
 2402POPC   C2B33152  12.170   8.899   8.327
 2402POPC   C3B33153  12.329   8.926   7.912
 2402POPC   C4B33154  12.181   8.611   7.622
 2403POPC   NC333155  34.729  34.891   9.323
 2403POPC   PO433156  34.915  34.297   9.562
 2403POPC   GL133157  34.882  34.359   9.145
 2403POPC   GL233158  35.080  34.624   9.096
 2403POPC   C1A33159  34.573  34.315   8.824
 2403POPC   D2A33160  34.317  34.419   8.474
 2403POPC   C3A33161  34.464  34.526   8.060
 2403POPC   C4A33162  34.195  34.715   7.775
 2403POPC   C1B33163  35.012  34.593   8.692
 2403POPC   C2B33164  35.119  34.850   8.408
 2403POPC   C3B33165  34.995  35.017   8.048
 2403POPC   C4B33166  34.821  34.773   7.737
 2404POPC   NC333167  27.785  18.733   9.502
 2404POPC   PO433168  27.600  19.347   9.577
 2404POPC   GL133169  27.862  19.168   9.226
 2404POPC   GL233170  27.560  19.000   9.120
 2404POPC   C1A33171  27.953  19.092   8.786
 2404POPC   D2A33172  27.694  19.145   8.387
 2404POPC   C3A33173  27.869  19.143   8.008
 2404POPC   C4A33174  27.547  19.022   7.730
 2404POPC   C1B33175  27.513  18.816   8.727
 2404POPC   C2B33176  27.230  18.712   8.443
 2404POPC   C3B33177  27.084  18.819   8.069
 2404POPC   C4B33178  27.274  18.617   7.757
 2405POPC   NC333179  27.958  33.813   9.601
 2405POPC   PO433180  27.336  33.942   9.612
 2405POPC   GL133181  27.540  33.720   9.286
 2405POPC   GL233182  27.752  33.973   9.163
 2405POPC   C1A33183  27.632  33.560   8.866
 2405POPC   D2A33184  27.620  33.806   8.514
 2405POPC   C3A33185  27.650  33.674   8.105
 2405POPC   C4A33186  27.445  33.789   7.759
 2405POPC   C1B33187  27.420  34.139   8.894
 2405POPC   C2B33188  27.313  34.214   8.464
 2405POPC   C3B33189  27.518  34.199   8.073
 2405POPC   C4B33190  27.318  34.268   7.676
 2406POPC   NC333191   4.792  10.001   9.357
 2406POPC   PO433192   5.435   9.953   9.540
 2406POPC   GL133193   5.336   9.683   9.187
 2406POPC   GL233194   5.026   9.670   9.077
 2406POPC   C1A33195   5.362   9.521   8.736
 2406POPC   D2A33196   5.098   9.373   8.397
 2406POPC   C3A33197   5.180   9.570   8.007
 2406POPC   C4A33198   5.252   9.900   7.747
 2406POPC   C1B33199   4.742   9.743   8.758
 2406POPC   C2B33200   4.612   9.559   8.384
 2406POPC   C3B33201   4.685   9.451   7.983
 2406POPC   C4B33202   4.821   9.664   7.624
 2407POPC   NC333203   1.571  38.634   9.467
 2407POPC   PO433204   2.162  38.369   9.431
 2407POPC   GL133205   2.049  38.491   9.033
 2407POPC   GL233206   1.841  38.785   9.053
 2407POPC   C1A33207   2.264  38.660   8.692
 2407POPC   D2A33208   2.625  38.701   8.385
 2407POPC   C3A33209   2.433  38.721   7.972
 2407POPC   C4A33210   2.294  38.556   7.587
 2407POPC   C1B33211   1.791  38.825   8.604
 2407POPC   C2B33212   1.986  38.587   8.247
 2407POPC   C3B33213   1.851  38.582   7.820
 2407POPC   C4B33214   1.567  38.716   7.500
 2408POPC   NC333215  31.353  16.016   9.602
 2408POPC   PO433216  31.361  16.452   9.083
 2408POPC   GL133217  31.459  15.992   9.096
 2408POPC   GL233218  31.197  15.738   9.170
 2408POPC   C1A33219  31.640  15.874   8.725
 2408POPC   D2A33220  31.364  16.096   8.434
 2408POPC   C3A33221  31.547  16.108   8.049
 2408POPC   C4A33222  31.705  15.718   7.881
 2408POPC   C1B33223  31.230  15.597   8.713
 2408POPC   C2B33224  31.343  15.598   8.268
 2408POPC   C3B33225  31.169  15.810   7.917
 2408POPC   C4B33226  30.900  15.824   7.563
 2409POPC   NC333227  30.111  44.325   9.484
 2409POPC   PO433228  30.287  43.585   9.316
 2409POPC   GL133229  30.193  43.954   9.128
 2409POPC   GL233230  29.859  44.092   9.113
 2409POPC   C1A33231  30.184  44.010   8.718
 2409POPC   D2A33232  30.048  43.792   8.397
 2409POPC   C3A33233  30.203  43.950   8.062
 2409POPC   C4A33234  30.154  43.823   7.671
 2409POPC   C1B33235  29.700  43.854   8.774
 2409POPC   C2B33236  29.560  43.928   8.337
 2409POPC   C3B33237  29.704  43.930   7.894
 2409POPC   C4B33238  29.781  44.041   7.420
 2410POPC   NC333239  37.193   4.202   9.383
 2410POPC   PO433240  36.812   4.770   9.477
 2410POPC   GL133241  36.678   4.682   9.051
 2410POPC   GL233242  36.842   4.366   9.011
 2410POPC   C1A33243  36.600   4.563   8.604
 2410POPC   D2A33244  36.765   4.246   8.327
 2410POPC   C3A33245  36.890   4.400   7.909
 2410POPC   C4A33246  36.657   4.702   7.659
 2410POPC   C1B33247  37.128   4.111   8.724
 2410POPC   C2B33248  37.096   3.811   8.402
 2410POPC   C3B33249  36.801   3.805   8.071
 2410POPC   C4B33250  36.857   3.899   7.643
 2411POPC   NC333251  10.827  42.923   9.461
 2411POPC   PO433252  10.241  43.204   9.458
 2411POPC   GL133253  10.427  43.396   9.113
 2411POPC   GL233254  10.684  43.167   9.027
 2411POPC   C1A33255  10.364  43.522   8.701
 2411POPC   D2A33256  10.189  43.252   8.394
 2411POPC   C3A33257  10.337  43.141   7.992
 2411POPC   C4A33258  10.144  42.828   7.707
 2411POPC   C1B33259  10.839  42.742   8.830
 2411POPC   C2B33260  11.062  42.710   8.431
 2411POPC   C3B33261  10.722  42.813   8.105
 2411POPC   C4B33262  10.674  42.856   7.656
 2412POPC   NC333263  29.666   9.934   9.461
 2412POPC   PO433264  30.323   9.719   9.397
 2412POPC   GL133265  30.001   9.769   9.084
 2412POPC   GL233266  29.774   9.498   9.034
 2412POPC   C1A33267  30.041   9.658   8.643
 2412POPC   D2A33268  30.306   9.651   8.291
 2412POPC   C3A33269  29.997   9.628   7.972
 2412POPC   C4A33270  29.995   9.785   7.559
 2412POPC   C1B33271  29.502   9.776   8.766
 2412POPC   C2B33272  29.473   9.930   8.336
 2412POPC   C3B33273  29.525   9.884   7.897
 2412POPC   C4B33274  29.566   9.509   7.621
 2413POPC   NC333275   7.762  22.069   9.420
 2413POPC   PO433276   8.390  22.164   9.499
 2413POPC   GL133277   8.192  22.186   9.122
 2413POPC   GL233278   8.195  21.858   9.084
 2413POPC   C1A33279   8.044  22.135   8.683
 2413POPC   D2A33280   7.872  21.988   8.284
 2413POPC   C3A33281   8.047  22.216   7.935
 2413POPC   C4A33282   7.871  22.527   7.650
 2413POPC   C1B33283   8.268  21.659   8.701
 2413POPC   C2B33284   8.305  21.728   8.256
 2413POPC   C3B33285   8.155  21.718   7.844
 2413POPC   C4B33286   8.123  21.976   7.467
 2414POPC   NC333287  44.216  11.432   9.416
 2414POPC   PO433288  44.683  10.915   9.305
 2414POPC   GL133289  44.472  11.194   9.042
 2414POPC   GL233290  44.610  11.547   9.106
 2414POPC   C1A33291  44.633  11.314   8.665
 2414POPC   D2A33292  44.843  11.249   8.342
 2414POPC   C3A33293  44.641  10.911   8.179
 2414POPC   C4A33294  44.409  10.956   7.824
 2414POPC   C1B33295  44.299  11.674   8.789
 2414POPC   C2B33296  44.343  11.598   8.338
 2414POPC   C3B33297  44.488  11.465   7.942
 2414POPC   C4B33298  44.291  11.395   7.528
 2415POPC   NC333299  35.589  24.965   9.599
 2415POPC   PO433300  34.988  24.976   9.334
 2415POPC   GL133301  35.294  25.102   9.165
 2415POPC   GL233302  35.243  25.455   9.171
 2415POPC   C1A33303  35.365  25.204   8.743
 2415POPC   D2A33304  35.298  25.455   8.382
 2415POPC   C3A33305  35.571  25.396   8.023
 2415POPC   C4A33306  35.721  25.041   7.787
 2415POPC   C1B33307  35.030  25.618   8.792
 2415POPC   C2B33308  35.004  25.880   8.386
 2415POPC   C3B33309  35.089  25.650   7.964
 2415POPC   C4B33310  35.167  25.173   7.810
 2416POPC   NC333311  27.169  19.547   9.528
 2416POPC   PO433312  27.721  19.933   9.476
 2416POPC   GL133313  27.625  19.845   9.091
 2416POPC   GL233314  27.478  19.522   9.108
 2416POPC   C1A33315  27.757  20.002   8.673
 2416POPC   D2A33316  27.594  20.159   8.327
 2416POPC   C3A33317  27.793  20.075   7.952
 2416POPC   C4A33318  27.693  20.149   7.537
 2416POPC   C1B33319  27.638  19.524   8.696
 2416POPC   C2B33320  27.720  19.660   8.246
 2416POPC   C3B33321  27.567  19.529   7.848
 2416POPC   C4B33322  27.491  19.415   7.410
 2417POPC   NC333323   5.665  43.234   9.519
 2417POPC   PO433324   6.287  43.022   9.396
 2417POPC   GL133325   5.952  43.006   9.114
 2417POPC   GL233326   5.841  43.338   9.053
 2417POPC   C1A33327   6.004  43.086   8.655
 2417POPC   D2A33328   5.706  43.038   8.319
 2417POPC   C3A33329   5.986  43.032   7.983
 2417POPC   C4A33330   5.979  43.131   7.536
 2417POPC   C1B33331   5.695  43.494   8.639
 2417POPC   C2B33332   5.906  43.510   8.248
 2417POPC   C3B33333   5.647  43.384   7.902
 2417POPC   C4B33334   5.527  43.370   7.472
 2418POPC   NC333335  21.466  20.133   9.530
 2418POPC   PO433336  21.675  19.574   9.775
 2418POPC   GL133337  21.658  19.677   9.269
 2418POPC   GL233338  21.422  19.951   9.062
 2418POPC   C1A33339  21.737  19.694   8.800
 2418POPC   D2A33340  21.458  19.890   8.490
 2418POPC   C3A33341  21.589  19.896   8.060
 2418POPC   C4A33342  21.513  19.637   7.697
 2418POPC   C1B33343  21.173  20.244   8.784
 2418POPC   C2B33344  21.051  20.435   8.392
 2418POPC   C3B33345  21.093  20.215   8.007
 2418POPC   C4B33346  21.345  20.131   7.667
 2419POPC   NC333347  42.642  44.830   9.317
 2419POPC   PO433348  42.022  44.884   9.464
 2419POPC   GL133349  42.165  44.583   9.111
 2419POPC   GL233350  42.517  44.547   8.907
 2419POPC   C1A33351  42.117  44.335   8.723
 2419POPC   D2A33352  42.449  44.238   8.444
 2419POPC   C3A33353  42.475  44.496   8.053
 2419POPC   C4A33354  42.140  44.675   7.780
 2419POPC   C1B33355  42.275  44.851   8.665
 2419POPC   C2B33356  42.244   0.040   8.260
 2419POPC   C3B33357  42.516  44.997   7.919
 2419POPC   C4B33358  42.660   0.248   7.620
 2420POPC   NC333359  10.502  17.084   9.267
 2420POPC   PO433360  10.795  16.472   9.514
 2420POPC   GL133361  10.792  16.434   9.082
 2420POPC   GL233362  10.470  16.643   8.970
 2420POPC   C1A33363  10.821  16.401   8.648
 2420POPC   D2A33364  10.611  16.686   8.443
 2420POPC   C3A33365  10.518  16.642   8.058
 2420POPC   C4A33366  10.659  16.769   7.710
 2420POPC   C1B33367  10.139  16.617   8.599
 2420POPC   C2B33368  10.019  16.523   8.166
 2420POPC   C3B33369  10.054  16.856   7.862
 2420POPC   C4B33370  10.232  16.925   7.486
 2421POPC   NC333371  44.791   0.818   9.462
 2421POPC   PO433372  44.430   0.241   9.520
 2421POPC   GL133373  44.469   0.509   9.192
 2421POPC   GL233374  44.151   0.435   9.015
 2421POPC   C1A33375  44.787   0.511   8.880
 2421POPC   D2A33376  44.865   0.431   8.462
 2421POPC   C3A33377  44.663   0.733   8.198
 2421POPC   C4A33378  44.553   0.739   7.767
 2421POPC   C1B33379  44.446   0.115   8.865
 2421POPC   C2B33380  44.535   0.038   8.450
 2421POPC   C3B33381  44.581   0.235   8.062
 2421POPC   C4B33382  44.349   0.249   7.698
 2422POPC   NC333383   1.862   4.064   9.208
 2422POPC   PO433384   1.846   3.655   9.741
 2422POPC   GL133385   1.895   3.540   9.260
 2422POPC   GL233386   1.601   3.426   9.096
 2422POPC   C1A33387   1.977   3.400   8.800
 2422POPC   D2A33388   1.805   3.341   8.376
 2422POPC   C3A33389   1.992   3.498   8.010
 2422POPC   C4A33390   1.905   3.466   7.579
 2422POPC   C1B33391   1.596   3.717   8.684
 2422POPC   C2B33392   1.564   3.948   8.283
 2422POPC   C3B33393   1.644   3.856   7.838
 2422POPC   C4B33394   1.625   3.858   7.394
 2423POPC   NC333395  11.888  33.411   9.846
 2423POPC   PO433396  12.353  33.002   9.585
 2423POPC   GL133397  12.115  32.974   9.233
 2423POPC   GL233398  12.080  33.317   9.192
 2423POPC   C1A33399  12.051  32.772   8.845
 2423POPC   D2A33400  12.004  32.543   8.456
 2423POPC   C3A33401  12.080  32.694   8.073
 2423POPC   C4A33402  12.098  32.860   7.662
 2423POPC   C1B33403  12.180  33.257   8.774
 2423POPC   C2B33404  12.029  33.088   8.400
 2423POPC   C3B33405  12.199  33.211   7.999
 2423POPC   C4B33406  12.210  33.428   7.594
 2424POPC   NC333407  27.149  41.154  10.064
 2424POPC   PO433408  27.666  41.265   9.598
 2424POPC   GL133409  27.657  41.229   9.093
 2424POPC   GL233410  27.302  41.360   9.053
 2424POPC   C1A33411  27.524  41.306   8.610
 2424POPC   D2A33412  27.412  41.203   8.165
 2424POPC   C3A33413  27.716  41.205   7.841
 2424POPC   C4A33414  27.826  41.599   7.628
 2424POPC   C1B33415  27.075  41.527   8.695
 2424POPC   C2B33416  27.239  41.668   8.294
 2424POPC   C3B33417  27.320  41.605   7.837
 2424POPC   C4B33418  27.004  41.562   7.484
 2425POPC   NC333419  42.640  14.285   9.538
 2425POPC   PO433420  42.021  14.577   9.324
 2425POPC   GL133421  42.297  14.533   9.006
 2425POPC   GL233422  42.596  14.631   9.173
 2425POPC   C1A33423  42.606  14.242   8.821
 2425POPC   D2A33424  42.642  14.021   8.431
 2425POPC   C3A33425  42.614  14.222   8.038
 2425POPC   C4A33426  42.435  14.165   7.616
 2425POPC   C1B33427  42.702  14.742   8.778
 2425POPC   C2B33428  42.455  14.572   8.461
 2425POPC   C3B33429  42.429  14.697   8.062
 2425POPC   C4B33430  42.202  14.632   7.739
 2426POPC   NC333431  31.391  35.620   9.430
 2426POPC   PO433432  31.824  35.089   9.478
 2426POPC   GL133433  31.707  35.326   9.118
 2426POPC   GL233434  31.846  35.649   9.199
 2426POPC   C1A33435  31.564  35.241   8.682
 2426POPC   D2A33436  31.782  35.270   8.295
 2426POPC   C3A33437  31.533  35.114   7.977
 2426POPC   C4A33438  31.255  34.922   7.706
 2426POPC   C1B33439  31.613  35.729   8.790
 2426POPC   C2B33440  31.424  35.697   8.355
 2426POPC   C3B33441  31.594  35.636   7.910
 2426POPC   C4B33442  31.828  35.755   7.505
 2427POPC   NC333443  13.208  35.903   9.748
 2427POPC   PO433444  13.886  35.941   9.547
 2427POPC   GL133445  13.572  36.070   9.226
 2427POPC   GL233446  13.351  36.330   9.301
 2427POPC   C1A33447  13.668  36.175   8.804
 2427POPC   D2A33448  13.754  35.957   8.449
 2427POPC   C3A33449  13.715  36.155   8.089
 2427POPC   C4A33450  13.900  35.950   7.753
 2427POPC   C1B33451  13.315  36.523   8.887
 2427POPC   C2B33452  13.385  36.406   8.425
 2427POPC   C3B33453  13.383  36.530   7.969
 2427POPC   C4B33454  13.526  36.264   7.623
 2428POPC   NC333455  32.249  43.436   9.532
 2428POPC   PO433456  31.965  42.797   9.503
 2428POPC   GL133457  32.160  43.059   9.124
 2428POPC   GL233458  32.085  43.442   9.064
 2428POPC   C1A33459  32.099  43.172   8.645
 2428POPC   D2A33460  32.387  43.176   8.289
 2428POPC   C3A33461  32.211  43.025   7.883
 2428POPC   C4A33462  31.919  43.246   7.717
 2428POPC   C1B33463  32.172  43.692   8.716
 2428POPC   C2B33464  32.064  43.608   8.279
 2428POPC   C3B33465  32.335  43.529   7.929
 2428POPC   C4B33466  32.451  43.445   7.513
 2429POPC   NC333467  42.362  29.699   9.546
 2429POPC   PO433468  42.017  30.337   9.526
 2429POPC   GL133469  42.288  30.097   9.218
 2429POPC   GL233470  42.507  29.793   9.088
 2429POPC   C1A33471  42.264  30.144   8.776
 2429POPC   D2A33472  42.055  29.966   8.400
 2429POPC   C3A33473  42.183  30.140   8.005
 2429POPC   C4A33474  42.466  30.082   7.697
 2429POPC   C1B33475  42.321  29.651   8.733
 2429POPC   C2B33476  42.423  29.552   8.372
 2429POPC   C3B33477  42.200  29.587   8.080
 2429POPC   C4B33478  42.128  29.687   7.741
 2430POPC   NC333479  41.377   0.390   9.612
 2430POPC   PO433480  41.823   0.819   9.422
 2430POPC   GL133481  41.505   0.569   9.150
 2430POPC   GL233482  41.334   0.820   8.933
 2430POPC   C1A33483  41.428   0.322   8.747
 2430POPC   D2A33484  41.497   0.496   8.310
 2430POPC   C3A33485  41.369   0.416   7.866
 2430POPC   C4A33486  41.576   0.248   7.490
 2430POPC   C1B33487  41.781   0.689   8.746
 2430POPC   C2B33488  42.004   0.505   8.385
 2430POPC   C3B33489  41.881   0.586   7.955
 2430POPC   C4B33490  41.788   0.714   7.533
 2431POPC   NC333491  12.860  31.830   9.525
 2431POPC   PO433492  12.883  32.518   9.550
 2431POPC   GL133493  12.823  32.230   9.198
 2431POPC   GL233494  13.121  32.022   9.130
 2431POPC   C1A33495  12.850  32.338   8.786
 2431POPC   D2A33496  12.990  32.631   8.510
 2431POPC   C3A33497  12.937  32.505   8.071
 2431POPC   C4A33498  12.766  32.437   7.656
 2431POPC   C1B33499  13.083  31.903   8.703
 2431POPC   C2B33500  12.886  32.067   8.344
 2431POPC   C3B33501  12.818  31.971   7.929
 2431POPC   C4B33502  13.085  32.039   7.581
 2432POPC   NC333503  11.432  29.742   9.585
 2432POPC   PO433504  11.652  30.386   9.432
 2432POPC   GL133505  11.609  29.969   9.152
 2432POPC   GL233506  11.336  29.740   9.102
 2432POPC   C1A33507  11.601  29.874   8.683
 2432POPC   D2A33508  11.368  30.159   8.397
 2432POPC   C3A33509  11.385  30.245   7.988
 2432POPC   C4A33510  11.484  29.983   7.665
 2432POPC   C1B33511  11.111  29.925   8.779
 2432POPC   C2B33512  11.156  29.706   8.396
 2432POPC   C3B33513  11.086  29.847   7.987
 2432POPC   C4B33514  10.916  29.854   7.571
 2433POPC   NC333515  43.896  26.259   9.566
 2433POPC   PO433516  44.056  26.916   9.596
 2433POPC   GL133517  44.094  26.849   9.176
 2433POPC   GL233518  44.292  26.579   9.233
 2433POPC   C1A33519  43.912  26.999   8.793
 2433POPC   D2A33520  43.876  26.885   8.370
 2433POPC   C3A33521  43.529  26.908   8.145
 2433POPC   C4A33522  43.666  26.878   7.748
 2433POPC   C1B33523  44.278  26.476   8.819
 2433POPC   C2B33524  44.325  26.611   8.403
 2433POPC   C3B33525  44.143  26.552   8.003
 2433POPC   C4B33526  44.037  26.548   7.607
 2434POPC   NC333527  39.238  39.449   9.568
 2434POPC   PO433528  38.982  38.836   9.519
 2434POPC   GL133529  39.049  39.086   9.154
 2434POPC   GL233530  38.851  39.367   9.069
 2434POPC   C1A33531  38.969  38.996   8.720
 2434POPC   D2A33532  39.268  39.004   8.377
 2434POPC   C3A33533  39.185  38.940   7.940
 2434POPC   C4A33534  38.925  39.024   7.597
 2434POPC   C1B33535  39.216  39.487   8.835
 2434POPC   C2B33536  39.368  39.540   8.410
 2434POPC   C3B33537  39.488  39.680   8.003
 2434POPC   C4B33538  39.251  39.442   7.709
 2435POPC   NC333539   7.595  18.435   9.517
 2435POPC   PO433540   8.213  18.484   9.242
 2435POPC   GL133541   7.786  18.578   9.045
 2435POPC   GL233542   7.410  18.698   9.121
 2435POPC   C1A33543   7.563  18.517   8.635
 2435POPC   D2A33544   7.516  18.333   8.223
 2435POPC   C3A33545   7.605  18.636   7.913
 2435POPC   C4A33546   7.850  18.491   7.562
 2435POPC   C1B33547   7.159  18.375   8.909
 2435POPC   C2B33548   7.091  18.170   8.509
 2435POPC   C3B33549   7.006  18.229   8.073
 2435POPC   C4B33550   7.182  18.439   7.761
 2436POPC   NC333551  37.425  16.781   9.491
 2436POPC   PO433552  38.068  16.826   9.447
 2436POPC   GL133553  37.835  16.664   9.091
 2436POPC   GL233554  37.577  16.893   9.030
 2436POPC   C1A33555  37.809  16.699   8.623
 2436POPC   D2A33556  38.049  16.737   8.254
 2436POPC   C3A33557  37.863  16.835   7.875
 2436POPC   C4A33558  37.741  17.227   7.719
 2436POPC   C1B33559  37.361  16.543   8.826
 2436POPC   C2B33560  37.469  16.334   8.439
 2436POPC   C3B33561  37.314  16.443   8.036
 2436POPC   C4B33562  37.370  16.398   7.599
 2437POPC   NC333563  23.155  25.572   9.472
 2437POPC   PO433564  23.305  24.928   9.449
 2437POPC   GL133565  22.991  25.156   9.211
 2437POPC   GL233566  23.108  25.418   8.996
 2437POPC   C1A33567  22.694  25.057   8.865
 2437POPC   D2A33568  22.467  25.114   8.458
 2437POPC   C3A33569  22.641  25.046   8.036
 2437POPC   C4A33570  22.635  25.431   7.755
 2437POPC   C1B33571  22.822  25.555   8.691
 2437POPC   C2B33572  22.766  25.502   8.261
 2437POPC   C3B33573  23.064  25.311   7.994
 2437POPC   C4B33574  23.136  25.402   7.569
 2438POPC   NC333575  16.323  15.200   9.553
 2438POPC   PO433576  15.758  15.459   9.638
 2438POPC   GL133577  15.872  15.297   9.226
 2438POPC   GL233578  16.027  14.987   9.204
 2438POPC   C1A33579  15.944  15.306   8.772
 2438POPC   D2A33580  16.032  15.516   8.389
 2438POPC   C3A33581  15.992  15.269   8.030
 2438POPC   C4A33582  15.803  14.926   7.846
 2438POPC   C1B33583  16.254  14.919   8.829
 2438POPC   C2B33584  16.163  14.842   8.411
 2438POPC   C3B33585  16.315  14.833   8.022
 2438POPC   C4B33586  16.263  15.033   7.656
 2439POPC   NC333587  31.945   8.639   9.343
 2439POPC   PO433588  32.288   8.117   9.531
 2439POPC   GL133589  32.257   8.164   9.102
 2439POPC   GL233590  32.397   8.470   9.103
 2439POPC   C1A33591  32.290   8.038   8.671
 2439POPC   D2A33592  32.228   7.885   8.280
 2439POPC   C3A33593  32.208   8.016   7.840
 2439POPC   C4A33594  32.234   7.988   7.358
 2439POPC   C1B33595  32.282   8.543   8.673
 2439POPC   C2B33596  32.299   8.401   8.277
 2439POPC   C3B33597  32.168   8.524   7.896
 2439POPC   C4B33598  32.309   8.476   7.485
 2440POPC   NC333599  42.158  10.141   9.463
 2440POPC   PO433600  41.708   9.558   9.532
 2440POPC   GL133601  42.104   9.553   9.182
 2440POPC   GL233602  42.512   9.494   9.182
 2440POPC   C1A33603  42.284   9.753   8.763
 2440POPC   D2A33604  42.604  10.015   8.495
 2440POPC   C3A33605  42.444  10.099   8.059
 2440POPC   C4A33606  42.166   9.831   7.792
 2440POPC   C1B33607  42.760   9.527   8.768
 2440POPC   C2B33608  42.706   9.385   8.297
 2440POPC   C3B33609  42.567   9.421   7.824
 2440POPC   C4B33610  42.386   9.567   7.395
 2441POPC   NC333611  29.543  20.327   9.342
 2441POPC   PO433612  28.984  20.674   9.530
 2441POPC   GL133613  28.932  20.555   9.127
 2441POPC   GL233614  28.673  20.822   9.061
 2441POPC   C1A33615  29.219  20.467   8.781
 2441POPC   D2A33616  29.257  20.295   8.391
 2441POPC   C3A33617  29.300  20.554   8.045
 2441POPC   C4A33618  29.202  20.357   7.669
 2441POPC   C1B33619  28.863  20.816   8.686
 2441POPC   C2B33620  28.870  20.624   8.295
 2441POPC   C3B33621  28.886  20.753   7.839
 2441POPC   C4B33622  28.855  20.630   7.422
 2442POPC   NC333623   7.070  40.892   9.440
 2442POPC   PO433624   7.724  40.962   9.334
 2442POPC   GL133625   7.612  40.580   9.072
 2442POPC   GL233626   7.236  40.496   9.098
 2442POPC   C1A33627   7.634  40.410   8.627
 2442POPC   D2A33628   7.422  40.333   8.210
 2442POPC   C3A33629   7.483  40.613   7.842
 2442POPC   C4A33630   7.235  40.638   7.442
 2442POPC   C1B33631   7.270  40.800   8.726
 2442POPC   C2B33632   7.398  40.891   8.276
 2442POPC   C3B33633   7.258  41.056   7.869
 2442POPC   C4B33634   7.135  41.159   7.466
 2443POPC   NC333635  31.272  20.741   9.917
 2443POPC   PO433636  30.671  20.678   9.537
 2443POPC   GL133637  30.619  20.744   9.108
 2443POPC   GL233638  30.543  20.409   9.112
 2443POPC   C1A33639  30.887  20.843   8.728
 2443POPC   D2A33640  31.002  20.778   8.294
 2443POPC   C3A33641  30.626  20.812   8.031
 2443POPC   C4A33642  30.234  20.838   7.762
 2443POPC   C1B33643  30.732  20.336   8.765
 2443POPC   C2B33644  30.713  20.345   8.348
 2443POPC   C3B33645  30.551  20.172   8.009
 2443POPC   C4B33646  30.534  20.439   7.693
 2444POPC   NC333647  21.882  35.631   9.373
 2444POPC   PO433648  22.342  35.163   9.362
 2444POPC   GL133649  22.435  35.371   8.986
 2444POPC   GL233650  22.581  35.664   9.049
 2444POPC   C1A33651  22.184  35.578   8.660
 2444POPC   D2A33652  22.031  35.626   8.220
 2444POPC   C3A33653  22.129  35.203   8.022
 2444POPC   C4A33654  22.077  34.848   7.742
 2444POPC   C1B33655  22.628  35.831   8.609
 2444POPC   C2B33656  22.486  35.870   8.187
 2444POPC   C3B33657  22.438  35.574   7.837
 2444POPC   C4B33658  22.610  35.551   7.370
 2445POPC   NC333659   9.142  24.266   9.555
 2445POPC   PO433660   8.625  24.061   9.477
 2445POPC   GL133661   8.908  24.198   9.102
 2445POPC   GL233662   9.078  24.541   9.112
 2445POPC   C1A33663   9.124  24.262   8.684
 2445POPC   D2A33664   8.978  24.508   8.326
 2445POPC   C3A33665   9.154  24.501   7.928
 2445POPC   C4A33666   9.069  24.566   7.528
 2445POPC   C1B33667   9.209  24.772   8.710
 2445POPC   C2B33668   9.392  24.832   8.267
 2445POPC   C3B33669   9.522  24.849   7.821
 2445POPC   C4B33670   9.375  24.959   7.394
 2446POPC   NC333671   2.775   9.063   9.369
 2446POPC   PO433672   2.788   9.709   9.472
 2446POPC   GL133673   2.902   9.521   9.091
 2446POPC   GL233674   2.603   9.345   8.994
 2446POPC   C1A33675   2.953   9.317   8.642
 2446POPC   D2A33676   2.766   9.245   8.220
 2446POPC   C3A33677   2.936   9.500   7.884
 2446POPC   C4A33678   3.168   9.486   7.476
 2446POPC   C1B33679   2.635   9.740   8.734
 2446POPC   C2B33680   2.808   9.768   8.336
 2446POPC   C3B33681   2.860  10.004   7.957
 2446POPC   C4B33682   2.557  10.047   7.633
 2447POPC   NC333683   2.846   2.776   9.772
 2447POPC   PO433684   2.340   3.014   9.409
 2447POPC   GL133685   2.520   2.708   9.108
 2447POPC   GL233686   2.846   2.814   9.095
 2447POPC   C1A33687   2.608   2.535   8.679
 2447POPC   D2A33688   2.833   2.559   8.261
 2447POPC   C3A33689   2.625   2.755   7.875
 2447POPC   C4A33690   2.418   2.590   7.486
 2447POPC   C1B33691   2.746   3.023   8.677
 2447POPC   C2B33692   2.884   3.071   8.243
 2447POPC   C3B33693   3.127   2.866   7.900
 2447POPC   C4B33694   3.259   3.052   7.500
 2448POPC   NC333695  43.544  10.259   9.602
 2448POPC   PO433696  44.130  10.107   9.509
 2448POPC   GL133697  43.964  10.269   9.115
 2448POPC   GL233698  43.708  10.531   9.171
 2448POPC   C1A33699  44.170  10.288   8.693
 2448POPC   D2A33700  44.337  10.505   8.313
 2448POPC   C3A33701  44.110  10.550   7.910
 2448POPC   C4A33702  43.746  10.785   7.821
 2448POPC   C1B33703  43.793  10.646   8.720
 2448POPC   C2B33704  43.793  10.424   8.317
 2448POPC   C3B33705  43.592  10.173   7.991
 2448POPC   C4B33706  43.553  10.365   7.577
 2449POPC   NC333707  29.647  40.226   9.513
 2449POPC   PO433708  30.239  39.895   9.434
 2449POPC   GL133709  29.862  39.825   9.200
 2449POPC   GL233710  30.090  39.717   8.941
 2449POPC   C1A33711  29.649  39.974   8.819
 2449POPC   D2A33712  29.853  40.185   8.472
 2449POPC   C3A33713  29.694  40.239   8.053
 2449POPC   C4A33714  29.907  40.481   7.726
 2449POPC   C1B33715  29.946  39.633   8.502
 2449POPC   C2B33716  29.813  39.742   8.079
 2449POPC   C3B33717  30.085  39.984   7.793
 2449POPC   C4B33718  30.043  40.147   7.361
 2450POPC   NC333719  35.583  37.846   9.523
 2450POPC   PO433720  36.304  37.982   9.565
 2450POPC   GL133721  36.288  37.840   9.153
 2450POPC   GL233722  35.985  37.696   9.189
 2450POPC   C1A33723  36.360  37.720   8.760
 2450POPC   D2A33724  36.466  37.528   8.401
 2450POPC   C3A33725  36.388  37.770   8.007
 2450POPC   C4A33726  36.211  37.664   7.611
 2450POPC   C1B33727  35.876  37.613   8.749
 2450POPC   C2B33728  35.959  37.566   8.323
 2450POPC   C3B33729  35.889  37.801   8.000
 2450POPC   C4B33730  35.729  37.827   7.638
 2451POPC   NC333731  19.569   5.698   9.697
 2451POPC   PO433732  19.949   5.989   9.243
 2451POPC   GL133733  19.622   5.923   8.971
 2451POPC   GL233734  19.599   6.246   8.896
 2451POPC   C1A33735  19.625   5.931   8.491
 2451POPC   D2A33736  19.983   5.984   8.171
 2451POPC   C3A33737  19.806   5.757   7.822
 2451POPC   C4A33738  19.470   5.417   7.836
 2451POPC   C1B33739  19.949   6.294   8.630
 2451POPC   C2B33740  19.724   6.415   8.271
 2451POPC   C3B33741  19.643   6.423   7.832
 2451POPC   C4B33742  19.648   6.168   7.444
 2452POPC   NC333743  24.314  26.334   9.600
 2452POPC   PO433744  24.588  25.770   9.488
 2452POPC   GL133745  24.479  26.086   9.170
 2452POPC   GL233746  24.789  26.259   9.102
 2452POPC   C1A33747  24.226  26.056   8.763
 2452POPC   D2A33748  24.123  25.885   8.334
 2452POPC   C3A33749  24.381  25.764   7.975
 2452POPC   C4A33750  24.533  25.920   7.587
 2452POPC   C1B33751  24.675  26.280   8.718
 2452POPC   C2B33752  24.421  26.346   8.346
 2452POPC   C3B33753  24.432  26.301   7.932
 2452POPC   C4B33754  24.759  26.394   7.620
 2453POPC   NC333755   8.851  40.611   9.397
 2453POPC   PO433756   9.114  39.869   9.474
 2453POPC   GL133757   8.868  40.115   9.183
 2453POPC   GL233758   9.161  40.281   9.113
 2453POPC   C1A33759   8.665  40.038   8.783
 2453POPC   D2A33760   8.499  40.126   8.372
 2453POPC   C3A33761   8.581  39.952   7.925
 2453POPC   C4A33762   8.726  40.033   7.446
 2453POPC   C1B33763   9.160  39.922   8.792
 2453POPC   C2B33764   8.936  39.833   8.420
 2453POPC   C3B33765   9.069  39.872   8.060
 2453POPC   C4B33766   9.060  39.722   7.684
 2454POPC   NC333767  43.844  21.652   9.598
 2454POPC   PO433768  43.866  20.972   9.594
 2454POPC   GL133769  43.884  21.291   9.228
 2454POPC   GL233770  43.641  21.578   9.152
 2454POPC   C1A33771  43.827  21.256   8.774
 2454POPC   D2A33772  44.053  21.257   8.384
 2454POPC   C3A33773  43.852  21.279   7.989
 2454POPC   C4A33774  44.076  21.408   7.653
 2454POPC   C1B33775  43.640  21.746   8.774
 2454POPC   C2B33776  43.618  21.552   8.385
 2454POPC   C3B33777  43.421  21.599   8.016
 2454POPC   C4B33778  43.631  21.667   7.666
 2455POPC   NC333779  31.973  36.257   9.491
 2455POPC   PO433780  32.668  36.377   9.394
 2455POPC   GL133781  32.327  36.324   9.105
 2455POPC   GL233782  32.120  36.041   9.052
 2455POPC   C1A33783  32.185  36.327   8.665
 2455POPC   D2A33784  31.998  36.549   8.369
 2455POPC   C3A33785  32.145  36.317   8.074
 2455POPC   C4A33786  32.250  36.263   7.696
 2455POPC   C1B33787  32.111  35.727   8.754
 2455POPC   C2B33788  31.934  35.745   8.376
 2455POPC   C3B33789  32.080  35.820   7.984
 2455POPC   C4B33790  32.310  35.767   7.629
 2456POPC   NC333791  36.270  16.256   9.241
 2456POPC   PO433792  36.016  16.729   9.673
 2456POPC   GL133793  36.223  16.862   9.302
 2456POPC   GL233794  35.896  16.859   9.167
 2456POPC   C1A33795  36.281  16.967   8.840
 2456POPC   D2A33796  36.324  16.707   8.459
 2456POPC   C3A33797  36.293  16.835   8.028
 2456POPC   C4A33798  36.161  16.777   7.584
 2456POPC   C1B33799  35.916  16.601   8.767
 2456POPC   C2B33800  35.828  16.588   8.317
 2456POPC   C3B33801  35.769  16.753   7.926
 2456POPC   C4B33802  35.691  16.672   7.481
 2457POPC   NC333803   2.678  20.111   9.429
 2457POPC   PO433804   2.316  19.607   9.173
 2457POPC   GL133805   2.754  19.522   9.027
 2457POPC   GL233806   2.946  19.816   9.051
 2457POPC   C1A33807   2.925  19.559   8.618
 2457POPC   D2A33808   2.669  19.729   8.328
 2457POPC   C3A33809   2.859  19.665   7.977
 2457POPC   C4A33810   2.779  19.734   7.551
 2457POPC   C1B33811   2.723  20.059   8.737
 2457POPC   C2B33812   2.535  20.216   8.333
 2457POPC   C3B33813   2.606  20.096   7.871
 2457POPC   C4B33814   2.501  20.121   7.355
 2458POPC   NC333815  33.325  12.601   9.657
 2458POPC   PO433816  33.760  13.106   9.474
 2458POPC   GL133817  33.733  12.991   9.073
 2458POPC   GL233818  33.554  12.672   9.090
 2458POPC   C1A33819  33.954  12.878   8.732
 2458POPC   D2A33820  33.796  13.013   8.353
 2458POPC   C3A33821  34.069  12.856   8.048
 2458POPC   C4A33822  33.963  13.096   7.735
 2458POPC   C1B33823  33.447  12.766   8.648
 2458POPC   C2B33824  33.363  12.747   8.195
 2458POPC   C3B33825  33.581  12.727   7.789
 2458POPC   C4B33826  33.504  12.467   7.423
 2459POPC   NC333827   0.971   4.868   9.646
 2459POPC   PO433828   1.421   5.372   9.420
 2459POPC   GL133829   1.256   5.078   9.143
 2459POPC   GL233830   0.928   5.175   9.254
 2459POPC   C1A33831   1.398   4.967   8.722
 2459POPC   D2A33832   1.305   5.099   8.308
 2459POPC   C3A33833   1.447   4.880   7.970
 2459POPC   C4A33834   1.637   5.108   7.620
 2459POPC   C1B33835   0.831   5.162   8.841
 2459POPC   C2B33836   0.772   5.170   8.418
 2459POPC   C3B33837   0.895   4.995   8.019
 2459POPC   C4B33838   1.139   5.144   7.688
 2460POPC   NC333839  23.694  38.754   9.417
 2460POPC   PO433840  23.826  38.148   9.543
 2460POPC   GL133841  23.827  38.346   9.135
 2460POPC   GL233842  24.109  38.586   9.116
 2460POPC   C1A33843  23.850  38.294   8.694
 2460POPC   D2A33844  23.600  38.592   8.427
 2460POPC   C3A33845  23.482  38.515   8.013
 2460POPC   C4A33846  23.818  38.379   7.784
 2460POPC   C1B33847  23.929  38.806   8.764
 2460POPC   C2B33848  23.970  38.931   8.320
 2460POPC   C3B33849  23.838  38.884   7.841
 2460POPC   C4B33850  23.836  38.720   7.397
 2461POPC   NC333851  40.641  28.866   9.603
 2461POPC   PO433852  40.954  29.416   9.347
 2461POPC   GL133853  41.083  29.116   9.068
 2461POPC   GL233854  40.717  29.123   8.983
 2461POPC   C1A33855  41.085  29.050   8.628
 2461POPC   D2A33856  40.741  29.108   8.409
 2461POPC   C3A33857  40.880  29.023   8.044
 2461POPC   C4A33858  40.607  29.073   7.772
 2461POPC   C1B33859  40.827  29.496   8.739
 2461POPC   C2B33860  41.004  29.566   8.371
 2461POPC   C3B33861  40.767  29.520   8.004
 2461POPC   C4B33862  40.869  29.535   7.585
 2462POPC   NC333863  42.779   4.801   9.522
 2462POPC   PO433864  43.425   4.882   9.529
 2462POPC   GL133865  43.244   4.949   9.145
 2462POPC   GL233866  43.221   5.316   9.168
 2462POPC   C1A33867  43.272   4.787   8.711
 2462POPC   D2A33868  43.235   4.621   8.290
 2462POPC   C3A33869  43.458   4.811   7.932
 2462POPC   C4A33870  43.278   4.852   7.516
 2462POPC   C1B33871  43.298   5.310   8.730
 2462POPC   C2B33872  43.298   5.157   8.303
 2462POPC   C3B33873  43.124   5.202   7.871
 2462POPC   C4B33874  43.058   5.297   7.433
 2463POPC   NC333875  38.000  31.683   9.625
 2463POPC   PO433876  37.699  31.096   9.477
 2463POPC   GL133877  37.758  31.435   9.221
 2463POPC   GL233878  37.593  31.249   8.951
 2463POPC   C1A33879  37.867  31.670   8.850
 2463POPC   D2A33880  37.735  31.478   8.468
 2463POPC   C3A33881  37.688  31.697   8.070
 2463POPC   C4A33882  37.558  31.527   7.651
 2463POPC   C1B33883  38.010  31.143   8.856
 2463POPC   C2B33884  38.240  31.318   8.527
 2463POPC   C3B33885  38.066  31.346   8.106
 2463POPC   C4B33886  37.901  31.148   7.752
 2464POPC   NC333887   8.511  34.364   9.217
 2464POPC   PO433888   7.975  34.700   9.584
 2464POPC   GL133889   8.113  34.655   9.196
 2464POPC   GL233890   8.338  34.906   9.219
 2464POPC   C1A33891   7.978  34.391   8.830
 2464POPC   D2A33892   8.221  34.313   8.457
 2464POPC   C3A33893   7.991  34.292   8.093
 2464POPC   C4A33894   7.790  34.360   7.740
 2464POPC   C1B33895   8.327  34.821   8.757
 2464POPC   C2B33896   8.555  34.817   8.386
 2464POPC   C3B33897   8.516  34.548   8.051
 2464POPC   C4B33898   8.213  34.624   7.764
 2465POPC   NC333899  16.201   4.141   9.912
 2465POPC   PO433900  15.601   3.924   9.697
 2465POPC   GL133901  15.928   3.924   9.308
 2465POPC   GL233902  15.706   3.935   9.015
 2465POPC   C1A33903  16.185   4.047   8.883
 2465POPC   D2A33904  15.948   4.293   8.525
 2465POPC   C3A33905  16.011   4.363   8.058
 2465POPC   C4A33906  16.072   4.052   7.705
 2465POPC   C1B33907  15.848   3.790   8.607
 2465POPC   C2B33908  15.910   3.876   8.182
 2465POPC   C3B33909  15.610   4.056   7.910
 2465POPC   C4B33910  15.511   4.469   7.759
 2466POPC   NC333911  29.253  27.856   9.689
 2466POPC   PO433912  28.851  27.652   9.240
 2466POPC   GL133913  29.160  27.858   9.017
 2466POPC   GL233914  29.312  27.548   9.006
 2466POPC   C1A33915  29.204  27.830   8.570
 2466POPC   D2A33916  29.237  27.518   8.230
 2466POPC   C3A33917  29.333  27.665   7.806
 2466POPC   C4A33918  29.042  27.669   7.454
 2466POPC   C1B33919  28.977  27.373   8.667
 2466POPC   C2B33920  28.810  27.216   8.248
 2466POPC   C3B33921  28.917  27.316   7.790
 2466POPC   C4B33922  28.907  27.217   7.283
 2467POPC   NC333923  38.016  19.127   9.535
 2467POPC   PO433924  37.321  18.990   9.526
 2467POPC   GL133925  37.614  18.903   9.215
 2467POPC   GL233926  37.651  19.240   9.159
 2467POPC   C1A33927  37.640  18.741   8.799
 2467POPC   D2A33928  37.721  18.980   8.408
 2467POPC   C3A33929  37.508  18.933   8.017
 2467POPC   C4A33930  37.813  18.824   7.734
 2467POPC   C1B33931  37.946  19.209   8.828
 2467POPC   C2B33932  38.198  19.305   8.488
 2467POPC   C3B33933  38.108  19.292   8.067
 2467POPC   C4B33934  37.830  19.327   7.754
 2468POPC   NC333935  37.920  23.274   9.652
 2468POPC   PO433936  37.568  22.731   9.521
 2468POPC   GL133937  37.857  22.881   9.242
 2468POPC   GL233938  37.667  23.164   9.217
 2468POPC   C1A33939  37.987  22.887   8.800
 2468POPC   D2A33940  37.935  22.612   8.420
 2468POPC   C3A33941  37.888  22.768   8.038
 2468POPC   C4A33942  38.097  23.011   7.768
 2468POPC   C1B33943  37.474  22.871   8.881
 2468POPC   C2B33944  37.457  22.858   8.434
 2468POPC   C3B33945  37.379  22.718   8.014
 2468POPC   C4B33946  37.571  22.863   7.625
 2469POPC   NC333947  35.398  36.243   9.392
 2469POPC   PO433948  35.540  35.619   9.536
 2469POPC   GL133949  35.468  35.811   9.141
 2469POPC   GL233950  35.747  36.018   9.088
 2469POPC   C1A33951  35.234  35.958   8.772
 2469POPC   D2A33952  35.015  35.830   8.384
 2469POPC   C3A33953  35.235  35.978   8.025
 2469POPC   C4A33954  35.286  36.258   7.673
 2469POPC   C1B33955  35.681  36.292   8.737
 2469POPC   C2B33956  35.519  36.262   8.334
 2469POPC   C3B33957  35.690  36.434   7.964
 2469POPC   C4B33958  35.783  36.320   7.530
 2470POPC   NC333959   0.012  35.134   9.475
 2470POPC   PO433960  44.578  34.565   9.594
 2470POPC   GL133961  44.816  34.706   9.218
 2470POPC   GL233962  44.716  34.391   9.113
 2470POPC   C1A33963  44.957  34.660   8.763
 2470POPC   D2A33964  44.667  34.529   8.427
 2470POPC   C3A33965  44.700  34.701   8.020
 2470POPC   C4A33966  44.966  34.555   7.719
 2470POPC   C1B33967  44.395  34.254   8.849
 2470POPC   C2B33968  44.251  34.197   8.430
 2470POPC   C3B33969  44.403  34.285   8.040
 2470POPC   C4B33970  44.335  34.308   7.607
 2471POPC   NC333971  38.822  22.843   9.665
 2471POPC   PO433972  38.339  23.233   9.844
 2471POPC   GL133973  38.350  23.064   9.385
 2471POPC   GL233974  38.339  22.688   9.256
 2471POPC   C1A33975  38.441  23.113   8.920
 2471POPC   D2A33976  38.617  23.240   8.499
 2471POPC   C3A33977  38.498  23.169   8.045
 2471POPC   C4A33978  38.726  23.158   7.620
 2471POPC   C1B33979  38.405  22.579   8.800
 2471POPC   C2B33980  38.411  22.775   8.400
 2471POPC   C3B33981  38.381  22.608   7.991
 2471POPC   C4B33982  38.491  22.726   7.603
 2472POPC   NC333983  39.661  18.778   9.424
 2472POPC   PO433984  39.509  19.379   9.320
 2472POPC   GL133985  39.758  19.143   9.034
 2472POPC   GL233986  40.105  19.097   9.098
 2472POPC   C1A33987  39.822  18.967   8.625
 2472POPC   D2A33988  39.744  18.790   8.222
 2472POPC   C3A33989  39.897  19.046   7.913
 2472POPC   C4A33990  40.014  18.979   7.516
 2472POPC   C1B33991  40.289  18.832   8.796
 2472POPC   C2B33992  40.128  18.568   8.491
 2472POPC   C3B33993  40.235  18.691   8.085
 2472POPC   C4B33994  40.300  18.598   7.665
 2473POPC   NC333995  34.540  22.700   9.573
 2473POPC   PO433996  34.750  23.232   9.274
 2473POPC   GL133997  34.680  22.834   9.098
 2473POPC   GL233998  34.333  22.812   9.114
 2473POPC   C1A33999  34.583  22.702   8.685
 2473POPC   D2A34000  34.753  22.890   8.324
 2473POPC   C3A34001  34.712  22.722   7.929
 2473POPC   C4A34002  34.940  22.996   7.667
 2473POPC   C1B34003  34.195  23.075   8.755
 2473POPC   C2B34004  34.407  23.265   8.387
 2473POPC   C3B34005  34.505  23.225   7.934
 2473POPC   C4B34006  34.132  23.279   7.662
 2474POPC   NC334007  18.369  21.827   9.423
 2474POPC   PO434008  17.932  22.299   9.559
 2474POPC   GL134009  18.080  22.243   9.167
 2474POPC   GL234010  17.949  21.921   9.110
 2474POPC   C1A34011  17.908  22.321   8.751
 2474POPC   D2A34012  17.723  22.233   8.378
 2474POPC   C3A34013  17.983  22.295   8.019
 2474POPC   C4A34014  18.279  22.245   7.673
 2474POPC   C1B34015  18.282  21.970   8.778
 2474POPC   C2B34016  18.321  22.021   8.314
 2474POPC   C3B34017  18.300  21.796   7.903
 2474POPC   C4B34018  18.257  21.758   7.436
 2475POPC   NC334019  25.969   4.111   9.587
 2475POPC   PO434020  26.074   4.769   9.526
 2475POPC   GL134021  26.066   4.482   9.195
 2475POPC   GL234022  25.747   4.380   9.182
 2475POPC   C1A34023  26.038   4.184   8.837
 2475POPC   D2A34024  26.196   4.139   8.450
 2475POPC   C3A34025  26.007   4.226   8.082
 2475POPC   C4A34026  26.098   4.454   7.739
 2475POPC   C1B34027  25.735   4.620   8.811
 2475POPC   C2B34028  25.675   4.525   8.397
 2475POPC   C3B34029  25.744   4.696   8.007
 2475POPC   C4B34030  25.581   4.572   7.634
 2476POPC   NC334031  42.268  15.714   9.722
 2476POPC   PO434032  42.413  16.360   9.522
 2476POPC   GL134033  42.590  16.051   9.194
 2476POPC   GL234034  42.395  15.803   9.147
 2476POPC   C1A34035  42.668  15.914   8.755
 2476POPC   D2A34036  42.388  15.929   8.414
 2476POPC   C3A34037  42.546  15.949   8.028
 2476POPC   C4A34038  42.418  16.024   7.667
 2476POPC   C1B34039  42.239  15.610   8.779
 2476POPC   C2B34040  42.201  15.437   8.356
 2476POPC   C3B34041  42.158  15.637   7.954
 2476POPC   C4B34042  41.932  15.935   7.675
 2477POPC   NC334043  11.079  22.850   9.493
 2477POPC   PO434044  11.713  22.512   9.560
 2477POPC   GL134045  11.509  22.714   9.225
 2477POPC   GL234046  11.666  23.009   9.073
 2477POPC   C1A34047  11.277  22.753   8.836
 2477POPC   D2A34048  11.123  22.748   8.429
 2477POPC   C3A34049  11.369  22.896   8.092
 2477POPC   C4A34050  11.460  22.832   7.676
 2477POPC   C1B34051  11.691  23.306   8.715
 2477POPC   C2B34052  11.531  23.350   8.291
 2477POPC   C3B34053  11.513  23.336   7.818
 2477POPC   C4B34054  11.604  23.662   7.468
 2478POPC   NC334055  21.650  30.548   9.584
 2478POPC   PO434056  21.254  31.106   9.610
 2478POPC   GL134057  21.305  30.766   9.237
 2478POPC   GL234058  21.597  30.602   9.059
 2478POPC   C1A34059  21.159  30.599   8.804
 2478POPC   D2A34060  21.163  30.412   8.402
 2478POPC   C3A34061  21.301  30.558   8.046
 2478POPC   C4A34062  21.029  30.709   7.728
 2478POPC   C1B34063  21.631  30.594   8.579
 2478POPC   C2B34064  21.822  30.456   8.218
 2478POPC   C3B34065  21.775  30.757   7.915
 2478POPC   C4B34066  21.553  30.608   7.598
 2479POPC   NC334067  39.770  16.767  10.024
 2479POPC   PO434068  40.137  16.780   9.494
 2479POPC   GL134069  39.923  16.636   9.161
 2479POPC   GL234070  40.221  16.572   9.011
 2479POPC   C1A34071  39.784  16.739   8.744
 2479POPC   D2A34072  40.026  16.925   8.407
 2479POPC   C3A34073  39.842  16.959   7.984
 2479POPC   C4A34074  40.154  16.973   7.674
 2479POPC   C1B34075  40.046  16.307   8.715
 2479POPC   C2B34076  39.956  16.428   8.327
 2479POPC   C3B34077  40.152  16.560   7.993
 2479POPC   C4B34078  39.933  16.487   7.636
 2480POPC   NC334079  24.455   3.694   9.574
 2480POPC   PO434080  25.056   3.431   9.532
 2480POPC   GL134081  24.775   3.648   9.170
 2480POPC   GL234082  24.491   3.441   9.123
 2480POPC   C1A34083  24.808   3.567   8.723
 2480POPC   D2A34084  24.942   3.532   8.290
 2480POPC   C3A34085  24.622   3.387   8.005
 2480POPC   C4A34086  24.503   3.587   7.649
 2480POPC   C1B34087  24.289   3.507   8.737
 2480POPC   C2B34088  24.194   3.523   8.303
 2480POPC   C3B34089  24.235   3.844   7.988
 2480POPC   C4B34090  24.080   3.840   7.557
 2481POPC   NC334091  22.736   7.151   9.588
 2481POPC   PO434092  23.182   7.726   9.593
 2481POPC   GL134093  23.196   7.430   9.219
 2481POPC   GL234094  22.991   7.133   9.130
 2481POPC   C1A34095  23.216   7.448   8.757
 2481POPC   D2A34096  23.138   7.216   8.380
 2481POPC   C3A34097  22.813   7.372   8.100
 2481POPC   C4A34098  22.725   7.614   7.758
 2481POPC   C1B34099  22.737   7.229   8.737
 2481POPC   C2B34100  22.539   7.021   8.365
 2481POPC   C3B34101  22.572   6.976   7.888
 2481POPC   C4B34102  22.462   7.261   7.519
 2482POPC   NC334103  27.322  15.494   9.540
 2482POPC   PO434104  26.645  15.230   9.460
 2482POPC   GL134105  26.821  15.408   9.131
 2482POPC   GL234106  27.120  15.207   9.133
 2482POPC   C1A34107  26.675  15.197   8.770
 2482POPC   D2A34108  26.402  14.974   8.481
 2482POPC   C3A34109  26.485  15.178   8.101
 2482POPC   C4A34110  26.711  15.241   7.729
 2482POPC   C1B34111  27.132  14.960   8.761
 2482POPC   C2B34112  26.923  15.012   8.345
 2482POPC   C3B34113  27.128  15.067   7.948
 2482POPC   C4B34114  27.186  15.488   7.765
 2483POPC   NC334115  31.969  27.904   9.790
 2483POPC   PO434116  32.384  28.338   9.501
 2483POPC   GL134117  32.033  28.343   9.212
 2483POPC   GL234118  31.970  28.698   9.122
 2483POPC   C1A34119  31.935  28.221   8.757
 2483POPC   D2A34120  32.099  27.916   8.443
 2483POPC   C3A34121  32.183  28.091   8.048
 2483POPC   C4A34122  32.477  28.023   7.711
 2483POPC   C1B34123  32.355  28.534   8.850
 2483POPC   C2B34124  32.408  28.400   8.414
 2483POPC   C3B34125  32.414  28.537   7.953
 2483POPC   C4B34126  32.276  28.470   7.518
 2484POPC   NC334127  12.813  30.429   9.462
 2484POPC   PO434128  13.031  31.046   9.300
 2484POPC   GL134129  12.698  30.819   9.079
 2484POPC   GL234130  12.872  30.561   8.991
 2484POPC   C1A34131  12.559  30.775   8.641
 2484POPC   D2A34132  12.762  30.873   8.241
 2484POPC   C3A34133  12.670  30.590   7.918
 2484POPC   C4A34134  12.699  30.651   7.435
 2484POPC   C1B34135  13.091  30.715   8.660
 2484POPC   C2B34136  13.409  30.481   8.419
 2484POPC   C3B34137  13.287  30.371   7.991
 2484POPC   C4B34138  13.113  30.734   7.738
 2485POPC   NC334139  39.368   2.331   9.523
 2485POPC   PO434140  39.026   1.765   9.511
 2485POPC   GL134141  39.263   1.922   9.186
 2485POPC   GL234142  39.161   2.244   9.064
 2485POPC   C1A34143  39.415   1.883   8.774
 2485POPC   D2A34144  39.309   1.713   8.377
 2485POPC   C3A34145  39.417   1.943   8.012
 2485POPC   C4A34146  39.395   1.785   7.629
 2485POPC   C1B34147  39.003   2.492   8.737
 2485POPC   C2B34148  38.897   2.351   8.340
 2485POPC   C3B34149  38.920   2.137   7.976
 2485POPC   C4B34150  39.139   2.242   7.637
 2486POPC   NC334151  24.172  15.411   9.578
 2486POPC   PO434152  24.318  16.097   9.527
 2486POPC   GL134153  24.501  16.063   9.148
 2486POPC   GL234154  24.859  16.172   9.183
 2486POPC   C1A34155  24.364  16.232   8.746
 2486POPC   D2A34156  24.494  16.163   8.311
 2486POPC   C3A34157  24.364  16.176   7.874
 2486POPC   C4A34158  24.441  15.795   7.642
 2486POPC   C1B34159  24.813  15.967   8.773
 2486POPC   C2B34160  24.956  15.946   8.367
 2486POPC   C3B34161  24.868  16.159   7.963
 2486POPC   C4B34162  24.750  16.188   7.502
 2487POPC   NC334163  35.546  43.463   9.413
 2487POPC   PO434164  35.437  42.851   9.560
 2487POPC   GL134165  35.315  43.025   9.182
 2487POPC   GL234166  35.331  42.747   8.974
 2487POPC   C1A34167  35.239  43.233   8.779
 2487POPC   D2A34168  35.503  43.261   8.410
 2487POPC   C3A34169  35.331  43.253   8.017
 2487POPC   C4A34170  35.572  43.246   7.633
 2487POPC   C1B34171  35.356  42.788   8.546
 2487POPC   C2B34172  35.014  42.955   8.294
 2487POPC   C3B34173  34.912  42.736   7.907
 2487POPC   C4B34174  35.301  42.821   7.739
 2488POPC   NC334175  27.823   8.429   9.830
 2488POPC   PO434176  27.354   8.524   9.410
 2488POPC   GL134177  27.398   8.303   9.056
 2488POPC   GL234178  27.540   8.043   9.225
 2488POPC   C1A34179  27.475   8.283   8.616
 2488POPC   D2A34180  27.820   8.233   8.339
 2488POPC   C3A34181  27.683   8.294   7.940
 2488POPC   C4A34182  27.828   8.205   7.547
 2488POPC   C1B34183  27.363   7.826   8.840
 2488POPC   C2B34184  27.244   7.812   8.395
 2488POPC   C3B34185  27.397   7.810   7.976
 2488POPC   C4B34186  27.339   8.075   7.626
 2489POPC   NC334187  32.122  32.050   9.347
 2489POPC   PO434188  32.705  32.099   9.478
 2489POPC   GL134189  32.535  32.250   9.105
 2489POPC   GL234190  32.340  31.967   8.904
 2489POPC   C1A34191  32.693  32.287   8.722
 2489POPC   D2A34192  32.454  32.164   8.385
 2489POPC   C3A34193  32.504  32.368   8.029
 2489POPC   C4A34194  32.382  32.153   7.685
 2489POPC   C1B34195  32.153  32.370   8.753
 2489POPC   C2B34196  32.200  32.627   8.381
 2489POPC   C3B34197  32.015  32.694   7.947
 2489POPC   C4B34198  31.959  32.456   7.544
 2490POPC   NC334199  15.651  44.240   9.539
 2490POPC   PO434200  15.767  43.511   9.512
 2490POPC   GL134201  15.917  43.672   9.131
 2490POPC   GL234202  15.637  43.932   9.122
 2490POPC   C1A34203  15.911  43.881   8.706
 2490POPC   D2A34204  15.720  43.894   8.340
 2490POPC   C3A34205  15.964  43.822   7.998
 2490POPC   C4A34206  15.869  43.559   7.662
 2490POPC   C1B34207  15.451  44.128   8.747
 2490POPC   C2B34208  15.470  44.327   8.339
 2490POPC   C3B34209  15.658  44.242   7.938
 2490POPC   C4B34210  15.934  44.091   7.584
 2491POPC   NC334211  20.267  12.062   9.605
 2491POPC   PO434212  20.858  12.390   9.415
 2491POPC   GL134213  20.530  12.115   9.175
 2491POPC   GL234214  20.175  12.147   9.095
 2491POPC   C1A34215  20.464  11.868   8.793
 2491POPC   D2A34216  20.552  12.106   8.403
 2491POPC   C3A34217  20.403  12.014   7.998
 2491POPC   C4A34218  20.702  11.925   7.658
 2491POPC   C1B34219  20.395  12.425   8.794
 2491POPC   C2B34220  20.590  12.616   8.409
 2491POPC   C3B34221  20.718  12.450   8.004
 2491POPC   C4B34222  20.489  12.406   7.640
 2492POPC   NC334223   7.915  16.760   9.592
 2492POPC   PO434224   8.586  16.603   9.585
 2492POPC   GL134225   8.279  16.593   9.247
 2492POPC   GL234226   8.226  16.921   9.114
 2492POPC   C1A34227   8.104  16.519   8.835
 2492POPC   D2A34228   7.905  16.587   8.474
 2492POPC   C3A34229   8.094  16.511   8.034
 2492POPC   C4A34230   8.028  16.376   7.599
 2492POPC   C1B34231   8.284  17.133   8.715
 2492POPC   C2B34232   8.216  16.943   8.314
 2492POPC   C3B34233   8.098  17.047   7.878
 2492POPC   C4B34234   8.211  17.052   7.419
 2493POPC   NC334235  11.409  22.131   9.555
 2493POPC   PO434236  10.896  22.451   9.337
 2493POPC   GL134237  11.219  22.292   9.078
 2493POPC   GL234238  11.409  21.975   9.072
 2493POPC   C1A34239  11.279  22.212   8.651
 2493POPC   D2A34240  11.129  22.248   8.275
 2493POPC   C3A34241  11.301  22.394   7.915
 2493POPC   C4A34242  11.000  22.223   7.659
 2493POPC   C1B34243  11.728  21.931   8.749
 2493POPC   C2B34244  11.610  21.948   8.324
 2493POPC   C3B34245  11.661  22.060   7.933
 2493POPC   C4B34246  11.490  22.005   7.514
 2494POPC   NC334247  34.643  21.962   9.417
 2494POPC   PO434248  34.228  22.394   9.435
 2494POPC   GL134249  34.437  22.289   9.081
 2494POPC   GL234250  34.326  21.913   9.034
 2494POPC   C1A34251  34.706  22.196   8.732
 2494POPC   D2A34252  34.894  22.404   8.372
 2494POPC   C3A34253  34.781  22.216   8.009
 2494POPC   C4A34254  34.588  22.064   7.673
 2494POPC   C1B34255  34.428  21.764   8.614
 2494POPC   C2B34256  34.372  21.849   8.155
 2494POPC   C3B34257  34.303  21.665   7.732
 2494POPC   C4B34258  34.570  21.672   7.353
 2495POPC   NC334259   8.421  36.359   9.409
 2495POPC   PO434260   7.809  36.139   9.425
 2495POPC   GL134261   8.081  36.095   9.112
 2495POPC   GL234262   8.410  35.915   9.181
 2495POPC   C1A34263   7.958  36.169   8.699
 2495POPC   D2A34264   7.775  36.079   8.317
 2495POPC   C3A34265   7.972  36.269   7.974
 2495POPC   C4A34266   8.396  36.215   7.878
 2495POPC   C1B34267   8.437  36.010   8.760
 2495POPC   C2B34268   8.285  35.922   8.346
 2495POPC   C3B34269   8.577  35.775   8.017
 2495POPC   C4B34270   8.485  35.789   7.587
 2496POPC   NC334271   2.071  24.197   9.509
 2496POPC   PO434272   1.676  24.798   9.460
 2496POPC   GL134273   1.978  24.576   9.125
 2496POPC   GL234274   1.997  24.217   9.014
 2496POPC   C1A34275   2.131  24.621   8.678
 2496POPC   D2A34276   2.443  24.760   8.378
 2496POPC   C3A34277   2.198  24.813   7.990
 2496POPC   C4A34278   1.949  24.840   7.630
 2496POPC   C1B34279   1.820  24.203   8.626
 2496POPC   C2B34280   1.798  24.420   8.238
 2496POPC   C3B34281   1.811  24.333   7.799
 2496POPC   C4B34282   1.678  24.142   7.382
 2497POPC   NC334283  13.332  40.482   9.542
 2497POPC   PO434284  12.655  40.860   9.543
 2497POPC   GL134285  12.470  40.867   9.156
 2497POPC   GL234286  12.779  40.969   9.010
 2497POPC   C1A34287  12.380  40.863   8.705
 2497POPC   D2A34288  12.706  40.997   8.453
 2497POPC   C3A34289  12.671  40.807   8.077
 2497POPC   C4A34290  12.608  40.900   7.675
 2497POPC   C1B34291  12.949  40.617   8.747
 2497POPC   C2B34292  13.054  40.549   8.302
 2497POPC   C3B34293  13.153  40.743   7.901
 2497POPC   C4B34294  13.072  40.902   7.489
 2498POPC   NC334295  27.711   6.824   9.455
 2498POPC   PO434296  27.675   6.288   9.824
 2498POPC   GL134297  27.507   6.376   9.303
 2498POPC   GL234298  27.741   6.593   9.010
 2498POPC   C1A34299  27.333   6.364   8.835
 2498POPC   D2A34300  27.574   6.585   8.513
 2498POPC   C3A34301  27.429   6.613   8.096
 2498POPC   C4A34302  27.455   6.924   7.806
 2498POPC   C1B34303  28.054   6.401   8.701
 2498POPC   C2B34304  28.021   6.385   8.247
 2498POPC   C3B34305  27.934   6.721   7.935
 2498POPC   C4B34306  27.779   6.695   7.499
 2499POPC   NC334307  13.772  10.775   9.437
 2499POPC   PO434308  13.344  10.375   9.621
 2499POPC   GL134309  13.409  10.600   9.143
 2499POPC   GL234310  13.697  10.605   8.939
 2499POPC   C1A34311  13.297  10.847   8.754
 2499POPC   D2A34312  13.210  10.791   8.292
 2499POPC   C3A34313  13.523  10.662   7.980
 2499POPC   C4A34314  13.518  10.565   7.539
 2499POPC   C1B34315  13.588  10.485   8.510
 2499POPC   C2B34316  13.553  10.171   8.171
 2499POPC   C3B34317  13.676  10.151   7.745
 2499POPC   C4B34318  13.532  10.156   7.267
 2500POPC   NC334319   5.551  40.229   9.649
 2500POPC   PO434320   5.024  39.813   9.480
 2500POPC   GL134321   5.174  40.062   9.138
 2500POPC   GL234322   4.894  40.209   9.030
 2500POPC   C1A34323   5.231  40.135   8.666
 2500POPC   D2A34324   5.291  39.776   8.377
 2500POPC   C3A34325   5.071  39.855   8.009
 2500POPC   C4A34326   4.768  40.117   7.845
 2500POPC   C1B34327   4.875  39.798   8.810
 2500POPC   C2B34328   4.785  39.635   8.391
 2500POPC   C3B34329   4.589  39.630   7.976
 2500POPC   C4B34330   4.832  39.673   7.570
 2501POPC   NC334331  13.144  36.757   9.567
 2501POPC   PO434332  13.849  36.856   9.592
 2501POPC   GL134333  13.588  36.816   9.235
 2501POPC   GL234334  13.795  36.542   9.128
 2501POPC   C1A34335  13.417  37.055   8.867
 2501POPC   D2A34336  13.358  36.917   8.431
 2501POPC   C3A34337  13.491  37.031   7.993
 2501POPC   C4A34338  13.779  36.787   7.696
 2501POPC   C1B34339  13.759  36.699   8.700
 2501POPC   C2B34340  13.791  36.676   8.258
 2501POPC   C3B34341  14.093  36.536   7.990
 2501POPC   C4B34342  14.304  36.710   7.620
 2502POPC   NC334343   8.692   8.718   9.525
 2502POPC   PO434344   9.326   8.955   9.590
 2502POPC   GL134345   9.114   8.951   9.197
 2502POPC   GL234346   8.758   9.053   9.145
 2502POPC   C1A34347   9.135   9.007   8.762
 2502POPC   D2A34348   8.978   9.153   8.384
 2502POPC   C3A34349   9.280   9.063   8.053
 2502POPC   C4A34350   9.292   9.249   7.634
 2502POPC   C1B34351   8.745   8.685   8.836
 2502POPC   C2B34352   8.917   8.657   8.405
 2502POPC   C3B34353   8.818   8.850   7.970
 2502POPC   C4B34354   8.458   9.057   7.791
 2503POPC   NC334355  35.196  38.768   9.509
 2503POPC   PO434356  35.168  39.466   9.554
 2503POPC   GL134357  35.389  39.250   9.235
 2503POPC   GL234358  35.180  39.008   9.062
 2503POPC   C1A34359  35.582  39.193   8.827
 2503POPC   D2A34360  35.350  39.109   8.422
 2503POPC   C3A34361  35.523  39.277   8.031
 2503POPC   C4A34362  35.655  39.164   7.639
 2503POPC   C1B34363  35.107  39.401   8.801
 2503POPC   C2B34364  34.872  39.618   8.483
 2503POPC   C3B34365  34.944  39.594   8.039
 2503POPC   C4B34366  35.151  39.392   7.651
 2504POPC   NC334367  36.728  21.912   9.458
 2504POPC   PO434368  37.160  22.344   9.618
 2504POPC   GL134369  36.937  22.307   9.191
 2504POPC   GL234370  36.697  22.583   9.162
 2504POPC   C1A34371  36.815  22.005   8.822
 2504POPC   D2A34372  36.629  21.742   8.480
 2504POPC   C3A34373  36.786  21.824   8.070
 2504POPC   C4A34374  36.671  21.948   7.652
 2504POPC   C1B34375  36.502  22.408   8.788
 2504POPC   C2B34376  36.659  22.250   8.383
 2504POPC   C3B34377  36.546  22.316   7.973
 2504POPC   C4B34378  36.792  22.459   7.640
 2505POPC   NC334379  11.485   8.309   9.514
 2505POPC   PO434380  10.920   7.945   9.604
 2505POPC   GL134381  11.041   8.217   9.237
 2505POPC   GL234382  10.894   7.983   9.067
 2505POPC   C1A34383  11.306   8.389   8.852
 2505POPC   D2A34384  11.531   8.346   8.426
 2505POPC   C3A34385  11.345   8.471   8.030
 2505POPC   C4A34386  11.552   8.661   7.706
 2505POPC   C1B34387  10.995   7.990   8.678
 2505POPC   C2B34388  11.040   8.194   8.325
 2505POPC   C3B34389  10.874   8.148   7.931
 2505POPC   C4B34390  11.049   8.011   7.556
 2506POPC   NC334391  40.404  15.440   9.496
 2506POPC   PO434392  40.942  15.019   9.356
 2506POPC   GL134393  40.943  15.386   9.117
 2506POPC   GL234394  40.584  15.386   9.020
 2506POPC   C1A34395  40.999  15.358   8.675
 2506POPC   D2A34396  40.816  15.022   8.420
 2506POPC   C3A34397  41.067  14.718   8.211
 2506POPC   C4A34398  41.094  14.917   7.823
 2506POPC   C1B34399  40.500  15.411   8.587
 2506POPC   C2B34400  40.741  15.516   8.221
 2506POPC   C3B34401  40.709  15.318   7.821
 2506POPC   C4B34402  40.677  15.474   7.419
 2507POPC   NC334403  43.664   4.513   9.342
 2507POPC   PO434404  43.124   4.251   9.689
 2507POPC   GL134405  42.966   4.355   9.285
 2507POPC   GL234406  43.257   4.403   9.081
 2507POPC   C1A34407  42.824   4.472   8.861
 2507POPC   D2A34408  42.910   4.236   8.481
 2507POPC   C3A34409  42.823   4.344   8.062
 2507POPC   C4A34410  42.892   4.572   7.687
 2507POPC   C1B34411  43.464   4.292   8.680
 2507POPC   C2B34412  43.412   4.142   8.259
 2507POPC   C3B34413  43.306   4.326   7.851
 2507POPC   C4B34414  43.297   4.368   7.379
 2508POPC   NC334415  33.368  27.359   9.428
 2508POPC   PO434416  32.772  27.436   9.688
 2508POPC   GL134417  32.857  27.539   9.256
 2508POPC   GL234418  33.120  27.777   9.225
 2508POPC   C1A34419  32.957  27.506   8.808
 2508POPC   D2A34420  32.955  27.237   8.466
 2508POPC   C3A34421  32.938  27.396   8.047
 2508POPC   C4A34422  32.949  27.807   7.841
 2508POPC   C1B34423  33.280  27.876   8.805
 2508POPC   C2B34424  33.200  27.700   8.392
 2508POPC   C3B34425  33.418  27.692   8.028
 2508POPC   C4B34426  33.495  27.765   7.604
 2509POPC   NC334427  40.604  31.358   9.492
 2509POPC   PO434428  41.032  31.878   9.284
 2509POPC   GL134429  40.955  31.549   9.021
 2509POPC   GL234430  40.856  31.210   9.072
 2509POPC   C1A34431  40.828  31.533   8.609
 2509POPC   D2A34432  40.665  31.742   8.275
 2509POPC   C3A34433  40.921  31.646   7.952
 2509POPC   C4A34434  40.720  31.605   7.567
 2509POPC   C1B34435  40.545  31.134   8.694
 2509POPC   C2B34436  40.503  31.205   8.221
 2509POPC   C3B34437  40.426  31.035   7.766
 2509POPC   C4B34438  40.483  31.207   7.350
 2510POPC   NC334439  31.478  31.288   9.903
 2510POPC   PO434440  31.637  30.741   9.580
 2510POPC   GL134441  31.545  30.660   9.148
 2510POPC   GL234442  31.274  30.426   9.215
 2510POPC   C1A34443  31.536  30.757   8.705
 2510POPC   D2A34444  31.676  30.968   8.358
 2510POPC   C3A34445  31.506  30.784   8.018
 2510POPC   C4A34446  31.266  30.794   7.662
 2510POPC   C1B34447  31.257  30.336   8.770
 2510POPC   C2B34448  31.232  30.497   8.364
 2510POPC   C3B34449  31.130  30.370   7.949
 2510POPC   C4B34450  31.209  30.307   7.506
 2511POPC   NC334451  15.145   2.206   9.481
 2511POPC   PO434452  15.197   1.603   9.375
 2511POPC   GL134453  14.912   1.806   9.076
 2511POPC   GL234454  14.958   2.181   9.033
 2511POPC   C1A34455  15.082   1.849   8.657
 2511POPC   D2A34456  15.499   1.821   8.457
 2511POPC   C3A34457  15.475   1.899   8.031
 2511POPC   C4A34458  15.087   1.810   7.819
 2511POPC   C1B34459  15.378   2.214   8.828
 2511POPC   C2B34460  15.282   2.277   8.380
 2511POPC   C3B34461  15.147   2.294   7.942
 2511POPC   C4B34462  15.438   2.250   7.630
 2512POPC   NC334463  28.573  34.154   9.477
 2512POPC   PO434464  28.206  33.511   9.376
 2512POPC   GL134465  28.482  33.766   9.156
 2512POPC   GL234466  28.255  34.030   9.101
 2512POPC   C1A34467  28.632  33.941   8.777
 2512POPC   D2A34468  28.438  34.068   8.384
 2512POPC   C3A34469  28.618  33.940   8.001
 2512POPC   C4A34470  28.465  33.681   7.629
 2512POPC   C1B34471  28.099  33.804   8.773
 2512POPC   C2B34472  28.107  33.610   8.396
 2512POPC   C3B34473  28.137  33.775   8.008
 2512POPC   C4B34474  27.948  33.574   7.667
 2513POPC   NC334475  16.938  35.445   9.473
 2513POPC   PO434476  17.072  34.731   9.356
 2513POPC   GL134477  16.863  34.952   9.016
 2513POPC   GL234478  16.741  35.290   9.012
 2513POPC   C1A34479  17.004  35.067   8.610
 2513POPC   D2A34480  17.179  35.102   8.197
 2513POPC   C3A34481  16.818  35.226   7.965
 2513POPC   C4A34482  16.418  34.995   7.904
 2513POPC   C1B34483  16.424  35.450   8.746
 2513POPC   C2B34484  16.341  35.364   8.306
 2513POPC   C3B34485  16.451  35.574   7.918
 2513POPC   C4B34486  16.645  35.795   7.555
 2514POPC   NC334487  25.190  30.399   9.418
 2514POPC   PO434488  25.125  31.073   9.637
 2514POPC   GL134489  25.164  30.892   9.189
 2514POPC   GL234490  25.519  30.844   9.157
 2514POPC   C1A34491  25.005  30.711   8.762
 2514POPC   D2A34492  25.147  30.805   8.337
 2514POPC   C3A34493  25.049  30.579   7.982
 2514POPC   C4A34494  25.000  30.912   7.756
 2514POPC   C1B34495  25.528  30.692   8.735
 2514POPC   C2B34496  25.681  30.839   8.343
 2514POPC   C3B34497  25.496  30.844   7.933
 2514POPC   C4B34498  25.449  30.536   7.635
 2515POPC   NC334499  11.654  35.605   9.375
 2515POPC   PO434500  12.210  35.533   9.715
 2515POPC   GL134501  12.117  35.308   9.285
 2515POPC   GL234502  11.786  35.137   9.196
 2515POPC   C1A34503  12.073  35.486   8.847
 2515POPC   D2A34504  12.114  35.593   8.402
 2515POPC   C3A34505  11.808  35.561   8.057
 2515POPC   C4A34506  11.920  35.440   7.654
 2515POPC   C1B34507  11.998  34.989   8.818
 2515POPC   C2B34508  12.184  34.946   8.425
 2515POPC   C3B34509  12.185  35.183   8.064
 2515POPC   C4B34510  12.210  35.020   7.657
 2516POPC   NC334511  38.765  44.223   9.596
 2516POPC   PO434512  38.743  43.631   9.798
 2516POPC   GL134513  39.037  43.628   9.353
 2516POPC   GL234514  39.030  43.962   9.248
 2516POPC   C1A34515  39.257  43.677   8.899
 2516POPC   D2A34516  39.283  43.944   8.493
 2516POPC   C3A34517  39.208  43.800   8.059
 2516POPC   C4A34518  39.019  43.469   7.796
 2516POPC   C1B34519  39.017  44.197   8.871
 2516POPC   C2B34520  38.845  44.258   8.451
 2516POPC   C3B34521  38.745  44.033   8.090
 2516POPC   C4B34522  38.813  44.208   7.676
 2517POPC   NC334523   0.642   3.155   9.645
 2517POPC   PO434524   0.481   2.595  10.008
 2517POPC   GL134525   0.362   2.628   9.460
 2517POPC   GL234526   0.565   2.858   9.221
 2517POPC   C1A34527   0.222   2.645   8.943
 2517POPC   D2A34528   0.355   2.794   8.518
 2517POPC   C3A34529   0.315   2.668   8.078
 2517POPC   C4A34530   0.532   2.766   7.671
 2517POPC   C1B34531   0.781   2.895   8.797
 2517POPC   C2B34532   0.871   2.726   8.372
 2517POPC   C3B34533   0.774   2.421   8.039
 2517POPC   C4B34534   0.931   2.408   7.623
 2518POPC   NC334535   5.489  19.834   9.676
 2518POPC   PO434536   4.843  19.576   9.602
 2518POPC   GL134537   4.999  19.746   9.201
 2518POPC   GL234538   5.341  19.675   9.215
 2518POPC   C1A34539   5.154  19.993   8.827
 2518POPC   D2A34540   5.392  20.078   8.417
 2518POPC   C3A34541   5.197  20.023   7.981
 2518POPC   C4A34542   4.869  19.800   7.706
 2518POPC   C1B34543   5.423  19.523   8.775
 2518POPC   C2B34544   5.236  19.544   8.352
 2518POPC   C3B34545   5.190  19.436   7.918
 2518POPC   C4B34546   5.439  19.691   7.636
 2519POPC   NC334547   8.565  20.679   9.414
 2519POPC   PO434548   9.174  20.564   9.647
 2519POPC   GL134549   9.110  20.461   9.211
 2519POPC   GL234550   8.794  20.486   9.013
 2519POPC   C1A34551   9.241  20.635   8.820
 2519POPC   D2A34552   8.976  20.716   8.483
 2519POPC   C3A34553   9.174  20.620   8.112
 2519POPC   C4A34554   9.176  20.785   7.731
 2519POPC   C1B34555   8.594  20.213   8.743
 2519POPC   C2B34556   8.443  20.255   8.364
 2519POPC   C3B34557   8.717  20.381   8.074
 2519POPC   C4B34558   8.997  20.281   7.750
 2520POPC   NC334559  12.608  28.784   9.344
 2520POPC   PO434560  12.918  29.459   9.376
 2520POPC   GL134561  12.875  29.146   9.087
 2520POPC   GL234562  13.225  29.020   9.061
 2520POPC   C1A34563  12.575  29.074   8.760
 2520POPC   D2A34564  12.718  29.028   8.369
 2520POPC   C3A34565  12.554  29.276   8.080
 2520POPC   C4A34566  12.526  29.061   7.729
 2520POPC   C1B34567  13.134  29.184   8.632
 2520POPC   C2B34568  13.155  29.189   8.170
 2520POPC   C3B34569  12.972  29.314   7.756
 2520POPC   C4B34570  13.070  29.464   7.328
 2521POPC   NC334571  23.758  35.722   9.515
 2521POPC   PO434572  23.549  36.319   9.400
 2521POPC   GL134573  23.487  35.992   9.139
 2521POPC   GL234574  23.848  35.881   9.047
 2521POPC   C1A34575  23.549  36.090   8.705
 2521POPC   D2A34576  23.680  35.917   8.365
 2521POPC   C3A34577  23.493  36.128   8.076
 2521POPC   C4A34578  23.369  36.060   7.677
 2521POPC   C1B34579  24.126  35.941   8.665
 2521POPC   C2B34580  24.141  35.761   8.238
 2521POPC   C3B34581  23.892  35.869   7.831
 2521POPC   C4B34582  24.087  35.919   7.395
 2522POPC   NC334583  27.345   6.029   9.646
 2522POPC   PO434584  27.742   5.549   9.762
 2522POPC   GL134585  27.703   5.870   9.342
 2522POPC   GL234586  27.345   5.881   9.171
 2522POPC   C1A34587  27.735   6.093   8.954
 2522POPC   D2A34588  27.670   6.085   8.517
 2522POPC   C3A34589  27.627   6.100   8.070
 2522POPC   C4A34590  27.778   5.802   7.785
 2522POPC   C1B34591  27.247   5.859   8.743
 2522POPC   C2B34592  27.274   5.804   8.321
 2522POPC   C3B34593  27.233   5.731   7.905
 2522POPC   C4B34594  27.283   5.833   7.475
 2523POPC   NC334595  26.190  13.176   9.375
 2523POPC   PO434596  26.033  13.800   9.629
 2523POPC   GL134597  26.015  13.850   9.187
 2523POPC   GL234598  26.149  13.578   9.057
 2523POPC   C1A34599  25.928  13.909   8.734
 2523POPC   D2A34600  26.070  13.855   8.306
 2523POPC   C3A34601  26.140  13.635   7.925
 2523POPC   C4A34602  25.957  13.667   7.531
 2523POPC   C1B34603  26.054  13.430   8.633
 2523POPC   C2B34604  25.877  13.323   8.221
 2523POPC   C3B34605  25.900  13.196   7.747
 2523POPC   C4B34606  25.899  13.242   7.258
 2524POPC   NC334607  42.190  43.686   9.523
 2524POPC   PO434608  42.810  43.855   9.750
 2524POPC   GL134609  42.645  43.927   9.284
 2524POPC   GL234610  42.307  44.079   9.185
 2524POPC   C1A34611  42.627  43.872   8.806
 2524POPC   D2A34612  42.402  43.718   8.400
 2524POPC   C3A34613  42.526  43.918   8.036
 2524POPC   C4A34614  42.685  43.823   7.635
 2524POPC   C1B34615  42.121  43.825   8.838
 2524POPC   C2B34616  41.937  43.923   8.435
 2524POPC   C3B34617  42.045  44.229   8.098
 2524POPC   C4B34618  42.278  44.182   7.682
 2525POPC   NC334619  15.841  26.372   9.660
 2525POPC   PO434620  15.749  27.003   9.536
 2525POPC   GL134621  15.742  26.654   9.214
 2525POPC   GL234622  16.097  26.557   9.246
 2525POPC   C1A34623  15.570  26.638   8.780
 2525POPC   D2A34624  15.778  26.835   8.394
 2525POPC   C3A34625  15.694  26.710   7.975
 2525POPC   C4A34626  15.706  26.769   7.560
 2525POPC   C1B34627  16.086  26.679   8.795
 2525POPC   C2B34628  16.160  26.510   8.352
 2525POPC   C3B34629  16.199  26.698   7.915
 2525POPC   C4B34630  16.287  26.493   7.534
 2526POPC   NC334631  17.454  30.643   9.546
 2526POPC   PO434632  17.453  31.301   9.452
 2526POPC   GL134633  17.661  30.981   9.201
 2526POPC   GL234634  17.348  30.805   9.079
 2526POPC   C1A34635  17.791  30.789   8.804
 2526POPC   D2A34636  17.599  30.740   8.396
 2526POPC   C3A34637  17.751  30.871   7.971
 2526POPC   C4A34638  17.602  30.722   7.533
 2526POPC   C1B34639  17.082  30.870   8.716
 2526POPC   C2B34640  17.144  30.912   8.296
 2526POPC   C3B34641  17.241  30.787   7.902
 2526POPC   C4B34642  17.188  30.407   7.700
 2527POPC   NC334643   8.182  30.996   9.727
 2527POPC   PO434644   8.371  30.422   9.601
 2527POPC   GL134645   8.139  30.534   9.227
 2527POPC   GL234646   8.212  30.912   9.216
 2527POPC   C1A34647   7.995  30.434   8.791
 2527POPC   D2A34648   7.842  30.486   8.350
 2527POPC   C3A34649   8.162  30.456   8.036
 2527POPC   C4A34650   8.238  30.697   7.689
 2527POPC   C1B34651   8.366  30.830   8.834
 2527POPC   C2B34652   8.264  30.778   8.431
 2527POPC   C3B34653   8.219  31.031   8.071
 2527POPC   C4B34654   8.489  31.161   7.761
 2528POPC   NC334655  28.921   4.554   9.543
 2528POPC   PO434656  29.556   4.360   9.498
 2528POPC   GL134657  29.253   4.452   9.159
 2528POPC   GL234658  28.885   4.322   9.100
 2528POPC   C1A34659  29.245   4.263   8.763
 2528POPC   D2A34660  29.156   4.402   8.381
 2528POPC   C3A34661  29.100   4.069   8.100
 2528POPC   C4A34662  29.258   4.096   7.689
 2528POPC   C1B34663  28.804   4.618   8.747
 2528POPC   C2B34664  28.807   4.874   8.406
 2528POPC   C3B34665  28.950   4.728   8.059
 2528POPC   C4B34666  28.884   4.426   7.818
 2529POPC   NC334667  13.170  39.802   9.506
 2529POPC   PO434668  12.726  39.286   9.606
 2529POPC   GL134669  12.676  39.308   9.184
 2529POPC   GL234670  12.840  39.615   9.147
 2529POPC   C1A34671  12.653  39.109   8.777
 2529POPC   D2A34672  12.775  39.071   8.329
 2529POPC   C3A34673  13.172  39.273   8.134
 2529POPC   C4A34674  13.176  39.265   7.673
 2529POPC   C1B34675  12.943  39.543   8.692
 2529POPC   C2B34676  12.843  39.649   8.248
 2529POPC   C3B34677  12.739  39.382   7.887
 2529POPC   C4B34678  12.669  39.287   7.472
 2530POPC   NC334679  34.416  28.575   9.587
 2530POPC   PO434680  34.279  27.918   9.368
 2530POPC   GL134681  34.550  28.156   9.084
 2530POPC   GL234682  34.596  28.506   9.122
 2530POPC   C1A34683  34.612  28.045   8.652
 2530POPC   D2A34684  34.349  27.998   8.272
 2530POPC   C3A34685  34.597  28.103   7.913
 2530POPC   C4A34686  34.772  28.477   7.756
 2530POPC   C1B34687  34.742  28.541   8.731
 2530POPC   C2B34688  34.622  28.462   8.301
 2530POPC   C3B34689  34.292  28.517   7.995
 2530POPC   C4B34690  34.305  28.387   7.556
 2531POPC   NC334691  36.479   9.275   9.297
 2531POPC   PO434692  36.063   9.752   9.579
 2531POPC   GL134693  36.058   9.615   9.192
 2531POPC   GL234694  35.875   9.922   9.107
 2531POPC   C1A34695  36.241   9.652   8.786
 2531POPC   D2A34696  36.296   9.924   8.446
 2531POPC   C3A34697  36.411   9.749   8.066
 2531POPC   C4A34698  36.346  10.074   7.780
 2531POPC   C1B34699  35.702   9.783   8.742
 2531POPC   C2B34700  35.666   9.887   8.348
 2531POPC   C3B34701  35.923   9.904   8.042
 2531POPC   C4B34702  35.957   9.633   7.722
 2532POPC   NC334703  10.393   9.050   9.654
 2532POPC   PO434704  10.855   8.670   9.450
 2532POPC   GL134705  10.570   8.898   9.182
 2532POPC   GL234706  10.617   9.250   9.201
 2532POPC   C1A34707  10.407   8.817   8.756
 2532POPC   D2A34708  10.486   9.056   8.352
 2532POPC   C3A34709  10.357   8.944   7.927
 2532POPC   C4A34710  10.625   8.846   7.570
 2532POPC   C1B34711  10.407   9.336   8.809
 2532POPC   C2B34712  10.377   9.555   8.422
 2532POPC   C3B34713  10.237   9.474   7.992
 2532POPC   C4B34714  10.521   9.377   7.668
 2533POPC   NC334715   3.624   0.741   9.421
 2533POPC   PO434716   3.563   0.121   9.441
 2533POPC   GL134717   3.564   0.368   9.073
 2533POPC   GL234718   3.265   0.569   9.081
 2533POPC   C1A34719   3.510   0.417   8.633
 2533POPC   D2A34720   3.702   0.540   8.261
 2533POPC   C3A34721   3.465   0.364   7.940
 2533POPC   C4A34722   3.510   0.348   7.491
 2533POPC   C1B34723   3.235   0.833   8.730
 2533POPC   C2B34724   3.219   0.719   8.319
 2533POPC   C3B34725   3.405   0.853   7.964
 2533POPC   C4B34726   3.211   0.727   7.644
 2534POPC   NC334727   2.078  25.027   9.410
 2534POPC   PO434728   1.689  25.535   9.247
 2534POPC   GL134729   2.027  25.392   9.039
 2534POPC   GL234730   2.016  25.057   8.913
 2534POPC   C1A34731   2.089  25.511   8.639
 2534POPC   D2A34732   2.027  25.188   8.314
 2534POPC   C3A34733   1.942  25.294   7.872
 2534POPC   C4A34734   2.205  25.244   7.462
 2534POPC   C1B34735   1.665  24.770   8.794
 2534POPC   C2B34736   1.560  24.826   8.433
 2534POPC   C3B34737   1.627  24.875   8.020
 2534POPC   C4B34738   1.473  25.133   7.688
 2535POPC   NC334739  38.320  15.432   9.468
 2535POPC   PO434740  38.467  14.794   9.598
 2535POPC   GL134741  38.562  15.019   9.239
 2535POPC   GL234742  38.240  15.010   9.147
 2535POPC   C1A34743  38.704  15.209   8.839
 2535POPC   D2A34744  38.883  15.120   8.401
 2535POPC   C3A34745  38.558  15.144   8.057
 2535POPC   C4A34746  38.474  14.978   7.634
 2535POPC   C1B34747  38.257  14.954   8.710
 2535POPC   C2B34748  38.048  14.773   8.367
 2535POPC   C3B34749  38.081  14.879   7.949
 2535POPC   C4B34750  37.939  14.707   7.597
 2536POPC   NC334751  42.876  19.344   9.454
 2536POPC   PO434752  43.327  18.938   9.200
 2536POPC   GL134753  42.950  19.034   9.060
 2536POPC   GL234754  43.085  19.381   8.994
 2536POPC   C1A34755  42.778  19.021   8.676
 2536POPC   D2A34756  43.188  19.123   8.495
 2536POPC   C3A34757  43.257  18.995   8.088
 2536POPC   C4A34758  43.367  19.128   7.665
 2536POPC   C1B34759  42.864  19.526   8.630
 2536POPC   C2B34760  42.792  19.304   8.223
 2536POPC   C3B34761  42.522  19.088   7.931
 2536POPC   C4B34762  42.594  18.927   7.519
 2537POPC   NC334763  25.893  34.622   9.713
 2537POPC   PO434764  26.331  34.970   9.308
 2537POPC   GL134765  26.028  34.618   9.213
 2537POPC   GL234766  25.753  34.778   9.088
 2537POPC   C1A34767  25.907  34.391   8.827
 2537POPC   D2A34768  26.155  34.446   8.478
 2537POPC   C3A34769  25.879  34.511   8.154
 2537POPC   C4A34770  25.939  34.446   7.743
 2537POPC   C1B34771  25.971  34.882   8.712
 2537POPC   C2B34772  25.800  35.010   8.301
 2537POPC   C3B34773  26.013  34.945   7.887
 2537POPC   C4B34774  25.986  34.876   7.433
 2538POPC   NC334775   7.001  19.175   9.657
 2538POPC   PO434776   7.654  18.914   9.627
 2538POPC   GL134777   7.740  19.074   9.195
 2538POPC   GL234778   7.368  19.217   9.232
 2538POPC   C1A34779   7.821  18.976   8.731
 2538POPC   D2A34780   7.578  18.952   8.337
 2538POPC   C3A34781   7.683  19.166   7.953
 2538POPC   C4A34782   7.776  18.980   7.554
 2538POPC   C1B34783   7.133  19.396   8.890
 2538POPC   C2B34784   7.226  19.345   8.465
 2538POPC   C3B34785   7.136  19.158   8.098
 2538POPC   C4B34786   7.262  19.030   7.701
 2539POPC   NC334787  21.927  17.156   9.491
 2539POPC   PO434788  22.475  16.756   9.528
 2539POPC   GL134789  22.281  16.758   9.154
 2539POPC   GL234790  22.273  17.103   9.133
 2539POPC   C1A34791  22.389  16.582   8.744
 2539POPC   D2A34792  22.214  16.353   8.421
 2539POPC   C3A34793  22.135  16.547   8.009
 2539POPC   C4A34794  22.033  16.665   7.582
 2539POPC   C1B34795  22.446  17.085   8.758
 2539POPC   C2B34796  22.450  16.946   8.326
 2539POPC   C3B34797  22.326  17.048   7.884
 2539POPC   C4B34798  22.461  16.896   7.443
 2540POPC   NC334799  20.103  12.850   9.644
 2540POPC   PO434800  19.460  12.759   9.511
 2540POPC   GL134801  19.757  12.852   9.229
 2540POPC   GL234802  19.934  12.553   9.268
 2540POPC   C1A34803  19.798  13.098   8.860
 2540POPC   D2A34804  19.765  12.901   8.454
 2540POPC   C3A34805  19.673  13.066   8.079
 2540POPC   C4A34806  19.933  13.183   7.789
 2540POPC   C1B34807  19.888  12.548   8.812
 2540POPC   C2B34808  20.088  12.518   8.394
 2540POPC   C3B34809  20.032  12.653   7.994
 2540POPC   C4B34810  19.695  12.635   7.794
 2541POPC   NC334811  42.980  16.174   9.477
 2541POPC   PO434812  43.532  15.726   9.482
 2541POPC   GL134813  43.180  15.829   9.145
 2541POPC   GL234814  42.948  15.601   9.044
 2541POPC   C1A34815  43.198  16.021   8.707
 2541POPC   D2A34816  42.944  16.040   8.323
 2541POPC   C3A34817  43.018  16.093   7.861
 2541POPC   C4A34818  42.858  15.870   7.462
 2541POPC   C1B34819  43.015  15.579   8.606
 2541POPC   C2B34820  42.736  15.553   8.298
 2541POPC   C3B34821  42.852  15.567   7.872
 2541POPC   C4B34822  43.282  15.685   7.751
 2542POPC   NC334823   9.527  32.156   9.534
 2542POPC   PO434824   9.531  32.806   9.642
 2542POPC   GL134825   9.594  32.535   9.220
 2542POPC   GL234826   9.945  32.367   9.292
 2542POPC   C1A34827   9.444  32.166   8.874
 2542POPC   D2A34828   9.604  31.958   8.480
 2542POPC   C3A34829   9.630  32.219   8.101
 2542POPC   C4A34830   9.688  32.542   7.777
 2542POPC   C1B34831   9.957  32.124   8.898
 2542POPC   C2B34832  10.028  32.210   8.448
 2542POPC   C3B34833  10.106  31.999   8.057
 2542POPC   C4B34834   9.876  32.041   7.657
 2543POPC   NC334835  41.935  20.044   9.480
 2543POPC   PO434836  42.514  19.656   9.467
 2543POPC   GL134837  42.220  19.735   9.146
 2543POPC   GL234838  42.154  20.077   9.033
 2543POPC   C1A34839  42.394  19.761   8.728
 2543POPC   D2A34840  42.387  19.551   8.372
 2543POPC   C3A34841  42.316  19.759   8.012
 2543POPC   C4A34842  42.403  19.537   7.657
 2543POPC   C1B34843  42.285  20.249   8.636
 2543POPC   C2B34844  42.224  20.278   8.188
 2543POPC   C3B34845  42.402  20.239   7.788
 2543POPC   C4B34846  42.312  20.053   7.410
 2544POPC   NC334847  26.835  37.413   9.729
 2544POPC   PO434848  26.556  36.752   9.559
 2544POPC   GL134849  26.755  36.822   9.142
 2544POPC   GL234850  26.579  37.052   8.938
 2544POPC   C1A34851  26.901  36.748   8.713
 2544POPC   D2A34852  26.725  37.041   8.400
 2544POPC   C3A34853  26.895  36.975   8.000
 2544POPC   C4A34854  26.688  36.881   7.637
 2544POPC   C1B34855  26.262  37.210   8.695
 2544POPC   C2B34856  26.146  37.102   8.293
 2544POPC   C3B34857  26.391  37.136   7.959
 2544POPC   C4B34858  26.351  37.273   7.556
 2545POPC   NC334859   3.209  20.479   9.510
 2545POPC   PO434860   3.838  20.679   9.422
 2545POPC   GL134861   3.766  20.604   9.033
 2545POPC   GL234862   3.429  20.583   9.059
 2545POPC   C1A34863   3.846  20.767   8.611
 2545POPC   D2A34864   3.891  20.774   8.175
 2545POPC   C3A34865   3.539  20.496   8.093
 2545POPC   C4A34866   3.543  20.258   7.735
 2545POPC   C1B34867   3.156  20.825   8.798
 2545POPC   C2B34868   3.290  20.955   8.393
 2545POPC   C3B34869   3.179  20.847   7.979
 2545POPC   C4B34870   3.556  20.831   7.723
 2546POPC   NC334871  36.160  34.332   9.683
 2546POPC   PO434872  35.597  34.134   9.392
 2546POPC   GL134873  35.984  34.416   9.221
 2546POPC   GL234874  36.303  34.553   9.217
 2546POPC   C1A34875  35.981  34.700   8.846
 2546POPC   D2A34876  36.087  34.720   8.446
 2546POPC   C3A34877  35.933  34.555   8.107
 2546POPC   C4A34878  35.806  34.629   7.704
 2546POPC   C1B34879  36.472  34.516   8.806
 2546POPC   C2B34880  36.384  34.326   8.420
 2546POPC   C3B34881  36.427  34.485   8.027
 2546POPC   C4B34882  36.282  34.449   7.639
 2547POPC   NC334883   7.738  38.668   9.240
 2547POPC   PO434884   7.332  39.170   9.552
 2547POPC   GL134885   7.301  39.345   9.161
 2547POPC   GL234886   7.444  39.070   9.023
 2547POPC   C1A34887   7.361  39.525   8.760
 2547POPC   D2A34888   7.525  39.486   8.342
 2547POPC   C3A34889   7.281  39.422   7.982
 2547POPC   C4A34890   7.032  39.098   7.809
 2547POPC   C1B34891   7.554  39.039   8.600
 2547POPC   C2B34892   7.342  38.955   8.210
 2547POPC   C3B34893   7.526  38.944   7.820
 2547POPC   C4B34894   7.951  38.780   7.811
 2548POPC   NC334895  30.194  13.873   9.505
 2548POPC   PO434896  29.746  13.346   9.527
 2548POPC   GL134897  29.673  13.586   9.144
 2548POPC   GL234898  29.872  13.903   9.117
 2548POPC   C1A34899  29.755  13.679   8.691
 2548POPC   D2A34900  30.077  13.664   8.386
 2548POPC   C3A34901  30.086  13.450   7.999
 2548POPC   C4A34902  29.725  13.645   7.849
 2548POPC   C1B34903  30.176  14.011   8.755
 2548POPC   C2B34904  30.315  14.099   8.307
 2548POPC   C3B34905  30.186  13.942   7.869
 2548POPC   C4B34906  29.856  13.960   7.484
 2549POPC   NC334907   3.963  41.517   9.603
 2549POPC   PO434908   3.421  41.190   9.569
 2549POPC   GL134909   3.479  41.504   9.216
 2549POPC   GL234910   3.177  41.695   9.071
 2549POPC   C1A34911   3.594  41.420   8.776
 2549POPC   D2A34912   3.491  41.312   8.340
 2549POPC   C3A34913   3.708  41.569   8.027
 2549POPC   C4A34914   3.939  41.458   7.667
 2549POPC   C1B34915   3.118  41.599   8.620
 2549POPC   C2B34916   3.226  41.756   8.173
 2549POPC   C3B34917   3.343  41.740   7.717
 2549POPC   C4B34918   3.319  41.864   7.257
 2550POPC   NC334919  36.440   6.973   9.120
 2550POPC   PO434920  36.116   6.525   9.515
 2550POPC   GL134921  36.051   6.625   9.093
 2550POPC   GL234922  35.881   6.924   8.961
 2550POPC   C1A34923  36.016   6.520   8.677
 2550POPC   D2A34924  36.193   6.625   8.303
 2550POPC   C3A34925  35.855   6.654   8.034
 2550POPC   C4A34926  36.013   6.531   7.662
 2550POPC   C1B34927  35.994   7.035   8.535
 2550POPC   C2B34928  36.094   7.130   8.083
 2550POPC   C3B34929  36.317   6.946   7.705
 2550POPC   C4B34930  36.404   6.790   7.250
 2551POPC   NC334931  14.233   0.850   9.314
 2551POPC   PO434932  13.581   1.188   9.356
 2551POPC   GL134933  13.535   1.344   8.981
 2551POPC   GL234934  13.518   1.651   9.084
 2551POPC   C1A34935  13.669   1.271   8.571
 2551POPC   D2A34936  13.320   1.064   8.394
 2551POPC   C3A34937  13.370   0.986   7.993
 2551POPC   C4A34938  13.610   1.230   7.664
 2551POPC   C1B34939  13.716   1.749   8.707
 2551POPC   C2B34940  13.929   1.712   8.311
 2551POPC   C3B34941  13.968   1.484   7.915
 2551POPC   C4B34942  13.929   1.632   7.455
 2552POPC   NC334943  31.918  18.203   9.419
 2552POPC   PO434944  31.286  18.044   9.562
 2552POPC   GL134945  31.410  18.286   9.193
 2552POPC   GL234946  31.341  18.641   9.215
 2552POPC   C1A34947  31.721  18.412   8.849
 2552POPC   D2A34948  31.651  18.583   8.451
 2552POPC   C3A34949  31.689  18.285   8.105
 2552POPC   C4A34950  31.879  18.197   7.707
 2552POPC   C1B34951  31.242  18.539   8.773
 2552POPC   C2B34952  31.086  18.571   8.357
 2552POPC   C3B34953  31.310  18.620   7.984
 2552POPC   C4B34954  31.399  18.363   7.650
 2553POPC   NC334955  42.786  20.091   9.477
 2553POPC   PO434956  43.298  19.654   9.426
 2553POPC   GL134957  43.114  19.910   9.105
 2553POPC   GL234958  42.780  19.798   9.061
 2553POPC   C1A34959  43.277  19.984   8.676
 2553POPC   D2A34960  43.116  19.816   8.298
 2553POPC   C3A34961  43.203  19.510   7.989
 2553POPC   C4A34962  42.888  19.354   7.709
 2553POPC   C1B34963  42.779  20.107   8.734
 2553POPC   C2B34964  42.653  20.040   8.306
 2553POPC   C3B34965  42.797  19.852   7.905
 2553POPC   C4B34966  43.190  19.956   7.711
 2554POPC   NC334967  31.304   5.372   9.441
 2554POPC   PO434968  31.539   6.032   9.467
 2554POPC   GL134969  31.693   5.922   9.089
 2554POPC   GL234970  31.860   6.195   9.092
 2554POPC   C1A34971  31.576   5.778   8.688
 2554POPC   D2A34972  31.338   6.008   8.395
 2554POPC   C3A34973  31.392   5.811   7.987
 2554POPC   C4A34974  31.670   5.633   7.689
 2554POPC   C1B34975  31.949   6.125   8.656
 2554POPC   C2B34976  31.839   5.979   8.256
 2554POPC   C3B34977  31.792   6.122   7.850
 2554POPC   C4B34978  31.833   6.095   7.429
 2555POPC   NC334979   6.145  17.020   9.640
 2555POPC   PO434980   6.226  16.466   9.327
 2555POPC   GL134981   6.228  16.762   9.004
 2555POPC   GL234982   6.089  17.076   9.130
 2555POPC   C1A34983   6.097  16.662   8.582
 2555POPC   D2A34984   5.721  16.710   8.318
 2555POPC   C3A34985   5.866  16.623   7.902
 2555POPC   C4A34986   6.285  16.742   7.803
 2555POPC   C1B34987   5.806  17.023   8.783
 2555POPC   C2B34988   5.955  17.162   8.388
 2555POPC   C3B34989   5.840  17.118   7.981
 2555POPC   C4B34990   6.085  17.181   7.648
 2556POPC   NC334991   2.658  43.321  10.031
 2556POPC   PO434992   2.875  43.981   9.827
 2556POPC   GL134993   2.930  44.188   9.307
 2556POPC   GL234994   2.587  44.145   9.068
 2556POPC   C1A34995   2.976  44.256   8.804
 2556POPC   D2A34996   2.760  44.052   8.430
 2556POPC   C3A34997   2.939  43.844   8.094
 2556POPC   C4A34998   2.934  43.978   7.689
 2556POPC   C1B34999   2.576  43.742   8.777
 2556POPC   C2B35000   2.386  43.694   8.353
 2556POPC   C3B35001   2.447  43.852   7.932
 2556POPC   C4B35002   2.528  43.714   7.498
 2557POPC   NC335003  34.776   6.427   9.541
 2557POPC   PO435004  34.397   6.959   9.415
 2557POPC   GL135005  34.602   6.672   9.126
 2557POPC   GL235006  34.536   6.913   8.936
 2557POPC   C1A35007  34.642   6.513   8.677
 2557POPC   D2A35008  34.488   6.745   8.314
 2557POPC   C3A35009  34.434   6.504   7.985
 2557POPC   C4A35010  34.705   6.438   7.652
 2557POPC   C1B35011  34.775   7.021   8.637
 2557POPC   C2B35012  35.024   6.861   8.314
 2557POPC   C3B35013  34.897   6.885   7.894
 2557POPC   C4B35014  35.048   6.795   7.495
 2558POPC   NC335015  16.845  10.081   9.671
 2558POPC   PO435016  16.431   9.588   9.718
 2558POPC   GL135017  16.706   9.731   9.314
 2558POPC   GL235018  16.566  10.020   9.223
 2558POPC   C1A35019  16.883   9.847   8.852
 2558POPC   D2A35020  16.973  10.041   8.428
 2558POPC   C3A35021  16.869   9.832   8.012
 2558POPC   C4A35022  17.086   9.781   7.602
 2558POPC   C1B35023  16.365  10.070   8.804
 2558POPC   C2B35024  16.466   9.912   8.394
 2558POPC   C3B35025  16.410  10.097   7.992
 2558POPC   C4B35026  16.189   9.948   7.628
 2559POPC   NC335027  26.573  22.440   9.844
 2559POPC   PO435028  25.927  22.376   9.476
 2559POPC   GL135029  25.971  22.239   9.086
 2559POPC   GL235030  26.237  22.013   9.074
 2559POPC   C1A35031  25.861  22.040   8.715
 2559POPC   D2A35032  25.995  22.187   8.324
 2559POPC   C3A35033  25.739  22.059   7.977
 2559POPC   C4A35034  25.747  22.322   7.641
 2559POPC   C1B35035  26.408  22.188   8.674
 2559POPC   C2B35036  26.528  22.277   8.230
 2559POPC   C3B35037  26.244  22.272   7.857
 2559POPC   C4B35038  26.130  21.894   7.632
 2560POPC   NC335039  27.804   8.571   9.286
 2560POPC   PO435040  27.962   8.032   9.596
 2560POPC   GL135041  28.130   8.148   9.184
 2560POPC   GL235042  28.267   8.492   9.119
 2560POPC   C1A35043  28.323   8.133   8.757
 2560POPC   D2A35044  28.324   8.326   8.344
 2560POPC   C3A35045  28.558   8.116   7.999
 2560POPC   C4A35046  28.303   8.054   7.631
 2560POPC   C1B35047  28.444   8.631   8.737
 2560POPC   C2B35048  28.451   8.853   8.350
 2560POPC   C3B35049  28.548   8.641   8.006
 2560POPC   C4B35050  28.426   8.566   7.599
 2561POPC   NC335051  20.842  11.031   9.466
 2561POPC   PO435052  20.482  11.658   9.501
 2561POPC   GL135053  20.410  11.367   9.135
 2561POPC   GL235054  20.712  11.255   9.036
 2561POPC   C1A35055  20.280  11.293   8.698
 2561POPC   D2A35056  20.399  11.607   8.356
 2561POPC   C3A35057  20.420  11.446   7.957
 2561POPC   C4A35058  20.349  11.000   7.912
 2561POPC   C1B35059  20.776  11.383   8.624
 2561POPC   C2B35060  20.740  11.140   8.235
 2561POPC   C3B35061  20.825  11.180   7.786
 2561POPC   C4B35062  20.945  11.337   7.385
 2562POPC   NC335063  35.403  30.174   9.499
 2562POPC   PO435064  35.452  30.914   9.440
 2562POPC   GL135065  35.386  30.630   9.174
 2562POPC   GL235066  35.682  30.450   9.172
 2562POPC   C1A35067  35.373  30.773   8.755
 2562POPC   D2A35068  35.184  30.962   8.425
 2562POPC   C3A35069  35.367  30.764   8.094
 2562POPC   C4A35070  35.282  30.884   7.709
 2562POPC   C1B35071  35.454  30.276   8.829
 2562POPC   C2B35072  35.286  30.309   8.451
 2562POPC   C3B35073  35.479  30.264   8.054
 2562POPC   C4B35074  35.510  30.443   7.668
 2563POPC   NC335075  37.117  22.775   9.466
 2563POPC   PO435076  36.563  23.141   9.531
 2563POPC   GL135077  36.798  23.095   9.151
 2563POPC   GL235078  37.136  23.160   9.137
 2563POPC   C1A35079  36.903  22.846   8.786
 2563POPC   D2A35080  36.666  22.766   8.450
 2563POPC   C3A35081  36.862  22.697   8.096
 2563POPC   C4A35082  36.701  22.942   7.812
 2563POPC   C1B35083  37.163  23.271   8.684
 2563POPC   C2B35084  37.039  23.134   8.276
 2563POPC   C3B35085  37.173  23.159   7.835
 2563POPC   C4B35086  37.301  23.287   7.399
 2564POPC   NC335087  34.130   1.924   9.473
 2564POPC   PO435088  33.436   2.094   9.413
 2564POPC   GL135089  33.777   2.169   9.149
 2564POPC   GL235090  33.847   1.834   9.075
 2564POPC   C1A35091  33.895   2.197   8.711
 2564POPC   D2A35092  33.660   2.161   8.355
 2564POPC   C3A35093  33.874   2.056   7.989
 2564POPC   C4A35094  33.760   2.192   7.592
 2564POPC   C1B35095  34.143   1.753   8.768
 2564POPC   C2B35096  34.211   1.889   8.359
 2564POPC   C3B35097  34.300   1.706   7.967
 2564POPC   C4B35098  34.064   1.772   7.603
 2565POPC   NC335099  26.046  18.023   9.788
 2565POPC   PO435100  26.572  18.376   9.576
 2565POPC   GL135101  26.297  18.440   9.239
 2565POPC   GL235102  26.221  18.128   9.094
 2565POPC   C1A35103  26.311  18.537   8.800
 2565POPC   D2A35104  26.287  18.337   8.385
 2565POPC   C3A35105  26.090  18.563   8.063
 2565POPC   C4A35106  25.797  18.494   7.736
 2565POPC   C1B35107  25.930  18.187   8.751
 2565POPC   C2B35108  25.765  18.279   8.350
 2565POPC   C3B35109  25.761  18.058   7.984
 2565POPC   C4B35110  26.032  17.845   7.729
 2566POPC   NC335111  12.200  26.281   9.617
 2566POPC   PO435112  12.051  25.628   9.469
 2566POPC   GL135113  12.165  25.983   9.171
 2566POPC   GL235114  11.922  26.259   9.179
 2566POPC   C1A35115  12.264  26.212   8.764
 2566POPC   D2A35116  12.333  26.404   8.354
 2566POPC   C3A35117  12.320  26.170   7.985
 2566POPC   C4A35118  12.003  26.107   7.694
 2566POPC   C1B35119  11.718  26.320   8.774
 2566POPC   C2B35120  11.867  26.184   8.396
 2566POPC   C3B35121  11.681  26.042   8.058
 2566POPC   C4B35122  11.468  26.328   7.837
 2567POPC   NC335123  27.873  21.093   9.602
 2567POPC   PO435124  27.539  20.547   9.475
 2567POPC   GL135125  27.460  20.363   9.083
 2567POPC   GL235126  27.772  20.337   9.038
 2567POPC   C1A35127  27.360  20.451   8.683
 2567POPC   D2A35128  27.503  20.649   8.311
 2567POPC   C3A35129  27.436  20.461   7.922
 2567POPC   C4A35130  27.372  20.715   7.593
 2567POPC   C1B35131  27.871  20.523   8.680
 2567POPC   C2B35132  28.046  20.409   8.313
 2567POPC   C3B35133  27.935  20.579   7.924
 2567POPC   C4B35134  27.880  20.611   7.483
 2568POPC   NC335135  43.640   5.309   9.496
 2568POPC   PO435136  44.002   4.723   9.608
 2568POPC   GL135137  43.975   4.863   9.204
 2568POPC   GL235138  44.186   4.565   9.139
 2568POPC   C1A35139  43.733   5.039   8.855
 2568POPC   D2A35140  43.767   5.320   8.487
 2568POPC   C3A35141  43.733   5.274   8.023
 2568POPC   C4A35142  44.043   5.452   7.667
 2568POPC   C1B35143  43.927   4.561   8.758
 2568POPC   C2B35144  43.729   4.776   8.414
 2568POPC   C3B35145  43.957   4.752   8.044
 2568POPC   C4B35146  43.922   4.950   7.677
 2569POPC   NC335147   3.950  21.073   9.195
 2569POPC   PO435148   4.536  21.131   9.588
 2569POPC   GL135149   4.476  21.405   9.234
 2569POPC   GL235150   4.169  21.548   9.148
 2569POPC   C1A35151   4.513  21.328   8.781
 2569POPC   D2A35152   4.232  21.120   8.463
 2569POPC   C3A35153   4.232  21.347   8.064
 2569POPC   C4A35154   4.529  21.273   7.722
 2569POPC   C1B35155   4.067  21.574   8.693
 2569POPC   C2B35156   3.929  21.723   8.280
 2569POPC   C3B35157   4.155  21.819   7.872
 2569POPC   C4B35158   4.213  21.584   7.469
 2570POPC   NC335159  10.067  42.721   9.422
 2570POPC   PO435160   9.817  42.147   9.656
 2570POPC   GL135161   9.805  42.278   9.230
 2570POPC   GL235162   9.697  41.930   9.186
 2570POPC   C1A35163   9.960  42.443   8.815
 2570POPC   D2A35164   9.769  42.369   8.380
 2570POPC   C3A35165   9.943  42.393   7.963
 2570POPC   C4A35166   9.547  42.508   7.738
 2570POPC   C1B35167   9.677  42.025   8.753
 2570POPC   C2B35168   9.743  41.814   8.351
 2570POPC   C3B35169   9.855  41.862   7.919
 2570POPC   C4B35170   9.829  42.095   7.552
 2571POPC   NC335171   1.672  11.170   9.562
 2571POPC   PO435172   1.809  11.767   9.884
 2571POPC   GL135173   1.876  11.606   9.337
 2571POPC   GL235174   1.950  11.242   9.166
 2571POPC   C1A35175   1.962  11.575   8.809
 2571POPC   D2A35176   1.991  11.259   8.401
 2571POPC   C3A35177   2.090  11.266   7.922
 2571POPC   C4A35178   2.128  11.456   7.489
 2571POPC   C1B35179   1.714  11.104   8.800
 2571POPC   C2B35180   1.619  10.888   8.398
 2571POPC   C3B35181   1.675  10.968   7.953
 2571POPC   C4B35182   1.724  11.139   7.548
 2572POPC   NC335183  14.033  28.145   9.436
 2572POPC   PO435184  13.418  28.600   9.487
 2572POPC   GL135185  13.508  28.582   9.049
 2572POPC   GL235186  13.837  28.480   9.096
 2572POPC   C1A35187  13.296  28.347   8.702
 2572POPC   D2A35188  13.351  28.219   8.265
 2572POPC   C3A35189  13.381  28.517   7.952
 2572POPC   C4A35190  13.440  28.520   7.537
 2572POPC   C1B35191  13.765  28.149   8.780
 2572POPC   C2B35192  13.832  28.052   8.341
 2572POPC   C3B35193  13.820  28.250   7.936
 2572POPC   C4B35194  13.801  28.067   7.533
 2573POPC   NC335195  43.213  28.621   9.806
 2573POPC   PO435196  42.742  28.244   9.453
 2573POPC   GL135197  43.001  28.372   9.137
 2573POPC   GL235198  43.270  28.571   9.300
 2573POPC   C1A35199  42.992  28.343   8.682
 2573POPC   D2A35200  42.951  28.565   8.272
 2573POPC   C3A35201  42.868  28.268   7.923
 2573POPC   C4A35202  43.284  28.199   7.720
 2573POPC   C1B35203  43.347  28.682   8.875
 2573POPC   C2B35204  43.450  28.786   8.441
 2573POPC   C3B35205  43.430  28.585   8.039
 2573POPC   C4B35206  43.101  28.675   7.721
 2574POPC   NC335207  29.380  14.423   9.500
 2574POPC   PO435208  28.781  14.709   9.642
 2574POPC   GL135209  28.947  14.526   9.189
 2574POPC   GL235210  28.868  14.206   9.047
 2574POPC   C1A35211  29.213  14.457   8.789
 2574POPC   D2A35212  29.352  14.324   8.385
 2574POPC   C3A35213  29.121  14.416   8.039
 2574POPC   C4A35214  29.243  14.477   7.648
 2574POPC   C1B35215  28.789  13.942   8.713
 2574POPC   C2B35216  28.979  13.909   8.281
 2574POPC   C3B35217  28.891  13.850   7.836
 2574POPC   C4B35218  28.876  14.178   7.505
 2575POPC   NC335219  26.118   5.428   9.376
 2575POPC   PO435220  26.160   6.073   9.594
 2575POPC   GL135221  26.153   5.953   9.140
 2575POPC   GL235222  25.979   6.257   8.973
 2575POPC   C1A35223  26.239   5.621   8.798
 2575POPC   D2A35224  26.330   5.664   8.396
 2575POPC   C3A35225  26.010   5.801   8.109
 2575POPC   C4A35226  26.120   5.681   7.706
 2575POPC   C1B35227  25.957   6.006   8.610
 2575POPC   C2B35228  25.774   5.582   8.522
 2575POPC   C3B35229  25.512   5.532   8.163
 2575POPC   C4B35230  25.584   5.795   7.793
 2576POPC   NC335231  11.222   1.821   9.503
 2576POPC   PO435232  11.573   2.467   9.523
 2576POPC   GL135233  11.405   2.215   9.157
 2576POPC   GL235234  11.484   1.864   9.083
 2576POPC   C1A35235  11.178   2.287   8.763
 2576POPC   D2A35236  10.931   2.093   8.433
 2576POPC   C3A35237  11.091   2.181   8.054
 2576POPC   C4A35238  11.335   2.465   7.832
 2576POPC   C1B35239  11.179   1.750   8.800
 2576POPC   C2B35240  11.156   1.573   8.406
 2576POPC   C3B35241  11.115   1.667   7.995
 2576POPC   C4B35242  11.184   1.811   7.573
 2577POPC   NC335243  12.006  28.495   9.560
 2577POPC   PO435244  11.960  27.858   9.689
 2577POPC   GL135245  12.029  28.119   9.221
 2577POPC   GL235246  11.945  28.491   9.073
 2577POPC   C1A35247  12.247  28.076   8.803
 2577POPC   D2A35248  12.483  28.043   8.365
 2577POPC   C3A35249  12.201  27.998   7.988
 2577POPC   C4A35250  11.881  28.267   7.789
 2577POPC   C1B35251  12.271  28.589   8.780
 2577POPC   C2B35252  12.156  28.424   8.379
 2577POPC   C3B35253  12.339  28.508   7.994
 2577POPC   C4B35254  12.175  28.667   7.640
 2578POPC   NC335255  26.102  30.670   9.724
 2578POPC   PO435256  25.678  30.187   9.454
 2578POPC   GL135257  25.941  30.548   9.217
 2578POPC   GL235258  26.256  30.453   9.087
 2578POPC   C1A35259  26.040  30.709   8.729
 2578POPC   D2A35260  26.196  31.011   8.455
 2578POPC   C3A35261  26.137  30.818   8.068
 2578POPC   C4A35262  25.943  30.843   7.670
 2578POPC   C1B35263  25.874  30.253   8.824
 2578POPC   C2B35264  25.718  30.279   8.426
 2578POPC   C3B35265  25.792  30.423   8.016
 2578POPC   C4B35266  25.921  30.342   7.602
 2579POPC   NC335267  42.120  25.575   9.480
 2579POPC   PO435268  42.464  24.884   9.410
 2579POPC   GL135269  42.135  25.067   9.151
 2579POPC   GL235270  42.264  25.406   9.029
 2579POPC   C1A35271  41.954  25.152   8.737
 2579POPC   D2A35272  42.161  25.409   8.417
 2579POPC   C3A35273  42.315  25.260   8.049
 2579POPC   C4A35274  42.469  25.129   7.673
 2579POPC   C1B35275  41.997  25.695   8.796
 2579POPC   C2B35276  41.888  25.840   8.387
 2579POPC   C3B35277  41.984  25.675   7.981
 2579POPC   C4B35278  42.311  25.620   7.656
 2580POPC   NC335279  37.398  39.463   9.439
 2580POPC   PO435280  38.033  39.151   9.516
 2580POPC   GL135281  37.709  39.152   9.162
 2580POPC   GL235282  37.841  39.423   9.094
 2580POPC   C1A35283  37.474  39.335   8.767
 2580POPC   D2A35284  37.673  39.407   8.339
 2580POPC   C3A35285  37.450  39.415   7.928
 2580POPC   C4A35286  37.458  39.160   7.557
 2580POPC   C1B35287  37.930  39.146   8.701
 2580POPC   C2B35288  37.817  38.876   8.381
 2580POPC   C3B35289  37.784  39.001   7.949
 2580POPC   C4B35290  38.102  39.270   7.782
 2581POPC   NC335291  31.674   9.386   9.639
 2581POPC   PO435292  31.506   8.743   9.529
 2581POPC   GL135293  31.323   8.874   9.146
 2581POPC   GL235294  31.644   8.989   9.115
 2581POPC   C1A35295  31.250   8.678   8.720
 2581POPC   D2A35296  31.443   8.569   8.316
 2581POPC   C3A35297  31.589   8.851   7.946
 2581POPC   C4A35298  31.476   8.809   7.485
 2581POPC   C1B35299  31.854   9.294   8.908
 2581POPC   C2B35300  31.981   9.285   8.510
 2581POPC   C3B35301  31.875   9.480   8.147
 2581POPC   C4B35302  31.726   9.323   7.760
 2582POPC   NC335303   7.332  22.915   9.667
 2582POPC   PO435304   7.449  22.422   9.422
 2582POPC   GL135305   7.449  22.768   9.108
 2582POPC   GL235306   7.217  23.059   9.168
 2582POPC   C1A35307   7.610  22.762   8.662
 2582POPC   D2A35308   7.752  22.667   8.196
 2582POPC   C3A35309   7.690  23.006   7.856
 2582POPC   C4A35310   7.651  23.369   7.542
 2582POPC   C1B35311   7.150  22.988   8.691
 2582POPC   C2B35312   7.246  22.746   8.296
 2582POPC   C3B35313   7.355  22.633   7.834
 2582POPC   C4B35314   7.069  22.673   7.453
 2583POPC   NC335315  10.143  13.154   9.478
 2583POPC   PO435316  10.385  12.503   9.469
 2583POPC   GL135317  10.493  12.821   9.193
 2583POPC   GL235318  10.766  13.047   9.272
 2583POPC   C1A35319  10.404  12.946   8.790
 2583POPC   D2A35320  10.507  12.744   8.406
 2583POPC   C3A35321  10.398  12.716   7.952
 2583POPC   C4A35322  10.515  12.761   7.466
 2583POPC   C1B35323  10.870  13.200   8.860
 2583POPC   C2B35324  10.722  13.254   8.464
 2583POPC   C3B35325  10.675  13.104   8.087
 2583POPC   C4B35326  10.546  13.232   7.685
 2584POPC   NC335327  29.357   3.110   9.457
 2584POPC   PO435328  29.096   3.740   9.474
 2584POPC   GL135329  29.239   3.521   9.146
 2584POPC   GL235330  28.939   3.308   9.199
 2584POPC   C1A35331  29.253   3.475   8.693
 2584POPC   D2A35332  29.321   3.163   8.409
 2584POPC   C3A35333  29.335   3.353   8.044
 2584POPC   C4A35334  29.157   3.611   7.715
 2584POPC   C1B35335  28.806   3.630   8.885
 2584POPC   C2B35336  28.599   3.550   8.511
 2584POPC   C3B35337  28.837   3.554   8.133
 2584POPC   C4B35338  28.658   3.438   7.763
 2585POPC   NC335339   4.235   9.813   9.844
 2585POPC   PO435340   4.901   9.609   9.587
 2585POPC   GL135341   4.548   9.546   9.244
 2585POPC   GL235342   4.273   9.803   9.266
 2585POPC   C1A35343   4.304   9.484   8.837
 2585POPC   D2A35344   4.151   9.728   8.476
 2585POPC   C3A35345   4.170   9.553   8.008
 2585POPC   C4A35346   4.337   9.420   7.587
 2585POPC   C1B35347   4.328  10.031   8.876
 2585POPC   C2B35348   4.509  10.104   8.462
 2585POPC   C3B35349   4.290  10.041   8.099
 2585POPC   C4B35350   4.400   9.922   7.713
 2586POPC   NC335351   5.625  41.691   9.346
 2586POPC   PO435352   6.059  41.291   9.635
 2586POPC   GL135353   6.160  41.422   9.232
 2586POPC   GL235354   6.189  41.760   9.238
 2586POPC   C1A35355   6.066  41.285   8.820
 2586POPC   D2A35356   6.224  41.174   8.415
 2586POPC   C3A35357   5.943  41.235   8.078
 2586POPC   C4A35358   5.672  41.322   7.691
 2586POPC   C1B35359   6.246  41.777   8.800
 2586POPC   C2B35360   6.046  41.669   8.390
 2586POPC   C3B35361   5.852  41.714   7.947
 2586POPC   C4B35362   5.551  41.892   7.604
 2587POPC   NC335363  13.976   1.571   9.421
 2587POPC   PO435364  14.461   1.091   9.616
 2587POPC   GL135365  14.410   1.263   9.132
 2587POPC   GL235366  14.028   1.222   9.032
 2587POPC   C1A35367  14.403   1.103   8.703
 2587POPC   D2A35368  14.154   1.239   8.348
 2587POPC   C3A35369  14.369   1.089   7.984
 2587POPC   C4A35370  14.335   0.898   7.577
 2587POPC   C1B35371  14.177   1.554   8.754
 2587POPC   C2B35372  14.457   1.671   8.407
 2587POPC   C3B35373  14.577   1.607   7.963
 2587POPC   C4B35374  14.359   1.417   7.605
 2588POPC   NC335375  34.188  33.164   9.545
 2588POPC   PO435376  34.774  32.889   9.767
 2588POPC   GL135377  34.730  33.000   9.260
 2588POPC   GL235378  34.407  33.002   9.104
 2588POPC   C1A35379  34.815  32.899   8.813
 2588POPC   D2A35380  34.567  32.928   8.459
 2588POPC   C3A35381  34.707  32.742   8.063
 2588POPC   C4A35382  34.783  33.070   7.791
 2588POPC   C1B35383  34.363  33.307   8.753
 2588POPC   C2B35384  34.480  33.425   8.300
 2588POPC   C3B35385  34.387  33.393   7.846
 2588POPC   C4B35386  34.172  33.115   7.556
 2589POPC   NC335387  21.999  27.094   9.690
 2589POPC   PO435388  22.376  26.685   9.577
 2589POPC   GL135389  22.311  26.931   9.192
 2589POPC   GL235390  21.957  26.877   9.155
 2589POPC   C1A35391  22.498  27.036   8.761
 2589POPC   D2A35392  22.457  26.811   8.362
 2589POPC   C3A35393  22.414  26.959   7.927
 2589POPC   C4A35394  22.304  26.649   7.599
 2589POPC   C1B35395  22.030  26.842   8.682
 2589POPC   C2B35396  21.972  26.947   8.225
 2589POPC   C3B35397  21.862  26.854   7.792
 2589POPC   C4B35398  21.525  26.724   7.472
 2590POPC   NC335399   1.697  40.327   9.477
 2590POPC   PO435400   2.315  39.951   9.522
 2590POPC   GL135401   2.058  40.057   9.187
 2590POPC   GL235402   2.083  40.410   9.155
 2590POPC   C1A35403   1.772  40.069   8.840
 2590POPC   D2A35404   1.642  39.792   8.497
 2590POPC   C3A35405   1.733  39.921   8.092
 2590POPC   C4A35406   1.764  39.746   7.688
 2590POPC   C1B35407   2.141  40.388   8.714
 2590POPC   C2B35408   2.155  40.077   8.390
 2590POPC   C3B35409   2.171  40.125   7.948
 2590POPC   C4B35410   2.326  40.293   7.588
 2591POPC   NC335411  19.189  14.807   9.524
 2591POPC   PO435412  19.310  15.382   9.375
 2591POPC   GL135413  19.198  15.011   9.074
 2591POPC   GL235414  18.840  14.939   9.117
 2591POPC   C1A35415  19.130  14.822   8.689
 2591POPC   D2A35416  19.068  15.117   8.376
 2591POPC   C3A35417  19.013  15.021   7.986
 2591POPC   C4A35418  19.339  15.035   7.686
 2591POPC   C1B35419  18.670  15.089   8.691
 2591POPC   C2B35420  18.585  15.175   8.221
 2591POPC   C3B35421  18.513  15.145   7.753
 2591POPC   C4B35422  18.561  15.124   7.277
 2592POPC   NC335423  14.185  14.369   9.880
 2592POPC   PO435424  14.705  14.182   9.479
 2592POPC   GL135425  14.462  14.364   9.144
 2592POPC   GL235426  14.249  14.610   9.273
 2592POPC   C1A35427  14.375  14.216   8.702
 2592POPC   D2A35428  14.427  14.024   8.292
 2592POPC   C3A35429  14.316  14.302   7.974
 2592POPC   C4A35430  14.410  14.306   7.562
 2592POPC   C1B35431  14.269  14.708   8.806
 2592POPC   C2B35432  14.155  14.625   8.369
 2592POPC   C3B35433  14.151  14.790   7.940
 2592POPC   C4B35434  14.217  14.768   7.475
 2593POPC   NC335435  34.358  18.078   9.560
 2593POPC   PO435436  34.598  17.430   9.567
 2593POPC   GL135437  34.469  17.412   9.164
 2593POPC   GL235438  34.517  17.773   9.171
 2593POPC   C1A35439  34.346  17.529   8.755
 2593POPC   D2A35440  34.424  17.630   8.340
 2593POPC   C3A35441  34.446  17.311   8.037
 2593POPC   C4A35442  34.197  17.430   7.739
 2593POPC   C1B35443  34.878  17.593   8.898
 2593POPC   C2B35444  35.030  17.502   8.490
 2593POPC   C3B35445  34.888  17.550   8.103
 2593POPC   C4B35446  34.673  17.647   7.697
 2594POPC   NC335447  18.701  41.205   9.986
 2594POPC   PO435448  19.149  41.574   9.681
 2594POPC   GL135449  19.310  41.683   9.261
 2594POPC   GL235450  19.419  41.365   9.111
 2594POPC   C1A35451  19.251  41.773   8.833
 2594POPC   D2A35452  19.370  41.764   8.412
 2594POPC   C3A35453  19.062  41.857   8.086
 2594POPC   C4A35454  18.928  41.750   7.659
 2594POPC   C1B35455  19.436  41.207   8.690
 2594POPC   C2B35456  19.561  41.321   8.250
 2594POPC   C3B35457  19.263  41.377   7.887
 2594POPC   C4B35458  19.334  41.135   7.483
 2595POPC   NC335459  20.013  33.000   9.531
 2595POPC   PO435460  19.559  33.363   9.132
 2595POPC   GL135461  19.853  33.142   8.871
 2595POPC   GL235462  20.004  32.877   9.035
 2595POPC   C1A35463  19.659  33.017   8.499
 2595POPC   D2A35464  19.527  33.384   8.326
 2595POPC   C3A35465  19.899  33.452   8.104
 2595POPC   C4A35466  19.641  33.234   7.811
 2595POPC   C1B35467  19.913  32.588   8.692
 2595POPC   C2B35468  19.835  32.592   8.266
 2595POPC   C3B35469  19.981  32.862   7.912
 2595POPC   C4B35470  20.161  32.685   7.519
 2596POPC   NC335471   3.575  24.156   9.431
 2596POPC   PO435472   3.196  24.657   9.516
 2596POPC   GL135473   3.299  24.485   9.117
 2596POPC   GL235474   3.215  24.107   9.085
 2596POPC   C1A35475   3.418  24.671   8.695
 2596POPC   D2A35476   3.644  24.577   8.316
 2596POPC   C3A35477   3.490  24.725   7.911
 2596POPC   C4A35478   3.366  24.575   7.495
 2596POPC   C1B35479   3.512  24.151   8.746
 2596POPC   C2B35480   3.713  24.063   8.350
 2596POPC   C3B35481   3.571  24.201   7.956
 2596POPC   C4B35482   3.324  24.071   7.600
 2597POPC   NC335483  38.595  16.257   9.754
 2597POPC   PO435484  38.115  15.859   9.547
 2597POPC   GL135485  38.265  15.959   9.188
 2597POPC   GL235486  38.617  15.947   9.255
 2597POPC   C1A35487  38.367  15.787   8.806
 2597POPC   D2A35488  38.449  15.998   8.447
 2597POPC   C3A35489  38.424  15.775   8.104
 2597POPC   C4A35490  38.371  15.954   7.739
 2597POPC   C1B35491  38.713  16.182   8.856
 2597POPC   C2B35492  38.932  16.187   8.463
 2597POPC   C3B35493  38.740  16.186   8.039
 2597POPC   C4B35494  38.691  16.295   7.567
 2598POPC   NC335495  30.310  19.434   9.450
 2598POPC   PO435496  30.842  18.940   9.545
 2598POPC   GL135497  30.709  18.964   9.154
 2598POPC   GL235498  31.036  19.040   9.068
 2598POPC   C1A35499  30.461  19.126   8.791
 2598POPC   D2A35500  30.250  19.063   8.404
 2598POPC   C3A35501  30.412  19.001   8.022
 2598POPC   C4A35502  30.496  18.798   7.600
 2598POPC   C1B35503  30.928  18.924   8.693
 2598POPC   C2B35504  30.871  19.073   8.325
 2598POPC   C3B35505  30.893  18.914   7.955
 2598POPC   C4B35506  30.925  19.100   7.554
 2599POPC   NC335507  23.797  33.662   9.540
 2599POPC   PO435508  23.851  34.333   9.468
 2599POPC   GL135509  23.845  34.016   9.161
 2599POPC   GL235510  23.525  33.896   9.169
 2599POPC   C1A35511  23.751  34.025   8.719
 2599POPC   D2A35512  23.991  34.038   8.357
 2599POPC   C3A35513  23.776  33.859   8.039
 2599POPC   C4A35514  23.779  33.943   7.624
 2599POPC   C1B35515  23.425  33.620   8.800
 2599POPC   C2B35516  23.302  33.589   8.355
 2599POPC   C3B35517  23.366  33.591   7.888
 2599POPC   C4B35518  23.431  33.612   7.441
 2600POPC   NC335519   4.279  36.898   9.722
 2600POPC   PO435520   4.500  36.466   9.322
 2600POPC   GL135521   4.516  36.854   9.159
 2600POPC   GL235522   4.189  37.001   9.009
 2600POPC   C1A35523   4.620  36.876   8.740
 2600POPC   D2A35524   4.401  36.966   8.383
 2600POPC   C3A35525   4.494  36.772   8.028
 2600POPC   C4A35526   4.524  36.983   7.633
 2600POPC   C1B35527   4.144  36.648   8.691
 2600POPC   C2B35528   3.968  36.629   8.287
 2600POPC   C3B35529   4.017  36.903   7.940
 2600POPC   C4B35530   4.025  36.852   7.506
 2601POPC   NC335531  40.932  44.623   9.414
 2601POPC   PO435532  40.351  44.923   9.499
 2601POPC   GL135533  40.563  44.786   9.107
 2601POPC   GL235534  40.669  44.406   9.037
 2601POPC   C1A35535  40.717  44.752   8.694
 2601POPC   D2A35536  40.701  44.476   8.405
 2601POPC   C3A35537  40.729  44.674   8.017
 2601POPC   C4A35538  40.797  44.780   7.589
 2601POPC   C1B35539  41.061  44.351   8.731
 2601POPC   C2B35540  41.186  44.440   8.253
 2601POPC   C3B35541  41.099  44.404   7.791
 2601POPC   C4B35542  40.997  43.981   7.614
 2602POPC   NC335543   1.373  30.082   9.536
 2602POPC   PO435544   1.036  29.586   9.719
 2602POPC   GL135545   1.208  29.710   9.235
 2602POPC   GL235546   1.032  30.036   9.141
 2602POPC   C1A35547   1.280  29.812   8.762
 2602POPC   D2A35548   1.434  29.675   8.345
 2602POPC   C3A35549   1.181  29.703   7.986
 2602POPC   C4A35550   1.294  29.771   7.601
 2602POPC   C1B35551   0.948  30.209   8.748
 2602POPC   C2B35552   1.027  30.056   8.316
 2602POPC   C3B35553   1.027  30.167   7.856
 2602POPC   C4B35554   0.935  30.074   7.424
 2603POPC   NC335555  25.170  15.375   9.531
 2603POPC   PO435556  25.008  14.748   9.379
 2603POPC   GL135557  25.106  15.012   9.043
 2603POPC   GL235558  25.357  15.231   9.082
 2603POPC   C1A35559  25.175  15.052   8.605
 2603POPC   D2A35560  25.519  15.057   8.334
 2603POPC   C3A35561  25.377  14.996   7.922
 2603POPC   C4A35562  24.992  15.169   7.737
 2603POPC   C1B35563  25.504  15.460   8.765
 2603POPC   C2B35564  25.316  15.524   8.396
 2603POPC   C3B35565  25.591  15.478   8.071
 2603POPC   C4B35566  25.357  15.510   7.738
 2604POPC   NC335567  32.220  13.712   9.702
 2604POPC   PO435568  32.081  13.083   9.612
 2604POPC   GL135569  32.128  13.391   9.220
 2604POPC   GL235570  32.058  13.738   9.119
 2604POPC   C1A35571  32.408  13.486   8.815
 2604POPC   D2A35572  32.413  13.797   8.449
 2604POPC   C3A35573  32.486  13.642   8.019
 2604POPC   C4A35574  32.328  13.732   7.631
 2604POPC   C1B35575  31.892  13.472   8.775
 2604POPC   C2B35576  32.017  13.439   8.380
 2604POPC   C3B35577  31.987  13.715   8.059
 2604POPC   C4B35578  31.853  13.597   7.674
 2605POPC   NC335579   7.220  30.360   9.694
 2605POPC   PO435580   7.031  29.913   9.185
 2605POPC   GL135581   7.388  29.950   8.917
 2605POPC   GL235582   7.393  30.253   9.047
 2605POPC   C1A35583   7.624  30.117   8.613
 2605POPC   D2A35584   7.732  29.993   8.238
 2605POPC   C3A35585   7.352  29.887   8.029
 2605POPC   C4A35586   7.327  29.841   7.624
 2605POPC   C1B35587   7.147  30.249   8.618
 2605POPC   C2B35588   7.332  30.350   8.230
 2605POPC   C3B35589   7.384  30.344   7.797
 2605POPC   C4B35590   7.111  30.301   7.449
 2606POPC   NC335591  32.634  34.004   9.550
 2606POPC   PO435592  32.116  33.502   9.424
 2606POPC   GL135593  32.099  33.830   9.108
 2606POPC   GL235594  32.322  34.139   9.140
 2606POPC   C1A35595  32.257  33.858   8.681
 2606POPC   D2A35596  32.478  34.027   8.314
 2606POPC   C3A35597  32.171  33.980   8.001
 2606POPC   C4A35598  31.949  33.682   7.793
 2606POPC   C1B35599  32.702  33.923   8.913
 2606POPC   C2B35600  32.875  33.770   8.501
 2606POPC   C3B35601  32.686  33.613   8.081
 2606POPC   C4B35602  32.464  33.673   7.686
 2607POPC   NC335603   1.086  38.060   9.729
 2607POPC   PO435604   1.495  37.658   9.652
 2607POPC   GL135605   1.524  37.810   9.204
 2607POPC   GL235606   1.191  37.955   9.113
 2607POPC   C1A35607   1.523  37.865   8.731
 2607POPC   D2A35608   1.470  37.682   8.307
 2607POPC   C3A35609   1.349  37.845   7.905
 2607POPC   C4A35610   1.347  37.742   7.462
 2607POPC   C1B35611   1.021  37.805   8.682
 2607POPC   C2B35612   0.940  37.724   8.207
 2607POPC   C3B35613   0.944  37.574   7.755
 2607POPC   C4B35614   0.760  37.683   7.344
 2608POPC   NC335615  10.301  27.459   9.516
 2608POPC   PO435616  10.976  27.831   9.512
 2608POPC   GL135617  10.683  27.686   9.161
 2608POPC   GL235618  10.339  27.768   9.116
 2608POPC   C1A35619  10.578  27.427   8.767
 2608POPC   D2A35620  10.349  27.328   8.379
 2608POPC   C3A35621  10.458  27.540   8.025
 2608POPC   C4A35622  10.659  27.383   7.642
 2608POPC   C1B35623  10.234  27.781   8.678
 2608POPC   C2B35624   9.975  27.651   8.346
 2608POPC   C3B35625   9.960  27.559   7.916
 2608POPC   C4B35626  10.217  27.653   7.568
 2609POPC   NC335627   8.600  32.531   9.534
 2609POPC   PO435628   9.122  32.335   9.426
 2609POPC   GL135629   8.890  32.134   9.183
 2609POPC   GL235630   9.141  31.849   9.218
 2609POPC   C1A35631   8.801  32.280   8.777
 2609POPC   D2A35632   8.669  32.344   8.366
 2609POPC   C3A35633   8.958  32.313   8.062
 2609POPC   C4A35634   8.822  32.197   7.698
 2609POPC   C1B35635   8.991  31.815   8.793
 2609POPC   C2B35636   9.104  31.988   8.430
 2609POPC   C3B35637   9.233  31.888   8.014
 2609POPC   C4B35638   9.343  32.168   7.682
 2610POPC   NC335639  28.179   4.789   9.494
 2610POPC   PO435640  28.564   4.243   9.546
 2610POPC   GL135641  28.362   4.365   9.172
 2610POPC   GL235642  28.502   4.670   9.137
 2610POPC   C1A35643  28.391   4.319   8.707
 2610POPC   D2A35644  28.631   4.380   8.312
 2610POPC   C3A35645  28.438   4.226   7.952
 2610POPC   C4A35646  28.732   3.937   7.759
 2610POPC   C1B35647  28.216   4.792   8.801
 2610POPC   C2B35648  28.289   4.749   8.379
 2610POPC   C3B35649  28.117   4.636   7.988
 2610POPC   C4B35650  28.088   4.911   7.681
 2611POPC   NC335651  42.673  25.283   9.316
 2611POPC   PO435652  43.284  25.397   9.262
 2611POPC   GL135653  43.225  24.988   9.060
 2611POPC   GL235654  42.878  24.872   9.076
 2611POPC   C1A35655  43.172  24.860   8.635
 2611POPC   D2A35656  43.024  24.991   8.245
 2611POPC   C3A35657  43.206  25.373   8.116
 2611POPC   C4A35658  43.451  25.447   7.777
 2611POPC   C1B35659  42.686  25.041   8.682
 2611POPC   C2B35660  42.675  25.411   8.412
 2611POPC   C3B35661  42.731  25.527   7.981
 2611POPC   C4B35662  42.960  25.238   7.689
 2612POPC   NC335663  10.544  11.409   9.576
 2612POPC   PO435664  10.052  11.890   9.531
 2612POPC   GL135665  10.262  11.557   9.197
 2612POPC   GL235666  10.644  11.574   9.118
 2612POPC   C1A35667  10.318  11.281   8.822
 2612POPC   D2A35668  10.092  11.265   8.437
 2612POPC   C3A35669  10.334  11.213   8.075
 2612POPC   C4A35670  10.507  11.579   7.883
 2612POPC   C1B35671  10.834  11.372   8.789
 2612POPC   C2B35672  10.688  11.410   8.393
 2612POPC   C3B35673  10.857  11.224   8.039
 2612POPC   C4B35674  10.932  11.414   7.667
 2613POPC   NC335675   9.603  31.192   9.517
 2613POPC   PO435676   9.850  31.824   9.504
 2613POPC   GL135677   9.622  31.617   9.215
 2613POPC   GL235678   9.812  31.335   9.078
 2613POPC   C1A35679   9.445  31.612   8.826
 2613POPC   D2A35680   9.530  31.462   8.410
 2613POPC   C3A35681   9.695  31.690   8.012
 2613POPC   C4A35682   9.525  31.669   7.581
 2613POPC   C1B35683   9.950  31.604   8.763
 2613POPC   C2B35684  10.033  31.509   8.346
 2613POPC   C3B35685   9.836  31.197   8.092
 2613POPC   C4B35686   9.857  31.279   7.668
 2614POPC   NC335687  14.400  15.450   9.473
 2614POPC   PO435688  14.555  16.126   9.423
 2614POPC   GL135689  14.192  15.950   9.171
 2614POPC   GL235690  14.196  15.609   9.039
 2614POPC   C1A35691  14.033  15.958   8.728
 2614POPC   D2A35692  14.266  15.977   8.353
 2614POPC   C3A35693  14.227  16.168   7.970
 2614POPC   C4A35694  14.108  15.903   7.665
 2614POPC   C1B35695  14.532  15.835   8.802
 2614POPC   C2B35696  14.764  15.901   8.406
 2614POPC   C3B35697  14.649  15.829   7.976
 2614POPC   C4B35698  14.616  15.534   7.635
 2615POPC   NC335699  19.663   7.151   9.544
 2615POPC   PO435700  19.897   7.770   9.431
 2615POPC   GL135701  19.870   7.490   9.085
 2615POPC   GL235702  19.685   7.167   9.044
 2615POPC   C1A35703  19.678   7.518   8.669
 2615POPC   D2A35704  19.589   7.684   8.250
 2615POPC   C3A35705  19.735   7.454   7.885
 2615POPC   C4A35706  19.732   7.572   7.452
 2615POPC   C1B35707  20.024   7.146   8.744
 2615POPC   C2B35708  19.969   7.234   8.310
 2615POPC   C3B35709  20.062   7.034   7.916
 2615POPC   C4B35710  19.939   7.113   7.509
 2616POPC   NC335711  34.018  13.507   9.470
 2616POPC   PO435712  33.409  13.817   9.481
 2616POPC   GL135713  33.619  13.511   9.163
 2616POPC   GL235714  33.609  13.753   8.962
 2616POPC   C1A35715  33.946  13.391   8.764
 2616POPC   D2A35716  34.194  13.350   8.293
 2616POPC   C3A35717  34.113  13.586   7.855
 2616POPC   C4A35718  33.942  13.488   7.422
 2616POPC   C1B35719  33.661  13.729   8.535
 2616POPC   C2B35720  33.703  13.529   8.138
 2616POPC   C3B35721  33.598  13.748   7.736
 2616POPC   C4B35722  33.600  13.880   7.255
 2617POPC   NC335723  40.041  26.522   9.316
 2617POPC   PO435724  39.993  25.869   9.488
 2617POPC   GL135725  40.076  26.044   9.126
 2617POPC   GL235726  40.397  26.178   9.175
 2617POPC   C1A35727  40.029  26.073   8.716
 2617POPC   D2A35728  40.093  25.837   8.411
 2617POPC   C3A35729  40.039  26.064   8.045
 2617POPC   C4A35730  40.062  25.822   7.700
 2617POPC   C1B35731  40.419  26.369   8.785
 2617POPC   C2B35732  40.464  26.172   8.403
 2617POPC   C3B35733  40.490  26.295   8.016
 2617POPC   C4B35734  40.341  26.385   7.641
 2618POPC   NC335735   7.308  20.140   9.581
 2618POPC   PO435736   7.782  20.659   9.653
 2618POPC   GL135737   7.582  20.599   9.258
 2618POPC   GL235738   7.643  20.279   9.207
 2618POPC   C1A35739   7.326  20.661   8.876
 2618POPC   D2A35740   7.519  20.648   8.461
 2618POPC   C3A35741   7.297  20.582   8.090
 2618POPC   C4A35742   7.320  20.713   7.669
 2618POPC   C1B35743   7.545  20.216   8.790
 2618POPC   C2B35744   7.561  20.136   8.337
 2618POPC   C3B35745   7.649  20.255   7.917
 2618POPC   C4B35746   7.733  20.207   7.509
 2619POPC   NC335747  17.465   1.511   9.546
 2619POPC   PO435748  17.922   0.976   9.484
 2619POPC   GL135749  17.488   1.161   9.174
 2619POPC   GL235750  17.138   1.424   9.179
 2619POPC   C1A35751  17.192   1.061   8.835
 2619POPC   D2A35752  17.342   1.216   8.443
 2619POPC   C3A35753  17.245   1.030   8.046
 2619POPC   C4A35754  17.445   1.214   7.666
 2619POPC   C1B35755  17.289   1.590   8.815
 2619POPC   C2B35756  17.310   1.749   8.433
 2619POPC   C3B35757  17.435   1.560   8.065
 2619POPC   C4B35758  17.400   1.744   7.700
 2620POPC   NC335759  18.739   4.966   9.465
 2620POPC   PO435760  19.244   5.410   9.539
 2620POPC   GL135761  19.150   5.266   9.108
 2620POPC   GL235762  18.838   5.436   9.076
 2620POPC   C1A35763  19.255   4.957   8.742
 2620POPC   D2A35764  19.194   4.717   8.347
 2620POPC   C3A35765  19.043   5.003   8.024
 2620POPC   C4A35766  18.983   5.320   7.702
 2620POPC   C1B35767  18.754   5.065   8.811
 2620POPC   C2B35768  18.701   4.829   8.454
 2620POPC   C3B35769  18.543   4.852   8.048
 2620POPC   C4B35770  18.713   4.891   7.647
 2621POPC   NC335771  13.736   2.465   9.798
 2621POPC   PO435772  13.171   2.786   9.671
 2621POPC   GL135773  13.430   2.739   9.285
 2621POPC   GL235774  13.756   2.591   9.232
 2621POPC   C1A35775  13.486   2.705   8.828
 2621POPC   D2A35776  13.370   2.836   8.425
 2621POPC   C3A35777  13.594   2.737   8.065
 2621POPC   C4A35778  13.385   2.704   7.709
 2621POPC   C1B35779  13.984   2.543   8.811
 2621POPC   C2B35780  13.915   2.444   8.345
 2621POPC   C3B35781  14.041   2.439   7.930
 2621POPC   C4B35782  13.883   2.663   7.618
 2622POPC   NC335783  40.109  39.941   9.580
 2622POPC   PO435784  39.518  39.792   9.423
 2622POPC   GL135785  39.740  40.162   9.191
 2622POPC   GL235786  40.092  40.299   9.222
 2622POPC   C1A35787  39.818  40.187   8.774
 2622POPC   D2A35788  39.625  40.004   8.412
 2622POPC   C3A35789  39.833  40.083   8.038
 2622POPC   C4A35790  39.981  39.809   7.732
 2622POPC   C1B35791  40.325  40.149   8.853
 2622POPC   C2B35792  40.188  40.064   8.418
 2622POPC   C3B35793  40.363  40.122   7.990
 2622POPC   C4B35794  40.237  40.234   7.587
 2623POPC   NC335795  10.827   0.935   9.749
 2623POPC   PO435796  11.337   1.351   9.475
 2623POPC   GL135797  11.412   1.155   9.128
 2623POPC   GL235798  11.651   1.384   9.035
 2623POPC   C1A35799  11.332   1.196   8.704
 2623POPC   D2A35800  11.479   1.110   8.338
 2623POPC   C3A35801  11.245   1.168   7.968
 2623POPC   C4A35802  10.978   0.882   7.738
 2623POPC   C1B35803  11.649   1.594   8.641
 2623POPC   C2B35804  11.621   1.560   8.202
 2623POPC   C3B35805  11.581   1.516   7.801
 2623POPC   C4B35806  11.663   1.725   7.462
 2624POPC   NC335807  12.198  11.193   9.415
 2624POPC   PO435808  11.729  11.685   9.487
 2624POPC   GL135809  11.882  11.480   9.115
 2624POPC   GL235810  11.738  11.111   9.094
 2624POPC   C1A35811  12.189  11.476   8.720
 2624POPC   D2A35812  12.324  11.187   8.346
 2624POPC   C3A35813  12.198  11.198   7.885
 2624POPC   C4A35814  11.902  10.969   7.548
 2624POPC   C1B35815  11.709  11.310   8.685
 2624POPC   C2B35816  11.863  11.459   8.296
 2624POPC   C3B35817  11.706  11.325   7.910
 2624POPC   C4B35818  11.895  11.471   7.545
 2625POPC   NC335819  34.724  40.108   9.512
 2625POPC   PO435820  34.347  39.568   9.246
 2625POPC   GL135821  34.683  39.805   8.989
 2625POPC   GL235822  34.888  40.143   9.042
 2625POPC   C1A35823  34.637  40.081   8.604
 2625POPC   D2A35824  34.666  40.232   8.192
 2625POPC   C3A35825  34.501  39.991   7.896
 2625POPC   C4A35826  34.245  40.267   7.705
 2625POPC   C1B35827  35.139  40.021   8.689
 2625POPC   C2B35828  35.110  40.026   8.256
 2625POPC   C3B35829  35.018  40.061   7.820
 2625POPC   C4B35830  35.123  39.965   7.371
 2626POPC   NC335831  19.074   0.931   9.782
 2626POPC   PO435832  19.332   0.411   9.388
 2626POPC   GL135833  19.048   0.465   9.047
 2626POPC   GL235834  18.911   0.775   8.961
 2626POPC   C1A35835  19.034   0.230   8.714
 2626POPC   D2A35836  19.334   0.283   8.409
 2626POPC   C3A35837  19.144   0.088   8.059
 2626POPC   C4A35838  18.966   0.338   7.746
 2626POPC   C1B35839  19.146   0.753   8.590
 2626POPC   C2B35840  19.397   0.953   8.265
 2626POPC   C3B35841  19.289   1.064   7.851
 2626POPC   C4B35842  18.922   0.831   7.658
 2627POPC   NC335843  37.985  32.368   9.405
 2627POPC   PO435844  38.365  31.895   9.437
 2627POPC   GL135845  38.371  32.201   9.109
 2627POPC   GL235846  38.569  32.483   9.206
 2627POPC   C1A35847  38.379  32.297   8.678
 2627POPC   D2A35848  38.524  32.139   8.306
 2627POPC   C3A35849  38.380  32.350   7.948
 2627POPC   C4A35850  38.126  32.242   7.610
 2627POPC   C1B35851  38.828  32.477   8.831
 2627POPC   C2B35852  38.767  32.577   8.375
 2627POPC   C3B35853  38.891  32.469   7.933
 2627POPC   C4B35854  38.712  32.370   7.487
 2628POPC   NC335855  37.336  18.515   9.439
 2628POPC   PO435856  37.815  18.033   9.554
 2628POPC   GL135857  37.712  18.124   9.133
 2628POPC   GL235858  37.425  18.303   8.989
 2628POPC   C1A35859  37.955  18.252   8.781
 2628POPC   D2A35860  37.857  18.480   8.416
 2628POPC   C3A35861  37.667  18.427   8.046
 2628POPC   C4A35862  37.787  18.337   7.637
 2628POPC   C1B35863  37.498  18.020   8.651
 2628POPC   C2B35864  37.310  17.945   8.247
 2628POPC   C3B35865  37.456  18.013   7.843
 2628POPC   C4B35866  37.387  18.160   7.419
 2629POPC   NC335867  25.931   8.192   9.445
 2629POPC   PO435868  26.472   8.567   9.459
 2629POPC   GL135869  26.323   8.265   9.087
 2629POPC   GL235870  26.060   7.982   9.008
 2629POPC   C1A35871  26.315   8.162   8.620
 2629POPC   D2A35872  26.038   8.208   8.259
 2629POPC   C3A35873  26.203   8.262   7.815
 2629POPC   C4A35874  26.260   8.337   7.339
 2629POPC   C1B35875  25.689   8.041   8.706
 2629POPC   C2B35876  25.493   8.183   8.295
 2629POPC   C3B35877  25.700   8.184   7.870
 2629POPC   C4B35878  25.777   8.103   7.438
 2630POPC   NC335879  36.059  17.203   9.672
 2630POPC   PO435880  36.457  17.792   9.619
 2630POPC   GL135881  36.193  17.739   9.133
 2630POPC   GL235882  35.914  17.429   9.176
 2630POPC   C1A35883  36.193  17.491   8.742
 2630POPC   D2A35884  36.042  17.659   8.365
 2630POPC   C3A35885  36.234  17.664   7.991
 2630POPC   C4A35886  35.907  17.651   7.655
 2630POPC   C1B35887  35.751  17.191   8.834
 2630POPC   C2B35888  35.914  17.065   8.459
 2630POPC   C3B35889  35.947  17.238   8.068
 2630POPC   C4B35890  36.230  17.251   7.725
 2631POPC   NC335891  29.748  41.148   9.386
 2631POPC   PO435892  30.011  40.567   9.444
 2631POPC   GL135893  29.916  40.756   9.065
 2631POPC   GL235894  30.077  41.061   9.017
 2631POPC   C1A35895  29.943  40.741   8.623
 2631POPC   D2A35896  29.996  40.612   8.220
 2631POPC   C3A35897  29.932  40.955   7.970
 2631POPC   C4A35898  29.684  40.997   7.608
 2631POPC   C1B35899  30.331  41.064   8.697
 2631POPC   C2B35900  30.350  40.960   8.284
 2631POPC   C3B35901  30.480  41.142   7.905
 2631POPC   C4B35902  30.490  41.353   7.511
 2632POPC   NC335903   9.176  33.092   9.550
 2632POPC   PO435904   8.548  32.912   9.791
 2632POPC   GL135905   8.718  33.007   9.327
 2632POPC   GL235906   8.881  32.705   9.132
 2632POPC   C1A35907   8.907  33.172   8.906
 2632POPC   D2A35908   9.140  32.972   8.523
 2632POPC   C3A35909   9.011  33.137   8.104
 2632POPC   C4A35910   9.041  33.330   7.706
 2632POPC   C1B35911   8.692  32.769   8.696
 2632POPC   C2B35912   8.513  32.817   8.259
 2632POPC   C3B35913   8.745  32.738   7.866
 2632POPC   C4B35914   9.096  32.663   7.614
 2633POPC   NC335915  29.191  15.982   9.557
 2633POPC   PO435916  29.208  15.335   9.503
 2633POPC   GL135917  29.283  15.700   9.151
 2633POPC   GL235918  28.996  15.975   9.094
 2633POPC   C1A35919  29.135  15.689   8.707
 2633POPC   D2A35920  28.863  16.008   8.481
 2633POPC   C3A35921  28.963  15.992   8.044
 2633POPC   C4A35922  29.339  15.837   7.824
 2633POPC   C1B35923  29.305  16.159   8.816
 2633POPC   C2B35924  29.398  16.146   8.365
 2633POPC   C3B35925  29.311  16.370   8.006
 2633POPC   C4B35926  28.937  16.514   7.840
 2634POPC   NC335927   3.466  42.002   9.381
 2634POPC   PO435928   3.374  42.591   9.459
 2634POPC   GL135929   3.562  42.423   9.083
 2634POPC   GL235930   3.750  42.154   8.991
 2634POPC   C1A35931   3.409  42.425   8.675
 2634POPC   D2A35932   3.264  42.269   8.296
 2634POPC   C3A35933   3.347  42.536   7.971
 2634POPC   C4A35934   3.814  42.624   7.925
 2634POPC   C1B35935   3.505  41.928   8.707
 2634POPC   C2B35936   3.679  41.971   8.326
 2634POPC   C3B35937   3.654  42.097   7.915
 2634POPC   C4B35938   3.764  41.913   7.483
 2635POPC   NC335939  10.770   9.956   9.464
 2635POPC   PO435940  10.224   9.454   9.488
 2635POPC   GL135941  10.420   9.718   9.168
 2635POPC   GL235942  10.352  10.039   9.086
 2635POPC   C1A35943  10.708   9.743   8.818
 2635POPC   D2A35944  10.896   9.675   8.411
 2635POPC   C3A35945  10.675   9.731   8.043
 2635POPC   C4A35946  10.808   9.831   7.598
 2635POPC   C1B35947  10.546  10.226   8.717
 2635POPC   C2B35948  10.841  10.233   8.368
 2635POPC   C3B35949  10.688  10.223   7.954
 2635POPC   C4B35950  10.342   9.950   7.739
 2636POPC   NC335951   2.940  42.490   9.579
 2636POPC   PO435952   2.373  42.807   9.426
 2636POPC   GL135953   2.645  42.481   9.167
 2636POPC   GL235954   3.044  42.407   9.097
 2636POPC   C1A35955   2.727  42.551   8.746
 2636POPC   D2A35956   2.489  42.603   8.393
 2636POPC   C3A35957   2.751  42.626   8.053
 2636POPC   C4A35958   2.631  42.526   7.651
 2636POPC   C1B35959   3.016  42.117   8.751
 2636POPC   C2B35960   2.780  42.190   8.380
 2636POPC   C3B35961   2.880  42.138   7.977
 2636POPC   C4B35962   3.028  42.120   7.581
 2637POPC   NC335963  35.926  19.360   9.432
 2637POPC   PO435964  36.047  20.082   9.465
 2637POPC   GL135965  36.260  19.961   9.107
 2637POPC   GL235966  36.224  19.612   9.096
 2637POPC   C1A35967  36.221  19.931   8.673
 2637POPC   D2A35968  36.224  20.157   8.301
 2637POPC   C3A35969  35.868  20.005   8.118
 2637POPC   C4A35970  35.736  19.635   7.916
 2637POPC   C1B35971  36.435  19.417   8.750
 2637POPC   C2B35972  36.495  19.568   8.339
 2637POPC   C3B35973  36.394  19.788   7.966
 2637POPC   C4B35974  36.233  20.177   7.778
 2638POPC   NC335975  41.971  12.299   9.612
 2638POPC   PO435976  41.392  12.091   9.579
 2638POPC   GL135977  41.470  12.137   9.142
 2638POPC   GL235978  41.787  12.024   9.191
 2638POPC   C1A35979  41.344  11.924   8.753
 2638POPC   D2A35980  41.198  12.067   8.364
 2638POPC   C3A35981  41.436  11.993   8.012
 2638POPC   C4A35982  41.428  12.245   7.680
 2638POPC   C1B35983  41.910  11.881   8.773
 2638POPC   C2B35984  42.041  12.034   8.363
 2638POPC   C3B35985  41.894  12.229   7.969
 2638POPC   C4B35986  41.807  11.914   7.631
 2639POPC   NC335987   1.133  19.790   9.585
 2639POPC   PO435988   1.613  20.054   9.206
 2639POPC   GL135989   1.377  19.664   9.098
 2639POPC   GL235990   0.987  19.570   9.161
 2639POPC   C1A35991   1.408  19.708   8.654
 2639POPC   D2A35992   1.706  19.800   8.352
 2639POPC   C3A35993   1.464  20.056   8.133
 2639POPC   C4A35994   1.249  19.863   7.814
 2639POPC   C1B35995   0.898  19.590   8.745
 2639POPC   C2B35996   1.001  19.739   8.332
 2639POPC   C3B35997   0.843  19.579   7.962
 2639POPC   C4B35998   0.647  19.603   7.580
 2640POPC   NC335999  22.589  26.290   9.615
 2640POPC   PO436000  22.709  25.702   9.458
 2640POPC   GL136001  22.958  25.910   9.137
 2640POPC   GL236002  23.231  26.118   9.245
 2640POPC   C1A36003  22.841  26.099   8.762
 2640POPC   D2A36004  22.944  26.074   8.343
 2640POPC   C3A36005  22.677  25.970   8.020
 2640POPC   C4A36006  22.659  25.976   7.585
 2640POPC   C1B36007  23.303  26.320   8.834
 2640POPC   C2B36008  23.373  26.338   8.376
 2640POPC   C3B36009  23.163  26.339   7.950
 2640POPC   C4B36010  23.272  26.407   7.508
 2641POPC   NC336011  17.606   3.780   9.546
 2641POPC   PO436012  17.884   3.228   9.529
 2641POPC   GL136013  17.679   3.396   9.159
 2641POPC   GL236014  17.390   3.523   8.947
 2641POPC   C1A36015  17.731   3.261   8.722
 2641POPC   D2A36016  17.561   3.582   8.420
 2641POPC   C3A36017  17.606   3.446   8.007
 2641POPC   C4A36018  17.367   3.568   7.679
 2641POPC   C1B36019  17.830   3.748   8.818
 2641POPC   C2B36020  18.002   3.888   8.418
 2641POPC   C3B36021  17.829   3.996   8.015
 2641POPC   C4B36022  17.974   3.951   7.608
 2642POPC   NC336023  40.804  42.976   9.476
 2642POPC   PO436024  40.816  43.544   9.789
 2642POPC   GL136025  40.781  43.451   9.275
 2642POPC   GL236026  41.021  43.475   9.057
 2642POPC   C1A36027  40.614  43.147   8.896
 2642POPC   D2A36028  40.269  43.182   8.574
 2642POPC   C3A36029  40.372  43.315   8.149
 2642POPC   C4A36030  40.655  43.193   7.805
 2642POPC   C1B36031  41.067  43.279   8.703
 2642POPC   C2B36032  40.905  43.376   8.329
 2642POPC   C3B36033  41.105  43.352   7.961
 2642POPC   C4B36034  41.122  42.947   7.789
 2643POPC   NC336035   8.578  10.965   9.264
 2643POPC   PO436036   9.179  11.349   9.434
 2643POPC   GL136037   8.972  11.323   9.046
 2643POPC   GL236038   8.871  11.647   8.850
 2643POPC   C1A36039   8.877  11.193   8.632
 2643POPC   D2A36040   8.878  10.918   8.315
 2643POPC   C3A36041   8.976  11.119   7.954
 2643POPC   C4A36042   8.693  11.352   7.719
 2643POPC   C1B36043   9.245  11.570   8.691
 2643POPC   C2B36044   9.195  11.465   8.305
 2643POPC   C3B36045   9.119  11.800   8.048
 2643POPC   C4B36046   9.167  11.552   7.697
 2644POPC   NC336047  20.343  43.145   9.462
 2644POPC   PO436048  20.981  42.961   9.733
 2644POPC   GL136049  20.846  43.079   9.288
 2644POPC   GL236050  20.667  42.819   9.171
 2644POPC   C1A36051  20.607  43.232   8.859
 2644POPC   D2A36052  20.251  43.292   8.560
 2644POPC   C3A36053  20.474  43.210   8.168
 2644POPC   C4A36054  20.895  43.382   8.007
 2644POPC   C1B36055  20.875  42.803   8.811
 2644POPC   C2B36056  20.871  43.029   8.436
 2644POPC   C3B36057  20.873  42.873   8.012
 2644POPC   C4B36058  21.046  43.025   7.615
 2645POPC   NC336059   9.846  43.464   9.445
 2645POPC   PO436060   9.548  42.806   9.410
 2645POPC   GL136061   9.603  43.131   9.122
 2645POPC   GL236062   9.964  43.125   9.041
 2645POPC   C1A36063   9.545  43.007   8.725
 2645POPC   D2A36064   9.864  42.864   8.482
 2645POPC   C3A36065   9.762  42.871   8.066
 2645POPC   C4A36066   9.653  43.013   7.657
 2645POPC   C1B36067   9.837  43.441   8.754
 2645POPC   C2B36068   9.680  43.350   8.360
 2645POPC   C3B36069   9.873  43.370   7.978
 2645POPC   C4B36070   9.818  43.497   7.580
 2646POPC   NC336071  24.525  16.502   9.418
 2646POPC   PO436072  24.015  16.862   9.289
 2646POPC   GL136073  24.404  16.839   8.991
 2646POPC   GL236074  24.688  16.598   8.958
 2646POPC   C1A36075  24.363  16.722   8.551
 2646POPC   D2A36076  24.142  16.502   8.207
 2646POPC   C3A36077  24.252  16.776   7.874
 2646POPC   C4A36078  24.518  17.169   7.857
 2646POPC   C1B36079  24.820  16.457   8.560
 2646POPC   C2B36080  24.716  16.620   8.155
 2646POPC   C3B36081  24.729  16.656   7.706
 2646POPC   C4B36082  24.830  16.658   7.254
 2647POPC   NC336083  38.871  20.511   9.462
 2647POPC   PO436084  39.415  20.921   9.541
 2647POPC   GL136085  39.140  20.878   9.234
 2647POPC   GL236086  39.261  20.565   9.111
 2647POPC   C1A36087  39.079  20.937   8.817
 2647POPC   D2A36088  39.299  21.093   8.473
 2647POPC   C3A36089  39.239  20.795   8.188
 2647POPC   C4A36090  39.108  20.892   7.802
 2647POPC   C1B36091  39.070  20.421   8.728
 2647POPC   C2B36092  39.123  20.283   8.297
 2647POPC   C3B36093  39.180  20.372   7.867
 2647POPC   C4B36094  39.482  20.317   7.520
 2648POPC   NC336095  21.140  18.378   9.620
 2648POPC   PO436096  21.837  18.609   9.570
 2648POPC   GL136097  21.616  18.372   9.276
 2648POPC   GL236098  21.300  18.430   9.139
 2648POPC   C1A36099  21.722  18.340   8.831
 2648POPC   D2A36100  21.595  18.447   8.406
 2648POPC   C3A36101  21.766  18.317   8.031
 2648POPC   C4A36102  21.480  18.194   7.734
 2648POPC   C1B36103  21.243  18.218   8.709
 2648POPC   C2B36104  21.328  18.016   8.273
 2648POPC   C3B36105  21.058  17.987   7.889
 2648POPC   C4B36106  20.946  18.395   7.658
 2649POPC   NC336107   1.219  42.085   9.662
 2649POPC   PO436108   1.145  41.397   9.502
 2649POPC   GL136109   1.305  41.523   9.145
 2649POPC   GL236110   1.504  41.815   9.306
 2649POPC   C1A36111   1.439  41.345   8.728
 2649POPC   D2A36112   1.513  41.394   8.261
 2649POPC   C3A36113   1.342  41.401   7.816
 2649POPC   C4A36114   1.027  41.732   7.626
 2649POPC   C1B36115   1.564  41.834   8.861
 2649POPC   C2B36116   1.272  41.810   8.514
 2649POPC   C3B36117   1.243  41.850   8.081
 2649POPC   C4B36118   1.501  41.875   7.723
 2650POPC   NC336119   0.454  43.262   9.543
 2650POPC   PO436120   0.307  42.662   9.336
 2650POPC   GL136121   0.624  42.978   9.126
 2650POPC   GL236122   0.635  43.358   9.089
 2650POPC   C1A36123   0.600  43.074   8.673
 2650POPC   D2A36124   0.687  42.904   8.299
 2650POPC   C3A36125   0.467  43.056   7.951
 2650POPC   C4A36126   0.648  42.936   7.564
 2650POPC   C1B36127   0.272  43.446   8.789
 2650POPC   C2B36128   0.175  43.301   8.397
 2650POPC   C3B36129   0.129  43.475   8.023
 2650POPC   C4B36130   0.131  43.637   7.609
 2651POPC   NC336131  21.885   6.413   9.406
 2651POPC   PO436132  22.350   6.838   9.564
 2651POPC   GL136133  22.231   6.714   9.122
 2651POPC   GL236134  21.913   6.814   9.042
 2651POPC   C1A36135  22.203   6.651   8.628
 2651POPC   D2A36136  22.466   6.457   8.297
 2651POPC   C3A36137  22.360   6.513   7.848
 2651POPC   C4A36138  22.377   6.745   7.424
 2651POPC   C1B36139  21.752   6.441   8.791
 2651POPC   C2B36140  21.967   6.195   8.533
 2651POPC   C3B36141  21.858   6.483   8.219
 2651POPC   C4B36142  21.851   6.505   7.786
 2652POPC   NC336143  42.851   6.124   9.290
 2652POPC   PO436144  43.404   6.530   9.473
 2652POPC   GL136145  43.319   6.717   9.098
 2652POPC   GL236146  42.981   6.551   9.033
 2652POPC   C1A36147  43.287   6.678   8.675
 2652POPC   D2A36148  43.009   6.628   8.379
 2652POPC   C3A36149  43.226   6.571   8.052
 2652POPC   C4A36150  43.131   6.758   7.718
 2652POPC   C1B36151  42.945   6.211   8.650
 2652POPC   C2B36152  42.956   6.102   8.163
 2652POPC   C3B36153  42.970   6.266   7.714
 2652POPC   C4B36154  42.774   6.471   7.310
 2653POPC   NC336155  19.118  13.104   9.495
 2653POPC   PO436156  18.797  12.436   9.518
 2653POPC   GL136157  19.060  12.696   9.172
 2653POPC   GL236158  18.944  13.012   8.971
 2653POPC   C1A36159  19.383  12.833   8.844
 2653POPC   D2A36160  19.299  13.104   8.491
 2653POPC   C3A36161  19.222  12.833   8.143
 2653POPC   C4A36162  19.300  12.932   7.720
 2653POPC   C1B36163  18.944  12.746   8.598
 2653POPC   C2B36164  18.713  12.748   8.220
 2653POPC   C3B36165  18.806  13.015   7.896
 2653POPC   C4B36166  18.857  12.954   7.483
 2654POPC   NC336167  31.473  36.684   9.647
 2654POPC   PO436168  31.530  36.044   9.500
 2654POPC   GL136169  31.577  36.114   9.107
 2654POPC   GL236170  31.791  36.441   9.041
 2654POPC   C1A36171  31.237  36.060   8.763
 2654POPC   D2A36172  31.227  36.281   8.377
 2654POPC   C3A36173  31.262  36.027   7.977
 2654POPC   C4A36174  31.254  36.157   7.556
 2654POPC   C1B36175  31.695  36.231   8.638
 2654POPC   C2B36176  31.690  36.149   8.214
 2654POPC   C3B36177  31.737  36.156   7.790
 2654POPC   C4B36178  31.849  36.267   7.365
 2655POPC   NC336179  33.350  10.298   9.428
 2655POPC   PO436180  32.927  10.784   9.464
 2655POPC   GL136181  33.001  10.506   9.130
 2655POPC   GL236182  33.332  10.593   9.003
 2655POPC   C1A36183  32.913  10.256   8.767
 2655POPC   D2A36184  32.750  10.293   8.344
 2655POPC   C3A36185  32.982  10.515   8.045
 2655POPC   C4A36186  32.871  10.504   7.620
 2655POPC   C1B36187  33.430  10.187   8.772
 2655POPC   C2B36188  33.341  10.159   8.315
 2655POPC   C3B36189  33.299  10.164   7.843
 2655POPC   C4B36190  33.151  10.161   7.395
 2656POPC   NC336191  17.711  34.927   9.371
 2656POPC   PO436192  17.393  35.543   9.503
 2656POPC   GL136193  17.584  35.377   9.128
 2656POPC   GL236194  17.248  35.357   9.005
 2656POPC   C1A36195  17.812  35.368   8.719
 2656POPC   D2A36196  17.694  35.186   8.314
 2656POPC   C3A36197  17.554  35.345   7.897
 2656POPC   C4A36198  17.471  35.365   7.431
 2656POPC   C1B36199  17.318  35.475   8.572
 2656POPC   C2B36200  17.233  35.620   8.162
 2656POPC   C3B36201  17.296  35.773   7.746
 2656POPC   C4B36202  17.273  35.867   7.317
 2657POPC   NC336203  32.838  40.995   9.464
 2657POPC   PO436204  33.064  40.391   9.380
 2657POPC   GL136205  33.166  40.656   9.016
 2657POPC   GL236206  32.859  40.799   8.992
 2657POPC   C1A36207  33.295  40.995   8.756
 2657POPC   D2A36208  33.087  40.965   8.383
 2657POPC   C3A36209  33.303  41.077   8.049
 2657POPC   C4A36210  33.122  40.997   7.669
 2657POPC   C1B36211  32.815  40.396   8.759
 2657POPC   C2B36212  32.948  40.412   8.333
 2657POPC   C3B36213  32.865  40.698   7.997
 2657POPC   C4B36214  32.654  41.082   8.082
 2658POPC   NC336215  37.511  37.355   9.473
 2658POPC   PO436216  37.883  36.647   9.402
 2658POPC   GL136217  37.766  36.865   9.028
 2658POPC   GL236218  37.495  37.100   9.037
 2658POPC   C1A36219  37.785  36.646   8.621
 2658POPC   D2A36220  37.528  36.465   8.297
 2658POPC   C3A36221  37.740  36.587   7.918
 2658POPC   C4A36222  37.820  36.994   7.731
 2658POPC   C1B36223  37.410  37.013   8.608
 2658POPC   C2B36224  37.535  36.998   8.161
 2658POPC   C3B36225  37.345  36.852   7.715
 2658POPC   C4B36226  37.259  37.106   7.304
 2659POPC   NC336227  33.038  30.501   9.532
 2659POPC   PO436228  32.872  31.161   9.497
 2659POPC   GL136229  32.851  30.834   9.177
 2659POPC   GL236230  33.202  30.664   9.083
 2659POPC   C1A36231  32.931  30.910   8.730
 2659POPC   D2A36232  33.220  30.740   8.456
 2659POPC   C3A36233  33.084  30.791   8.092
 2659POPC   C4A36234  32.904  30.937   7.745
 2659POPC   C1B36235  33.064  30.384   8.772
 2659POPC   C2B36236  33.124  30.239   8.328
 2659POPC   C3B36237  33.100  30.346   7.868
 2659POPC   C4B36238  33.019  30.418   7.415
 2660POPC   NC336239  30.737  11.697   9.407
 2660POPC   PO436240  30.395  11.102   9.581
 2660POPC   GL136241  30.630  11.190   9.204
 2660POPC   GL236242  30.434  10.866   9.136
 2660POPC   C1A36243  30.736  11.469   8.798
 2660POPC   D2A36244  30.697  11.715   8.411
 2660POPC   C3A36245  30.702  11.488   8.058
 2660POPC   C4A36246  30.642  11.462   7.646
 2660POPC   C1B36247  30.485  11.015   8.744
 2660POPC   C2B36248  30.633  11.086   8.366
 2660POPC   C3B36249  30.384  11.103   7.994
 2660POPC   C4B36250  30.254  11.124   7.575
 2661POPC   NC336251  20.041  43.794   9.484
 2661POPC   PO436252  19.430  44.120   9.347
 2661POPC   GL136253  19.597  43.713   9.125
 2661POPC   GL236254  19.892  43.862   9.004
 2661POPC   C1A36255  19.771  43.513   8.699
 2661POPC   D2A36256  19.977  43.822   8.442
 2661POPC   C3A36257  20.007  43.830   8.043
 2661POPC   C4A36258  19.717  43.697   7.788
 2661POPC   C1B36259  19.602  44.078   8.680
 2661POPC   C2B36260  19.742  44.278   8.268
 2661POPC   C3B36261  19.800  44.224   7.813
 2661POPC   C4B36262  20.022  44.368   7.443
 2662POPC   NC336263  44.344  18.071   9.483
 2662POPC   PO436264  44.866  18.408   9.385
 2662POPC   GL136265  44.795  18.384   8.995
 2662POPC   GL236266  44.886  18.688   8.853
 2662POPC   C1A36267  44.910  18.126   8.661
 2662POPC   D2A36268   0.182  18.032   8.274
 2662POPC   C3A36269  44.957  18.146   7.879
 2662POPC   C4A36270  44.710  17.942   7.556
 2662POPC   C1B36271  44.546  18.531   8.575
 2662POPC   C2B36272  44.427  18.230   8.247
 2662POPC   C3B36273  44.450  18.342   7.809
 2662POPC   C4B36274  44.685  18.446   7.435
 2663POPC   NC336275   9.241  19.095   9.606
 2663POPC   PO436276   8.536  19.168   9.510
 2663POPC   GL136277   8.828  19.212   9.173
 2663POPC   GL236278   9.228  19.283   9.155
 2663POPC   C1A36279   8.699  19.155   8.760
 2663POPC   D2A36280   8.789  18.889   8.424
 2663POPC   C3A36281   8.594  18.902   8.063
 2663POPC   C4A36282   8.785  19.127   7.703
 2663POPC   C1B36283   9.159  18.948   8.875
 2663POPC   C2B36284   9.294  18.841   8.471
 2663POPC   C3B36285   9.225  19.028   8.088
 2663POPC   C4B36286   9.261  18.840   7.665
 2664POPC   NC336287   5.759  10.250   9.401
 2664POPC   PO436288   5.897   9.619   9.676
 2664POPC   GL136289   5.830   9.760   9.267
 2664POPC   GL236290   6.108   9.704   9.129
 2664POPC   C1A36291   5.738   9.880   8.819
 2664POPC   D2A36292   5.798   9.663   8.414
 2664POPC   C3A36293   5.697   9.742   7.982
 2664POPC   C4A36294   5.569   9.398   7.714
 2664POPC   C1B36295   6.124   9.440   8.753
 2664POPC   C2B36296   6.279   9.450   8.316
 2664POPC   C3B36297   6.073   9.381   7.921
 2664POPC   C4B36298   6.139   9.666   7.624
 2665POPC   NC336299  21.099  24.194   9.284
 2665POPC   PO436300  21.588  24.480   9.721
 2665POPC   GL136301  21.497  24.507   9.219
 2665POPC   GL236302  21.639  24.247   9.022
 2665POPC   C1A36303  21.269  24.558   8.758
 2665POPC   D2A36304  21.154  24.286   8.338
 2665POPC   C3A36305  21.259  24.399   7.864
 2665POPC   C4A36306  21.183  24.757   7.602
 2665POPC   C1B36307  21.666  24.299   8.602
 2665POPC   C2B36308  21.638  24.451   8.202
 2665POPC   C3B36309  21.769  24.217   7.850
 2665POPC   C4B36310  21.751  24.162   7.400
 2666POPC   NC336311  14.705  20.787   9.353
 2666POPC   PO436312  15.304  20.467   9.332
 2666POPC   GL136313  15.102  20.589   9.003
 2666POPC   GL236314  15.012  20.282   8.942
 2666POPC   C1A36315  15.198  20.784   8.599
 2666POPC   D2A36316  15.457  20.881   8.231
 2666POPC   C3A36317  15.360  20.658   7.860
 2666POPC   C4A36318  15.490  20.476   7.428
 2666POPC   C1B36319  15.010  20.311   8.538
 2666POPC   C2B36320  14.824  20.590   8.263
 2666POPC   C3B36321  14.841  20.761   7.872
 2666POPC   C4B36322  15.017  20.650   7.473
 2667POPC   NC336323   9.283  13.885   9.429
 2667POPC   PO436324   8.604  13.911   9.421
 2667POPC   GL136325   8.684  13.598   9.085
 2667POPC   GL236326   8.967  13.806   9.032
 2667POPC   C1A36327   8.969  13.408   8.733
 2667POPC   D2A36328   9.212  13.324   8.349
 2667POPC   C3A36329   8.979  13.503   8.026
 2667POPC   C4A36330   8.674  13.418   7.713
 2667POPC   C1B36331   8.966  14.028   8.650
 2667POPC   C2B36332   8.862  13.994   8.232
 2667POPC   C3B36333   9.091  13.966   7.853
 2667POPC   C4B36334   8.877  13.827   7.490
 2668POPC   NC336335   1.271  26.886   9.414
 2668POPC   PO436336   1.036  26.236   9.534
 2668POPC   GL136337   1.133  26.488   9.122
 2668POPC   GL236338   0.997  26.826   8.999
 2668POPC   C1A36339   1.361  26.624   8.728
 2668POPC   D2A36340   1.348  26.425   8.353
 2668POPC   C3A36341   1.599  26.525   8.038
 2668POPC   C4A36342   1.527  26.587   7.644
 2668POPC   C1B36343   1.185  27.119   8.745
 2668POPC   C2B36344   1.422  27.091   8.386
 2668POPC   C3B36345   1.278  26.950   8.010
 2668POPC   C4B36346   0.953  27.225   7.802
 2669POPC   NC336347   9.749   9.330   9.472
 2669POPC   PO436348  10.021   8.865   9.833
 2669POPC   GL136349   9.959   8.835   9.356
 2669POPC   GL236350  10.085   9.108   9.133
 2669POPC   C1A36351   9.692   8.774   8.948
 2669POPC   D2A36352   9.550   8.884   8.494
 2669POPC   C3A36353   9.675   8.695   8.093
 2669POPC   C4A36354   9.899   8.744   7.714
 2669POPC   C1B36355   9.877   9.356   8.772
 2669POPC   C2B36356   9.870   9.562   8.365
 2669POPC   C3B36357   9.801   9.214   8.117
 2669POPC   C4B36358   9.791   9.274   7.720
 2670POPC   NC336359  22.041  19.787   9.598
 2670POPC   PO436360  22.662  20.100   9.402
 2670POPC   GL136361  22.249  20.074   9.190
 2670POPC   GL236362  22.187  19.734   9.102
 2670POPC   C1A36363  22.151  20.066   8.740
 2670POPC   D2A36364  22.368  19.975   8.378
 2670POPC   C3A36365  22.091  20.073   8.063
 2670POPC   C4A36366  21.984  19.841   7.711
 2670POPC   C1B36367  22.200  19.568   8.676
 2670POPC   C2B36368  21.964  19.619   8.307
 2670POPC   C3B36369  21.921  19.383   7.929
 2670POPC   C4B36370  22.179  19.398   7.546
 2671POPC   NC336371   8.648  31.708   9.374
 2671POPC   PO436372   9.183  31.337   9.422
 2671POPC   GL136373   8.959  31.389   9.071
 2671POPC   GL236374   8.693  31.182   8.995
 2671POPC   C1A36375   9.081  31.294   8.661
 2671POPC   D2A36376   9.031  31.484   8.295
 2671POPC   C3A36377   9.301  31.375   7.968
 2671POPC   C4A36378   9.064  31.391   7.663
 2671POPC   C1B36379   8.604  31.510   8.690
 2671POPC   C2B36380   8.629  31.811   8.347
 2671POPC   C3B36381   8.758  31.728   7.914
 2671POPC   C4B36382   8.623  31.566   7.496
 2672POPC   NC336383  37.067   5.797   9.492
 2672POPC   PO436384  36.460   5.590   9.597
 2672POPC   GL136385  36.672   5.961   9.242
 2672POPC   GL236386  36.999   6.117   9.108
 2672POPC   C1A36387  36.692   5.863   8.790
 2672POPC   D2A36388  36.574   5.624   8.445
 2672POPC   C3A36389  36.801   5.761   8.094
 2672POPC   C4A36390  36.630   5.899   7.708
 2672POPC   C1B36391  37.241   5.834   8.851
 2672POPC   C2B36392  37.258   5.619   8.487
 2672POPC   C3B36393  37.328   5.667   8.072
 2672POPC   C4B36394  37.133   5.727   7.680
 2673POPC   NC336395  15.559   2.732   9.571
 2673POPC   PO436396  14.914   2.601   9.542
 2673POPC   GL136397  15.245   2.642   9.163
 2673POPC   GL236398  15.438   2.993   9.151
 2673POPC   C1A36399  15.463   2.696   8.727
 2673POPC   D2A36400  15.290   2.792   8.352
 2673POPC   C3A36401  15.469   2.678   7.971
 2673POPC   C4A36402  15.237   2.698   7.609
 2673POPC   C1B36403  15.135   3.071   8.821
 2673POPC   C2B36404  15.189   3.293   8.424
 2673POPC   C3B36405  15.342   3.189   8.018
 2673POPC   C4B36406  15.504   3.117   7.627
 2674POPC   NC336407  20.080  21.234   9.449
 2674POPC   PO436408  19.605  21.677   9.617
 2674POPC   GL136409  19.743  21.588   9.209
 2674POPC   GL236410  20.079  21.680   9.214
 2674POPC   C1A36411  19.610  21.528   8.777
 2674POPC   D2A36412  19.749  21.387   8.372
 2674POPC   C3A36413  19.505  21.261   8.014
 2674POPC   C4A36414  19.666  21.522   7.761
 2674POPC   C1B36415  20.171  21.482   8.813
 2674POPC   C2B36416  20.190  21.149   8.480
 2674POPC   C3B36417  20.039  21.116   8.046
 2674POPC   C4B36418  20.122  21.306   7.654
 2675POPC   NC336419  44.310  30.591   9.546
 2675POPC   PO436420   0.003  30.761   9.483
 2675POPC   GL136421  44.656  30.810   9.202
 2675POPC   GL236422  44.574  30.461   9.134
 2675POPC   C1A36423  44.539  30.821   8.766
 2675POPC   D2A36424  44.680  30.589   8.407
 2675POPC   C3A36425  44.813  30.879   8.095
 2675POPC   C4A36426  44.652  30.953   7.690
 2675POPC   C1B36427  44.947  30.516   8.870
 2675POPC   C2B36428   0.156  30.716   8.529
 2675POPC   C3B36429   0.203  30.483   8.159
 2675POPC   C4B36430   0.057  30.469   7.767
 2676POPC   NC336431  27.622  17.861   9.500
 2676POPC   PO436432  27.636  17.178   9.454
 2676POPC   GL136433  27.704  17.272   9.032
 2676POPC   GL236434  27.826  17.602   9.079
 2676POPC   C1A36435  27.549  17.542   8.663
 2676POPC   D2A36436  27.376  17.561   8.242
 2676POPC   C3A36437  27.566  17.216   8.008
 2676POPC   C4A36438  27.515  16.936   7.624
 2676POPC   C1B36439  28.036  17.699   8.685
 2676POPC   C2B36440  27.843  17.805   8.280
 2676POPC   C3B36441  27.670  17.716   7.840
 2676POPC   C4B36442  27.842  17.757   7.419
 2677POPC   NC336443   5.414  11.553   9.812
 2677POPC   PO436444   5.985  11.346   9.570
 2677POPC   GL136445   5.972  11.230   9.127
 2677POPC   GL236446   6.203  11.509   9.083
 2677POPC   C1A36447   5.769  11.248   8.702
 2677POPC   D2A36448   5.537  11.010   8.358
 2677POPC   C3A36449   5.791  11.016   7.996
 2677POPC   C4A36450   5.749  11.391   7.758
 2677POPC   C1B36451   6.283  11.356   8.683
 2677POPC   C2B36452   6.121  11.275   8.283
 2677POPC   C3B36453   6.250  11.358   7.871
 2677POPC   C4B36454   6.530  11.674   7.751
 2678POPC   NC336455  36.906  12.536   9.529
 2678POPC   PO436456  36.927  11.897   9.484
 2678POPC   GL136457  36.923  12.165   9.161
 2678POPC   GL236458  37.290  12.204   9.165
 2678POPC   C1A36459  36.680  12.182   8.773
 2678POPC   D2A36460  36.527  12.052   8.403
 2678POPC   C3A36461  36.627  12.341   8.106
 2678POPC   C4A36462  36.768  12.187   7.730
 2678POPC   C1B36463  37.157  12.013   8.741
 2678POPC   C2B36464  37.063  12.179   8.341
 2678POPC   C3B36465  37.219  12.271   7.934
 2678POPC   C4B36466  37.169  12.399   7.485
 2679POPC   NC336467  33.084   2.412   9.456
 2679POPC   PO436468  32.534   2.847   9.444
 2679POPC   GL136469  32.921   2.840   9.122
 2679POPC   GL236470  33.287   2.961   9.028
 2679POPC   C1A36471  33.009   2.582   8.761
 2679POPC   D2A36472  32.883   2.584   8.320
 2679POPC   C3A36473  33.175   2.415   8.022
 2679POPC   C4A36474  33.372   2.526   7.626
 2679POPC   C1B36475  33.276   3.197   8.668
 2679POPC   C2B36476  33.075   3.054   8.323
 2679POPC   C3B36477  33.233   2.935   7.943
 2679POPC   C4B36478  33.014   2.885   7.577
 2680POPC   NC336479  12.496  24.075   9.467
 2680POPC   PO436480  12.111  23.428   9.525
 2680POPC   GL136481  12.072  23.498   9.128
 2680POPC   GL236482  12.346  23.716   9.156
 2680POPC   C1A36483  12.002  23.725   8.763
 2680POPC   D2A36484  11.804  23.816   8.406
 2680POPC   C3A36485  11.961  23.572   8.134
 2680POPC   C4A36486  11.999  23.567   7.741
 2680POPC   C1B36487  12.495  23.951   8.807
 2680POPC   C2B36488  12.274  24.029   8.443
 2680POPC   C3B36489  12.233  23.994   8.023
 2680POPC   C4B36490  12.424  23.847   7.669
 2681POPC   NC336491   8.206  35.140   9.697
 2681POPC   PO436492   8.836  35.382   9.665
 2681POPC   GL136493   8.466  35.430   9.332
 2681POPC   GL236494   8.094  35.530   9.296
 2681POPC   C1A36495   8.373  35.316   8.892
 2681POPC   D2A36496   8.374  35.321   8.430
 2681POPC   C3A36497   8.122  35.065   8.161
 2681POPC   C4A36498   8.092  35.128   7.716
 2681POPC   C1B36499   8.011  35.673   8.839
 2681POPC   C2B36500   7.891  35.577   8.397
 2681POPC   C3B36501   8.103  35.583   7.998
 2681POPC   C4B36502   8.016  35.594   7.568
 2682POPC   NC336503  39.830  29.112   9.494
 2682POPC   PO436504  40.442  29.253   9.751
 2682POPC   GL136505  40.283  29.115   9.261
 2682POPC   GL236506  39.984  29.288   9.047
 2682POPC   C1A36507  40.164  28.878   8.814
 2682POPC   D2A36508  40.001  29.085   8.414
 2682POPC   C3A36509  39.757  29.102   8.021
 2682POPC   C4A36510  39.707  29.383   7.689
 2682POPC   C1B36511  40.319  29.374   8.777
 2682POPC   C2B36512  40.365  29.448   8.360
 2682POPC   C3B36513  40.218  29.337   7.976
 2682POPC   C4B36514  40.116  29.056   7.641
 2683POPC   NC336515  41.756  44.497   9.497
 2683POPC   PO436516  41.215  44.969   9.520
 2683POPC   GL136517  41.428  44.880   9.157
 2683POPC   GL236518  41.138  44.788   8.988
 2683POPC   C1A36519  41.719  44.714   8.840
 2683POPC   D2A36520  41.703  44.478   8.457
 2683POPC   C3A36521  41.644  44.587   8.041
 2683POPC   C4A36522  41.682  44.516   7.614
 2683POPC   C1B36523  41.273  44.830   8.582
 2683POPC   C2B36524  41.302  44.972   8.171
 2683POPC   C3B36525  41.322  44.869   7.740
 2683POPC   C4B36526  41.337  44.808   7.280
 2684POPC   NC336527  34.012   5.043   9.480
 2684POPC   PO436528  33.338   4.910   9.491
 2684POPC   GL136529  33.588   5.246   9.209
 2684POPC   GL236530  33.936   5.141   8.996
 2684POPC   C1A36531  33.635   5.464   8.783
 2684POPC   D2A36532  33.958   5.290   8.486
 2684POPC   C3A36533  33.883   4.977   8.203
 2684POPC   C4A36534  33.844   5.060   7.789
 2684POPC   C1B36535  34.128   4.823   8.681
 2684POPC   C2B36536  34.163   4.534   8.309
 2684POPC   C3B36537  34.162   4.692   7.870
 2684POPC   C4B36538  34.064   4.766   7.396
 2685POPC   NC336539  10.578   8.269   9.559
 2685POPC   PO436540  10.444   7.762   9.144
 2685POPC   GL136541  10.302   8.164   9.087
 2685POPC   GL236542  10.563   8.399   9.083
 2685POPC   C1A36543  10.332   8.252   8.648
 2685POPC   D2A36544  10.566   7.997   8.345
 2685POPC   C3A36545  10.376   8.020   7.948
 2685POPC   C4A36546  10.419   8.442   7.798
 2685POPC   C1B36547  10.797   8.459   8.733
 2685POPC   C2B36548  10.635   8.528   8.320
 2685POPC   C3B36549  10.855   8.662   7.988
 2685POPC   C4B36550  11.049   8.506   7.599
 2686POPC   NC336551  27.373  22.518   9.558
 2686POPC   PO436552  27.779  22.018   9.627
 2686POPC   GL136553  27.446  21.993   9.305
 2686POPC   GL236554  27.483  21.702   9.059
 2686POPC   C1A36555  27.440  22.224   8.914
 2686POPC   D2A36556  27.343  22.136   8.478
 2686POPC   C3A36557  27.434  22.257   8.069
 2686POPC   C4A36558  27.258  22.117   7.715
 2686POPC   C1B36559  27.746  21.879   8.690
 2686POPC   C2B36560  27.786  21.926   8.235
 2686POPC   C3B36561  27.746  21.944   7.767
 2686POPC   C4B36562  27.938  21.893   7.348
 2687POPC   NC336563  28.005  14.572   9.472
 2687POPC   PO436564  27.527  14.089   9.470
 2687POPC   GL136565  27.760  14.269   9.136
 2687POPC   GL236566  27.637  14.635   9.117
 2687POPC   C1A36567  27.844  14.309   8.710
 2687POPC   D2A36568  27.640  14.474   8.349
 2687POPC   C3A36569  27.670  14.200   8.028
 2687POPC   C4A36570  28.018  14.049   7.801
 2687POPC   C1B36571  27.375  14.483   8.787
 2687POPC   C2B36572  27.152  14.580   8.417
 2687POPC   C3B36573  27.238  14.554   7.994
 2687POPC   C4B36574  27.260  14.192   7.725
 2688POPC   NC336575  29.286   6.293   9.466
 2688POPC   PO436576  28.936   6.790   9.543
 2688POPC   GL136577  29.104   6.763   9.155
 2688POPC   GL236578  28.846   7.027   9.083
 2688POPC   C1A36579  29.108   6.472   8.808
 2688POPC   D2A36580  28.883   6.492   8.391
 2688POPC   C3A36581  29.133   6.693   8.096
 2688POPC   C4A36582  29.288   6.532   7.715
 2688POPC   C1B36583  28.744   6.827   8.741
 2688POPC   C2B36584  28.714   7.012   8.341
 2688POPC   C3B36585  28.865   7.141   7.984
 2688POPC   C4B36586  28.886   6.853   7.682
 2689POPC   NC336587  31.792  14.069   9.401
 2689POPC   PO436588  31.476  14.663   9.427
 2689POPC   GL136589  31.571  14.418   9.115
 2689POPC   GL236590  31.346  14.145   9.158
 2689POPC   C1A36591  31.636  14.410   8.701
 2689POPC   D2A36592  31.369  14.619   8.437
 2689POPC   C3A36593  31.607  14.721   8.107
 2689POPC   C4A36594  31.834  14.836   7.757
 2689POPC   C1B36595  31.148  14.265   8.796
 2689POPC   C2B36596  31.273  14.116   8.405
 2689POPC   C3B36597  31.257  14.316   8.000
 2689POPC   C4B36598  31.553  14.415   7.680
 2690POPC   NC336599  36.294  36.033   9.527
 2690POPC   PO436600  35.839  36.466   9.374
 2690POPC   GL136601  36.202  36.288   9.092
 2690POPC   GL236602  36.242  35.888   9.042
 2690POPC   C1A36603  36.217  36.199   8.646
 2690POPC   D2A36604  35.953  35.970   8.359
 2690POPC   C3A36605  36.065  36.071   7.933
 2690POPC   C4A36606  36.280  36.280   7.617
 2690POPC   C1B36607  36.277  35.638   8.638
 2690POPC   C2B36608  36.305  35.630   8.166
 2690POPC   C3B36609  36.010  35.583   7.800
 2690POPC   C4B36610  35.990  35.866   7.426
 2691POPC   NC336611  33.924  15.753   9.594
 2691POPC   PO436612  33.482  16.273   9.383
 2691POPC   GL136613  33.794  16.065   9.211
 2691POPC   GL236614  33.623  15.798   9.179
 2691POPC   C1A36615  33.991  15.962   8.809
 2691POPC   D2A36616  33.813  15.911   8.420
 2691POPC   C3A36617  34.033  16.030   8.039
 2691POPC   C4A36618  33.860  15.918   7.641
 2691POPC   C1B36619  33.459  15.991   8.800
 2691POPC   C2B36620  33.420  16.234   8.429
 2691POPC   C3B36621  33.501  16.059   8.019
 2691POPC   C4B36622  33.517  16.283   7.655
 2692POPC   NC336623  29.299  18.075   9.297
 2692POPC   PO436624  28.990  17.505   9.585
 2692POPC   GL136625  28.875  17.449   9.132
 2692POPC   GL236626  28.850  17.794   9.086
 2692POPC   C1A36627  28.934  17.184   8.741
 2692POPC   D2A36628  28.879  17.388   8.344
 2692POPC   C3A36629  29.155  17.311   8.016
 2692POPC   C4A36630  29.488  17.395   7.754
 2692POPC   C1B36631  28.721  17.925   8.661
 2692POPC   C2B36632  28.856  17.917   8.231
 2692POPC   C3B36633  29.201  17.820   7.977
 2692POPC   C4B36634  28.950  17.706   7.645
 2693POPC   NC336635  11.860  31.826   9.398
 2693POPC   PO436636  12.468  31.663   9.384
 2693POPC   GL136637  12.202  31.516   9.094
 2693POPC   GL236638  12.089  31.167   9.176
 2693POPC   C1A36639  12.199  31.538   8.653
 2693POPC   D2A36640  11.871  31.632   8.373
 2693POPC   C3A36641  11.980  31.428   8.000
 2693POPC   C4A36642  12.150  31.239   7.662
 2693POPC   C1B36643  11.831  31.235   8.790
 2693POPC   C2B36644  11.776  31.091   8.347
 2693POPC   C3B36645  11.740  31.002   7.875
 2693POPC   C4B36646  11.662  31.279   7.506
 2694POPC   NC336647  27.395  26.406   9.745
 2694POPC   PO436648  27.892  26.836   9.554
 2694POPC   GL136649  27.731  26.898   9.063
 2694POPC   GL236650  27.397  27.097   8.970
 2694POPC   C1A36651  27.741  27.071   8.596
 2694POPC   D2A36652  27.488  26.919   8.217
 2694POPC   C3A36653  27.683  26.855   7.848
 2694POPC   C4A36654  27.901  26.490   7.940
 2694POPC   C1B36655  27.327  26.767   8.689
 2694POPC   C2B36656  27.152  26.543   8.329
 2694POPC   C3B36657  27.338  26.488   7.943
 2694POPC   C4B36658  27.142  26.794   7.686
 2695POPC   NC336659  29.436  22.411   9.465
 2695POPC   PO436660  29.126  23.029   9.481
 2695POPC   GL136661  29.070  22.962   9.082
 2695POPC   GL236662  29.344  22.724   9.062
 2695POPC   C1A36663  28.874  22.643   8.819
 2695POPC   D2A36664  28.667  22.598   8.402
 2695POPC   C3A36665  28.901  22.901   8.117
 2695POPC   C4A36666  29.211  22.967   7.804
 2695POPC   C1B36667  29.439  23.010   8.704
 2695POPC   C2B36668  29.446  23.072   8.243
 2695POPC   C3B36669  29.675  23.130   7.830
 2695POPC   C4B36670  29.592  22.856   7.462
 2696POPC   NC336671   4.721  41.615   9.767
 2696POPC   PO436672   5.314  41.330   9.474
 2696POPC   GL136673   5.099  41.424   9.084
 2696POPC   GL236674   4.913  41.758   9.062
 2696POPC   C1A36675   5.024  41.446   8.625
 2696POPC   D2A36676   5.014  41.761   8.268
 2696POPC   C3A36677   5.309  41.615   7.966
 2696POPC   C4A36678   5.211  41.202   7.812
 2696POPC   C1B36679   4.660  41.810   8.653
 2696POPC   C2B36680   4.560  42.038   8.291
 2696POPC   C3B36681   4.628  41.889   7.899
 2696POPC   C4B36682   4.824  41.518   7.820
 2697POPC   NC336683  21.576   3.130   9.523
 2697POPC   PO436684  21.039   2.700   9.351
 2697POPC   GL136685  21.282   3.002   9.129
 2697POPC   GL236686  21.569   2.779   9.162
 2697POPC   C1A36687  21.583   3.150   8.810
 2697POPC   D2A36688  21.397   3.024   8.389
 2697POPC   C3A36689  21.579   3.120   7.995
 2697POPC   C4A36690  21.444   2.981   7.573
 2697POPC   C1B36691  21.483   2.661   8.742
 2697POPC   C2B36692  21.634   2.566   8.298
 2697POPC   C3B36693  21.329   2.644   7.957
 2697POPC   C4B36694  20.993   2.461   7.717
 2698POPC   NC336695   7.217  37.851   9.486
 2698POPC   PO436696   7.821  37.578   9.689
 2698POPC   GL136697   7.627  37.593   9.249
 2698POPC   GL236698   7.614  37.905   9.158
 2698POPC   C1A36699   7.318  37.586   8.848
 2698POPC   D2A36700   7.071  37.525   8.426
 2698POPC   C3A36701   7.288  37.512   8.016
 2698POPC   C4A36702   7.399  37.658   7.617
 2698POPC   C1B36703   7.653  37.964   8.754
 2698POPC   C2B36704   7.590  37.743   8.359
 2698POPC   C3B36705   7.694  37.906   7.930
 2698POPC   C4B36706   7.856  37.780   7.484
 2699POPC   NC336707  38.306  38.051   9.658
 2699POPC   PO436708  37.893  37.524   9.730
 2699POPC   GL136709  38.328  37.650   9.354
 2699POPC   GL236710  38.423  38.021   9.182
 2699POPC   C1A36711  38.461  37.629   8.867
 2699POPC   D2A36712  38.377  37.373   8.494
 2699POPC   C3A36713  38.355  37.516   8.058
 2699POPC   C4A36714  38.656  37.372   7.779
 2699POPC   C1B36715  38.321  38.134   8.777
 2699POPC   C2B36716  38.427  37.917   8.400
 2699POPC   C3B36717  38.667  37.938   8.025
 2699POPC   C4B36718  38.547  37.829   7.628
 2700POPC   NC336719  12.161  30.271   9.518
 2700POPC   PO436720  11.941  29.599   9.536
 2700POPC   GL136721  12.083  29.757   9.118
 2700POPC   GL236722  12.298  29.984   9.136
 2700POPC   C1A36723  12.107  29.962   8.688
 2700POPC   D2A36724  11.895  30.228   8.436
 2700POPC   C3A36725  11.814  30.003   8.082
 2700POPC   C4A36726  12.059  29.886   7.744
 2700POPC   C1B36727  12.422  30.330   8.881
 2700POPC   C2B36728  12.425  30.298   8.442
 2700POPC   C3B36729  12.258  30.294   8.033
 2700POPC   C4B36730  12.452  30.220   7.644
 2701POPC   NC336731  18.177  33.029   9.504
 2701POPC   PO436732  18.699  32.506   9.335
 2701POPC   GL136733  18.413  32.750   9.148
 2701POPC   GL236734  18.571  33.076   9.204
 2701POPC   C1A36735  18.147  33.007   8.860
 2701POPC   D2A36736  17.975  33.105   8.468
 2701POPC   C3A36737  18.138  33.314   8.128
 2701POPC   C4A36738  18.063  33.043   7.756
 2701POPC   C1B36739  18.646  33.026   8.784
 2701POPC   C2B36740  18.479  33.030   8.417
 2701POPC   C3B36741  18.503  32.961   8.005
 2701POPC   C4B36742  18.719  33.159   7.721
 2702POPC   NC336743  13.290  21.808   9.292
 2702POPC   PO436744  13.436  22.332   9.692
 2702POPC   GL136745  13.525  22.284   9.248
 2702POPC   GL236746  13.414  22.577   9.043
 2702POPC   C1A36747  13.776  22.287   8.854
 2702POPC   D2A36748  13.699  22.151   8.439
 2702POPC   C3A36749  13.772  22.354   8.070
 2702POPC   C4A36750  13.623  22.222   7.717
 2702POPC   C1B36751  13.262  22.258   8.776
 2702POPC   C2B36752  13.225  21.945   8.465
 2702POPC   C3B36753  13.288  22.139   8.093
 2702POPC   C4B36754  13.122  22.296   7.718
 2703POPC   NC336755  20.887  11.938   9.478
 2703POPC   PO436756  21.140  11.373   9.393
 2703POPC   GL136757  21.216  11.344   8.923
 2703POPC   GL236758  21.575  11.335   8.824
 2703POPC   C1A36759  21.226  11.209   8.460
 2703POPC   D2A36760  21.218  10.957   8.069
 2703POPC   C3A36761  21.332  11.184   7.699
 2703POPC   C4A36762  21.306  11.635   7.610
 2703POPC   C1B36763  21.729  11.105   8.438
 2703POPC   C2B36764  21.746  10.993   7.999
 2703POPC   C3B36765  21.845  11.212   7.614
 2703POPC   C4B36766  21.607  11.390   7.265
 2704POPC   NC336767   0.978  43.998   9.634
 2704POPC   PO436768   1.544  43.716   9.509
 2704POPC   GL136769   1.344  44.022   9.213
 2704POPC   GL236770   0.978  44.081   9.136
 2704POPC   C1A36771   1.322  44.113   8.769
 2704POPC   D2A36772   1.058  43.996   8.428
 2704POPC   C3A36773   1.231  43.947   8.034
 2704POPC   C4A36774   1.095  43.576   7.859
 2704POPC   C1B36775   0.843  44.310   8.772
 2704POPC   C2B36776   0.606  44.235   8.411
 2704POPC   C3B36777   0.701  43.987   8.032
 2704POPC   C4B36778   0.882  43.964   7.609
 2705POPC   NC336779  30.457  29.957   9.581
 2705POPC   PO436780  29.822  29.916   9.456
 2705POPC   GL136781  30.137  29.951   9.149
 2705POPC   GL236782  30.343  29.666   9.141
 2705POPC   C1A36783  29.957  29.970   8.762
 2705POPC   D2A36784  29.888  29.753   8.402
 2705POPC   C3A36785  29.939  30.029   8.098
 2705POPC   C4A36786  29.676  29.990   7.772
 2705POPC   C1B36787  30.367  29.648   8.677
 2705POPC   C2B36788  30.353  29.652   8.210
 2705POPC   C3B36789  30.061  29.589   7.876
 2705POPC   C4B36790  29.799  29.438   7.539
 2706POPC   NC336791   0.462  30.906   9.499
 2706POPC   PO436792   0.190  31.563   9.434
 2706POPC   GL136793   0.454  31.357   9.150
 2706POPC   GL236794   0.167  31.363   8.945
 2706POPC   C1A36795   0.645  31.529   8.760
 2706POPC   D2A36796   0.403  31.703   8.418
 2706POPC   C3A36797   0.455  31.547   7.980
 2706POPC   C4A36798   0.460  31.305   7.614
 2706POPC   C1B36799  44.968  31.701   8.711
 2706POPC   C2B36800  44.948  31.985   8.341
 2706POPC   C3B36801  44.993  31.895   7.904
 2706POPC   C4B36802   0.223  31.773   7.545
 2707POPC   NC336803  16.166  33.984   9.339
 2707POPC   PO436804  16.090  34.693   9.466
 2707POPC   GL136805  15.890  34.639   9.090
 2707POPC   GL236806  15.905  34.307   9.037
 2707POPC   C1A36807  15.734  34.856   8.758
 2707POPC   D2A36808  15.544  34.738   8.364
 2707POPC   C3A36809  15.811  34.723   8.024
 2707POPC   C4A36810  15.701  34.558   7.619
 2707POPC   C1B36811  15.924  34.410   8.609
 2707POPC   C2B36812  15.743  34.224   8.245
 2707POPC   C3B36813  16.067  34.147   7.990
 2707POPC   C4B36814  16.170  34.474   7.756
 2708POPC   NC336815  37.682  15.648   9.517
 2708POPC   PO436816  37.519  16.320   9.463
 2708POPC   GL136817  37.728  16.051   9.179
 2708POPC   GL236818  37.439  15.823   9.109
 2708POPC   C1A36819  37.842  15.877   8.775
 2708POPC   D2A36820  37.774  15.662   8.364
 2708POPC   C3A36821  37.936  15.930   8.040
 2708POPC   C4A36822  37.798  16.324   7.859
 2708POPC   C1B36823  37.217  15.891   8.714
 2708POPC   C2B36824  37.129  15.980   8.268
 2708POPC   C3B36825  37.420  15.958   7.909
 2708POPC   C4B36826  37.672  15.599   7.792
 2709POPC   NC336827  38.099  21.454   9.590
 2709POPC   PO436828  38.738  21.586   9.570
 2709POPC   GL136829  38.435  21.597   9.220
 2709POPC   GL236830  38.314  21.226   9.182
 2709POPC   C1A36831  38.371  21.574   8.774
 2709POPC   D2A36832  38.607  21.669   8.381
 2709POPC   C3A36833  38.422  21.575   8.024
 2709POPC   C4A36834  38.461  21.763   7.652
 2709POPC   C1B36835  38.446  21.072   8.780
 2709POPC   C2B36836  38.410  20.870   8.372
 2709POPC   C3B36837  38.390  21.073   7.961
 2709POPC   C4B36838  38.445  21.192   7.489
 2710POPC   NC336839   9.010  12.128   9.641
 2710POPC   PO436840   8.901  12.808   9.621
 2710POPC   GL136841   8.928  12.728   9.180
 2710POPC   GL236842   9.039  13.094   9.135
 2710POPC   C1A36843   8.766  12.623   8.750
 2710POPC   D2A36844   8.895  12.942   8.450
 2710POPC   C3A36845   8.810  12.991   8.011
 2710POPC   C4A36846   9.015  12.688   7.742
 2710POPC   C1B36847   9.290  13.018   8.790
 2710POPC   C2B36848   9.497  12.849   8.458
 2710POPC   C3B36849   9.315  12.889   8.100
 2710POPC   C4B36850   9.212  13.163   7.728
 2711POPC   NC336851  43.814  24.432   9.496
 2711POPC   PO436852  44.100  24.946   9.322
 2711POPC   GL136853  44.010  24.562   9.041
 2711POPC   GL236854  43.706  24.304   9.021
 2711POPC   C1A36855  44.070  24.285   8.677
 2711POPC   D2A36856  43.910  24.317   8.245
 2711POPC   C3A36857  44.215  24.361   7.888
 2711POPC   C4A36858  44.148  24.467   7.453
 2711POPC   C1B36859  43.653  23.986   8.662
 2711POPC   C2B36860  43.466  23.764   8.302
 2711POPC   C3B36861  43.428  23.931   7.869
 2711POPC   C4B36862  43.584  24.368   7.785
 2712POPC   NC336863  25.911   6.462   9.443
 2712POPC   PO436864  26.389   7.045   9.548
 2712POPC   GL136865  26.238   6.765   9.196
 2712POPC   GL236866  26.414   6.404   9.203
 2712POPC   C1A36867  25.884   6.779   8.865
 2712POPC   D2A36868  25.801   7.002   8.462
 2712POPC   C3A36869  25.946   6.858   8.019
 2712POPC   C4A36870  25.868   6.664   7.573
 2712POPC   C1B36871  26.338   6.553   8.742
 2712POPC   C2B36872  26.011   6.526   8.426
 2712POPC   C3B36873  25.855   6.323   8.057
 2712POPC   C4B36874  25.954   6.156   7.667
 2713POPC   NC336875  38.282  12.063   9.459
 2713POPC   PO436876  38.948  12.036   9.584
 2713POPC   GL136877  38.711  12.185   9.196
 2713POPC   GL236878  38.526  11.879   9.053
 2713POPC   C1A36879  38.486  12.301   8.798
 2713POPC   D2A36880  38.484  11.981   8.460
 2713POPC   C3A36881  38.491  12.187   8.106
 2713POPC   C4A36882  38.539  12.100   7.705
 2713POPC   C1B36883  38.133  11.892   8.803
 2713POPC   C2B36884  37.989  11.795   8.348
 2713POPC   C3B36885  38.154  11.846   7.912
 2713POPC   C4B36886  38.282  11.788   7.422
 2714POPC   NC336887  18.148  43.617   9.669
 2714POPC   PO436888  18.544  44.081   9.386
 2714POPC   GL136889  18.391  43.741   9.213
 2714POPC   GL236890  18.571  43.470   9.094
 2714POPC   C1A36891  18.102  43.837   8.895
 2714POPC   D2A36892  18.213  44.058   8.511
 2714POPC   C3A36893  18.077  43.867   8.109
 2714POPC   C4A36894  18.201  44.012   7.693
 2714POPC   C1B36895  18.629  43.693   8.697
 2714POPC   C2B36896  18.576  43.804   8.242
 2714POPC   C3B36897  18.596  43.705   7.775
 2714POPC   C4B36898  18.735  43.511   7.336
 2715POPC   NC336899  20.538  39.757   9.439
 2715POPC   PO436900  20.413  40.419   9.466
 2715POPC   GL136901  20.709  40.177   9.201
 2715POPC   GL236902  20.403  40.075   9.040
 2715POPC   C1A36903  20.807  40.040   8.750
 2715POPC   D2A36904  20.518  40.048   8.372
 2715POPC   C3A36905  20.775  39.967   7.994
 2715POPC   C4A36906  20.628  39.961   7.567
 2715POPC   C1B36907  20.421  39.692   8.779
 2715POPC   C2B36908  20.281  39.571   8.352
 2715POPC   C3B36909  20.299  39.779   7.930
 2715POPC   C4B36910  20.316  39.566   7.529
 2716POPC   NC336911  29.299  13.426   9.503
 2716POPC   PO436912  28.913  13.921   9.460
 2716POPC   GL136913  29.108  13.732   9.125
 2716POPC   GL236914  29.361  14.016   9.141
 2716POPC   C1A36915  29.303  13.448   8.816
 2716POPC   D2A36916  29.358  13.298   8.410
 2716POPC   C3A36917  29.252  13.505   8.030
 2716POPC   C4A36918  29.088  13.341   7.693
 2716POPC   C1B36919  29.303  13.937   8.703
 2716POPC   C2B36920  29.500  13.847   8.301
 2716POPC   C3B36921  29.382  14.012   7.909
 2716POPC   C4B36922  29.333  13.971   7.494
 2717POPC   NC336923   9.351  14.709   9.237
 2717POPC   PO436924   9.724  15.215   9.577
 2717POPC   GL136925   9.740  15.405   9.188
 2717POPC   GL236926   9.412  15.542   9.236
 2717POPC   C1A36927   9.881  15.385   8.796
 2717POPC   D2A36928   9.922  15.214   8.392
 2717POPC   C3A36929   9.871  15.487   8.057
 2717POPC   C4A36930   9.724  15.217   7.742
 2717POPC   C1B36931   9.362  15.290   8.841
 2717POPC   C2B36932   9.239  15.020   8.496
 2717POPC   C3B36933   9.387  15.012   8.056
 2717POPC   C4B36934   9.302  14.969   7.597
 2718POPC   NC336935  20.408  44.878   9.496
 2718POPC   PO436936  20.372  44.238   9.587
 2718POPC   GL136937  20.651  44.470   9.266
 2718POPC   GL236938  20.411  44.526   9.075
 2718POPC   C1A36939  20.887  44.607   8.840
 2718POPC   D2A36940  20.736  44.610   8.396
 2718POPC   C3A36941  20.807  44.448   7.964
 2718POPC   C4A36942  20.472  44.559   7.673
 2718POPC   C1B36943  20.432  44.857   8.794
 2718POPC   C2B36944  20.413   0.013   8.394
 2718POPC   C3B36945  20.580  44.913   8.005
 2718POPC   C4B36946  20.576   0.056   7.592
 2719POPC   NC336947  30.883  34.184   9.522
 2719POPC   PO436948  31.578  34.213   9.564
 2719POPC   GL136949  31.390  34.433   9.222
 2719POPC   GL236950  31.148  34.214   9.111
 2719POPC   C1A36951  31.480  34.536   8.783
 2719POPC   D2A36952  31.515  34.335   8.379
 2719POPC   C3A36953  31.522  34.578   7.992
 2719POPC   C4A36954  31.723  34.720   7.594
 2719POPC   C1B36955  31.236  34.079   8.730
 2719POPC   C2B36956  31.024  34.161   8.343
 2719POPC   C3B36957  31.198  34.148   7.931
 2719POPC   C4B36958  31.288  34.410   7.563
 2720POPC   NC336959   9.146  40.932   9.857
 2720POPC   PO436960   8.743  41.096   9.398
 2720POPC   GL136961   9.128  40.990   9.132
 2720POPC   GL236962   8.981  40.732   8.929
 2720POPC   C1A36963   9.229  41.066   8.670
 2720POPC   D2A36964   8.934  40.868   8.386
 2720POPC   C3A36965   9.030  40.765   7.965
 2720POPC   C4A36966   8.725  40.773   7.658
 2720POPC   C1B36967   9.015  40.399   8.646
 2720POPC   C2B36968   8.932  40.339   8.247
 2720POPC   C3B36969   8.942  40.295   7.825
 2720POPC   C4B36970   9.358  40.320   7.751
 2721POPC   NC336971  36.052  21.772   9.470
 2721POPC   PO436972  36.421  22.280   9.466
 2721POPC   GL136973  36.161  22.211   9.168
 2721POPC   GL236974  35.951  22.520   9.191
 2721POPC   C1A36975  36.259  21.941   8.828
 2721POPC   D2A36976  36.092  21.738   8.481
 2721POPC   C3A36977  36.279  21.870   8.089
 2721POPC   C4A36978  36.172  22.029   7.698
 2721POPC   C1B36979  35.968  22.435   8.762
 2721POPC   C2B36980  36.153  22.247   8.411
 2721POPC   C3B36981  36.057  22.418   8.023
 2721POPC   C4B36982  36.196  22.513   7.585
 2722POPC   NC336983  11.587  14.338   9.543
 2722POPC   PO436984  10.916  14.071   9.251
 2722POPC   GL136985  11.098  14.310   8.962
 2722POPC   GL236986  11.324  14.497   9.142
 2722POPC   C1A36987  11.300  14.545   8.644
 2722POPC   D2A36988  11.353  14.714   8.265
 2722POPC   C3A36989  10.989  14.590   7.977
 2722POPC   C4A36990  11.043  14.370   7.608
 2722POPC   C1B36991  11.664  14.264   8.840
 2722POPC   C2B36992  11.582  14.220   8.366
 2722POPC   C3B36993  11.409  14.280   7.969
 2722POPC   C4B36994  11.661  14.326   7.582
 2723POPC   NC336995  11.106  36.148   9.637
 2723POPC   PO436996  11.783  36.067   9.503
 2723POPC   GL136997  11.422  36.101   9.219
 2723POPC   GL236998  11.065  36.251   9.139
 2723POPC   C1A36999  11.355  36.004   8.792
 2723POPC   D2A37000  11.113  35.966   8.416
 2723POPC   C3A37001  11.354  35.876   8.048
 2723POPC   C4A37002  11.144  35.915   7.684
 2723POPC   C1B37003  10.999  36.395   8.688
 2723POPC   C2B37004  10.988  36.437   8.231
 2723POPC   C3B37005  11.234  36.375   7.887
 2723POPC   C4B37006  11.673  36.255   7.835
 2724POPC   NC337007  41.369  34.796   9.350
 2724POPC   PO437008  41.701  34.303   9.475
 2724POPC   GL137009  41.632  34.438   9.095
 2724POPC   GL237010  41.290  34.303   9.045
 2724POPC   C1A37011  41.868  34.570   8.715
 2724POPC   D2A37012  41.736  34.451   8.313
 2724POPC   C3A37013  41.658  34.634   7.912
 2724POPC   C4A37014  41.836  34.468   7.524
 2724POPC   C1B37015  41.351  34.549   8.683
 2724POPC   C2B37016  41.253  34.642   8.255
 2724POPC   C3B37017  41.133  34.475   7.863
 2724POPC   C4B37018  41.335  34.555   7.495
 2725POPC   NC337019  34.419   4.127   9.416
 2725POPC   PO437020  34.310   4.745   9.325
 2725POPC   GL137021  34.567   4.424   9.049
 2725POPC   GL237022  34.750   4.023   9.056
 2725POPC   C1A37023  34.420   4.214   8.704
 2725POPC   D2A37024  34.532   4.074   8.323
 2725POPC   C3A37025  34.463   4.291   7.964
 2725POPC   C4A37026  34.368   4.377   7.549
 2725POPC   C1B37027  34.947   4.142   8.735
 2725POPC   C2B37028  35.007   3.939   8.385
 2725POPC   C3B37029  34.955   4.109   7.996
 2725POPC   C4B37030  34.856   3.981   7.605
 2726POPC   NC337031  31.976   5.822   9.506
 2726POPC   PO437032  32.666   5.659   9.470
 2726POPC   GL137033  32.336   5.652   9.175
 2726POPC   GL237034  32.333   6.017   9.183
 2726POPC   C1A37035  32.215   5.696   8.736
 2726POPC   D2A37036  31.983   5.511   8.366
 2726POPC   C3A37037  32.130   5.680   7.936
 2726POPC   C4A37038  32.173   5.711   7.454
 2726POPC   C1B37039  32.439   6.186   8.799
 2726POPC   C2B37040  32.388   6.046   8.391
 2726POPC   C3B37041  32.257   6.201   8.040
 2726POPC   C4B37042  32.292   6.157   7.654
 2727POPC   NC337043   1.577   4.073   9.669
 2727POPC   PO437044   1.959   4.540   9.288
 2727POPC   GL137045   2.122   4.446   8.914
 2727POPC   GL237046   2.365   4.280   8.921
 2727POPC   C1A37047   2.137   4.434   8.476
 2727POPC   D2A37048   1.782   4.629   8.286
 2727POPC   C3A37049   1.607   4.364   7.980
 2727POPC   C4A37050   1.850   4.265   7.609
 2727POPC   C1B37051   2.285   3.851   8.743
 2727POPC   C2B37052   2.045   3.816   8.415
 2727POPC   C3B37053   2.049   4.053   8.051
 2727POPC   C4B37054   2.176   3.869   7.655
 2728POPC   NC337055   7.027  40.207   9.513
 2728POPC   PO437056   6.555  39.763   9.517
 2728POPC   GL137057   6.657  40.052   9.189
 2728POPC   GL237058   6.359  40.031   9.064
 2728POPC   C1A37059   6.779  40.013   8.741
 2728POPC   D2A37060   6.835  40.234   8.330
 2728POPC   C3A37061   6.601  40.164   7.923
 2728POPC   C4A37062   6.661  40.426   7.522
 2728POPC   C1B37063   6.365  39.690   8.785
 2728POPC   C2B37064   6.541  39.742   8.361
 2728POPC   C3B37065   6.384  39.699   7.928
 2728POPC   C4B37066   6.232  39.485   7.549
 2729POPC   NC337067  15.403  30.946   9.512
 2729POPC   PO437068  14.936  30.574   9.522
 2729POPC   GL137069  15.048  30.740   9.150
 2729POPC   GL237070  15.248  30.452   9.117
 2729POPC   C1A37071  14.973  31.041   8.804
 2729POPC   D2A37072  14.820  31.032   8.379
 2729POPC   C3A37073  15.049  30.696   8.211
 2729POPC   C4A37074  15.055  30.628   7.797
 2729POPC   C1B37075  15.270  30.629   8.690
 2729POPC   C2B37076  15.560  30.797   8.357
 2729POPC   C3B37077  15.572  30.639   7.914
 2729POPC   C4B37078  15.406  30.481   7.481
 2730POPC   NC337079  13.400   3.196   9.578
 2730POPC   PO437080  13.335   3.883   9.589
 2730POPC   GL137081  13.236   3.650   9.180
 2730POPC   GL237082  13.491   3.400   9.131
 2730POPC   C1A37083  13.415   3.696   8.728
 2730POPC   D2A37084  13.584   3.794   8.318
 2730POPC   C3A37085  13.734   3.656   7.921
 2730POPC   C4A37086  13.760   3.855   7.558
 2730POPC   C1B37087  13.236   3.183   8.828
 2730POPC   C2B37088  13.210   3.319   8.436
 2730POPC   C3B37089  13.509   3.272   8.168
 2730POPC   C4B37090  13.535   3.190   7.760
 2731POPC   NC337091  39.259  15.986   9.547
 2731POPC   PO437092  39.568  16.684   9.621
 2731POPC   GL137093  39.547  16.296   9.252
 2731POPC   GL237094  39.388  15.932   9.079
 2731POPC   C1A37095  39.470  16.321   8.792
 2731POPC   D2A37096  39.468  16.267   8.344
 2731POPC   C3A37097  39.237  15.962   8.104
 2731POPC   C4A37098  39.157  16.211   7.756
 2731POPC   C1B37099  38.988  15.741   8.941
 2731POPC   C2B37100  38.800  15.634   8.547
 2731POPC   C3B37101  38.881  15.575   8.121
 2731POPC   C4B37102  38.859  15.792   7.737
 2732POPC   NC337103  15.821  33.489   9.757
 2732POPC   PO437104  15.696  34.021   9.406
 2732POPC   GL137105  15.707  33.795   9.086
 2732POPC   GL237106  16.025  33.681   8.970
 2732POPC   C1A37107  15.707  33.954   8.688
 2732POPC   D2A37108  16.050  33.852   8.456
 2732POPC   C3A37109  15.858  33.688   8.105
 2732POPC   C4A37110  15.778  33.864   7.691
 2732POPC   C1B37111  16.193  33.301   8.783
 2732POPC   C2B37112  16.203  33.348   8.344
 2732POPC   C3B37113  16.363  33.655   8.078
 2732POPC   C4B37114  16.204  33.544   7.710
 2733POPC   NC337115  43.340  11.911   9.477
 2733POPC   PO437116  43.010  12.507   9.437
 2733POPC   GL137117  43.081  12.213   9.123
 2733POPC   GL237118  43.018  11.831   9.092
 2733POPC   C1A37119  42.904  12.185   8.745
 2733POPC   D2A37120  43.120  12.200   8.384
 2733POPC   C3A37121  42.856  12.385   8.125
 2733POPC   C4A37122  42.813  12.219   7.746
 2733POPC   C1B37123  43.323  11.850   8.763
 2733POPC   C2B37124  43.343  11.717   8.329
 2733POPC   C3B37125  43.277  11.945   7.928
 2733POPC   C4B37126  43.320  12.356   7.866
 2734POPC   NC337127  10.722  16.010   9.553
 2734POPC   PO437128  10.206  15.640   9.484
 2734POPC   GL137129  10.460  15.818   9.152
 2734POPC   GL237130  10.383  16.169   9.227
 2734POPC   C1A37131  10.739  15.908   8.809
 2734POPC   D2A37132  10.837  15.962   8.361
 2734POPC   C3A37133  10.491  15.718   8.163
 2734POPC   C4A37134  10.234  15.727   7.772
 2734POPC   C1B37135  10.325  16.198   8.808
 2734POPC   C2B37136  10.386  16.203   8.379
 2734POPC   C3B37137  10.456  16.167   7.946
 2734POPC   C4B37138  10.261  16.436   7.657
 2735POPC   NC337139   2.977  32.523   9.368
 2735POPC   PO437140   2.771  33.150   9.436
 2735POPC   GL137141   2.596  33.002   9.065
 2735POPC   GL237142   2.501  32.628   9.150
 2735POPC   C1A37143   2.863  33.072   8.682
 2735POPC   D2A37144   3.127  32.843   8.373
 2735POPC   C3A37145   3.006  32.909   7.953
 2735POPC   C4A37146   2.667  33.197   7.814
 2735POPC   C1B37147   2.628  32.625   8.718
 2735POPC   C2B37148   2.606  32.827   8.293
 2735POPC   C3B37149   2.527  32.707   7.862
 2735POPC   C4B37150   2.631  32.796   7.442
 2736POPC   NC337151  31.880  27.837   9.274
 2736POPC   PO437152  31.429  27.386   9.582
 2736POPC   GL137153  31.263  27.297   9.172
 2736POPC   GL237154  31.533  27.499   9.082
 2736POPC   C1A37155  31.142  27.405   8.744
 2736POPC   D2A37156  31.099  27.742   8.433
 2736POPC   C3A37157  31.165  27.549   8.033
 2736POPC   C4A37158  31.288  27.615   7.624
 2736POPC   C1B37159  31.509  27.780   8.749
 2736POPC   C2B37160  31.598  27.746   8.342
 2736POPC   C3B37161  31.709  27.594   7.968
 2736POPC   C4B37162  32.024  27.742   7.721
 2737POPC   NC337163  24.227  23.391   9.551
 2737POPC   PO437164  24.573  22.717   9.487
 2737POPC   GL137165  24.290  22.923   9.194
 2737POPC   GL237166  24.455  23.229   9.099
 2737POPC   C1A37167  24.178  22.918   8.743
 2737POPC   D2A37168  24.274  23.134   8.323
 2737POPC   C3A37169  24.197  22.832   7.955
 2737POPC   C4A37170  24.014  22.407   7.950
 2737POPC   C1B37171  24.672  22.955   8.816
 2737POPC   C2B37172  24.711  22.859   8.428
 2737POPC   C3B37173  24.677  22.984   8.047
 2737POPC   C4B37174  24.524  23.133   7.689
 2738POPC   NC337175  19.596  41.417   9.594
 2738POPC   PO437176  20.006  41.868   9.439
 2738POPC   GL137177  19.820  41.678   9.133
 2738POPC   GL237178  19.679  41.991   9.010
 2738POPC   C1A37179  19.780  41.582   8.694
 2738POPC   D2A37180  19.885  41.821   8.310
 2738POPC   C3A37181  19.631  41.745   7.949
 2738POPC   C4A37182  19.733  41.371   7.715
 2738POPC   C1B37183  20.114  41.959   8.782
 2738POPC   C2B37184  20.396  41.892   8.394
 2738POPC   C3B37185  20.261  42.038   7.986
 2738POPC   C4B37186  20.056  41.825   7.673
 2739POPC   NC337187  17.294  44.820   9.605
 2739POPC   PO437188  17.773  44.391   9.488
 2739POPC   GL137189  17.550  44.669   9.202
 2739POPC   GL237190  17.597   0.028   9.183
 2739POPC   C1A37191  17.278  44.677   8.862
 2739POPC   D2A37192  17.404  44.485   8.482
 2739POPC   C3A37193  17.124  44.482   8.166
 2739POPC   C4A37194  17.251  44.630   7.764
 2739POPC   C1B37195  17.749  44.847   8.769
 2739POPC   C2B37196  17.905  44.977   8.386
 2739POPC   C3B37197  17.799   0.157   7.996
 2739POPC   C4B37198  17.812  44.813   7.730
 2740POPC   NC337199  21.473  39.409   9.365
 2740POPC   PO437200  21.040  38.830   9.474
 2740POPC   GL137201  21.369  38.912   9.124
 2740POPC   GL237202  21.732  38.911   9.014
 2740POPC   C1A37203  21.321  39.135   8.718
 2740POPC   D2A37204  20.959  39.163   8.411
 2740POPC   C3A37205  21.020  39.116   7.971
 2740POPC   C4A37206  21.243  38.816   7.805
 2740POPC   C1B37207  21.883  39.296   8.834
 2740POPC   C2B37208  21.771  39.436   8.445
 2740POPC   C3B37209  21.470  39.200   8.190
 2740POPC   C4B37210  21.539  39.266   7.777
 2741POPC   NC337211  38.767   0.837   9.366
 2741POPC   PO437212  39.362   0.681   9.477
 2741POPC   GL137213  39.365   0.439   9.122
 2741POPC   GL237214  39.000   0.332   9.095
 2741POPC   C1A37215  39.650   0.486   8.779
 2741POPC   D2A37216  39.821   0.341   8.372
 2741POPC   C3A37217  39.622   0.539   8.003
 2741POPC   C4A37218  39.364   0.575   7.630
 2741POPC   C1B37219  39.022   0.630   8.782
 2741POPC   C2B37220  39.291   0.604   8.422
 2741POPC   C3B37221  39.156   0.383   8.068
 2741POPC   C4B37222  38.900   0.621   7.778
 2742POPC   NC337223  42.964  29.574   9.348
 2742POPC   PO437224  43.264  29.035   9.582
 2742POPC   GL137225  43.084  29.043   9.166
 2742POPC   GL237226  42.797  29.226   9.021
 2742POPC   C1A37227  43.194  29.150   8.743
 2742POPC   D2A37228  42.945  29.062   8.432
 2742POPC   C3A37229  43.163  29.029   8.084
 2742POPC   C4A37230  43.082  29.179   7.718
 2742POPC   C1B37231  42.835  29.563   8.717
 2742POPC   C2B37232  42.943  29.573   8.305
 2742POPC   C3B37233  42.714  29.315   8.032
 2742POPC   C4B37234  42.609  29.575   7.723
 2743POPC   NC337235  26.392  35.395   9.530
 2743POPC   PO437236  27.109  35.555   9.535
 2743POPC   GL137237  27.009  35.528   9.135
 2743POPC   GL237238  26.692  35.522   9.140
 2743POPC   C1A37239  26.960  35.396   8.708
 2743POPC   D2A37240  26.811  35.149   8.389
 2743POPC   C3A37241  26.882  35.362   8.006
 2743POPC   C4A37242  26.928  35.186   7.607
 2743POPC   C1B37243  26.520  35.709   8.757
 2743POPC   C2B37244  26.544  35.597   8.334
 2743POPC   C3B37245  26.386  35.529   7.920
 2743POPC   C4B37246  26.646  35.606   7.556
 2744POPC   NC337247  44.360  29.602   9.691
 2744POPC   PO437248  44.842  29.174   9.485
 2744POPC   GL137249  44.534  29.271   9.129
 2744POPC   GL237250  44.247  29.522   9.187
 2744POPC   C1A37251  44.571  29.122   8.693
 2744POPC   D2A37252  44.320  28.926   8.359
 2744POPC   C3A37253  44.532  28.805   8.010
 2744POPC   C4A37254  44.828  29.151   7.878
 2744POPC   C1B37255  44.121  29.384   8.765
 2744POPC   C2B37256  44.320  29.430   8.336
 2744POPC   C3B37257  44.314  29.236   7.931
 2744POPC   C4B37258  44.473  29.168   7.489
 2745POPC   NC337259  36.473   2.713   9.533
 2745POPC   PO437260  35.929   3.063   9.304
 2745POPC   GL137261  36.310   2.898   9.083
 2745POPC   GL237262  36.587   2.645   9.054
 2745POPC   C1A37263  36.216   2.722   8.711
 2745POPC   D2A37264  35.883   2.717   8.441
 2745POPC   C3A37265  35.995   2.681   8.041
 2745POPC   C4A37266  35.778   2.817   7.667
 2745POPC   C1B37267  36.567   2.356   8.731
 2745POPC   C2B37268  36.278   2.309   8.389
 2745POPC   C3B37269  36.436   2.378   7.996
 2745POPC   C4B37270  36.172   2.500   7.598
 2746POPC   NC337271  25.550  31.296   9.720
 2746POPC   PO437272  25.255  31.698   9.287
 2746POPC   GL137273  25.384  31.347   9.064
 2746POPC   GL237274  25.649  31.344   9.200
 2746POPC   C1A37275  25.288  31.157   8.678
 2746POPC   D2A37276  25.367  31.250   8.234
 2746POPC   C3A37277  25.306  31.318   7.790
 2746POPC   C4A37278  25.063  31.636   7.594
 2746POPC   C1B37279  25.663  31.660   8.782
 2746POPC   C2B37280  25.629  31.897   8.428
 2746POPC   C3B37281  25.582  31.698   8.056
 2746POPC   C4B37282  25.545  31.766   7.665
 2747POPC   NC337283  17.487   0.855   9.566
 2747POPC   PO437284  17.238   0.284   9.569
 2747POPC   GL137285  17.342   0.493   9.193
 2747POPC   GL237286  17.716   0.549   9.213
 2747POPC   C1A37287  17.381   0.290   8.776
 2747POPC   D2A37288  17.351   0.005   8.434
 2747POPC   C3A37289  17.232   0.177   8.033
 2747POPC   C4A37290  17.414   0.141   7.634
 2747POPC   C1B37291  17.600   0.754   8.821
 2747POPC   C2B37292  17.387   0.698   8.402
 2747POPC   C3B37293  17.528   0.611   7.938
 2747POPC   C4B37294  17.530   0.604   7.462
 2748POPC   NC337295  33.991  35.015   9.538
 2748POPC   PO437296  33.810  35.673   9.631
 2748POPC   GL137297  33.826  35.412   9.256
 2748POPC   GL237298  33.504  35.380   9.079
 2748POPC   C1A37299  33.937  35.280   8.821
 2748POPC   D2A37300  33.741  35.459   8.452
 2748POPC   C3A37301  33.819  35.298   8.066
 2748POPC   C4A37302  34.116  35.242   7.778
 2748POPC   C1B37303  33.495  35.743   8.783
 2748POPC   C2B37304  33.382  35.836   8.333
 2748POPC   C3B37305  33.481  35.650   7.916
 2748POPC   C4B37306  33.692  35.414   7.563
 2749POPC   NC337307  34.382  43.898   9.522
 2749POPC   PO437308  34.805  44.328   9.291
 2749POPC   GL137309  34.586  44.009   9.029
 2749POPC   GL237310  34.383  43.700   9.054
 2749POPC   C1A37311  34.466  43.896   8.605
 2749POPC   D2A37312  34.246  44.073   8.255
 2749POPC   C3A37313  34.484  43.848   7.949
 2749POPC   C4A37314  34.819  43.923   7.669
 2749POPC   C1B37315  34.243  43.436   8.731
 2749POPC   C2B37316  34.191  43.574   8.303
 2749POPC   C3B37317  34.170  43.394   7.905
 2749POPC   C4B37318  34.490  43.435   7.620
 2750POPC   NC337319  43.803   6.885   9.470
 2750POPC   PO437320  44.338   6.531   9.583
 2750POPC   GL137321  44.047   6.519   9.207
 2750POPC   GL237322  44.214   6.845   9.158
 2750POPC   C1A37323  43.790   6.719   8.830
 2750POPC   D2A37324  43.643   6.883   8.399
 2750POPC   C3A37325  43.738   6.535   8.133
 2750POPC   C4A37326  43.628   6.494   7.717
 2750POPC   C1B37327  44.134   7.082   8.790
 2750POPC   C2B37328  44.145   6.828   8.371
 2750POPC   C3B37329  44.059   6.868   7.913
 2750POPC   C4B37330  44.137   6.600   7.548
 2751POPC   NC337331  38.980   9.893   9.340
 2751POPC   PO437332  38.385   9.792   9.615
 2751POPC   GL137333  38.480   9.775   9.192
 2751POPC   GL237334  38.322  10.074   9.109
 2751POPC   C1A37335  38.454   9.599   8.760
 2751POPC   D2A37336  38.661   9.693   8.358
 2751POPC   C3A37337  38.489   9.539   7.943
 2751POPC   C4A37338  38.485   9.559   7.473
 2751POPC   C1B37339  38.623  10.091   8.796
 2751POPC   C2B37340  38.595  10.225   8.395
 2751POPC   C3B37341  38.422  10.052   8.033
 2751POPC   C4B37342  38.590  10.012   7.655
 2752POPC   NC337343   9.613  11.530   9.493
 2752POPC   PO437344  10.150  11.065   9.488
 2752POPC   GL137345   9.880  11.234   9.111
 2752POPC   GL237346   9.516  11.321   9.043
 2752POPC   C1A37347   9.880  11.586   8.796
 2752POPC   D2A37348   9.676  11.616   8.396
 2752POPC   C3A37349   9.800  11.399   8.013
 2752POPC   C4A37350  10.063  11.269   7.654
 2752POPC   C1B37351   9.503  11.134   8.628
 2752POPC   C2B37352   9.413  10.979   8.220
 2752POPC   C3B37353   9.451  11.091   7.775
 2752POPC   C4B37354   9.233  11.213   7.336
 2753POPC   NC337355  24.171   5.990   9.627
 2753POPC   PO437356  23.620   5.586   9.559
 2753POPC   GL137357  23.626   5.727   9.153
 2753POPC   GL237358  23.844   5.463   9.090
 2753POPC   C1A37359  23.758   6.039   8.844
 2753POPC   D2A37360  23.964   6.005   8.431
 2753POPC   C3A37361  23.771   6.024   8.057
 2753POPC   C4A37362  23.902   5.968   7.647
 2753POPC   C1B37363  23.942   5.581   8.726
 2753POPC   C2B37364  23.745   5.519   8.365
 2753POPC   C3B37365  24.008   5.582   8.039
 2753POPC   C4B37366  23.930   5.430   7.660
 2754POPC   NC337367  32.882  37.547   9.711
 2754POPC   PO437368  33.390  37.866   9.620
 2754POPC   GL137369  33.183  37.858   9.238
 2754POPC   GL237370  33.104  37.509   9.148
 2754POPC   C1A37371  33.085  37.897   8.810
 2754POPC   D2A37372  32.832  37.942   8.448
 2754POPC   C3A37373  33.001  37.957   8.040
 2754POPC   C4A37374  32.878  38.029   7.640
 2754POPC   C1B37375  32.909  37.438   8.697
 2754POPC   C2B37376  32.989  37.481   8.219
 2754POPC   C3B37377  33.001  37.510   7.727
 2754POPC   C4B37378  33.026  37.374   7.255
 2755POPC   NC337379   6.154  30.379   9.637
 2755POPC   PO437380   5.711  30.946   9.484
 2755POPC   GL137381   5.892  30.823   9.147
 2755POPC   GL237382   5.952  30.506   9.145
 2755POPC   C1A37383   6.017  30.886   8.777
 2755POPC   D2A37384   5.830  30.736   8.449
 2755POPC   C3A37385   6.012  30.807   8.076
 2755POPC   C4A37386   5.779  30.879   7.731
 2755POPC   C1B37387   6.113  30.371   8.732
 2755POPC   C2B37388   6.316  30.465   8.321
 2755POPC   C3B37389   6.327  30.376   7.896
 2755POPC   C4B37390   5.991  30.442   7.629
 2756POPC   NC337391  26.760  32.579   9.809
 2756POPC   PO437392  26.874  33.185   9.476
 2756POPC   GL137393  26.719  32.891   9.164
 2756POPC   GL237394  26.791  33.153   8.938
 2756POPC   C1A37395  26.779  32.723   8.719
 2756POPC   D2A37396  26.911  33.084   8.427
 2756POPC   C3A37397  26.924  32.957   8.009
 2756POPC   C4A37398  27.113  32.921   7.589
 2756POPC   C1B37399  26.957  33.551   8.825
 2756POPC   C2B37400  27.113  33.712   8.423
 2756POPC   C3B37401  26.978  33.504   8.037
 2756POPC   C4B37402  26.739  33.295   7.687
 2757POPC   NC337403  11.258  38.888   9.637
 2757POPC   PO437404  11.587  38.309   9.499
 2757POPC   GL137405  11.341  38.348   9.139
 2757POPC   GL237406  11.221  38.693   9.159
 2757POPC   C1A37407  11.342  38.456   8.722
 2757POPC   D2A37408  11.298  38.265   8.360
 2757POPC   C3A37409  11.393  38.565   8.086
 2757POPC   C4A37410  11.176  38.412   7.746
 2757POPC   C1B37411  10.909  38.710   8.824
 2757POPC   C2B37412  10.982  38.721   8.366
 2757POPC   C3B37413  11.030  38.874   7.902
 2757POPC   C4B37414  11.024  38.746   7.407
 2758POPC   NC337415  24.930  39.595   9.307
 2758POPC   PO437416  25.232  40.109   9.553
 2758POPC   GL137417  25.303  39.978   9.160
 2758POPC   GL237418  25.558  39.749   9.263
 2758POPC   C1A37419  25.323  40.159   8.726
 2758POPC   D2A37420  25.346  40.044   8.281
 2758POPC   C3A37421  25.184  40.174   7.863
 2758POPC   C4A37422  25.152  40.035   7.413
 2758POPC   C1B37423  25.737  39.898   8.889
 2758POPC   C2B37424  25.715  39.772   8.485
 2758POPC   C3B37425  25.563  39.653   8.066
 2758POPC   C4B37426  25.544  39.867   7.700
 2759POPC   NC337427  39.456   3.932   9.994
 2759POPC   PO437428  39.158   4.185   9.494
 2759POPC   GL137429  39.238   4.346   9.094
 2759POPC   GL237430  39.338   4.660   9.174
 2759POPC   C1A37431  39.026   4.265   8.692
 2759POPC   D2A37432  39.005   4.010   8.327
 2759POPC   C3A37433  39.149   4.194   7.912
 2759POPC   C4A37434  39.196   4.086   7.472
 2759POPC   C1B37435  39.108   4.765   8.785
 2759POPC   C2B37436  39.306   4.597   8.379
 2759POPC   C3B37437  39.264   4.707   7.929
 2759POPC   C4B37438  39.199   4.583   7.506
 2760POPC   NC337439  16.024   0.128   9.644
 2760POPC   PO437440  16.217  44.763   9.133
 2760POPC   GL137441  16.182   0.220   9.110
 2760POPC   GL237442  16.021   0.548   9.118
 2760POPC   C1A37443  16.007   0.289   8.694
 2760POPC   D2A37444  15.972   0.518   8.361
 2760POPC   C3A37445  15.665   0.317   8.133
 2760POPC   C4A37446  15.843   0.227   7.754
 2760POPC   C1B37447  16.178   0.767   8.797
 2760POPC   C2B37448  16.440   0.736   8.433
 2760POPC   C3B37449  16.320   0.696   8.027
 2760POPC   C4B37450  16.299   0.436   7.711
 2761POPC   NC337451   1.722   8.740   9.407
 2761POPC   PO437452   2.301   9.150   9.389
 2761POPC   GL137453   1.983   9.225   9.047
 2761POPC   GL237454   1.928   8.903   8.970
 2761POPC   C1A37455   1.866   9.198   8.577
 2761POPC   D2A37456   1.969   8.754   8.446
 2761POPC   C3A37457   2.057   8.684   8.007
 2761POPC   C4A37458   1.926   8.999   7.770
 2761POPC   C1B37459   1.527   8.869   8.751
 2761POPC   C2B37460   1.407   9.001   8.375
 2761POPC   C3B37461   1.533   8.775   8.012
 2761POPC   C4B37462   1.449   8.701   7.579
 2762POPC   NC337463  35.898  21.132   9.447
 2762POPC   PO437464  36.453  21.532   9.546
 2762POPC   GL137465  36.291  21.361   9.180
 2762POPC   GL237466  36.356  21.002   9.193
 2762POPC   C1A37467  36.052  21.323   8.804
 2762POPC   D2A37468  35.986  21.153   8.390
 2762POPC   C3A37469  35.930  21.485   8.077
 2762POPC   C4A37470  35.875  21.616   7.677
 2762POPC   C1B37471  36.319  20.872   8.751
 2762POPC   C2B37472  36.485  21.002   8.351
 2762POPC   C3B37473  36.293  21.143   7.969
 2762POPC   C4B37474  36.387  21.527   7.715
 2763POPC   NC337475  33.336  11.847   9.370
 2763POPC   PO437476  32.806  11.979   9.753
 2763POPC   GL137477  32.848  12.184   9.301
 2763POPC   GL237478  33.179  12.334   9.233
 2763POPC   C1A37479  32.772  12.130   8.826
 2763POPC   D2A37480  32.864  11.781   8.502
 2763POPC   C3A37481  32.892  11.887   8.049
 2763POPC   C4A37482  32.753  12.185   7.749
 2763POPC   C1B37483  33.273  12.290   8.796
 2763POPC   C2B37484  33.076  12.333   8.389
 2763POPC   C3B37485  33.239  12.285   7.959
 2763POPC   C4B37486  33.246  12.048   7.575
 2764POPC   NC337487  25.075  28.614   9.508
 2764POPC   PO437488  25.297  29.263   9.478
 2764POPC   GL137489  25.032  29.162   9.136
 2764POPC   GL237490  24.907  28.834   9.066
 2764POPC   C1A37491  24.958  29.191   8.696
 2764POPC   D2A37492  25.274  29.231   8.390
 2764POPC   C3A37493  25.115  29.211   7.967
 2764POPC   C4A37494  25.272  29.278   7.545
 2764POPC   C1B37495  25.225  28.762   8.699
 2764POPC   C2B37496  25.246  28.742   8.240
 2764POPC   C3B37497  25.552  28.911   7.942
 2764POPC   C4B37498  25.659  28.658   7.602
 2765POPC   NC337499   9.423  36.702   9.486
 2765POPC   PO437500  10.029  36.669   9.790
 2765POPC   GL137501   9.887  36.719   9.309
 2765POPC   GL237502   9.695  36.996   9.178
 2765POPC   C1A37503   9.855  36.664   8.835
 2765POPC   D2A37504  10.026  36.599   8.395
 2765POPC   C3A37505   9.719  36.743   8.104
 2765POPC   C4A37506   9.674  36.892   7.693
 2765POPC   C1B37507   9.407  37.068   8.799
 2765POPC   C2B37508   9.277  36.951   8.394
 2765POPC   C3B37509   9.385  37.129   8.055
 2765POPC   C4B37510   9.267  37.232   7.699
 2766POPC   NC337511   4.804  32.163   9.807
 2766POPC   PO437512   4.192  32.097   9.546
 2766POPC   GL137513   4.335  32.136   9.152
 2766POPC   GL237514   4.661  32.025   9.169
 2766POPC   C1A37515   4.443  32.372   8.786
 2766POPC   D2A37516   4.270  32.461   8.389
 2766POPC   C3A37517   4.516  32.459   8.038
 2766POPC   C4A37518   4.372  32.512   7.660
 2766POPC   C1B37519   4.549  31.849   8.782
 2766POPC   C2B37520   4.444  31.979   8.390
 2766POPC   C3B37521   4.310  32.004   7.995
 2766POPC   C4B37522   4.473  31.964   7.612
 2767POPC   NC337523  41.000   7.951   9.367
 2767POPC   PO437524  41.152   7.308   9.501
 2767POPC   GL137525  40.821   7.436   9.203
 2767POPC   GL237526  40.545   7.685   9.165
 2767POPC   C1A37527  40.602   7.266   8.843
 2767POPC   D2A37528  40.791   7.308   8.423
 2767POPC   C3A37529  40.554   7.201   8.060
 2767POPC   C4A37530  40.693   7.283   7.693
 2767POPC   C1B37531  40.762   7.736   8.750
 2767POPC   C2B37532  40.658   7.823   8.324
 2767POPC   C3B37533  40.918   7.793   7.977
 2767POPC   C4B37534  41.299   7.577   7.850
 2768POPC   NC337535   3.291  40.837   9.301
 2768POPC   PO437536   2.720  41.087   9.598
 2768POPC   GL137537   2.819  40.977   9.162
 2768POPC   GL237538   2.751  40.664   9.012
 2768POPC   C1A37539   2.971  40.982   8.705
 2768POPC   D2A37540   2.792  40.780   8.330
 2768POPC   C3A37541   3.003  40.888   7.972
 2768POPC   C4A37542   2.867  40.938   7.562
 2768POPC   C1B37543   2.647  40.399   8.639
 2768POPC   C2B37544   2.617  40.303   8.187
 2768POPC   C3B37545   2.625  40.582   7.859
 2768POPC   C4B37546   2.375  40.917   7.726
 2769POPC   NC337547  33.608  18.739   9.301
 2769POPC   PO437548  33.615  19.409   9.542
 2769POPC   GL137549  33.651  19.231   9.105
 2769POPC   GL237550  33.942  19.072   9.043
 2769POPC   C1A37551  33.776  19.280   8.624
 2769POPC   D2A37552  33.907  19.480   8.243
 2769POPC   C3A37553  33.784  19.199   7.925
 2769POPC   C4A37554  33.970  19.060   7.578
 2769POPC   C1B37555  34.142  18.924   8.689
 2769POPC   C2B37556  34.015  18.876   8.253
 2769POPC   C3B37557  33.915  18.629   7.902
 2769POPC   C4B37558  33.524  18.768   7.757
 2770POPC   NC337559  35.896   8.448   9.459
 2770POPC   PO437560  36.518   8.098   9.486
 2770POPC   GL137561  36.259   8.045   9.107
 2770POPC   GL237562  36.125   8.373   9.016
 2770POPC   C1A37563  36.340   8.120   8.647
 2770POPC   D2A37564  36.089   8.400   8.384
 2770POPC   C3A37565  36.182   8.313   7.954
 2770POPC   C4A37566  36.284   8.327   7.504
 2770POPC   C1B37567  35.802   8.601   8.791
 2770POPC   C2B37568  35.617   8.654   8.376
 2770POPC   C3B37569  35.835   8.673   7.987
 2770POPC   C4B37570  35.769   8.361   7.647
 2771POPC   NC337571  34.224  14.825   9.563
 2771POPC   PO437572  34.489  15.463   9.535
 2771POPC   GL137573  34.604  15.350   9.157
 2771POPC   GL237574  34.310  15.138   9.145
 2771POPC   C1A37575  34.700  15.213   8.747
 2771POPC   D2A37576  34.721  15.487   8.399
 2771POPC   C3A37577  34.670  15.228   8.059
 2771POPC   C4A37578  34.520  15.248   7.666
 2771POPC   C1B37579  34.108  15.071   8.760
 2771POPC   C2B37580  34.286  15.158   8.398
 2771POPC   C3B37581  34.123  15.209   8.016
 2771POPC   C4B37582  34.077  14.965   7.700
 2772POPC   NC337583  10.915   0.903   9.248
 2772POPC   PO437584  10.519   1.304   9.665
 2772POPC   GL137585  10.554   1.325   9.225
 2772POPC   GL237586  10.847   1.569   9.191
 2772POPC   C1A37587  10.388   1.142   8.817
 2772POPC   D2A37588  10.356   1.238   8.355
 2772POPC   C3A37589  10.337   0.957   7.995
 2772POPC   C4A37590  10.502   1.034   7.601
 2772POPC   C1B37591  10.858   1.333   8.782
 2772POPC   C2B37592  10.890   1.136   8.384
 2772POPC   C3B37593  10.746   1.274   7.996
 2772POPC   C4B37594  10.845   1.405   7.612
 2773POPC   NC337595  21.461  29.794   9.276
 2773POPC   PO437596  21.189  30.385   9.598
 2773POPC   GL137597  21.239  30.242   9.173
 2773POPC   GL237598  20.928  30.302   9.130
 2773POPC   C1A37599  21.463  30.156   8.736
 2773POPC   D2A37600  21.457  30.022   8.267
 2773POPC   C3A37601  21.593  30.157   7.836
 2773POPC   C4A37602  21.657  30.155   7.364
 2773POPC   C1B37603  20.962  30.087   8.732
 2773POPC   C2B37604  20.920  29.951   8.301
 2773POPC   C3B37605  21.099  29.975   7.855
 2773POPC   C4B37606  21.173  30.281   7.506
 2774POPC   NC337607  23.901  21.072   9.445
 2774POPC   PO437608  23.428  21.513   9.608
 2774POPC   GL137609  23.582  21.538   9.194
 2774POPC   GL237610  23.607  21.213   9.068
 2774POPC   C1A37611  23.758  21.679   8.797
 2774POPC   D2A37612  23.638  21.825   8.412
 2774POPC   C3A37613  23.646  21.566   8.112
 2774POPC   C4A37614  23.662  21.522   7.717
 2774POPC   C1B37615  23.949  21.205   8.774
 2774POPC   C2B37616  23.867  21.183   8.360
 2774POPC   C3B37617  24.049  21.207   7.951
 2774POPC   C4B37618  24.006  21.212   7.497
 2775POPC   NC337619  41.692  26.479   9.453
 2775POPC   PO437620  41.033  26.431   9.550
 2775POPC   GL137621  41.332  26.175   9.201
 2775POPC   GL237622  41.237  25.850   9.064
 2775POPC   C1A37623  41.582  26.073   8.772
 2775POPC   D2A37624  41.729  26.331   8.405
 2775POPC   C3A37625  41.651  26.124   8.016
 2775POPC   C4A37626  41.436  26.170   7.661
 2775POPC   C1B37627  41.088  25.818   8.647
 2775POPC   C2B37628  41.360  25.823   8.316
 2775POPC   C3B37629  41.470  25.615   7.951
 2775POPC   C4B37630  41.555  25.709   7.522
 2776POPC   NC337631  13.975  24.764   9.426
 2776POPC   PO437632  13.706  25.374   9.482
 2776POPC   GL137633  13.556  25.346   9.070
 2776POPC   GL237634  13.518  25.008   9.073
 2776POPC   C1A37635  13.671  25.364   8.616
 2776POPC   D2A37636  13.415  25.542   8.266
 2776POPC   C3A37637  13.549  25.483   7.854
 2776POPC   C4A37638  13.952  25.345   7.759
 2776POPC   C1B37639  13.756  24.890   8.820
 2776POPC   C2B37640  13.915  24.892   8.477
 2776POPC   C3B37641  13.730  25.097   8.153
 2776POPC   C4B37642  13.623  24.937   7.760
 2777POPC   NC337643   1.045  22.818   9.647
 2777POPC   PO437644   1.692  22.875   9.763
 2777POPC   GL137645   1.473  22.757   9.371
 2777POPC   GL237646   1.270  23.041   9.262
 2777POPC   C1A37647   1.273  22.647   8.952
 2777POPC   D2A37648   1.130  22.712   8.511
 2777POPC   C3A37649   1.375  22.864   8.150
 2777POPC   C4A37650   1.149  22.814   7.759
 2777POPC   C1B37651   1.162  23.150   8.873
 2777POPC   C2B37652   1.280  23.269   8.487
 2777POPC   C3B37653   1.068  23.276   8.123
 2777POPC   C4B37654   1.148  23.330   7.735
 2778POPC   NC337655   9.152  29.039   9.521
 2778POPC   PO437656   8.596  28.850   9.234
 2778POPC   GL137657   8.951  28.939   9.014
 2778POPC   GL237658   9.105  29.273   9.060
 2778POPC   C1A37659   9.026  29.086   8.586
 2778POPC   D2A37660   9.065  29.376   8.274
 2778POPC   C3A37661   8.775  29.148   8.062
 2778POPC   C4A37662   8.815  28.841   7.774
 2778POPC   C1B37663   9.408  29.384   8.723
 2778POPC   C2B37664   9.579  29.265   8.291
 2778POPC   C3B37665   9.455  29.492   7.931
 2778POPC   C4B37666   9.135  29.265   7.744
 2779POPC   NC337667  18.348  14.436   9.471
 2779POPC   PO437668  18.162  13.825   9.545
 2779POPC   GL137669  18.178  14.094   9.126
 2779POPC   GL237670  18.559  14.214   9.078
 2779POPC   C1A37671  18.141  14.370   8.752
 2779POPC   D2A37672  18.136  14.362   8.314
 2779POPC   C3A37673  18.001  14.614   7.985
 2779POPC   C4A37674  17.904  14.518   7.558
 2779POPC   C1B37675  18.601  14.593   8.798
 2779POPC   C2B37676  18.765  14.681   8.362
 2779POPC   C3B37677  18.563  14.681   7.983
 2779POPC   C4B37678  18.401  14.665   7.583
 2780POPC   NC337679  43.330   0.488   9.441
 2780POPC   PO437680  43.016  44.880   9.572
 2780POPC   GL137681  43.161   0.058   9.178
 2780POPC   GL237682  42.883   0.270   9.143
 2780POPC   C1A37683  43.241   0.293   8.775
 2780POPC   D2A37684  43.248   0.135   8.352
 2780POPC   C3A37685  43.429   0.411   8.076
 2780POPC   C4A37686  43.344   0.507   7.658
 2780POPC   C1B37687  42.766   0.098   8.741
 2780POPC   C2B37688  42.741   0.220   8.314
 2780POPC   C3B37689  42.907   0.499   7.993
 2780POPC   C4B37690  42.863   0.724   7.586
 2781POPC   NC337691  14.838  24.974   9.275
 2781POPC   PO437692  14.319  24.556   9.682
 2781POPC   GL137693  14.334  24.464   9.202
 2781POPC   GL237694  14.225  24.726   8.982
 2781POPC   C1A37695  14.498  24.334   8.751
 2781POPC   D2A37696  14.450  24.041   8.386
 2781POPC   C3A37697  14.494  24.285   8.008
 2781POPC   C4A37698  14.692  24.328   7.618
 2781POPC   C1B37699  14.004  24.457   8.753
 2781POPC   C2B37700  14.136  24.455   8.346
 2781POPC   C3B37701  14.148  24.732   7.999
 2781POPC   C4B37702  14.236  24.560   7.597
 2782POPC   NC337703  17.526  29.665   9.354
 2782POPC   PO437704  17.716  30.311   9.367
 2782POPC   GL137705  17.550  30.165   9.056
 2782POPC   GL237706  17.248  30.074   9.165
 2782POPC   C1A37707  17.296  30.391   8.762
 2782POPC   D2A37708  17.184  30.406   8.342
 2782POPC   C3A37709  17.521  30.329   8.083
 2782POPC   C4A37710  17.631  29.996   7.832
 2782POPC   C1B37711  17.333  29.856   8.739
 2782POPC   C2B37712  17.439  29.853   8.298
 2782POPC   C3B37713  17.351  29.569   7.920
 2782POPC   C4B37714  17.178  29.408   7.513
 2783POPC   NC337715  28.074  23.919   9.843
 2783POPC   PO437716  27.414  23.960   9.604
 2783POPC   GL137717  27.675  23.808   9.310
 2783POPC   GL237718  27.508  24.053   9.095
 2783POPC   C1A37719  27.684  23.644   8.865
 2783POPC   D2A37720  27.523  23.670   8.439
 2783POPC   C3A37721  27.694  23.770   8.037
 2783POPC   C4A37722  27.897  23.748   7.666
 2783POPC   C1B37723  27.235  23.947   8.766
 2783POPC   C2B37724  27.119  23.987   8.325
 2783POPC   C3B37725  27.278  24.093   7.927
 2783POPC   C4B37726  27.408  23.846   7.589
 2784POPC   NC337727  15.597  10.372   9.474
 2784POPC   PO437728  15.265  10.881   9.478
 2784POPC   GL137729  15.107  10.643   9.156
 2784POPC   GL237730  15.152  10.311   9.181
 2784POPC   C1A37731  14.971  10.607   8.744
 2784POPC   D2A37732  15.168  10.482   8.357
 2784POPC   C3A37733  15.116  10.563   7.930
 2784POPC   C4A37734  15.505  10.696   7.764
 2784POPC   C1B37735  15.382  10.270   8.783
 2784POPC   C2B37736  15.576  10.166   8.376
 2784POPC   C3B37737  15.441  10.144   7.930
 2784POPC   C4B37738  15.335  10.299   7.499
 2785POPC   NC337739  26.539  34.554   9.352
 2785POPC   PO437740  27.228  34.732   9.419
 2785POPC   GL137741  26.952  34.725   9.091
 2785POPC   GL237742  26.761  35.028   9.026
 2785POPC   C1A37743  27.006  34.547   8.713
 2785POPC   D2A37744  27.187  34.768   8.405
 2785POPC   C3A37745  27.137  34.543   8.077
 2785POPC   C4A37746  26.838  34.596   7.822
 2785POPC   C1B37747  26.548  34.772   8.710
 2785POPC   C2B37748  26.646  34.662   8.317
 2785POPC   C3B37749  26.372  34.537   8.024
 2785POPC   C4B37750  26.390  34.650   7.611
 2786POPC   NC337751  30.458  25.529   9.285
 2786POPC   PO437752  30.677  24.890   9.396
 2786POPC   GL137753  30.695  25.108   9.022
 2786POPC   GL237754  30.370  25.174   8.923
 2786POPC   C1A37755  30.744  25.137   8.558
 2786POPC   D2A37756  30.925  24.979   8.171
 2786POPC   C3A37757  30.710  25.116   7.785
 2786POPC   C4A37758  30.799  25.047   7.315
 2786POPC   C1B37759  30.359  25.526   8.618
 2786POPC   C2B37760  30.452  25.546   8.168
 2786POPC   C3B37761  30.288  25.611   7.778
 2786POPC   C4B37762  30.511  25.417   7.437
 2787POPC   NC337763   8.598  43.510   9.598
 2787POPC   PO437764   8.011  43.155   9.427
 2787POPC   GL137765   8.086  43.298   9.059
 2787POPC   GL237766   8.424  43.336   9.147
 2787POPC   C1A37767   7.918  43.145   8.684
 2787POPC   D2A37768   7.882  42.867   8.317
 2787POPC   C3A37769   7.932  43.067   7.936
 2787POPC   C4A37770   7.851  43.089   7.493
 2787POPC   C1B37771   8.498  43.192   8.740
 2787POPC   C2B37772   8.337  43.091   8.359
 2787POPC   C3B37773   8.362  42.813   8.050
 2787POPC   C4B37774   8.403  43.092   7.709
 2788POPC   NC337775  20.930  34.078   9.464
 2788POPC   PO437776  21.520  33.794   9.459
 2788POPC   GL137777  21.294  33.762   9.093
 2788POPC   GL237778  21.081  34.019   8.995
 2788POPC   C1A37779  21.509  33.537   8.781
 2788POPC   D2A37780  21.810  33.698   8.524
 2788POPC   C3A37781  21.515  33.695   8.205
 2788POPC   C4A37782  21.349  33.627   7.818
 2788POPC   C1B37783  21.149  33.873   8.568
 2788POPC   C2B37784  20.980  33.788   8.146
 2788POPC   C3B37785  21.053  34.030   7.757
 2788POPC   C4B37786  21.138  34.191   7.374
 2789POPC   NC337787   3.904  43.884   9.312
 2789POPC   PO437788   4.526  43.827   9.572
 2789POPC   GL137789   4.386  43.762   9.184
 2789POPC   GL237790   4.327  44.118   9.110
 2789POPC   C1A37791   4.468  43.746   8.755
 2789POPC   D2A37792   4.186  43.739   8.420
 2789POPC   C3A37793   4.407  43.796   8.048
 2789POPC   C4A37794   4.461  43.892   7.617
 2789POPC   C1B37795   3.996  44.298   8.811
 2789POPC   C2B37796   3.926  44.171   8.380
 2789POPC   C3B37797   4.118  44.216   7.949
 2789POPC   C4B37798   4.124  44.220   7.479
 2790POPC   NC337799  25.962  35.731   9.385
 2790POPC   PO437800  26.028  35.109   9.705
 2790POPC   GL137801  25.942  35.255   9.200
 2790POPC   GL237802  26.206  35.428   9.058
 2790POPC   C1A37803  25.834  35.359   8.742
 2790POPC   D2A37804  26.040  35.556   8.407
 2790POPC   C3A37805  25.879  35.445   8.019
 2790POPC   C4A37806  25.941  35.365   7.593
 2790POPC   C1B37807  26.361  35.240   8.693
 2790POPC   C2B37808  26.306  35.051   8.312
 2790POPC   C3B37809  26.526  35.018   7.940
 2790POPC   C4B37810  26.409  35.146   7.540
 2791POPC   NC337811  44.753   1.466   9.680
 2791POPC   PO437812  44.356   1.023   9.466
 2791POPC   GL137813  44.654   1.238   9.205
 2791POPC   GL237814  44.451   1.532   9.186
 2791POPC   C1A37815  44.772   1.071   8.793
 2791POPC   D2A37816  44.874   1.277   8.404
 2791POPC   C3A37817  44.696   1.219   8.026
 2791POPC   C4A37818  44.863   1.242   7.651
 2791POPC   C1B37819  44.290   1.275   8.826
 2791POPC   C2B37820  44.355   1.137   8.416
 2791POPC   C3B37821  44.196   1.327   8.043
 2791POPC   C4B37822  44.355   1.278   7.635
 2792POPC   NC337823  32.834  24.688   9.310
 2792POPC   PO437824  32.990  24.059   9.334
 2792POPC   GL137825  33.132  24.351   9.047
 2792POPC   GL237826  33.329  24.582   9.243
 2792POPC   C1A37827  33.001  24.537   8.648
 2792POPC   D2A37828  33.072  24.358   8.242
 2792POPC   C3A37829  32.900  24.457   7.844
 2792POPC   C4A37830  32.901  24.449   7.348
 2792POPC   C1B37831  33.497  24.681   8.862
 2792POPC   C2B37832  33.562  24.702   8.407
 2792POPC   C3B37833  33.377  24.678   7.982
 2792POPC   C4B37834  33.331  24.660   7.537
 2793POPC   NC337835  21.965   7.111   9.462
 2793POPC   PO437836  22.502   7.606   9.515
 2793POPC   GL137837  22.214   7.491   9.196
 2793POPC   GL237838  22.430   7.185   9.177
 2793POPC   C1A37839  22.145   7.601   8.754
 2793POPC   D2A37840  22.435   7.532   8.424
 2793POPC   C3A37841  22.293   7.397   8.017
 2793POPC   C4A37842  22.000   7.465   7.696
 2793POPC   C1B37843  22.235   7.121   8.805
 2793POPC   C2B37844  22.032   7.179   8.428
 2793POPC   C3B37845  22.102   6.908   8.133
 2793POPC   C4B37846  22.078   6.962   7.756
 2794POPC   NC337847  18.680   7.332   9.535
 2794POPC   PO437848  19.185   7.790   9.479
 2794POPC   GL137849  19.323   7.550   9.097
 2794POPC   GL237850  19.176   7.195   9.095
 2794POPC   C1A37851  19.178   7.485   8.646
 2794POPC   D2A37852  19.279   7.281   8.242
 2794POPC   C3A37853  19.222   7.538   7.899
 2794POPC   C4A37854  18.872   7.691   7.690
 2794POPC   C1B37855  19.046   6.979   8.700
 2794POPC   C2B37856  18.810   7.110   8.346
 2794POPC   C3B37857  18.820   7.221   7.916
 2794POPC   C4B37858  18.605   7.284   7.500
 2795POPC   NC337859  34.930  10.702   9.500
 2795POPC   PO437860  34.476  10.167   9.509
 2795POPC   GL137861  34.664  10.265   9.103
 2795POPC   GL237862  34.699  10.622   9.077
 2795POPC   C1A37863  34.633  10.392   8.650
 2795POPC   D2A37864  34.437  10.257   8.314
 2795POPC   C3A37865  34.658  10.440   8.007
 2795POPC   C4A37866  34.573  10.413   7.577
 2795POPC   C1B37867  34.696  10.954   8.804
 2795POPC   C2B37868  34.817  10.900   8.407
 2795POPC   C3B37869  34.661  10.943   8.025
 2795POPC   C4B37870  34.867  10.801   7.669
 2796POPC   NC337871  32.950  29.467   9.228
 2796POPC   PO437872  33.068  30.018   9.587
 2796POPC   GL137873  32.952  30.022   9.163
 2796POPC   GL237874  32.726  30.306   9.154
 2796POPC   C1A37875  33.154  29.878   8.734
 2796POPC   D2A37876  33.138  29.624   8.354
 2796POPC   C3A37877  33.063  29.842   7.952
 2796POPC   C4A37878  33.193  29.967   7.533
 2796POPC   C1B37879  32.659  30.072   8.745
 2796POPC   C2B37880  32.725  29.922   8.340
 2796POPC   C3B37881  32.540  29.789   7.946
 2796POPC   C4B37882  32.682  30.095   7.645
 2797POPC   NC337883   9.308  28.331   9.514
 2797POPC   PO437884   8.808  28.753   9.702
 2797POPC   GL137885   8.907  28.471   9.264
 2797POPC   GL237886   8.625  28.392   9.006
 2797POPC   C1A37887   9.112  28.383   8.862
 2797POPC   D2A37888   8.914  28.227   8.487
 2797POPC   C3A37889   9.088  28.303   8.103
 2797POPC   C4A37890   9.170  28.466   7.709
 2797POPC   C1B37891   8.728  28.666   8.636
 2797POPC   C2B37892   8.721  28.622   8.207
 2797POPC   C3B37893   8.640  28.366   7.800
 2797POPC   C4B37894   8.494  28.614   7.430
 2798POPC   NC337895  11.191  15.305   9.472
 2798POPC   PO437896  11.693  14.923   9.554
 2798POPC   GL137897  11.491  15.024   9.144
 2798POPC   GL237898  11.469  15.393   9.049
 2798POPC   C1A37899  11.244  15.032   8.743
 2798POPC   D2A37900  11.328  15.262   8.348
 2798POPC   C3A37901  11.227  15.100   7.936
 2798POPC   C4A37902  11.418  14.751   7.762
 2798POPC   C1B37903  11.044  15.492   8.842
 2798POPC   C2B37904  10.859  15.456   8.435
 2798POPC   C3B37905  11.037  15.576   8.055
 2798POPC   C4B37906  11.436  15.578   7.842
 2799POPC   NC337907  13.868  44.378   9.640
 2799POPC   PO437908  14.394  44.825   9.470
 2799POPC   GL137909  14.407  44.560   9.143
 2799POPC   GL237910  14.130  44.362   9.187
 2799POPC   C1A37911  14.459  44.683   8.725
 2799POPC   D2A37912  14.397  44.840   8.325
 2799POPC   C3A37913  14.687  44.683   8.029
 2799POPC   C4A37914  14.471  44.698   7.640
 2799POPC   C1B37915  13.959  44.483   8.790
 2799POPC   C2B37916  13.985  44.462   8.363
 2799POPC   C3B37917  13.993  44.612   7.933
 2799POPC   C4B37918  13.999  44.378   7.548
 2800POPC   NC337919   6.599  21.128   9.505
 2800POPC   PO437920   6.060  21.510   9.441
 2800POPC   GL137921   6.336  21.512   9.086
 2800POPC   GL237922   6.475  21.203   9.020
 2800POPC   C1A37923   6.489  21.568   8.636
 2800POPC   D2A37924   6.630  21.290   8.301
 2800POPC   C3A37925   6.775  21.462   7.919
 2800POPC   C4A37926   6.631  21.681   7.558
 2800POPC   C1B37927   6.847  21.142   8.758
 2800POPC   C2B37928   6.983  20.850   8.469
 2800POPC   C3B37929   6.973  20.971   8.068
 2800POPC   C4B37930   6.996  21.108   7.644
 2801POPC   NC337931  24.589  41.013   9.333
 2801POPC   PO437932  24.378  41.518   9.751
 2801POPC   GL137933  24.486  41.492   9.209
 2801POPC   GL237934  24.175  41.494   8.990
 2801POPC   C1A37935  24.568  41.396   8.710
 2801POPC   D2A37936  24.723  41.523   8.287
 2801POPC   C3A37937  24.548  41.524   7.880
 2801POPC   C4A37938  24.739  41.776   7.575
 2801POPC   C1B37939  24.231  41.772   8.650
 2801POPC   C2B37940  24.216  41.759   8.207
 2801POPC   C3B37941  24.253  41.910   7.774
 2801POPC   C4B37942  24.297  41.632   7.398
 2802POPC   NC337943  24.720  15.882   9.629
 2802POPC   PO437944  25.313  16.106   9.453
 2802POPC   GL137945  25.228  15.782   9.157
 2802POPC   GL237946  24.904  15.666   9.197
 2802POPC   C1A37947  25.327  15.938   8.751
 2802POPC   D2A37948  25.614  15.925   8.425
 2802POPC   C3A37949  25.348  15.917   8.043
 2802POPC   C4A37950  25.189  15.965   7.631
 2802POPC   C1B37951  24.972  15.481   8.806
 2802POPC   C2B37952  24.806  15.443   8.381
 2802POPC   C3B37953  24.887  15.633   7.954
 2802POPC   C4B37954  24.876  15.591   7.484
 2803POPC   NC337955  43.005  31.195   9.589
 2803POPC   PO437956  42.666  31.713   9.798
 2803POPC   GL137957  42.710  31.453   9.301
 2803POPC   GL237958  43.054  31.495   9.184
 2803POPC   C1A37959  42.784  31.549   8.780
 2803POPC   D2A37960  42.668  31.430   8.355
 2803POPC   C3A37961  42.930  31.422   8.010
 2803POPC   C4A37962  42.928  31.671   7.602
 2803POPC   C1B37963  43.275  31.246   8.804
 2803POPC   C2B37964  43.454  31.277   8.388
 2803POPC   C3B37965  43.336  31.085   7.998
 2803POPC   C4B37966  43.250  31.289   7.627
 2804POPC   NC337967  32.593  38.417   9.565
 2804POPC   PO437968  31.833  38.274   9.474
 2804POPC   GL137969  31.995  38.567   9.192
 2804POPC   GL237970  32.325  38.598   9.180
 2804POPC   C1A37971  31.989  38.670   8.788
 2804POPC   D2A37972  32.213  38.471   8.517
 2804POPC   C3A37973  32.000  38.326   8.169
 2804POPC   C4A37974  32.011  38.631   7.842
 2804POPC   C1B37975  32.666  38.626   8.884
 2804POPC   C2B37976  32.711  38.484   8.449
 2804POPC   C3B37977  32.490  38.483   8.079
 2804POPC   C4B37978  32.383  38.235   7.810
 2805POPC   NC337979  20.824  13.751   9.513
 2805POPC   PO437980  20.339  13.235   9.547
 2805POPC   GL137981  20.563  13.408   9.212
 2805POPC   GL237982  20.533  13.776   9.095
 2805POPC   C1A37983  20.500  13.357   8.817
 2805POPC   D2A37984  20.517  13.633   8.453
 2805POPC   C3A37985  20.533  13.390   8.079
 2805POPC   C4A37986  20.645  13.292   7.676
 2805POPC   C1B37987  20.361  14.070   8.794
 2805POPC   C2B37988  20.204  14.037   8.371
 2805POPC   C3B37989  20.446  13.952   7.996
 2805POPC   C4B37990  20.338  14.150   7.598
 2806POPC   NC337991   8.704  11.185   9.726
 2806POPC   PO437992   8.173  11.355   9.343
 2806POPC   GL137993   8.187  11.149   8.959
 2806POPC   GL237994   8.483  11.317   8.936
 2806POPC   C1A37995   8.386  11.033   8.544
 2806POPC   D2A37996   8.542  11.285   8.208
 2806POPC   C3A37997   8.194  11.362   7.976
 2806POPC   C4A37998   8.238  11.097   7.664
 2806POPC   C1B37999   8.431  11.539   8.622
 2806POPC   C2B38000   8.316  11.749   8.308
 2806POPC   C3B38001   8.470  11.801   7.900
 2806POPC   C4B38002   8.297  11.613   7.531
 2807POPC   NC338003  44.419   5.541   9.587
 2807POPC   PO438004   0.012   5.844   9.614
 2807POPC   GL138005  44.904   5.879   9.198
 2807POPC   GL238006  44.704   5.597   9.162
 2807POPC   C1A38007  44.670   5.977   8.817
 2807POPC   D2A38008  44.663   5.855   8.422
 2807POPC   C3A38009  44.703   6.154   8.104
 2807POPC   C4A38010  44.540   6.071   7.699
 2807POPC   C1B38011  44.349   5.557   8.844
 2807POPC   C2B38012  44.192   5.615   8.425
 2807POPC   C3B38013  44.366   5.704   8.028
 2807POPC   C4B38014  44.560   5.445   7.747
 2808POPC   NC338015  10.272   4.244   9.553
 2808POPC   PO438016  10.902   4.060   9.647
 2808POPC   GL138017  10.687   4.175   9.240
 2808POPC   GL238018  10.617   4.548   9.260
 2808POPC   C1A38019  10.506   4.238   8.822
 2808POPC   D2A38020  10.306   4.207   8.432
 2808POPC   C3A38021  10.512   4.183   8.043
 2808POPC   C4A38022  10.462   4.034   7.638
 2808POPC   C1B38023  10.746   4.688   8.836
 2808POPC   C2B38024  10.615   4.619   8.429
 2808POPC   C3B38025  10.689   4.674   8.005
 2808POPC   C4B38026  10.476   4.550   7.663
 2809POPC   NC338027   0.730  41.633   9.480
 2809POPC   PO438028   0.078  41.912   9.400
 2809POPC   GL138029   0.337  41.769   9.109
 2809POPC   GL238030   0.335  41.425   9.098
 2809POPC   C1A38031   0.354  41.707   8.672
 2809POPC   D2A38032   0.486  41.430   8.378
 2809POPC   C3A38033   0.459  41.612   7.960
 2809POPC   C4A38034   0.346  41.486   7.526
 2809POPC   C1B38035   0.734  41.386   8.877
 2809POPC   C2B38036   0.981  41.388   8.521
 2809POPC   C3B38037   0.932  41.409   8.102
 2809POPC   C4B38038   0.783  41.315   7.708
 2810POPC   NC338039  23.018  14.068   9.654
 2810POPC   PO438040  22.566  14.502   9.572
 2810POPC   GL138041  22.942  14.444   9.286
 2810POPC   GL238042  22.755  14.573   9.068
 2810POPC   C1A38043  23.196  14.424   8.847
 2810POPC   D2A38044  23.372  14.636   8.432
 2810POPC   C3A38045  23.332  14.508   7.967
 2810POPC   C4A38046  23.257  14.530   7.477
 2810POPC   C1B38047  22.734  14.173   8.869
 2810POPC   C2B38048  22.849  14.304   8.475
 2810POPC   C3B38049  22.799  14.552   8.120
 2810POPC   C4B38050  22.816  14.464   7.695
 2811POPC   NC338051  37.293  14.970   9.512
 2811POPC   PO438052  37.907  15.216   9.490
 2811POPC   GL138053  37.591  15.283   9.183
 2811POPC   GL238054  37.756  15.074   8.994
 2811POPC   C1A38055  37.498  15.441   8.770
 2811POPC   D2A38056  37.677  15.137   8.494
 2811POPC   C3A38057  37.704  15.178   8.094
 2811POPC   C4A38058  37.499  15.129   7.720
 2811POPC   C1B38059  38.017  15.392   8.804
 2811POPC   C2B38060  38.204  15.379   8.379
 2811POPC   C3B38061  38.125  15.404   7.920
 2811POPC   C4B38062  37.983  15.203   7.522
 2812POPC   NC338063  27.865  13.776   9.420
 2812POPC   PO438064  27.330  13.422   9.378
 2812POPC   GL138065  27.474  13.795   9.067
 2812POPC   GL238066  27.831  13.794   8.907
 2812POPC   C1A38067  27.404  13.969   8.659
 2812POPC   D2A38068  27.351  13.657   8.347
 2812POPC   C3A38069  27.482  13.709   7.954
 2812POPC   C4A38070  27.895  13.563   7.824
 2812POPC   C1B38071  27.571  13.407   8.756
 2812POPC   C2B38072  27.454  13.151   8.399
 2812POPC   C3B38073  27.561  13.177   7.964
 2812POPC   C4B38074  27.506  13.361   7.529
 2813POPC   NC338075  42.131  16.680   9.321
 2813POPC   PO438076  42.520  17.108   9.660
 2813POPC   GL138077  42.600  16.879   9.252
 2813POPC   GL238078  42.538  16.556   9.076
 2813POPC   C1A38079  42.560  16.961   8.795
 2813POPC   D2A38080  42.276  16.755   8.500
 2813POPC   C3A38081  42.329  16.814   8.030
 2813POPC   C4A38082  42.641  16.876   7.646
 2813POPC   C1B38083  42.270  16.263   8.814
 2813POPC   C2B38084  42.016  16.314   8.446
 2813POPC   C3B38085  42.123  16.287   8.007
 2813POPC   C4B38086  42.235  16.533   7.603
 2814POPC   NC338087  35.681  15.478   9.457
 2814POPC   PO438088  36.267  15.130   9.384
 2814POPC   GL138089  35.948  15.024   9.089
 2814POPC   GL238090  35.924  15.317   8.895
 2814POPC   C1A38091  36.014  14.851   8.656
 2814POPC   D2A38092  36.097  15.045   8.254
 2814POPC   C3A38093  35.945  14.869   7.865
 2814POPC   C4A38094  36.295  15.051   7.673
 2814POPC   C1B38095  36.367  15.208   8.731
 2814POPC   C2B38096  36.566  15.383   8.355
 2814POPC   C3B38097  36.408  15.480   7.948
 2814POPC   C4B38098  35.959  15.389   7.867
 2815POPC   NC338099  12.509  36.883   9.681
 2815POPC   PO438100  12.983  36.325   9.651
 2815POPC   GL138101  12.877  36.542   9.208
 2815POPC   GL238102  12.599  36.740   9.191
 2815POPC   C1A38103  12.944  36.858   8.837
 2815POPC   D2A38104  12.926  36.656   8.424
 2815POPC   C3A38105  12.953  36.885   8.066
 2815POPC   C4A38106  13.115  36.898   7.670
 2815POPC   C1B38107  12.580  36.520   8.785
 2815POPC   C2B38108  12.412  36.620   8.425
 2815POPC   C3B38109  12.435  36.441   8.057
 2815POPC   C4B38110  12.634  36.643   7.721
 2816POPC   NC338111  30.975  33.366   9.128
 2816POPC   PO438112  30.608  32.962   9.597
 2816POPC   GL138113  30.556  32.862   9.163
 2816POPC   GL238114  30.901  32.886   9.048
 2816POPC   C1A38115  30.382  32.957   8.735
 2816POPC   D2A38116  30.595  33.231   8.399
 2816POPC   C3A38117  30.425  33.378   7.996
 2816POPC   C4A38118  30.450  33.292   7.533
 2816POPC   C1B38119  30.871  32.856   8.625
 2816POPC   C2B38120  30.586  32.618   8.412
 2816POPC   C3B38121  30.410  32.839   8.114
 2816POPC   C4B38122  30.733  33.008   7.838
 2817POPC   NC338123  11.385  39.710   9.836
 2817POPC   PO438124  11.298  40.143   9.316
 2817POPC   GL138125  11.483  39.935   9.018
 2817POPC   GL238126  11.222  39.903   8.853
 2817POPC   C1A38127  11.727  40.018   8.683
 2817POPC   D2A38128  11.531  40.133   8.307
 2817POPC   C3A38129  11.621  40.144   7.871
 2817POPC   C4A38130  11.575  40.026   7.448
 2817POPC   C1B38131  11.029  39.583   8.664
 2817POPC   C2B38132  10.836  39.630   8.304
 2817POPC   C3B38133  10.932  39.919   7.951
 2817POPC   C4B38134  11.072  39.794   7.561
 2818POPC   NC338135  36.450  12.030   9.349
 2818POPC   PO438136  35.986  11.714   9.720
 2818POPC   GL138137  35.965  12.133   9.295
 2818POPC   GL238138  36.185  12.034   8.926
 2818POPC   C1A38139  35.911  12.451   8.931
 2818POPC   D2A38140  36.055  12.296   8.517
 2818POPC   C3A38141  35.960  12.390   8.092
 2818POPC   C4A38142  36.253  12.235   7.780
 2818POPC   C1B38143  36.215  11.682   8.584
 2818POPC   C2B38144  36.317  11.586   8.137
 2818POPC   C3B38145  36.170  11.728   7.715
 2818POPC   C4B38146  36.077  11.768   7.226
 2819POPC   NC338147  37.979  11.126   9.451
 2819POPC   PO438148  38.405  11.606   9.448
 2819POPC   GL138149  38.522  11.354   9.127
 2819POPC   GL238150  38.447  11.043   9.235
 2819POPC   C1A38151  38.686  11.490   8.768
 2819POPC   D2A38152  38.781  11.552   8.404
 2819POPC   C3A38153  38.434  11.526   8.186
 2819POPC   C4A38154  38.528  11.519   7.765
 2819POPC   C1B38155  38.379  10.930   8.806
 2819POPC   C2B38156  38.494  11.047   8.391
 2819POPC   C3B38157  38.353  11.063   7.956
 2819POPC   C4B38158  38.008  10.841   7.805
 2820POPC   NC338159  43.920  16.016   9.437
 2820POPC   PO438160  43.380  16.280   9.281
 2820POPC   GL138161  43.644  15.970   9.019
 2820POPC   GL238162  43.888  15.672   9.084
 2820POPC   C1A38163  43.697  15.982   8.606
 2820POPC   D2A38164  43.850  15.891   8.235
 2820POPC   C3A38165  43.698  16.044   7.850
 2820POPC   C4A38166  43.499  16.446   7.814
 2820POPC   C1B38167  44.166  15.851   8.770
 2820POPC   C2B38168  44.334  15.761   8.377
 2820POPC   C3B38169  44.255  15.870   7.963
 2820POPC   C4B38170  44.022  15.663   7.694
 2821POPC   NC338171  30.814   4.575   9.516
 2821POPC   PO438172  31.000   3.893   9.450
 2821POPC   GL138173  30.795   4.191   9.134
 2821POPC   GL238174  30.459   4.377   9.080
 2821POPC   C1A38175  30.725   4.124   8.708
 2821POPC   D2A38176  30.916   3.974   8.351
 2821POPC   C3A38177  30.860   4.289   8.040
 2821POPC   C4A38178  30.507   4.178   7.781
 2821POPC   C1B38179  30.574   4.602   8.626
 2821POPC   C2B38180  30.509   4.644   8.148
 2821POPC   C3B38181  30.266   4.612   7.763
 2821POPC   C4B38182  30.358   4.445   7.325
 2822POPC   NC338183  40.413   8.760   9.471
 2822POPC   PO438184  39.811   8.998   9.604
 2822POPC   GL138185  39.961   8.920   9.158
 2822POPC   GL238186  40.276   8.992   9.049
 2822POPC   C1A38187  39.850   8.978   8.716
 2822POPC   D2A38188  40.117   9.041   8.381
 2822POPC   C3A38189  39.950   8.991   8.003
 2822POPC   C4A38190  39.696   8.642   7.872
 2822POPC   C1B38191  40.269   9.320   8.780
 2822POPC   C2B38192  40.540   9.312   8.399
 2822POPC   C3B38193  40.480   9.115   8.008
 2822POPC   C4B38194  40.251   9.321   7.687
 2823POPC   NC338195   5.085  39.351   9.538
 2823POPC   PO438196   5.430  38.949   9.182
 2823POPC   GL138197   5.182  39.272   9.047
 2823POPC   GL238198   4.829  39.315   9.113
 2823POPC   C1A38199   5.141  39.386   8.671
 2823POPC   D2A38200   5.208  39.176   8.333
 2823POPC   C3A38201   5.011  39.345   8.014
 2823POPC   C4A38202   5.143  39.282   7.642
 2823POPC   C1B38203   4.619  39.330   8.759
 2823POPC   C2B38204   4.650  39.151   8.353
 2823POPC   C3B38205   4.569  38.940   7.986
 2823POPC   C4B38206   4.577  39.203   7.646
 2824POPC   NC338207  39.637  11.891   9.261
 2824POPC   PO438208  39.589  12.367   9.681
 2824POPC   GL138209  39.271  12.253   9.220
 2824POPC   GL238210  39.135  11.898   9.125
 2824POPC   C1A38211  39.363  12.109   8.695
 2824POPC   D2A38212  39.449  11.838   8.292
 2824POPC   C3A38213  39.406  12.156   7.963
 2824POPC   C4A38214  39.615  12.305   7.566
 2824POPC   C1B38215  38.901  11.958   8.752
 2824POPC   C2B38216  38.978  12.016   8.331
 2824POPC   C3B38217  38.905  11.825   7.961
 2824POPC   C4B38218  39.044  12.061   7.620
 2825POPC   NC338219   6.436   7.930   9.499
 2825POPC   PO438220   7.007   8.231   9.457
 2825POPC   GL138221   6.919   8.263   9.066
 2825POPC   GL238222   6.610   8.164   9.061
 2825POPC   C1A38223   6.966   8.251   8.660
 2825POPC   D2A38224   6.598   8.267   8.479
 2825POPC   C3A38225   6.694   8.202   8.081
 2825POPC   C4A38226   7.009   8.117   7.749
 2825POPC   C1B38227   6.388   7.917   8.800
 2825POPC   C2B38228   6.390   7.809   8.371
 2825POPC   C3B38229   6.207   7.946   7.997
 2825POPC   C4B38230   6.519   7.906   7.709
 2826POPC   NC338231  32.621  23.786   9.446
 2826POPC   PO438232  31.972  23.482   9.446
 2826POPC   GL138233  32.142  23.523   9.058
 2826POPC   GL238234  32.333  23.822   9.034
 2826POPC   C1A38235  31.981  23.662   8.672
 2826POPC   D2A38236  31.940  23.968   8.337
 2826POPC   C3A38237  31.903  23.714   7.956
 2826POPC   C4A38238  32.080  23.504   7.595
 2826POPC   C1B38239  32.496  23.677   8.649
 2826POPC   C2B38240  32.324  23.639   8.252
 2826POPC   C3B38241  32.405  23.786   7.855
 2826POPC   C4B38242  32.623  23.486   7.622
 2827POPC   NC338243  35.516   2.997   9.475
 2827POPC   PO438244  35.123   2.487   9.443
 2827POPC   GL138245  35.188   2.763   9.140
 2827POPC   GL238246  34.961   3.038   9.184
 2827POPC   C1A38247  35.521   2.716   8.846
 2827POPC   D2A38248  35.413   2.481   8.525
 2827POPC   C3A38249  35.488   2.648   8.122
 2827POPC   C4A38250  35.319   2.588   7.737
 2827POPC   C1B38251  35.257   3.156   8.839
 2827POPC   C2B38252  35.495   3.074   8.460
 2827POPC   C3B38253  35.366   3.141   8.049
 2827POPC   C4B38254  35.149   3.068   7.669
 2828POPC   NC338255  35.524  28.432   9.414
 2828POPC   PO438256  34.844  28.417   9.593
 2828POPC   GL138257  35.062  28.352   9.205
 2828POPC   GL238258  35.145  28.723   9.197
 2828POPC   C1A38259  35.110  28.190   8.784
 2828POPC   D2A38260  35.291  28.001   8.426
 2828POPC   C3A38261  35.132  28.146   8.040
 2828POPC   C4A38262  35.424  28.230   7.708
 2828POPC   C1B38263  35.317  28.680   8.774
 2828POPC   C2B38264  35.143  28.530   8.385
 2828POPC   C3B38265  35.209  28.645   7.945
 2828POPC   C4B38266  35.047  28.906   7.618
 2829POPC   NC338267  44.560   3.140   9.563
 2829POPC   PO438268  44.760   2.485   9.368
 2829POPC   GL138269  44.696   2.589   9.001
 2829POPC   GL238270  44.500   2.871   9.119
 2829POPC   C1A38271  44.802   2.546   8.573
 2829POPC   D2A38272  44.526   2.588   8.213
 2829POPC   C3A38273  44.793   2.581   7.861
 2829POPC   C4A38274   0.026   2.936   7.752
 2829POPC   C1B38275  44.366   2.830   8.697
 2829POPC   C2B38276  44.441   3.104   8.352
 2829POPC   C3B38277  44.530   3.027   7.936
 2829POPC   C4B38278  44.268   2.694   7.748
 2830POPC   NC338279  31.081  14.430   9.483
 2830POPC   PO438280  30.513  14.180   9.365
 2830POPC   GL138281  30.745  14.429   9.090
 2830POPC   GL238282  30.538  14.359   8.848
 2830POPC   C1A38283  30.861  14.716   8.708
 2830POPC   D2A38284  30.889  14.502   8.318
 2830POPC   C3A38285  30.880  14.654   7.893
 2830POPC   C4A38286  30.547  14.647   7.656
 2830POPC   C1B38287  30.722  14.021   8.640
 2830POPC   C2B38288  30.825  14.005   8.233
 2830POPC   C3B38289  30.642  14.206   7.925
 2830POPC   C4B38290  30.586  14.055   7.555
 2831POPC   NC338291  28.631   3.794   9.525
 2831POPC   PO438292  28.252   3.222   9.611
 2831POPC   GL138293  28.247   3.507   9.263
 2831POPC   GL238294  28.447   3.335   9.055
 2831POPC   C1A38295  28.331   3.838   8.926
 2831POPC   D2A38296  28.184   3.897   8.489
 2831POPC   C3A38297  28.349   3.745   8.092
 2831POPC   C4A38298  28.240   3.683   7.650
 2831POPC   C1B38299  28.146   3.406   8.747
 2831POPC   C2B38300  28.025   3.411   8.360
 2831POPC   C3B38301  28.214   3.265   8.007
 2831POPC   C4B38302  28.058   3.204   7.634
 2832POPC   NC338303  41.133  16.128   9.519
 2832POPC   PO438304  40.475  15.897   9.462
 2832POPC   GL138305  40.744  15.865   9.084
 2832POPC   GL238306  41.007  16.077   9.021
 2832POPC   C1A38307  40.811  15.840   8.630
 2832POPC   D2A38308  40.856  16.136   8.312
 2832POPC   C3A38309  40.679  15.960   7.922
 2832POPC   C4A38310  40.969  15.763   7.745
 2832POPC   C1B38311  41.056  16.437   8.735
 2832POPC   C2B38312  41.003  16.639   8.345
 2832POPC   C3B38313  41.178  16.435   7.998
 2832POPC   C4B38314  40.987  16.277   7.627
 2833POPC   NC338315   4.533  35.913   9.734
 2833POPC   PO438316   4.067  36.338   9.658
 2833POPC   GL138317   4.231  36.054   9.251
 2833POPC   GL238318   4.037  35.757   9.123
 2833POPC   C1A38319   4.331  36.154   8.792
 2833POPC   D2A38320   4.440  36.018   8.386
 2833POPC   C3A38321   4.299  36.278   8.052
 2833POPC   C4A38322   4.562  36.378   7.715
 2833POPC   C1B38323   4.306  35.653   8.808
 2833POPC   C2B38324   4.140  35.601   8.421
 2833POPC   C3B38325   4.185  35.734   8.023
 2833POPC   C4B38326   4.381  35.596   7.663
 2834POPC   NC338327  29.380   2.371   9.333
 2834POPC   PO438328  29.108   1.745   9.459
 2834POPC   GL138329  29.251   1.926   9.087
 2834POPC   GL238330  28.952   2.140   9.173
 2834POPC   C1A38331  29.303   1.981   8.620
 2834POPC   D2A38332  29.189   1.768   8.219
 2834POPC   C3A38333  29.440   1.790   7.803
 2834POPC   C4A38334  29.384   1.681   7.336
 2834POPC   C1B38335  28.901   2.264   8.781
 2834POPC   C2B38336  29.047   2.312   8.342
 2834POPC   C3B38337  29.188   2.218   7.982
 2834POPC   C4B38338  28.957   2.102   7.662
 2835POPC   NC338339  39.989  42.751   9.414
 2835POPC   PO438340  40.315  43.352   9.420
 2835POPC   GL138341  40.050  43.188   9.094
 2835POPC   GL238342  39.745  43.359   9.052
 2835POPC   C1A38343  39.850  42.947   8.765
 2835POPC   D2A38344  39.658  42.980   8.360
 2835POPC   C3A38345  39.887  43.142   8.039
 2835POPC   C4A38346  40.185  43.054   7.729
 2835POPC   C1B38347  39.824  43.473   8.650
 2835POPC   C2B38348  39.570  43.528   8.303
 2835POPC   C3B38349  39.635  43.552   7.868
 2835POPC   C4B38350  40.078  43.574   7.783
 2836POPC   NC338351  14.752  30.160   9.512
 2836POPC   PO438352  15.424  30.000   9.572
 2836POPC   GL138353  15.309  29.950   9.144
 2836POPC   GL238354  14.978  29.891   9.125
 2836POPC   C1A38355  15.345  30.082   8.700
 2836POPC   D2A38356  15.413  30.308   8.306
 2836POPC   C3A38357  15.606  30.138   7.962
 2836POPC   C4A38358  15.220  30.104   7.776
 2836POPC   C1B38359  14.887  30.202   8.854
 2836POPC   C2B38360  14.899  30.208   8.424
 2836POPC   C3B38361  14.806  29.983   8.053
 2836POPC   C4B38362  14.725  29.971   7.608
 2837POPC   NC338363  38.932  14.870   9.609
 2837POPC   PO438364  39.065  15.552   9.606
 2837POPC   GL138365  39.058  15.275   9.218
 2837POPC   GL238366  39.054  14.906   9.123
 2837POPC   C1A38367  39.230  15.286   8.778
 2837POPC   D2A38368  39.467  15.265   8.363
 2837POPC   C3A38369  39.314  15.364   7.963
 2837POPC   C4A38370  38.957  15.219   7.747
 2837POPC   C1B38371  39.391  14.790   8.868
 2837POPC   C2B38372  39.526  14.746   8.453
 2837POPC   C3B38373  39.308  14.845   8.086
 2837POPC   C4B38374  39.403  14.813   7.676
 2838POPC   NC338375  36.449  31.487   9.442
 2838POPC   PO438376  35.951  31.170   9.694
 2838POPC   GL138377  35.946  31.123   9.211
 2838POPC   GL238378  36.042  31.428   9.128
 2838POPC   C1A38379  36.187  31.101   8.763
 2838POPC   D2A38380  36.209  30.826   8.422
 2838POPC   C3A38381  36.230  31.126   8.143
 2838POPC   C4A38382  36.087  31.215   7.793
 2838POPC   C1B38383  36.057  31.609   8.722
 2838POPC   C2B38384  36.332  31.597   8.359
 2838POPC   C3B38385  36.251  31.675   7.955
 2838POPC   C4B38386  35.830  31.681   7.829
 2839POPC   NC338387  43.723   3.680   9.646
 2839POPC   PO438388  44.385   3.713   9.652
 2839POPC   GL138389  44.084   3.624   9.258
 2839POPC   GL238390  43.722   3.635   9.167
 2839POPC   C1A38391  44.003   3.580   8.776
 2839POPC   D2A38392  44.199   3.563   8.400
 2839POPC   C3A38393  44.150   3.871   8.103
 2839POPC   C4A38394  43.986   3.795   7.696
 2839POPC   C1B38395  43.541   3.795   8.813
 2839POPC   C2B38396  43.643   3.669   8.401
 2839POPC   C3B38397  43.572   3.707   7.984
 2839POPC   C4B38398  43.468   3.918   7.596
 2840POPC   NC338399   9.363   1.924   9.632
 2840POPC   PO438400   9.904   1.591   9.583
 2840POPC   GL138401   9.885   1.893   9.249
 2840POPC   GL238402  10.089   2.174   9.299
 2840POPC   C1A38403   9.737   1.825   8.821
 2840POPC   D2A38404   9.636   2.103   8.468
 2840POPC   C3A38405   9.700   2.024   8.032
 2840POPC   C4A38406   9.986   1.854   7.751
 2840POPC   C1B38407  10.080   2.191   8.824
 2840POPC   C2B38408  10.020   2.419   8.383
 2840POPC   C3B38409  10.126   2.301   7.982
 2840POPC   C4B38410   9.973   2.386   7.601
 2841POPC   NC338411  31.056  10.162   9.512
 2841POPC   PO438412  31.393  10.720   9.504
 2841POPC   GL138413  31.382  10.455   9.163
 2841POPC   GL238414  31.692  10.615   9.106
 2841POPC   C1A38415  31.542  10.229   8.763
 2841POPC   D2A38416  31.803  10.091   8.420
 2841POPC   C3A38417  31.836  10.384   8.081
 2841POPC   C4A38418  31.550  10.491   7.773
 2841POPC   C1B38419  31.442  10.718   8.719
 2841POPC   C2B38420  31.330  10.908   8.319
 2841POPC   C3B38421  31.201  10.836   7.905
 2841POPC   C4B38422  31.279  10.770   7.444
 2842POPC   NC338423   0.748  35.352   9.460
 2842POPC   PO438424   0.101  35.538   9.310
 2842POPC   GL138425   0.450  35.339   9.050
 2842POPC   GL238426   0.738  35.603   9.018
 2842POPC   C1A38427   0.671  35.279   8.643
 2842POPC   D2A38428   0.666  35.424   8.214
 2842POPC   C3A38429   0.510  35.168   7.868
 2842POPC   C4A38430   0.616  35.211   7.425
 2842POPC   C1B38431   0.409  35.709   8.677
 2842POPC   C2B38432   0.284  35.776   8.228
 2842POPC   C3B38433   0.445  35.682   7.818
 2842POPC   C4B38434   0.642  35.769   7.443
 2843POPC   NC338435   0.569  15.792   9.546
 2843POPC   PO438436   0.039  16.164   9.358
 2843POPC   GL138437   0.346  15.997   9.123
 2843POPC   GL238438   0.664  16.189   9.206
 2843POPC   C1A38439   0.210  15.874   8.703
 2843POPC   D2A38440   0.250  15.748   8.302
 2843POPC   C3A38441   0.143  15.924   7.909
 2843POPC   C4A38442   0.336  15.849   7.517
 2843POPC   C1B38443   0.730  16.022   8.800
 2843POPC   C2B38444   0.611  16.108   8.421
 2843POPC   C3B38445   0.791  16.000   8.041
 2843POPC   C4B38446   0.813  16.045   7.623
 2844POPC   NC338447  36.288  16.289   9.764
 2844POPC   PO438448  35.786  15.985   9.408
 2844POPC   GL138449  36.078  15.768   9.153
 2844POPC   GL238450  35.942  16.013   8.912
 2844POPC   C1A38451  36.303  15.704   8.759
 2844POPC   D2A38452  36.077  15.565   8.382
 2844POPC   C3A38453  36.072  15.861   8.035
 2844POPC   C4A38454  36.444  16.004   7.795
 2844POPC   C1B38455  36.074  16.134   8.508
 2844POPC   C2B38456  36.219  16.331   8.137
 2844POPC   C3B38457  36.046  16.319   7.752
 2844POPC   C4B38458  36.248  16.222   7.367
 2845POPC   NC338459  10.386  30.611   9.575
 2845POPC   PO438460  10.735  30.236   9.213
 2845POPC   GL138461  10.492  30.576   9.090
 2845POPC   GL238462  10.527  30.941   9.196
 2845POPC   C1A38463  10.428  30.667   8.723
 2845POPC   D2A38464  10.272  30.481   8.403
 2845POPC   C3A38465  10.517  30.606   8.073
 2845POPC   C4A38466  10.433  30.643   7.661
 2845POPC   C1B38467  10.710  31.072   8.810
 2845POPC   C2B38468  10.743  30.941   8.410
 2845POPC   C3B38469  10.803  31.046   8.019
 2845POPC   C4B38470  10.739  31.247   7.665
 2846POPC   NC338471  30.098   6.729   9.380
 2846POPC   PO438472  29.738   6.193   9.512
 2846POPC   GL138473  29.686   6.516   9.123
 2846POPC   GL238474  29.868   6.857   8.952
 2846POPC   C1A38475  29.599   6.563   8.655
 2846POPC   D2A38476  29.633   6.745   8.223
 2846POPC   C3A38477  29.773   6.413   7.976
 2846POPC   C4A38478  30.155   6.335   7.776
 2846POPC   C1B38479  30.069   7.169   8.605
 2846POPC   C2B38480  30.279   7.077   8.193
 2846POPC   C3B38481  30.119   6.855   7.837
 2846POPC   C4B38482  29.705   6.798   7.678
 2847POPC   NC338483  11.856  36.526   9.431
 2847POPC   PO438484  11.892  37.104   9.660
 2847POPC   GL138485  12.122  36.945   9.288
 2847POPC   GL238486  11.823  36.881   9.088
 2847POPC   C1A38487  12.261  36.953   8.829
 2847POPC   D2A38488  12.070  37.016   8.394
 2847POPC   C3A38489  12.360  37.017   8.026
 2847POPC   C4A38490  12.210  36.940   7.615
 2847POPC   C1B38491  11.686  37.106   8.756
 2847POPC   C2B38492  11.575  37.216   8.357
 2847POPC   C3B38493  11.762  37.155   7.936
 2847POPC   C4B38494  11.770  37.127   7.449
 2848POPC   NC338495  40.151  22.147   9.485
 2848POPC   PO438496  39.638  22.374   9.134
 2848POPC   GL138497  40.071  22.304   9.008
 2848POPC   GL238498  40.366  22.098   9.049
 2848POPC   C1A38499  40.164  22.268   8.619
 2848POPC   D2A38500  39.948  22.122   8.307
 2848POPC   C3A38501  39.893  22.252   7.909
 2848POPC   C4A38502  40.129  22.122   7.553
 2848POPC   C1B38503  40.349  21.794   8.762
 2848POPC   C2B38504  40.180  21.679   8.393
 2848POPC   C3B38505  40.180  21.811   7.980
 2848POPC   C4B38506  40.160  21.522   7.658
 2849POPC   NC338507  41.386  17.001   9.483
 2849POPC   PO438508  41.823  16.384   9.452
 2849POPC   GL138509  41.668  16.756   9.160
 2849POPC   GL238510  41.293  16.804   9.024
 2849POPC   C1A38511  41.733  16.867   8.778
 2849POPC   D2A38512  41.456  16.809   8.472
 2849POPC   C3A38513  41.643  16.572   8.198
 2849POPC   C4A38514  41.775  16.600   7.812
 2849POPC   C1B38515  41.082  17.083   8.716
 2849POPC   C2B38516  41.166  17.193   8.256
 2849POPC   C3B38517  41.491  17.009   7.949
 2849POPC   C4B38518  41.703  16.991   7.489
 2850POPC   NC338519  41.250   2.887   9.404
 2850POPC   PO438520  41.885   2.960   9.619
 2850POPC   GL138521  41.747   2.936   9.201
 2850POPC   GL238522  41.667   2.579   9.198
 2850POPC   C1A38523  41.564   2.973   8.788
 2850POPC   D2A38524  41.740   2.920   8.401
 2850POPC   C3A38525  41.502   2.910   8.044
 2850POPC   C4A38526  41.248   2.780   7.715
 2850POPC   C1B38527  41.703   2.470   8.750
 2850POPC   C2B38528  41.530   2.456   8.325
 2850POPC   C3B38529  41.679   2.449   7.920
 2850POPC   C4B38530  42.059   2.258   7.779
 2851POPC   NC338531  10.745  36.674   9.219
 2851POPC   PO438532  10.261  37.009   9.483
 2851POPC   GL138533  10.435  37.139   9.101
 2851POPC   GL238534  10.766  37.376   9.118
 2851POPC   C1A38535  10.249  36.983   8.719
 2851POPC   D2A38536  10.300  37.075   8.301
 2851POPC   C3A38537  10.177  36.904   7.932
 2851POPC   C4A38538  10.217  37.202   7.570
 2851POPC   C1B38539  10.750  37.166   8.706
 2851POPC   C2B38540  10.679  36.773   8.513
 2851POPC   C3B38541  10.651  36.775   8.067
 2851POPC   C4B38542  10.634  37.191   7.894
 2852POPC   NC338543  28.504  37.801   9.308
 2852POPC   PO438544  28.076  37.568   9.743
 2852POPC   GL138545  28.009  37.731   9.301
 2852POPC   GL238546  28.136  37.443   9.123
 2852POPC   C1A38547  28.051  37.878   8.848
 2852POPC   D2A38548  28.357  37.835   8.497
 2852POPC   C3A38549  28.276  37.921   8.047
 2852POPC   C4A38550  28.388  37.727   7.651
 2852POPC   C1B38551  28.315  37.357   8.701
 2852POPC   C2B38552  28.466  37.372   8.279
 2852POPC   C3B38553  28.277  37.265   7.880
 2852POPC   C4B38554  28.380  37.167   7.446
 2853POPC   NC338555  36.991   3.427   9.433
 2853POPC   PO438556  36.754   4.056   9.403
 2853POPC   GL138557  36.891   3.812   9.068
 2853POPC   GL238558  37.227   3.748   9.110
 2853POPC   C1A38559  36.713   3.616   8.706
 2853POPC   D2A38560  36.438   3.605   8.387
 2853POPC   C3A38561  36.532   3.362   8.036
 2853POPC   C4A38562  36.516   3.547   7.663
 2853POPC   C1B38563  37.179   3.441   8.765
 2853POPC   C2B38564  36.951   3.326   8.339
 2853POPC   C3B38565  37.096   3.444   7.893
 2853POPC   C4B38566  37.341   3.782   7.627
 2854POPC   NC338567  36.522   0.383   9.878
 2854POPC   PO438568  36.973   0.264   9.364
 2854POPC   GL138569  37.022   0.548   9.019
 2854POPC   GL238570  37.135   0.382   8.709
 2854POPC   C1A38571  36.767   0.728   8.677
 2854POPC   D2A38572  36.693   0.482   8.300
 2854POPC   C3A38573  37.066   0.378   8.077
 2854POPC   C4A38574  37.249   0.652   7.759
 2854POPC   C1B38575  37.004   0.030   8.482
 2854POPC   C2B38576  36.680  44.968   8.182
 2854POPC   C3B38577  36.640   0.234   7.801
 2854POPC   C4B38578  37.054   0.208   7.572
 2855POPC   NC338579   6.713  12.585   9.618
 2855POPC   PO438580   6.787  11.969   9.614
 2855POPC   GL138581   6.861  12.094   9.202
 2855POPC   GL238582   6.990  11.794   9.084
 2855POPC   C1A38583   6.719  12.092   8.770
 2855POPC   D2A38584   6.798  11.949   8.350
 2855POPC   C3A38585   6.706  12.153   7.921
 2855POPC   C4A38586   6.382  12.114   7.584
 2855POPC   C1B38587   7.190  11.861   8.703
 2855POPC   C2B38588   7.273  11.725   8.302
 2855POPC   C3B38589   7.012  11.711   7.954
 2855POPC   C4B38590   6.973  11.868   7.571
 2856POPC   NC338591   3.402  44.706   9.579
 2856POPC   PO438592   3.775  44.167   9.649
 2856POPC   GL138593   3.557  44.294   9.234
 2856POPC   GL238594   3.525  44.650   9.093
 2856POPC   C1A38595   3.484  44.264   8.760
 2856POPC   D2A38596   3.613  44.544   8.444
 2856POPC   C3A38597   3.643  44.416   8.019
 2856POPC   C4A38598   3.252  44.398   7.820
 2856POPC   C1B38599   3.679  44.944   8.755
 2856POPC   C2B38600   3.688   0.015   8.275
 2856POPC   C3B38601   3.567  44.883   7.827
 2856POPC   C4B38602   3.683  44.885   7.381
 2857POPC   NC338603   3.519  19.572   9.386
 2857POPC   PO438604   3.814  18.917   9.443
 2857POPC   GL138605   3.649  19.140   9.080
 2857POPC   GL238606   3.881  19.412   8.981
 2857POPC   C1A38607   3.544  19.036   8.622
 2857POPC   D2A38608   3.706  19.155   8.207
 2857POPC   C3A38609   3.444  19.089   7.853
 2857POPC   C4A38610   3.119  19.353   7.688
 2857POPC   C1B38611   4.045  19.007   8.771
 2857POPC   C2B38612   3.985  18.747   8.374
 2857POPC   C3B38613   3.753  18.676   7.978
 2857POPC   C4B38614   3.732  18.809   7.499
 2858POPC   NC338615  13.980  24.258   9.757
 2858POPC   PO438616  13.476  24.662   9.471
 2858POPC   GL138617  13.625  24.493   9.135
 2858POPC   GL238618  13.703  24.207   9.258
 2858POPC   C1A38619  13.465  24.462   8.754
 2858POPC   D2A38620  13.421  24.752   8.420
 2858POPC   C3A38621  13.673  24.572   8.133
 2858POPC   C4A38622  13.786  24.375   7.765
 2858POPC   C1B38623  13.788  24.021   8.858
 2858POPC   C2B38624  13.734  24.140   8.433
 2858POPC   C3B38625  13.998  24.021   8.095
 2858POPC   C4B38626  13.775  23.825   7.778
 2859POPC   NC338627  13.234  26.596   9.207
 2859POPC   PO438628  12.573  26.405   9.376
 2859POPC   GL138629  12.543  26.604   9.008
 2859POPC   GL238630  12.812  26.862   9.042
 2859POPC   C1A38631  12.516  26.788   8.632
 2859POPC   D2A38632  12.795  26.614   8.344
 2859POPC   C3A38633  12.585  26.665   7.953
 2859POPC   C4A38634  12.846  26.555   7.636
 2859POPC   C1B38635  13.143  27.034   8.735
 2859POPC   C2B38636  13.300  26.938   8.326
 2859POPC   C3B38637  13.101  26.857   7.946
 2859POPC   C4B38638  13.006  27.040   7.534
 2860POPC   NC338639  13.546  25.786   9.369
 2860POPC   PO438640  14.053  26.188   9.520
 2860POPC   GL138641  13.876  26.067   9.087
 2860POPC   GL238642  13.956  25.706   9.042
 2860POPC   C1A38643  13.519  26.102   8.728
 2860POPC   D2A38644  13.263  26.038   8.302
 2860POPC   C3A38645  13.429  26.271   7.883
 2860POPC   C4A38646  13.672  26.265   7.459
 2860POPC   C1B38647  13.919  25.813   8.593
 2860POPC   C2B38648  13.992  25.687   8.159
 2860POPC   C3B38649  13.842  25.892   7.769
 2860POPC   C4B38650  13.958  25.843   7.334
 2861POPC   NC338651   2.923   9.101   9.863
 2861POPC   PO438652   2.815   8.599   9.309
 2861POPC   GL138653   2.767   8.793   8.941
 2861POPC   GL238654   2.434   8.840   8.990
 2861POPC   C1A38655   2.770   8.818   8.521
 2861POPC   D2A38656   2.541   8.694   8.183
 2861POPC   C3A38657   2.831   8.778   7.881
 2861POPC   C4A38658   3.071   9.050   7.713
 2861POPC   C1B38659   2.358   9.100   8.633
 2861POPC   C2B38660   2.239   9.199   8.211
 2861POPC   C3B38661   2.427   9.083   7.851
 2861POPC   C4B38662   2.391   8.747   7.587
 2862POPC   NC338663   4.012  36.642   9.314
 2862POPC   PO438664   3.507  36.197   9.354
 2862POPC   GL138665   3.540  36.445   9.009
 2862POPC   GL238666   3.863  36.310   8.975
 2862POPC   C1A38667   3.548  36.409   8.552
 2862POPC   D2A38668   3.404  36.138   8.229
 2862POPC   C3A38669   3.377  36.312   7.808
 2862POPC   C4A38670   3.207  35.995   7.587
 2862POPC   C1B38671   3.856  35.983   8.707
 2862POPC   C2B38672   3.921  36.060   8.325
 2862POPC   C3B38673   3.801  36.047   7.929
 2862POPC   C4B38674   3.863  36.447   7.769
 2863POPC   NC338675  16.593   1.585   9.520
 2863POPC   PO438676  17.087   1.076   9.543
 2863POPC   GL138677  16.716   1.096   9.252
 2863POPC   GL238678  16.609   1.401   9.057
 2863POPC   C1A38679  16.653   0.977   8.822
 2863POPC   D2A38680  16.888   0.967   8.432
 2863POPC   C3A38681  16.623   1.098   8.091
 2863POPC   C4A38682  16.654   0.925   7.700
 2863POPC   C1B38683  16.831   1.442   8.655
 2863POPC   C2B38684  16.938   1.474   8.211
 2863POPC   C3B38685  16.979   1.344   7.783
 2863POPC   C4B38686  17.084   1.431   7.352
 2864POPC   NC338687   0.708  14.317   9.369
 2864POPC   PO438688   0.224  14.722   9.373
 2864POPC   GL138689   0.314  14.539   9.007
 2864POPC   GL238690   0.284  14.184   8.953
 2864POPC   C1A38691   0.182  14.546   8.582
 2864POPC   D2A38692   0.150  14.352   8.194
 2864POPC   C3A38693   0.421  14.497   7.884
 2864POPC   C4A38694   0.372  14.551   7.420
 2864POPC   C1B38695   0.611  14.280   8.682
 2864POPC   C2B38696   0.667  14.259   8.265
 2864POPC   C3B38697   0.642  14.033   7.895
 2864POPC   C4B38698   0.749  13.977   7.422
 2865POPC   NC338699  17.290   3.120   9.414
 2865POPC   PO438700  17.305   2.422   9.409
 2865POPC   GL138701  17.433   2.678   9.086
 2865POPC   GL238702  17.727   2.885   9.125
 2865POPC   C1A38703  17.301   2.969   8.772
 2865POPC   D2A38704  17.407   3.091   8.349
 2865POPC   C3A38705  17.439   2.735   8.090
 2865POPC   C4A38706  17.089   2.607   7.926
 2865POPC   C1B38707  17.751   2.748   8.665
 2865POPC   C2B38708  17.901   2.901   8.249
 2865POPC   C3B38709  17.804   2.999   7.832
 2865POPC   C4B38710  17.613   3.140   7.452
 2866POPC   NC338711  15.140  21.748   9.431
 2866POPC   PO438712  14.709  21.260   9.438
 2866POPC   GL138713  14.928  21.386   9.090
 2866POPC   GL238714  14.778  21.712   9.110
 2866POPC   C1A38715  14.947  21.250   8.635
 2866POPC   D2A38716  14.936  21.397   8.194
 2866POPC   C3A38717  15.174  21.145   7.866
 2866POPC   C4A38718  15.437  20.996   7.497
 2866POPC   C1B38719  15.055  21.734   8.740
 2866POPC   C2B38720  15.188  21.848   8.329
 2866POPC   C3B38721  15.334  21.689   7.946
 2866POPC   C4B38722  15.008  21.590   7.699
 2867POPC   NC338723  36.775  29.492   9.472
 2867POPC   PO438724  36.909  30.204   9.432
 2867POPC   GL138725  36.988  29.854   9.167
 2867POPC   GL238726  36.635  29.790   9.082
 2867POPC   C1A38727  37.066  29.698   8.751
 2867POPC   D2A38728  36.854  29.831   8.305
 2867POPC   C3A38729  36.974  29.884   7.842
 2867POPC   C4A38730  37.091  29.600   7.499
 2867POPC   C1B38731  36.751  30.102   8.765
 2867POPC   C2B38732  37.166  30.169   8.541
 2867POPC   C3B38733  37.340  30.142   8.122
 2867POPC   C4B38734  37.311  30.342   7.705
 2868POPC   NC338735  29.619  12.255   9.738
 2868POPC   PO438736  28.951  12.433   9.574
 2868POPC   GL138737  29.100  12.155   9.215
 2868POPC   GL238738  29.437  12.230   9.173
 2868POPC   C1A38739  29.225  11.902   8.790
 2868POPC   D2A38740  29.157  12.028   8.334
 2868POPC   C3A38741  29.173  11.801   7.913
 2868POPC   C4A38742  29.291  11.962   7.475
 2868POPC   C1B38743  29.229  12.414   8.749
 2868POPC   C2B38744  29.095  12.522   8.302
 2868POPC   C3B38745  29.098  12.350   7.857
 2868POPC   C4B38746  29.075  12.430   7.402
 2869POPC   NC338747  18.006  42.688   9.733
 2869POPC   PO438748  18.464  43.084   9.412
 2869POPC   GL138749  18.304  42.627   9.267
 2869POPC   GL238750  18.226  42.320   9.450
 2869POPC   C1A38751  18.038  42.464   8.894
 2869POPC   D2A38752  17.804  42.496   8.475
 2869POPC   C3A38753  17.985  42.283   8.159
 2869POPC   C4A38754  18.107  42.412   7.742
 2869POPC   C1B38755  18.355  42.110   9.052
 2869POPC   C2B38756  18.329  42.179   8.569
 2869POPC   C3B38757  18.485  42.353   8.142
 2869POPC   C4B38758  18.623  42.155   7.768
 2870POPC   NC338759  33.472  42.505   9.941
 2870POPC   PO438760  33.721  42.019   9.455
 2870POPC   GL138761  33.574  42.239   9.133
 2870POPC   GL238762  33.888  42.238   8.948
 2870POPC   C1A38763  33.376  42.223   8.750
 2870POPC   D2A38764  33.363  42.403   8.346
 2870POPC   C3A38765  33.753  42.415   8.103
 2870POPC   C4A38766  33.701  42.201   7.705
 2870POPC   C1B38767  34.129  42.403   8.609
 2870POPC   C2B38768  33.992  42.749   8.433
 2870POPC   C3B38769  33.955  42.927   8.018
 2870POPC   C4B38770  33.948  42.707   7.619
 2871POPC   NC338771  13.850  26.583   9.662
 2871POPC   PO438772  13.392  26.992   9.391
 2871POPC   GL138773  13.715  26.893   9.090
 2871POPC   GL238774  13.950  26.587   9.165
 2871POPC   C1A38775  13.702  27.068   8.645
 2871POPC   D2A38776  13.825  26.880   8.222
 2871POPC   C3A38777  13.599  26.787   7.848
 2871POPC   C4A38778  13.341  26.646   7.519
 2871POPC   C1B38779  14.023  26.682   8.740
 2871POPC   C2B38780  14.239  27.006   8.494
 2871POPC   C3B38781  14.280  27.054   8.051
 2871POPC   C4B38782  14.132  26.709   7.791
 2872POPC   NC338783  38.019  24.681   9.585
 2872POPC   PO438784  37.625  25.370   9.530
 2872POPC   GL138785  37.824  25.511   9.175
 2872POPC   GL238786  37.575  25.707   9.113
 2872POPC   C1A38787  37.895  25.413   8.759
 2872POPC   D2A38788  37.923  25.226   8.383
 2872POPC   C3A38789  37.873  25.444   8.007
 2872POPC   C4A38790  37.560  25.326   7.714
 2872POPC   C1B38791  37.405  25.546   8.791
 2872POPC   C2B38792  37.270  25.601   8.439
 2872POPC   C3B38793  37.364  25.624   8.054
 2872POPC   C4B38794  37.508  25.815   7.673
 2873POPC   NC338795   1.651  41.232   9.403
 2873POPC   PO438796   2.035  41.802   9.460
 2873POPC   GL138797   1.935  41.582   9.136
 2873POPC   GL238798   2.164  41.310   9.257
 2873POPC   C1A38799   2.048  41.780   8.738
 2873POPC   D2A38800   1.766  41.872   8.385
 2873POPC   C3A38801   1.861  41.682   8.026
 2873POPC   C4A38802   2.016  41.947   7.722
 2873POPC   C1B38803   2.154  41.291   8.803
 2873POPC   C2B38804   2.009  41.360   8.429
 2873POPC   C3B38805   2.203  41.164   8.146
 2873POPC   C4B38806   2.204  41.405   7.788
 2874POPC   NC338807  23.535  26.448   9.566
 2874POPC   PO438808  23.379  27.099   9.388
 2874POPC   GL138809  23.824  27.136   9.173
 2874POPC   GL238810  23.889  26.814   9.028
 2874POPC   C1A38811  24.023  27.196   8.741
 2874POPC   D2A38812  23.884  26.946   8.384
 2874POPC   C3A38813  23.825  27.071   7.943
 2874POPC   C4A38814  23.630  26.888   7.534
 2874POPC   C1B38815  23.756  26.545   8.690
 2874POPC   C2B38816  23.893  26.415   8.283
 2874POPC   C3B38817  23.646  26.478   7.918
 2874POPC   C4B38818  23.782  26.394   7.504
 2875POPC   NC338819  32.727   8.074   9.671
 2875POPC   PO438820  33.251   8.406   9.521
 2875POPC   GL138821  33.125   8.067   9.246
 2875POPC   GL238822  32.769   8.057   9.162
 2875POPC   C1A38823  33.173   8.039   8.791
 2875POPC   D2A38824  33.212   8.362   8.448
 2875POPC   C3A38825  33.162   8.206   8.019
 2875POPC   C4A38826  33.201   7.845   7.748
 2875POPC   C1B38827  32.732   8.280   8.764
 2875POPC   C2B38828  32.733   8.114   8.348
 2875POPC   C3B38829  32.654   8.267   7.928
 2875POPC   C4B38830  32.713   7.972   7.629
 2876POPC   NC338831   4.074  40.901   9.499
 2876POPC   PO438832   4.655  40.596   9.313
 2876POPC   GL138833   4.257  40.554   9.125
 2876POPC   GL238834   4.370  40.240   9.065
 2876POPC   C1A38835   4.052  40.443   8.722
 2876POPC   D2A38836   4.219  40.456   8.304
 2876POPC   C3A38837   4.049  40.623   7.924
 2876POPC   C4A38838   4.245  40.976   7.725
 2876POPC   C1B38839   4.584  40.385   8.681
 2876POPC   C2B38840   4.786  40.466   8.282
 2876POPC   C3B38841   4.565  40.581   7.878
 2876POPC   C4B38842   4.494  40.370   7.488
 2877POPC   NC338843  26.981  38.620   9.578
 2877POPC   PO438844  27.150  38.231   9.080
 2877POPC   GL138845  27.054  38.656   9.030
 2877POPC   GL238846  26.717  38.563   9.109
 2877POPC   C1A38847  26.943  38.848   8.613
 2877POPC   D2A38848  26.659  38.903   8.273
 2877POPC   C3A38849  26.707  38.504   8.092
 2877POPC   C4A38850  26.977  38.446   7.764
 2877POPC   C1B38851  26.499  38.287   8.796
 2877POPC   C2B38852  26.381  38.019   8.427
 2877POPC   C3B38853  26.556  37.982   8.037
 2877POPC   C4B38854  26.492  38.257   7.690
 2878POPC   NC338855   8.134  41.168   9.404
 2878POPC   PO438856   8.395  40.509   9.497
 2878POPC   GL138857   8.187  40.696   9.169
 2878POPC   GL238858   8.465  40.863   9.057
 2878POPC   C1A38859   8.037  40.702   8.752
 2878POPC   D2A38860   7.902  40.792   8.335
 2878POPC   C3A38861   8.226  40.935   8.060
 2878POPC   C4A38862   8.220  40.889   7.620
 2878POPC   C1B38863   8.524  40.529   8.796
 2878POPC   C2B38864   8.457  40.639   8.409
 2878POPC   C3B38865   8.500  40.503   8.021
 2878POPC   C4B38866   8.402  40.365   7.647
 2879POPC   NC338867  33.838  25.844   9.731
 2879POPC   PO438868  34.178  26.215   9.364
 2879POPC   GL138869  33.938  25.979   9.111
 2879POPC   GL238870  33.699  25.745   9.247
 2879POPC   C1A38871  33.811  26.133   8.720
 2879POPC   D2A38872  33.912  26.035   8.325
 2879POPC   C3A38873  33.747  26.291   7.979
 2879POPC   C4A38874  33.734  26.030   7.634
 2879POPC   C1B38875  33.691  25.633   8.830
 2879POPC   C2B38876  33.508  25.562   8.434
 2879POPC   C3B38877  33.514  25.810   8.060
 2879POPC   C4B38878  33.316  25.717   7.692
 2880POPC   NC338879  22.649  19.539   9.376
 2880POPC   PO438880  23.309  19.423   9.401
 2880POPC   GL138881  23.074  19.759   9.127
 2880POPC   GL238882  22.706  19.843   8.970
 2880POPC   C1A38883  23.138  19.952   8.714
 2880POPC   D2A38884  22.869  19.799   8.390
 2880POPC   C3A38885  22.934  19.748   7.967
 2880POPC   C4A38886  22.967  20.159   7.771
 2880POPC   C1B38887  22.688  19.477   8.736
 2880POPC   C2B38888  22.532  19.425   8.308
 2880POPC   C3B38889  22.377  19.632   7.977
 2880POPC   C4B38890  22.487  19.962   7.711
 2881POPC   NC338891  14.769  22.664   9.275
 2881POPC   PO438892  15.184  22.833   9.765
 2881POPC   GL138893  15.218  22.910   9.248
 2881POPC   GL238894  15.405  22.716   9.009
 2881POPC   C1A38895  15.118  23.093   8.822
 2881POPC   D2A38896  15.291  22.979   8.422
 2881POPC   C3A38897  15.078  23.160   8.061
 2881POPC   C4A38898  14.986  23.036   7.665
 2881POPC   C1B38899  15.098  22.570   8.746
 2881POPC   C2B38900  15.090  22.456   8.363
 2881POPC   C3B38901  15.203  22.665   8.024
 2881POPC   C4B38902  14.939  22.527   7.688
 2882POPC   NC338903   7.136   9.443   9.472
 2882POPC   PO438904   7.027  10.102   9.533
 2882POPC   GL138905   7.176   9.941   9.128
 2882POPC   GL238906   7.401   9.644   9.094
 2882POPC   C1A38907   7.379  10.005   8.736
 2882POPC   D2A38908   7.462   9.777   8.390
 2882POPC   C3A38909   7.588  10.021   8.069
 2882POPC   C4A38910   7.535   9.930   7.651
 2882POPC   C1B38911   7.542   9.387   8.725
 2882POPC   C2B38912   7.666   9.308   8.300
 2882POPC   C3B38913   7.467   9.499   7.947
 2882POPC   C4B38914   7.544   9.454   7.510
 2883POPC   NC338915  13.149  11.510   9.429
 2883POPC   PO438916  12.644  11.055   9.403
 2883POPC   GL138917  12.998  11.128   9.111
 2883POPC   GL238918  12.807  11.450   9.067
 2883POPC   C1A38919  13.126  11.325   8.699
 2883POPC   D2A38920  12.821  11.402   8.375
 2883POPC   C3A38921  12.932  11.375   7.945
 2883POPC   C4A38922  12.715  11.094   7.670
 2883POPC   C1B38923  12.650  11.733   8.783
 2883POPC   C2B38924  12.701  11.893   8.384
 2883POPC   C3B38925  12.480  11.698   8.063
 2883POPC   C4B38926  12.530  11.552   7.666
 2884POPC   NC338927  38.327   1.508   9.271
 2884POPC   PO438928  38.361   0.924   9.175
 2884POPC   GL138929  38.652   1.189   8.972
 2884POPC   GL238930  38.820   1.527   9.054
 2884POPC   C1A38931  38.641   1.031   8.578
 2884POPC   D2A38932  38.290   1.150   8.302
 2884POPC   C3A38933  38.351   1.311   7.868
 2884POPC   C4A38934  38.335   1.190   7.427
 2884POPC   C1B38935  38.990   1.408   8.644
 2884POPC   C2B38936  38.887   1.255   8.205
 2884POPC   C3B38937  38.806   1.119   7.786
 2884POPC   C4B38938  38.801   1.344   7.428
 2885POPC   NC338939  44.825  15.592   9.384
 2885POPC   PO438940  44.566  14.888   9.482
 2885POPC   GL138941  44.511  15.212   9.176
 2885POPC   GL238942  44.856  15.129   9.124
 2885POPC   C1A38943  44.480  15.322   8.719
 2885POPC   D2A38944  44.500  15.070   8.333
 2885POPC   C3A38945  44.576  15.130   7.910
 2885POPC   C4A38946  44.424  14.749   7.671
 2885POPC   C1B38947  44.997  15.390   8.780
 2885POPC   C2B38948  44.867  15.421   8.365
 2885POPC   C3B38949   0.078  15.350   7.974
 2885POPC   C4B38950  44.933  15.284   7.553
 2886POPC   NC338951  37.512  30.826   9.790
 2886POPC   PO438952  37.887  30.409   9.477
 2886POPC   GL138953  37.798  30.696   9.165
 2886POPC   GL238954  37.443  30.778   9.180
 2886POPC   C1A38955  37.732  30.720   8.739
 2886POPC   D2A38956  37.691  30.945   8.384
 2886POPC   C3A38957  37.493  30.703   8.048
 2886POPC   C4A38958  37.732  30.648   7.684
 2886POPC   C1B38959  37.263  30.919   8.770
 2886POPC   C2B38960  37.275  31.242   8.453
 2886POPC   C3B38961  37.452  31.223   8.035
 2886POPC   C4B38962  37.410  31.017   7.612
 2887POPC   NC338963  19.291   2.721   9.552
 2887POPC   PO438964  18.631   2.968   9.557
 2887POPC   GL138965  18.914   2.845   9.167
 2887POPC   GL238966  19.270   2.899   9.096
 2887POPC   C1A38967  19.065   2.550   8.802
 2887POPC   D2A38968  19.072   2.526   8.362
 2887POPC   C3A38969  18.745   2.737   8.116
 2887POPC   C4A38970  18.678   2.726   7.664
 2887POPC   C1B38971  19.539   2.762   8.761
 2887POPC   C2B38972  19.423   2.895   8.363
 2887POPC   C3B38973  19.237   2.843   7.949
 2887POPC   C4B38974  19.195   2.607   7.570
 2888POPC   NC338975  27.496  11.304   9.652
 2888POPC   PO438976  28.109  11.498   9.642
 2888POPC   GL138977  27.941  11.600   9.194
 2888POPC   GL238978  27.622  11.432   9.131
 2888POPC   C1A38979  27.919  11.541   8.718
 2888POPC   D2A38980  27.934  11.131   8.459
 2888POPC   C3A38981  27.817  11.203   8.038
 2888POPC   C4A38982  27.896  11.626   7.931
 2888POPC   C1B38983  27.436  11.666   8.771
 2888POPC   C2B38984  27.543  11.697   8.311
 2888POPC   C3B38985  27.394  11.653   7.858
 2888POPC   C4B38986  27.123  11.400   7.555
 2889POPC   NC338987  19.942   8.671   9.453
 2889POPC   PO438988  19.717   9.279   9.403
 2889POPC   GL138989  19.937   9.046   9.107
 2889POPC   GL238990  19.632   8.830   9.068
 2889POPC   C1A38991  19.984   8.858   8.701
 2889POPC   D2A38992  19.759   8.752   8.330
 2889POPC   C3A38993  19.969   8.819   7.934
 2889POPC   C4A38994  20.040   8.794   7.488
 2889POPC   C1B38995  19.572   9.171   8.742
 2889POPC   C2B38996  19.453   9.181   8.310
 2889POPC   C3B38997  19.693   9.236   7.931
 2889POPC   C4B38998  19.603   9.072   7.491
 2890POPC   NC338999  23.076  31.638   9.498
 2890POPC   PO439000  22.713  31.199   9.237
 2890POPC   GL139001  22.998  31.419   9.009
 2890POPC   GL239002  23.359  31.336   9.035
 2890POPC   C1A39003  22.865  31.386   8.603
 2890POPC   D2A39004  22.651  31.693   8.360
 2890POPC   C3A39005  22.755  31.680   7.926
 2890POPC   C4A39006  22.923  31.462   7.590
 2890POPC   C1B39007  23.383  31.407   8.601
 2890POPC   C2B39008  23.172  31.549   8.231
 2890POPC   C3B39009  23.329  31.675   7.865
 2890POPC   C4B39010  23.446  31.411   7.504
 2891POPC   NC339011  41.127  39.931   9.436
 2891POPC   PO439012  40.540  40.032   9.686
 2891POPC   GL139013  40.717  40.185   9.262
 2891POPC   GL239014  41.026  40.419   9.251
 2891POPC   C1A39015  40.857  40.048   8.831
 2891POPC   D2A39016  40.684  39.973   8.396
 2891POPC   C3A39017  40.764  39.802   7.954
 2891POPC   C4A39018  40.713  40.034   7.555
 2891POPC   C1B39019  41.219  40.416   8.834
 2891POPC   C2B39020  41.034  40.339   8.436
 2891POPC   C3B39021  40.927  40.276   8.024
 2891POPC   C4B39022  41.098  40.404   7.654
 2892POPC   NC339023  25.810  18.546   9.318
 2892POPC   PO439024  26.059  19.217   9.403
 2892POPC   GL139025  26.293  18.969   9.169
 2892POPC   GL239026  25.993  18.903   8.975
 2892POPC   C1A39027  26.470  19.038   8.778
 2892POPC   D2A39028  26.424  18.846   8.390
 2892POPC   C3A39029  26.196  19.061   8.088
 2892POPC   C4A39030  26.296  18.907   7.701
 2892POPC   C1B39031  25.897  18.739   8.554
 2892POPC   C2B39032  25.633  18.790   8.172
 2892POPC   C3B39033  25.759  19.014   7.800
 2892POPC   C4B39034  25.808  19.355   7.540
 2893POPC   NC339035  17.917  13.535   9.307
 2893POPC   PO439036  17.265  13.423   9.497
 2893POPC   GL139037  17.133  13.433   9.067
 2893POPC   GL239038  17.486  13.511   9.040
 2893POPC   C1A39039  17.269  13.547   8.616
 2893POPC   D2A39040  17.536  13.435   8.243
 2893POPC   C3A39041  17.242  13.565   7.949
 2893POPC   C4A39042  17.153  13.800   7.611
 2893POPC   C1B39043  17.775  13.596   8.677
 2893POPC   C2B39044  18.015  13.888   8.411
 2893POPC   C3B39045  17.873  14.029   8.020
 2893POPC   C4B39046  17.698  13.721   7.786
 2894POPC   NC339047  33.298   9.596   9.723
 2894POPC   PO439048  32.897  10.086   9.442
 2894POPC   GL139049  33.208   9.827   9.244
 2894POPC   GL239050  32.955   9.658   9.095
 2894POPC   C1A39051  33.471   9.581   8.937
 2894POPC   D2A39052  33.625   9.757   8.520
 2894POPC   C3A39053  33.333   9.674   8.146
 2894POPC   C4A39054  33.225   9.675   7.701
 2894POPC   C1B39055  33.095   9.757   8.665
 2894POPC   C2B39056  32.915   9.468   8.376
 2894POPC   C3B39057  32.810   9.588   7.971
 2894POPC   C4B39058  32.790  10.013   7.781
 2895POPC   NC339059  14.605   2.934   9.643
 2895POPC   PO439060  14.069   2.705   9.599
 2895POPC   GL139061  14.332   2.746   9.175
 2895POPC   GL239062  14.720   2.725   9.103
 2895POPC   C1A39063  14.443   2.728   8.689
 2895POPC   D2A39064  14.365   2.657   8.245
 2895POPC   C3A39065  14.303   2.882   7.844
 2895POPC   C4A39066  14.429   2.960   7.403
 2895POPC   C1B39067  14.947   2.572   8.714
 2895POPC   C2B39068  14.838   2.513   8.272
 2895POPC   C3B39069  14.775   2.652   7.812
 2895POPC   C4B39070  14.829   2.672   7.318
 2896POPC   NC339071   3.825  17.649   9.511
 2896POPC   PO439072   3.267  17.405   9.762
 2896POPC   GL139073   3.342  17.449   9.259
 2896POPC   GL239074   3.598  17.655   9.075
 2896POPC   C1A39075   3.492  17.265   8.798
 2896POPC   D2A39076   3.506  17.514   8.396
 2896POPC   C3A39077   3.538  17.325   7.986
 2896POPC   C4A39078   3.683  17.409   7.553
 2896POPC   C1B39079   3.196  17.666   8.800
 2896POPC   C2B39080   3.175  17.907   8.412
 2896POPC   C3B39081   3.230  17.795   8.024
 2896POPC   C4B39082   3.206  17.574   7.690
 2897POPC   NC339083  16.226  24.501   9.439
 2897POPC   PO439084  15.595  24.393   9.302
 2897POPC   GL139085  15.924  24.356   9.053
 2897POPC   GL239086  16.001  24.718   8.999
 2897POPC   C1A39087  16.049  24.309   8.646
 2897POPC   D2A39088  15.858  24.532   8.337
 2897POPC   C3A39089  16.038  24.393   7.990
 2897POPC   C4A39090  16.267  24.632   7.771
 2897POPC   C1B39091  15.584  24.723   8.741
 2897POPC   C2B39092  15.349  24.652   8.356
 2897POPC   C3B39093  15.526  24.571   7.940
 2897POPC   C4B39094  15.684  24.234   7.654
 2898POPC   NC339095   0.559   8.504   9.542
 2898POPC   PO439096   0.726   9.194   9.525
 2898POPC   GL139097   0.561   9.244   9.122
 2898POPC   GL239098   0.357   8.957   9.143
 2898POPC   C1A39099   0.395   9.167   8.707
 2898POPC   D2A39100   0.431   8.894   8.416
 2898POPC   C3A39101   0.390   9.108   8.065
 2898POPC   C4A39102   0.680   9.167   7.732
 2898POPC   C1B39103   0.201   8.650   8.858
 2898POPC   C2B39104   0.061   8.552   8.430
 2898POPC   C3B39105   0.238   8.586   8.029
 2898POPC   C4B39106   0.437   8.698   7.670
 2899POPC   NC339107  15.061  23.982   5.258
 2899POPC   PO439108  15.537  23.676   5.160
 2899POPC   GL139109  15.360  23.744   5.649
 2899POPC   GL239110  15.020  23.899   5.768
 2899POPC   C1A39111  15.304  23.662   6.145
 2899POPC   D2A39112  15.414  23.448   6.575
 2899POPC   C3A39113  15.267  23.509   7.066
 2899POPC   C4A39114  15.423  23.833   7.430
 2899POPC   C1B39115  14.808  23.774   6.184
 2899POPC   C2B39116  14.959  23.714   6.624
 2899POPC   C3B39117  15.101  23.982   6.959
 2899POPC   C4B39118  14.958  23.992   7.360
 2900POPC   NC339119  41.230  29.746   5.367
 2900POPC   PO439120  41.417  30.321   5.576
 2900POPC   GL139121  41.353  30.110   5.968
 2900POPC   GL239122  41.296  29.759   5.873
 2900POPC   C1A39123  41.609  30.083   6.360
 2900POPC   D2A39124  42.003  29.958   6.589
 2900POPC   C3A39125  41.885  30.019   7.017
 2900POPC   C4A39126  41.442  30.026   7.137
 2900POPC   C1B39127  41.401  29.590   6.262
 2900POPC   C2B39128  41.562  29.630   6.684
 2900POPC   C3B39129  41.276  29.573   7.018
 2900POPC   C4B39130  41.357  29.640   7.453
 2901POPC   NC339131  40.956  26.770   5.316
 2901POPC   PO439132  40.396  27.188   5.342
 2901POPC   GL139133  40.648  27.006   5.674
 2901POPC   GL239134  40.684  26.673   5.728
 2901POPC   C1A39135  40.731  27.083   6.121
 2901POPC   D2A39136  40.560  27.054   6.551
 2901POPC   C3A39137  40.795  26.974   6.900
 2901POPC   C4A39138  40.586  26.665   7.164
 2901POPC   C1B39139  41.062  26.699   6.005
 2901POPC   C2B39140  41.030  26.777   6.466
 2901POPC   C3B39141  41.015  26.511   6.866
 2901POPC   C4B39142  41.191  26.431   7.282
 2902POPC   NC339143  36.344   0.551   5.340
 2902POPC   PO439144  35.831   0.132   5.431
 2902POPC   GL139145  36.024   0.340   5.786
 2902POPC   GL239146  35.991   0.695   5.823
 2902POPC   C1A39147  36.194   0.376   6.226
 2902POPC   D2A39148  35.925   0.202   6.585
 2902POPC   C3A39149  36.070   0.166   7.023
 2902POPC   C4A39150  36.407   0.428   7.209
 2902POPC   C1B39151  35.735   0.549   6.196
 2902POPC   C2B39152  35.774   0.719   6.587
 2902POPC   C3B39153  35.989   0.686   6.961
 2902POPC   C4B39154  35.641   0.494   7.135
 2903POPC   NC339155  31.706   2.478   5.535
 2903POPC   PO439156  31.685   1.951   5.115
 2903POPC   GL139157  31.710   1.977   5.628
 2903POPC   GL239158  31.729   1.630   5.709
 2903POPC   C1A39159  31.548   2.176   6.082
 2903POPC   D2A39160  31.445   2.385   6.518
 2903POPC   C3A39161  31.462   2.239   6.970
 2903POPC   C4A39162  31.517   2.217   7.450
 2903POPC   C1B39163  31.479   1.654   6.111
 2903POPC   C2B39164  31.378   1.512   6.536
 2903POPC   C3B39165  31.500   1.644   6.922
 2903POPC   C4B39166  31.698   1.719   7.290
 2904POPC   NC339167  40.047  27.014   5.626
 2904POPC   PO439168  40.256  26.302   5.540
 2904POPC   GL139169  40.200  26.608   5.870
 2904POPC   GL239170  39.856  26.658   5.953
 2904POPC   C1A39171  40.189  26.811   6.290
 2904POPC   D2A39172  39.898  26.824   6.617
 2904POPC   C3A39173  40.101  26.729   6.969
 2904POPC   C4A39174  39.994  26.552   7.317
 2904POPC   C1B39175  39.759  27.106   6.207
 2904POPC   C2B39176  39.597  27.238   6.646
 2904POPC   C3B39177  39.838  27.196   7.044
 2904POPC   C4B39178  39.825  27.008   7.473
 2905POPC   NC339179  38.186  19.930   5.402
 2905POPC   PO439180  38.755  19.505   5.495
 2905POPC   GL139181  38.501  19.693   5.824
 2905POPC   GL239182  38.133  19.553   5.797
 2905POPC   C1A39183  38.671  19.873   6.251
 2905POPC   D2A39184  38.908  19.823   6.660
 2905POPC   C3A39185  38.641  19.792   7.023
 2905POPC   C4A39186  38.453  19.910   7.415
 2905POPC   C1B39187  38.198  19.667   6.256
 2905POPC   C2B39188  38.193  19.795   6.731
 2905POPC   C3B39189  38.182  19.547   7.148
 2905POPC   C4B39190  38.345  19.401   7.580
 2906POPC   NC339191  28.209  25.769   5.429
 2906POPC   PO439192  28.332  25.091   5.470
 2906POPC   GL139193  28.333  25.098   5.878
 2906POPC   GL239194  28.243  25.452   5.835
 2906POPC   C1A39195  28.385  25.234   6.288
 2906POPC   D2A39196  28.615  25.133   6.628
 2906POPC   C3A39197  28.395  25.057   6.998
 2906POPC   C4A39198  28.253  24.835   7.362
 2906POPC   C1B39199  28.281  25.730   6.133
 2906POPC   C2B39200  28.176  25.699   6.531
 2906POPC   C3B39201  28.389  25.563   6.859
 2906POPC   C4B39202  28.509  25.721   7.234
 2907POPC   NC339203  23.355   6.693   5.325
 2907POPC   PO439204  24.063   6.480   5.432
 2907POPC   GL139205  23.854   6.764   5.717
 2907POPC   GL239206  23.538   6.688   5.812
 2907POPC   C1A39207  23.911   6.842   6.151
 2907POPC   D2A39208  23.695   6.546   6.413
 2907POPC   C3A39209  23.676   6.527   6.855
 2907POPC   C4A39210  23.554   6.721   7.222
 2907POPC   C1B39211  23.372   6.885   6.188
 2907POPC   C2B39212  23.416   6.950   6.650
 2907POPC   C3B39213  23.163   7.052   7.022
 2907POPC   C4B39214  23.329   7.135   7.458
 2908POPC   NC339215  34.871  26.454   5.488
 2908POPC   PO439216  34.260  26.189   5.461
 2908POPC   GL139217  34.388  25.998   5.807
 2908POPC   GL239218  34.733  25.921   5.884
 2908POPC   C1A39219  34.224  25.977   6.183
 2908POPC   D2A39220  34.300  26.222   6.537
 2908POPC   C3A39221  34.303  26.057   6.942
 2908POPC   C4A39222  34.432  26.394   7.207
 2908POPC   C1B39223  34.696  25.889   6.367
 2908POPC   C2B39224  34.823  25.974   6.813
 2908POPC   C3B39225  34.713  25.968   7.292
 2908POPC   C4B39226  34.623  25.793   7.748
 2909POPC   NC339227  37.794  11.620   5.641
 2909POPC   PO439228  37.380  11.083   5.662
 2909POPC   GL139229  37.603  11.007   6.007
 2909POPC   GL239230  37.885  11.172   5.929
 2909POPC   C1A39231  37.592  11.311   6.359
 2909POPC   D2A39232  37.308  11.452   6.707
 2909POPC   C3A39233  37.515  11.347   7.078
 2909POPC   C4A39234  37.419  10.909   7.215
 2909POPC   C1B39235  38.114  11.211   6.297
 2909POPC   C2B39236  38.075  11.412   6.692
 2909POPC   C3B39237  38.008  11.454   7.131
 2909POPC   C4B39238  38.155  11.263   7.506
 2910POPC   NC339239  33.318  39.526   5.630
 2910POPC   PO439240  33.875  39.181   5.319
 2910POPC   GL139241  33.805  39.338   5.735
 2910POPC   GL239242  33.847  38.993   5.871
 2910POPC   C1A39243  33.693  39.422   6.177
 2910POPC   D2A39244  33.715  39.119   6.521
 2910POPC   C3A39245  33.821  39.355   6.855
 2910POPC   C4A39246  33.835  39.454   7.263
 2910POPC   C1B39247  34.114  38.715   6.133
 2910POPC   C2B39248  34.301  38.697   6.565
 2910POPC   C3B39249  34.070  38.894   6.925
 2910POPC   C4B39250  34.159  39.059   7.348
 2911POPC   NC339251  33.724  13.311   5.361
 2911POPC   PO439252  33.634  12.719   5.652
 2911POPC   GL139253  33.840  13.028   5.813
 2911POPC   GL239254  34.152  12.878   5.806
 2911POPC   C1A39255  33.836  13.119   6.242
 2911POPC   D2A39256  33.615  12.788   6.446
 2911POPC   C3A39257  33.604  12.847   6.878
 2911POPC   C4A39258  33.807  12.992   7.251
 2911POPC   C1B39259  34.088  12.667   6.218
 2911POPC   C2B39260  34.085  12.788   6.663
 2911POPC   C3B39261  34.071  12.584   7.072
 2911POPC   C4B39262  34.046  12.628   7.534
 2912POPC   NC339263   3.929  40.841   5.446
 2912POPC   PO439264   4.612  40.679   5.472
 2912POPC   GL139265   4.328  40.912   5.749
 2912POPC   GL239266   4.529  41.004   5.946
 2912POPC   C1A39267   4.110  40.792   6.153
 2912POPC   D2A39268   4.162  40.585   6.565
 2912POPC   C3A39269   4.046  40.753   6.945
 2912POPC   C4A39270   4.068  40.665   7.370
 2912POPC   C1B39271   4.604  40.589   6.148
 2912POPC   C2B39272   4.685  40.562   6.591
 2912POPC   C3B39273   4.538  40.549   7.005
 2912POPC   C4B39274   4.522  40.856   7.328
 2913POPC   NC339275  33.973  10.798   5.413
 2913POPC   PO439276  33.968  11.429   5.256
 2913POPC   GL139277  33.971  11.244   5.682
 2913POPC   GL239278  33.746  11.496   5.851
 2913POPC   C1A39279  34.007  11.159   6.153
 2913POPC   D2A39280  33.811  11.305   6.558
 2913POPC   C3A39281  33.958  11.071   6.915
 2913POPC   C4A39282  34.096  11.031   7.322
 2913POPC   C1B39283  33.439  11.277   6.157
 2913POPC   C2B39284  33.254  11.237   6.585
 2913POPC   C3B39285  33.458  11.215   6.998
 2913POPC   C4B39286  33.814  11.498   7.133
 2914POPC   NC339287  40.438  23.881   5.458
 2914POPC   PO439288  40.940  23.449   5.473
 2914POPC   GL139289  40.823  23.667   5.803
 2914POPC   GL239290  40.503  23.577   5.869
 2914POPC   C1A39291  40.936  23.632   6.215
 2914POPC   D2A39292  40.826  23.798   6.615
 2914POPC   C3A39293  41.072  23.775   6.970
 2914POPC   C4A39294  40.904  23.618   7.378
 2914POPC   C1B39295  40.413  23.792   6.260
 2914POPC   C2B39296  40.343  23.929   6.702
 2914POPC   C3B39297  40.530  23.695   7.051
 2914POPC   C4B39298  40.346  23.510   7.434
 2915POPC   NC339299  18.186   8.000   5.069
 2915POPC   PO439300  18.147   8.583   5.394
 2915POPC   GL139301  18.379   8.432   5.820
 2915POPC   GL239302  18.300   8.108   5.870
 2915POPC   C1A39303  18.394   8.345   6.324
 2915POPC   D2A39304  18.521   8.082   6.702
 2915POPC   C3A39305  18.517   8.136   7.157
 2915POPC   C4A39306  18.408   7.849   7.543
 2915POPC   C1B39307  17.957   8.420   6.082
 2915POPC   C2B39308  17.932   8.484   6.548
 2915POPC   C3B39309  18.066   8.285   6.950
 2915POPC   C4B39310  18.066   7.857   7.168
 2916POPC   NC339311  44.562  29.163   5.374
 2916POPC   PO439312   0.182  29.055   5.600
 2916POPC   GL139313  44.880  28.997   5.953
 2916POPC   GL239314  44.541  29.094   5.892
 2916POPC   C1A39315  44.742  29.184   6.362
 2916POPC   D2A39316  44.497  29.503   6.579
 2916POPC   C3A39317  44.590  29.459   7.028
 2916POPC   C4A39318  44.907  29.212   7.222
 2916POPC   C1B39319  44.234  29.041   6.250
 2916POPC   C2B39320  44.314  29.027   6.685
 2916POPC   C3B39321  44.635  28.919   6.926
 2916POPC   C4B39322  44.480  28.693   7.267
 2917POPC   NC339323   8.326  28.736   5.404
 2917POPC   PO439324   7.800  28.270   5.405
 2917POPC   GL139325   8.124  28.347   5.710
 2917POPC   GL239326   8.047  28.690   5.811
 2917POPC   C1A39327   8.383  28.381   6.084
 2917POPC   D2A39328   8.372  28.202   6.503
 2917POPC   C3A39329   8.644  28.189   6.875
 2917POPC   C4A39330   8.416  28.146   7.286
 2917POPC   C1B39331   8.034  28.768   6.218
 2917POPC   C2B39332   8.036  28.585   6.585
 2917POPC   C3B39333   8.234  28.546   6.967
 2917POPC   C4B39334   7.979  28.669   7.309
 2918POPC   NC339335  18.490   6.581   5.319
 2918POPC   PO439336  18.209   7.136   5.585
 2918POPC   GL139337  18.474   6.875   5.876
 2918POPC   GL239338  18.472   6.509   5.844
 2918POPC   C1A39339  18.592   6.770   6.324
 2918POPC   D2A39340  18.653   6.629   6.755
 2918POPC   C3A39341  18.493   6.835   7.141
 2918POPC   C4A39342  18.286   6.884   7.543
 2918POPC   C1B39343  18.351   6.313   6.256
 2918POPC   C2B39344  18.226   6.323   6.708
 2918POPC   C3B39345  18.175   6.356   7.164
 2918POPC   C4B39346  18.068   6.105   7.556
 2919POPC   NC339347   8.608  14.452   5.127
 2919POPC   PO439348   8.037  14.339   5.359
 2919POPC   GL139349   8.209  14.589   5.716
 2919POPC   GL239350   7.981  14.818   5.888
 2919POPC   C1A39351   8.340  14.489   6.147
 2919POPC   D2A39352   8.509  14.629   6.548
 2919POPC   C3A39353   8.385  14.413   6.924
 2919POPC   C4A39354   8.261  14.584   7.294
 2919POPC   C1B39355   7.850  14.560   6.217
 2919POPC   C2B39356   8.016  14.497   6.583
 2919POPC   C3B39357   7.864  14.541   6.980
 2919POPC   C4B39358   7.858  14.265   7.297
 2920POPC   NC339359   3.157  17.683   5.257
 2920POPC   PO439360   3.796  17.303   5.432
 2920POPC   GL139361   3.757  17.550   5.816
 2920POPC   GL239362   3.426  17.618   5.696
 2920POPC   C1A39363   3.840  17.634   6.264
 2920POPC   D2A39364   3.714  17.445   6.649
 2920POPC   C3A39365   3.753  17.568   7.049
 2920POPC   C4A39366   3.419  17.749   7.274
 2920POPC   C1B39367   3.375  17.445   6.134
 2920POPC   C2B39368   3.223  17.468   6.544
 2920POPC   C3B39369   3.272  17.383   6.959
 2920POPC   C4B39370   3.598  17.099   7.148
 2921POPC   NC339371  39.124  25.577   5.200
 2921POPC   PO439372  39.533  25.057   5.369
 2921POPC   GL139373  39.235  25.304   5.688
 2921POPC   GL239374  39.422  25.530   5.927
 2921POPC   C1A39375  38.993  25.267   6.120
 2921POPC   D2A39376  38.805  25.102   6.532
 2921POPC   C3A39377  38.974  25.098   6.963
 2921POPC   C4A39378  38.861  25.318   7.342
 2921POPC   C1B39379  39.499  25.160   6.197
 2921POPC   C2B39380  39.343  25.001   6.588
 2921POPC   C3B39381  39.480  24.995   7.003
 2921POPC   C4B39382  39.363  25.406   7.144
 2922POPC   NC339383  31.917  17.240   5.609
 2922POPC   PO439384  31.498  16.662   5.436
 2922POPC   GL139385  31.362  16.812   5.792
 2922POPC   GL239386  31.222  17.139   5.716
 2922POPC   C1A39387  31.436  16.667   6.202
 2922POPC   D2A39388  31.294  16.670   6.610
 2922POPC   C3A39389  31.607  16.588   6.912
 2922POPC   C4A39390  31.569  16.755   7.311
 2922POPC   C1B39391  31.373  17.176   6.140
 2922POPC   C2B39392  31.501  17.168   6.555
 2922POPC   C3B39393  31.379  17.073   6.938
 2922POPC   C4B39394  31.248  17.173   7.315
 2923POPC   NC339395  19.214  15.387   4.761
 2923POPC   PO439396  19.221  15.110   5.263
 2923POPC   GL139397  19.431  15.038   5.744
 2923POPC   GL239398  19.121  14.979   5.912
 2923POPC   C1A39399  19.459  15.086   6.262
 2923POPC   D2A39400  19.155  15.169   6.653
 2923POPC   C3A39401  19.163  15.342   7.119
 2923POPC   C4A39402  18.954  15.351   7.550
 2923POPC   C1B39403  19.083  14.728   6.286
 2923POPC   C2B39404  19.116  14.663   6.716
 2923POPC   C3B39405  19.112  14.846   7.153
 2923POPC   C4B39406  18.889  14.839   7.544
 2924POPC   NC339407  34.929  23.053   5.453
 2924POPC   PO439408  35.454  22.648   5.241
 2924POPC   GL139409  35.370  22.735   5.699
 2924POPC   GL239410  35.320  23.093   5.782
 2924POPC   C1A39411  35.309  22.709   6.163
 2924POPC   D2A39412  35.540  22.580   6.536
 2924POPC   C3A39413  35.281  22.616   6.909
 2924POPC   C4A39414  35.227  22.772   7.313
 2924POPC   C1B39415  35.269  23.211   6.202
 2924POPC   C2B39416  35.293  23.029   6.592
 2924POPC   C3B39417  35.013  23.068   6.917
 2924POPC   C4B39418  35.063  23.281   7.267
 2925POPC   NC339419  31.031  10.050   5.241
 2925POPC   PO439420  30.356   9.810   5.368
 2925POPC   GL139421  30.658   9.728   5.744
 2925POPC   GL239422  30.792  10.000   5.967
 2925POPC   C1A39423  30.651   9.576   6.208
 2925POPC   D2A39424  30.452   9.590   6.645
 2925POPC   C3A39425  30.704   9.682   7.021
 2925POPC   C4A39426  30.810   9.524   7.433
 2925POPC   C1B39427  30.908  10.131   6.389
 2925POPC   C2B39428  30.899  10.194   6.840
 2925POPC   C3B39429  30.868  10.083   7.286
 2925POPC   C4B39430  30.483   9.906   7.465
 2926POPC   NC339431  23.910   2.861   5.562
 2926POPC   PO439432  23.535   2.320   5.442
 2926POPC   GL139433  23.794   2.441   5.820
 2926POPC   GL239434  23.554   2.764   5.920
 2926POPC   C1A39435  23.887   2.607   6.251
 2926POPC   D2A39436  23.519   2.821   6.477
 2926POPC   C3A39437  23.582   2.894   6.894
 2926POPC   C4A39438  23.505   2.700   7.272
 2926POPC   C1B39439  23.779   3.127   6.172
 2926POPC   C2B39440  23.976   3.186   6.595
 2926POPC   C3B39441  23.840   3.312   7.009
 2926POPC   C4B39442  23.495   3.230   7.286
 2927POPC   NC339443   2.757  35.544   4.993
 2927POPC   PO439444   2.732  35.185   5.534
 2927POPC   GL139445   2.664  35.403   5.886
 2927POPC   GL239446   2.742  35.754   5.822
 2927POPC   C1A39447   3.020  35.513   6.160
 2927POPC   D2A39448   3.129  35.383   6.536
 2927POPC   C3A39449   2.920  35.574   6.858
 2927POPC   C4A39450   2.936  35.396   7.240
 2927POPC   C1B39451   2.548  35.754   6.241
 2927POPC   C2B39452   2.466  35.449   6.588
 2927POPC   C3B39453   2.430  35.419   7.046
 2927POPC   C4B39454   2.338  35.742   7.386
 2928POPC   NC339455   7.875  37.436   5.606
 2928POPC   PO439456   8.439  37.682   5.375
 2928POPC   GL139457   8.283  37.717   5.763
 2928POPC   GL239458   8.284  37.380   5.912
 2928POPC   C1A39459   8.371  37.860   6.165
 2928POPC   D2A39460   8.123  37.852   6.537
 2928POPC   C3A39461   8.363  38.010   6.843
 2928POPC   C4A39462   8.298  37.855   7.248
 2928POPC   C1B39463   7.933  37.480   6.233
 2928POPC   C2B39464   7.794  37.366   6.625
 2928POPC   C3B39465   7.990  37.531   6.969
 2928POPC   C4B39466   8.050  37.344   7.344
 2929POPC   NC339467  11.420  29.450   5.453
 2929POPC   PO439468  11.310  30.080   5.473
 2929POPC   GL139469  11.124  29.915   5.828
 2929POPC   GL239470  10.966  30.229   5.933
 2929POPC   C1A39471  11.325  29.675   6.182
 2929POPC   D2A39472  11.679  29.774   6.494
 2929POPC   C3A39473  11.593  29.669   6.916
 2929POPC   C4A39474  11.295  29.790   7.218
 2929POPC   C1B39475  10.902  29.957   6.292
 2929POPC   C2B39476  11.082  29.878   6.699
 2929POPC   C3B39477  10.913  30.090   7.070
 2929POPC   C4B39478  11.158  30.285   7.393
 2930POPC   NC339479   2.957  21.560   5.280
 2930POPC   PO439480   2.468  21.148   5.348
 2930POPC   GL139481   2.602  21.448   5.684
 2930POPC   GL239482   2.927  21.309   5.719
 2930POPC   C1A39483   2.533  21.663   6.085
 2930POPC   D2A39484   2.548  21.417   6.468
 2930POPC   C3A39485   2.495  21.344   6.904
 2930POPC   C4A39486   2.481  21.223   7.354
 2930POPC   C1B39487   2.941  21.357   6.149
 2930POPC   C2B39488   2.887  21.050   6.477
 2930POPC   C3B39489   2.970  21.068   6.886
 2930POPC   C4B39490   2.939  21.367   7.209
 2931POPC   NC339491  40.591  10.276   5.625
 2931POPC   PO439492  41.032  10.786   5.363
 2931POPC   GL139493  40.968  10.621   5.755
 2931POPC   GL239494  40.656  10.765   5.793
 2931POPC   C1A39495  40.876  10.512   6.202
 2931POPC   D2A39496  41.026  10.431   6.620
 2931POPC   C3A39497  40.730  10.467   6.949
 2931POPC   C4A39498  40.733  10.296   7.320
 2931POPC   C1B39499  40.552  10.923   6.179
 2931POPC   C2B39500  40.563  10.752   6.560
 2931POPC   C3B39501  40.396  10.871   6.954
 2931POPC   C4B39502  40.436  10.729   7.375
 2932POPC   NC339503   7.978  30.146   5.378
 2932POPC   PO439504   8.574  30.358   5.357
 2932POPC   GL139505   8.423  30.104   5.755
 2932POPC   GL239506   8.158  29.839   5.742
 2932POPC   C1A39507   8.455  29.892   6.197
 2932POPC   D2A39508   8.602  29.888   6.647
 2932POPC   C3A39509   8.314  29.997   6.985
 2932POPC   C4A39510   8.033  30.273   7.166
 2932POPC   C1B39511   7.953  29.768   6.134
 2932POPC   C2B39512   8.033  29.920   6.546
 2932POPC   C3B39513   7.813  29.865   6.940
 2932POPC   C4B39514   7.953  29.798   7.386
 2933POPC   NC339515   7.998  31.729   5.469
 2933POPC   PO439516   8.228  31.221   5.160
 2933POPC   GL139517   8.296  31.319   5.638
 2933POPC   GL239518   8.406  31.678   5.778
 2933POPC   C1A39519   8.346  31.294   6.104
 2933POPC   D2A39520   8.330  31.503   6.521
 2933POPC   C3A39521   8.244  31.234   6.862
 2933POPC   C4A39522   8.295  31.242   7.285
 2933POPC   C1B39523   8.070  31.749   6.111
 2933POPC   C2B39524   7.830  31.648   6.475
 2933POPC   C3B39525   7.922  31.627   6.886
 2933POPC   C4B39526   8.198  31.746   7.233
 2934POPC   NC339527  18.822  33.743   5.365
 2934POPC   PO439528  19.434  34.084   5.428
 2934POPC   GL139529  19.078  34.032   5.786
 2934POPC   GL239530  18.896  33.700   5.856
 2934POPC   C1A39531  18.908  34.045   6.215
 2934POPC   D2A39532  19.059  33.900   6.618
 2934POPC   C3A39533  18.919  34.031   7.005
 2934POPC   C4A39534  18.780  34.101   7.426
 2934POPC   C1B39535  19.223  33.622   6.209
 2934POPC   C2B39536  19.411  33.517   6.595
 2934POPC   C3B39537  19.363  33.717   6.979
 2934POPC   C4B39538  19.112  33.703   7.353
 2935POPC   NC339539  14.606  43.506   5.328
 2935POPC   PO439540  14.087  43.939   5.363
 2935POPC   GL139541  14.294  43.760   5.690
 2935POPC   GL239542  14.622  43.933   5.610
 2935POPC   C1A39543  14.175  43.644   6.142
 2935POPC   D2A39544  14.149  43.915   6.546
 2935POPC   C3A39545  14.231  43.773   6.984
 2935POPC   C4A39546  14.184  43.908   7.432
 2935POPC   C1B39547  14.619  43.890   6.059
 2935POPC   C2B39548  14.703  44.000   6.490
 2935POPC   C3B39549  14.636  44.108   6.924
 2935POPC   C4B39550  14.662  43.796   7.252
 2936POPC   NC339551   7.075  12.272   5.285
 2936POPC   PO439552   6.460  11.937   5.457
 2936POPC   GL139553   6.739  11.904   5.768
 2936POPC   GL239554   6.611  11.582   5.863
 2936POPC   C1A39555   6.810  12.032   6.189
 2936POPC   D2A39556   6.592  12.073   6.609
 2936POPC   C3A39557   6.896  12.102   6.950
 2936POPC   C4A39558   6.832  12.313   7.354
 2936POPC   C1B39559   6.519  11.557   6.297
 2936POPC   C2B39560   6.244  11.670   6.623
 2936POPC   C3B39561   6.227  11.792   7.037
 2936POPC   C4B39562   6.604  11.816   7.245
 2937POPC   NC339563  12.561  24.077   5.495
 2937POPC   PO439564  11.910  23.831   5.453
 2937POPC   GL139565  11.866  23.634   5.871
 2937POPC   GL239566  12.191  23.596   5.964
 2937POPC   C1A39567  11.866  23.704   6.342
 2937POPC   D2A39568  12.275  23.826   6.537
 2937POPC   C3A39569  12.305  23.709   6.968
 2937POPC   C4A39570  12.642  23.682   7.243
 2937POPC   C1B39571  11.971  23.226   6.141
 2937POPC   C2B39572  11.715  23.179   6.494
 2937POPC   C3B39573  11.798  23.447   6.840
 2937POPC   C4B39574  11.966  23.382   7.234
 2938POPC   NC339575  10.222  23.003   5.377
 2938POPC   PO439576  10.749  22.644   5.371
 2938POPC   GL139577  10.588  22.860   5.775
 2938POPC   GL239578  10.649  23.211   5.827
 2938POPC   C1A39579  10.443  22.944   6.228
 2938POPC   D2A39580  10.200  22.748   6.570
 2938POPC   C3A39581  10.233  22.872   6.980
 2938POPC   C4A39582  10.531  23.035   7.242
 2938POPC   C1B39583  10.799  23.339   6.265
 2938POPC   C2B39584  10.676  23.242   6.740
 2938POPC   C3B39585  10.949  23.290   7.164
 2938POPC   C4B39586  11.033  23.133   7.678
 2939POPC   NC339587  42.543   8.429   5.501
 2939POPC   PO439588  42.197   7.756   5.406
 2939POPC   GL139589  42.220   8.002   5.755
 2939POPC   GL239590  42.572   7.934   5.819
 2939POPC   C1A39591  42.278   8.292   6.091
 2939POPC   D2A39592  42.479   8.289   6.444
 2939POPC   C3A39593  42.259   8.371   6.785
 2939POPC   C4A39594  42.171   8.330   7.190
 2939POPC   C1B39595  42.414   7.819   6.257
 2939POPC   C2B39596  42.415   7.862   6.743
 2939POPC   C3B39597  42.428   7.834   7.220
 2939POPC   C4B39598  42.561   7.689   7.665
 2940POPC   NC339599  27.063  20.307   4.940
 2940POPC   PO439600  26.691  20.741   5.312
 2940POPC   GL139601  26.580  20.611   5.723
 2940POPC   GL239602  26.355  20.901   5.811
 2940POPC   C1A39603  26.694  20.349   6.111
 2940POPC   D2A39604  27.032  20.294   6.468
 2940POPC   C3A39605  26.973  20.492   6.895
 2940POPC   C4A39606  27.031  20.878   7.195
 2940POPC   C1B39607  26.620  20.851   6.169
 2940POPC   C2B39608  26.598  20.632   6.557
 2940POPC   C3B39609  26.557  20.800   6.967
 2940POPC   C4B39610  26.451  20.707   7.375
 2941POPC   NC339611  22.162  26.985   5.381
 2941POPC   PO439612  22.406  26.452   5.483
 2941POPC   GL139613  22.269  26.631   5.895
 2941POPC   GL239614  22.273  26.996   5.902
 2941POPC   C1A39615  22.270  26.734   6.373
 2941POPC   D2A39616  22.436  27.088   6.650
 2941POPC   C3A39617  22.237  27.082   7.036
 2941POPC   C4A39618  21.978  26.785   7.258
 2941POPC   C1B39619  22.043  27.169   6.284
 2941POPC   C2B39620  21.876  26.985   6.702
 2941POPC   C3B39621  21.727  27.199   7.125
 2941POPC   C4B39622  21.567  27.207   7.566
 2942POPC   NC339623  13.256   2.643   5.231
 2942POPC   PO439624  12.640   2.422   5.361
 2942POPC   GL139625  12.732   2.701   5.703
 2942POPC   GL239626  13.044   2.880   5.653
 2942POPC   C1A39627  12.664   2.614   6.129
 2942POPC   D2A39628  12.563   2.700   6.548
 2942POPC   C3A39629  12.768   2.724   6.916
 2942POPC   C4A39630  12.639   2.884   7.315
 2942POPC   C1B39631  13.074   2.923   6.102
 2942POPC   C2B39632  13.187   2.987   6.560
 2942POPC   C3B39633  13.105   3.097   7.015
 2942POPC   C4B39634  13.132   3.183   7.461
 2943POPC   NC339635  42.862  18.025   5.455
 2943POPC   PO439636  43.290  18.542   5.235
 2943POPC   GL139637  43.278  18.432   5.689
 2943POPC   GL239638  43.288  18.077   5.729
 2943POPC   C1A39639  43.156  18.373   6.151
 2943POPC   D2A39640  42.950  18.241   6.552
 2943POPC   C3A39641  43.114  18.357   6.972
 2943POPC   C4A39642  42.839  18.513   7.299
 2943POPC   C1B39643  43.468  17.962   6.123
 2943POPC   C2B39644  43.297  17.832   6.508
 2943POPC   C3B39645  43.289  17.804   6.936
 2943POPC   C4B39646  43.485  17.967   7.282
 2944POPC   NC339647  39.293  33.080   5.344
 2944POPC   PO439648  39.324  32.369   5.364
 2944POPC   GL139649  39.230  32.682   5.736
 2944POPC   GL239650  39.149  33.042   5.814
 2944POPC   C1A39651  39.128  32.678   6.191
 2944POPC   D2A39652  38.981  32.877   6.576
 2944POPC   C3A39653  39.232  32.859   6.951
 2944POPC   C4A39654  39.184  32.640   7.358
 2944POPC   C1B39655  38.967  33.204   6.172
 2944POPC   C2B39656  38.906  33.379   6.573
 2944POPC   C3B39657  38.827  33.207   6.996
 2944POPC   C4B39658  38.828  33.369   7.445
 2945POPC   NC339659  38.177  42.540   5.269
 2945POPC   PO439660  37.538  42.288   5.417
 2945POPC   GL139661  37.650  42.278   5.827
 2945POPC   GL239662  37.599  41.939   5.888
 2945POPC   C1A39663  37.757  42.499   6.217
 2945POPC   D2A39664  37.441  42.531   6.557
 2945POPC   C3A39665  37.609  42.508   6.971
 2945POPC   C4A39666  37.751  42.192   7.236
 2945POPC   C1B39667  37.499  42.066   6.305
 2945POPC   C2B39668  37.542  42.063   6.762
 2945POPC   C3B39669  37.468  41.767   7.080
 2945POPC   C4B39670  37.572  41.785   7.512
 2946POPC   NC339671  38.530  23.952   5.440
 2946POPC   PO439672  38.660  24.569   5.385
 2946POPC   GL139673  38.653  24.749   5.774
 2946POPC   GL239674  38.466  24.445   5.882
 2946POPC   C1A39675  38.738  24.699   6.225
 2946POPC   D2A39676  38.513  24.463   6.522
 2946POPC   C3A39677  38.458  24.595   6.932
 2946POPC   C4A39678  38.257  24.724   7.324
 2946POPC   C1B39679  38.144  24.595   6.154
 2946POPC   C2B39680  38.022  24.348   6.488
 2946POPC   C3B39681  38.200  24.140   6.811
 2946POPC   C4B39682  38.059  24.084   7.198
 2947POPC   NC339683  37.148  21.274   5.443
 2947POPC   PO439684  36.466  21.084   5.389
 2947POPC   GL139685  36.707  21.212   5.761
 2947POPC   GL239686  36.784  21.566   5.757
 2947POPC   C1A39687  36.939  21.029   6.131
 2947POPC   D2A39688  36.938  20.798   6.510
 2947POPC   C3A39689  36.938  21.009   6.884
 2947POPC   C4A39690  36.944  21.190   7.277
 2947POPC   C1B39691  36.785  21.507   6.187
 2947POPC   C2B39692  36.686  21.320   6.556
 2947POPC   C3B39693  36.585  21.557   6.884
 2947POPC   C4B39694  36.772  21.663   7.244
 2948POPC   NC339695   1.933  43.672   5.308
 2948POPC   PO439696   2.175  44.248   5.383
 2948POPC   GL139697   1.921  43.985   5.718
 2948POPC   GL239698   2.124  43.679   5.796
 2948POPC   C1A39699   1.708  44.073   6.117
 2948POPC   D2A39700   1.832  44.339   6.486
 2948POPC   C3A39701   1.775  44.194   6.912
 2948POPC   C4A39702   1.714  43.956   7.281
 2948POPC   C1B39703   1.874  43.580   6.158
 2948POPC   C2B39704   1.793  43.810   6.544
 2948POPC   C3B39705   1.982  43.723   6.925
 2948POPC   C4B39706   2.153  43.485   7.234
 2949POPC   NC339707  19.140   9.103   5.577
 2949POPC   PO439708  19.769   9.019   5.424
 2949POPC   GL139709  19.773   9.030   5.854
 2949POPC   GL239710  20.124   9.037   5.875
 2949POPC   C1A39711  19.622   8.814   6.242
 2949POPC   D2A39712  19.699   8.961   6.671
 2949POPC   C3A39713  19.868   8.681   6.956
 2949POPC   C4A39714  19.598   8.608   7.261
 2949POPC   C1B39715  20.066   9.079   6.327
 2949POPC   C2B39716  20.200   9.035   6.755
 2949POPC   C3B39717  19.977   9.156   7.134
 2949POPC   C4B39718  20.041   9.325   7.557
 2950POPC   NC339719  25.059  15.239   5.426
 2950POPC   PO439720  25.639  15.647   5.336
 2950POPC   GL139721  25.478  15.435   5.710
 2950POPC   GL239722  25.520  15.063   5.787
 2950POPC   C1A39723  25.323  15.508   6.117
 2950POPC   D2A39724  25.107  15.406   6.484
 2950POPC   C3A39725  25.316  15.397   6.853
 2950POPC   C4A39726  25.297  15.368   7.274
 2950POPC   C1B39727  25.304  15.014   6.201
 2950POPC   C2B39728  25.278  14.932   6.651
 2950POPC   C3B39729  25.054  14.988   7.047
 2950POPC   C4B39730  25.237  14.872   7.432
 2951POPC   NC339731  36.000  29.445   5.325
 2951POPC   PO439732  36.290  28.877   5.383
 2951POPC   GL139733  36.184  29.130   5.783
 2951POPC   GL239734  35.988  29.449   5.836
 2951POPC   C1A39735  36.331  29.249   6.232
 2951POPC   D2A39736  36.101  29.168   6.646
 2951POPC   C3A39737  36.303  29.331   7.016
 2951POPC   C4A39738  36.314  29.279   7.470
 2951POPC   C1B39739  35.834  29.213   6.191
 2951POPC   C2B39740  35.657  29.372   6.544
 2951POPC   C3B39741  35.804  29.524   6.889
 2951POPC   C4B39742  35.937  29.554   7.309
 2952POPC   NC339743  23.424  25.452   5.210
 2952POPC   PO439744  22.791  25.826   5.272
 2952POPC   GL139745  22.916  25.822   5.750
 2952POPC   GL239746  23.188  25.568   5.727
 2952POPC   C1A39747  22.951  26.148   6.179
 2952POPC   D2A39748  23.065  26.284   6.662
 2952POPC   C3A39749  22.797  26.188   7.065
 2952POPC   C4A39750  22.357  26.230   7.258
 2952POPC   C1B39751  23.321  25.827   6.074
 2952POPC   C2B39752  23.335  25.861   6.527
 2952POPC   C3B39753  23.158  25.785   6.954
 2952POPC   C4B39754  23.119  25.902   7.396
 2953POPC   NC339755  13.904  36.605   5.494
 2953POPC   PO439756  13.361  37.032   5.252
 2953POPC   GL139757  13.276  36.953   5.703
 2953POPC   GL239758  13.630  36.944   5.808
 2953POPC   C1A39759  13.274  36.891   6.194
 2953POPC   D2A39760  13.315  37.090   6.617
 2953POPC   C3A39761  13.275  36.824   6.974
 2953POPC   C4A39762  13.421  36.666   7.350
 2953POPC   C1B39763  13.764  36.711   6.202
 2953POPC   C2B39764  13.567  36.632   6.611
 2953POPC   C3B39765  13.744  36.502   6.999
 2953POPC   C4B39766  13.966  36.369   7.376
 2954POPC   NC339767   6.384  40.292   5.379
 2954POPC   PO439768   6.882  39.850   5.509
 2954POPC   GL139769   6.648  40.043   5.835
 2954POPC   GL239770   6.266  40.040   5.859
 2954POPC   C1A39771   6.784  40.047   6.256
 2954POPC   D2A39772   6.714  40.266   6.632
 2954POPC   C3A39773   6.755  40.057   7.037
 2954POPC   C4A39774   6.931  40.010   7.466
 2954POPC   C1B39775   6.299  40.241   6.295
 2954POPC   C2B39776   6.199  40.230   6.755
 2954POPC   C3B39777   6.359  40.370   7.131
 2954POPC   C4B39778   6.415  39.991   7.455
 2955POPC   NC339779  23.844  26.340   5.504
 2955POPC   PO439780  23.697  25.630   5.523
 2955POPC   GL139781  23.781  25.947   5.830
 2955POPC   GL239782  23.548  26.246   5.912
 2955POPC   C1A39783  23.800  25.879   6.253
 2955POPC   D2A39784  23.804  26.075   6.626
 2955POPC   C3A39785  23.806  25.841   6.962
 2955POPC   C4A39786  23.544  26.075   7.191
 2955POPC   C1B39787  23.803  26.423   6.238
 2955POPC   C2B39788  24.020  26.530   6.634
 2955POPC   C3B39789  24.040  26.341   7.048
 2955POPC   C4B39790  24.280  26.336   7.445
 2956POPC   NC339791  17.597  21.835   5.359
 2956POPC   PO439792  16.982  21.895   5.398
 2956POPC   GL139793  17.304  22.025   5.744
 2956POPC   GL239794  17.692  21.997   5.848
 2956POPC   C1A39795  17.278  22.066   6.189
 2956POPC   D2A39796  17.304  21.825   6.567
 2956POPC   C3A39797  17.286  21.995   6.992
 2956POPC   C4A39798  17.548  22.309   7.150
 2956POPC   C1B39799  17.765  22.061   6.327
 2956POPC   C2B39800  17.747  21.993   6.789
 2956POPC   C3B39801  17.745  21.850   7.242
 2956POPC   C4B39802  17.849  21.960   7.645
 2957POPC   NC339803  34.242  21.766   5.469
 2957POPC   PO439804  33.858  21.212   5.285
 2957POPC   GL139805  33.792  21.416   5.663
 2957POPC   GL239806  34.096  21.309   5.756
 2957POPC   C1A39807  33.583  21.343   6.052
 2957POPC   D2A39808  33.424  21.553   6.438
 2957POPC   C3A39809  33.608  21.491   6.860
 2957POPC   C4A39810  33.441  21.402   7.254
 2957POPC   C1B39811  34.040  21.543   6.134
 2957POPC   C2B39812  33.906  21.312   6.483
 2957POPC   C3B39813  34.068  21.106   6.846
 2957POPC   C4B39814  33.866  21.117   7.231
 2958POPC   NC339815  42.677  27.369   5.434
 2958POPC   PO439816  43.379  27.563   5.345
 2958POPC   GL139817  43.304  27.554   5.768
 2958POPC   GL239818  42.949  27.668   5.761
 2958POPC   C1A39819  43.253  27.337   6.190
 2958POPC   D2A39820  43.047  27.432   6.577
 2958POPC   C3A39821  43.274  27.337   6.976
 2958POPC   C4A39822  43.272  27.385   7.451
 2958POPC   C1B39823  43.113  27.840   6.139
 2958POPC   C2B39824  42.999  27.933   6.555
 2958POPC   C3B39825  42.961  27.740   6.979
 2958POPC   C4B39826  43.193  27.876   7.325
 2959POPC   NC339827   0.311   0.480   5.353
 2959POPC   PO439828   0.915   0.243   5.249
 2959POPC   GL139829   0.670   0.278   5.657
 2959POPC   GL239830   0.691   0.639   5.669
 2959POPC   C1A39831   0.579   0.255   6.133
 2959POPC   D2A39832   0.400   0.200   6.590
 2959POPC   C3A39833   0.253   0.563   6.852
 2959POPC   C4A39834   0.295   0.564   7.289
 2959POPC   C1B39835   0.573   0.785   6.091
 2959POPC   C2B39836   0.630   0.644   6.493
 2959POPC   C3B39837   0.763   0.574   6.915
 2959POPC   C4B39838   1.083   0.747   7.157
 2960POPC   NC339839  44.207  39.952   5.167
 2960POPC   PO439840  43.945  40.418   5.547
 2960POPC   GL139841  44.091  40.280   5.976
 2960POPC   GL239842  44.330  39.999   5.919
 2960POPC   C1A39843  43.931  40.177   6.390
 2960POPC   D2A39844  43.649  39.917   6.630
 2960POPC   C3A39845  43.614  40.123   7.004
 2960POPC   C4A39846  43.990  40.234   7.154
 2960POPC   C1B39847  44.351  39.877   6.373
 2960POPC   C2B39848  44.143  39.880   6.801
 2960POPC   C3B39849  43.956  39.734   7.207
 2960POPC   C4B39850  44.110  39.820   7.653
 2961POPC   NC339851  21.930  17.741   5.371
 2961POPC   PO439852  22.539  17.537   5.201
 2961POPC   GL139853  22.270  17.500   5.656
 2961POPC   GL239854  22.472  17.593   5.959
 2961POPC   C1A39855  22.018  17.612   6.088
 2961POPC   D2A39856  22.129  17.374   6.467
 2961POPC   C3A39857  22.038  17.483   6.875
 2961POPC   C4A39858  21.920  17.622   7.286
 2961POPC   C1B39859  22.622  17.388   6.309
 2961POPC   C2B39860  22.569  17.173   6.695
 2961POPC   C3B39861  22.727  17.212   7.090
 2961POPC   C4B39862  22.360  17.353   7.251
 2962POPC   NC339863  42.620  13.408   5.534
 2962POPC   PO439864  42.325  13.951   5.459
 2962POPC   GL139865  42.363  13.711   5.862
 2962POPC   GL239866  42.172  13.378   5.817
 2962POPC   C1A39867  42.463  13.722   6.310
 2962POPC   D2A39868  42.696  13.519   6.622
 2962POPC   C3A39869  42.532  13.617   7.019
 2962POPC   C4A39870  42.364  13.990   7.135
 2962POPC   C1B39871  42.343  13.242   6.259
 2962POPC   C2B39872  42.212  13.372   6.712
 2962POPC   C3B39873  42.130  13.265   7.186
 2962POPC   C4B39874  42.106  13.239   7.686
 2963POPC   NC339875  37.777  15.875   5.352
 2963POPC   PO439876  37.409  16.407   5.227
 2963POPC   GL139877  37.457  16.169   5.654
 2963POPC   GL239878  37.767  16.039   5.836
 2963POPC   C1A39879  37.397  16.180   6.141
 2963POPC   D2A39880  37.519  16.289   6.574
 2963POPC   C3A39881  37.537  16.071   6.995
 2963POPC   C4A39882  37.683  16.008   7.456
 2963POPC   C1B39883  37.926  15.942   6.236
 2963POPC   C2B39884  37.951  16.037   6.673
 2963POPC   C3B39885  37.931  15.779   7.056
 2963POPC   C4B39886  38.052  15.691   7.484
 2964POPC   NC339887  36.585  40.614   5.110
 2964POPC   PO439888  36.882  41.166   5.301
 2964POPC   GL139889  36.919  40.811   5.605
 2964POPC   GL239890  36.605  40.607   5.635
 2964POPC   C1A39891  37.051  40.802   6.061
 2964POPC   D2A39892  36.819  40.980   6.409
 2964POPC   C3A39893  36.814  40.951   6.865
 2964POPC   C4A39894  36.526  41.175   7.140
 2964POPC   C1B39895  36.743  40.407   6.006
 2964POPC   C2B39896  36.779  40.413   6.447
 2964POPC   C3B39897  36.777  40.421   6.886
 2964POPC   C4B39898  36.689  40.640   7.280
 2965POPC   NC339899  36.919  14.036   5.365
 2965POPC   PO439900  36.501  14.467   5.495
 2965POPC   GL139901  36.786  14.294   5.801
 2965POPC   GL239902  37.130  14.401   5.692
 2965POPC   C1A39903  36.904  14.488   6.179
 2965POPC   D2A39904  37.014  14.751   6.496
 2965POPC   C3A39905  36.943  14.569   6.882
 2965POPC   C4A39906  37.119  14.704   7.262
 2965POPC   C1B39907  37.309  14.201   6.057
 2965POPC   C2B39908  37.327  14.279   6.496
 2965POPC   C3B39909  37.243  14.062   6.846
 2965POPC   C4B39910  37.104  14.208   7.219
 2966POPC   NC339911  26.092   1.361   5.065
 2966POPC   PO439912  26.216   1.119   5.417
 2966POPC   GL139913  26.214   1.095   5.892
 2966POPC   GL239914  25.861   1.136   5.991
 2966POPC   C1A39915  26.176   1.013   6.377
 2966POPC   D2A39916  25.910   1.110   6.739
 2966POPC   C3A39917  26.058   1.305   7.134
 2966POPC   C4A39918  26.204   1.081   7.509
 2966POPC   C1B39919  25.930   1.461   6.327
 2966POPC   C2B39920  25.781   1.611   6.748
 2966POPC   C3B39921  25.649   1.676   7.182
 2966POPC   C4B39922  25.972   1.712   7.510
 2967POPC   NC339923  40.014  34.241   5.737
 2967POPC   PO439924  40.081  33.465   5.608
 2967POPC   GL139925  40.098  33.753   5.847
 2967POPC   GL239926  39.760  33.832   5.954
 2967POPC   C1A39927  40.234  33.794   6.231
 2967POPC   D2A39928  40.239  34.020   6.581
 2967POPC   C3A39929  40.056  33.797   6.910
 2967POPC   C4A39930  40.167  33.849   7.324
 2967POPC   C1B39931  39.768  33.889   6.403
 2967POPC   C2B39932  39.614  34.115   6.741
 2967POPC   C3B39933  39.577  33.940   7.093
 2967POPC   C4B39934  39.720  33.531   7.237
 2968POPC   NC339935  29.836  26.886   5.294
 2968POPC   PO439936  29.788  26.279   5.392
 2968POPC   GL139937  29.750  26.558   5.729
 2968POPC   GL239938  29.985  26.852   5.797
 2968POPC   C1A39939  29.774  26.614   6.177
 2968POPC   D2A39940  30.020  26.660   6.517
 2968POPC   C3A39941  29.777  26.846   6.815
 2968POPC   C4A39942  29.799  26.611   7.155
 2968POPC   C1B39943  30.003  27.081   6.226
 2968POPC   C2B39944  30.209  27.133   6.639
 2968POPC   C3B39945  30.173  27.068   7.109
 2968POPC   C4B39946  30.312  27.170   7.583
 2969POPC   NC339947  29.411  40.467   5.394
 2969POPC   PO439948  29.287  41.120   5.389
 2969POPC   GL139949  29.323  40.819   5.773
 2969POPC   GL239950  28.984  40.669   5.885
 2969POPC   C1A39951  29.415  40.514   6.121
 2969POPC   D2A39952  29.213  40.528   6.534
 2969POPC   C3A39953  29.434  40.674   6.900
 2969POPC   C4A39954  29.448  41.005   7.173
 2969POPC   C1B39955  29.068  40.970   6.257
 2969POPC   C2B39956  29.138  41.095   6.727
 2969POPC   C3B39957  28.968  40.883   7.089
 2969POPC   C4B39958  29.003  40.490   7.211
 2970POPC   NC339959   7.762  22.779   5.188
 2970POPC   PO439960   7.254  23.117   5.418
 2970POPC   GL139961   7.330  22.955   5.806
 2970POPC   GL239962   7.124  23.199   5.967
 2970POPC   C1A39963   7.511  22.899   6.224
 2970POPC   D2A39964   7.404  23.157   6.594
 2970POPC   C3A39965   7.663  23.090   6.975
 2970POPC   C4A39966   7.567  22.854   7.380
 2970POPC   C1B39967   7.004  22.901   6.295
 2970POPC   C2B39968   7.090  22.757   6.709
 2970POPC   C3B39969   7.174  23.003   7.068
 2970POPC   C4B39970   7.181  23.178   7.474
 2971POPC   NC339971  22.674  17.815   5.568
 2971POPC   PO439972  22.969  18.429   5.336
 2971POPC   GL139973  22.972  18.364   5.813
 2971POPC   GL239974  22.641  18.251   5.875
 2971POPC   C1A39975  23.018  18.317   6.299
 2971POPC   D2A39976  22.822  18.064   6.688
 2971POPC   C3A39977  22.795  18.179   7.113
 2971POPC   C4A39978  23.033  18.283   7.483
 2971POPC   C1B39979  22.474  18.312   6.316
 2971POPC   C2B39980  22.689  18.546   6.651
 2971POPC   C3B39981  22.767  18.709   7.055
 2971POPC   C4B39982  22.539  18.531   7.385
 2972POPC   NC339983  41.735  31.075   5.597
 2972POPC   PO439984  41.564  31.576   5.172
 2972POPC   GL139985  41.453  31.540   5.634
 2972POPC   GL239986  41.269  31.307   5.780
 2972POPC   C1A39987  41.614  31.580   6.111
 2972POPC   D2A39988  41.485  31.641   6.568
 2972POPC   C3A39989  41.684  31.471   6.927
 2972POPC   C4A39990  41.755  31.639   7.337
 2972POPC   C1B39991  41.208  31.332   6.252
 2972POPC   C2B39992  41.407  31.084   6.615
 2972POPC   C3B39993  41.301  30.904   7.024
 2972POPC   C4B39994  41.491  31.191   7.316
 2973POPC   NC339995  39.571  16.222   5.099
 2973POPC   PO439996  38.904  16.080   5.360
 2973POPC   GL139997  39.127  16.112   5.731
 2973POPC   GL239998  39.252  15.773   5.792
 2973POPC   C1A39999  39.299  16.179   6.132
 2973POPC   D2A40000  39.195  16.008   6.523
 2973POPC   C3A40001  39.221  16.168   6.932
 2973POPC   C4A40002  39.054  16.036   7.309
 2973POPC   C1B40003  39.421  15.669   6.206
 2973POPC   C2B40004  39.565  15.704   6.670
 2973POPC   C3B40005  39.411  15.738   7.125
 2973POPC   C4B40006  39.350  15.756   7.613
 2974POPC   NC340007   7.995  33.353   5.296
 2974POPC   PO440008   8.300  32.783   5.418
 2974POPC   GL140009   8.349  32.953   5.799
 2974POPC   GL240010   8.119  33.203   5.766
 2974POPC   C1A40011   8.127  32.937   6.202
 2974POPC   D2A40012   8.258  32.908   6.617
 2974POPC   C3A40013   8.152  32.682   6.981
 2974POPC   C4A40014   8.217  32.819   7.416
 2974POPC   C1B40015   8.441  33.359   6.077
 2974POPC   C2B40016   8.363  33.389   6.503
 2974POPC   C3B40017   8.189  33.322   6.905
 2974POPC   C4B40018   8.344  33.307   7.303
 2975POPC   NC340019  11.199   0.981   5.303
 2975POPC   PO440020  11.510   0.357   5.311
 2975POPC   GL140021  11.283   0.331   5.702
 2975POPC   GL240022  11.180   0.668   5.744
 2975POPC   C1A40023  11.451   0.229   6.108
 2975POPC   D2A40024  11.449   0.419   6.522
 2975POPC   C3A40025  11.341   0.204   6.884
 2975POPC   C4A40026  11.483   0.282   7.251
 2975POPC   C1B40027  11.412   0.780   6.130
 2975POPC   C2B40028  11.292   0.913   6.561
 2975POPC   C3B40029  11.158   0.706   6.951
 2975POPC   C4B40030  11.311   0.793   7.368
 2976POPC   NC340031  32.776  24.389   5.357
 2976POPC   PO440032  33.403  24.694   5.286
 2976POPC   GL140033  33.139  24.592   5.672
 2976POPC   GL240034  32.814  24.805   5.672
 2976POPC   C1A40035  32.969  24.412   6.072
 2976POPC   D2A40036  33.200  24.379   6.490
 2976POPC   C3A40037  32.953  24.242   6.853
 2976POPC   C4A40038  32.543  24.196   7.045
 2976POPC   C1B40039  32.642  24.837   6.088
 2976POPC   C2B40040  32.742  24.665   6.505
 2976POPC   C3B40041  32.765  24.740   6.950
 2976POPC   C4B40042  32.478  24.770   7.300
 2977POPC   NC340043  35.109  19.081   5.592
 2977POPC   PO440044  34.562  18.766   5.390
 2977POPC   GL140045  34.376  18.874   5.763
 2977POPC   GL240046  34.641  19.077   5.847
 2977POPC   C1A40047  34.475  18.733   6.194
 2977POPC   D2A40048  34.276  18.873   6.556
 2977POPC   C3A40049  34.416  18.741   6.946
 2977POPC   C4A40050  34.368  18.840   7.365
 2977POPC   C1B40051  34.725  19.199   6.294
 2977POPC   C2B40052  34.706  19.130   6.752
 2977POPC   C3B40053  34.805  19.040   7.187
 2977POPC   C4B40054  34.738  19.215   7.606
 2978POPC   NC340055  15.399  44.067   5.408
 2978POPC   PO440056  15.049  43.592   5.177
 2978POPC   GL140057  15.101  43.746   5.654
 2978POPC   GL240058  14.926  43.534   5.817
 2978POPC   C1A40059  15.098  44.071   6.075
 2978POPC   D2A40060  15.072  44.357   6.491
 2978POPC   C3A40061  15.144  44.133   6.888
 2978POPC   C4A40062  15.091  44.068   7.340
 2978POPC   C1B40063  15.151  43.576   6.214
 2978POPC   C2B40064  15.074  43.660   6.655
 2978POPC   C3B40065  15.167  43.617   7.096
 2978POPC   C4B40066  15.012  43.544   7.522
 2979POPC   NC340067  42.819  44.027   5.485
 2979POPC   PO440068  43.251  43.589   5.162
 2979POPC   GL140069  43.278  43.719   5.657
 2979POPC   GL240070  43.284  44.028   5.783
 2979POPC   C1A40071  43.054  43.777   6.129
 2979POPC   D2A40072  42.936  44.094   6.428
 2979POPC   C3A40073  43.000  44.078   6.876
 2979POPC   C4A40074  42.931  43.770   7.177
 2979POPC   C1B40075  43.421  44.120   6.214
 2979POPC   C2B40076  43.422  43.899   6.647
 2979POPC   C3B40077  43.426  43.883   7.109
 2979POPC   C4B40078  43.484  44.173   7.449
 2980POPC   NC340079  44.917  24.198   5.505
 2980POPC   PO440080  44.805  23.498   5.515
 2980POPC   GL140081  44.682  23.549   5.899
 2980POPC   GL240082  44.656  23.910   5.868
 2980POPC   C1A40083  44.423  23.596   6.230
 2980POPC   D2A40084  44.479  23.458   6.625
 2980POPC   C3A40085  44.470  23.739   6.935
 2980POPC   C4A40086  44.639  23.526   7.285
 2980POPC   C1B40087  44.833  23.924   6.269
 2980POPC   C2B40088  44.933  23.717   6.658
 2980POPC   C3B40089  44.935  23.894   7.063
 2980POPC   C4B40090  44.791  23.980   7.497
 2981POPC   NC340091   6.351   9.940   5.354
 2981POPC   PO440092   6.913   9.608   5.289
 2981POPC   GL140093   6.703   9.539   5.704
 2981POPC   GL240094   6.583   9.856   5.809
 2981POPC   C1A40095   6.803   9.531   6.172
 2981POPC   D2A40096   6.654   9.683   6.596
 2981POPC   C3A40097   6.860   9.584   6.988
 2981POPC   C4A40098   6.641   9.510   7.394
 2981POPC   C1B40099   6.363   9.812   6.188
 2981POPC   C2B40100   6.294  10.101   6.522
 2981POPC   C3B40101   6.288  10.032   6.933
 2981POPC   C4B40102   6.152   9.683   7.130
 2982POPC   NC340103  18.989   0.037   5.032
 2982POPC   PO440104  19.024   0.609   5.383
 2982POPC   GL140105  19.101   0.384   5.754
 2982POPC   GL240106  18.906   0.083   5.823
 2982POPC   C1A40107  19.238   0.581   6.130
 2982POPC   D2A40108  19.034   0.617   6.527
 2982POPC   C3A40109  19.097   0.373   6.870
 2982POPC   C4A40110  19.144   0.416   7.271
 2982POPC   C1B40111  19.005   0.134   6.238
 2982POPC   C2B40112  18.736   0.172   6.564
 2982POPC   C3B40113  18.771  44.946   6.923
 2982POPC   C4B40114  18.763   0.110   7.303
 2983POPC   NC340115  24.055  32.946   5.199
 2983POPC   PO440116  23.574  33.227   5.521
 2983POPC   GL140117  23.769  32.982   5.790
 2983POPC   GL240118  23.992  33.129   6.012
 2983POPC   C1A40119  23.566  32.883   6.163
 2983POPC   D2A40120  23.701  32.900   6.580
 2983POPC   C3A40121  23.395  32.937   6.907
 2983POPC   C4A40122  23.353  32.758   7.327
 2983POPC   C1B40123  23.621  33.395   6.173
 2983POPC   C2B40124  23.468  33.436   6.577
 2983POPC   C3B40125  23.732  33.308   6.916
 2983POPC   C4B40126  23.761  33.090   7.293
 2984POPC   NC340127   7.581  42.730   5.421
 2984POPC   PO440128   7.621  42.058   5.546
 2984POPC   GL140129   7.530  42.378   5.868
 2984POPC   GL240130   7.236  42.586   5.813
 2984POPC   C1A40131   7.591  42.376   6.310
 2984POPC   D2A40132   7.789  42.503   6.693
 2984POPC   C3A40133   7.670  42.192   7.006
 2984POPC   C4A40134   7.279  41.976   7.116
 2984POPC   C1B40135   7.093  42.415   6.231
 2984POPC   C2B40136   7.225  42.245   6.647
 2984POPC   C3B40137   7.260  42.484   7.018
 2984POPC   C4B40138   6.942  42.609   7.254
 2985POPC   NC340139  12.757  43.833   5.404
 2985POPC   PO440140  12.672  44.401   5.634
 2985POPC   GL140141  12.749  44.198   5.949
 2985POPC   GL240142  13.004  43.987   5.852
 2985POPC   C1A40143  12.539  43.929   6.214
 2985POPC   D2A40144  12.591  43.603   6.525
 2985POPC   C3A40145  12.800  43.695   6.930
 2985POPC   C4A40146  12.887  44.017   7.255
 2985POPC   C1B40147  13.028  43.809   6.292
 2985POPC   C2B40148  13.252  43.721   6.682
 2985POPC   C3B40149  13.300  43.667   7.150
 2985POPC   C4B40150  13.278  43.905   7.567
 2986POPC   NC340151  14.700  10.237   5.489
 2986POPC   PO440152  14.182  10.718   5.521
 2986POPC   GL140153  14.243  10.496   5.875
 2986POPC   GL240154  14.612  10.498   5.912
 2986POPC   C1A40155  14.294  10.469   6.316
 2986POPC   D2A40156  14.476  10.373   6.696
 2986POPC   C3A40157  14.302  10.635   7.008
 2986POPC   C4A40158  14.570  10.918   7.178
 2986POPC   C1B40159  14.886  10.316   6.232
 2986POPC   C2B40160  15.005  10.217   6.674
 2986POPC   C3B40161  14.835  10.361   7.058
 2986POPC   C4B40162  14.444  10.141   7.192
 2987POPC   NC340163  33.346   7.723   5.424
 2987POPC   PO440164  33.089   7.139   5.597
 2987POPC   GL140165  33.102   7.491   5.852
 2987POPC   GL240166  32.754   7.552   5.810
 2987POPC   C1A40167  33.156   7.493   6.298
 2987POPC   D2A40168  32.975   7.195   6.649
 2987POPC   C3A40169  33.053   7.335   7.083
 2987POPC   C4A40170  33.348   7.456   7.437
 2987POPC   C1B40171  32.658   7.341   6.234
 2987POPC   C2B40172  32.481   7.345   6.685
 2987POPC   C3B40173  32.516   7.322   7.165
 2987POPC   C4B40174  32.766   7.009   7.401
 2988POPC   NC340175  40.199   2.988   5.440
 2988POPC   PO440176  39.570   2.732   5.464
 2988POPC   GL140177  39.743   2.672   5.861
 2988POPC   GL240178  40.092   2.685   5.844
 2988POPC   C1A40179  39.808   2.772   6.291
 2988POPC   D2A40180  39.732   3.009   6.667
 2988POPC   C3A40181  39.703   2.805   7.044
 2988POPC   C4A40182  39.671   2.782   7.479
 2988POPC   C1B40183  40.347   2.641   6.199
 2988POPC   C2B40184  40.258   2.781   6.601
 2988POPC   C3B40185  40.130   2.503   6.908
 2988POPC   C4B40186  40.055   2.464   7.321
 2989POPC   NC340187  14.079  10.276   5.426
 2989POPC   PO440188  13.452  10.213   5.455
 2989POPC   GL140189  13.656  10.503   5.754
 2989POPC   GL240190  13.436  10.752   5.952
 2989POPC   C1A40191  13.784  10.460   6.185
 2989POPC   D2A40192  13.597  10.252   6.563
 2989POPC   C3A40193  13.836  10.381   6.904
 2989POPC   C4A40194  13.803  10.746   7.167
 2989POPC   C1B40195  13.341  10.646   6.361
 2989POPC   C2B40196  13.466  10.716   6.777
 2989POPC   C3B40197  13.264  10.823   7.149
 2989POPC   C4B40198  12.854  10.996   7.165
 2990POPC   NC340199  33.969   3.416   5.411
 2990POPC   PO440200  33.794   4.038   5.479
 2990POPC   GL140201  33.708   3.707   5.754
 2990POPC   GL240202  34.050   3.666   5.860
 2990POPC   C1A40203  33.576   3.650   6.177
 2990POPC   D2A40204  33.672   3.468   6.561
 2990POPC   C3A40205  33.518   3.718   6.873
 2990POPC   C4A40206  33.496   3.480   7.210
 2990POPC   C1B40207  33.970   3.303   6.154
 2990POPC   C2B40208  34.115   3.194   6.597
 2990POPC   C3B40209  33.967   3.330   7.022
 2990POPC   C4B40210  33.942   3.759   7.178
 2991POPC   NC340211  13.409   4.277   5.445
 2991POPC   PO440212  13.823   4.670   5.285
 2991POPC   GL140213  13.771   4.414   5.777
 2991POPC   GL240214  13.583   4.048   5.875
 2991POPC   C1A40215  13.798   4.273   6.266
 2991POPC   D2A40216  13.522   4.259   6.639
 2991POPC   C3A40217  13.747   4.297   7.036
 2991POPC   C4A40218  13.990   4.634   7.262
 2991POPC   C1B40219  13.307   3.933   6.263
 2991POPC   C2B40220  13.082   3.972   6.684
 2991POPC   C3B40221  13.035   4.216   7.067
 2991POPC   C4B40222  13.164   4.249   7.523
 2992POPC   NC340223  37.743  44.431   5.507
 2992POPC   PO440224  37.327  44.977   5.421
 2992POPC   GL140225  37.480  44.785   5.797
 2992POPC   GL240226  37.284  44.472   5.760
 2992POPC   C1A40227  37.820  44.786   6.137
 2992POPC   D2A40228  38.048  44.824   6.521
 2992POPC   C3A40229  37.884  44.902   6.913
 2992POPC   C4A40230  37.771  44.623   7.231
 2992POPC   C1B40231  37.501  44.394   6.158
 2992POPC   C2B40232  37.644  44.513   6.586
 2992POPC   C3B40233  37.978  44.372   6.841
 2992POPC   C4B40234  37.944  44.104   7.201
 2993POPC   NC340235  21.533  13.287   5.329
 2993POPC   PO440236  21.184  13.925   5.210
 2993POPC   GL140237  21.367  13.693   5.579
 2993POPC   GL240238  21.195  13.376   5.722
 2993POPC   C1A40239  21.368  13.744   6.034
 2993POPC   D2A40240  21.279  13.926   6.463
 2993POPC   C3A40241  21.402  13.885   6.909
 2993POPC   C4A40242  21.120  13.968   7.218
 2993POPC   C1B40243  21.293  13.285   6.192
 2993POPC   C2B40244  21.365  13.449   6.613
 2993POPC   C3B40245  21.461  13.396   7.065
 2993POPC   C4B40246  21.485  13.271   7.489
 2994POPC   NC340247  25.845   3.795   5.352
 2994POPC   PO440248  25.995   3.168   5.455
 2994POPC   GL140249  26.055   3.587   5.762
 2994POPC   GL240250  25.769   3.737   5.892
 2994POPC   C1A40251  26.196   3.784   6.179
 2994POPC   D2A40252  26.379   3.525   6.527
 2994POPC   C3A40253  26.271   3.556   6.973
 2994POPC   C4A40254  26.453   3.750   7.302
 2994POPC   C1B40255  25.719   3.763   6.322
 2994POPC   C2B40256  25.936   3.771   6.672
 2994POPC   C3B40257  25.919   3.922   7.088
 2994POPC   C4B40258  25.934   3.617   7.390
 2995POPC   NC340259   5.471  41.514   5.378
 2995POPC   PO440260   4.799  41.656   5.378
 2995POPC   GL140261   5.069  41.406   5.705
 2995POPC   GL240262   5.379  41.530   5.872
 2995POPC   C1A40263   4.971  41.471   6.163
 2995POPC   D2A40264   5.173  41.433   6.571
 2995POPC   C3A40265   5.041  41.499   7.021
 2995POPC   C4A40266   5.193  41.577   7.464
 2995POPC   C1B40267   5.388  41.140   6.130
 2995POPC   C2B40268   5.543  40.954   6.531
 2995POPC   C3B40269   5.435  41.142   6.920
 2995POPC   C4B40270   5.365  41.126   7.330
 2996POPC   NC340271  39.293   1.709   5.366
 2996POPC   PO440272  38.774   2.086   5.347
 2996POPC   GL140273  39.095   2.150   5.694
 2996POPC   GL240274  39.387   1.937   5.819
 2996POPC   C1A40275  39.087   2.244   6.130
 2996POPC   D2A40276  38.957   2.043   6.505
 2996POPC   C3A40277  39.218   2.156   6.832
 2996POPC   C4A40278  39.282   2.027   7.211
 2996POPC   C1B40279  39.374   1.832   6.270
 2996POPC   C2B40280  39.317   1.686   6.690
 2996POPC   C3B40281  39.630   1.716   6.994
 2996POPC   C4B40282  39.789   1.884   7.336
 2997POPC   NC340283  32.479  41.700   5.437
 2997POPC   PO440284  31.848  41.906   5.503
 2997POPC   GL140285  32.057  41.630   5.847
 2997POPC   GL240286  32.386  41.460   5.861
 2997POPC   C1A40287  32.236  41.663   6.307
 2997POPC   D2A40288  32.415  41.786   6.711
 2997POPC   C3A40289  32.084  41.769   6.966
 2997POPC   C4A40290  31.818  41.869   7.294
 2997POPC   C1B40291  32.394  41.192   6.194
 2997POPC   C2B40292  32.527  41.283   6.595
 2997POPC   C3B40293  32.275  41.287   6.925
 2997POPC   C4B40294  32.296  41.501   7.342
 2998POPC   NC340295   4.373  28.936   5.471
 2998POPC   PO440296   4.236  28.290   5.272
 2998POPC   GL140297   4.367  28.452   5.675
 2998POPC   GL240298   4.669  28.290   5.648
 2998POPC   C1A40299   4.235  28.562   6.117
 2998POPC   D2A40300   4.031  28.487   6.532
 2998POPC   C3A40301   4.097  28.610   6.970
 2998POPC   C4A40302   4.130  28.393   7.353
 2998POPC   C1B40303   4.574  28.156   6.073
 2998POPC   C2B40304   4.408  28.114   6.488
 2998POPC   C3B40305   4.481  28.292   6.899
 2998POPC   C4B40306   4.751  28.134   7.197
 2999POPC   NC340307  19.859  34.234   5.329
 2999POPC   PO440308  19.650  34.914   5.351
 2999POPC   GL140309  19.826  34.727   5.736
 2999POPC   GL240310  19.587  34.455   5.764
 2999POPC   C1A40311  19.973  34.677   6.188
 2999POPC   D2A40312  19.921  34.901   6.571
 2999POPC   C3A40313  20.052  34.761   6.971
 2999POPC   C4A40314  19.891  34.792   7.408
 2999POPC   C1B40315  19.339  34.325   6.112
 2999POPC   C2B40316  19.483  34.117   6.459
 2999POPC   C3B40317  19.402  34.216   6.888
 2999POPC   C4B40318  19.389  34.442   7.262
 3000POPC   NC340319  13.917  17.816   5.441
 3000POPC   PO440320  13.374  17.390   5.467
 3000POPC   GL140321  13.536  17.588   5.777
 3000POPC   GL240322  13.311  17.809   5.907
 3000POPC   C1A40323  13.637  17.442   6.166
 3000POPC   D2A40324  13.886  17.629   6.481
 3000POPC   C3A40325  13.830  17.549   6.892
 3000POPC   C4A40326  13.508  17.517   7.184
 3000POPC   C1B40327  13.515  17.918   6.258
 3000POPC   C2B40328  13.456  17.848   6.676
 3000POPC   C3B40329  13.581  17.991   7.057
 3000POPC   C4B40330  13.285  18.003   7.371
 3001POPC   NC340331  26.480  19.067   5.205
 3001POPC   PO440332  27.055  19.167   5.571
 3001POPC   GL140333  26.764  19.026   5.831
 3001POPC   GL240334  26.487  19.193   5.720
 3001POPC   C1A40335  26.899  18.934   6.241
 3001POPC   D2A40336  27.127  18.999   6.614
 3001POPC   C3A40337  27.082  18.760   6.988
 3001POPC   C4A40338  27.147  19.016   7.356
 3001POPC   C1B40339  26.490  19.233   6.195
 3001POPC   C2B40340  26.561  19.000   6.628
 3001POPC   C3B40341  26.649  19.014   7.089
 3001POPC   C4B40342  26.705  19.263   7.459
 3002POPC   NC340343  44.673  14.658   5.540
 3002POPC   PO440344  44.143  14.226   5.263
 3002POPC   GL140345  44.326  14.211   5.772
 3002POPC   GL240346  44.693  14.240   5.850
 3002POPC   C1A40347  44.436  14.309   6.264
 3002POPC   D2A40348  44.669  14.199   6.659
 3002POPC   C3A40349  44.460  14.313   7.025
 3002POPC   C4A40350  44.396  14.734   7.158
 3002POPC   C1B40351  44.885  14.566   6.158
 3002POPC   C2B40352  44.730  14.720   6.554
 3002POPC   C3B40353  44.910  14.643   6.926
 3002POPC   C4B40354  44.952  14.325   7.203
 3003POPC   NC340355   9.736  35.628   5.408
 3003POPC   PO440356  10.377  35.240   5.390
 3003POPC   GL140357  10.472  35.405   5.773
 3003POPC   GL240358  10.164  35.600   5.802
 3003POPC   C1A40359  10.519  35.561   6.186
 3003POPC   D2A40360  10.419  35.400   6.592
 3003POPC   C3A40361  10.561  35.564   6.988
 3003POPC   C4A40362  10.510  35.474   7.436
 3003POPC   C1B40363  10.139  35.224   6.113
 3003POPC   C2B40364  10.108  35.009   6.514
 3003POPC   C3B40365  10.280  35.043   6.939
 3003POPC   C4B40366  10.224  35.027   7.398
 3004POPC   NC340367  42.782  33.013   5.502
 3004POPC   PO440368  43.348  32.711   5.383
 3004POPC   GL140369  43.242  33.018   5.741
 3004POPC   GL240370  43.064  32.772   5.870
 3004POPC   C1A40371  43.344  33.145   6.191
 3004POPC   D2A40372  43.109  33.045   6.597
 3004POPC   C3A40373  43.337  33.015   6.989
 3004POPC   C4A40374  43.273  32.693   7.289
 3004POPC   C1B40375  42.835  33.026   6.155
 3004POPC   C2B40376  42.645  33.216   6.501
 3004POPC   C3B40377  42.753  33.256   6.927
 3004POPC   C4B40378  42.937  33.075   7.299
 3005POPC   NC340379  40.271   1.691   5.506
 3005POPC   PO440380  40.320   0.951   5.440
 3005POPC   GL140381  40.109   1.074   5.827
 3005POPC   GL240382  39.979   1.418   5.820
 3005POPC   C1A40383  40.037   1.160   6.272
 3005POPC   D2A40384  39.721   1.077   6.542
 3005POPC   C3A40385  39.826   0.933   6.891
 3005POPC   C4A40386  39.972   0.994   7.255
 3005POPC   C1B40387  39.881   1.712   6.141
 3005POPC   C2B40388  39.804   1.581   6.538
 3005POPC   C3B40389  40.040   1.400   6.865
 3005POPC   C4B40390  40.130   1.522   7.278
 3006POPC   NC340391  40.487   5.429   5.403
 3006POPC   PO440392  40.958   4.911   5.270
 3006POPC   GL140393  40.934   5.043   5.714
 3006POPC   GL240394  40.604   4.922   5.850
 3006POPC   C1A40395  40.904   5.218   6.150
 3006POPC   D2A40396  40.899   5.069   6.590
 3006POPC   C3A40397  41.112   5.332   6.896
 3006POPC   C4A40398  40.931   5.471   7.264
 3006POPC   C1B40399  40.380   5.144   6.180
 3006POPC   C2B40400  40.381   5.179   6.618
 3006POPC   C3B40401  40.586   5.228   6.990
 3006POPC   C4B40402  40.902   4.936   7.167
 3007POPC   NC340403  11.545  43.157   5.386
 3007POPC   PO440404  10.916  43.340   5.188
 3007POPC   GL140405  11.117  43.300   5.653
 3007POPC   GL240406  11.288  42.957   5.766
 3007POPC   C1A40407  11.383  43.368   6.071
 3007POPC   D2A40408  11.672  43.260   6.457
 3007POPC   C3A40409  11.501  43.238   6.852
 3007POPC   C4A40410  11.329  43.388   7.213
 3007POPC   C1B40411  11.626  42.897   6.096
 3007POPC   C2B40412  11.555  42.756   6.540
 3007POPC   C3B40413  11.656  42.761   6.976
 3007POPC   C4B40414  11.262  42.888   7.182
 3008POPC   NC340415  16.339  41.697   5.398
 3008POPC   PO440416  15.812  41.324   5.410
 3008POPC   GL140417  15.759  41.567   5.778
 3008POPC   GL240418  15.529  41.293   5.909
 3008POPC   C1A40419  16.072  41.762   6.119
 3008POPC   D2A40420  16.255  41.964   6.518
 3008POPC   C3A40421  16.266  41.770   6.949
 3008POPC   C4A40422  16.434  41.453   7.251
 3008POPC   C1B40423  15.631  41.556   6.265
 3008POPC   C2B40424  15.918  41.539   6.624
 3008POPC   C3B40425  15.944  41.376   7.068
 3008POPC   C4B40426  15.839  41.603   7.448
 3009POPC   NC340427  11.860  32.298   5.205
 3009POPC   PO440428  11.261  32.113   5.389
 3009POPC   GL140429  11.112  32.133   5.798
 3009POPC   GL240430  11.197  32.462   5.946
 3009POPC   C1A40431  11.241  32.024   6.215
 3009POPC   D2A40432  11.181  32.183   6.616
 3009POPC   C3A40433  11.323  32.004   6.973
 3009POPC   C4A40434  11.154  32.024   7.394
 3009POPC   C1B40435  11.465  32.530   6.335
 3009POPC   C2B40436  11.543  32.502   6.801
 3009POPC   C3B40437  11.333  32.470   7.204
 3009POPC   C4B40438  11.193  32.488   7.658
 3010POPC   NC340439   0.805  19.314   5.358
 3010POPC   PO440440   1.437  19.122   5.275
 3010POPC   GL140441   1.255  19.265   5.665
 3010POPC   GL240442   1.064  18.962   5.674
 3010POPC   C1A40443   1.268  19.131   6.129
 3010POPC   D2A40444   1.453  19.286   6.523
 3010POPC   C3A40445   1.534  19.132   6.941
 3010POPC   C4A40446   1.308  19.111   7.324
 3010POPC   C1B40447   0.838  18.848   6.085
 3010POPC   C2B40448   0.806  19.081   6.465
 3010POPC   C3B40449   1.022  19.032   6.839
 3010POPC   C4B40450   0.886  18.835   7.213
 3011POPC   NC340451  21.511  42.146   5.348
 3011POPC   PO440452  21.116  42.709   5.426
 3011POPC   GL140453  21.429  42.511   5.700
 3011POPC   GL240454  21.302  42.591   5.977
 3011POPC   C1A40455  21.662  42.251   6.025
 3011POPC   D2A40456  21.691  42.294   6.469
 3011POPC   C3A40457  21.449  42.065   6.737
 3011POPC   C4A40458  21.172  42.116   7.079
 3011POPC   C1B40459  21.687  42.765   6.218
 3011POPC   C2B40460  21.704  42.765   6.700
 3011POPC   C3B40461  21.455  42.541   7.026
 3011POPC   C4B40462  21.632  42.272   7.376
 3012POPC   NC340463  30.485  19.443   5.423
 3012POPC   PO440464  31.048  19.826   5.378
 3012POPC   GL140465  30.931  19.906   5.799
 3012POPC   GL240466  30.707  20.192   5.746
 3012POPC   C1A40467  30.948  19.709   6.220
 3012POPC   D2A40468  30.695  19.534   6.569
 3012POPC   C3A40469  30.866  19.559   6.975
 3012POPC   C4A40470  30.889  19.589   7.429
 3012POPC   C1B40471  30.583  20.080   6.187
 3012POPC   C2B40472  30.807  20.059   6.564
 3012POPC   C3B40473  30.704  20.055   6.959
 3012POPC   C4B40474  30.504  20.159   7.292
 3013POPC   NC340475  39.302   3.105   5.257
 3013POPC   PO440476  39.072   3.798   5.346
 3013POPC   GL140477  39.162   3.698   5.764
 3013POPC   GL240478  39.489   3.614   5.726
 3013POPC   C1A40479  39.061   3.724   6.209
 3013POPC   D2A40480  39.209   3.866   6.617
 3013POPC   C3A40481  39.171   3.611   7.010
 3013POPC   C4A40482  39.264   3.593   7.463
 3013POPC   C1B40483  39.562   3.719   6.190
 3013POPC   C2B40484  39.585   3.509   6.607
 3013POPC   C3B40485  39.635   3.393   7.045
 3013POPC   C4B40486  39.770   3.576   7.453
 3014POPC   NC340487  28.268  36.027   5.178
 3014POPC   PO440488  28.665  36.488   5.384
 3014POPC   GL140489  28.483  36.196   5.738
 3014POPC   GL240490  28.197  35.998   5.675
 3014POPC   C1A40491  28.667  35.952   6.134
 3014POPC   D2A40492  28.910  36.111   6.516
 3014POPC   C3A40493  28.687  36.316   6.870
 3014POPC   C4A40494  28.410  36.108   7.178
 3014POPC   C1B40495  28.184  35.775   6.043
 3014POPC   C2B40496  28.092  35.741   6.448
 3014POPC   C3B40497  28.109  35.883   6.842
 3014POPC   C4B40498  28.035  35.767   7.258
 3015POPC   NC340499  26.431  39.184   5.458
 3015POPC   PO440500  25.806  39.018   5.342
 3015POPC   GL140501  25.981  39.302   5.672
 3015POPC   GL240502  25.896  39.052   5.862
 3015POPC   C1A40503  26.192  39.490   6.076
 3015POPC   D2A40504  26.365  39.374   6.504
 3015POPC   C3A40505  26.138  39.249   6.891
 3015POPC   C4A40506  26.222  39.485   7.268
 3015POPC   C1B40507  25.990  39.070   6.272
 3015POPC   C2B40508  25.909  38.853   6.589
 3015POPC   C3B40509  25.753  38.882   6.987
 3015POPC   C4B40510  25.765  39.136   7.332
 3016POPC   NC340511   2.668   6.904   5.484
 3016POPC   PO440512   2.411   6.280   5.484
 3016POPC   GL140513   2.618   6.399   5.864
 3016POPC   GL240514   2.777   6.739   5.945
 3016POPC   C1A40515   2.508   6.470   6.285
 3016POPC   D2A40516   2.714   6.743   6.559
 3016POPC   C3A40517   2.530   6.772   6.955
 3016POPC   C4A40518   2.507   6.471   7.286
 3016POPC   C1B40519   3.049   6.459   6.184
 3016POPC   C2B40520   3.073   6.364   6.614
 3016POPC   C3B40521   2.969   6.410   7.048
 3016POPC   C4B40522   3.177   6.732   7.315
 3017POPC   NC340523  20.537  41.922   5.425
 3017POPC   PO440524  20.539  41.263   5.269
 3017POPC   GL140525  20.665  41.466   5.664
 3017POPC   GL240526  20.341  41.391   5.785
 3017POPC   C1A40527  20.786  41.443   6.145
 3017POPC   D2A40528  20.844  41.154   6.528
 3017POPC   C3A40529  20.817  41.394   6.912
 3017POPC   C4A40530  20.840  41.743   7.216
 3017POPC   C1B40531  20.339  41.732   6.114
 3017POPC   C2B40532  20.278  41.957   6.505
 3017POPC   C3B40533  20.403  41.704   6.840
 3017POPC   C4B40534  20.341  41.714   7.252
 3018POPC   NC340535  28.870  41.308   5.419
 3018POPC   PO440536  29.277  41.875   5.331
 3018POPC   GL140537  29.241  41.584   5.667
 3018POPC   GL240538  29.526  41.652   5.804
 3018POPC   C1A40539  29.150  41.466   6.103
 3018POPC   D2A40540  29.261  41.548   6.531
 3018POPC   C3A40541  29.112  41.633   6.960
 3018POPC   C4A40542  29.098  41.355   7.253
 3018POPC   C1B40543  29.577  41.858   6.206
 3018POPC   C2B40544  29.468  41.991   6.629
 3018POPC   C3B40545  29.413  42.057   7.055
 3018POPC   C4B40546  29.256  41.865   7.444
 3019POPC   NC340547  29.413   2.058   5.625
 3019POPC   PO440548  28.953   1.750   5.310
 3019POPC   GL140549  28.968   1.850   5.792
 3019POPC   GL240550  28.996   2.208   5.916
 3019POPC   C1A40551  29.214   1.857   6.236
 3019POPC   D2A40552  29.401   1.755   6.661
 3019POPC   C3A40553  29.182   2.000   6.970
 3019POPC   C4A40554  28.853   1.892   7.230
 3019POPC   C1B40555  29.340   2.369   6.211
 3019POPC   C2B40556  29.300   2.399   6.651
 3019POPC   C3B40557  29.410   2.483   7.065
 3019POPC   C4B40558  29.389   2.202   7.433
 3020POPC   NC340559  41.301  23.128   5.377
 3020POPC   PO440560  41.720  22.628   5.229
 3020POPC   GL140561  41.679  22.764   5.704
 3020POPC   GL240562  41.370  22.917   5.825
 3020POPC   C1A40563  41.734  22.914   6.184
 3020POPC   D2A40564  41.919  22.914   6.614
 3020POPC   C3A40565  41.732  23.085   6.994
 3020POPC   C4A40566  41.642  22.901   7.382
 3020POPC   C1B40567  41.222  22.773   6.231
 3020POPC   C2B40568  41.376  22.946   6.628
 3020POPC   C3B40569  41.273  22.856   7.036
 3020POPC   C4B40570  41.163  22.996   7.429
 3021POPC   NC340571  42.946  18.815   5.373
 3021POPC   PO440572  43.228  19.418   5.427
 3021POPC   GL140573  43.087  19.166   5.738
 3021POPC   GL240574  43.370  18.947   5.704
 3021POPC   C1A40575  42.999  18.939   6.113
 3021POPC   D2A40576  43.177  18.972   6.530
 3021POPC   C3A40577  42.976  18.894   6.924
 3021POPC   C4A40578  43.018  19.109   7.291
 3021POPC   C1B40579  43.509  18.759   6.111
 3021POPC   C2B40580  43.624  18.732   6.571
 3021POPC   C3B40581  43.497  18.907   6.978
 3021POPC   C4B40582  43.300  18.707   7.320
 3022POPC   NC340583  40.539  14.215   5.437
 3022POPC   PO440584  40.972  14.657   5.401
 3022POPC   GL140585  40.763  14.517   5.810
 3022POPC   GL240586  40.396  14.560   5.825
 3022POPC   C1A40587  40.785  14.485   6.287
 3022POPC   D2A40588  41.046  14.619   6.668
 3022POPC   C3A40589  40.922  14.547   7.127
 3022POPC   C4A40590  41.064  14.485   7.570
 3022POPC   C1B40591  40.438  14.145   6.066
 3022POPC   C2B40592  40.644  13.978   6.385
 3022POPC   C3B40593  40.623  13.999   6.804
 3022POPC   C4B40594  40.466  14.268   7.094
 3023POPC   NC340595  15.083  14.929   5.355
 3023POPC   PO440596  15.352  15.530   5.287
 3023POPC   GL140597  15.329  15.323   5.716
 3023POPC   GL240598  15.223  14.987   5.836
 3023POPC   C1A40599  15.215  15.395   6.160
 3023POPC   D2A40600  15.431  15.430   6.556
 3023POPC   C3A40601  15.217  15.446   6.941
 3023POPC   C4A40602  15.059  15.393   7.367
 3023POPC   C1B40603  15.250  14.905   6.258
 3023POPC   C2B40604  15.213  14.999   6.693
 3023POPC   C3B40605  15.355  14.958   7.094
 3023POPC   C4B40606  15.456  15.095   7.515
 3024POPC   NC340607  19.819  21.421   5.337
 3024POPC   PO440608  20.078  20.763   5.292
 3024POPC   GL140609  20.068  21.105   5.661
 3024POPC   GL240610  19.729  21.330   5.808
 3024POPC   C1A40611  20.130  21.278   6.105
 3024POPC   D2A40612  19.901  21.417   6.510
 3024POPC   C3A40613  20.041  21.277   6.943
 3024POPC   C4A40614  19.880  21.540   7.289
 3024POPC   C1B40615  19.534  21.595   6.166
 3024POPC   C2B40616  19.416  21.529   6.637
 3024POPC   C3B40617  19.547  21.268   7.024
 3024POPC   C4B40618  19.609  21.133   7.463
 3025POPC   NC340619  44.349  43.648   5.453
 3025POPC   PO440620  44.757  44.169   5.425
 3025POPC   GL140621  44.651  43.928   5.787
 3025POPC   GL240622  44.305  44.020   5.821
 3025POPC   C1A40623  44.619  43.652   6.165
 3025POPC   D2A40624  44.434  43.710   6.593
 3025POPC   C3A40625  44.653  43.776   6.953
 3025POPC   C4A40626  44.829  43.905   7.334
 3025POPC   C1B40627  44.394  44.118   6.271
 3025POPC   C2B40628  44.351  44.352   6.672
 3025POPC   C3B40629  44.588  44.284   7.081
 3025POPC   C4B40630  44.379  44.079   7.465
 3026POPC   NC340631  35.324  13.983   5.109
 3026POPC   PO440632  35.069  13.550   5.545
 3026POPC   GL140633  35.415  13.470   5.799
 3026POPC   GL240634  35.205  13.649   6.032
 3026POPC   C1A40635  35.606  13.419   6.219
 3026POPC   D2A40636  35.367  13.580   6.566
 3026POPC   C3A40637  35.422  13.440   6.968
 3026POPC   C4A40638  35.361  13.518   7.413
 3026POPC   C1B40639  34.968  13.830   6.332
 3026POPC   C2B40640  34.990  13.934   6.722
 3026POPC   C3B40641  35.165  13.874   7.102
 3026POPC   C4B40642  35.016  13.878   7.495
 3027POPC   NC340643   2.535  44.710   5.475
 3027POPC   PO440644   3.134  44.282   5.429
 3027POPC   GL140645   3.011  44.590   5.781
 3027POPC   GL240646   2.952  44.965   5.715
 3027POPC   C1A40647   2.895  44.475   6.218
 3027POPC   D2A40648   3.111  44.351   6.622
 3027POPC   C3A40649   2.918  44.510   7.012
 3027POPC   C4A40650   2.477  44.569   7.151
 3027POPC   C1B40651   2.834   0.003   6.162
 3027POPC   C2B40652   2.790  44.826   6.586
 3027POPC   C3B40653   2.759   0.011   6.988
 3027POPC   C4B40654   2.748  44.915   7.404
 3028POPC   NC340655  12.766  28.142   5.365
 3028POPC   PO440656  13.445  28.214   5.251
 3028POPC   GL140657  13.142  28.148   5.711
 3028POPC   GL240658  12.806  28.375   5.796
 3028POPC   C1A40659  13.063  28.253   6.191
 3028POPC   D2A40660  13.246  28.557   6.480
 3028POPC   C3A40661  12.988  28.645   6.854
 3028POPC   C4A40662  13.000  28.469   7.263
 3028POPC   C1B40663  12.541  28.180   6.147
 3028POPC   C2B40664  12.526  28.268   6.622
 3028POPC   C3B40665  12.595  28.181   7.082
 3028POPC   C4B40666  12.492  28.190   7.560
 3029POPC   NC340667  29.073  19.224   5.382
 3029POPC   PO440668  29.564  18.711   5.413
 3029POPC   GL140669  29.151  18.809   5.674
 3029POPC   GL240670  29.143  19.128   5.896
 3029POPC   C1A40671  28.947  18.723   6.107
 3029POPC   D2A40672  29.189  18.938   6.423
 3029POPC   C3A40673  29.290  18.826   6.844
 3029POPC   C4A40674  28.940  18.940   7.121
 3029POPC   C1B40675  29.473  19.311   6.200
 3029POPC   C2B40676  29.395  19.455   6.640
 3029POPC   C3B40677  29.251  19.363   7.083
 3029POPC   C4B40678  29.388  19.426   7.530
 3030POPC   NC340679  43.451  20.948   5.125
 3030POPC   PO440680  43.259  20.345   5.387
 3030POPC   GL140681  43.017  20.452   5.780
 3030POPC   GL240682  43.349  20.408   5.974
 3030POPC   C1A40683  42.927  20.578   6.218
 3030POPC   D2A40684  43.070  20.361   6.601
 3030POPC   C3A40685  42.825  20.336   6.955
 3030POPC   C4A40686  42.967  20.682   7.214
 3030POPC   C1B40687  43.545  20.315   6.380
 3030POPC   C2B40688  43.524  20.505   6.809
 3030POPC   C3B40689  43.473  20.691   7.218
 3030POPC   C4B40690  43.304  20.460   7.613
 3031POPC   NC340691  43.152  31.361   5.366
 3031POPC   PO440692  42.552  31.693   5.270
 3031POPC   GL140693  42.815  31.628   5.640
 3031POPC   GL240694  43.068  31.845   5.658
 3031POPC   C1A40695  43.091  31.515   6.036
 3031POPC   D2A40696  42.964  31.361   6.442
 3031POPC   C3A40697  43.187  31.265   6.819
 3031POPC   C4A40698  42.985  31.285   7.202
 3031POPC   C1B40699  42.747  31.893   6.066
 3031POPC   C2B40700  42.588  31.736   6.496
 3031POPC   C3B40701  42.836  31.682   6.895
 3031POPC   C4B40702  43.226  31.734   7.175
 3032POPC   NC340703  36.667  22.373   5.406
 3032POPC   PO440704  37.054  21.732   5.347
 3032POPC   GL140705  36.996  22.043   5.720
 3032POPC   GL240706  37.001  22.393   5.853
 3032POPC   C1A40707  36.995  21.975   6.174
 3032POPC   D2A40708  37.034  21.762   6.577
 3032POPC   C3A40709  36.857  22.035   6.891
 3032POPC   C4A40710  37.004  22.114   7.299
 3032POPC   C1B40711  37.278  22.400   6.270
 3032POPC   C2B40712  37.442  22.563   6.687
 3032POPC   C3B40713  37.265  22.495   7.110
 3032POPC   C4B40714  37.296  22.432   7.595
 3033POPC   NC340715  13.784  43.580   5.446
 3033POPC   PO440716  13.325  44.079   5.409
 3033POPC   GL140717  13.517  43.976   5.775
 3033POPC   GL240718  13.407  43.620   5.848
 3033POPC   C1A40719  13.394  44.131   6.176
 3033POPC   D2A40720  13.663  44.172   6.518
 3033POPC   C3A40721  13.721  43.867   6.852
 3033POPC   C4A40722  13.687  44.069   7.255
 3033POPC   C1B40723  13.581  43.663   6.280
 3033POPC   C2B40724  13.891  43.455   6.540
 3033POPC   C3B40725  13.986  43.343   6.953
 3033POPC   C4B40726  13.820  43.581   7.277
 3034POPC   NC340727  30.716  27.325   5.473
 3034POPC   PO440728  30.335  27.898   5.336
 3034POPC   GL140729  30.411  27.657   5.731
 3034POPC   GL240730  30.771  27.670   5.836
 3034POPC   C1A40731  30.439  27.408   6.145
 3034POPC   D2A40732  30.701  27.299   6.522
 3034POPC   C3A40733  30.560  27.396   6.966
 3034POPC   C4A40734  30.479  27.654   7.333
 3034POPC   C1B40735  31.060  27.409   6.088
 3034POPC   C2B40736  31.198  27.498   6.480
 3034POPC   C3B40737  30.941  27.708   6.775
 3034POPC   C4B40738  31.003  27.687   7.197
 3035POPC   NC340739  14.646  20.553   5.468
 3035POPC   PO440740  14.162  20.868   5.183
 3035POPC   GL140741  14.204  20.775   5.671
 3035POPC   GL240742  14.279  20.402   5.789
 3035POPC   C1A40743  14.427  20.791   6.080
 3035POPC   D2A40744  14.539  20.443   6.362
 3035POPC   C3A40745  14.528  20.491   6.805
 3035POPC   C4A40746  14.678  20.361   7.214
 3035POPC   C1B40747  14.016  20.502   6.141
 3035POPC   C2B40748  14.117  20.716   6.515
 3035POPC   C3B40749  14.019  20.571   6.898
 3035POPC   C4B40750  14.216  20.538   7.240
 3036POPC   NC340751  38.372  24.935   5.346
 3036POPC   PO440752  38.686  25.526   5.310
 3036POPC   GL140753  38.618  25.326   5.717
 3036POPC   GL240754  38.422  25.613   5.823
 3036POPC   C1A40755  38.475  25.121   6.120
 3036POPC   D2A40756  38.308  24.936   6.527
 3036POPC   C3A40757  38.460  25.106   6.943
 3036POPC   C4A40758  38.367  25.221   7.362
 3036POPC   C1B40759  38.613  25.614   6.230
 3036POPC   C2B40760  38.518  25.525   6.654
 3036POPC   C3B40761  38.386  25.641   7.095
 3036POPC   C4B40762  38.518  25.650   7.581
 3037POPC   NC340763  14.547  41.973   5.611
 3037POPC   PO440764  14.030  41.617   5.557
 3037POPC   GL140765  14.317  41.572   5.875
 3037POPC   GL240766  14.658  41.471   5.772
 3037POPC   C1A40767  14.355  41.719   6.305
 3037POPC   D2A40768  14.614  41.725   6.705
 3037POPC   C3A40769  14.364  41.706   7.103
 3037POPC   C4A40770  14.176  41.473   7.431
 3037POPC   C1B40771  14.663  41.342   6.188
 3037POPC   C2B40772  14.415  41.274   6.568
 3037POPC   C3B40773  14.412  41.167   6.997
 3037POPC   C4B40774  14.675  41.254   7.328
 3038POPC   NC340775  30.947  33.452   5.639
 3038POPC   PO440776  30.475  33.886   5.284
 3038POPC   GL140777  30.562  33.880   5.732
 3038POPC   GL240778  30.919  33.943   5.797
 3038POPC   C1A40779  30.557  34.101   6.147
 3038POPC   D2A40780  30.826  34.150   6.487
 3038POPC   C3A40781  30.644  34.160   6.871
 3038POPC   C4A40782  30.648  33.944   7.241
 3038POPC   C1B40783  30.869  33.686   6.224
 3038POPC   C2B40784  30.912  33.462   6.626
 3038POPC   C3B40785  30.717  33.460   7.055
 3038POPC   C4B40786  30.894  33.544   7.489
 3039POPC   NC340787  41.905  39.692   4.962
 3039POPC   PO440788  41.434  40.088   5.328
 3039POPC   GL140789  41.518  40.099   5.771
 3039POPC   GL240790  41.217  40.109   5.960
 3039POPC   C1A40791  41.731  40.130   6.174
 3039POPC   D2A40792  41.575  40.187   6.602
 3039POPC   C3A40793  41.762  40.002   6.994
 3039POPC   C4A40794  42.113  39.920   7.317
 3039POPC   C1B40795  41.321  39.849   6.317
 3039POPC   C2B40796  41.188  39.859   6.760
 3039POPC   C3B40797  41.183  39.850   7.214
 3039POPC   C4B40798  41.194  39.909   7.675
 3040POPC   NC340799  34.644  28.134   5.495
 3040POPC   PO440800  34.306  28.795   5.385
 3040POPC   GL140801  34.376  28.505   5.719
 3040POPC   GL240802  34.714  28.619   5.754
 3040POPC   C1A40803  34.383  28.245   6.134
 3040POPC   D2A40804  34.301  28.103   6.568
 3040POPC   C3A40805  34.655  28.121   6.815
 3040POPC   C4A40806  34.668  28.191   7.242
 3040POPC   C1B40807  34.566  28.715   6.146
 3040POPC   C2B40808  34.613  28.548   6.536
 3040POPC   C3B40809  34.436  28.582   6.945
 3040POPC   C4B40810  34.654  28.691   7.301
 3041POPC   NC340811  41.638   2.497   5.520
 3041POPC   PO440812  41.675   1.857   5.452
 3041POPC   GL140813  41.702   2.057   5.826
 3041POPC   GL240814  41.980   2.279   5.837
 3041POPC   C1A40815  41.572   1.937   6.215
 3041POPC   D2A40816  41.481   2.177   6.514
 3041POPC   C3A40817  41.595   2.102   6.884
 3041POPC   C4A40818  41.357   2.071   7.216
 3041POPC   C1B40819  42.044   2.080   6.229
 3041POPC   C2B40820  42.060   1.961   6.641
 3041POPC   C3B40821  42.097   2.224   6.976
 3041POPC   C4B40822  41.885   2.108   7.322
 3042POPC   NC340823  43.983  42.772   5.425
 3042POPC   PO440824  44.039  42.158   5.174
 3042POPC   GL140825  43.935  42.311   5.643
 3042POPC   GL240826  44.037  42.002   5.747
 3042POPC   C1A40827  43.975  42.651   6.050
 3042POPC   D2A40828  43.916  42.807   6.484
 3042POPC   C3A40829  44.023  42.521   6.853
 3042POPC   C4A40830  43.813  42.482   7.249
 3042POPC   C1B40831  43.989  42.152   6.164
 3042POPC   C2B40832  44.203  42.099   6.548
 3042POPC   C3B40833  44.090  41.880   6.900
 3042POPC   C4B40834  43.809  41.973   7.213
 3043POPC   NC340835  30.315  41.108   5.313
 3043POPC   PO440836  29.849  40.621   5.375
 3043POPC   GL140837  30.083  40.567   5.753
 3043POPC   GL240838  30.150  40.891   5.755
 3043POPC   C1A40839  30.007  40.355   6.135
 3043POPC   D2A40840  29.756  40.466   6.510
 3043POPC   C3A40841  29.973  40.666   6.859
 3043POPC   C4A40842  29.847  40.656   7.255
 3043POPC   C1B40843  29.803  40.827   6.081
 3043POPC   C2B40844  29.555  40.924   6.442
 3043POPC   C3B40845  29.731  41.107   6.778
 3043POPC   C4B40846  29.929  41.167   7.187
 3044POPC   NC340847   1.781   7.330   5.503
 3044POPC   PO440848   2.235   6.937   5.326
 3044POPC   GL140849   2.236   7.235   5.767
 3044POPC   GL240850   2.281   7.608   5.782
 3044POPC   C1A40851   1.945   7.346   6.180
 3044POPC   D2A40852   1.624   7.407   6.565
 3044POPC   C3A40853   1.839   7.435   6.973
 3044POPC   C4A40854   1.804   7.233   7.401
 3044POPC   C1B40855   2.382   7.618   6.234
 3044POPC   C2B40856   2.323   7.366   6.616
 3044POPC   C3B40857   2.325   7.309   7.073
 3044POPC   C4B40858   2.157   7.591   7.398
 3045POPC   NC340859  10.963  38.771   5.085
 3045POPC   PO440860  11.425  39.164   5.394
 3045POPC   GL140861  11.458  39.166   5.834
 3045POPC   GL240862  11.770  39.340   5.825
 3045POPC   C1A40863  11.178  39.159   6.230
 3045POPC   D2A40864  11.042  39.250   6.681
 3045POPC   C3A40865  11.231  39.077   7.047
 3045POPC   C4A40866  11.162  39.215   7.480
 3045POPC   C1B40867  11.655  39.328   6.264
 3045POPC   C2B40868  11.551  39.228   6.644
 3045POPC   C3B40869  11.754  39.364   6.980
 3045POPC   C4B40870  11.651  39.180   7.335
 3046POPC   NC340871   0.964  17.788   5.494
 3046POPC   PO440872   1.461  17.415   5.563
 3046POPC   GL140873   1.068  17.319   5.807
 3046POPC   GL240874   1.188  17.037   5.992
 3046POPC   C1A40875   0.947  17.440   6.268
 3046POPC   D2A40876   1.207  17.446   6.686
 3046POPC   C3A40877   1.025  17.543   7.094
 3046POPC   C4A40878   1.028  17.574   7.582
 3046POPC   C1B40879   1.442  17.366   6.198
 3046POPC   C2B40880   1.517  17.751   6.416
 3046POPC   C3B40881   1.644  17.740   6.845
 3046POPC   C4B40882   1.478  17.731   7.242
 3047POPC   NC340883  20.938   8.807   5.542
 3047POPC   PO440884  20.554   9.304   5.334
 3047POPC   GL140885  20.614   9.152   5.751
 3047POPC   GL240886  20.836   9.384   5.862
 3047POPC   C1A40887  20.554   8.941   6.187
 3047POPC   D2A40888  20.731   8.839   6.623
 3047POPC   C3A40889  20.587   8.942   7.068
 3047POPC   C4A40890  20.474   9.070   7.487
 3047POPC   C1B40891  20.865   9.324   6.324
 3047POPC   C2B40892  20.812   9.318   6.790
 3047POPC   C3B40893  20.853   9.337   7.251
 3047POPC   C4B40894  21.007   9.329   7.688
 3048POPC   NC340895  30.454  34.361   5.261
 3048POPC   PO440896  30.998  34.736   5.350
 3048POPC   GL140897  30.788  34.730   5.753
 3048POPC   GL240898  30.639  34.416   5.764
 3048POPC   C1A40899  30.846  34.601   6.212
 3048POPC   D2A40900  30.701  34.651   6.618
 3048POPC   C3A40901  30.881  34.581   7.033
 3048POPC   C4A40902  30.882  34.709   7.457
 3048POPC   C1B40903  30.354  34.646   6.101
 3048POPC   C2B40904  30.204  34.722   6.526
 3048POPC   C3B40905  30.329  34.561   6.937
 3048POPC   C4B40906  30.436  34.464   7.335
 3049POPC   NC340907  30.350  28.439   5.394
 3049POPC   PO440908  29.640  28.523   5.452
 3049POPC   GL140909  29.784  28.371   5.795
 3049POPC   GL240910  30.030  28.089   5.735
 3049POPC   C1A40911  29.785  28.595   6.207
 3049POPC   D2A40912  29.651  28.398   6.564
 3049POPC   C3A40913  29.833  28.504   6.919
 3049POPC   C4A40914  29.707  28.413   7.317
 3049POPC   C1B40915  30.208  28.358   6.050
 3049POPC   C2B40916  30.234  28.408   6.484
 3049POPC   C3B40917  30.358  28.432   6.898
 3049POPC   C4B40918  30.192  28.547   7.281
 3050POPC   NC340919  34.446  31.755   5.290
 3050POPC   PO440920  34.181  32.273   5.277
 3050POPC   GL140921  34.515  32.261   5.597
 3050POPC   GL240922  34.654  31.943   5.713
 3050POPC   C1A40923  34.404  32.293   6.045
 3050POPC   D2A40924  34.192  32.471   6.412
 3050POPC   C3A40925  34.307  32.423   6.828
 3050POPC   C4A40926  34.377  32.324   7.230
 3050POPC   C1B40927  34.657  31.868   6.149
 3050POPC   C2B40928  34.583  32.118   6.508
 3050POPC   C3B40929  34.740  32.148   6.911
 3050POPC   C4B40930  34.698  31.947   7.295
 3051POPC   NC340931  38.688  36.278   5.396
 3051POPC   PO440932  38.294  35.790   5.400
 3051POPC   GL140933  38.459  36.013   5.772
 3051POPC   GL240934  38.427  36.421   5.835
 3051POPC   C1A40935  38.420  36.071   6.208
 3051POPC   D2A40936  38.581  36.313   6.566
 3051POPC   C3A40937  38.505  36.128   6.951
 3051POPC   C4A40938  38.353  35.760   7.140
 3051POPC   C1B40939  38.147  36.488   6.234
 3051POPC   C2B40940  38.079  36.295   6.678
 3051POPC   C3B40941  38.095  36.329   7.164
 3051POPC   C4B40942  38.131  36.570   7.564
 3052POPC   NC340943  44.454  12.365   5.628
 3052POPC   PO440944  44.819  12.750   5.197
 3052POPC   GL140945  44.930  12.844   5.683
 3052POPC   GL240946  44.631  12.795   5.907
 3052POPC   C1A40947   0.020  12.962   6.175
 3052POPC   D2A40948  44.791  12.893   6.580
 3052POPC   C3A40949  44.824  13.154   6.957
 3052POPC   C4A40950  44.623  12.945   7.355
 3052POPC   C1B40951  44.492  12.547   6.280
 3052POPC   C2B40952  44.556  12.434   6.720
 3052POPC   C3B40953  44.421  12.550   7.137
 3052POPC   C4B40954  44.227  12.660   7.574
 3053POPC   NC340955  12.243  33.995   5.303
 3053POPC   PO440956  12.028  33.395   5.519
 3053POPC   GL140957  12.091  33.776   5.731
 3053POPC   GL240958  11.774  33.930   5.735
 3053POPC   C1A40959  12.110  33.968   6.123
 3053POPC   D2A40960  12.200  33.719   6.471
 3053POPC   C3A40961  12.370  33.908   6.812
 3053POPC   C4A40962  12.239  33.888   7.213
 3053POPC   C1B40963  11.763  33.587   6.092
 3053POPC   C2B40964  11.671  33.590   6.527
 3053POPC   C3B40965  11.830  33.817   6.867
 3053POPC   C4B40966  11.850  33.592   7.228
 3054POPC   NC340967  36.396  14.909   5.465
 3054POPC   PO440968  35.857  15.306   5.434
 3054POPC   GL140969  36.078  15.221   5.767
 3054POPC   GL240970  35.947  14.908   5.746
 3054POPC   C1A40971  36.186  15.435   6.140
 3054POPC   D2A40972  36.260  15.243   6.500
 3054POPC   C3A40973  36.463  15.417   6.841
 3054POPC   C4A40974  36.413  15.383   7.292
 3054POPC   C1B40975  36.039  14.870   6.168
 3054POPC   C2B40976  36.092  14.761   6.594
 3054POPC   C3B40977  36.155  15.023   6.973
 3054POPC   C4B40978  35.927  15.242   7.329
 3055POPC   NC340979  28.477  16.228   5.420
 3055POPC   PO440980  27.904  15.770   5.384
 3055POPC   GL140981  28.073  15.677   5.799
 3055POPC   GL240982  28.444  15.757   5.838
 3055POPC   C1A40983  28.131  15.846   6.233
 3055POPC   D2A40984  28.241  16.062   6.589
 3055POPC   C3A40985  28.181  15.840   6.978
 3055POPC   C4A40986  28.374  15.842   7.388
 3055POPC   C1B40987  28.626  16.035   6.182
 3055POPC   C2B40988  28.746  16.285   6.552
 3055POPC   C3B40989  28.583  16.204   6.959
 3055POPC   C4B40990  28.704  16.284   7.346
 3056POPC   NC340991  42.651  30.534   5.114
 3056POPC   PO440992  42.148  30.855   5.556
 3056POPC   GL140993  42.153  30.955   5.945
 3056POPC   GL240994  42.485  30.914   5.955
 3056POPC   C1A40995  42.197  30.779   6.368
 3056POPC   D2A40996  41.970  30.484   6.646
 3056POPC   C3A40997  42.107  30.500   7.047
 3056POPC   C4A40998  42.318  30.830   7.242
 3056POPC   C1B40999  42.811  30.912   6.224
 3056POPC   C2B41000  42.841  30.903   6.640
 3056POPC   C3B41001  42.607  30.658   6.867
 3056POPC   C4B41002  42.843  30.768   7.215
 3057POPC   NC341003  31.995  44.787   5.371
 3057POPC   PO441004  31.361  44.793   5.332
 3057POPC   GL141005  31.598  44.974   5.676
 3057POPC   GL241006  31.612  44.637   5.806
 3057POPC   C1A41007  31.799   0.114   6.071
 3057POPC   D2A41008  31.890   0.003   6.509
 3057POPC   C3A41009  31.701  44.829   6.860
 3057POPC   C4A41010  31.441  44.818   7.213
 3057POPC   C1B41011  31.587  44.677   6.245
 3057POPC   C2B41012  31.673  44.411   6.574
 3057POPC   C3B41013  31.488  44.339   6.969
 3057POPC   C4B41014  31.180  44.123   7.181
 3058POPC   NC341015  16.592  26.484   5.410
 3058POPC   PO441016  16.482  25.790   5.367
 3058POPC   GL141017  16.578  25.917   5.794
 3058POPC   GL241018  16.820  25.697   5.912
 3058POPC   C1A41019  16.571  26.106   6.219
 3058POPC   D2A41020  16.642  26.056   6.679
 3058POPC   C3A41021  16.889  26.253   7.031
 3058POPC   C4A41022  16.699  26.220   7.435
 3058POPC   C1B41023  16.975  25.788   6.318
 3058POPC   C2B41024  16.941  25.640   6.712
 3058POPC   C3B41025  16.768  25.764   7.120
 3058POPC   C4B41026  17.063  25.867   7.449
 3059POPC   NC341027  26.047  15.377   5.366
 3059POPC   PO441028  26.011  14.727   5.458
 3059POPC   GL141029  26.079  14.988   5.815
 3059POPC   GL241030  25.977  15.349   5.864
 3059POPC   C1A41031  26.328  15.046   6.188
 3059POPC   D2A41032  26.352  15.285   6.582
 3059POPC   C3A41033  26.262  15.047   6.978
 3059POPC   C4A41034  26.187  15.064   7.438
 3059POPC   C1B41035  25.805  15.236   6.264
 3059POPC   C2B41036  25.831  15.273   6.719
 3059POPC   C3B41037  25.813  15.337   7.161
 3059POPC   C4B41038  25.813  15.365   7.617
 3060POPC   NC341039  38.033  43.354   5.509
 3060POPC   PO441040  37.393  43.306   5.399
 3060POPC   GL141041  37.601  43.216   5.775
 3060POPC   GL241042  37.770  42.878   5.770
 3060POPC   C1A41043  37.587  43.386   6.195
 3060POPC   D2A41044  37.564  43.536   6.615
 3060POPC   C3A41045  37.823  43.271   6.819
 3060POPC   C4A41046  37.678  43.019   7.108
 3060POPC   C1B41047  37.434  42.890   6.127
 3060POPC   C2B41048  37.429  43.034   6.565
 3060POPC   C3B41049  37.241  42.844   6.933
 3060POPC   C4B41050  37.394  42.690   7.385
 3061POPC   NC341051   8.053   7.074   5.376
 3061POPC   PO441052   8.481   6.603   5.263
 3061POPC   GL141053   8.179   6.654   5.641
 3061POPC   GL241054   8.183   6.365   5.852
 3061POPC   C1A41055   8.216   6.801   6.116
 3061POPC   D2A41056   8.107   6.753   6.584
 3061POPC   C3A41057   8.125   6.991   6.997
 3061POPC   C4A41058   8.120   6.854   7.402
 3061POPC   C1B41059   8.241   6.298   6.329
 3061POPC   C2B41060   8.462   6.265   6.745
 3061POPC   C3B41061   8.322   6.421   7.175
 3061POPC   C4B41062   8.133   6.399   7.625
 3062POPC   NC341063  22.001  38.988   5.434
 3062POPC   PO441064  22.243  39.648   5.396
 3062POPC   GL141065  22.078  39.395   5.719
 3062POPC   GL241066  22.395  39.206   5.769
 3062POPC   C1A41067  21.938  39.222   6.103
 3062POPC   D2A41068  22.139  39.316   6.497
 3062POPC   C3A41069  21.998  39.209   6.912
 3062POPC   C4A41070  21.781  39.264   7.312
 3062POPC   C1B41071  22.569  39.158   6.211
 3062POPC   C2B41072  22.538  39.055   6.680
 3062POPC   C3B41073  22.489  39.194   7.136
 3062POPC   C4B41074  22.561  39.008   7.616
 3063POPC   NC341075  22.690  39.488   5.432
 3063POPC   PO441076  23.194  39.035   5.311
 3063POPC   GL141077  22.905  39.052   5.672
 3063POPC   GL241078  22.909  39.358   5.867
 3063POPC   C1A41079  22.986  38.873   6.089
 3063POPC   D2A41080  23.103  39.015   6.507
 3063POPC   C3A41081  22.958  38.850   6.892
 3063POPC   C4A41082  22.943  39.044   7.287
 3063POPC   C1B41083  23.183  39.434   6.194
 3063POPC   C2B41084  23.233  39.508   6.601
 3063POPC   C3B41085  22.959  39.376   6.895
 3063POPC   C4B41086  22.779  39.601   7.221
 3064POPC   NC341087   3.806  32.761   5.511
 3064POPC   PO441088   3.589  33.407   5.594
 3064POPC   GL141089   3.536  33.284   5.989
 3064POPC   GL241090   3.432  32.923   5.925
 3064POPC   C1A41091   3.704  33.089   6.360
 3064POPC   D2A41092   3.578  32.752   6.637
 3064POPC   C3A41093   3.661  32.908   7.060
 3064POPC   C4A41094   3.479  33.197   7.377
 3064POPC   C1B41095   3.183  33.090   6.303
 3064POPC   C2B41096   3.258  33.149   6.748
 3064POPC   C3B41097   3.164  32.848   7.080
 3064POPC   C4B41098   3.140  32.725   7.494
 3065POPC   NC341099  42.259   0.131   5.511
 3065POPC   PO441100  42.654   0.630   5.402
 3065POPC   GL141101  42.509   0.537   5.779
 3065POPC   GL241102  42.666   0.211   5.797
 3065POPC   C1A41103  42.464   0.437   6.220
 3065POPC   D2A41104  42.513   0.608   6.636
 3065POPC   C3A41105  42.187   0.385   6.842
 3065POPC   C4A41106  42.052   0.352   7.262
 3065POPC   C1B41107  42.673  44.958   6.169
 3065POPC   C2B41108  42.723   0.126   6.577
 3065POPC   C3B41109  42.669   0.103   6.994
 3065POPC   C4B41110  42.548   0.461   7.189
 3066POPC   NC341111  29.373   3.517   5.225
 3066POPC   PO441112  28.835   3.283   5.253
 3066POPC   GL141113  29.043   3.319   5.680
 3066POPC   GL241114  29.422   3.388   5.744
 3066POPC   C1A41115  29.066   3.547   6.098
 3066POPC   D2A41116  29.199   3.435   6.519
 3066POPC   C3A41117  28.960   3.610   6.884
 3066POPC   C4A41118  29.135   3.852   7.243
 3066POPC   C1B41119  29.608   3.535   6.143
 3066POPC   C2B41120  29.572   3.797   6.511
 3066POPC   C3B41121  29.475   3.643   6.912
 3066POPC   C4B41122  29.442   3.422   7.299
 3067POPC   NC341123  31.987  22.328   5.533
 3067POPC   PO441124  32.454  21.875   5.540
 3067POPC   GL141125  32.273  21.979   5.967
 3067POPC   GL241126  31.913  21.880   5.974
 3067POPC   C1A41127  32.156  22.261   6.345
 3067POPC   D2A41128  32.147  22.451   6.788
 3067POPC   C3A41129  32.445  22.294   7.097
 3067POPC   C4A41130  32.548  22.420   7.567
 3067POPC   C1B41131  32.014  21.753   6.391
 3067POPC   C2B41132  32.278  21.907   6.729
 3067POPC   C3B41133  32.119  21.896   7.145
 3067POPC   C4B41134  32.047  21.707   7.581
 3068POPC   NC341135  25.800  25.936   5.563
 3068POPC   PO441136  25.281  26.180   5.110
 3068POPC   GL141137  25.336  26.182   5.607
 3068POPC   GL241138  25.165  26.420   5.789
 3068POPC   C1A41139  25.252  25.973   6.064
 3068POPC   D2A41140  25.149  25.837   6.521
 3068POPC   C3A41141  25.463  25.762   6.873
 3068POPC   C4A41142  25.478  25.902   7.314
 3068POPC   C1B41143  25.141  26.512   6.222
 3068POPC   C2B41144  25.019  26.424   6.622
 3068POPC   C3B41145  25.183  26.200   6.945
 3068POPC   C4B41146  25.027  26.109   7.319
 3069POPC   NC341147   4.796  33.381   5.393
 3069POPC   PO441148   4.243  32.983   5.461
 3069POPC   GL141149   4.300  33.248   5.786
 3069POPC   GL241150   4.012  33.086   5.935
 3069POPC   C1A41151   4.522  33.215   6.155
 3069POPC   D2A41152   4.439  32.899   6.467
 3069POPC   C3A41153   4.329  33.042   6.863
 3069POPC   C4A41154   4.597  33.335   7.126
 3069POPC   C1B41155   4.080  32.693   6.167
 3069POPC   C2B41156   4.065  32.555   6.613
 3069POPC   C3B41157   4.105  32.642   7.067
 3069POPC   C4B41158   4.008  32.804   7.450
 3070POPC   NC341159  39.187  26.789   5.160
 3070POPC   PO441160  39.813  26.711   5.374
 3070POPC   GL141161  39.452  26.814   5.697
 3070POPC   GL241162  39.089  26.728   5.667
 3070POPC   C1A41163  39.402  26.748   6.188
 3070POPC   D2A41164  39.325  26.650   6.648
 3070POPC   C3A41165  39.558  26.745   7.022
 3070POPC   C4A41166  39.364  27.060   7.280
 3070POPC   C1B41167  38.929  26.888   6.077
 3070POPC   C2B41168  39.063  27.062   6.486
 3070POPC   C3B41169  38.976  26.997   6.909
 3070POPC   C4B41170  39.045  26.649   7.186
 3071POPC   NC341171  13.857  40.595   5.321
 3071POPC   PO441172  13.375  40.994   5.609
 3071POPC   GL141173  13.812  40.880   5.744
 3071POPC   GL241174  14.106  41.112   5.700
 3071POPC   C1A41175  13.755  40.852   6.158
 3071POPC   D2A41176  13.422  40.855   6.458
 3071POPC   C3A41177  13.556  40.772   6.868
 3071POPC   C4A41178  13.489  40.983   7.218
 3071POPC   C1B41179  14.170  41.139   6.145
 3071POPC   C2B41180  14.013  40.968   6.573
 3071POPC   C3B41181  13.903  41.158   6.967
 3071POPC   C4B41182  13.958  41.026   7.389
 3072POPC   NC341183  10.135   6.961   5.553
 3072POPC   PO441184   9.903   6.345   5.793
 3072POPC   GL141185   9.782   6.753   5.866
 3072POPC   GL241186   9.445   6.773   5.774
 3072POPC   C1A41187   9.780   6.976   6.266
 3072POPC   D2A41188  10.075   6.823   6.583
 3072POPC   C3A41189   9.920   6.643   6.959
 3072POPC   C4A41190  10.061   6.948   7.244
 3072POPC   C1B41191   9.452   6.555   6.194
 3072POPC   C2B41192   9.560   6.604   6.596
 3072POPC   C3B41193   9.418   6.299   6.891
 3072POPC   C4B41194   9.537   6.478   7.250
 3073POPC   NC341195   0.298   9.360   5.392
 3073POPC   PO441196   0.666   9.852   5.207
 3073POPC   GL141197   0.601   9.691   5.702
 3073POPC   GL241198   0.306   9.502   5.872
 3073POPC   C1A41199   0.701   9.489   6.161
 3073POPC   D2A41200   0.431   9.489   6.567
 3073POPC   C3A41201   0.465   9.673   6.983
 3073POPC   C4A41202   0.735   9.479   7.287
 3073POPC   C1B41203   0.193   9.765   6.210
 3073POPC   C2B41204   0.017   9.993   6.558
 3073POPC   C3B41205   0.048  10.011   6.987
 3073POPC   C4B41206   0.172   9.841   7.374
 3074POPC   NC341207  15.471  11.483   5.472
 3074POPC   PO441208  14.787  11.513   5.469
 3074POPC   GL141209  14.963  11.223   5.776
 3074POPC   GL241210  14.772  11.413   5.988
 3074POPC   C1A41211  15.306  11.268   6.102
 3074POPC   D2A41212  15.470  11.582   6.409
 3074POPC   C3A41213  15.641  11.398   6.800
 3074POPC   C4A41214  15.611  11.592   7.199
 3074POPC   C1B41215  14.849  11.134   6.298
 3074POPC   C2B41216  15.150  11.208   6.620
 3074POPC   C3B41217  15.164  11.377   7.033
 3074POPC   C4B41218  14.902  11.242   7.347
 3075POPC   NC341219  18.885   3.284   5.047
 3075POPC   PO441220  19.198   2.752   5.372
 3075POPC   GL141221  19.113   2.677   5.782
 3075POPC   GL241222  19.459   2.808   5.800
 3075POPC   C1A41223  19.058   2.720   6.237
 3075POPC   D2A41224  19.103   3.036   6.563
 3075POPC   C3A41225  18.881   2.872   6.918
 3075POPC   C4A41226  19.003   2.493   7.110
 3075POPC   C1B41227  19.435   3.033   6.139
 3075POPC   C2B41228  19.532   2.749   6.507
 3075POPC   C3B41229  19.390   2.742   6.884
 3075POPC   C4B41230  19.411   2.997   7.212
 3076POPC   NC341231  14.715  12.008   5.399
 3076POPC   PO441232  15.425  12.014   5.350
 3076POPC   GL141233  15.174  12.063   5.710
 3076POPC   GL241234  14.979  12.320   5.875
 3076POPC   C1A41235  15.323  12.019   6.132
 3076POPC   D2A41236  15.168  12.052   6.524
 3076POPC   C3A41237  15.388  11.877   6.849
 3076POPC   C4A41238  15.282  11.988   7.279
 3076POPC   C1B41239  14.832  11.908   6.081
 3076POPC   C2B41240  14.840  11.635   6.451
 3076POPC   C3B41241  14.884  11.766   6.874
 3076POPC   C4B41242  14.812  11.754   7.311
 3077POPC   NC341243  25.643  14.408   5.436
 3077POPC   PO441244  25.070  14.801   5.581
 3077POPC   GL141245  25.246  14.582   5.936
 3077POPC   GL241246  25.566  14.406   5.928
 3077POPC   C1A41247  25.062  14.582   6.359
 3077POPC   D2A41248  24.866  14.627   6.764
 3077POPC   C3A41249  25.033  14.476   7.196
 3077POPC   C4A41250  25.042  14.174   7.573
 3077POPC   C1B41251  25.589  14.609   6.317
 3077POPC   C2B41252  25.595  14.522   6.738
 3077POPC   C3B41253  25.557  14.577   7.158
 3077POPC   C4B41254  25.474  14.422   7.571
 3078POPC   NC341255  14.388   9.370   5.410
 3078POPC   PO441256  14.993   9.204   5.465
 3078POPC   GL141257  14.667   9.179   5.839
 3078POPC   GL241258  14.262   9.210   5.884
 3078POPC   C1A41259  14.540   9.088   6.286
 3078POPC   D2A41260  14.246   9.268   6.575
 3078POPC   C3A41261  14.330   9.149   6.981
 3078POPC   C4A41262  14.545   9.399   7.267
 3078POPC   C1B41263  13.978   9.000   6.239
 3078POPC   C2B41264  13.948   8.871   6.713
 3078POPC   C3B41265  13.898   8.956   7.191
 3078POPC   C4B41266  13.888   8.919   7.668
 3079POPC   NC341267  10.285  32.703   5.283
 3079POPC   PO441268  10.843  32.993   5.163
 3079POPC   GL141269  10.557  32.882   5.669
 3079POPC   GL241270  10.814  32.853   5.987
 3079POPC   C1A41271  10.310  32.849   6.115
 3079POPC   D2A41272  10.075  33.139   6.455
 3079POPC   C3A41273  10.224  33.230   6.904
 3079POPC   C4A41274  10.265  33.021   7.287
 3079POPC   C1B41275  10.699  33.162   6.290
 3079POPC   C2B41276  10.545  32.956   6.625
 3079POPC   C3B41277  10.682  32.919   7.023
 3079POPC   C4B41278  10.878  32.835   7.422
 3080POPC   NC341279  29.730  38.757   5.537
 3080POPC   PO441280  30.239  38.211   5.629
 3080POPC   GL141281  29.987  38.486   5.880
 3080POPC   GL241282  30.128  38.828   5.894
 3080POPC   C1A41283  29.768  38.612   6.264
 3080POPC   D2A41284  29.887  38.691   6.690
 3080POPC   C3A41285  29.642  38.757   7.069
 3080POPC   C4A41286  29.743  38.630   7.510
 3080POPC   C1B41287  30.294  38.640   6.297
 3080POPC   C2B41288  30.176  38.283   6.562
 3080POPC   C3B41289  30.145  38.155   6.998
 3080POPC   C4B41290  30.136  38.281   7.489
 3081POPC   NC341291  39.478  23.711   5.232
 3081POPC   PO441292  38.747  23.569   5.288
 3081POPC   GL141293  39.053  23.752   5.655
 3081POPC   GL241294  39.441  23.704   5.739
 3081POPC   C1A41295  39.104  23.748   6.143
 3081POPC   D2A41296  39.053  23.684   6.620
 3081POPC   C3A41297  39.242  23.965   6.937
 3081POPC   C4A41298  39.168  23.980   7.388
 3081POPC   C1B41299  39.617  23.598   6.137
 3081POPC   C2B41300  39.555  23.727   6.555
 3081POPC   C3B41301  39.526  23.540   6.933
 3081POPC   C4B41302  39.256  23.471   7.258
 3082POPC   NC341303  33.711   9.911   5.035
 3082POPC   PO441304  34.129   9.694   5.524
 3082POPC   GL141305  33.878   9.960   5.757
 3082POPC   GL241306  34.109   9.960   6.030
 3082POPC   C1A41307  33.597  10.037   6.122
 3082POPC   D2A41308  33.387   9.821   6.490
 3082POPC   C3A41309  33.612   9.711   6.867
 3082POPC   C4A41310  33.526   9.844   7.285
 3082POPC   C1B41311  33.881   9.661   6.332
 3082POPC   C2B41312  33.595   9.320   6.497
 3082POPC   C3B41313  33.497   9.203   6.913
 3082POPC   C4B41314  33.707   9.354   7.279
 3083POPC   NC341315  19.240   7.148   5.262
 3083POPC   PO441316  18.994   7.730   5.411
 3083POPC   GL141317  18.940   7.330   5.651
 3083POPC   GL241318  19.286   7.324   5.763
 3083POPC   C1A41319  18.923   7.098   6.067
 3083POPC   D2A41320  18.867   7.168   6.540
 3083POPC   C3A41321  18.732   7.592   6.743
 3083POPC   C4A41322  18.736   7.673   7.190
 3083POPC   C1B41323  19.155   7.569   6.130
 3083POPC   C2B41324  19.209   7.557   6.576
 3083POPC   C3B41325  19.085   7.333   7.006
 3083POPC   C4B41326  19.102   7.240   7.486
 3084POPC   NC341327  26.121  21.928   5.543
 3084POPC   PO441328  26.085  21.148   5.434
 3084POPC   GL141329  25.918  21.454   5.719
 3084POPC   GL241330  25.698  21.225   5.886
 3084POPC   C1A41331  25.977  21.594   6.154
 3084POPC   D2A41332  26.077  21.419   6.586
 3084POPC   C3A41333  26.095  21.614   6.992
 3084POPC   C4A41334  25.743  21.452   7.183
 3084POPC   C1B41335  25.798  21.097   6.286
 3084POPC   C2B41336  25.604  21.153   6.686
 3084POPC   C3B41337  25.740  20.962   7.064
 3084POPC   C4B41338  26.148  21.060   7.157
 3085POPC   NC341339  18.844  32.986   5.245
 3085POPC   PO441340  18.255  32.803   5.438
 3085POPC   GL141341  18.162  32.999   5.829
 3085POPC   GL241342  18.470  33.089   5.860
 3085POPC   C1A41343  18.114  33.247   6.215
 3085POPC   D2A41344  18.263  33.375   6.629
 3085POPC   C3A41345  18.284  33.047   6.918
 3085POPC   C4A41346  18.383  33.042   7.358
 3085POPC   C1B41347  18.512  32.916   6.282
 3085POPC   C2B41348  18.763  32.959   6.661
 3085POPC   C3B41349  18.639  32.699   7.011
 3085POPC   C4B41350  18.206  32.552   7.111
 3086POPC   NC341351  24.030  42.441   5.269
 3086POPC   PO441352  23.479  42.667   5.465
 3086POPC   GL141353  23.537  42.391   5.853
 3086POPC   GL241354  23.699  42.056   5.796
 3086POPC   C1A41355  23.520  42.468   6.311
 3086POPC   D2A41356  23.466  42.553   6.751
 3086POPC   C3A41357  23.631  42.303   7.099
 3086POPC   C4A41358  23.648  42.249   7.603
 3086POPC   C1B41359  23.929  42.151   6.188
 3086POPC   C2B41360  23.926  42.320   6.621
 3086POPC   C3B41361  24.119  42.406   7.020
 3086POPC   C4B41362  24.065  42.130   7.356
 3087POPC   NC341363  34.138   8.838   5.317
 3087POPC   PO441364  33.532   9.082   5.411
 3087POPC   GL141365  33.850   8.946   5.748
 3087POPC   GL241366  34.163   9.173   5.709
 3087POPC   C1A41367  33.900   8.832   6.210
 3087POPC   D2A41368  33.676   8.805   6.621
 3087POPC   C3A41369  33.833   8.785   7.032
 3087POPC   C4A41370  33.790   8.860   7.495
 3087POPC   C1B41371  34.318   9.131   6.102
 3087POPC   C2B41372  34.120   9.213   6.477
 3087POPC   C3B41373  33.999   9.319   6.859
 3087POPC   C4B41374  34.145   9.118   7.219
 3088POPC   NC341375  23.897   5.313   5.533
 3088POPC   PO441376  23.544   4.695   5.439
 3088POPC   GL141377  23.593   4.976   5.793
 3088POPC   GL241378  23.909   4.928   5.905
 3088POPC   C1A41379  23.444   4.954   6.225
 3088POPC   D2A41380  23.700   5.025   6.621
 3088POPC   C3A41381  23.448   5.144   7.011
 3088POPC   C4A41382  23.152   4.926   7.287
 3088POPC   C1B41383  23.792   5.330   6.175
 3088POPC   C2B41384  24.050   5.510   6.506
 3088POPC   C3B41385  24.082   5.289   6.879
 3088POPC   C4B41386  23.918   5.116   7.258
 3089POPC   NC341387  26.688  36.233   5.391
 3089POPC   PO441388  27.286  35.909   5.600
 3089POPC   GL141389  27.025  36.226   5.838
 3089POPC   GL241390  26.668  36.407   5.861
 3089POPC   C1A41391  26.824  36.082   6.240
 3089POPC   D2A41392  26.668  35.703   6.465
 3089POPC   C3A41393  26.732  35.740   6.905
 3089POPC   C4A41394  26.513  35.971   7.202
 3089POPC   C1B41395  26.493  36.490   6.271
 3089POPC   C2B41396  26.727  36.522   6.649
 3089POPC   C3B41397  26.879  36.294   7.011
 3089POPC   C4B41398  27.283  36.399   7.222
 3090POPC   NC341399  12.251  41.496   5.304
 3090POPC   PO441400  12.956  41.437   5.241
 3090POPC   GL141401  13.005  41.366   5.765
 3090POPC   GL241402  12.891  41.640   5.999
 3090POPC   C1A41403  13.107  41.208   6.196
 3090POPC   D2A41404  13.127  41.266   6.629
 3090POPC   C3A41405  12.716  41.281   6.839
 3090POPC   C4A41406  12.588  41.087   7.203
 3090POPC   C1B41407  12.738  41.559   6.406
 3090POPC   C2B41408  12.649  41.787   6.791
 3090POPC   C3B41409  12.820  41.741   7.176
 3090POPC   C4B41410  12.724  41.936   7.542
 3091POPC   NC341411  19.958  42.730   5.691
 3091POPC   PO441412  19.601  43.232   5.331
 3091POPC   GL141413  19.749  43.193   5.788
 3091POPC   GL241414  19.527  43.290   6.000
 3091POPC   C1A41415  19.935  43.127   6.252
 3091POPC   D2A41416  19.843  43.254   6.673
 3091POPC   C3A41417  19.996  42.957   7.014
 3091POPC   C4A41418  20.127  42.947   7.432
 3091POPC   C1B41419  19.448  42.990   6.368
 3091POPC   C2B41420  19.441  42.927   6.829
 3091POPC   C3B41421  19.578  43.223   7.118
 3091POPC   C4B41422  19.853  43.407   7.383
 3092POPC   NC341423  17.170  31.026   5.422
 3092POPC   PO441424  17.869  30.824   5.414
 3092POPC   GL141425  17.513  30.763   5.740
 3092POPC   GL241426  17.356  30.459   5.743
 3092POPC   C1A41427  17.260  30.827   6.139
 3092POPC   D2A41428  17.240  30.613   6.559
 3092POPC   C3A41429  17.398  30.821   6.934
 3092POPC   C4A41430  17.305  31.084   7.261
 3092POPC   C1B41431  17.569  30.430   6.146
 3092POPC   C2B41432  17.748  30.461   6.564
 3092POPC   C3B41433  17.559  30.350   6.953
 3092POPC   C4B41434  17.538  30.229   7.382
 3093POPC   NC341435   0.860  15.686   5.415
 3093POPC   PO441436   1.243  16.186   5.261
 3093POPC   GL141437   1.052  16.111   5.670
 3093POPC   GL241438   1.225  15.839   5.789
 3093POPC   C1A41439   1.119  16.214   6.110
 3093POPC   D2A41440   1.241  16.190   6.524
 3093POPC   C3A41441   1.043  16.372   6.864
 3093POPC   C4A41442   1.119  16.103   7.214
 3093POPC   C1B41443   1.213  15.738   6.243
 3093POPC   C2B41444   1.347  15.708   6.684
 3093POPC   C3B41445   1.336  15.633   7.143
 3093POPC   C4B41446   1.328  15.285   7.438
 3094POPC   NC341447   8.808   3.864   5.169
 3094POPC   PO441448   9.333   3.874   5.374
 3094POPC   GL141449   9.374   3.718   5.825
 3094POPC   GL241450   9.253   3.395   5.835
 3094POPC   C1A41451   9.170   3.746   6.245
 3094POPC   D2A41452   8.981   3.565   6.623
 3094POPC   C3A41453   8.939   3.814   7.006
 3094POPC   C4A41454   9.046   3.715   7.421
 3094POPC   C1B41455   9.199   3.196   6.254
 3094POPC   C2B41456   9.181   3.099   6.698
 3094POPC   C3B41457   9.169   3.319   7.101
 3094POPC   C4B41458   9.221   3.149   7.499
 3095POPC   NC341459   8.692  27.794   5.407
 3095POPC   PO441460   9.329  27.501   5.304
 3095POPC   GL141461   9.132  27.567   5.691
 3095POPC   GL241462   9.161  27.920   5.695
 3095POPC   C1A41463   8.986  27.315   6.082
 3095POPC   D2A41464   9.027  27.191   6.527
 3095POPC   C3A41465   9.021  27.432   6.913
 3095POPC   C4A41466   8.738  27.731   7.143
 3095POPC   C1B41467   9.014  27.812   6.130
 3095POPC   C2B41468   9.008  27.943   6.560
 3095POPC   C3B41469   9.160  27.909   6.923
 3095POPC   C4B41470   9.252  27.789   7.303
 3096POPC   NC341471  16.685  22.208   5.565
 3096POPC   PO441472  16.261  21.615   5.467
 3096POPC   GL141473  16.489  21.834   5.822
 3096POPC   GL241474  16.846  21.901   5.939
 3096POPC   C1A41475  16.465  22.077   6.216
 3096POPC   D2A41476  16.489  22.393   6.565
 3096POPC   C3A41477  16.639  22.175   6.929
 3096POPC   C4A41478  16.513  21.995   7.323
 3096POPC   C1B41479  16.870  22.376   6.165
 3096POPC   C2B41480  16.955  22.602   6.569
 3096POPC   C3B41481  17.080  22.478   6.964
 3096POPC   C4B41482  16.968  22.237   7.316
 3097POPC   NC341483  11.586  38.020   5.304
 3097POPC   PO441484  11.127  37.555   5.410
 3097POPC   GL141485  11.316  37.805   5.711
 3097POPC   GL241486  11.007  37.814   5.879
 3097POPC   C1A41487  11.383  38.017   6.130
 3097POPC   D2A41488  11.312  37.904   6.539
 3097POPC   C3A41489  11.681  37.928   6.797
 3097POPC   C4A41490  11.740  38.061   7.184
 3097POPC   C1B41491  11.249  37.522   6.149
 3097POPC   C2B41492  11.163  37.411   6.575
 3097POPC   C3B41493  11.306  37.610   6.968
 3097POPC   C4B41494  11.024  37.727   7.289
 3098POPC   NC341495  39.697   4.957   5.011
 3098POPC   PO441496  40.239   5.049   5.515
 3098POPC   GL141497  39.934   5.019   5.804
 3098POPC   GL241498  39.900   4.655   5.819
 3098POPC   C1A41499  39.886   4.989   6.241
 3098POPC   D2A41500  39.888   5.229   6.589
 3098POPC   C3A41501  39.936   5.015   6.952
 3098POPC   C4A41502  39.796   5.167   7.312
 3098POPC   C1B41503  40.236   4.635   6.165
 3098POPC   C2B41504  40.142   4.693   6.607
 3098POPC   C3B41505  40.403   4.760   6.962
 3098POPC   C4B41506  40.267   4.952   7.366
 3099POPC   NC341507  22.959   3.332   5.424
 3099POPC   PO441508  22.802   4.024   5.421
 3099POPC   GL141509  22.699   3.920   5.846
 3099POPC   GL241510  22.771   3.550   5.870
 3099POPC   C1A41511  23.000   3.893   6.204
 3099POPC   D2A41512  23.056   3.625   6.554
 3099POPC   C3A41513  22.931   3.805   6.936
 3099POPC   C4A41514  23.216   3.954   7.227
 3099POPC   C1B41515  22.773   3.224   6.200
 3099POPC   C2B41516  23.045   3.096   6.545
 3099POPC   C3B41517  23.088   3.253   6.956
 3099POPC   C4B41518  22.775   3.371   7.259
 3100POPC   NC341519  44.101  26.695   5.532
 3100POPC   PO441520  44.757  26.908   5.447
 3100POPC   GL141521  44.823  27.026   5.866
 3100POPC   GL241522  44.490  27.008   5.949
 3100POPC   C1A41523  44.851  26.813   6.240
 3100POPC   D2A41524  44.560  26.900   6.520
 3100POPC   C3A41525  44.685  26.718   6.837
 3100POPC   C4A41526  44.780  26.783   7.222
 3100POPC   C1B41527  44.309  27.273   6.266
 3100POPC   C2B41528  44.185  27.254   6.684
 3100POPC   C3B41529  44.370  27.064   7.025
 3100POPC   C4B41530  44.295  26.666   7.194
 3101POPC   NC341531  43.577  30.815   5.365
 3101POPC   PO441532  44.221  30.587   5.392
 3101POPC   GL141533  43.986  30.777   5.705
 3101POPC   GL241534  43.827  30.448   5.744
 3101POPC   C1A41535  43.767  30.847   6.082
 3101POPC   D2A41536  43.799  30.735   6.504
 3101POPC   C3A41537  43.973  30.632   6.890
 3101POPC   C4A41538  43.826  30.728   7.257
 3101POPC   C1B41539  43.630  30.267   6.108
 3101POPC   C2B41540  43.768  30.233   6.529
 3101POPC   C3B41541  43.584  30.285   6.937
 3101POPC   C4B41542  43.737  30.240   7.375
 3102POPC   NC341543  44.776  21.976   5.415
 3102POPC   PO441544  44.348  22.526   5.521
 3102POPC   GL141545  44.605  22.507   5.900
 3102POPC   GL241546  44.922  22.309   5.805
 3102POPC   C1A41547  44.731  22.648   6.342
 3102POPC   D2A41548   0.106  22.523   6.577
 3102POPC   C3A41549  44.995  22.273   6.919
 3102POPC   C4A41550  44.845  22.394   7.373
 3102POPC   C1B41551  44.825  22.170   6.215
 3102POPC   C2B41552  44.727  21.779   6.419
 3102POPC   C3B41553  44.858  21.759   6.819
 3102POPC   C4B41554  44.775  21.930   7.196
 3103POPC   NC341555  19.593   8.592   5.312
 3103POPC   PO441556  19.953   7.992   5.311
 3103POPC   GL141557  20.051   8.140   5.714
 3103POPC   GL241558  19.708   8.130   5.810
 3103POPC   C1A41559  20.042   8.387   6.107
 3103POPC   D2A41560  19.809   8.401   6.509
 3103POPC   C3A41561  20.018   8.192   6.877
 3103POPC   C4A41562  20.063   8.312   7.315
 3103POPC   C1B41563  19.825   7.914   6.202
 3103POPC   C2B41564  19.612   7.910   6.602
 3103POPC   C3B41565  19.505   8.238   6.898
 3103POPC   C4B41566  19.597   8.090   7.295
 3104POPC   NC341567   8.699   5.184   5.426
 3104POPC   PO441568   9.217   4.865   5.434
 3104POPC   GL141569   9.280   5.091   5.833
 3104POPC   GL241570   9.074   5.356   5.822
 3104POPC   C1A41571   9.191   5.163   6.298
 3104POPC   D2A41572   9.177   5.210   6.755
 3104POPC   C3A41573   8.885   4.938   7.053
 3104POPC   C4A41574   8.965   4.673   7.419
 3104POPC   C1B41575   8.938   5.617   6.177
 3104POPC   C2B41576   8.857   5.617   6.630
 3104POPC   C3B41577   8.830   5.446   7.052
 3104POPC   C4B41578   8.759   5.277   7.471
 3105POPC   NC341579  35.933  24.664   5.400
 3105POPC   PO441580  36.205  24.131   5.198
 3105POPC   GL141581  36.110  24.308   5.706
 3105POPC   GL241582  36.062  24.661   5.896
 3105POPC   C1A41583  36.283  24.315   6.173
 3105POPC   D2A41584  36.233  24.649   6.517
 3105POPC   C3A41585  36.338  24.548   6.962
 3105POPC   C4A41586  36.329  24.302   7.341
 3105POPC   C1B41587  35.809  24.409   6.260
 3105POPC   C2B41588  35.923  24.285   6.714
 3105POPC   C3B41589  35.832  24.425   7.130
 3105POPC   C4B41590  35.992  24.743   7.411
 3106POPC   NC341591  42.591   6.713   5.362
 3106POPC   PO441592  43.085   7.328   5.371
 3106POPC   GL141593  43.172   7.394   5.813
 3106POPC   GL241594  42.836   7.478   5.810
 3106POPC   C1A41595  43.426   7.546   6.218
 3106POPC   D2A41596  43.381   7.736   6.656
 3106POPC   C3A41597  43.543   7.483   7.027
 3106POPC   C4A41598  43.391   7.230   7.429
 3106POPC   C1B41599  42.932   7.668   6.200
 3106POPC   C2B41600  42.840   7.601   6.594
 3106POPC   C3B41601  42.908   7.763   6.979
 3106POPC   C4B41602  43.147   7.663   7.312
 3107POPC   NC341603  15.717  26.968   5.430
 3107POPC   PO441604  16.159  26.527   5.537
 3107POPC   GL141605  15.940  26.765   5.857
 3107POPC   GL241606  15.580  26.797   5.884
 3107POPC   C1A41607  15.926  26.834   6.289
 3107POPC   D2A41608  15.923  26.631   6.684
 3107POPC   C3A41609  16.200  26.892   6.976
 3107POPC   C4A41610  16.170  26.965   7.424
 3107POPC   C1B41611  15.456  27.066   6.230
 3107POPC   C2B41612  15.656  27.090   6.635
 3107POPC   C3B41613  15.668  26.931   7.046
 3107POPC   C4B41614  15.410  26.559   7.192
 3108POPC   NC341615  20.940  34.266   5.452
 3108POPC   PO441616  20.312  34.446   5.414
 3108POPC   GL141617  20.541  34.468   5.799
 3108POPC   GL241618  20.396  34.800   5.926
 3108POPC   C1A41619  20.411  34.393   6.229
 3108POPC   D2A41620  20.389  34.702   6.551
 3108POPC   C3A41621  20.491  34.496   6.904
 3108POPC   C4A41622  20.836  34.259   6.972
 3108POPC   C1B41623  20.765  34.776   6.198
 3108POPC   C2B41624  20.933  34.676   6.602
 3108POPC   C3B41625  20.904  34.810   6.992
 3108POPC   C4B41626  20.508  34.937   7.169
 3109POPC   NC341627  37.109  25.799   5.470
 3109POPC   PO441628  37.651  25.956   5.163
 3109POPC   GL141629  37.613  26.036   5.604
 3109POPC   GL241630  37.341  26.287   5.604
 3109POPC   C1A41631  37.807  25.903   6.025
 3109POPC   D2A41632  37.727  26.037   6.453
 3109POPC   C3A41633  37.868  25.834   6.845
 3109POPC   C4A41634  37.630  25.960   7.207
 3109POPC   C1B41635  37.487  26.311   6.043
 3109POPC   C2B41636  37.469  26.478   6.476
 3109POPC   C3B41637  37.640  26.393   6.870
 3109POPC   C4B41638  37.454  26.480   7.248
 3110POPC   NC341639  13.866  42.045   5.505
 3110POPC   PO441640  14.477  42.353   5.357
 3110POPC   GL141641  14.164  42.370   5.756
 3110POPC   GL241642  14.275  42.593   6.028
 3110POPC   C1A41643  14.105  42.172   6.211
 3110POPC   D2A41644  14.508  42.173   6.476
 3110POPC   C3A41645  14.537  42.188   6.952
 3110POPC   C4A41646  14.713  42.157   7.392
 3110POPC   C1B41647  14.475  42.686   6.392
 3110POPC   C2B41648  14.194  42.538   6.667
 3110POPC   C3B41649  13.996  42.339   6.973
 3110POPC   C4B41650  14.226  42.370   7.326
 3111POPC   NC341651  28.677  30.782   5.662
 3111POPC   PO441652  28.168  30.994   5.246
 3111POPC   GL141653  28.106  30.690   5.673
 3111POPC   GL241654  27.918  30.393   5.633
 3111POPC   C1A41655  28.307  30.628   6.148
 3111POPC   D2A41656  28.368  30.840   6.549
 3111POPC   C3A41657  28.458  30.578   6.888
 3111POPC   C4A41658  28.598  30.602   7.320
 3111POPC   C1B41659  28.024  30.225   6.072
 3111POPC   C2B41660  28.070  30.409   6.540
 3111POPC   C3B41661  28.070  30.254   6.988
 3111POPC   C4B41662  28.200  30.267   7.451
 3112POPC   NC341663  36.086  36.937   5.362
 3112POPC   PO441664  36.652  36.778   5.456
 3112POPC   GL141665  36.459  37.018   5.800
 3112POPC   GL241666  36.122  37.224   5.794
 3112POPC   C1A41667  36.465  36.823   6.210
 3112POPC   D2A41668  36.462  36.635   6.616
 3112POPC   C3A41669  36.309  36.835   6.965
 3112POPC   C4A41670  36.429  36.704   7.358
 3112POPC   C1B41671  35.992  36.842   6.027
 3112POPC   C2B41672  35.986  36.721   6.463
 3112POPC   C3B41673  35.780  36.675   6.872
 3112POPC   C4B41674  35.803  36.930   7.239
 3113POPC   NC341675  39.408  11.455   5.364
 3113POPC   PO441676  39.199  10.843   5.534
 3113POPC   GL141677  39.352  11.144   5.779
 3113POPC   GL241678  39.134  11.386   5.818
 3113POPC   C1A41679  39.477  11.319   6.175
 3113POPC   D2A41680  39.663  11.400   6.550
 3113POPC   C3A41681  39.470  11.179   6.872
 3113POPC   C4A41682  39.349  11.242   7.298
 3113POPC   C1B41683  39.024  11.576   6.198
 3113POPC   C2B41684  39.156  11.527   6.600
 3113POPC   C3B41685  38.990  11.401   6.970
 3113POPC   C4B41686  39.016  11.626   7.364
 3114POPC   NC341687  10.514  27.550   5.420
 3114POPC   PO441688  10.635  28.208   5.398
 3114POPC   GL141689  10.499  27.968   5.751
 3114POPC   GL241690  10.194  27.820   5.783
 3114POPC   C1A41691  10.611  27.636   6.092
 3114POPC   D2A41692  10.509  27.480   6.521
 3114POPC   C3A41693  10.847  27.471   6.832
 3114POPC   C4A41694  10.907  27.614   7.255
 3114POPC   C1B41695  10.111  27.717   6.189
 3114POPC   C2B41696   9.906  27.819   6.536
 3114POPC   C3B41697  10.118  27.847   6.925
 3114POPC   C4B41698  10.426  27.553   7.125
 3115POPC   NC341699  40.783  44.964   5.106
 3115POPC   PO441700  40.999  44.370   5.300
 3115POPC   GL141701  40.873  44.445   5.710
 3115POPC   GL241702  40.758  44.786   5.690
 3115POPC   C1A41703  40.648  44.426   6.117
 3115POPC   D2A41704  40.538  44.624   6.537
 3115POPC   C3A41705  40.684  44.345   6.878
 3115POPC   C4A41706  40.850  44.373   7.295
 3115POPC   C1B41707  40.759  44.922   6.140
 3115POPC   C2B41708  40.945  44.969   6.569
 3115POPC   C3B41709  40.891  44.889   7.014
 3115POPC   C4B41710  40.515  44.735   7.169
 3116POPC   NC341711  44.863  16.844   5.264
 3116POPC   PO441712  44.304  16.503   5.412
 3116POPC   GL141713  44.549  16.543   5.800
 3116POPC   GL241714  44.778  16.839   5.822
 3116POPC   C1A41715  44.559  16.667   6.237
 3116POPC   D2A41716  44.704  16.843   6.595
 3116POPC   C3A41717  44.876  16.591   6.940
 3116POPC   C4A41718  44.865  16.732   7.358
 3116POPC   C1B41719   0.056  17.037   6.140
 3116POPC   C2B41720   0.048  17.202   6.560
 3116POPC   C3B41721   0.135  17.011   6.914
 3116POPC   C4B41722   0.274  17.052   7.317
 3117POPC   NC341723   0.139  17.433   5.231
 3117POPC   PO441724  44.415  17.394   5.247
 3117POPC   GL141725  44.435  17.365   5.773
 3117POPC   GL241726  44.674  17.591   5.895
 3117POPC   C1A41727  44.586  17.220   6.215
 3117POPC   D2A41728  44.616  17.522   6.564
 3117POPC   C3A41729  44.621  17.259   6.885
 3117POPC   C4A41730  44.803  17.217   7.248
 3117POPC   C1B41731  44.973  17.585   6.211
 3117POPC   C2B41732   0.108  17.710   6.634
 3117POPC   C3B41733  44.897  17.680   7.038
 3117POPC   C4B41734  44.494  17.638   7.218
 3118POPC   NC341735  31.366  10.790   5.169
 3118POPC   PO441736  31.072  10.320   5.628
 3118POPC   GL141737  31.453  10.196   5.823
 3118POPC   GL241738  31.308   9.935   5.980
 3118POPC   C1A41739  31.593  10.388   6.210
 3118POPC   D2A41740  31.479  10.757   6.457
 3118POPC   C3A41741  31.614  10.774   6.884
 3118POPC   C4A41742  31.733  10.625   7.289
 3118POPC   C1B41743  31.389   9.943   6.397
 3118POPC   C2B41744  31.400  10.295   6.675
 3118POPC   C3B41745  31.303  10.402   7.072
 3118POPC   C4B41746  31.400  10.186   7.410
 3119POPC   NC341747   0.968  44.146   5.362
 3119POPC   PO441748   1.510  43.812   5.421
 3119POPC   GL141749   1.297  43.851   5.830
 3119POPC   GL241750   0.977  44.104   5.871
 3119POPC   C1A41751   1.354  43.592   6.223
 3119POPC   D2A41752   1.503  43.410   6.639
 3119POPC   C3A41753   1.408  43.758   6.900
 3119POPC   C4A41754   1.232  43.743   7.313
 3119POPC   C1B41755   1.202  44.122   6.258
 3119POPC   C2B41756   1.316  44.222   6.675
 3119POPC   C3B41757   1.290  44.215   7.132
 3119POPC   C4B41758   1.365  44.199   7.591
 3120POPC   NC341759  25.625   4.465   5.516
 3120POPC   PO441760  26.219   4.135   5.336
 3120POPC   GL141761  26.020   4.152   5.718
 3120POPC   GL241762  26.069   4.503   5.778
 3120POPC   C1A41763  25.842   4.209   6.128
 3120POPC   D2A41764  26.070   4.218   6.485
 3120POPC   C3A41765  25.970   4.384   6.851
 3120POPC   C4A41766  25.946   4.418   7.275
 3120POPC   C1B41767  26.075   4.673   6.181
 3120POPC   C2B41768  26.300   4.679   6.558
 3120POPC   C3B41769  26.433   4.642   6.974
 3120POPC   C4B41770  26.320   4.756   7.401
 3121POPC   NC341771  21.485   5.647   5.500
 3121POPC   PO441772  21.452   6.326   5.428
 3121POPC   GL141773  21.462   6.078   5.772
 3121POPC   GL241774  21.176   5.990   5.817
 3121POPC   C1A41775  21.556   5.832   6.177
 3121POPC   D2A41776  21.621   5.559   6.546
 3121POPC   C3A41777  21.571   5.725   6.980
 3121POPC   C4A41778  21.417   5.955   7.371
 3121POPC   C1B41779  21.036   5.848   6.205
 3121POPC   C2B41780  21.125   5.710   6.622
 3121POPC   C3B41781  21.086   5.925   6.998
 3121POPC   C4B41782  20.854   5.855   7.380
 3122POPC   NC341783  28.781  43.804   5.364
 3122POPC   PO441784  28.783  44.379   5.617
 3122POPC   GL141785  28.690  43.965   5.849
 3122POPC   GL241786  28.362  43.740   5.797
 3122POPC   C1A41787  28.568  43.796   6.266
 3122POPC   D2A41788  28.377  43.904   6.666
 3122POPC   C3A41789  28.641  43.969   7.039
 3122POPC   C4A41790  28.493  44.161   7.416
 3122POPC   C1B41791  28.063  43.611   6.191
 3122POPC   C2B41792  28.002  43.543   6.678
 3122POPC   C3B41793  28.221  43.673   7.104
 3122POPC   C4B41794  28.621  43.528   7.306
 3123POPC   NC341795  41.709  40.477   5.439
 3123POPC   PO441796  41.508  41.090   5.371
 3123POPC   GL141797  41.581  40.886   5.776
 3123POPC   GL241798  41.370  40.589   5.795
 3123POPC   C1A41799  41.724  40.960   6.209
 3123POPC   D2A41800  41.912  40.926   6.636
 3123POPC   C3A41801  41.630  41.015   6.981
 3123POPC   C4A41802  41.715  41.060   7.399
 3123POPC   C1B41803  41.422  40.530   6.213
 3123POPC   C2B41804  41.471  40.696   6.603
 3123POPC   C3B41805  41.615  40.513   6.977
 3123POPC   C4B41806  41.466  40.251   7.342
 3124POPC   NC341807   8.599  37.225   5.404
 3124POPC   PO441808   9.313  37.596   5.386
 3124POPC   GL141809   9.079  37.775   5.714
 3124POPC   GL241810   8.793  37.584   5.733
 3124POPC   C1A41811   9.082  37.820   6.154
 3124POPC   D2A41812   8.915  37.733   6.530
 3124POPC   C3A41813   8.911  38.047   6.850
 3124POPC   C4A41814   8.864  37.828   7.228
 3124POPC   C1B41815   8.734  37.427   6.128
 3124POPC   C2B41816   8.461  37.465   6.475
 3124POPC   C3B41817   8.581  37.565   6.879
 3124POPC   C4B41818   8.551  37.405   7.257
 3125POPC   NC341819  23.290  34.618   5.474
 3125POPC   PO441820  22.624  34.549   5.451
 3125POPC   GL141821  22.876  34.630   5.799
 3125POPC   GL241822  23.023  34.293   5.845
 3125POPC   C1A41823  22.995  34.650   6.234
 3125POPC   D2A41824  22.964  34.311   6.505
 3125POPC   C3A41825  22.769  34.406   6.909
 3125POPC   C4A41826  22.781  34.657   7.248
 3125POPC   C1B41827  23.390  34.352   6.111
 3125POPC   C2B41828  23.437  34.459   6.531
 3125POPC   C3B41829  23.275  34.366   6.921
 3125POPC   C4B41830  23.307  34.616   7.298
 3126POPC   NC341831  25.023  18.610   5.393
 3126POPC   PO441832  25.374  19.268   5.381
 3126POPC   GL141833  25.263  19.079   5.770
 3126POPC   GL241834  25.461  18.780   5.829
 3126POPC   C1A41835  25.088  19.060   6.212
 3126POPC   D2A41836  25.302  18.918   6.601
 3126POPC   C3A41837  25.188  19.106   6.967
 3126POPC   C4A41838  24.999  18.980   7.364
 3126POPC   C1B41839  25.599  19.036   6.187
 3126POPC   C2B41840  25.641  19.297   6.582
 3126POPC   C3B41841  25.739  19.138   6.985
 3126POPC   C4B41842  25.533  18.976   7.312
 3127POPC   NC341843   3.669  43.438   5.171
 3127POPC   PO441844   3.611  42.733   5.353
 3127POPC   GL141845   3.720  43.023   5.687
 3127POPC   GL241846   3.664  43.350   5.670
 3127POPC   C1A41847   3.802  43.290   6.131
 3127POPC   D2A41848   3.594  43.392   6.532
 3127POPC   C3A41849   3.831  43.262   6.901
 3127POPC   C4A41850   3.702  43.156   7.256
 3127POPC   C1B41851   3.371  43.090   6.043
 3127POPC   C2B41852   3.313  42.965   6.443
 3127POPC   C3B41853   3.372  43.023   6.856
 3127POPC   C4B41854   3.397  42.752   7.152
 3128POPC   NC341855  16.253   1.051   5.248
 3128POPC   PO441856  15.626   0.954   5.552
 3128POPC   GL141857  15.880   1.341   5.661
 3128POPC   GL241858  16.183   1.205   5.769
 3128POPC   C1A41859  16.026   1.581   6.077
 3128POPC   D2A41860  16.102   1.724   6.523
 3128POPC   C3A41861  16.073   1.405   6.851
 3128POPC   C4A41862  16.158   1.285   7.275
 3128POPC   C1B41863  16.176   1.121   6.235
 3128POPC   C2B41864  16.357   0.830   6.542
 3128POPC   C3B41865  16.232   0.830   6.971
 3128POPC   C4B41866  16.247   0.800   7.381
 3129POPC   NC341867  39.502  43.815   5.369
 3129POPC   PO441868  39.137  44.333   5.554
 3129POPC   GL141869  39.069  44.039   5.902
 3129POPC   GL241870  39.237  43.765   5.796
 3129POPC   C1A41871  38.925  43.779   6.289
 3129POPC   D2A41872  38.943  43.596   6.757
 3129POPC   C3A41873  39.222  43.840   7.075
 3129POPC   C4A41874  39.171  43.888   7.542
 3129POPC   C1B41875  39.360  43.547   6.141
 3129POPC   C2B41876  39.415  43.652   6.577
 3129POPC   C3B41877  39.374  43.382   6.952
 3129POPC   C4B41878  39.402  43.453   7.412
 3130POPC   NC341879  14.080  16.184   5.326
 3130POPC   PO441880  14.617  15.782   5.484
 3130POPC   GL141881  14.315  15.821   5.826
 3130POPC   GL241882  14.095  16.105   5.822
 3130POPC   C1A41883  14.228  15.802   6.257
 3130POPC   D2A41884  14.421  15.642   6.604
 3130POPC   C3A41885  14.265  15.788   6.961
 3130POPC   C4A41886  14.241  15.579   7.306
 3130POPC   C1B41887  14.373  16.270   6.146
 3130POPC   C2B41888  14.278  16.245   6.596
 3130POPC   C3B41889  14.364  16.308   7.037
 3130POPC   C4B41890  14.102  16.356   7.390
 3131POPC   NC341891   0.847   6.170   5.597
 3131POPC   PO441892   1.428   6.487   5.280
 3131POPC   GL141893   1.218   6.656   5.766
 3131POPC   GL241894   0.886   6.658   5.676
 3131POPC   C1A41895   1.317   6.813   6.190
 3131POPC   D2A41896   1.402   6.948   6.608
 3131POPC   C3A41897   1.351   6.644   6.920
 3131POPC   C4A41898   1.606   6.481   7.219
 3131POPC   C1B41899   0.826   6.693   6.126
 3131POPC   C2B41900   0.862   6.828   6.559
 3131POPC   C3B41901   0.926   6.890   7.013
 3131POPC   C4B41902   0.917   6.451   7.194
 3132POPC   NC341903  25.951   8.416   5.539
 3132POPC   PO441904  26.135   7.887   5.245
 3132POPC   GL141905  26.137   7.943   5.751
 3132POPC   GL241906  25.804   7.946   5.928
 3132POPC   C1A41907  26.196   7.973   6.239
 3132POPC   D2A41908  26.147   8.183   6.678
 3132POPC   C3A41909  26.136   7.924   7.070
 3132POPC   C4A41910  26.188   7.847   7.522
 3132POPC   C1B41911  25.768   8.262   6.250
 3132POPC   C2B41912  25.616   8.298   6.673
 3132POPC   C3B41913  25.801   8.439   7.072
 3132POPC   C4B41914  25.860   8.592   7.540
 3133POPC   NC341915  28.404   9.448   5.295
 3133POPC   PO441916  28.701  10.143   5.316
 3133POPC   GL141917  28.491   9.920   5.716
 3133POPC   GL241918  28.148   9.880   5.719
 3133POPC   C1A41919  28.355   9.969   6.194
 3133POPC   D2A41920  28.551   9.888   6.633
 3133POPC   C3A41921  28.325   9.967   7.057
 3133POPC   C4A41922  28.506   9.891   7.471
 3133POPC   C1B41923  28.152   9.521   5.996
 3133POPC   C2B41924  28.136   9.580   6.465
 3133POPC   C3B41925  28.236   9.471   6.896
 3133POPC   C4B41926  27.948   9.392   7.226
 3134POPC   NC341927   3.303  39.943   5.342
 3134POPC   PO441928   3.774  40.454   5.215
 3134POPC   GL141929   3.650  40.286   5.669
 3134POPC   GL241930   3.302  40.200   5.774
 3134POPC   C1A41931   3.724  40.033   6.075
 3134POPC   D2A41932   3.919  39.931   6.490
 3134POPC   C3A41933   3.687  39.740   6.836
 3134POPC   C4A41934   3.583  40.006   7.199
 3134POPC   C1B41935   3.223  40.110   6.202
 3134POPC   C2B41936   3.249  40.266   6.596
 3134POPC   C3B41937   2.960  40.280   6.913
 3134POPC   C4B41938   3.085  40.172   7.276
 3135POPC   NC341939  37.572   0.330   5.263
 3135POPC   PO441940  38.176   0.309   5.456
 3135POPC   GL141941  37.793   0.441   5.733
 3135POPC   GL241942  37.417   0.408   5.756
 3135POPC   C1A41943  37.759   0.287   6.162
 3135POPC   D2A41944  37.940   0.331   6.576
 3135POPC   C3A41945  37.632   0.360   6.903
 3135POPC   C4A41946  37.595   0.128   7.292
 3135POPC   C1B41947  37.366   0.608   6.189
 3135POPC   C2B41948  37.165   0.411   6.586
 3135POPC   C3B41949  37.142   0.226   7.006
 3135POPC   C4B41950  37.309   0.540   7.272
 3136POPC   NC341951  44.967  21.170   5.259
 3136POPC   PO441952  44.469  21.545   5.371
 3136POPC   GL141953  44.787  21.529   5.693
 3136POPC   GL241954  44.650  21.823   5.881
 3136POPC   C1A41955  44.829  21.374   6.108
 3136POPC   D2A41956  44.537  21.264   6.473
 3136POPC   C3A41957  44.547  21.379   6.924
 3136POPC   C4A41958  44.904  21.447   7.228
 3136POPC   C1B41959  44.344  21.587   6.110
 3136POPC   C2B41960  44.234  21.673   6.552
 3136POPC   C3B41961  44.338  21.854   6.966
 3136POPC   C4B41962  44.444  21.608   7.383
 3137POPC   NC341963   4.747   6.126   5.478
 3137POPC   PO441964   4.109   6.061   5.373
 3137POPC   GL141965   4.074   6.107   5.815
 3137POPC   GL241966   4.407   6.053   5.919
 3137POPC   C1A41967   3.965   6.016   6.270
 3137POPC   D2A41968   4.076   5.894   6.732
 3137POPC   C3A41969   4.077   6.115   7.156
 3137POPC   C4A41970   4.217   6.023   7.614
 3137POPC   C1B41971   4.514   6.140   6.352
 3137POPC   C2B41972   4.522   6.149   6.813
 3137POPC   C3B41973   4.589   6.092   7.253
 3137POPC   C4B41974   4.763   5.986   7.661
 3138POPC   NC341975  22.644  27.752   5.446
 3138POPC   PO441976  23.199  27.440   5.529
 3138POPC   GL141977  23.208  27.618   5.908
 3138POPC   GL241978  22.885  27.753   5.902
 3138POPC   C1A41979  23.097  27.489   6.316
 3138POPC   D2A41980  22.873  27.430   6.662
 3138POPC   C3A41981  23.104  27.487   7.020
 3138POPC   C4A41982  23.010  27.398   7.446
 3138POPC   C1B41983  22.951  27.979   6.286
 3138POPC   C2B41984  22.827  27.939   6.700
 3138POPC   C3B41985  22.726  27.918   7.116
 3138POPC   C4B41986  23.110  27.896   7.327
 3139POPC   NC341987  36.164  12.493   5.438
 3139POPC   PO441988  36.459  13.073   5.391
 3139POPC   GL141989  36.259  12.956   5.752
 3139POPC   GL241990  36.433  13.192   5.972
 3139POPC   C1A41991  36.341  12.695   6.122
 3139POPC   D2A41992  36.570  12.588   6.512
 3139POPC   C3A41993  36.351  12.583   6.923
 3139POPC   C4A41994  35.966  12.736   7.135
 3139POPC   C1B41995  36.023  13.091   6.212
 3139POPC   C2B41996  35.824  13.181   6.636
 3139POPC   C3B41997  36.037  13.247   7.040
 3139POPC   C4B41998  36.116  13.108   7.524
 3140POPC   NC341999  14.860  35.598   5.168
 3140POPC   PO442000  14.664  35.042   5.519
 3140POPC   GL142001  14.254  35.176   5.762
 3140POPC   GL242002  14.027  35.460   5.683
 3140POPC   C1A42003  14.258  35.132   6.216
 3140POPC   D2A42004  14.523  35.037   6.597
 3140POPC   C3A42005  14.388  35.258   6.979
 3140POPC   C4A42006  14.523  35.506   7.314
 3140POPC   C1B42007  14.138  35.625   6.100
 3140POPC   C2B42008  14.352  35.547   6.520
 3140POPC   C3B42009  14.297  35.760   6.909
 3140POPC   C4B42010  14.209  35.914   7.309
 3141POPC   NC342011  17.220  33.289   5.556
 3141POPC   PO442012  16.438  33.202   5.374
 3141POPC   GL142013  16.668  33.290   5.735
 3141POPC   GL242014  16.811  32.973   5.785
 3141POPC   C1A42015  16.830  33.365   6.172
 3141POPC   D2A42016  16.905  33.153   6.603
 3141POPC   C3A42017  16.849  33.272   7.067
 3141POPC   C4A42018  16.974  33.024   7.475
 3141POPC   C1B42019  16.398  32.820   5.998
 3141POPC   C2B42020  16.281  32.873   6.472
 3141POPC   C3B42021  16.467  32.910   6.897
 3141POPC   C4B42022  16.374  32.774   7.323
 3142POPC   NC342023  42.577   7.477   5.366
 3142POPC   PO442024  42.246   6.955   5.166
 3142POPC   GL142025  42.419   7.132   5.705
 3142POPC   GL242026  42.303   7.469   5.822
 3142POPC   C1A42027  42.133   7.084   6.153
 3142POPC   D2A42028  42.042   7.346   6.547
 3142POPC   C3A42029  42.050   7.210   6.996
 3142POPC   C4A42030  42.215   7.381   7.404
 3142POPC   C1B42031  42.548   7.338   6.182
 3142POPC   C2B42032  42.524   7.184   6.564
 3142POPC   C3B42033  42.532   7.370   6.947
 3142POPC   C4B42034  42.718   7.403   7.304
 3143POPC   NC342035  41.349  13.282   5.561
 3143POPC   PO442036  41.679  12.707   5.424
 3143POPC   GL142037  41.633  12.874   5.822
 3143POPC   GL242038  41.307  12.845   5.803
 3143POPC   C1A42039  41.521  12.857   6.271
 3143POPC   D2A42040  41.673  12.727   6.640
 3143POPC   C3A42041  41.837  12.877   7.007
 3143POPC   C4A42042  41.768  12.980   7.427
 3143POPC   C1B42043  41.100  13.091   6.146
 3143POPC   C2B42044  41.257  13.282   6.537
 3143POPC   C3B42045  41.329  13.016   6.894
 3143POPC   C4B42046  41.024  12.927   7.193
 3144POPC   NC342047   5.629   9.888   5.625
 3144POPC   PO442048   6.112   9.553   5.391
 3144POPC   GL142049   6.084   9.654   5.789
 3144POPC   GL242050   6.085  10.019   5.807
 3144POPC   C1A42051   5.927   9.486   6.177
 3144POPC   D2A42052   6.161   9.504   6.552
 3144POPC   C3A42053   5.893   9.338   6.848
 3144POPC   C4A42054   5.733   9.381   7.229
 3144POPC   C1B42055   5.875   9.979   6.237
 3144POPC   C2B42056   5.827   9.849   6.674
 3144POPC   C3B42057   5.782  10.035   7.073
 3144POPC   C4B42058   5.678   9.824   7.457
 3145POPC   NC342059   9.654  33.342   5.444
 3145POPC   PO442060   9.823  32.625   5.382
 3145POPC   GL142061   9.733  32.885   5.754
 3145POPC   GL242062   9.391  32.948   5.701
 3145POPC   C1A42063   9.602  33.152   6.141
 3145POPC   D2A42064   9.433  33.181   6.558
 3145POPC   C3A42065   9.726  33.173   6.857
 3145POPC   C4A42066   9.750  33.047   7.259
 3145POPC   C1B42067   9.368  32.677   6.069
 3145POPC   C2B42068   9.221  32.747   6.476
 3145POPC   C3B42069   9.476  32.750   6.870
 3145POPC   C4B42070   9.491  32.574   7.284
 3146POPC   NC342071   1.582  35.297   5.361
 3146POPC   PO442072   1.159  35.757   5.462
 3146POPC   GL142073   1.318  35.485   5.797
 3146POPC   GL242074   1.236  35.121   5.729
 3146POPC   C1A42075   1.356  35.536   6.264
 3146POPC   D2A42076   1.209  35.601   6.712
 3146POPC   C3A42077   1.453  35.473   7.082
 3146POPC   C4A42078   1.382  35.530   7.556
 3146POPC   C1B42079   1.320  35.014   6.168
 3146POPC   C2B42080   1.435  35.105   6.617
 3146POPC   C3B42081   1.306  34.974   7.057
 3146POPC   C4B42082   1.114  35.102   7.452
 3147POPC   NC342083   1.415  10.709   5.378
 3147POPC   PO442084   0.747  10.579   5.550
 3147POPC   GL142085   0.978  10.470   5.885
 3147POPC   GL242086   1.251  10.667   5.852
 3147POPC   C1A42087   1.046  10.365   6.295
 3147POPC   D2A42088   1.008  10.252   6.707
 3147POPC   C3A42089   0.938  10.472   7.028
 3147POPC   C4A42090   1.289  10.342   7.275
 3147POPC   C1B42091   1.410  10.729   6.233
 3147POPC   C2B42092   1.155  10.779   6.602
 3147POPC   C3B42093   1.383  10.706   6.949
 3147POPC   C4B42094   1.731  10.737   7.226
 3148POPC   NC342095  41.941  28.038   5.532
 3148POPC   PO442096  42.215  27.434   5.407
 3148POPC   GL142097  42.345  27.541   5.809
 3148POPC   GL242098  42.245  27.862   5.919
 3148POPC   C1A42099  42.225  27.381   6.196
 3148POPC   D2A42100  42.046  27.573   6.539
 3148POPC   C3A42101  42.163  27.386   6.899
 3148POPC   C4A42102  41.958  27.535   7.245
 3148POPC   C1B42103  42.581  27.817   6.219
 3148POPC   C2B42104  42.562  27.645   6.631
 3148POPC   C3B42105  42.469  27.761   7.066
 3148POPC   C4B42106  42.712  28.002   7.390
 3149POPC   NC342107  27.961  37.539   5.513
 3149POPC   PO442108  28.589  37.964   5.568
 3149POPC   GL142109  28.375  37.947   5.903
 3149POPC   GL242110  28.338  37.613   5.861
 3149POPC   C1A42111  28.441  37.799   6.329
 3149POPC   D2A42112  28.767  37.690   6.610
 3149POPC   C3A42113  28.747  37.950   6.950
 3149POPC   C4A42114  28.389  37.985   7.203
 3149POPC   C1B42115  28.251  37.292   6.120
 3149POPC   C2B42116  28.413  37.308   6.512
 3149POPC   C3B42117  28.326  37.569   6.855
 3149POPC   C4B42118  28.112  37.544   7.245
 3150POPC   NC342119  40.435  33.620   5.359
 3150POPC   PO442120  40.991  33.984   5.419
 3150POPC   GL142121  40.784  33.780   5.790
 3150POPC   GL242122  40.569  33.475   5.831
 3150POPC   C1A42123  40.713  33.902   6.229
 3150POPC   D2A42124  40.733  34.147   6.621
 3150POPC   C3A42125  40.561  34.001   7.009
 3150POPC   C4A42126  40.758  33.780   7.376
 3150POPC   C1B42127  40.565  33.397   6.268
 3150POPC   C2B42128  40.571  33.618   6.665
 3150POPC   C3B42129  40.459  33.497   7.083
 3150POPC   C4B42130  40.534  33.339   7.515
 3151POPC   NC342131  37.916  41.967   5.462
 3151POPC   PO442132  37.756  41.320   5.296
 3151POPC   GL142133  37.696  41.447   5.739
 3151POPC   GL242134  37.928  41.556   5.834
 3151POPC   C1A42135  37.550  41.512   6.188
 3151POPC   D2A42136  37.708  41.658   6.540
 3151POPC   C3A42137  37.738  41.381   6.848
 3151POPC   C4A42138  37.592  41.297   7.276
 3151POPC   C1B42139  38.047  41.402   6.249
 3151POPC   C2B42140  38.200  41.651   6.599
 3151POPC   C3B42141  38.020  41.820   6.973
 3151POPC   C4B42142  38.014  41.544   7.311
 3152POPC   NC342143   2.437  29.416   5.452
 3152POPC   PO442144   1.926  29.032   5.351
 3152POPC   GL142145   1.980  28.907   5.770
 3152POPC   GL242146   2.244  29.139   5.868
 3152POPC   C1A42147   1.844  28.870   6.181
 3152POPC   D2A42148   2.013  29.058   6.531
 3152POPC   C3A42149   1.828  28.840   6.832
 3152POPC   C4A42150   1.919  28.969   7.228
 3152POPC   C1B42151   1.927  29.368   6.114
 3152POPC   C2B42152   1.827  29.534   6.550
 3152POPC   C3B42153   1.937  29.390   6.951
 3152POPC   C4B42154   1.990  29.482   7.365
 3153POPC   NC342155  36.502  41.338   5.503
 3153POPC   PO442156  36.174  40.683   5.336
 3153POPC   GL142157  36.103  40.798   5.746
 3153POPC   GL242158  35.824  40.536   5.713
 3153POPC   C1A42159  36.359  40.968   6.105
 3153POPC   D2A42160  36.335  41.083   6.556
 3153POPC   C3A42161  36.336  40.767   6.863
 3153POPC   C4A42162  36.170  40.757   7.289
 3153POPC   C1B42163  35.800  40.574   6.144
 3153POPC   C2B42164  35.925  40.763   6.524
 3153POPC   C3B42165  35.869  40.543   6.889
 3153POPC   C4B42166  35.839  40.374   7.255
 3154POPC   NC342167  44.904  28.345   5.315
 3154POPC   PO442168   0.574  28.182   5.308
 3154POPC   GL142169   0.549  28.478   5.647
 3154POPC   GL242170   0.658  28.298   5.913
 3154POPC   C1A42171   0.215  28.534   5.986
 3154POPC   D2A42172   0.106  28.365   6.401
 3154POPC   C3A42173   0.083  28.667   6.746
 3154POPC   C4A42174  44.999  28.616   7.189
 3154POPC   C1B42175   0.620  28.524   6.312
 3154POPC   C2B42176   0.514  28.365   6.731
 3154POPC   C3B42177   0.521  28.377   7.183
 3154POPC   C4B42178   0.723  28.186   7.569
 3155POPC   NC342179  38.171  14.160   5.293
 3155POPC   PO442180  38.266  14.789   5.308
 3155POPC   GL142181  38.419  14.475   5.643
 3155POPC   GL242182  38.741  14.362   5.701
 3155POPC   C1A42183  38.366  14.295   6.083
 3155POPC   D2A42184  38.397  14.195   6.535
 3155POPC   C3A42185  38.366  14.397   6.911
 3155POPC   C4A42186  38.354  14.214   7.295
 3155POPC   C1B42187  38.752  14.646   6.047
 3155POPC   C2B42188  38.672  14.633   6.483
 3155POPC   C3B42189  38.799  14.675   6.912
 3155POPC   C4B42190  38.673  14.617   7.307
 3156POPC   NC342191  19.531  43.623   5.567
 3156POPC   PO442192  18.886  43.890   5.422
 3156POPC   GL142193  19.090  43.898   5.808
 3156POPC   GL242194  19.086  43.530   5.843
 3156POPC   C1A42195  19.083  44.111   6.220
 3156POPC   D2A42196  19.126  43.937   6.635
 3156POPC   C3A42197  18.844  43.828   6.930
 3156POPC   C4A42198  19.073  44.105   7.243
 3156POPC   C1B42199  19.286  43.635   6.260
 3156POPC   C2B42200  19.358  43.464   6.689
 3156POPC   C3B42201  19.276  43.656   7.098
 3156POPC   C4B42202  19.361  43.505   7.481
 3157POPC   NC342203   7.664  44.108   5.357
 3157POPC   PO442204   7.205  43.636   5.376
 3157POPC   GL142205   7.213  43.753   5.821
 3157POPC   GL242206   7.514  43.979   5.867
 3157POPC   C1A42207   7.329  43.763   6.277
 3157POPC   D2A42208   7.079  43.984   6.539
 3157POPC   C3A42209   7.056  43.837   6.918
 3157POPC   C4A42210   7.267  43.713   7.258
 3157POPC   C1B42211   7.604  44.201   6.260
 3157POPC   C2B42212   7.550  44.051   6.681
 3157POPC   C3B42213   7.673  43.979   7.081
 3157POPC   C4B42214   7.656  44.329   7.344
 3158POPC   NC342215  34.592   9.606   5.399
 3158POPC   PO442216  34.639  10.310   5.409
 3158POPC   GL142217  34.618   9.984   5.806
 3158POPC   GL242218  34.482   9.622   5.886
 3158POPC   C1A42219  34.604   9.967   6.279
 3158POPC   D2A42220  34.929   9.829   6.602
 3158POPC   C3A42221  34.817   9.786   7.039
 3158POPC   C4A42222  34.672   9.625   7.496
 3158POPC   C1B42223  34.706   9.465   6.226
 3158POPC   C2B42224  34.512   9.543   6.619
 3158POPC   C3B42225  34.466   9.444   7.031
 3158POPC   C4B42226  34.142   9.618   7.319
 3159POPC   NC342227  29.702  43.875   5.359
 3159POPC   PO442228  30.329  44.152   5.341
 3159POPC   GL142229  29.994  44.120   5.705
 3159POPC   GL242230  29.817  43.783   5.833
 3159POPC   C1A42231  29.890  44.170   6.160
 3159POPC   D2A42232  30.058  43.991   6.533
 3159POPC   C3A42233  29.952  44.006   6.941
 3159POPC   C4A42234  30.263  44.104   7.247
 3159POPC   C1B42235  29.789  43.642   6.276
 3159POPC   C2B42236  29.838  43.530   6.738
 3159POPC   C3B42237  29.613  43.660   7.136
 3159POPC   C4B42238  29.719  43.544   7.561
 3160POPC   NC342239  22.205  44.993   5.351
 3160POPC   PO442240  22.337   0.654   5.618
 3160POPC   GL142241  22.246   0.246   5.859
 3160POPC   GL242242  21.894   0.140   5.908
 3160POPC   C1A42243  22.326   0.262   6.300
 3160POPC   D2A42244  22.340   0.645   6.550
 3160POPC   C3A42245  22.483   0.661   6.978
 3160POPC   C4A42246  22.187   0.655   7.320
 3160POPC   C1B42247  21.682   0.013   6.298
 3160POPC   C2B42248  21.970   0.081   6.637
 3160POPC   C3B42249  22.083   0.257   7.019
 3160POPC   C4B42250  21.696   0.201   7.226
 3161POPC   NC342251  39.232  28.547   5.415
 3161POPC   PO442252  39.139  27.904   5.396
 3161POPC   GL142253  39.077  28.164   5.746
 3161POPC   GL242254  39.414  28.241   5.842
 3161POPC   C1A42255  38.989  28.384   6.140
 3161POPC   D2A42256  39.166  28.569   6.530
 3161POPC   C3A42257  38.902  28.533   6.909
 3161POPC   C4A42258  39.114  28.359   7.259
 3161POPC   C1B42259  39.376  27.987   6.243
 3161POPC   C2B42260  39.442  27.996   6.713
 3161POPC   C3B42261  39.636  28.263   7.056
 3161POPC   C4B42262  39.569  28.319   7.508
 3162POPC   NC342263   7.826  14.772   5.403
 3162POPC   PO442264   7.432  14.245   5.406
 3162POPC   GL142265   7.561  14.486   5.762
 3162POPC   GL242266   7.805  14.283   5.807
 3162POPC   C1A42267   7.350  14.582   6.175
 3162POPC   D2A42268   7.157  14.446   6.572
 3162POPC   C3A42269   7.367  14.449   6.965
 3162POPC   C4A42270   7.452  14.605   7.363
 3162POPC   C1B42271   7.576  14.121   6.153
 3162POPC   C2B42272   7.615  14.187   6.579
 3162POPC   C3B42273   7.567  13.976   6.972
 3162POPC   C4B42274   7.362  14.081   7.353
 3163POPC   NC342275  27.463   7.093   5.303
 3163POPC   PO442276  27.651   7.674   5.283
 3163POPC   GL142277  27.703   7.427   5.646
 3163POPC   GL242278  27.473   7.650   5.786
 3163POPC   C1A42279  27.633   7.301   6.079
 3163POPC   D2A42280  27.786   7.434   6.453
 3163POPC   C3A42281  27.682   7.285   6.836
 3163POPC   C4A42282  27.881   7.404   7.187
 3163POPC   C1B42283  27.520   7.795   6.230
 3163POPC   C2B42284  27.461   7.741   6.723
 3163POPC   C3B42285  27.390   7.564   7.175
 3163POPC   C4B42286  27.324   7.386   7.636
 3164POPC   NC342287  21.295  36.170   5.350
 3164POPC   PO442288  21.871  36.135   5.131
 3164POPC   GL142289  21.689  36.162   5.653
 3164POPC   GL242290  21.344  35.997   5.825
 3164POPC   C1A42291  21.749  35.983   6.117
 3164POPC   D2A42292  21.837  36.169   6.551
 3164POPC   C3A42293  21.689  35.988   6.935
 3164POPC   C4A42294  21.296  35.909   7.136
 3164POPC   C1B42295  21.248  36.183   6.223
 3164POPC   C2B42296  21.283  36.169   6.658
 3164POPC   C3B42297  21.004  36.314   6.955
 3164POPC   C4B42298  20.892  36.162   7.357
 3165POPC   NC342299  28.741  20.055   5.291
 3165POPC   PO442300  29.292  19.638   5.247
 3165POPC   GL142301  29.059  19.759   5.603
 3165POPC   GL242302  29.324  19.599   5.784
 3165POPC   C1A42303  28.938  20.086   5.932
 3165POPC   D2A42304  28.856  20.249   6.371
 3165POPC   C3A42305  29.001  20.259   6.807
 3165POPC   C4A42306  29.159  20.187   7.200
 3165POPC   C1B42307  29.159  19.713   6.194
 3165POPC   C2B42308  29.315  20.020   6.472
 3165POPC   C3B42309  29.531  20.052   6.855
 3165POPC   C4B42310  29.518  19.785   7.203
 3166POPC   NC342311  36.591  33.236   5.456
 3166POPC   PO442312  37.225  32.937   5.292
 3166POPC   GL142313  37.022  32.960   5.749
 3166POPC   GL242314  37.017  32.596   5.886
 3166POPC   C1A42315  36.831  33.244   6.129
 3166POPC   D2A42316  36.621  33.162   6.574
 3166POPC   C3A42317  36.829  33.331   6.987
 3166POPC   C4A42318  36.940  33.158   7.426
 3166POPC   C1B42319  36.730  32.756   6.201
 3166POPC   C2B42320  36.836  32.696   6.619
 3166POPC   C3B42321  36.696  32.825   7.016
 3166POPC   C4B42322  36.931  32.653   7.332
 3167POPC   NC342323  15.322  33.776   5.315
 3167POPC   PO442324  14.942  34.107   5.758
 3167POPC   GL142325  15.107  33.676   5.796
 3167POPC   GL242326  15.478  33.603   5.777
 3167POPC   C1A42327  15.216  33.543   6.235
 3167POPC   D2A42328  15.395  33.441   6.664
 3167POPC   C3A42329  15.179  33.593   7.083
 3167POPC   C4A42330  14.955  33.938   7.336
 3167POPC   C1B42331  15.702  33.473   6.118
 3167POPC   C2B42332  15.646  33.823   6.429
 3167POPC   C3B42333  15.483  33.939   6.814
 3167POPC   C4B42334  15.573  33.887   7.225
 3168POPC   NC342335   4.376  41.772   5.174
 3168POPC   PO442336   4.015  41.341   5.610
 3168POPC   GL142337   4.286  41.444   5.928
 3168POPC   GL242338   4.582  41.536   5.817
 3168POPC   C1A42339   4.478  41.331   6.323
 3168POPC   D2A42340   4.275  41.476   6.679
 3168POPC   C3A42341   4.342  41.209   7.001
 3168POPC   C4A42342   4.015  41.143   7.271
 3168POPC   C1B42343   4.584  41.805   6.188
 3168POPC   C2B42344   4.699  41.774   6.625
 3168POPC   C3B42345   4.530  41.719   7.050
 3168POPC   C4B42346   4.744  41.774   7.392
 3169POPC   NC342347  43.039  28.946   5.157
 3169POPC   PO442348  43.387  29.411   5.431
 3169POPC   GL142349  43.082  29.083   5.671
 3169POPC   GL242350  42.774  29.183   5.832
 3169POPC   C1A42351  43.037  28.795   6.074
 3169POPC   D2A42352  43.325  28.823   6.430
 3169POPC   C3A42353  43.168  28.945   6.830
 3169POPC   C4A42354  43.122  28.954   7.280
 3169POPC   C1B42355  43.079  29.284   6.206
 3169POPC   C2B42356  42.980  29.413   6.658
 3169POPC   C3B42357  43.226  29.420   7.070
 3169POPC   C4B42358  43.222  29.606   7.537
 3170POPC   NC342359   4.652   8.268   5.312
 3170POPC   PO442360   4.077   8.008   5.398
 3170POPC   GL142361   4.318   8.116   5.781
 3170POPC   GL242362   4.548   8.399   5.783
 3170POPC   C1A42363   4.478   7.899   6.171
 3170POPC   D2A42364   4.408   7.718   6.588
 3170POPC   C3A42365   4.547   7.952   6.953
 3170POPC   C4A42366   4.441   8.320   7.254
 3170POPC   C1B42367   4.345   8.458   6.179
 3170POPC   C2B42368   4.179   8.169   6.478
 3170POPC   C3B42369   4.071   8.148   6.883
 3170POPC   C4B42370   3.945   8.284   7.261
 3171POPC   NC342371  38.703  17.101   5.596
 3171POPC   PO442372  38.481  17.708   5.353
 3171POPC   GL142373  38.656  17.719   5.764
 3171POPC   GL242374  38.936  17.513   5.814
 3171POPC   C1A42375  38.639  17.623   6.214
 3171POPC   D2A42376  38.655  17.815   6.611
 3171POPC   C3A42377  38.540  17.595   6.958
 3171POPC   C4A42378  38.215  17.693   7.238
 3171POPC   C1B42379  38.927  17.189   6.180
 3171POPC   C2B42380  38.729  17.236   6.592
 3171POPC   C3B42381  38.862  17.149   6.998
 3171POPC   C4B42382  38.606  17.276   7.339
 3172POPC   NC342383  40.279  33.033   5.501
 3172POPC   PO442384  39.719  33.275   5.234
 3172POPC   GL142385  39.655  33.194   5.723
 3172POPC   GL242386  39.976  33.062   5.909
 3172POPC   C1A42387  39.539  33.004   6.142
 3172POPC   D2A42388  39.844  32.948   6.483
 3172POPC   C3A42389  39.714  33.138   6.880
 3172POPC   C4A42390  39.690  32.895   7.244
 3172POPC   C1B42391  39.890  33.396   6.213
 3172POPC   C2B42392  40.112  33.408   6.578
 3172POPC   C3B42393  40.235  33.094   6.873
 3172POPC   C4B42394  40.100  33.200   7.298
 3173POPC   NC342395   3.327   0.462   5.306
 3173POPC   PO442396   3.884   0.808   5.200
 3173POPC   GL142397   3.710   0.653   5.674
 3173POPC   GL242398   3.410   0.465   5.810
 3173POPC   C1A42399   3.642   0.659   6.185
 3173POPC   D2A42400   3.501   0.699   6.642
 3173POPC   C3A42401   3.618   0.370   6.958
 3173POPC   C4A42402   3.873  44.956   6.921
 3173POPC   C1B42403   3.291   0.256   6.259
 3173POPC   C2B42404   3.254   0.044   6.699
 3173POPC   C3B42405   3.232   0.094   7.159
 3173POPC   C4B42406   3.119   0.098   7.675
 3174POPC   NC342407  30.336  32.666   5.549
 3174POPC   PO442408  30.545  33.295   5.436
 3174POPC   GL142409  30.597  33.118   5.849
 3174POPC   GL242410  30.420  32.845   6.005
 3174POPC   C1A42411  30.631  33.206   6.284
 3174POPC   D2A42412  30.636  32.981   6.662
 3174POPC   C3A42413  30.996  33.031   6.912
 3174POPC   C4A42414  30.898  33.058   7.329
 3174POPC   C1B42415  30.265  32.709   6.394
 3174POPC   C2B42416  30.259  32.657   6.850
 3174POPC   C3B42417  30.393  32.884   7.216
 3174POPC   C4B42418  30.270  32.795   7.645
 3175POPC   NC342419  35.943  25.494   5.374
 3175POPC   PO442420  36.352  24.921   5.490
 3175POPC   GL142421  36.181  25.229   5.775
 3175POPC   GL242422  35.811  25.231   5.791
 3175POPC   C1A42423  36.382  25.419   6.136
 3175POPC   D2A42424  36.550  25.368   6.546
 3175POPC   C3A42425  36.326  25.471   6.928
 3175POPC   C4A42426  36.306  25.595   7.362
 3175POPC   C1B42427  35.880  25.395   6.202
 3175POPC   C2B42428  36.078  25.146   6.515
 3175POPC   C3B42429  36.099  24.999   6.919
 3175POPC   C4B42430  35.958  25.228   7.275
 3176POPC   NC342431  30.561   4.512   5.336
 3176POPC   PO442432  30.466   3.943   5.525
 3176POPC   GL142433  30.626   4.235   5.795
 3176POPC   GL242434  30.270   4.294   5.896
 3176POPC   C1A42435  30.788   4.430   6.202
 3176POPC   D2A42436  30.658   4.689   6.591
 3176POPC   C3A42437  30.795   4.566   7.032
 3176POPC   C4A42438  30.812   4.199   7.325
 3176POPC   C1B42439  30.451   3.990   6.212
 3176POPC   C2B42440  30.690   4.064   6.574
 3176POPC   C3B42441  30.494   4.054   6.963
 3176POPC   C4B42442  30.384   3.924   7.365
 3177POPC   NC342443  23.732  37.030   5.365
 3177POPC   PO442444  23.438  36.632   5.767
 3177POPC   GL142445  23.735  36.882   5.916
 3177POPC   GL242446  23.811  37.227   5.825
 3177POPC   C1A42447  23.802  36.807   6.326
 3177POPC   D2A42448  23.583  36.866   6.680
 3177POPC   C3A42449  23.848  36.823   7.011
 3177POPC   C4A42450  23.618  36.769   7.348
 3177POPC   C1B42451  23.540  37.316   6.170
 3177POPC   C2B42452  23.413  37.369   6.629
 3177POPC   C3B42453  23.531  37.234   7.050
 3177POPC   C4B42454  23.573  37.238   7.517
 3178POPC   NC342455  37.122   0.717   5.450
 3178POPC   PO442456  36.720   0.196   5.320
 3178POPC   GL142457  36.856   0.371   5.715
 3178POPC   GL242458  36.524   0.452   5.813
 3178POPC   C1A42459  36.869   0.489   6.171
 3178POPC   D2A42460  36.638   0.541   6.565
 3178POPC   C3A42461  36.842   0.651   6.983
 3178POPC   C4A42462  36.811   0.637   7.456
 3178POPC   C1B42463  36.571   0.067   6.081
 3178POPC   C2B42464  36.448   0.043   6.518
 3178POPC   C3B42465  36.649   0.135   6.884
 3178POPC   C4B42466  36.714  44.988   7.284
 3179POPC   NC342467  41.040   7.100   5.105
 3179POPC   PO442468  40.562   6.614   5.454
 3179POPC   GL142469  40.915   6.472   5.721
 3179POPC   GL242470  41.057   6.130   5.762
 3179POPC   C1A42471  41.053   6.547   6.134
 3179POPC   D2A42472  40.842   6.525   6.521
 3179POPC   C3A42473  40.926   6.810   6.827
 3179POPC   C4A42474  40.821   6.656   7.207
 3179POPC   C1B42475  40.702   6.163   6.082
 3179POPC   C2B42476  40.469   6.148   6.478
 3179POPC   C3B42477  40.618   6.241   6.908
 3179POPC   C4B42478  40.364   6.427   7.229
 3180POPC   NC342479  31.812  24.148   5.245
 3180POPC   PO442480  31.309  23.770   5.462
 3180POPC   GL142481  31.461  23.929   5.815
 3180POPC   GL242482  31.518  23.620   5.943
 3180POPC   C1A42483  31.281  23.958   6.230
 3180POPC   D2A42484  31.315  23.716   6.599
 3180POPC   C3A42485  31.434  23.926   6.954
 3180POPC   C4A42486  31.217  24.003   7.323
 3180POPC   C1B42487  31.742  23.634   6.309
 3180POPC   C2B42488  31.806  23.610   6.739
 3180POPC   C3B42489  31.888  23.457   7.130
 3180POPC   C4B42490  31.658  23.741   7.389
 3181POPC   NC342491  42.013  15.955   5.503
 3181POPC   PO442492  41.411  15.868   5.201
 3181POPC   GL142493  41.498  16.054   5.620
 3181POPC   GL242494  41.532  15.715   5.742
 3181POPC   C1A42495  41.601  16.083   6.093
 3181POPC   D2A42496  41.788  15.872   6.477
 3181POPC   C3A42497  41.834  16.156   6.833
 3181POPC   C4A42498  41.701  15.987   7.220
 3181POPC   C1B42499  41.312  15.648   6.168
 3181POPC   C2B42500  41.412  15.561   6.618
 3181POPC   C3B42501  41.392  15.572   7.064
 3181POPC   C4B42502  41.203  15.863   7.321
 3182POPC   NC342503  31.718  33.517   5.448
 3182POPC   PO442504  32.396  33.717   5.472
 3182POPC   GL142505  32.183  33.766   5.889
 3182POPC   GL242506  31.949  33.462   5.909
 3182POPC   C1A42507  32.243  33.976   6.316
 3182POPC   D2A42508  32.434  34.036   6.723
 3182POPC   C3A42509  32.124  33.995   7.055
 3182POPC   C4A42510  32.169  34.037   7.479
 3182POPC   C1B42511  32.142  33.467   6.316
 3182POPC   C2B42512  32.031  33.606   6.711
 3182POPC   C3B42513  31.855  33.386   7.066
 3182POPC   C4B42514  32.143  33.446   7.383
 3183POPC   NC342515   0.322  11.884   5.502
 3183POPC   PO442516   0.655  12.427   5.454
 3183POPC   GL142517   0.345  12.271   5.818
 3183POPC   GL242518   0.165  11.935   5.965
 3183POPC   C1A42519   0.420  12.213   6.279
 3183POPC   D2A42520   0.597  12.154   6.669
 3183POPC   C3A42521   0.505  12.382   7.026
 3183POPC   C4A42522   0.655  12.331   7.449
 3183POPC   C1B42523   0.398  11.676   6.240
 3183POPC   C2B42524   0.609  11.626   6.635
 3183POPC   C3B42525   0.515  11.763   7.038
 3183POPC   C4B42526   0.268  12.002   7.277
 3184POPC   NC342527  42.916  41.345   5.202
 3184POPC   PO442528  43.327  41.845   5.301
 3184POPC   GL142529  43.238  41.480   5.620
 3184POPC   GL242530  42.899  41.285   5.722
 3184POPC   C1A42531  43.419  41.477   6.040
 3184POPC   D2A42532  43.561  41.585   6.446
 3184POPC   C3A42533  43.331  41.544   6.813
 3184POPC   C4A42534  43.281  41.861   7.175
 3184POPC   C1B42535  42.912  41.598   6.053
 3184POPC   C2B42536  42.877  41.682   6.530
 3184POPC   C3B42537  42.862  41.609   6.989
 3184POPC   C4B42538  43.142  41.377   7.281
 3185POPC   NC342539  27.707  15.309   5.376
 3185POPC   PO442540  27.335  14.729   5.524
 3185POPC   GL142541  27.414  15.107   5.771
 3185POPC   GL242542  27.733  15.224   5.866
 3185POPC   C1A42543  27.339  15.225   6.197
 3185POPC   D2A42544  27.503  15.137   6.594
 3185POPC   C3A42545  27.313  15.258   6.943
 3185POPC   C4A42546  27.467  15.259   7.376
 3185POPC   C1B42547  27.784  15.470   6.220
 3185POPC   C2B42548  27.959  15.393   6.653
 3185POPC   C3B42549  27.908  15.246   7.097
 3185POPC   C4B42550  28.111  15.426   7.488
 3186POPC   NC342551  33.191  10.266   5.381
 3186POPC   PO442552  32.718  10.820   5.352
 3186POPC   GL142553  32.881  10.703   5.779
 3186POPC   GL242554  33.246  10.577   5.843
 3186POPC   C1A42555  32.870  10.401   6.139
 3186POPC   D2A42556  33.168  10.304   6.479
 3186POPC   C3A42557  32.925  10.399   6.849
 3186POPC   C4A42558  32.677  10.211   7.187
 3186POPC   C1B42559  33.192  10.785   6.294
 3186POPC   C2B42560  33.324  10.740   6.755
 3186POPC   C3B42561  33.185  10.639   7.205
 3186POPC   C4B42562  33.295  10.759   7.642
 3187POPC   NC342563   5.457  39.515   5.576
 3187POPC   PO442564   5.029  39.075   5.398
 3187POPC   GL142565   5.052  39.226   5.790
 3187POPC   GL242566   4.973  39.554   5.809
 3187POPC   C1A42567   4.995  38.972   6.138
 3187POPC   D2A42568   5.191  38.947   6.495
 3187POPC   C3A42569   5.051  39.193   6.827
 3187POPC   C4A42570   4.882  39.186   7.224
 3187POPC   C1B42571   5.016  39.570   6.269
 3187POPC   C2B42572   4.757  39.692   6.635
 3187POPC   C3B42573   4.935  39.657   7.050
 3187POPC   C4B42574   5.334  39.448   7.192
 3188POPC   NC342575   4.038  17.777   5.475
 3188POPC   PO442576   4.605  17.397   5.312
 3188POPC   GL142577   4.301  17.368   5.692
 3188POPC   GL242578   4.284  17.645   5.911
 3188POPC   C1A42579   4.211  17.188   6.103
 3188POPC   D2A42580   4.224  17.388   6.481
 3188POPC   C3A42581   4.134  17.248   6.879
 3188POPC   C4A42582   4.132  17.327   7.316
 3188POPC   C1B42583   4.445  17.818   6.294
 3188POPC   C2B42584   4.588  17.661   6.708
 3188POPC   C3B42585   4.626  17.394   7.078
 3188POPC   C4B42586   4.552  17.549   7.535
 3189POPC   NC342587  29.911  42.897   5.391
 3189POPC   PO442588  30.016  43.501   5.397
 3189POPC   GL142589  29.919  43.263   5.817
 3189POPC   GL242590  30.103  42.939   5.860
 3189POPC   C1A42591  29.971  43.148   6.300
 3189POPC   D2A42592  30.206  42.888   6.593
 3189POPC   C3A42593  30.205  43.133   6.959
 3189POPC   C4A42594  29.838  43.225   7.193
 3189POPC   C1B42595  29.657  42.847   6.026
 3189POPC   C2B42596  29.572  42.805   6.503
 3189POPC   C3B42597  29.775  42.808   6.909
 3189POPC   C4B42598  30.041  42.791   7.304
 3190POPC   NC342599  11.255  11.227   5.372
 3190POPC   PO442600  11.697  11.645   5.628
 3190POPC   GL142601  11.480  11.352   5.871
 3190POPC   GL242602  11.442  11.008   5.774
 3190POPC   C1A42603  11.361  11.400   6.313
 3190POPC   D2A42604  11.594  11.391   6.696
 3190POPC   C3A42605  11.490  11.679   7.020
 3190POPC   C4A42606  11.093  11.592   7.214
 3190POPC   C1B42607  11.063  11.079   6.022
 3190POPC   C2B42608  10.992  11.076   6.479
 3190POPC   C3B42609  11.143  11.196   6.892
 3190POPC   C4B42610  10.946  11.101   7.286
 3191POPC   NC342611  21.573  21.606   5.318
 3191POPC   PO442612  21.001  21.309   5.441
 3191POPC   GL142613  21.384  21.307   5.720
 3191POPC   GL242614  21.428  21.658   5.786
 3191POPC   C1A42615  21.605  21.377   6.166
 3191POPC   D2A42616  21.653  21.221   6.655
 3191POPC   C3A42617  21.392  21.251   7.057
 3191POPC   C4A42618  21.462  21.568   7.397
 3191POPC   C1B42619  21.287  21.826   6.149
 3191POPC   C2B42620  21.499  21.726   6.528
 3191POPC   C3B42621  21.453  21.736   6.930
 3191POPC   C4B42622  21.116  21.938   7.156
 3192POPC   NC342623  40.990  30.428   5.435
 3192POPC   PO442624  40.450  30.899   5.485
 3192POPC   GL142625  40.657  30.650   5.826
 3192POPC   GL242626  40.953  30.434   5.933
 3192POPC   C1A42627  40.692  30.737   6.266
 3192POPC   D2A42628  40.558  30.665   6.670
 3192POPC   C3A42629  40.776  30.842   7.038
 3192POPC   C4A42630  40.818  30.814   7.466
 3192POPC   C1B42631  41.055  30.379   6.358
 3192POPC   C2B42632  41.022  30.459   6.800
 3192POPC   C3B42633  41.142  30.441   7.245
 3192POPC   C4B42634  40.979  30.415   7.722
 3193POPC   NC342635  35.722   6.016   5.474
 3193POPC   PO442636  35.105   6.096   5.501
 3193POPC   GL142637  35.318   5.876   5.816
 3193POPC   GL242638  35.175   5.562   5.878
 3193POPC   C1A42639  35.359   5.949   6.253
 3193POPC   D2A42640  35.137   5.926   6.646
 3193POPC   C3A42641  35.322   6.024   7.043
 3193POPC   C4A42642  35.338   5.849   7.498
 3193POPC   C1B42643  34.987   5.586   6.256
 3193POPC   C2B42644  34.946   5.435   6.668
 3193POPC   C3B42645  34.928   5.643   7.058
 3193POPC   C4B42646  34.949   5.486   7.489
 3194POPC   NC342647  29.957  14.040   5.354
 3194POPC   PO442648  29.399  14.343   5.376
 3194POPC   GL142649  29.692  14.272   5.769
 3194POPC   GL242650  30.078  14.342   5.754
 3194POPC   C1A42651  29.876  14.136   6.179
 3194POPC   D2A42652  29.746  14.028   6.580
 3194POPC   C3A42653  29.841  14.268   6.935
 3194POPC   C4A42654  29.591  14.339   7.274
 3194POPC   C1B42655  30.084  14.640   6.084
 3194POPC   C2B42656  30.133  14.570   6.511
 3194POPC   C3B42657  30.280  14.561   6.940
 3194POPC   C4B42658  29.979  14.672   7.233
 3195POPC   NC342659  41.705   3.163   5.570
 3195POPC   PO442660  41.184   2.646   5.556
 3195POPC   GL142661  41.428   2.777   5.898
 3195POPC   GL242662  41.322   3.104   5.947
 3195POPC   C1A42663  41.681   2.530   6.196
 3195POPC   D2A42664  41.895   2.467   6.588
 3195POPC   C3A42665  41.725   2.590   6.993
 3195POPC   C4A42666  41.564   2.486   7.414
 3195POPC   C1B42667  41.577   3.027   6.343
 3195POPC   C2B42668  41.578   3.075   6.818
 3195POPC   C3B42669  41.497   2.975   7.265
 3195POPC   C4B42670  41.775   2.895   7.609
 3196POPC   NC342671  27.831  39.676   5.033
 3196POPC   PO442672  27.328  39.949   5.477
 3196POPC   GL142673  27.381  39.978   5.876
 3196POPC   GL242674  27.707  40.075   5.890
 3196POPC   C1A42675  27.467  39.832   6.283
 3196POPC   D2A42676  27.842  39.970   6.497
 3196POPC   C3A42677  27.779  40.036   6.892
 3196POPC   C4A42678  27.795  39.774   7.229
 3196POPC   C1B42679  27.596  40.332   6.231
 3196POPC   C2B42680  27.664  40.478   6.622
 3196POPC   C3B42681  27.432  40.390   7.026
 3196POPC   C4B42682  27.690  40.265   7.357
 3197POPC   NC342683  30.084  25.921   5.393
 3197POPC   PO442684  29.373  25.781   5.534
 3197POPC   GL142685  29.564  26.048   5.873
 3197POPC   GL242686  29.906  26.086   5.851
 3197POPC   C1A42687  29.680  26.130   6.321
 3197POPC   D2A42688  29.797  26.258   6.739
 3197POPC   C3A42689  29.889  25.869   6.923
 3197POPC   C4A42690  29.590  25.637   7.190
 3197POPC   C1B42691  30.151  26.261   6.150
 3197POPC   C2B42692  30.272  26.182   6.560
 3197POPC   C3B42693  30.252  26.464   6.935
 3197POPC   C4B42694  30.093  26.226   7.231
 3198POPC   NC342695  12.250   2.979   5.430
 3198POPC   PO442696  11.904   2.520   5.568
 3198POPC   GL142697  12.225   2.628   5.834
 3198POPC   GL242698  12.247   2.986   5.931
 3198POPC   C1A42699  12.156   2.627   6.265
 3198POPC   D2A42700  12.008   2.588   6.644
 3198POPC   C3A42701  12.240   2.740   6.953
 3198POPC   C4A42702  12.208   2.579   7.302
 3198POPC   C1B42703  11.791   2.922   6.059
 3198POPC   C2B42704  11.654   2.925   6.485
 3198POPC   C3B42705  11.793   3.021   6.904
 3198POPC   C4B42706  11.876   3.025   7.339
 3199POPC   NC342707   0.465  20.013   5.491
 3199POPC   PO442708   0.008  19.530   5.547
 3199POPC   GL142709   0.214  19.763   5.890
 3199POPC   GL242710   0.063  20.111   5.825
 3199POPC   C1A42711   0.585  19.855   6.196
 3199POPC   D2A42712   0.833  19.763   6.584
 3199POPC   C3A42713   0.674  19.821   6.994
 3199POPC   C4A42714   0.320  19.649   7.200
 3199POPC   C1B42715   0.132  20.083   6.284
 3199POPC   C2B42716   0.261  19.889   6.678
 3199POPC   C3B42717   0.180  20.118   7.070
 3199POPC   C4B42718   0.096  20.147   7.534
 3200POPC   NC342719  23.790   7.607   5.345
 3200POPC   PO442720  23.494   7.097   5.490
 3200POPC   GL142721  23.640   7.215   5.862
 3200POPC   GL242722  23.957   7.276   5.750
 3200POPC   C1A42723  23.677   7.281   6.307
 3200POPC   D2A42724  23.567   7.546   6.652
 3200POPC   C3A42725  23.548   7.389   7.067
 3200POPC   C4A42726  23.677   7.536   7.486
 3200POPC   C1B42727  24.104   7.517   6.095
 3200POPC   C2B42728  24.104   7.472   6.544
 3200POPC   C3B42729  24.017   7.603   6.963
 3200POPC   C4B42730  24.168   7.503   7.357
 3201POPC   NC342731  44.311   3.825   5.464
 3201POPC   PO442732  44.648   3.285   5.433
 3201POPC   GL142733  44.803   3.372   5.825
 3201POPC   GL242734  44.661   3.695   5.839
 3201POPC   C1A42735  44.949   3.310   6.222
 3201POPC   D2A42736   0.041   3.457   6.623
 3201POPC   C3A42737  44.692   3.584   6.848
 3201POPC   C4A42738  44.590   3.621   7.296
 3201POPC   C1B42739  44.818   3.812   6.266
 3201POPC   C2B42740  44.989   3.984   6.667
 3201POPC   C3B42741  44.961   3.920   7.118
 3201POPC   C4B42742   0.014   3.865   7.586
 3202POPC   NC342743  35.738  17.760   5.554
 3202POPC   PO442744  36.359  17.520   5.386
 3202POPC   GL142745  36.086  17.412   5.724
 3202POPC   GL242746  36.377  17.436   5.888
 3202POPC   C1A42747  35.974  17.423   6.180
 3202POPC   D2A42748  36.183  17.312   6.549
 3202POPC   C3A42749  35.880  17.337   6.854
 3202POPC   C4A42750  35.898  17.672   7.120
 3202POPC   C1B42751  36.404  17.746   6.212
 3202POPC   C2B42752  36.540  17.770   6.613
 3202POPC   C3B42753  36.393  17.544   6.967
 3202POPC   C4B42754  36.338  17.612   7.388
 3203POPC   NC342755   2.219  18.894   5.437
 3203POPC   PO442756   2.052  19.573   5.413
 3203POPC   GL142757   1.809  19.214   5.650
 3203POPC   GL242758   1.613  18.908   5.761
 3203POPC   C1A42759   1.779  19.233   6.112
 3203POPC   D2A42760   2.075  19.214   6.457
 3203POPC   C3A42761   2.054  19.137   6.913
 3203POPC   C4A42762   2.429  19.078   7.161
 3203POPC   C1B42763   1.794  18.737   6.177
 3203POPC   C2B42764   1.955  18.727   6.598
 3203POPC   C3B42765   1.824  18.680   7.000
 3203POPC   C4B42766   1.990  18.851   7.369
 3204POPC   NC342767   9.106  42.241   5.439
 3204POPC   PO442768   8.596  41.874   5.549
 3204POPC   GL142769   8.834  42.154   5.861
 3204POPC   GL242770   8.892  42.536   5.833
 3204POPC   C1A42771   9.009  42.268   6.268
 3204POPC   D2A42772   8.887  42.287   6.705
 3204POPC   C3A42773   9.210  42.471   6.985
 3204POPC   C4A42774   9.417  42.236   7.310
 3204POPC   C1B42775   8.738  42.715   6.263
 3204POPC   C2B42776   8.729  42.765   6.741
 3204POPC   C3B42777   8.722  42.502   7.153
 3204POPC   C4B42778   8.591  42.634   7.599
 3205POPC   NC342779  38.780  23.217   5.606
 3205POPC   PO442780  39.378  22.965   5.430
 3205POPC   GL142781  39.332  22.725   5.801
 3205POPC   GL242782  39.539  22.458   5.710
 3205POPC   C1A42783  39.166  22.791   6.220
 3205POPC   D2A42784  39.102  23.227   6.385
 3205POPC   C3A42785  39.123  23.208   6.831
 3205POPC   C4A42786  39.052  22.981   7.211
 3205POPC   C1B42787  39.531  22.419   6.175
 3205POPC   C2B42788  39.622  22.637   6.575
 3205POPC   C3B42789  39.640  22.507   7.012
 3205POPC   C4B42790  39.407  22.647   7.365
 3206POPC   NC342791  35.009   2.345   5.498
 3206POPC   PO442792  34.463   2.126   5.223
 3206POPC   GL142793  34.664   2.001   5.689
 3206POPC   GL242794  34.436   2.202   5.900
 3206POPC   C1A42795  34.778   1.966   6.189
 3206POPC   D2A42796  34.545   2.215   6.543
 3206POPC   C3A42797  34.597   2.075   6.995
 3206POPC   C4A42798  34.953   1.814   7.165
 3206POPC   C1B42799  34.285   1.888   6.228
 3206POPC   C2B42800  34.193   1.830   6.657
 3206POPC   C3B42801  34.204   1.799   7.099
 3206POPC   C4B42802  34.540   1.797   7.469
 3207POPC   NC342803  22.051   1.875   5.368
 3207POPC   PO442804  22.639   1.920   5.634
 3207POPC   GL142805  22.233   2.112   5.798
 3207POPC   GL242806  22.376   2.102   6.102
 3207POPC   C1A42807  21.910   2.012   6.171
 3207POPC   D2A42808  22.157   1.967   6.585
 3207POPC   C3A42809  22.052   2.069   7.028
 3207POPC   C4A42810  22.220   1.908   7.453
 3207POPC   C1B42811  22.562   1.788   6.289
 3207POPC   C2B42812  22.551   1.637   6.663
 3207POPC   C3B42813  22.531   1.847   7.029
 3207POPC   C4B42814  22.583   1.598   7.347
 3208POPC   NC342815  41.230  32.726   5.522
 3208POPC   PO442816  41.609  33.219   5.237
 3208POPC   GL142817  41.427  33.186   5.679
 3208POPC   GL242818  41.603  32.900   5.826
 3208POPC   C1A42819  41.455  33.239   6.162
 3208POPC   D2A42820  41.402  33.381   6.614
 3208POPC   C3A42821  41.280  33.041   6.830
 3208POPC   C4A42822  41.399  32.810   7.159
 3208POPC   C1B42823  41.814  32.780   6.167
 3208POPC   C2B42824  41.723  33.004   6.524
 3208POPC   C3B42825  41.813  33.096   6.925
 3208POPC   C4B42826  41.925  32.800   7.217
 3209POPC   NC342827  43.213  11.081   5.496
 3209POPC   PO442828  43.386  11.761   5.470
 3209POPC   GL142829  43.405  11.449   5.817
 3209POPC   GL242830  43.061  11.411   5.915
 3209POPC   C1A42831  43.409  11.095   6.150
 3209POPC   D2A42832  43.194  10.891   6.534
 3209POPC   C3A42833  43.091  11.169   6.905
 3209POPC   C4A42834  43.301  11.215   7.311
 3209POPC   C1B42835  43.001  11.352   6.350
 3209POPC   C2B42836  43.070  11.626   6.665
 3209POPC   C3B42837  42.866  11.717   6.990
 3209POPC   C4B42838  42.807  11.480   7.326
 3210POPC   NC342839  31.972  36.992   5.448
 3210POPC   PO442840  31.976  36.325   5.553
 3210POPC   GL142841  32.205  36.652   5.791
 3210POPC   GL242842  32.510  36.818   5.770
 3210POPC   C1A42843  32.116  36.944   6.140
 3210POPC   D2A42844  31.889  36.854   6.514
 3210POPC   C3A42845  32.026  37.056   6.901
 3210POPC   C4A42846  32.214  37.017   7.318
 3210POPC   C1B42847  32.602  36.800   6.225
 3210POPC   C2B42848  32.449  37.057   6.601
 3210POPC   C3B42849  32.472  37.340   7.005
 3210POPC   C4B42850  32.587  37.296   7.495
 3211POPC   NC342851  11.591  30.434   5.523
 3211POPC   PO442852  10.994  30.686   5.480
 3211POPC   GL142853  11.238  30.743   5.858
 3211POPC   GL242854  11.543  30.990   5.799
 3211POPC   C1A42855  11.223  30.506   6.258
 3211POPC   D2A42856  10.999  30.394   6.641
 3211POPC   C3A42857  11.081  30.647   7.024
 3211POPC   C4A42858  11.302  30.969   7.290
 3211POPC   C1B42859  11.661  30.769   6.174
 3211POPC   C2B42860  11.487  30.809   6.597
 3211POPC   C3B42861  11.683  30.933   6.966
 3211POPC   C4B42862  11.852  30.815   7.374
 3212POPC   NC342863  34.982  41.485   5.448
 3212POPC   PO442864  35.706  41.430   5.504
 3212POPC   GL142865  35.357  41.475   5.800
 3212POPC   GL242866  35.201  41.844   5.741
 3212POPC   C1A42867  35.139  41.335   6.194
 3212POPC   D2A42868  35.246  41.278   6.631
 3212POPC   C3A42869  35.375  41.441   7.014
 3212POPC   C4A42870  35.456  41.475   7.466
 3212POPC   C1B42871  35.297  41.824   6.171
 3212POPC   C2B42872  35.622  41.688   6.467
 3212POPC   C3B42873  35.679  41.842   6.889
 3212POPC   C4B42874  35.340  41.920   7.207
 3213POPC   NC342875  12.845  26.381   5.364
 3213POPC   PO442876  12.575  26.985   5.402
 3213POPC   GL142877  12.737  26.882   5.817
 3213POPC   GL242878  12.998  26.624   5.841
 3213POPC   C1A42879  12.636  26.787   6.235
 3213POPC   D2A42880  12.818  26.737   6.634
 3213POPC   C3A42881  12.526  26.803   6.946
 3213POPC   C4A42882  12.554  26.878   7.378
 3213POPC   C1B42883  13.163  26.808   6.226
 3213POPC   C2B42884  13.165  27.125   6.569
 3213POPC   C3B42885  12.987  27.090   6.999
 3213POPC   C4B42886  12.990  26.696   7.156
 3214POPC   NC342887  40.985   6.954   5.573
 3214POPC   PO442888  40.789   7.506   5.130
 3214POPC   GL142889  40.979   7.441   5.695
 3214POPC   GL242890  40.896   7.713   5.922
 3214POPC   C1A42891  40.898   7.252   6.134
 3214POPC   D2A42892  40.617   7.075   6.444
 3214POPC   C3A42893  40.661   7.278   6.827
 3214POPC   C4A42894  40.851   7.161   7.225
 3214POPC   C1B42895  40.972   7.717   6.356
 3214POPC   C2B42896  40.722   7.788   6.688
 3214POPC   C3B42897  40.895   7.667   7.066
 3214POPC   C4B42898  40.943   7.654   7.488
 3215POPC   NC342899  30.729   9.284   5.449
 3215POPC   PO442900  31.156   8.742   5.398
 3215POPC   GL142901  30.966   8.932   5.728
 3215POPC   GL242902  30.636   8.792   5.748
 3215POPC   C1A42903  30.847   9.095   6.115
 3215POPC   D2A42904  30.694   8.917   6.493
 3215POPC   C3A42905  30.747   9.187   6.814
 3215POPC   C4A42906  31.110   9.356   6.997
 3215POPC   C1B42907  30.336   8.927   6.097
 3215POPC   C2B42908  30.173   8.887   6.534
 3215POPC   C3B42909  30.339   8.882   6.956
 3215POPC   C4B42910  30.448   9.249   7.217
 3216POPC   NC342911  28.757  40.099   5.162
 3216POPC   PO442912  28.275  39.676   5.304
 3216POPC   GL142913  28.112  39.828   5.713
 3216POPC   GL242914  28.208  40.223   5.830
 3216POPC   C1A42915  28.182  39.835   6.151
 3216POPC   D2A42916  28.403  39.916   6.500
 3216POPC   C3A42917  28.246  40.228   6.745
 3216POPC   C4A42918  28.212  40.081   7.142
 3216POPC   C1B42919  28.526  40.316   6.200
 3216POPC   C2B42920  28.767  40.260   6.604
 3216POPC   C3B42921  28.716  40.116   7.015
 3216POPC   C4B42922  28.599  40.202   7.462
 3217POPC   NC342923  33.039  16.121   5.153
 3217POPC   PO442924  32.636  15.562   5.236
 3217POPC   GL142925  32.720  15.887   5.611
 3217POPC   GL242926  33.088  15.891   5.700
 3217POPC   C1A42927  32.711  16.075   6.064
 3217POPC   D2A42928  32.575  15.849   6.468
 3217POPC   C3A42929  32.527  15.891   6.946
 3217POPC   C4A42930  32.719  16.145   7.294
 3217POPC   C1B42931  33.167  15.867   6.159
 3217POPC   C2B42932  33.008  16.088   6.513
 3217POPC   C3B42933  33.043  15.954   6.918
 3217POPC   C4B42934  33.237  16.100   7.276
 3218POPC   NC342935  19.344  33.668   5.588
 3218POPC   PO442936  19.982  33.704   5.419
 3218POPC   GL142937  19.792  33.639   5.852
 3218POPC   GL242938  19.598  33.940   5.926
 3218POPC   C1A42939  19.814  33.711   6.332
 3218POPC   D2A42940  19.807  33.873   6.767
 3218POPC   C3A42941  19.988  33.639   7.084
 3218POPC   C4A42942  20.188  33.240   7.122
 3218POPC   C1B42943  19.911  34.182   6.158
 3218POPC   C2B42944  20.000  34.351   6.609
 3218POPC   C3B42945  19.898  34.282   7.070
 3218POPC   C4B42946  19.655  33.972   7.294
 3219POPC   NC342947  41.176  43.952   5.397
 3219POPC   PO442948  40.474  43.922   5.334
 3219POPC   GL142949  40.573  44.002   5.793
 3219POPC   GL242950  40.695  43.678   5.803
 3219POPC   C1A42951  40.826  43.958   6.233
 3219POPC   D2A42952  41.186  43.945   6.575
 3219POPC   C3A42953  41.078  43.900   7.022
 3219POPC   C4A42954  40.680  43.901   7.197
 3219POPC   C1B42955  40.644  43.464   6.183
 3219POPC   C2B42956  40.803  43.586   6.619
 3219POPC   C3B42957  40.729  43.388   7.017
 3219POPC   C4B42958  40.418  43.352   7.355
 3220POPC   NC342959  39.382   7.814   5.116
 3220POPC   PO442960  39.468   8.386   5.487
 3220POPC   GL142961  39.337   8.352   5.896
 3220POPC   GL242962  39.385   7.997   5.911
 3220POPC   C1A42963  39.326   8.304   6.341
 3220POPC   D2A42964  39.133   7.974   6.611
 3220POPC   C3A42965  39.246   8.121   7.030
 3220POPC   C4A42966  39.094   8.548   7.183
 3220POPC   C1B42967  39.593   7.873   6.274
 3220POPC   C2B42968  39.635   8.031   6.678
 3220POPC   C3B42969  39.740   8.036   7.110
 3220POPC   C4B42970  39.509   7.873   7.480
 3221POPC   NC342971  24.039  41.742   5.531
 3221POPC   PO442972  24.529  41.295   5.415
 3221POPC   GL142973  24.608  41.450   5.818
 3221POPC   GL242974  24.509  41.804   5.806
 3221POPC   C1A42975  24.451  41.251   6.219
 3221POPC   D2A42976  24.162  41.344   6.568
 3221POPC   C3A42977  24.396  41.447   6.936
 3221POPC   C4A42978  24.753  41.325   7.223
 3221POPC   C1B42979  24.255  41.723   6.178
 3221POPC   C2B42980  24.173  41.860   6.599
 3221POPC   C3B42981  24.367  41.961   6.991
 3221POPC   C4B42982  24.575  42.191   7.324
 3222POPC   NC342983  10.046  19.931   5.453
 3222POPC   PO442984  10.663  19.769   5.255
 3222POPC   GL142985  10.558  19.831   5.715
 3222POPC   GL242986  10.296  20.037   5.891
 3222POPC   C1A42987  10.611  19.689   6.149
 3222POPC   D2A42988  10.292  19.717   6.464
 3222POPC   C3A42989  10.332  19.714   6.881
 3222POPC   C4A42990  10.405  19.495   7.245
 3222POPC   C1B42991  10.498  20.158   6.289
 3222POPC   C2B42992  10.401  20.188   6.663
 3222POPC   C3B42993  10.226  20.215   6.988
 3222POPC   C4B42994  10.534  20.037   7.222
 3223POPC   NC342995  44.760  31.962   5.458
 3223POPC   PO442996  44.892  32.677   5.583
 3223POPC   GL142997  44.693  32.326   5.883
 3223POPC   GL242998  44.530  31.968   5.906
 3223POPC   C1A42999  44.615  32.215   6.334
 3223POPC   D2A43000  44.700  31.874   6.640
 3223POPC   C3A43001  44.611  32.100   7.015
 3223POPC   C4A43002  44.524  32.490   7.205
 3223POPC   C1B43003  44.918  31.854   6.160
 3223POPC   C2B43004   0.223  31.893   6.552
 3223POPC   C3B43005   0.081  31.882   7.023
 3223POPC   C4B43006  44.741  31.748   7.340
 3224POPC   NC343007   8.069   0.023   5.360
 3224POPC   PO443008   8.361   0.657   5.425
 3224POPC   GL143009   8.110   0.467   5.718
 3224POPC   GL243010   8.366   0.225   5.782
 3224POPC   C1A43011   8.037   0.461   6.169
 3224POPC   D2A43012   8.167   0.397   6.603
 3224POPC   C3A43013   7.910   0.343   6.959
 3224POPC   C4A43014   7.958   0.600   7.296
 3224POPC   C1B43015   8.368   0.078   6.220
 3224POPC   C2B43016   8.611   0.154   6.634
 3224POPC   C3B43017   8.344   0.072   6.981
 3224POPC   C4B43018   8.244   0.188   7.381
 3225POPC   NC343019   3.145  19.328   5.396
 3225POPC   PO443020   2.681  18.839   5.446
 3225POPC   GL143021   2.782  19.111   5.771
 3225POPC   GL243022   3.106  18.934   5.781
 3225POPC   C1A43023   2.567  19.222   6.197
 3225POPC   D2A43024   2.531  19.020   6.612
 3225POPC   C3A43025   2.864  19.167   6.860
 3225POPC   C4A43026   2.892  19.364   7.228
 3225POPC   C1B43027   2.870  18.787   6.156
 3225POPC   C2B43028   2.956  18.685   6.562
 3225POPC   C3B43029   2.832  18.673   6.963
 3225POPC   C4B43030   3.112  18.565   7.257
 3226POPC   NC343031  34.678  36.473   5.469
 3226POPC   PO443032  34.107  36.928   5.516
 3226POPC   GL143033  34.537  36.938   5.747
 3226POPC   GL243034  34.671  37.292   5.736
 3226POPC   C1A43035  34.668  36.832   6.221
 3226POPC   D2A43036  34.562  36.717   6.699
 3226POPC   C3A43037  34.694  36.914   7.102
 3226POPC   C4A43038  34.610  36.802   7.574
 3226POPC   C1B43039  34.371  37.249   6.110
 3226POPC   C2B43040  34.500  37.233   6.543
 3226POPC   C3B43041  34.352  37.267   6.960
 3226POPC   C4B43042  34.246  37.078   7.365
 3227POPC   NC343043  43.102  25.772   5.358
 3227POPC   PO443044  43.309  26.455   5.220
 3227POPC   GL143045  43.105  26.350   5.674
 3227POPC   GL243046  42.938  26.041   5.758
 3227POPC   C1A43047  43.126  26.277   6.154
 3227POPC   D2A43048  43.239  26.432   6.566
 3227POPC   C3A43049  42.991  26.254   6.884
 3227POPC   C4A43050  43.046  25.996   7.251
 3227POPC   C1B43051  42.692  25.971   6.094
 3227POPC   C2B43052  42.596  26.002   6.526
 3227POPC   C3B43053  42.720  25.808   6.923
 3227POPC   C4B43054  42.664  25.567   7.307
 3228POPC   NC343055  23.513  40.677   5.037
 3228POPC   PO443056  23.972  40.669   5.481
 3228POPC   GL143057  23.867  40.588   5.881
 3228POPC   GL243058  23.556  40.507   5.807
 3228POPC   C1A43059  23.830  40.782   6.280
 3228POPC   D2A43060  23.500  40.859   6.557
 3228POPC   C3A43061  23.591  40.979   6.984
 3228POPC   C4A43062  23.495  41.002   7.380
 3228POPC   C1B43063  23.453  40.432   6.176
 3228POPC   C2B43064  23.625  40.345   6.491
 3228POPC   C3B43065  23.567  40.489   6.885
 3228POPC   C4B43066  23.215  40.622   7.132
 3229POPC   NC343067   3.366  17.045   5.584
 3229POPC   PO443068   2.693  16.756   5.521
 3229POPC   GL143069   2.716  16.986   5.853
 3229POPC   GL243070   3.024  16.890   5.931
 3229POPC   C1A43071   2.654  16.819   6.285
 3229POPC   D2A43072   2.613  16.607   6.688
 3229POPC   C3A43073   2.507  16.750   7.111
 3229POPC   C4A43074   2.739  16.954   7.449
 3229POPC   C1B43075   3.273  16.974   6.287
 3229POPC   C2B43076   3.370  16.967   6.702
 3229POPC   C3B43077   3.103  16.898   7.085
 3229POPC   C4B43078   3.095  16.602   7.470
 3230POPC   NC343079   9.875  27.070   5.432
 3230POPC   PO443080  10.038  27.770   5.317
 3230POPC   GL143081   9.746  27.579   5.648
 3230POPC   GL243082   9.912  27.366   5.857
 3230POPC   C1A43083   9.543  27.667   6.066
 3230POPC   D2A43084   9.380  27.607   6.498
 3230POPC   C3A43085   9.599  27.669   6.908
 3230POPC   C4A43086   9.784  27.774   7.317
 3230POPC   C1B43087   9.825  27.312   6.300
 3230POPC   C2B43088  10.034  27.333   6.667
 3230POPC   C3B43089   9.970  27.363   7.066
 3230POPC   C4B43090   9.894  27.277   7.461
 3231POPC   NC343091  37.852  10.871   5.516
 3231POPC   PO443092  37.275  10.533   5.261
 3231POPC   GL143093  37.435  10.552   5.710
 3231POPC   GL243094  37.807  10.428   5.784
 3231POPC   C1A43095  37.505  10.517   6.170
 3231POPC   D2A43096  37.809  10.330   6.501
 3231POPC   C3A43097  37.753  10.454   6.960
 3231POPC   C4A43098  37.881  10.289   7.383
 3231POPC   C1B43099  37.994  10.698   6.140
 3231POPC   C2B43100  37.789  10.853   6.495
 3231POPC   C3B43101  37.826  10.982   6.902
 3231POPC   C4B43102  37.938  10.806   7.294
 3232POPC   NC343103   9.228  44.598   5.462
 3232POPC   PO443104   8.543  44.860   5.314
 3232POPC   GL143105   8.763  44.666   5.665
 3232POPC   GL243106   8.833  44.981   5.762
 3232POPC   C1A43107   9.023  44.563   6.082
 3232POPC   D2A43108   8.916  44.376   6.494
 3232POPC   C3A43109   9.116  44.492   6.887
 3232POPC   C4A43110   8.924  44.357   7.287
 3232POPC   C1B43111   8.878   0.049   6.186
 3232POPC   C2B43112   9.098  44.902   6.543
 3232POPC   C3B43113   9.047   0.010   6.971
 3232POPC   C4B43114   8.755   0.082   7.279
 3233POPC   NC343115  13.872   2.575   5.452
 3233POPC   PO443116  13.387   3.086   5.323
 3233POPC   GL143117  13.556   2.908   5.730
 3233POPC   GL243118  13.452   2.553   5.739
 3233POPC   C1A43119  13.547   2.766   6.201
 3233POPC   D2A43120  13.851   2.651   6.523
 3233POPC   C3A43121  13.715   2.829   6.890
 3233POPC   C4A43122  13.558   2.940   7.286
 3233POPC   C1B43123  13.147   2.401   6.036
 3233POPC   C2B43124  13.054   2.510   6.460
 3233POPC   C3B43125  13.258   2.589   6.875
 3233POPC   C4B43126  13.101   2.673   7.301
 3234POPC   NC343127  44.496  42.091   5.091
 3234POPC   PO443128  44.828  42.521   5.444
 3234POPC   GL143129  44.718  42.682   5.854
 3234POPC   GL243130  44.384  42.544   5.766
 3234POPC   C1A43131  44.898  42.694   6.313
 3234POPC   D2A43132  44.867  42.841   6.774
 3234POPC   C3A43133  44.861  42.630   7.182
 3234POPC   C4A43134  44.840  42.546   7.623
 3234POPC   C1B43135  44.476  42.350   6.168
 3234POPC   C2B43136  44.713  42.248   6.554
 3234POPC   C3B43137  44.559  42.250   6.972
 3234POPC   C4B43138  44.357  42.454   7.335
 3235POPC   NC343139  26.267  24.762   5.084
 3235POPC   PO443140  25.995  24.157   5.277
 3235POPC   GL143141  26.222  24.454   5.617
 3235POPC   GL243142  26.514  24.638   5.697
 3235POPC   C1A43143  26.165  24.505   6.089
 3235POPC   D2A43144  25.995  24.463   6.524
 3235POPC   C3A43145  26.067  24.452   6.980
 3235POPC   C4A43146  25.677  24.238   7.191
 3235POPC   C1B43147  26.540  24.838   6.119
 3235POPC   C2B43148  26.188  24.934   6.445
 3235POPC   C3B43149  26.141  24.997   6.913
 3235POPC   C4B43150  26.301  24.824   7.316
 3236POPC   NC343151  33.296  18.884   5.315
 3236POPC   PO443152  32.602  19.076   5.429
 3236POPC   GL143153  32.824  18.978   5.849
 3236POPC   GL243154  33.199  18.906   5.862
 3236POPC   C1A43155  32.701  19.145   6.283
 3236POPC   D2A43156  32.479  19.038   6.692
 3236POPC   C3A43157  32.629  19.175   7.125
 3236POPC   C4A43158  32.692  18.868   7.473
 3236POPC   C1B43159  33.205  19.208   6.255
 3236POPC   C2B43160  33.016  19.248   6.704
 3236POPC   C3B43161  33.090  18.988   7.094
 3236POPC   C4B43162  33.156  19.039   7.543
 3237POPC   NC343163  30.141   9.419   5.220
 3237POPC   PO443164  29.596   9.698   5.315
 3237POPC   GL143165  29.757   9.688   5.756
 3237POPC   GL243166  30.111   9.774   5.818
 3237POPC   C1A43167  29.700   9.859   6.174
 3237POPC   D2A43168  29.561   9.907   6.615
 3237POPC   C3A43169  29.750   9.698   6.974
 3237POPC   C4A43170  30.198   9.722   7.096
 3237POPC   C1B43171  30.212   9.849   6.267
 3237POPC   C2B43172  30.078   9.985   6.673
 3237POPC   C3B43173  29.922  10.176   7.071
 3237POPC   C4B43174  30.046  10.299   7.465
 3238POPC   NC343175  28.719  32.952   5.186
 3238POPC   PO443176  28.036  32.981   5.423
 3238POPC   GL143177  28.202  32.947   5.858
 3238POPC   GL243178  28.142  33.273   5.989
 3238POPC   C1A43179  28.370  32.770   6.263
 3238POPC   D2A43180  28.565  32.871   6.643
 3238POPC   C3A43181  28.325  33.092   6.920
 3238POPC   C4A43182  28.453  33.141   7.314
 3238POPC   C1B43183  28.535  33.250   6.239
 3238POPC   C2B43184  28.598  33.409   6.616
 3238POPC   C3B43185  28.800  33.276   6.951
 3238POPC   C4B43186  28.777  33.532   7.262
 3239POPC   NC343187  27.660   9.203   5.313
 3239POPC   PO443188  27.544   8.518   5.457
 3239POPC   GL143189  27.744   8.817   5.708
 3239POPC   GL243190  27.634   9.158   5.824
 3239POPC   C1A43191  27.764   8.779   6.156
 3239POPC   D2A43192  27.488   8.875   6.480
 3239POPC   C3A43193  27.613   8.796   6.894
 3239POPC   C4A43194  27.717   8.929   7.292
 3239POPC   C1B43195  27.689   9.324   6.250
 3239POPC   C2B43196  27.769   9.282   6.701
 3239POPC   C3B43197  27.490   9.318   7.025
 3239POPC   C4B43198  27.453   9.321   7.458
 3240POPC   NC343199  12.328  35.753   5.480
 3240POPC   PO443200  11.954  35.154   5.379
 3240POPC   GL143201  11.809  35.169   5.792
 3240POPC   GL243202  11.922  35.519   5.790
 3240POPC   C1A43203  11.821  35.244   6.219
 3240POPC   D2A43204  11.873  35.468   6.580
 3240POPC   C3A43205  11.967  35.141   6.851
 3240POPC   C4A43206  12.094  35.217   7.219
 3240POPC   C1B43207  12.017  35.817   6.148
 3240POPC   C2B43208  12.284  35.786   6.518
 3240POPC   C3B43209  12.312  35.611   6.911
 3240POPC   C4B43210  12.172  35.714   7.296
 3241POPC   NC343211  27.374  40.401   5.548
 3241POPC   PO443212  27.766  40.915   5.385
 3241POPC   GL143213  27.511  40.837   5.763
 3241POPC   GL243214  27.745  40.598   5.848
 3241POPC   C1A43215  27.269  40.718   6.183
 3241POPC   D2A43216  27.231  40.726   6.660
 3241POPC   C3A43217  27.444  40.896   7.043
 3241POPC   C4A43218  27.371  40.784   7.490
 3241POPC   C1B43219  27.747  40.923   6.197
 3241POPC   C2B43220  27.700  41.037   6.621
 3241POPC   C3B43221  27.863  41.169   7.028
 3241POPC   C4B43222  27.831  40.975   7.390
 3242POPC   NC343223  35.798   8.668   5.346
 3242POPC   PO443224  36.332   9.037   5.257
 3242POPC   GL143225  36.268   8.822   5.660
 3242POPC   GL243226  35.961   8.843   5.800
 3242POPC   C1A43227  36.380   8.804   6.122
 3242POPC   D2A43228  36.174   8.805   6.543
 3242POPC   C3A43229  36.327   8.657   6.935
 3242POPC   C4A43230  36.328   9.007   7.225
 3242POPC   C1B43231  35.917   8.592   6.163
 3242POPC   C2B43232  35.718   8.593   6.590
 3242POPC   C3B43233  35.817   8.869   6.944
 3242POPC   C4B43234  35.970   8.676   7.316
 3243POPC   NC343235  34.767  17.716   5.377
 3243POPC   PO443236  34.327  17.354   5.279
 3243POPC   GL143237  34.391  17.526   5.682
 3243POPC   GL243238  34.619  17.282   5.741
 3243POPC   C1A43239  34.442  17.734   6.091
 3243POPC   D2A43240  34.376  17.798   6.534
 3243POPC   C3A43241  34.450  17.450   6.819
 3243POPC   C4A43242  34.458  17.578   7.235
 3243POPC   C1B43243  34.744  17.314   6.190
 3243POPC   C2B43244  34.942  17.340   6.608
 3243POPC   C3B43245  34.891  17.189   7.029
 3243POPC   C4B43246  34.986  17.459   7.351
 3244POPC   NC343247  38.549   7.567   5.206
 3244POPC   PO443248  38.056   7.221   5.594
 3244POPC   GL143249  38.462   7.184   5.755
 3244POPC   GL243250  38.613   7.527   5.725
 3244POPC   C1A43251  38.557   7.155   6.203
 3244POPC   D2A43252  38.329   7.355   6.575
 3244POPC   C3A43253  38.492   7.296   6.991
 3244POPC   C4A43254  38.738   7.253   7.354
 3244POPC   C1B43255  38.558   7.679   6.157
 3244POPC   C2B43256  38.620   7.885   6.549
 3244POPC   C3B43257  38.470   7.812   6.947
 3244POPC   C4B43258  38.611   7.770   7.322
 3245POPC   NC343259  13.856  18.680   5.517
 3245POPC   PO443260  13.520  18.089   5.489
 3245POPC   GL143261  13.629  18.297   5.868
 3245POPC   GL243262  13.462  18.643   5.854
 3245POPC   C1A43263  13.896  18.245   6.235
 3245POPC   D2A43264  13.954  18.127   6.690
 3245POPC   C3A43265  13.812  18.434   7.022
 3245POPC   C4A43266  13.680  18.325   7.463
 3245POPC   C1B43267  13.545  18.674   6.277
 3245POPC   C2B43268  13.509  18.372   6.587
 3245POPC   C3B43269  13.307  18.407   6.943
 3245POPC   C4B43270  13.283  18.609   7.283
 3246POPC   NC343271  28.124  13.602   5.286
 3246POPC   PO443272  27.480  13.787   5.220
 3246POPC   GL143273  27.665  13.590   5.597
 3246POPC   GL243274  27.434  13.811   5.780
 3246POPC   C1A43275  27.653  13.444   6.055
 3246POPC   D2A43276  27.513  13.245   6.468
 3246POPC   C3A43277  27.512  13.426   6.917
 3246POPC   C4A43278  27.848  13.567   7.184
 3246POPC   C1B43279  27.335  13.804   6.247
 3246POPC   C2B43280  27.524  13.862   6.667
 3246POPC   C3B43281  27.436  13.929   7.105
 3246POPC   C4B43282  27.616  13.901   7.508
 3247POPC   NC343283  27.148  25.449   5.381
 3247POPC   PO443284  26.553  25.037   5.357
 3247POPC   GL143285  26.649  25.315   5.741
 3247POPC   GL243286  26.991  25.385   5.864
 3247POPC   C1A43287  26.595  25.333   6.212
 3247POPC   D2A43288  26.584  25.181   6.624
 3247POPC   C3A43289  26.773  25.390   6.945
 3247POPC   C4A43290  26.606  25.205   7.245
 3247POPC   C1B43291  27.032  25.080   6.188
 3247POPC   C2B43292  27.091  25.141   6.619
 3247POPC   C3B43293  27.036  24.960   7.040
 3247POPC   C4B43294  27.285  24.867   7.414
 3248POPC   NC343295  30.164   6.026   5.367
 3248POPC   PO443296  29.661   5.564   5.269
 3248POPC   GL143297  29.744   5.861   5.683
 3248POPC   GL243298  29.688   5.618   5.860
 3248POPC   C1A43299  29.964   6.010   6.105
 3248POPC   D2A43300  30.099   5.854   6.525
 3248POPC   C3A43301  29.907   5.991   6.911
 3248POPC   C4A43302  30.015   6.193   7.289
 3248POPC   C1B43303  29.718   5.565   6.287
 3248POPC   C2B43304  29.694   5.512   6.727
 3248POPC   C3B43305  29.530   5.554   7.139
 3248POPC   C4B43306  29.446   5.629   7.572
 3249POPC   NC343307  26.787  37.217   5.586
 3249POPC   PO443308  27.017  36.632   5.387
 3249POPC   GL143309  27.064  36.746   5.814
 3249POPC   GL243310  26.761  36.905   6.009
 3249POPC   C1A43311  27.075  36.573   6.233
 3249POPC   D2A43312  27.045  36.931   6.485
 3249POPC   C3A43313  26.826  36.990   6.829
 3249POPC   C4A43314  26.907  36.771   7.194
 3249POPC   C1B43315  26.711  37.297   6.271
 3249POPC   C2B43316  26.574  37.423   6.681
 3249POPC   C3B43317  26.466  37.243   7.062
 3249POPC   C4B43318  26.810  37.259   7.324
 3250POPC   NC343319  31.545  19.819   5.320
 3250POPC   PO443320  31.614  19.131   5.289
 3250POPC   GL143321  31.685  19.533   5.708
 3250POPC   GL243322  31.725  19.919   5.771
 3250POPC   C1A43323  31.463  19.660   6.110
 3250POPC   D2A43324  31.613  19.582   6.544
 3250POPC   C3A43325  31.372  19.668   6.929
 3250POPC   C4A43326  31.139  19.986   7.197
 3250POPC   C1B43327  31.697  20.127   6.172
 3250POPC   C2B43328  31.716  20.152   6.618
 3250POPC   C3B43329  31.630  20.145   7.062
 3250POPC   C4B43330  31.593  19.847   7.355
 3251POPC   NC343331   6.460  12.368   5.629
 3251POPC   PO443332   6.998  12.692   5.490
 3251POPC   GL143333   6.827  12.613   5.920
 3251POPC   GL243334   6.551  12.829   5.880
 3251POPC   C1A43335   6.738  12.531   6.405
 3251POPC   D2A43336   6.628  12.539   6.879
 3251POPC   C3A43337   6.781  12.807   7.209
 3251POPC   C4A43338   6.816  12.738   7.680
 3251POPC   C1B43339   6.639  13.015   6.293
 3251POPC   C2B43340   6.415  12.964   6.686
 3251POPC   C3B43341   6.270  12.936   7.108
 3251POPC   C4B43342   6.475  13.102   7.491
 3252POPC   NC343343  14.796  30.878   5.636
 3252POPC   PO443344  15.316  30.449   5.554
 3252POPC   GL143345  15.342  30.697   5.899
 3252POPC   GL243346  15.641  30.905   5.871
 3252POPC   C1A43347  15.070  30.836   6.234
 3252POPC   D2A43348  14.965  30.748   6.622
 3252POPC   C3A43349  15.099  31.018   6.895
 3252POPC   C4A43350  15.082  30.868   7.305
 3252POPC   C1B43351  15.567  30.875   6.325
 3252POPC   C2B43352  15.475  30.702   6.711
 3252POPC   C3B43353  15.540  30.829   7.119
 3252POPC   C4B43354  15.517  30.986   7.556
 3253POPC   NC343355  19.467   4.003   5.367
 3253POPC   PO443356  20.153   4.215   5.347
 3253POPC   GL143357  19.782   4.372   5.671
 3253POPC   GL243358  19.946   4.217   5.938
 3253POPC   C1A43359  19.660   4.570   6.126
 3253POPC   D2A43360  19.892   4.363   6.497
 3253POPC   C3A43361  19.919   4.542   6.911
 3253POPC   C4A43362  19.634   4.552   7.256
 3253POPC   C1B43363  19.588   4.067   6.202
 3253POPC   C2B43364  19.639   3.884   6.629
 3253POPC   C3B43365  19.657   4.102   7.016
 3253POPC   C4B43366  19.737   4.105   7.465
 3254POPC   NC343367  40.337  11.195   5.624
 3254POPC   PO443368  39.745  11.110   5.366
 3254POPC   GL143369  39.855  11.197   5.803
 3254POPC   GL243370  39.832  11.563   5.888
 3254POPC   C1A43371  39.952  11.091   6.230
 3254POPC   D2A43372  40.163  11.240   6.600
 3254POPC   C3A43373  39.944  11.345   6.991
 3254POPC   C4A43374  39.834  11.030   7.283
 3254POPC   C1B43375  40.228  11.543   6.164
 3254POPC   C2B43376  40.514  11.720   6.487
 3254POPC   C3B43377  40.394  11.573   6.915
 3254POPC   C4B43378  40.273  11.570   7.367
 3255POPC   NC343379  21.754   9.358   5.365
 3255POPC   PO443380  21.365   8.882   5.393
 3255POPC   GL143381  21.282   9.157   5.750
 3255POPC   GL243382  21.062   8.947   6.007
 3255POPC   C1A43383  21.382   9.287   6.187
 3255POPC   D2A43384  21.216   8.997   6.539
 3255POPC   C3A43385  21.121   8.967   6.985
 3255POPC   C4A43386  21.327   9.160   7.323
 3255POPC   C1B43387  21.440   8.741   6.157
 3255POPC   C2B43388  21.529   8.544   6.566
 3255POPC   C3B43389  21.580   8.742   6.982
 3255POPC   C4B43390  21.381   8.642   7.378
 3256POPC   NC343391  44.236  30.032   5.003
 3256POPC   PO443392  43.765  29.964   5.435
 3256POPC   GL143393  43.874  29.864   5.829
 3256POPC   GL243394  43.597  29.640   5.879
 3256POPC   C1A43395  44.098  30.044   6.183
 3256POPC   D2A43396  44.145  29.872   6.576
 3256POPC   C3A43397  44.075  30.133   6.914
 3256POPC   C4A43398  44.219  30.329   7.270
 3256POPC   C1B43399  43.664  29.756   6.322
 3256POPC   C2B43400  43.688  29.766   6.782
 3256POPC   C3B43401  43.657  29.635   7.203
 3256POPC   C4B43402  43.688  29.791   7.606
 3257POPC   NC343403   7.760  35.079   5.464
 3257POPC   PO443404   7.275  35.498   5.387
 3257POPC   GL143405   7.445  35.396   5.769
 3257POPC   GL243406   7.608  35.660   5.904
 3257POPC   C1A43407   7.434  35.237   6.209
 3257POPC   D2A43408   7.153  35.292   6.558
 3257POPC   C3A43409   7.023  35.113   6.938
 3257POPC   C4A43410   6.980  35.433   7.225
 3257POPC   C1B43411   7.796  35.630   6.293
 3257POPC   C2B43412   7.679  35.415   6.661
 3257POPC   C3B43413   7.473  35.382   7.059
 3257POPC   C4B43414   7.649  35.261   7.455
 3258POPC   NC343415  26.974  23.769   5.444
 3258POPC   PO443416  26.321  23.416   5.479
 3258POPC   GL143417  26.598  23.665   5.838
 3258POPC   GL243418  26.958  23.684   5.946
 3258POPC   C1A43419  26.641  23.851   6.297
 3258POPC   D2A43420  26.868  24.059   6.679
 3258POPC   C3A43421  26.715  23.884   7.054
 3258POPC   C4A43422  26.418  23.525   7.121
 3258POPC   C1B43423  27.092  23.666   6.402
 3258POPC   C2B43424  27.391  23.947   6.636
 3258POPC   C3B43425  27.313  24.022   7.060
 3258POPC   C4B43426  27.153  23.642   7.181
 3259POPC   NC343427  34.652   0.853   5.506
 3259POPC   PO443428  34.363   0.253   5.560
 3259POPC   GL143429  34.480   0.523   5.864
 3259POPC   GL243430  34.214   0.754   5.777
 3259POPC   C1A43431  34.802   0.558   6.154
 3259POPC   D2A43432  34.910   0.434   6.576
 3259POPC   C3A43433  34.670   0.579   6.919
 3259POPC   C4A43434  34.840   0.497   7.324
 3259POPC   C1B43435  34.383   0.966   6.145
 3259POPC   C2B43436  34.334   0.884   6.590
 3259POPC   C3B43437  34.295   1.009   7.013
 3259POPC   C4B43438  34.367   0.723   7.345
 3260POPC   NC343439  29.146  27.176   5.189
 3260POPC   PO443440  29.433  27.665   5.524
 3260POPC   GL143441  29.241  27.761   5.841
 3260POPC   GL243442  29.504  27.973   5.922
 3260POPC   C1A43443  29.062  27.712   6.235
 3260POPC   D2A43444  29.200  27.491   6.563
 3260POPC   C3A43445  29.175  27.657   6.966
 3260POPC   C4A43446  29.556  27.567   7.164
 3260POPC   C1B43447  29.523  27.915   6.325
 3260POPC   C2B43448  29.278  28.044   6.631
 3260POPC   C3B43449  29.538  28.038   6.964
 3260POPC   C4B43450  29.401  28.001   7.361
 3261POPC   NC343451  31.570   4.071   5.228
 3261POPC   PO443452  31.039   4.463   5.384
 3261POPC   GL143453  31.322   4.256   5.719
 3261POPC   GL243454  31.640   4.032   5.725
 3261POPC   C1A43455  31.254   4.154   6.164
 3261POPC   D2A43456  31.213   4.060   6.620
 3261POPC   C3A43457  31.218   4.268   7.044
 3261POPC   C4A43458  31.242   4.347   7.555
 3261POPC   C1B43459  31.762   4.223   6.089
 3261POPC   C2B43460  31.619   4.332   6.473
 3261POPC   C3B43461  31.690   4.169   6.863
 3261POPC   C4B43462  31.671   4.347   7.266
 3262POPC   NC343463  21.976   0.932   5.577
 3262POPC   PO443464  22.347   1.417   5.357
 3262POPC   GL143465  22.282   1.292   5.789
 3262POPC   GL243466  22.289   1.613   5.892
 3262POPC   C1A43467  22.205   1.024   6.172
 3262POPC   D2A43468  21.914   0.962   6.491
 3262POPC   C3A43469  22.076   0.969   6.898
 3262POPC   C4A43470  21.908   1.133   7.262
 3262POPC   C1B43471  21.973   1.494   6.195
 3262POPC   C2B43472  22.063   1.430   6.610
 3262POPC   C3B43473  22.183   1.480   7.005
 3262POPC   C4B43474  21.846   1.640   7.199
 3263POPC   NC343475   2.802  17.984   5.538
 3263POPC   PO443476   3.031  17.341   5.534
 3263POPC   GL143477   2.717  17.509   5.788
 3263POPC   GL243478   2.955  17.714   5.979
 3263POPC   C1A43479   2.489  17.634   6.193
 3263POPC   D2A43480   2.746  17.604   6.588
 3263POPC   C3A43481   2.770  17.743   6.983
 3263POPC   C4A43482   2.448  17.591   7.272
 3263POPC   C1B43483   2.875  17.294   6.214
 3263POPC   C2B43484   2.866  17.102   6.634
 3263POPC   C3B43485   2.697  17.224   6.997
 3263POPC   C4B43486   2.928  17.391   7.319
 3264POPC   NC343487   0.669  35.697   5.292
 3264POPC   PO443488   0.561  34.985   5.354
 3264POPC   GL143489   0.575  35.336   5.729
 3264POPC   GL243490   0.791  35.636   5.795
 3264POPC   C1A43491   0.469  35.482   6.197
 3264POPC   D2A43492   0.442  35.337   6.625
 3264POPC   C3A43493   0.445  35.515   7.037
 3264POPC   C4A43494   0.183  35.498   7.424
 3264POPC   C1B43495   0.932  35.333   6.087
 3264POPC   C2B43496   0.942  35.195   6.501
 3264POPC   C3B43497   0.855  35.196   6.928
 3264POPC   C4B43498   0.968  35.504   7.191
 3265POPC   NC343499  16.966  27.401   5.169
 3265POPC   PO443500  16.586  27.860   5.278
 3265POPC   GL143501  16.485  27.643   5.697
 3265POPC   GL243502  16.772  27.479   5.880
 3265POPC   C1A43503  16.359  27.596   6.149
 3265POPC   D2A43504  16.340  27.776   6.564
 3265POPC   C3A43505  16.525  27.545   6.896
 3265POPC   C4A43506  16.464  27.727   7.267
 3265POPC   C1B43507  16.822  27.542   6.379
 3265POPC   C2B43508  17.006  27.395   6.799
 3265POPC   C3B43509  17.024  27.505   7.251
 3265POPC   C4B43510  17.148  27.360   7.662
 3266POPC   NC343511  38.962  21.700   5.376
 3266POPC   PO443512  39.184  20.990   5.239
 3266POPC   GL143513  39.032  21.229   5.597
 3266POPC   GL243514  39.270  21.467   5.716
 3266POPC   C1A43515  38.918  21.355   6.062
 3266POPC   D2A43516  38.908  21.455   6.507
 3266POPC   C3A43517  39.046  21.156   6.829
 3266POPC   C4A43518  39.278  21.330   7.163
 3266POPC   C1B43519  39.381  21.568   6.156
 3266POPC   C2B43520  39.384  21.616   6.624
 3266POPC   C3B43521  39.105  21.756   6.952
 3266POPC   C4B43522  39.230  21.786   7.400
 3267POPC   NC343523   4.837  36.792   5.330
 3267POPC   PO443524   5.497  36.815   5.412
 3267POPC   GL143525   5.151  36.973   5.712
 3267POPC   GL243526   4.852  36.764   5.823
 3267POPC   C1A43527   5.152  37.008   6.179
 3267POPC   D2A43528   5.344  37.124   6.579
 3267POPC   C3A43529   5.310  36.900   6.958
 3267POPC   C4A43530   5.402  36.957   7.378
 3267POPC   C1B43531   4.941  36.552   6.190
 3267POPC   C2B43532   4.932  36.744   6.582
 3267POPC   C3B43533   4.899  36.596   6.968
 3267POPC   C4B43534   4.910  36.829   7.297
 3268POPC   NC343535  22.860  36.768   5.573
 3268POPC   PO443536  23.341  37.291   5.327
 3268POPC   GL143537  23.228  37.107   5.811
 3268POPC   GL243538  23.053  36.794   6.031
 3268POPC   C1A43539  23.059  37.214   6.270
 3268POPC   D2A43540  23.018  36.982   6.640
 3268POPC   C3A43541  22.996  37.238   6.989
 3268POPC   C4A43542  23.161  36.985   7.289
 3268POPC   C1B43543  22.747  36.641   6.322
 3268POPC   C2B43544  22.745  36.494   6.761
 3268POPC   C3B43545  22.729  36.780   7.123
 3268POPC   C4B43546  22.786  36.800   7.597
 3269POPC   NC343547  14.176  14.632   5.311
 3269POPC   PO443548  14.394  13.976   5.364
 3269POPC   GL143549  14.237  14.258   5.661
 3269POPC   GL243550  14.507  14.494   5.696
 3269POPC   C1A43551  14.278  14.272   6.117
 3269POPC   D2A43552  14.516  14.374   6.477
 3269POPC   C3A43553  14.369  14.621   6.820
 3269POPC   C4A43554  14.115  14.397   7.130
 3269POPC   C1B43555  14.779  14.593   6.070
 3269POPC   C2B43556  14.810  14.774   6.495
 3269POPC   C3B43557  14.901  14.671   6.910
 3269POPC   C4B43558  14.658  14.590   7.250
 3270POPC   NC343559  13.788  31.557   5.263
 3270POPC   PO443560  13.448  31.135   5.676
 3270POPC   GL143561  13.770  31.289   5.864
 3270POPC   GL243562  13.717  31.648   5.808
 3270POPC   C1A43563  13.719  31.376   6.288
 3270POPC   D2A43564  13.770  31.709   6.610
 3270POPC   C3A43565  13.775  31.507   7.034
 3270POPC   C4A43566  13.776  31.186   7.365
 3270POPC   C1B43567  13.480  31.817   6.173
 3270POPC   C2B43568  13.239  31.854   6.546
 3270POPC   C3B43569  13.365  31.812   6.952
 3270POPC   C4B43570  13.393  31.655   7.360
 3271POPC   NC343571  16.132  13.133   5.460
 3271POPC   PO443572  15.754  12.614   5.311
 3271POPC   GL143573  15.901  12.785   5.737
 3271POPC   GL243574  16.231  12.713   5.786
 3271POPC   C1A43575  15.687  12.926   6.124
 3271POPC   D2A43576  15.814  12.862   6.525
 3271POPC   C3A43577  15.600  12.837   6.870
 3271POPC   C4A43578  15.786  12.899   7.257
 3271POPC   C1B43579  16.197  12.949   6.182
 3271POPC   C2B43580  16.128  13.264   6.481
 3271POPC   C3B43581  16.125  13.170   6.910
 3271POPC   C4B43582  16.313  13.444   7.216
 3272POPC   NC343583   3.131  40.523   5.412
 3272POPC   PO443584   2.814  41.111   5.299
 3272POPC   GL143585   2.798  40.855   5.699
 3272POPC   GL243586   2.630  40.511   5.610
 3272POPC   C1A43587   2.935  40.917   6.161
 3272POPC   D2A43588   2.921  40.649   6.539
 3272POPC   C3A43589   2.965  40.807   6.974
 3272POPC   C4A43590   2.572  41.000   7.144
 3272POPC   C1B43591   2.737  40.445   6.053
 3272POPC   C2B43592   2.438  40.509   6.419
 3272POPC   C3B43593   2.501  40.566   6.881
 3272POPC   C4B43594   2.707  40.516   7.322
 3273POPC   NC343595   2.303  37.309   5.472
 3273POPC   PO443596   2.248  37.987   5.345
 3273POPC   GL143597   2.064  37.721   5.722
 3273POPC   GL243598   2.331  37.687   5.848
 3273POPC   C1A43599   1.996  37.885   6.168
 3273POPC   D2A43600   2.232  37.790   6.547
 3273POPC   C3A43601   1.931  37.694   6.872
 3273POPC   C4A43602   1.805  37.873   7.256
 3273POPC   C1B43603   2.224  37.390   6.162
 3273POPC   C2B43604   2.357  37.279   6.579
 3273POPC   C3B43605   2.404  37.504   6.966
 3273POPC   C4B43606   2.152  37.503   7.326
 3274POPC   NC343607   5.592  27.911   5.461
 3274POPC   PO443608   5.420  28.561   5.361
 3274POPC   GL143609   5.787  28.475   5.652
 3274POPC   GL243610   5.573  28.311   5.831
 3274POPC   C1A43611   5.959  28.489   6.120
 3274POPC   D2A43612   5.961  28.703   6.552
 3274POPC   C3A43613   6.195  28.483   6.891
 3274POPC   C4A43614   6.114  28.366   7.311
 3274POPC   C1B43615   5.443  28.526   6.216
 3274POPC   C2B43616   5.468  28.418   6.660
 3274POPC   C3B43617   5.692  28.556   7.026
 3274POPC   C4B43618   5.590  28.810   7.379
 3275POPC   NC343619  13.147  33.174   5.432
 3275POPC   PO443620  13.765  32.800   5.378
 3275POPC   GL143621  13.555  32.968   5.730
 3275POPC   GL243622  13.281  32.760   5.808
 3275POPC   C1A43623  13.745  33.056   6.127
 3275POPC   D2A43624  13.897  33.290   6.467
 3275POPC   C3A43625  13.600  33.328   6.795
 3275POPC   C4A43626  13.715  33.314   7.182
 3275POPC   C1B43627  13.319  32.794   6.247
 3275POPC   C2B43628  13.592  32.836   6.588
 3275POPC   C3B43629  13.772  32.836   6.981
 3275POPC   C4B43630  13.569  32.883   7.397
 3276POPC   NC343631   9.057  17.773   5.223
 3276POPC   PO443632   8.695  17.162   5.315
 3276POPC   GL143633   8.797  17.523   5.657
 3276POPC   GL243634   9.130  17.700   5.721
 3276POPC   C1A43635   8.753  17.502   6.137
 3276POPC   D2A43636   8.944  17.304   6.498
 3276POPC   C3A43637   8.870  17.480   6.946
 3276POPC   C4A43638   8.958  17.446   7.407
 3276POPC   C1B43639   9.247  17.484   6.087
 3276POPC   C2B43640   9.255  17.696   6.443
 3276POPC   C3B43641   9.269  17.785   6.828
 3276POPC   C4B43642   9.430  17.621   7.208
 3277POPC   NC343643   4.047  40.123   5.378
 3277POPC   PO443644   4.713  39.932   5.405
 3277POPC   GL143645   4.482  40.101   5.772
 3277POPC   GL243646   4.234  40.412   5.756
 3277POPC   C1A43647   4.477  39.827   6.172
 3277POPC   D2A43648   4.266  39.524   6.441
 3277POPC   C3A43649   4.230  39.697   6.842
 3277POPC   C4A43650   4.026  39.737   7.218
 3277POPC   C1B43651   4.195  40.256   6.179
 3277POPC   C2B43652   4.394  40.127   6.591
 3277POPC   C3B43653   4.141  40.209   6.959
 3277POPC   C4B43654   4.025  40.195   7.382
 3278POPC   NC343655  29.389  24.137   5.582
 3278POPC   PO443656  29.063  23.607   5.418
 3278POPC   GL143657  29.260  23.681   5.801
 3278POPC   GL243658  29.352  23.356   5.847
 3278POPC   C1A43659  29.139  23.836   6.219
 3278POPC   D2A43660  28.828  23.578   6.484
 3278POPC   C3A43661  28.871  23.324   6.865
 3278POPC   C4A43662  28.808  23.578   7.243
 3278POPC   C1B43663  29.206  23.334   6.233
 3278POPC   C2B43664  29.344  23.523   6.597
 3278POPC   C3B43665  29.291  23.566   7.008
 3278POPC   C4B43666  29.493  23.869   7.191
 3279POPC   NC343667  42.168  31.405   5.202
 3279POPC   PO443668  41.865  31.810   5.570
 3279POPC   GL143669  42.053  31.448   5.746
 3279POPC   GL243670  42.387  31.348   5.671
 3279POPC   C1A43671  42.091  31.400   6.185
 3279POPC   D2A43672  42.015  31.685   6.517
 3279POPC   C3A43673  42.204  31.558   6.893
 3279POPC   C4A43674  42.088  31.278   7.228
 3279POPC   C1B43675  42.586  31.388   6.084
 3279POPC   C2B43676  42.459  31.222   6.509
 3279POPC   C3B43677  42.552  31.197   6.960
 3279POPC   C4B43678  42.543  31.539   7.287
 3280POPC   NC343679  44.266   3.000   5.392
 3280POPC   PO443680  44.810   2.545   5.402
 3280POPC   GL143681  44.481   2.600   5.720
 3280POPC   GL243682  44.623   2.890   5.789
 3280POPC   C1A43683  44.522   2.456   6.171
 3280POPC   D2A43684  44.713   2.590   6.567
 3280POPC   C3A43685  44.476   2.567   6.941
 3280POPC   C4A43686  44.571   2.545   7.377
 3280POPC   C1B43687  44.475   2.961   6.198
 3280POPC   C2B43688  44.618   3.132   6.581
 3280POPC   C3B43689  44.479   3.142   6.994
 3280POPC   C4B43690  44.606   3.057   7.423
 3281POPC   NC343691  25.187  37.118   5.425
 3281POPC   PO443692  24.802  36.656   5.361
 3281POPC   GL143693  25.102  36.569   5.739
 3281POPC   GL243694  25.361  36.843   5.807
 3281POPC   C1A43695  25.263  36.567   6.205
 3281POPC   D2A43696  25.141  36.555   6.633
 3281POPC   C3A43697  25.332  36.621   7.020
 3281POPC   C4A43698  25.160  36.847   7.322
 3281POPC   C1B43699  25.573  36.980   6.203
 3281POPC   C2B43700  25.589  36.862   6.619
 3281POPC   C3B43701  25.455  37.085   6.973
 3281POPC   C4B43702  25.508  37.173   7.435
 3282POPC   NC343703  14.521  22.773   5.463
 3282POPC   PO443704  14.100  23.215   5.401
 3282POPC   GL143705  14.072  22.870   5.713
 3282POPC   GL243706  14.353  23.037   5.880
 3282POPC   C1A43707  14.168  22.653   6.162
 3282POPC   D2A43708  14.198  22.803   6.634
 3282POPC   C3A43709  14.572  22.993   6.879
 3282POPC   C4A43710  14.816  23.278   7.209
 3282POPC   C1B43711  13.984  23.146   6.148
 3282POPC   C2B43712  13.844  23.308   6.551
 3282POPC   C3B43713  13.961  23.160   6.968
 3282POPC   C4B43714  14.180  23.087   7.373
 3283POPC   NC343715   6.895  17.972   5.344
 3283POPC   PO443716   6.863  18.707   5.339
 3283POPC   GL143717   6.813  18.488   5.741
 3283POPC   GL243718   6.623  18.180   5.732
 3283POPC   C1A43719   6.588  18.510   6.170
 3283POPC   D2A43720   6.338  18.239   6.466
 3283POPC   C3A43721   6.523  18.239   6.885
 3283POPC   C4A43722   6.504  18.527   7.224
 3283POPC   C1B43723   6.927  18.133   6.097
 3283POPC   C2B43724   6.861  17.972   6.519
 3283POPC   C3B43725   7.007  18.025   6.946
 3283POPC   C4B43726   6.995  18.326   7.266
 3284POPC   NC343727  42.329  15.026   5.314
 3284POPC   PO443728  42.298  15.611   5.586
 3284POPC   GL143729  42.360  15.310   5.962
 3284POPC   GL243730  42.379  14.982   5.826
 3284POPC   C1A43731  42.329  15.102   6.415
 3284POPC   D2A43732  42.154  14.952   6.810
 3284POPC   C3A43733  42.264  15.264   7.112
 3284POPC   C4A43734  42.287  15.357   7.564
 3284POPC   C1B43735  42.704  14.922   6.142
 3284POPC   C2B43736  42.648  14.726   6.548
 3284POPC   C3B43737  42.649  14.936   6.942
 3284POPC   C4B43738  42.428  14.816   7.302
 3285POPC   NC343739  10.680  16.067   5.515
 3285POPC   PO443740  10.027  15.791   5.263
 3285POPC   GL143741  10.209  15.855   5.714
 3285POPC   GL243742  10.476  15.610   5.656
 3285POPC   C1A43743  10.360  15.978   6.183
 3285POPC   D2A43744  10.592  16.104   6.618
 3285POPC   C3A43745  10.381  16.115   7.036
 3285POPC   C4A43746  10.502  16.048   7.452
 3285POPC   C1B43747  10.686  15.619   6.052
 3285POPC   C2B43748  10.689  15.616   6.490
 3285POPC   C3B43749  10.474  15.653   6.858
 3285POPC   C4B43750  10.495  15.583   7.291
 3286POPC   NC343751  38.984  18.056   5.493
 3286POPC   PO443752  39.447  18.606   5.393
 3286POPC   GL143753  39.426  18.456   5.817
 3286POPC   GL243754  39.316  18.124   5.877
 3286POPC   C1A43755  39.279  18.459   6.286
 3286POPC   D2A43756  39.018  18.589   6.657
 3286POPC   C3A43757  39.096  18.441   7.073
 3286POPC   C4A43758  39.403  18.463   7.410
 3286POPC   C1B43759  38.994  18.036   6.226
 3286POPC   C2B43760  39.082  18.074   6.684
 3286POPC   C3B43761  38.833  18.011   7.078
 3286POPC   C4B43762  38.992  18.116   7.478
 3287POPC   NC343763  27.618  12.680   5.406
 3287POPC   PO443764  28.053  13.170   5.406
 3287POPC   GL143765  27.772  13.057   5.719
 3287POPC   GL243766  27.423  13.100   5.708
 3287POPC   C1A43767  27.713  12.930   6.119
 3287POPC   D2A43768  27.562  12.676   6.436
 3287POPC   C3A43769  27.522  12.892   6.836
 3287POPC   C4A43770  27.768  13.063   7.172
 3287POPC   C1B43771  27.239  12.784   6.039
 3287POPC   C2B43772  27.073  12.736   6.493
 3287POPC   C3B43773  27.221  12.473   6.860
 3287POPC   C4B43774  27.077  12.432   7.289
 3288POPC   NC343775  11.810  20.094   5.299
 3288POPC   PO443776  12.310  19.635   5.257
 3288POPC   GL143777  12.162  19.765   5.701
 3288POPC   GL243778  12.047  20.114   5.744
 3288POPC   C1A43779  12.366  19.949   6.107
 3288POPC   D2A43780  12.273  20.118   6.517
 3288POPC   C3A43781  12.208  19.860   6.867
 3288POPC   C4A43782  12.405  19.859   7.274
 3288POPC   C1B43783  11.853  19.876   6.099
 3288POPC   C2B43784  11.762  19.977   6.522
 3288POPC   C3B43785  11.695  19.918   6.950
 3288POPC   C4B43786  11.902  19.849   7.300
 3289POPC   NC343787  15.148  19.896   5.360
 3289POPC   PO443788  14.542  19.984   5.572
 3289POPC   GL143789  14.844  19.784   5.837
 3289POPC   GL243790  15.143  19.984   5.897
 3289POPC   C1A43791  14.932  19.750   6.296
 3289POPC   D2A43792  15.003  19.936   6.720
 3289POPC   C3A43793  15.124  19.658   7.067
 3289POPC   C4A43794  15.213  19.713   7.502
 3289POPC   C1B43795  15.356  20.035   6.338
 3289POPC   C2B43796  15.484  20.059   6.791
 3289POPC   C3B43797  15.624  20.012   7.221
 3289POPC   C4B43798  15.686  19.846   7.632
 3290POPC   NC343799  24.686  28.755   5.403
 3290POPC   PO443800  24.701  29.386   5.186
 3290POPC   GL143801  24.707  29.198   5.680
 3290POPC   GL243802  24.919  28.999   5.931
 3290POPC   C1A43803  24.474  29.092   6.108
 3290POPC   D2A43804  24.321  29.081   6.527
 3290POPC   C3A43805  24.572  28.965   6.869
 3290POPC   C4A43806  24.450  29.226   7.191
 3290POPC   C1B43807  24.959  29.298   6.246
 3290POPC   C2B43808  24.889  29.380   6.670
 3290POPC   C3B43809  25.017  29.302   7.081
 3290POPC   C4B43810  24.872  28.994   7.343
 3291POPC   NC343811  28.496  35.060   5.064
 3291POPC   PO443812  28.306  35.597   5.346
 3291POPC   GL143813  28.414  35.385   5.773
 3291POPC   GL243814  28.604  35.047   5.731
 3291POPC   C1A43815  28.532  35.435   6.238
 3291POPC   D2A43816  28.562  35.693   6.642
 3291POPC   C3A43817  28.357  35.448   7.005
 3291POPC   C4A43818  27.983  35.212   7.173
 3291POPC   C1B43819  28.328  34.912   6.098
 3291POPC   C2B43820  28.209  34.986   6.544
 3291POPC   C3B43821  28.371  34.904   6.975
 3291POPC   C4B43822  28.565  35.082   7.331
 3292POPC   NC343823  27.930  11.044   5.334
 3292POPC   PO443824  27.511  10.497   5.372
 3292POPC   GL143825  27.573  10.487   5.814
 3292POPC   GL243826  27.853  10.274   5.956
 3292POPC   C1A43827  27.679  10.659   6.230
 3292POPC   D2A43828  27.904  10.723   6.581
 3292POPC   C3A43829  27.641  10.777   6.927
 3292POPC   C4A43830  27.676  10.624   7.341
 3292POPC   C1B43831  27.460  10.204   6.214
 3292POPC   C2B43832  27.344  10.128   6.638
 3292POPC   C3B43833  27.352  10.358   7.028
 3292POPC   C4B43834  27.282  10.261   7.460
 3293POPC   NC343835  38.849  30.005   5.462
 3293POPC   PO443836  39.327  29.482   5.478
 3293POPC   GL143837  39.242  29.741   5.811
 3293POPC   GL243838  38.891  29.644   5.827
 3293POPC   C1A43839  39.467  29.920   6.195
 3293POPC   D2A43840  39.510  29.789   6.656
 3293POPC   C3A43841  39.469  30.052   7.026
 3293POPC   C4A43842  39.312  30.139   7.427
 3293POPC   C1B43843  38.959  29.887   6.231
 3293POPC   C2B43844  39.053  30.080   6.660
 3293POPC   C3B43845  38.953  29.964   7.083
 3293POPC   C4B43846  38.727  29.602   7.193
 3294POPC   NC343847  40.507  32.057   5.350
 3294POPC   PO443848  41.088  32.366   5.275
 3294POPC   GL143849  40.876  32.386   5.673
 3294POPC   GL243850  40.790  32.060   5.765
 3294POPC   C1A43851  40.952  32.366   6.134
 3294POPC   D2A43852  40.750  32.150   6.506
 3294POPC   C3A43853  40.824  32.262   6.954
 3294POPC   C4A43854  41.164  32.367   7.196
 3294POPC   C1B43855  40.463  32.188   6.067
 3294POPC   C2B43856  40.242  32.056   6.460
 3294POPC   C3B43857  40.431  31.944   6.882
 3294POPC   C4B43858  40.531  32.038   7.326
 3295POPC   NC343859  40.434  13.420   5.513
 3295POPC   PO443860  41.117  13.669   5.443
 3295POPC   GL143861  40.898  13.495   5.760
 3295POPC   GL243862  40.686  13.795   5.784
 3295POPC   C1A43863  40.952  13.581   6.184
 3295POPC   D2A43864  40.768  13.502   6.551
 3295POPC   C3A43865  40.910  13.613   6.948
 3295POPC   C4A43866  40.766  13.360   7.267
 3295POPC   C1B43867  40.429  13.599   6.125
 3295POPC   C2B43868  40.262  13.647   6.512
 3295POPC   C3B43869  40.380  13.545   6.882
 3295POPC   C4B43870  40.451  13.769   7.247
 3296POPC   NC343871  35.891  33.368   5.225
 3296POPC   PO443872  36.423  33.688   5.357
 3296POPC   GL143873  36.253  33.767   5.726
 3296POPC   GL243874  36.430  34.068   5.815
 3296POPC   C1A43875  35.966  33.649   6.072
 3296POPC   D2A43876  35.854  33.826   6.484
 3296POPC   C3A43877  35.950  33.587   6.839
 3296POPC   C4A43878  35.979  33.680   7.234
 3296POPC   C1B43879  36.496  33.769   6.174
 3296POPC   C2B43880  36.394  33.627   6.582
 3296POPC   C3B43881  36.493  33.758   7.001
 3296POPC   C4B43882  36.581  33.559   7.399
 3297POPC   NC343883   3.402  43.847   5.449
 3297POPC   PO443884   3.852  44.214   5.632
 3297POPC   GL143885   3.679  43.879   5.908
 3297POPC   GL243886   3.398  43.650   5.989
 3297POPC   C1A43887   3.757  43.823   6.327
 3297POPC   D2A43888   3.369  43.861   6.556
 3297POPC   C3A43889   3.495  44.065   6.915
 3297POPC   C4A43890   3.700  43.922   7.285
 3297POPC   C1B43891   3.062  43.459   6.241
 3297POPC   C2B43892   3.089  43.412   6.678
 3297POPC   C3B43893   3.383  43.543   6.994
 3297POPC   C4B43894   3.251  43.698   7.370
 3298POPC   NC343895  40.573   1.235   5.168
 3298POPC   PO443896  41.127   1.001   5.502
 3298POPC   GL143897  40.898   1.274   5.809
 3298POPC   GL243898  40.550   1.330   5.738
 3298POPC   C1A43899  40.727   1.142   6.240
 3298POPC   D2A43900  40.723   0.991   6.687
 3298POPC   C3A43901  40.947   1.250   6.966
 3298POPC   C4A43902  40.947   1.491   7.329
 3298POPC   C1B43903  40.394   1.515   6.145
 3298POPC   C2B43904  40.647   1.600   6.548
 3298POPC   C3B43905  40.547   1.592   6.985
 3298POPC   C4B43906  40.447   1.158   7.128
 3299POPC   NC343907  19.340  35.254   5.440
 3299POPC   PO443908  18.880  34.917   5.416
 3299POPC   GL143909  18.886  35.212   5.787
 3299POPC   GL243910  19.113  35.519   5.811
 3299POPC   C1A43911  18.943  35.107   6.232
 3299POPC   D2A43912  19.057  34.897   6.619
 3299POPC   C3A43913  18.842  35.104   6.933
 3299POPC   C4A43914  18.712  35.261   7.319
 3299POPC   C1B43915  19.394  35.310   6.105
 3299POPC   C2B43916  19.487  35.176   6.527
 3299POPC   C3B43917  19.316  35.317   6.912
 3299POPC   C4B43918  19.012  35.614   7.048
 3300POPC   NC343919  22.296  41.917   5.364
 3300POPC   PO443920  21.867  42.500   5.412
 3300POPC   GL143921  22.030  42.519   5.827
 3300POPC   GL243922  22.270  42.216   5.816
 3300POPC   C1A43923  22.124  42.429   6.253
 3300POPC   D2A43924  22.256  42.326   6.658
 3300POPC   C3A43925  21.914  42.318   6.937
 3300POPC   C4A43926  21.885  42.697   7.220
 3300POPC   C1B43927  22.469  42.037   6.223
 3300POPC   C2B43928  22.631  41.970   6.664
 3300POPC   C3B43929  22.335  41.966   7.033
 3300POPC   C4B43930  22.258  42.333   7.299
 3301POPC   NC343931   3.177  33.535   5.438
 3301POPC   PO443932   3.733  33.907   5.398
 3301POPC   GL143933   3.605  33.851   5.859
 3301POPC   GL243934   3.266  33.720   5.905
 3301POPC   C1A43935   3.627  33.851   6.321
 3301POPC   D2A43936   3.688  33.577   6.678
 3301POPC   C3A43937   3.800  33.767   7.085
 3301POPC   C4A43938   3.745  33.640   7.510
 3301POPC   C1B43939   3.175  33.617   6.337
 3301POPC   C2B43940   3.175  34.025   6.543
 3301POPC   C3B43941   3.379  34.005   6.924
 3301POPC   C4B43942   3.306  33.653   7.228
 3302POPC   NC343943  25.995  23.686   5.256
 3302POPC   PO443944  25.841  22.963   5.319
 3302POPC   GL143945  25.918  22.797   5.756
 3302POPC   GL243946  25.683  23.020   5.909
 3302POPC   C1A43947  26.221  22.774   6.119
 3302POPC   D2A43948  26.259  22.488   6.482
 3302POPC   C3A43949  26.136  22.682   6.889
 3302POPC   C4A43950  25.750  22.796   7.141
 3302POPC   C1B43951  25.868  23.118   6.324
 3302POPC   C2B43952  25.949  23.151   6.779
 3302POPC   C3B43953  26.038  23.196   7.233
 3302POPC   C4B43954  25.796  23.232   7.629
 3303POPC   NC343955  21.943  16.300   5.358
 3303POPC   PO443956  22.533  15.994   5.329
 3303POPC   GL143957  22.281  16.024   5.789
 3303POPC   GL243958  22.075  15.731   5.926
 3303POPC   C1A43959  22.251  16.056   6.277
 3303POPC   D2A43960  22.263  16.123   6.733
 3303POPC   C3A43961  21.918  16.393   6.896
 3303POPC   C4A43962  21.716  16.353   7.305
 3303POPC   C1B43963  21.854  15.724   6.320
 3303POPC   C2B43964  21.873  15.671   6.753
 3303POPC   C3B43965  21.988  15.916   7.128
 3303POPC   C4B43966  22.412  15.968   7.237
 3304POPC   NC343967  34.234   4.143   5.358
 3304POPC   PO443968  33.850   4.725   5.184
 3304POPC   GL143969  34.046   4.619   5.653
 3304POPC   GL243970  34.104   4.268   5.823
 3304POPC   C1A43971  33.886   4.599   6.111
 3304POPC   D2A43972  33.986   4.417   6.532
 3304POPC   C3A43973  33.647   4.296   6.829
 3304POPC   C4A43974  33.633   4.604   7.144
 3304POPC   C1B43975  33.940   4.029   6.197
 3304POPC   C2B43976  34.001   3.893   6.644
 3304POPC   C3B43977  34.141   4.189   6.973
 3304POPC   C4B43978  33.912   4.246   7.368
 3305POPC   NC343979  37.069  23.186   5.315
 3305POPC   PO443980  37.753  23.168   5.295
 3305POPC   GL143981  37.526  23.048   5.719
 3305POPC   GL243982  37.299  22.806   5.784
 3305POPC   C1A43983  37.307  23.192   6.120
 3305POPC   D2A43984  37.324  23.044   6.503
 3305POPC   C3A43985  37.683  23.118   6.734
 3305POPC   C4A43986  37.671  23.031   7.155
 3305POPC   C1B43987  37.606  22.770   6.136
 3305POPC   C2B43988  37.903  22.727   6.461
 3305POPC   C3B43989  37.934  22.666   6.885
 3305POPC   C4B43990  38.096  22.814   7.303
 3306POPC   NC343991  17.181  23.074   5.626
 3306POPC   PO443992  17.817  23.030   5.446
 3306POPC   GL143993  17.630  22.793   5.799
 3306POPC   GL243994  17.515  23.059   6.013
 3306POPC   C1A43995  17.354  22.629   6.188
 3306POPC   D2A43996  17.349  22.916   6.570
 3306POPC   C3A43997  17.509  22.769   6.956
 3306POPC   C4A43998  17.850  22.748   7.260
 3306POPC   C1B43999  17.232  23.321   6.284
 3306POPC   C2B44000  17.309  23.412   6.734
 3306POPC   C3B44001  17.503  23.243   7.100
 3306POPC   C4B44002  17.875  23.324   7.246
 3307POPC   NC344003   3.192  35.163   5.387
 3307POPC   PO444004   3.809  35.435   5.256
 3307POPC   GL144005   3.686  35.338   5.724
 3307POPC   GL244006   3.367  35.141   5.866
 3307POPC   C1A44007   3.582  35.459   6.188
 3307POPC   D2A44008   3.613  35.245   6.588
 3307POPC   C3A44009   3.440  35.382   6.972
 3307POPC   C4A44010   3.778  35.623   7.131
 3307POPC   C1B44011   3.592  34.903   6.202
 3307POPC   C2B44012   3.584  34.720   6.612
 3307POPC   C3B44013   3.663  34.912   6.971
 3307POPC   C4B44014   3.718  35.166   7.362
 3308POPC   NC344015  13.550   0.886   5.397
 3308POPC   PO444016  13.971   1.376   5.310
 3308POPC   GL144017  13.840   1.190   5.749
 3308POPC   GL244018  13.472   1.130   5.845
 3308POPC   C1A44019  13.831   1.241   6.234
 3308POPC   D2A44020  13.587   1.326   6.642
 3308POPC   C3A44021  13.761   1.416   7.032
 3308POPC   C4A44022  13.984   1.157   7.321
 3308POPC   C1B44023  13.307   1.151   6.267
 3308POPC   C2B44024  13.291   0.899   6.680
 3308POPC   C3B44025  13.504   0.959   7.110
 3308POPC   C4B44026  13.262   0.898   7.502
 3309POPC   NC344027   1.209   6.891   5.345
 3309POPC   PO444028   1.420   7.526   5.263
 3309POPC   GL144029   1.300   7.248   5.703
 3309POPC   GL244030   0.979   7.126   5.838
 3309POPC   C1A44031   1.322   7.331   6.164
 3309POPC   D2A44032   1.180   7.705   6.420
 3309POPC   C3A44033   1.280   7.674   6.847
 3309POPC   C4A44034   1.385   7.233   7.045
 3309POPC   C1B44035   0.819   7.237   6.256
 3309POPC   C2B44036   1.008   7.289   6.686
 3309POPC   C3B44037   0.929   7.435   7.141
 3309POPC   C4B44038   0.855   7.268   7.542
 3310POPC   NC344039  24.751   2.321   5.586
 3310POPC   PO444040  24.353   1.776   5.490
 3310POPC   GL144041  24.224   2.004   5.872
 3310POPC   GL244042  24.387   2.304   5.976
 3310POPC   C1A44043  24.321   1.876   6.289
 3310POPC   D2A44044  24.385   2.057   6.688
 3310POPC   C3A44045  24.422   1.784   7.018
 3310POPC   C4A44046  24.707   1.767   7.334
 3310POPC   C1B44047  24.716   2.222   6.283
 3310POPC   C2B44048  24.911   2.151   6.669
 3310POPC   C3B44049  24.754   2.198   7.068
 3310POPC   C4B44050  24.326   2.197   7.261
 3311POPC   NC344051  41.305  28.008   5.371
 3311POPC   PO444052  41.511  28.650   5.233
 3311POPC   GL144053  41.489  28.408   5.648
 3311POPC   GL244054  41.148  28.302   5.770
 3311POPC   C1A44055  41.621  28.340   6.088
 3311POPC   D2A44056  41.507  28.259   6.523
 3311POPC   C3A44057  41.766  28.306   6.887
 3311POPC   C4A44058  41.578  28.203   7.287
 3311POPC   C1B44059  41.120  28.499   6.198
 3311POPC   C2B44060  41.166  28.646   6.623
 3311POPC   C3B44061  41.339  28.561   7.022
 3311POPC   C4B44062  41.330  28.751   7.439
 3312POPC   NC344063  31.194  24.682   5.260
 3312POPC   PO444064  31.851  24.604   5.360
 3312POPC   GL144065  31.546  24.436   5.670
 3312POPC   GL244066  31.218  24.621   5.760
 3312POPC   C1A44067  31.635  24.316   6.117
 3312POPC   D2A44068  31.689  24.097   6.530
 3312POPC   C3A44069  31.748  24.384   6.880
 3312POPC   C4A44070  31.653  24.267   7.300
 3312POPC   C1B44071  31.163  24.488   6.182
 3312POPC   C2B44072  31.360  24.473   6.556
 3312POPC   C3B44073  31.237  24.407   6.984
 3312POPC   C4B44074  31.134  24.701   7.251
 3313POPC   NC344075   8.992   2.229   5.521
 3313POPC   PO444076   9.305   1.659   5.452
 3313POPC   GL144077   9.077   1.692   5.836
 3313POPC   GL244078   8.764   1.799   5.764
 3313POPC   C1A44079   9.101   1.854   6.260
 3313POPC   D2A44080   9.259   2.009   6.662
 3313POPC   C3A44081   8.980   1.885   7.027
 3313POPC   C4A44082   9.093   1.901   7.459
 3313POPC   C1B44083   8.579   1.729   6.179
 3313POPC   C2B44084   8.695   1.700   6.623
 3313POPC   C3B44085   8.472   1.724   7.054
 3313POPC   C4B44086   8.568   1.959   7.452
 3314POPC   NC344087  39.828  22.898   5.330
 3314POPC   PO444088  40.328  22.802   5.697
 3314POPC   GL144089  39.932  22.795   5.886
 3314POPC   GL244090  39.749  23.085   5.789
 3314POPC   C1A44091  40.002  22.860   6.323
 3314POPC   D2A44092  40.055  23.063   6.715
 3314POPC   C3A44093  40.090  22.835   7.103
 3314POPC   C4A44094  40.197  23.029   7.528
 3314POPC   C1B44095  39.571  23.082   6.158
 3314POPC   C2B44096  39.592  23.197   6.562
 3314POPC   C3B44097  39.589  23.024   6.983
 3314POPC   C4B44098  39.699  23.069   7.408
 3315POPC   NC344099  12.148  37.430   5.014
 3315POPC   PO444100  12.356  37.834   5.498
 3315POPC   GL144101  12.194  37.835   5.900
 3315POPC   GL244102  11.849  37.997   5.846
 3315POPC   C1A44103  12.016  37.501   6.176
 3315POPC   D2A44104  11.675  37.510   6.491
 3315POPC   C3A44105  11.840  37.429   6.904
 3315POPC   C4A44106  11.859  37.599   7.299
 3315POPC   C1B44107  11.883  37.983   6.302
 3315POPC   C2B44108  12.141  37.762   6.617
 3315POPC   C3B44109  12.199  37.866   7.032
 3315POPC   C4B44110  12.237  37.902   7.472
 3316POPC   NC344111  36.933  39.512   5.177
 3316POPC   PO444112  36.736  40.195   5.276
 3316POPC   GL144113  36.894  40.039   5.675
 3316POPC   GL244114  36.591  39.977   5.780
 3316POPC   C1A44115  36.976  39.940   6.137
 3316POPC   D2A44116  37.188  40.106   6.484
 3316POPC   C3A44117  37.089  40.010   6.903
 3316POPC   C4A44118  37.220  40.107   7.304
 3316POPC   C1B44119  36.490  40.008   6.212
 3316POPC   C2B44120  36.695  39.890   6.568
 3316POPC   C3B44121  36.575  39.855   6.967
 3316POPC   C4B44122  36.725  40.092   7.299
 3317POPC   NC344123   2.223  18.088   5.230
 3317POPC   PO444124   1.864  18.591   5.393
 3317POPC   GL144125   1.701  18.409   5.752
 3317POPC   GL244126   2.074  18.463   5.870
 3317POPC   C1A44127   1.716  18.218   6.150
 3317POPC   D2A44128   2.056  18.276   6.395
 3317POPC   C3A44129   1.953  18.202   6.821
 3317POPC   C4A44130   1.577  18.209   7.070
 3317POPC   C1B44131   2.324  18.699   6.215
 3317POPC   C2B44132   2.450  18.518   6.635
 3317POPC   C3B44133   2.326  18.586   7.072
 3317POPC   C4B44134   2.391  18.593   7.543
 3318POPC   NC344135   1.646  39.388   5.528
 3318POPC   PO444136   2.233  39.058   5.464
 3318POPC   GL144137   2.088  39.220   5.821
 3318POPC   GL244138   1.819  38.964   5.832
 3318POPC   C1A44139   2.164  39.149   6.259
 3318POPC   D2A44140   2.395  39.230   6.648
 3318POPC   C3A44141   2.150  39.186   7.039
 3318POPC   C4A44142   2.005  38.917   7.384
 3318POPC   C1B44143   1.695  38.892   6.254
 3318POPC   C2B44144   1.721  39.062   6.670
 3318POPC   C3B44145   1.629  39.136   7.096
 3318POPC   C4B44146   1.532  39.561   7.266
 3319POPC   NC344147  21.023  12.745   5.529
 3319POPC   PO444148  21.636  12.816   5.299
 3319POPC   GL144149  21.475  12.930   5.736
 3319POPC   GL244150  21.675  13.232   5.827
 3319POPC   C1A44151  21.265  12.793   6.172
 3319POPC   D2A44152  21.159  12.981   6.617
 3319POPC   C3A44153  21.329  12.879   7.039
 3319POPC   C4A44154  21.288  12.782   7.482
 3319POPC   C1B44155  21.729  13.036   6.253
 3319POPC   C2B44156  21.691  13.069   6.718
 3319POPC   C3B44157  21.814  13.026   7.168
 3319POPC   C4B44158  21.806  12.889   7.611
 3320POPC   NC344159  30.316   7.632   5.319
 3320POPC   PO444160  29.836   7.175   5.450
 3320POPC   GL144161  29.916   7.415   5.790
 3320POPC   GL244162  30.265   7.402   5.781
 3320POPC   C1A44163  29.967   7.276   6.209
 3320POPC   D2A44164  29.730   7.011   6.479
 3320POPC   C3A44165  29.691   7.279   6.833
 3320POPC   C4A44166  29.677   7.091   7.247
 3320POPC   C1B44167  30.235   7.726   6.104
 3320POPC   C2B44168  30.311   7.880   6.555
 3320POPC   C3B44169  30.285   7.576   6.905
 3320POPC   C4B44170  29.981   7.514   7.235
 3321POPC   NC344171   3.615   2.236   5.568
 3321POPC   PO444172   3.386   1.638   5.453
 3321POPC   GL144173   3.420   1.841   5.854
 3321POPC   GL244174   3.251   2.158   5.925
 3321POPC   C1A44175   3.273   1.789   6.310
 3321POPC   D2A44176   3.228   2.182   6.579
 3321POPC   C3A44177   3.430   2.221   7.027
 3321POPC   C4A44178   3.251   2.014   7.388
 3321POPC   C1B44179   3.631   2.136   6.213
 3321POPC   C2B44180   3.731   2.129   6.622
 3321POPC   C3B44181   3.903   1.975   6.992
 3321POPC   C4B44182   3.764   2.064   7.395
 3322POPC   NC344183  42.404  16.467   5.333
 3322POPC   PO444184  42.106  17.034   5.191
 3322POPC   GL144185  42.061  16.850   5.728
 3322POPC   GL244186  42.391  16.638   5.812
 3322POPC   C1A44187  42.108  16.775   6.230
 3322POPC   D2A44188  41.939  16.644   6.681
 3322POPC   C3A44189  42.056  16.845   7.075
 3322POPC   C4A44190  42.203  17.033   7.456
 3322POPC   C1B44191  42.489  16.408   6.199
 3322POPC   C2B44192  42.450  16.603   6.656
 3322POPC   C3B44193  42.508  16.627   7.118
 3322POPC   C4B44194  42.674  16.339   7.387
 3323POPC   NC344195   0.869  29.953   5.527
 3323POPC   PO444196   1.449  29.894   5.181
 3323POPC   GL144197   1.371  30.022   5.638
 3323POPC   GL244198   1.324  29.681   5.772
 3323POPC   C1A44199   1.325  30.056   6.135
 3323POPC   D2A44200   1.385  29.807   6.574
 3323POPC   C3A44201   1.252  29.944   7.035
 3323POPC   C4A44202   1.411  30.221   7.436
 3323POPC   C1B44203   1.023  29.643   6.138
 3323POPC   C2B44204   0.929  29.573   6.541
 3323POPC   C3B44205   1.055  29.447   6.893
 3323POPC   C4B44206   0.953  29.580   7.271
 3324POPC   NC344207  26.315  26.882   5.260
 3324POPC   PO444208  26.888  26.552   5.494
 3324POPC   GL144209  26.816  26.699   5.893
 3324POPC   GL244210  26.780  27.059   5.852
 3324POPC   C1A44211  26.538  26.738   6.266
 3324POPC   D2A44212  26.314  26.519   6.609
 3324POPC   C3A44213  26.517  26.553   7.025
 3324POPC   C4A44214  26.664  26.630   7.459
 3324POPC   C1B44215  26.598  27.279   6.238
 3324POPC   C2B44216  26.533  27.191   6.684
 3324POPC   C3B44217  26.707  27.071   7.093
 3324POPC   C4B44218  27.081  26.813   7.189
 3325POPC   NC344219   2.504  42.261   5.294
 3325POPC   PO444220   3.008  42.589   5.605
 3325POPC   GL144221   2.860  42.293   5.885
 3325POPC   GL244222   2.503  42.232   5.829
 3325POPC   C1A44223   2.910  42.343   6.334
 3325POPC   D2A44224   2.751  42.250   6.740
 3325POPC   C3A44225   3.051  42.332   7.103
 3325POPC   C4A44226   3.090  42.595   7.491
 3325POPC   C1B44227   2.397  42.628   6.103
 3325POPC   C2B44228   2.419  42.829   6.543
 3325POPC   C3B44229   2.425  42.673   6.983
 3325POPC   C4B44230   2.551  42.296   7.200
 3326POPC   NC344231  36.547  26.287   5.728
 3326POPC   PO444232  36.305  25.762   5.285
 3326POPC   GL144233  36.171  25.891   5.714
 3326POPC   GL244234  35.897  26.135   5.822
 3326POPC   C1A44235  36.203  25.892   6.179
 3326POPC   D2A44236  36.418  25.914   6.594
 3326POPC   C3A44237  36.104  26.007   6.920
 3326POPC   C4A44238  35.809  25.882   7.252
 3326POPC   C1B44239  36.059  26.386   6.231
 3326POPC   C2B44240  36.391  26.495   6.539
 3326POPC   C3B44241  36.304  26.516   6.986
 3326POPC   C4B44242  35.936  26.393   7.246
 3327POPC   NC344243  41.530  19.266   5.012
 3327POPC   PO444244  41.282  19.492   5.584
 3327POPC   GL144245  41.303  19.110   5.811
 3327POPC   GL244246  41.377  18.763   5.764
 3327POPC   C1A44247  41.374  19.044   6.237
 3327POPC   D2A44248  41.286  19.362   6.538
 3327POPC   C3A44249  41.395  19.159   6.915
 3327POPC   C4A44250  41.512  19.113   7.334
 3327POPC   C1B44251  41.626  18.612   6.154
 3327POPC   C2B44252  41.854  18.823   6.476
 3327POPC   C3B44253  41.810  18.853   6.931
 3327POPC   C4B44254  41.822  18.699   7.345
 3328POPC   NC344255   5.018  30.144   5.330
 3328POPC   PO444256   5.418  29.602   5.366
 3328POPC   GL144257   5.221  29.715   5.751
 3328POPC   GL244258   4.918  29.867   5.767
 3328POPC   C1A44259   5.336  29.892   6.115
 3328POPC   D2A44260   5.369  29.738   6.472
 3328POPC   C3A44261   5.337  29.932   6.851
 3328POPC   C4A44262   5.430  29.797   7.248
 3328POPC   C1B44263   4.828  29.922   6.225
 3328POPC   C2B44264   4.885  30.097   6.670
 3328POPC   C3B44265   4.880  29.968   7.131
 3328POPC   C4B44266   4.661  30.046   7.561
 3329POPC   NC344267  15.152  44.955   5.447
 3329POPC   PO444268  14.998  44.338   5.469
 3329POPC   GL144269  15.076  44.619   5.835
 3329POPC   GL244270  15.461  44.752   5.811
 3329POPC   C1A44271  14.959  44.801   6.252
 3329POPC   D2A44272  15.254  44.878   6.591
 3329POPC   C3A44273  15.226  44.644   6.966
 3329POPC   C4A44274  15.292  44.778   7.392
 3329POPC   C1B44275  15.461  44.455   6.167
 3329POPC   C2B44276  15.592  44.492   6.615
 3329POPC   C3B44277  15.710  44.538   7.054
 3329POPC   C4B44278  15.523  44.343   7.448
 3330POPC   NC344279  37.614  25.515   5.049
 3330POPC   PO444280  37.945  24.949   4.982
 3330POPC   GL144281  37.832  25.148   5.462
 3330POPC   GL244282  38.097  25.165   5.763
 3330POPC   C1A44283  37.652  25.397   5.884
 3330POPC   D2A44284  37.598  25.541   6.359
 3330POPC   C3A44285  37.532  25.337   6.789
 3330POPC   C4A44286  37.364  25.506   7.197
 3330POPC   C1B44287  38.078  25.427   6.187
 3330POPC   C2B44288  38.034  25.358   6.640
 3330POPC   C3B44289  37.956  25.154   7.046
 3330POPC   C4B44290  37.874  25.490   7.336
 3331POPC   NC344291  14.520  36.428   5.330
 3331POPC   PO444292  14.135  35.876   5.365
 3331POPC   GL144293  14.395  35.911   5.743
 3331POPC   GL244294  14.550  36.213   5.826
 3331POPC   C1A44295  14.604  35.841   6.185
 3331POPC   D2A44296  14.632  36.020   6.615
 3331POPC   C3A44297  14.785  35.844   7.040
 3331POPC   C4A44298  14.723  35.937   7.507
 3331POPC   C1B44299  14.177  36.146   6.143
 3331POPC   C2B44300  13.953  36.303   6.531
 3331POPC   C3B44301  14.227  36.326   6.880
 3331POPC   C4B44302  14.515  36.313   7.215
 3332POPC   NC344303  10.279   4.521   5.398
 3332POPC   PO444304  10.913   4.423   5.218
 3332POPC   GL144305  10.761   4.404   5.681
 3332POPC   GL244306  10.449   4.182   5.743
 3332POPC   C1A44307  10.598   4.498   6.113
 3332POPC   D2A44308  10.444   4.636   6.523
 3332POPC   C3A44309  10.717   4.566   6.887
 3332POPC   C4A44310  10.683   4.319   7.236
 3332POPC   C1B44311  10.255   4.108   6.162
 3332POPC   C2B44312  10.225   3.991   6.586
 3332POPC   C3B44313  10.299   4.291   6.894
 3332POPC   C4B44314  10.183   4.305   7.292
 3333POPC   NC344315   4.791  34.165   5.633
 3333POPC   PO444316   5.187  34.528   5.196
 3333POPC   GL144317   5.115  34.615   5.666
 3333POPC   GL244318   5.308  34.334   5.819
 3333POPC   C1A44319   4.947  34.574   6.132
 3333POPC   D2A44320   5.079  34.417   6.567
 3333POPC   C3A44321   5.078  34.616   6.962
 3333POPC   C4A44322   4.932  34.544   7.387
 3333POPC   C1B44323   5.436  34.595   6.212
 3333POPC   C2B44324   5.429  34.882   6.579
 3333POPC   C3B44325   5.573  34.785   7.007
 3333POPC   C4B44326   5.429  34.479   7.323
 3334POPC   NC344327   7.679  12.368   5.351
 3334POPC   PO444328   7.306  11.795   5.404
 3334POPC   GL144329   7.246  11.875   5.832
 3334POPC   GL244330   7.597  11.918   5.841
 3334POPC   C1A44331   7.319  11.940   6.276
 3334POPC   D2A44332   7.641  11.874   6.551
 3334POPC   C3A44333   7.436  12.030   6.901
 3334POPC   C4A44334   7.302  12.115   7.286
 3334POPC   C1B44335   7.703  12.273   6.141
 3334POPC   C2B44336   7.633  12.407   6.600
 3334POPC   C3B44337   7.653  12.467   7.090
 3334POPC   C4B44338   7.715  12.268   7.520
 3335POPC   NC344339  27.009  39.615   5.481
 3335POPC   PO444340  26.818  38.917   5.436
 3335POPC   GL144341  26.849  39.207   5.763
 3335POPC   GL244342  27.151  39.388   5.922
 3335POPC   C1A44343  26.695  39.202   6.148
 3335POPC   D2A44344  26.863  39.090   6.554
 3335POPC   C3A44345  26.686  39.276   6.909
 3335POPC   C4A44346  26.573  39.021   7.227
 3335POPC   C1B44347  27.272  39.347   6.368
 3335POPC   C2B44348  27.354  39.024   6.721
 3335POPC   C3B44349  27.141  39.033   7.137
 3335POPC   C4B44350  27.012  39.452   7.287
 3336POPC   NC344351  24.717   4.824   5.502
 3336POPC   PO444352  24.424   4.184   5.419
 3336POPC   GL144353  24.537   4.398   5.753
 3336POPC   GL244354  24.211   4.310   5.885
 3336POPC   C1A44355  24.777   4.471   6.118
 3336POPC   D2A44356  24.703   4.233   6.481
 3336POPC   C3A44357  24.597   4.478   6.843
 3336POPC   C4A44358  24.711   4.507   7.285
 3336POPC   C1B44359  24.294   4.549   6.252
 3336POPC   C2B44360  24.116   4.669   6.649
 3336POPC   C3B44361  24.075   4.363   6.949
 3336POPC   C4B44362  24.278   4.208   7.274
 3337POPC   NC344363  43.503  33.232   5.365
 3337POPC   PO444364  44.034  32.878   5.558
 3337POPC   GL144365  43.775  33.023   5.891
 3337POPC   GL244366  43.608  32.712   5.889
 3337POPC   C1A44367  43.914  33.091   6.340
 3337POPC   D2A44368  44.281  33.126   6.683
 3337POPC   C3A44369  44.115  33.214   7.098
 3337POPC   C4A44370  43.704  33.365   7.124
 3337POPC   C1B44371  43.401  32.647   6.221
 3337POPC   C2B44372  43.542  32.803   6.570
 3337POPC   C3B44373  43.834  32.867   6.853
 3337POPC   C4B44374  43.772  32.842   7.269
 3338POPC   NC344375   8.692  33.087   5.426
 3338POPC   PO444376   9.222  33.547   5.440
 3338POPC   GL144377   8.999  33.281   5.791
 3338POPC   GL244378   8.891  32.915   5.872
 3338POPC   C1A44379   9.054  33.276   6.226
 3338POPC   D2A44380   8.861  33.278   6.635
 3338POPC   C3A44381   9.074  33.050   6.921
 3338POPC   C4A44382   9.249  33.039   7.296
 3338POPC   C1B44383   8.672  32.937   6.258
 3338POPC   C2B44384   8.736  32.765   6.643
 3338POPC   C3B44385   8.590  32.936   7.027
 3338POPC   C4B44386   8.754  33.031   7.425
 3339POPC   NC344387  41.471  13.970   5.488
 3339POPC   PO444388  41.685  14.559   5.475
 3339POPC   GL144389  41.808  14.426   5.890
 3339POPC   GL244390  41.506  14.228   5.937
 3339POPC   C1A44391  41.657  14.569   6.299
 3339POPC   D2A44392  41.534  14.438   6.732
 3339POPC   C3A44393  41.739  14.675   7.083
 3339POPC   C4A44394  41.714  14.566   7.566
 3339POPC   C1B44395  41.111  14.077   6.134
 3339POPC   C2B44396  41.113  13.906   6.562
 3339POPC   C3B44397  41.122  14.135   6.923
 3339POPC   C4B44398  41.405  14.306   7.234
 3340POPC   NC344399  41.060  28.775   5.202
 3340POPC   PO444400  40.772  28.154   5.390
 3340POPC   GL144401  40.644  28.140   5.806
 3340POPC   GL244402  40.396  27.918   5.786
 3340POPC   C1A44403  40.652  28.269   6.227
 3340POPC   D2A44404  40.637  28.507   6.615
 3340POPC   C3A44405  40.850  28.443   7.011
 3340POPC   C4A44406  41.094  28.309   7.403
 3340POPC   C1B44407  40.302  27.874   6.222
 3340POPC   C2B44408  40.487  27.996   6.627
 3340POPC   C3B44409  40.640  27.972   7.012
 3340POPC   C4B44410  40.407  27.826   7.365
 3341POPC   NC344411  21.781   7.511   5.589
 3341POPC   PO444412  22.273   7.371   5.138
 3341POPC   GL144413  22.289   7.465   5.651
 3341POPC   GL244414  22.105   7.184   5.819
 3341POPC   C1A44415  22.209   7.547   6.166
 3341POPC   D2A44416  22.428   7.568   6.629
 3341POPC   C3A44417  22.211   7.567   7.053
 3341POPC   C4A44418  22.339   7.793   7.457
 3341POPC   C1B44419  22.295   7.035   6.212
 3341POPC   C2B44420  22.082   6.971   6.573
 3341POPC   C3B44421  22.209   6.995   6.973
 3341POPC   C4B44422  22.027   7.154   7.306
 3342POPC   NC344423  38.723  30.739   5.438
 3342POPC   PO444424  38.100  30.914   5.383
 3342POPC   GL144425  38.276  30.694   5.720
 3342POPC   GL244426  38.470  30.950   5.818
 3342POPC   C1A44427  38.366  30.426   6.067
 3342POPC   D2A44428  38.240  30.526   6.486
 3342POPC   C3A44429  38.505  30.452   6.830
 3342POPC   C4A44430  38.496  30.568   7.261
 3342POPC   C1B44431  38.510  30.890   6.234
 3342POPC   C2B44432  38.417  30.981   6.646
 3342POPC   C3B44433  38.502  31.036   7.079
 3342POPC   C4B44434  38.549  31.025   7.569
 3343POPC   NC344435  27.066  14.964   5.250
 3343POPC   PO444436  26.496  15.247   5.360
 3343POPC   GL144437  26.589  15.132   5.758
 3343POPC   GL244438  26.916  15.110   5.717
 3343POPC   C1A44439  26.727  15.380   6.136
 3343POPC   D2A44440  26.976  15.413   6.521
 3343POPC   C3A44441  26.778  15.239   6.898
 3343POPC   C4A44442  26.972  15.322   7.307
 3343POPC   C1B44443  26.950  14.913   6.135
 3343POPC   C2B44444  27.040  14.900   6.597
 3343POPC   C3B44445  27.033  14.826   7.068
 3343POPC   C4B44446  26.655  14.944   7.324
 3344POPC   NC344447  41.233  41.415   5.538
 3344POPC   PO444448  41.792  41.761   5.444
 3344POPC   GL144449  41.547  41.731   5.801
 3344POPC   GL244450  41.264  41.943   5.802
 3344POPC   C1A44451  41.610  41.540   6.201
 3344POPC   D2A44452  41.470  41.270   6.551
 3344POPC   C3A44453  41.537  41.505   6.932
 3344POPC   C4A44454  41.882  41.626   7.184
 3344POPC   C1B44455  41.150  41.789   6.169
 3344POPC   C2B44456  41.329  41.803   6.543
 3344POPC   C3B44457  41.192  41.902   6.894
 3344POPC   C4B44458  41.378  41.836   7.281
 3345POPC   NC344459   9.634  38.358   5.681
 3345POPC   PO444460  10.040  38.614   5.234
 3345POPC   GL144461   9.983  38.678   5.796
 3345POPC   GL244462   9.946  38.372   6.094
 3345POPC   C1A44463   9.817  38.837   6.209
 3345POPC   D2A44464   9.726  38.539   6.533
 3345POPC   C3A44465   9.725  38.592   6.952
 3345POPC   C4A44466   9.777  38.301   7.278
 3345POPC   C1B44467   9.595  38.115   6.255
 3345POPC   C2B44468   9.297  38.203   6.513
 3345POPC   C3B44469   9.438  38.168   6.873
 3345POPC   C4B44470   9.335  38.079   7.232
 3346POPC   NC344471  18.222  35.547   5.342
 3346POPC   PO444472  18.178  34.995   5.653
 3346POPC   GL144473  18.362  35.364   5.801
 3346POPC   GL244474  18.112  35.602   5.911
 3346POPC   C1A44475  18.563  35.470   6.165
 3346POPC   D2A44476  18.531  35.262   6.553
 3346POPC   C3A44477  18.510  35.503   6.915
 3346POPC   C4A44478  18.239  35.476   7.250
 3346POPC   C1B44479  18.071  35.321   6.291
 3346POPC   C2B44480  18.031  35.358   6.757
 3346POPC   C3B44481  17.752  35.608   7.074
 3346POPC   C4B44482  17.780  35.744   7.530
 3347POPC   NC344483  28.844   2.857   5.432
 3347POPC   PO444484  29.499   2.571   5.479
 3347POPC   GL144485  29.331   2.893   5.704
 3347POPC   GL244486  29.129   2.694   5.842
 3347POPC   C1A44487  29.240   3.075   6.135
 3347POPC   D2A44488  29.258   2.902   6.548
 3347POPC   C3A44489  29.199   3.124   6.928
 3347POPC   C4A44490  29.234   2.906   7.318
 3347POPC   C1B44491  28.926   2.654   6.229
 3347POPC   C2B44492  28.801   2.638   6.608
 3347POPC   C3B44493  28.955   2.666   6.943
 3347POPC   C4B44494  28.931   2.391   7.240
 3348POPC   NC344495   0.844   2.240   5.384
 3348POPC   PO444496   0.240   2.293   5.139
 3348POPC   GL144497   0.315   2.208   5.609
 3348POPC   GL244498   0.169   1.873   5.703
 3348POPC   C1A44499   0.518   2.073   6.048
 3348POPC   D2A44500   0.463   1.882   6.492
 3348POPC   C3A44501   0.516   2.050   6.919
 3348POPC   C4A44502   0.888   2.159   7.157
 3348POPC   C1B44503   0.137   1.689   6.143
 3348POPC   C2B44504  44.989   1.631   6.591
 3348POPC   C3B44505   0.084   1.768   7.044
 3348POPC   C4B44506   0.077   1.696   7.509
 3349POPC   NC344507  37.338  33.359   5.095
 3349POPC   PO444508  37.881  32.952   5.287
 3349POPC   GL144509  37.890  32.968   5.779
 3349POPC   GL244510  37.542  32.877   5.861
 3349POPC   C1A44511  37.809  33.192   6.218
 3349POPC   D2A44512  37.985  33.236   6.683
 3349POPC   C3A44513  37.877  33.259   7.156
 3349POPC   C4A44514  37.904  33.063   7.572
 3349POPC   C1B44515  37.255  32.919   6.210
 3349POPC   C2B44516  37.138  33.124   6.585
 3349POPC   C3B44517  37.201  32.981   7.007
 3349POPC   C4B44518  37.438  32.971   7.390
 3350POPC   NC344519  33.645  28.089   5.490
 3350POPC   PO444520  33.759  27.436   5.566
 3350POPC   GL144521  33.779  27.548   5.957
 3350POPC   GL244522  34.019  27.295   6.045
 3350POPC   C1A44523  33.688  27.792   6.333
 3350POPC   D2A44524  33.833  27.958   6.757
 3350POPC   C3A44525  33.768  27.730   7.128
 3350POPC   C4A44526  33.353  27.569   7.143
 3350POPC   C1B44527  33.699  27.271   6.366
 3350POPC   C2B44528  33.604  27.459   6.708
 3350POPC   C3B44529  33.659  27.183   6.986
 3350POPC   C4B44530  34.055  27.296   7.096
 3351POPC   NC344531  36.202  43.974   5.546
 3351POPC   PO444532  35.865  43.360   5.424
 3351POPC   GL144533  35.915  43.638   5.830
 3351POPC   GL244534  36.235  43.751   6.023
 3351POPC   C1A44535  35.815  43.987   6.147
 3351POPC   D2A44536  36.075  44.148   6.533
 3351POPC   C3A44537  35.967  43.945   6.945
 3351POPC   C4A44538  35.805  44.115   7.318
 3351POPC   C1B44539  36.512  44.106   6.201
 3351POPC   C2B44540  36.703  44.114   6.616
 3351POPC   C3B44541  36.458  44.229   6.987
 3351POPC   C4B44542  36.303  44.065   7.379
 3352POPC   NC344543   7.229  31.444   5.587
 3352POPC   PO444544   6.644  31.483   5.252
 3352POPC   GL144545   6.693  31.592   5.707
 3352POPC   GL244546   6.735  31.958   5.825
 3352POPC   C1A44547   6.666  31.442   6.138
 3352POPC   D2A44548   6.578  31.156   6.492
 3352POPC   C3A44549   6.834  31.183   6.853
 3352POPC   C4A44550   6.853  31.368   7.224
 3352POPC   C1B44551   6.457  31.943   6.190
 3352POPC   C2B44552   6.331  31.620   6.496
 3352POPC   C3B44553   6.570  31.626   6.879
 3352POPC   C4B44554   6.493  31.787   7.297
 3353POPC   NC344555  42.748  14.192   5.424
 3353POPC   PO444556  43.421  14.427   5.376
 3353POPC   GL144557  43.105  14.456   5.717
 3353POPC   GL244558  42.969  14.119   5.872
 3353POPC   C1A44559  43.015  14.536   6.165
 3353POPC   D2A44560  43.019  14.364   6.588
 3353POPC   C3A44561  43.046  14.600   6.943
 3353POPC   C4A44562  42.993  14.830   7.321
 3353POPC   C1B44563  42.682  14.169   6.260
 3353POPC   C2B44564  42.655  14.038   6.704
 3353POPC   C3B44565  42.925  13.936   7.071
 3353POPC   C4B44566  42.749  13.800   7.480
 3354POPC   NC344567  21.719  40.678   5.624
 3354POPC   PO444568  22.314  40.856   5.304
 3354POPC   GL144569  22.202  40.865   5.752
 3354POPC   GL244570  22.239  41.228   5.759
 3354POPC   C1A44571  22.247  40.690   6.194
 3354POPC   D2A44572  22.482  40.478   6.569
 3354POPC   C3A44573  22.324  40.561   7.017
 3354POPC   C4A44574  22.308  40.468   7.478
 3354POPC   C1B44575  22.071  41.202   6.174
 3354POPC   C2B44576  21.954  41.002   6.558
 3354POPC   C3B44577  21.860  40.846   6.947
 3354POPC   C4B44578  21.976  41.046   7.292
 3355POPC   NC344579  34.225  12.494   5.451
 3355POPC   PO444580  34.960  12.634   5.481
 3355POPC   GL144581  34.652  12.714   5.797
 3355POPC   GL244582  34.817  12.990   5.941
 3355POPC   C1A44583  34.597  12.627   6.251
 3355POPC   D2A44584  34.768  12.879   6.596
 3355POPC   C3A44585  34.529  12.820   6.939
 3355POPC   C4A44586  34.551  12.534   7.256
 3355POPC   C1B44587  34.432  13.111   6.160
 3355POPC   C2B44588  34.377  13.204   6.575
 3355POPC   C3B44589  34.429  13.312   6.993
 3355POPC   C4B44590  34.296  13.062   7.349
 3356POPC   NC344591  40.048  21.141   5.521
 3356POPC   PO444592  40.290  21.725   5.346
 3356POPC   GL144593  40.112  21.617   5.730
 3356POPC   GL244594  39.767  21.546   5.790
 3356POPC   C1A44595  40.163  21.583   6.167
 3356POPC   D2A44596  40.263  21.251   6.451
 3356POPC   C3A44597  40.217  21.378   6.854
 3356POPC   C4A44598  40.209  21.230   7.258
 3356POPC   C1B44599  39.773  21.224   6.154
 3356POPC   C2B44600  39.755  21.267   6.615
 3356POPC   C3B44601  39.756  21.418   7.059
 3356POPC   C4B44602  39.762  21.186   7.474
 3357POPC   NC344603  35.177  22.240   5.051
 3357POPC   PO444604  35.333  22.126   5.628
 3357POPC   GL144605  35.363  22.252   5.971
 3357POPC   GL244606  35.002  22.324   5.967
 3357POPC   C1A44607  35.633  22.109   6.283
 3357POPC   D2A44608  35.824  21.965   6.658
 3357POPC   C3A44609  35.591  22.209   6.908
 3357POPC   C4A44610  35.424  22.294   7.292
 3357POPC   C1B44611  35.072  21.912   6.210
 3357POPC   C2B44612  35.247  21.893   6.617
 3357POPC   C3B44613  35.078  22.146   6.966
 3357POPC   C4B44614  35.014  22.067   7.434
 3358POPC   NC344615  43.128  42.261   5.336
 3358POPC   PO444616  42.779  42.903   5.233
 3358POPC   GL144617  42.943  42.615   5.652
 3358POPC   GL244618  43.271  42.528   5.760
 3358POPC   C1A44619  42.894  42.391   6.102
 3358POPC   D2A44620  42.931  42.530   6.576
 3358POPC   C3A44621  43.013  42.289   6.977
 3358POPC   C4A44622  42.995  42.194   7.439
 3358POPC   C1B44623  43.512  42.444   6.117
 3358POPC   C2B44624  43.651  42.362   6.524
 3358POPC   C3B44625  43.466  42.503   6.891
 3358POPC   C4B44626  43.293  42.609   7.281
 3359POPC   NC344627   8.335  43.042   5.218
 3359POPC   PO444628   7.649  43.175   5.297
 3359POPC   GL144629   7.997  43.120   5.624
 3359POPC   GL244630   8.193  43.413   5.752
 3359POPC   C1A44631   8.312  42.943   5.954
 3359POPC   D2A44632   8.306  42.933   6.442
 3359POPC   C3A44633   8.347  43.088   6.870
 3359POPC   C4A44634   8.299  42.900   7.253
 3359POPC   C1B44635   7.937  43.246   6.132
 3359POPC   C2B44636   7.979  43.346   6.581
 3359POPC   C3B44637   7.918  43.317   7.027
 3359POPC   C4B44638   8.249  43.404   7.331
 3360POPC   NC344639   8.254  17.181   5.142
 3360POPC   PO444640   8.169  17.745   5.492
 3360POPC   GL144641   8.234  17.575   5.854
 3360POPC   GL244642   7.975  17.280   5.754
 3360POPC   C1A44643   8.306  17.685   6.305
 3360POPC   D2A44644   8.451  17.352   6.597
 3360POPC   C3A44645   8.338  17.392   7.019
 3360POPC   C4A44646   8.056  17.721   7.118
 3360POPC   C1B44647   8.039  17.280   6.225
 3360POPC   C2B44648   7.965  17.134   6.647
 3360POPC   C3B44649   7.849  17.230   7.068
 3360POPC   C4B44650   7.711  17.195   7.478
 3361POPC   NC344651  21.093   7.775   5.355
 3361POPC   PO444652  21.481   7.190   5.472
 3361POPC   GL144653  21.504   7.170   5.879
 3361POPC   GL244654  21.117   7.223   5.858
 3361POPC   C1A44655  21.762   7.278   6.240
 3361POPC   D2A44656  21.930   7.470   6.601
 3361POPC   C3A44657  21.738   7.328   6.948
 3361POPC   C4A44658  21.596   7.413   7.386
 3361POPC   C1B44659  21.270   7.546   6.146
 3361POPC   C2B44660  21.394   7.472   6.574
 3361POPC   C3B44661  21.279   7.541   6.984
 3361POPC   C4B44662  21.107   7.574   7.366
 3362POPC   NC344663  15.306   1.344   5.383
 3362POPC   PO444664  14.824   0.819   5.288
 3362POPC   GL144665  14.861   1.010   5.713
 3362POPC   GL244666  14.985   1.365   5.775
 3362POPC   C1A44667  15.084   0.916   6.104
 3362POPC   D2A44668  15.086   0.756   6.530
 3362POPC   C3A44669  15.320   0.990   6.826
 3362POPC   C4A44670  15.295   0.947   7.261
 3362POPC   C1B44671  14.864   1.424   6.209
 3362POPC   C2B44672  14.934   1.595   6.638
 3362POPC   C3B44673  15.077   1.412   7.052
 3362POPC   C4B44674  15.101   1.345   7.516
 3363POPC   NC344675  33.009   3.696   5.388
 3363POPC   PO444676  33.515   3.262   5.406
 3363POPC   GL144677  33.128   3.229   5.710
 3363POPC   GL244678  33.183   3.562   5.854
 3363POPC   C1A44679  32.933   3.273   6.171
 3363POPC   D2A44680  33.139   3.549   6.499
 3363POPC   C3A44681  33.006   3.538   6.931
 3363POPC   C4A44682  33.025   3.308   7.324
 3363POPC   C1B44683  32.935   3.857   6.135
 3363POPC   C2B44684  33.042   4.117   6.517
 3363POPC   C3B44685  33.115   4.061   6.970
 3363POPC   C4B44686  33.136   3.802   7.346
 3364POPC   NC344687  32.451   9.467   5.532
 3364POPC   PO444688  32.261  10.054   5.443
 3364POPC   GL144689  32.229   9.898   5.828
 3364POPC   GL244690  32.016   9.628   5.834
 3364POPC   C1A44691  32.325   9.704   6.242
 3364POPC   D2A44692  32.523   9.481   6.578
 3364POPC   C3A44693  32.539   9.736   6.955
 3364POPC   C4A44694  32.306   9.871   7.334
 3364POPC   C1B44695  31.868   9.959   6.173
 3364POPC   C2B44696  31.827   9.944   6.642
 3364POPC   C3B44697  31.769  10.170   7.045
 3364POPC   C4B44698  31.897  10.198   7.535
 3365POPC   NC344699  32.771  29.909   5.472
 3365POPC   PO444700  33.489  30.148   5.489
 3365POPC   GL144701  33.351  29.991   5.868
 3365POPC   GL244702  33.162  29.702   5.846
 3365POPC   C1A44703  33.285  29.941   6.313
 3365POPC   D2A44704  33.138  30.217   6.610
 3365POPC   C3A44705  33.120  30.092   7.019
 3365POPC   C4A44706  32.707  30.048   7.133
 3365POPC   C1B44707  32.950  29.554   6.247
 3365POPC   C2B44708  32.919  29.746   6.685
 3365POPC   C3B44709  32.987  29.591   7.123
 3365POPC   C4B44710  32.837  29.591   7.544
 3366POPC   NC344711  21.235  10.186   5.576
 3366POPC   PO444712  21.396   9.632   5.372
 3366POPC   GL144713  21.234   9.695   5.777
 3366POPC   GL244714  21.552   9.789   5.908
 3366POPC   C1A44715  21.176   9.760   6.241
 3366POPC   D2A44716  21.258   9.518   6.634
 3366POPC   C3A44717  21.238   9.617   7.073
 3366POPC   C4A44718  21.353   9.687   7.521
 3366POPC   C1B44719  21.657   9.772   6.380
 3366POPC   C2B44720  21.569   9.922   6.822
 3366POPC   C3B44721  21.762   9.993   7.243
 3366POPC   C4B44722  21.600  10.208   7.623
 3367POPC   NC344723  36.631  29.188   5.393
 3367POPC   PO444724  37.242  29.000   5.541
 3367POPC   GL144725  36.902  29.109   5.809
 3367POPC   GL244726  36.637  28.850   5.782
 3367POPC   C1A44727  36.845  29.118   6.232
 3367POPC   D2A44728  37.048  28.864   6.512
 3367POPC   C3A44729  36.979  29.025   6.880
 3367POPC   C4A44730  37.185  28.888   7.240
 3367POPC   C1B44731  36.513  28.737   6.198
 3367POPC   C2B44732  36.528  28.922   6.613
 3367POPC   C3B44733  36.538  28.886   7.058
 3367POPC   C4B44734  36.786  29.201   7.321
 3368POPC   NC344735   4.101   1.079   4.871
 3368POPC   PO444736   4.251   1.236   5.504
 3368POPC   GL144737   4.125   1.296   5.886
 3368POPC   GL244738   3.907   1.048   5.922
 3368POPC   C1A44739   4.178   1.468   6.295
 3368POPC   D2A44740   4.303   1.218   6.646
 3368POPC   C3A44741   4.118   1.318   7.033
 3368POPC   C4A44742   4.387   1.240   7.351
 3368POPC   C1B44743   3.977   1.003   6.315
 3368POPC   C2B44744   3.789   1.144   6.655
 3368POPC   C3B44745   3.893   0.880   6.932
 3368POPC   C4B44746   4.095   0.798   7.306
 3369POPC   NC344747   2.893  43.919   5.199
 3369POPC   PO444748   3.181  43.452   5.568
 3369POPC   GL144749   2.966  43.782   5.730
 3369POPC   GL244750   2.676  43.573   5.762
 3369POPC   C1A44751   3.007  43.972   6.141
 3369POPC   D2A44752   2.832  43.851   6.534
 3369POPC   C3A44753   2.998  43.941   6.923
 3369POPC   C4A44754   2.727  44.083   7.221
 3369POPC   C1B44755   2.507  43.767   6.133
 3369POPC   C2B44756   2.310  43.788   6.527
 3369POPC   C3B44757   2.508  43.707   6.931
 3369POPC   C4B44758   2.852  43.502   7.128
 3370POPC   NC344759  35.179  34.760   5.403
 3370POPC   PO444760  35.623  34.278   5.467
 3370POPC   GL144761  35.268  34.406   5.791
 3370POPC   GL244762  35.187  34.776   5.904
 3370POPC   C1A44763  35.166  34.315   6.237
 3370POPC   D2A44764  35.400  34.283   6.652
 3370POPC   C3A44765  35.142  34.323   7.026
 3370POPC   C4A44766  35.165  34.648   7.315
 3370POPC   C1B44767  35.492  34.732   6.225
 3370POPC   C2B44768  35.473  34.825   6.658
 3370POPC   C3B44769  35.607  34.616   7.032
 3370POPC   C4B44770  35.621  34.925   7.326
 3371POPC   NC344771  39.004  13.380   5.198
 3371POPC   PO444772  39.160  12.737   5.450
 3371POPC   GL144773  39.160  12.883   5.893
 3371POPC   GL244774  39.009  13.194   5.784
 3371POPC   C1A44775  39.319  13.213   6.217
 3371POPC   D2A44776  39.432  13.394   6.659
 3371POPC   C3A44777  39.417  13.106   7.029
 3371POPC   C4A44778  39.516  12.697   7.245
 3371POPC   C1B44779  38.761  13.081   6.150
 3371POPC   C2B44780  38.892  12.886   6.518
 3371POPC   C3B44781  38.822  12.995   6.927
 3371POPC   C4B44782  39.036  12.825   7.249
 3372POPC   NC344783  23.611   0.798   5.555
 3372POPC   PO444784  23.493   0.195   5.255
 3372POPC   GL144785  23.676   0.325   5.715
 3372POPC   GL244786  23.967   0.588   5.830
 3372POPC   C1A44787  23.532   0.480   6.156
 3372POPC   D2A44788  23.607   0.291   6.591
 3372POPC   C3A44789  23.419   0.371   7.019
 3372POPC   C4A44790  23.402   0.103   7.401
 3372POPC   C1B44791  24.021   0.557   6.281
 3372POPC   C2B44792  24.048   0.494   6.734
 3372POPC   C3B44793  23.877   0.642   7.111
 3372POPC   C4B44794  24.044   0.671   7.507
 3373POPC   NC344795   4.995  27.485   5.410
 3373POPC   PO444796   5.566  27.499   5.248
 3373POPC   GL144797   5.405  27.507   5.735
 3373POPC   GL244798   5.074  27.562   5.906
 3373POPC   C1A44799   5.431  27.564   6.241
 3373POPC   D2A44800   5.213  27.600   6.661
 3373POPC   C3A44801   5.376  27.435   7.078
 3373POPC   C4A44802   5.282  27.151   7.461
 3373POPC   C1B44803   4.937  27.834   6.270
 3373POPC   C2B44804   4.861  27.961   6.714
 3373POPC   C3B44805   4.904  27.670   7.088
 3373POPC   C4B44806   5.099  27.617   7.493
 3374POPC   NC344807  36.338  31.773   5.581
 3374POPC   PO444808  35.840  31.423   5.349
 3374POPC   GL144809  36.078  31.392   5.788
 3374POPC   GL244810  35.977  31.617   6.007
 3374POPC   C1A44811  36.351  31.343   6.191
 3374POPC   D2A44812  36.138  31.357   6.615
 3374POPC   C3A44813  36.313  31.482   7.022
 3374POPC   C4A44814  36.215  31.557   7.454
 3374POPC   C1B44815  35.738  31.846   6.313
 3374POPC   C2B44816  35.488  31.785   6.662
 3374POPC   C3B44817  35.681  31.690   7.050
 3374POPC   C4B44818  35.865  31.912   7.387
 3375POPC   NC344819  29.651  29.965   5.425
 3375POPC   PO444820  30.261  30.279   5.401
 3375POPC   GL144821  30.141  30.006   5.775
 3375POPC   GL244822  29.797  29.893   5.902
 3375POPC   C1A44823  30.160  30.054   6.242
 3375POPC   D2A44824  30.073  29.733   6.511
 3375POPC   C3A44825  29.817  29.875   6.845
 3375POPC   C4A44826  29.818  29.883   7.294
 3375POPC   C1B44827  29.659  30.085   6.294
 3375POPC   C2B44828  29.900  30.331   6.586
 3375POPC   C3B44829  29.864  30.377   6.997
 3375POPC   C4B44830  29.461  30.237   7.191
 3376POPC   NC344831  24.591  27.986   5.221
 3376POPC   PO444832  24.281  28.549   5.535
 3376POPC   GL144833  24.528  28.620   5.890
 3376POPC   GL244834  24.546  28.267   5.958
 3376POPC   C1A44835  24.501  28.623   6.359
 3376POPC   D2A44836  24.175  28.625   6.715
 3376POPC   C3A44837  24.376  28.471   7.094
 3376POPC   C4A44838  24.391  28.094   7.353
 3376POPC   C1B44839  24.831  28.069   6.265
 3376POPC   C2B44840  24.831  28.262   6.646
 3376POPC   C3B44841  24.828  28.121   7.059
 3376POPC   C4B44842  24.855  27.905   7.438
 3377POPC   NC344843  33.290  37.908   5.613
 3377POPC   PO444844  33.838  37.579   5.378
 3377POPC   GL144845  33.785  37.854   5.743
 3377POPC   GL244846  33.764  37.545   5.901
 3377POPC   C1A44847  33.620  37.964   6.178
 3377POPC   D2A44848  33.669  37.716   6.530
 3377POPC   C3A44849  33.882  37.783   6.894
 3377POPC   C4A44850  33.671  37.908   7.256
 3377POPC   C1B44851  33.423  37.433   6.169
 3377POPC   C2B44852  33.467  37.249   6.601
 3377POPC   C3B44853  33.446  37.481   6.992
 3377POPC   C4B44854  33.525  37.444   7.450
 3378POPC   NC344855  12.324  21.654   5.477
 3378POPC   PO444856  11.712  21.316   5.501
 3378POPC   GL144857  12.016  21.400   5.829
 3378POPC   GL244858  12.235  21.144   5.967
 3378POPC   C1A44859  11.930  21.519   6.237
 3378POPC   D2A44860  11.970  21.363   6.652
 3378POPC   C3A44861  12.277  21.614   6.813
 3378POPC   C4A44862  12.471  21.700   7.188
 3378POPC   C1B44863  11.867  20.993   6.252
 3378POPC   C2B44864  11.652  20.910   6.687
 3378POPC   C3B44865  11.878  20.955   7.094
 3378POPC   C4B44866  12.241  21.219   7.136
 3379POPC   NC344867  30.084  11.687   5.428
 3379POPC   PO444868  29.490  12.014   5.408
 3379POPC   GL144869  29.704  11.836   5.777
 3379POPC   GL244870  29.992  12.048   5.771
 3379POPC   C1A44871  29.953  11.806   6.211
 3379POPC   D2A44872  30.180  11.829   6.633
 3379POPC   C3A44873  29.980  11.676   7.008
 3379POPC   C4A44874  29.792  11.903   7.321
 3379POPC   C1B44875  30.132  12.311   6.089
 3379POPC   C2B44876  30.116  12.356   6.513
 3379POPC   C3B44877  30.280  12.350   6.914
 3379POPC   C4B44878  30.040  12.403   7.273
 3380POPC   NC344879   9.438   9.917   5.500
 3380POPC   PO444880   9.921   9.500   5.344
 3380POPC   GL144881   9.843   9.663   5.703
 3380POPC   GL244882   9.548   9.468   5.772
 3380POPC   C1A44883   9.789   9.792   6.129
 3380POPC   D2A44884   9.691   9.520   6.495
 3380POPC   C3A44885   9.558   9.768   6.842
 3380POPC   C4A44886   9.529  10.039   7.216
 3380POPC   C1B44887   9.302   9.506   6.144
 3380POPC   C2B44888   9.178   9.474   6.598
 3380POPC   C3B44889   9.227   9.450   7.062
 3380POPC   C4B44890   9.622   9.518   7.293
 3381POPC   NC344891  12.036   8.037   5.048
 3381POPC   PO444892  11.938   8.293   5.498
 3381POPC   GL144893  11.728   8.444   5.862
 3381POPC   GL244894  11.980   8.580   6.024
 3381POPC   C1A44895  11.674   8.251   6.280
 3381POPC   D2A44896  11.876   8.277   6.692
 3381POPC   C3A44897  11.819   8.017   7.053
 3381POPC   C4A44898  11.990   8.180   7.420
 3381POPC   C1B44899  12.183   8.219   6.256
 3381POPC   C2B44900  12.255   7.934   6.632
 3381POPC   C3B44901  12.343   7.987   7.071
 3381POPC   C4B44902  12.270   7.756   7.456
 3382POPC   NC344903  27.290   3.114   5.312
 3382POPC   PO444904  27.219   3.799   5.169
 3382POPC   GL144905  27.267   3.793   5.681
 3382POPC   GL244906  27.191   3.448   5.801
 3382POPC   C1A44907  27.414   3.821   6.145
 3382POPC   D2A44908  27.492   3.669   6.589
 3382POPC   C3A44909  27.843   3.635   6.853
 3382POPC   C4A44910  27.878   3.575   7.302
 3382POPC   C1B44911  27.444   3.320   6.180
 3382POPC   C2B44912  27.748   3.234   6.524
 3382POPC   C3B44913  27.583   3.198   6.940
 3382POPC   C4B44914  27.320   3.484   7.158
 3383POPC   NC344915  20.101   9.345   5.446
 3383POPC   PO444916  19.891  10.031   5.513
 3383POPC   GL144917  19.731   9.868   5.921
 3383POPC   GL244918  19.932   9.542   5.914
 3383POPC   C1A44919  19.813   9.768   6.377
 3383POPC   D2A44920  19.865   9.441   6.692
 3383POPC   C3A44921  19.553   9.426   7.018
 3383POPC   C4A44922  19.447   9.845   7.184
 3383POPC   C1B44923  20.201   9.887   6.075
 3383POPC   C2B44924  20.341  10.013   6.448
 3383POPC   C3B44925  20.250   9.916   6.868
 3383POPC   C4B44926  19.955   9.708   7.148
 3384POPC   NC344927   5.225  21.633   5.335
 3384POPC   PO444928   4.836  20.999   5.276
 3384POPC   GL144929   4.891  21.094   5.780
 3384POPC   GL244930   4.877  21.456   5.804
 3384POPC   C1A44931   5.182  21.354   6.171
 3384POPC   D2A44932   5.463  21.343   6.483
 3384POPC   C3A44933   5.310  21.401   6.869
 3384POPC   C4A44934   5.183  21.362   7.270
 3384POPC   C1B44935   4.696  21.239   6.195
 3384POPC   C2B44936   4.965  21.122   6.567
 3384POPC   C3B44937   4.823  21.144   6.989
 3384POPC   C4B44938   4.857  20.999   7.433
 3385POPC   NC344939  36.532  35.219   5.315
 3385POPC   PO444940  36.004  35.717   5.337
 3385POPC   GL144941  36.123  35.493   5.729
 3385POPC   GL244942  36.451  35.375   5.803
 3385POPC   C1A44943  36.028  35.424   6.170
 3385POPC   D2A44944  36.184  35.361   6.596
 3385POPC   C3A44945  35.991  35.174   6.968
 3385POPC   C4A44946  36.211  35.429   7.303
 3385POPC   C1B44947  36.498  35.116   6.198
 3385POPC   C2B44948  36.494  34.948   6.624
 3385POPC   C3B44949  36.468  35.043   7.066
 3385POPC   C4B44950  36.499  34.911   7.504
 3386POPC   NC344951  33.994   6.131   5.449
 3386POPC   PO444952  33.565   5.657   5.406
 3386POPC   GL144953  33.643   5.571   5.814
 3386POPC   GL244954  34.003   5.546   5.749
 3386POPC   C1A44955  33.643   5.530   6.260
 3386POPC   D2A44956  33.446   5.734   6.608
 3386POPC   C3A44957  33.676   5.846   6.961
 3386POPC   C4A44958  33.527   5.954   7.363
 3386POPC   C1B44959  34.008   5.855   6.094
 3386POPC   C2B44960  34.086   5.892   6.554
 3386POPC   C3B44961  34.060   6.187   6.902
 3386POPC   C4B44962  33.930   6.278   7.301
 3387POPC   NC344963   2.679   7.811   5.513
 3387POPC   PO444964   2.339   8.251   5.207
 3387POPC   GL144965   2.520   8.278   5.664
 3387POPC   GL244966   2.877   8.215   5.775
 3387POPC   C1A44967   2.530   8.120   6.110
 3387POPC   D2A44968   2.704   8.117   6.520
 3387POPC   C3A44969   2.468   8.240   6.869
 3387POPC   C4A44970   2.541   8.356   7.294
 3387POPC   C1B44971   3.113   8.093   6.187
 3387POPC   C2B44972   3.199   8.192   6.637
 3387POPC   C3B44973   2.962   8.118   7.006
 3387POPC   C4B44974   2.957   8.130   7.474
 3388POPC   NC344975  13.038  42.935   5.360
 3388POPC   PO444976  12.589  43.410   5.512
 3388POPC   GL144977  12.821  43.134   5.805
 3388POPC   GL244978  13.200  43.113   5.811
 3388POPC   C1A44979  12.633  43.137   6.212
 3388POPC   D2A44980  12.558  42.920   6.589
 3388POPC   C3A44981  12.534  43.240   6.889
 3388POPC   C4A44982  12.600  43.189   7.288
 3388POPC   C1B44983  13.126  43.322   6.188
 3388POPC   C2B44984  12.979  43.276   6.610
 3388POPC   C3B44985  13.047  43.189   7.041
 3388POPC   C4B44986  13.083  43.091   7.470
 3389POPC   NC344987  43.302  21.635   5.524
 3389POPC   PO444988  43.013  21.004   5.312
 3389POPC   GL144989  43.062  21.208   5.763
 3389POPC   GL244990  42.957  21.556   5.875
 3389POPC   C1A44991  43.102  21.113   6.234
 3389POPC   D2A44992  43.303  20.972   6.658
 3389POPC   C3A44993  43.147  21.171   7.081
 3389POPC   C4A44994  42.788  21.160   7.361
 3389POPC   C1B44995  43.242  21.612   6.223
 3389POPC   C2B44996  43.225  21.486   6.654
 3389POPC   C3B44997  43.115  21.717   7.004
 3389POPC   C4B44998  43.477  21.628   7.191
 3390POPC   NC344999   1.641  34.300   5.415
 3390POPC   PO445000   2.288  34.499   5.443
 3390POPC   GL145001   2.162  34.494   5.867
 3390POPC   GL245002   2.193  34.838   5.956
 3390POPC   C1A45003   2.042  34.497   6.303
 3390POPC   D2A45004   1.807  34.651   6.657
 3390POPC   C3A45005   1.973  34.360   6.903
 3390POPC   C4A45006   2.112  34.356   7.315
 3390POPC   C1B45007   2.351  34.957   6.311
 3390POPC   C2B45008   2.343  34.724   6.668
 3390POPC   C3B45009   2.207  34.794   7.038
 3390POPC   C4B45010   2.134  35.072   7.332
 3391POPC   NC345011  15.327   9.509   5.452
 3391POPC   PO445012  15.148  10.136   5.468
 3391POPC   GL145013  15.082   9.983   5.865
 3391POPC   GL245014  15.420   9.874   5.874
 3391POPC   C1A45015  15.121   9.855   6.326
 3391POPC   D2A45016  15.061   9.676   6.774
 3391POPC   C3A45017  14.854   9.834   7.170
 3391POPC   C4A45018  14.629   9.771   7.610
 3391POPC   C1B45019  15.640   9.860   6.273
 3391POPC   C2B45020  15.472   9.997   6.687
 3391POPC   C3B45021  15.404   9.943   7.135
 3391POPC   C4B45022  15.654   9.850   7.542
 3392POPC   NC345023   2.665  23.295   5.321
 3392POPC   PO445024   2.946  23.885   5.321
 3392POPC   GL145025   2.733  23.780   5.729
 3392POPC   GL245026   2.533  23.480   5.776
 3392POPC   C1A45027   2.683  23.802   6.193
 3392POPC   D2A45028   2.705  24.166   6.488
 3392POPC   C3A45029   2.792  24.149   6.926
 3392POPC   C4A45030   2.502  24.193   7.227
 3392POPC   C1B45031   2.930  23.373   5.999
 3392POPC   C2B45032   2.938  23.422   6.466
 3392POPC   C3B45033   2.658  23.385   6.854
 3392POPC   C4B45034   2.594  23.684   7.212
 3393POPC   NC345035  44.862   2.067   5.311
 3393POPC   PO445036  44.225   1.829   5.547
 3393POPC   GL145037  44.642   1.904   5.786
 3393POPC   GL245038  44.827   2.233   5.818
 3393POPC   C1A45039  44.696   1.947   6.242
 3393POPC   D2A45040  44.497   2.121   6.602
 3393POPC   C3A45041  44.561   1.832   6.912
 3393POPC   C4A45042  44.476   1.934   7.321
 3393POPC   C1B45043   0.065   2.290   6.212
 3393POPC   C2B45044   0.024   2.150   6.657
 3393POPC   C3B45045  44.862   2.234   7.083
 3393POPC   C4B45046  44.899   2.167   7.551
 3394POPC   NC345047  38.896  32.448   5.005
 3394POPC   PO445048  38.988  31.898   5.441
 3394POPC   GL145049  39.217  31.984   5.828
 3394POPC   GL245050  39.474  32.231   5.844
 3394POPC   C1A45051  39.162  32.157   6.267
 3394POPC   D2A45052  39.070  32.389   6.654
 3394POPC   C3A45053  39.113  32.215   7.055
 3394POPC   C4A45054  39.461  32.003   7.158
 3394POPC   C1B45055  39.605  32.429   6.217
 3394POPC   C2B45056  39.552  32.257   6.617
 3394POPC   C3B45057  39.571  32.469   6.976
 3394POPC   C4B45058  39.661  32.418   7.387
 3395POPC   NC345059  32.650  44.716   5.649
 3395POPC   PO445060  32.306   0.100   5.223
 3395POPC   GL145061  32.190   0.099   5.714
 3395POPC   GL245062  32.118  44.760   5.876
 3395POPC   C1A45063  32.289   0.104   6.194
 3395POPC   D2A45064  32.320  44.729   6.429
 3395POPC   C3A45065  32.283  44.763   6.874
 3395POPC   C4A45066  32.456  44.736   7.293
 3395POPC   C1B45067  32.026  44.413   6.168
 3395POPC   C2B45068  32.172  44.265   6.574
 3395POPC   C3B45069  32.005  44.337   6.978
 3395POPC   C4B45070  32.107  44.238   7.392
 3396POPC   NC345071  27.222  19.590   5.472
 3396POPC   PO445072  26.734  20.100   5.413
 3396POPC   GL145073  26.678  19.870   5.801
 3396POPC   GL245074  26.829  19.559   5.809
 3396POPC   C1A45075  26.832  19.867   6.222
 3396POPC   D2A45076  26.681  19.925   6.632
 3396POPC   C3A45077  26.920  19.991   7.017
 3396POPC   C4A45078  26.741  20.284   7.300
 3396POPC   C1B45079  27.068  19.419   6.178
 3396POPC   C2B45080  26.819  19.431   6.543
 3396POPC   C3B45081  26.715  19.516   6.956
 3396POPC   C4B45082  27.056  19.507   7.183
 3397POPC   NC345083  38.643  31.571   5.414
 3397POPC   PO445084  38.017  31.663   5.424
 3397POPC   GL145085  38.273  31.462   5.744
 3397POPC   GL245086  38.039  31.206   5.787
 3397POPC   C1A45087  38.662  31.362   6.034
 3397POPC   D2A45088  38.818  31.262   6.436
 3397POPC   C3A45089  38.558  31.474   6.725
 3397POPC   C4A45090  38.643  31.527   7.147
 3397POPC   C1B45091  38.204  31.298   6.214
 3397POPC   C2B45092  38.039  31.344   6.570
 3397POPC   C3B45093  38.071  31.227   6.941
 3397POPC   C4B45094  38.194  31.358   7.339
 3398POPC   NC345095  13.071  23.566   5.591
 3398POPC   PO445096  13.633  23.581   5.203
 3398POPC   GL145097  13.684  23.658   5.660
 3398POPC   GL245098  13.402  23.847   5.840
 3398POPC   C1A45099  13.769  23.612   6.109
 3398POPC   D2A45100  13.494  23.686   6.462
 3398POPC   C3A45101  13.726  23.745   6.844
 3398POPC   C4A45102  13.688  23.677   7.285
 3398POPC   C1B45103  13.281  24.118   6.208
 3398POPC   C2B45104  13.202  24.072   6.666
 3398POPC   C3B45105  13.460  24.143   7.044
 3398POPC   C4B45106  13.430  24.098   7.493
 3399POPC   NC345107  21.083   3.635   5.564
 3399POPC   PO445108  20.498   3.475   5.407
 3399POPC   GL145109  20.340   3.491   5.844
 3399POPC   GL245110  20.279   3.146   5.843
 3399POPC   C1A45111  20.497   3.675   6.272
 3399POPC   D2A45112  20.834   3.836   6.557
 3399POPC   C3A45113  20.826   3.689   6.991
 3399POPC   C4A45114  20.476   3.743   7.225
 3399POPC   C1B45115  20.491   3.166   6.244
 3399POPC   C2B45116  20.500   3.327   6.691
 3399POPC   C3B45117  20.260   3.289   7.097
 3399POPC   C4B45118  20.230   3.247   7.583
 3400POPC   NC345119  40.444  25.855   5.650
 3400POPC   PO445120  40.850  26.302   5.246
 3400POPC   GL145121  40.841  26.189   5.737
 3400POPC   GL245122  40.534  26.237   5.956
 3400POPC   C1A45123  40.919  26.085   6.218
 3400POPC   D2A45124  40.702  25.831   6.569
 3400POPC   C3A45125  41.036  25.789   6.877
 3400POPC   C4A45126  41.177  25.940   7.271
 3400POPC   C1B45127  40.621  26.556   6.237
 3400POPC   C2B45128  40.513  26.544   6.660
 3400POPC   C3B45129  40.590  26.194   6.937
 3400POPC   C4B45130  40.739  26.216   7.335
 3401POPC   NC345131   0.523  28.890   5.338
 3401POPC   PO445132   0.928  29.459   5.528
 3401POPC   GL145133   0.870  29.194   5.932
 3401POPC   GL245134   0.581  28.919   5.939
 3401POPC   C1A45135   0.603  29.286   6.298
 3401POPC   D2A45136   0.640  29.139   6.719
 3401POPC   C3A45137   0.542  29.420   7.023
 3401POPC   C4A45138   0.336  29.430   7.389
 3401POPC   C1B45139   0.239  28.941   6.318
 3401POPC   C2B45140   0.139  29.172   6.741
 3401POPC   C3B45141   0.354  28.970   7.139
 3401POPC   C4B45142   0.165  28.954   7.563
 3402POPC   NC345143   0.980   9.509   5.254
 3402POPC   PO445144   1.517   9.638   5.642
 3402POPC   GL145145   1.333   9.476   5.961
 3402POPC   GL245146   1.039   9.482   5.782
 3402POPC   C1A45147   1.177   9.540   6.349
 3402POPC   D2A45148   1.316   9.908   6.489
 3402POPC   C3A45149   1.384   9.928   6.938
 3402POPC   C4A45150   1.234   9.592   7.205
 3402POPC   C1B45151   0.990   9.898   5.998
 3402POPC   C2B45152   0.799   9.914   6.394
 3402POPC   C3B45153   0.922   9.726   6.778
 3402POPC   C4B45154   0.895   9.973   7.139
 3403POPC   NC345155  32.229  43.815   5.550
 3403POPC   PO445156  32.284  44.452   5.511
 3403POPC   GL145157  32.402  44.243   5.868
 3403POPC   GL245158  32.656  44.009   5.805
 3403POPC   C1A45159  32.288  43.929   6.189
 3403POPC   D2A45160  32.127  43.690   6.502
 3403POPC   C3A45161  32.172  43.845   6.859
 3403POPC   C4A45162  32.261  43.789   7.224
 3403POPC   C1B45163  32.759  44.143   6.232
 3403POPC   C2B45164  32.625  43.998   6.642
 3403POPC   C3B45165  32.501  44.214   7.038
 3403POPC   C4B45166  32.684  44.309   7.431
 3404POPC   NC345167  29.116  36.617   5.347
 3404POPC   PO445168  29.406  36.036   5.165
 3404POPC   GL145169  29.289  36.207   5.658
 3404POPC   GL245170  29.158  35.926   5.897
 3404POPC   C1A45171  29.174  36.368   6.136
 3404POPC   D2A45172  29.344  36.409   6.608
 3404POPC   C3A45173  29.165  36.338   7.050
 3404POPC   C4A45174  28.808  36.357   7.372
 3404POPC   C1B45175  29.497  35.981   6.214
 3404POPC   C2B45176  29.411  35.918   6.600
 3404POPC   C3B45177  29.527  35.978   6.978
 3404POPC   C4B45178  29.266  35.857   7.314
 3405POPC   NC345179   7.537  36.563   5.423
 3405POPC   PO445180   7.143  37.061   5.206
 3405POPC   GL145181   7.249  37.036   5.675
 3405POPC   GL245182   7.291  36.674   5.865
 3405POPC   C1A45183   7.519  37.089   6.051
 3405POPC   D2A45184   7.421  36.944   6.461
 3405POPC   C3A45185   7.423  37.089   6.850
 3405POPC   C4A45186   7.456  36.732   7.111
 3405POPC   C1B45187   7.650  36.579   6.188
 3405POPC   C2B45188   7.853  36.675   6.620
 3405POPC   C3B45189   7.893  36.967   6.984
 3405POPC   C4B45190   7.841  36.893   7.424
 3406POPC   NC345191  11.391  26.264   5.177
 3406POPC   PO445192  11.208  25.695   5.558
 3406POPC   GL145193  11.114  25.960   5.912
 3406POPC   GL245194  11.248  26.292   5.769
 3406POPC   C1A45195  11.073  25.985   6.393
 3406POPC   D2A45196  11.024  25.881   6.849
 3406POPC   C3A45197  11.429  25.896   7.093
 3406POPC   C4A45198  11.565  25.907   7.553
 3406POPC   C1B45199  11.404  26.294   6.159
 3406POPC   C2B45200  11.321  26.487   6.523
 3406POPC   C3B45201  11.280  26.341   6.910
 3406POPC   C4B45202  11.326  26.329   7.346
 3407POPC   NC345203   9.713  13.827   5.275
 3407POPC   PO445204  10.061  13.296   5.369
 3407POPC   GL145205   9.961  13.444   5.776
 3407POPC   GL245206   9.660  13.635   5.762
 3407POPC   C1A45207   9.972  13.527   6.219
 3407POPC   D2A45208  10.196  13.769   6.522
 3407POPC   C3A45209   9.956  13.816   6.885
 3407POPC   C4A45210   9.889  13.577   7.248
 3407POPC   C1B45211   9.574  13.847   6.177
 3407POPC   C2B45212   9.435  13.716   6.618
 3407POPC   C3B45213   9.479  13.809   7.067
 3407POPC   C4B45214   9.707  14.160   7.170
 3408POPC   NC345215   0.685  36.450   5.263
 3408POPC   PO445216   0.270  35.941   5.305
 3408POPC   GL145217   0.439  35.996   5.707
 3408POPC   GL245218   0.256  35.727   5.803
 3408POPC   C1A45219   0.588  35.972   6.172
 3408POPC   D2A45220   0.726  35.782   6.604
 3408POPC   C3A45221   0.567  36.009   7.003
 3408POPC   C4A45222   0.673  36.291   7.386
 3408POPC   C1B45223   0.094  35.837   6.215
 3408POPC   C2B45224   0.210  35.813   6.656
 3408POPC   C3B45225   0.065  35.887   7.081
 3408POPC   C4B45226   0.231  36.027   7.442
 3409POPC   NC345227  44.608  11.723   5.439
 3409POPC   PO445228  44.414  11.112   5.402
 3409POPC   GL145229  44.616  11.243   5.814
 3409POPC   GL245230  44.895  11.516   5.801
 3409POPC   C1A45231  44.478  11.096   6.240
 3409POPC   D2A45232  44.673  10.977   6.629
 3409POPC   C3A45233  44.537  10.833   7.031
 3409POPC   C4A45234  44.650  11.074   7.380
 3409POPC   C1B45235  44.866  11.576   6.250
 3409POPC   C2B45236   0.096  11.477   6.654
 3409POPC   C3B45237   0.033  11.547   7.111
 3409POPC   C4B45238  44.784  11.545   7.515
 3410POPC   NC345239  11.430  16.983   5.371
 3410POPC   PO445240  11.050  16.377   5.470
 3410POPC   GL145241  11.258  16.549   5.822
 3410POPC   GL245242  11.461  16.842   5.858
 3410POPC   C1A45243  11.373  16.483   6.248
 3410POPC   D2A45244  11.483  16.687   6.629
 3410POPC   C3A45245  11.323  16.543   7.048
 3410POPC   C4A45246  11.062  16.703   7.352
 3410POPC   C1B45247  11.682  17.004   6.228
 3410POPC   C2B45248  11.606  17.202   6.640
 3410POPC   C3B45249  11.620  16.970   7.056
 3410POPC   C4B45250  11.512  16.974   7.515
 3411POPC   NC345251  32.130  43.173   5.378
 3411POPC   PO445252  32.657  43.638   5.400
 3411POPC   GL145253  32.499  43.388   5.745
 3411POPC   GL245254  32.418  43.024   5.783
 3411POPC   C1A45255  32.238  43.370   6.117
 3411POPC   D2A45256  32.184  43.138   6.493
 3411POPC   C3A45257  32.224  43.317   6.877
 3411POPC   C4A45258  32.060  43.263   7.245
 3411POPC   C1B45259  32.668  43.067   6.155
 3411POPC   C2B45260  32.662  42.935   6.573
 3411POPC   C3B45261  32.687  43.086   6.963
 3411POPC   C4B45262  32.547  42.977   7.368
 3412POPC   NC345263  28.020  17.833   5.480
 3412POPC   PO445264  27.435  17.536   5.386
 3412POPC   GL145265  27.532  17.430   5.775
 3412POPC   GL245266  27.829  17.301   5.650
 3412POPC   C1A45267  27.520  17.576   6.216
 3412POPC   D2A45268  27.604  17.802   6.602
 3412POPC   C3A45269  27.661  17.550   6.989
 3412POPC   C4A45270  27.454  17.434   7.425
 3412POPC   C1B45271  27.902  17.229   6.068
 3412POPC   C2B45272  27.628  17.097   6.369
 3412POPC   C3B45273  27.649  17.072   6.786
 3412POPC   C4B45274  27.754  17.104   7.204
 3413POPC   NC345275  26.350  31.619   5.412
 3413POPC   PO445276  25.734  31.833   5.324
 3413POPC   GL145277  25.808  31.588   5.698
 3413POPC   GL245278  26.042  31.312   5.696
 3413POPC   C1A45279  25.797  31.398   6.127
 3413POPC   D2A45280  25.871  31.686   6.467
 3413POPC   C3A45281  25.876  31.516   6.875
 3413POPC   C4A45282  25.829  31.720   7.249
 3413POPC   C1B45283  26.245  31.583   6.053
 3413POPC   C2B45284  26.421  31.698   6.446
 3413POPC   C3B45285  26.385  31.651   6.874
 3413POPC   C4B45286  26.667  31.818   7.191
 3414POPC   NC345287  37.440  28.601   5.399
 3414POPC   PO445288  37.898  28.134   5.467
 3414POPC   GL145289  37.723  28.399   5.792
 3414POPC   GL245290  37.390  28.290   5.893
 3414POPC   C1A45291  37.847  28.246   6.184
 3414POPC   D2A45292  38.051  28.086   6.538
 3414POPC   C3A45293  37.854  28.173   6.927
 3414POPC   C4A45294  38.041  28.230   7.314
 3414POPC   C1B45295  37.449  28.552   6.283
 3414POPC   C2B45296  37.387  28.508   6.739
 3414POPC   C3B45297  37.556  28.551   7.162
 3414POPC   C4B45298  37.476  28.691   7.638
 3415POPC   NC345299  28.447  20.758   5.181
 3415POPC   PO445300  28.254  20.128   5.143
 3415POPC   GL145301  28.372  20.354   5.567
 3415POPC   GL245302  28.458  20.726   5.670
 3415POPC   C1A45303  28.506  20.373   6.015
 3415POPC   D2A45304  28.368  20.326   6.448
 3415POPC   C3A45305  28.541  20.538   6.819
 3415POPC   C4A45306  28.291  20.507   7.181
 3415POPC   C1B45307  28.581  20.890   6.061
 3415POPC   C2B45308  28.589  20.934   6.479
 3415POPC   C3B45309  28.620  21.104   6.862
 3415POPC   C4B45310  28.555  20.986   7.248
 3416POPC   NC345311  37.507  21.848   5.268
 3416POPC   PO445312  37.632  21.232   5.460
 3416POPC   GL145313  37.654  21.540   5.756
 3416POPC   GL245314  37.336  21.665   5.762
 3416POPC   C1A45315  37.817  21.484   6.174
 3416POPC   D2A45316  37.718  21.238   6.526
 3416POPC   C3A45317  37.955  21.389   6.863
 3416POPC   C4A45318  37.761  21.640   7.164
 3416POPC   C1B45319  37.294  21.450   6.151
 3416POPC   C2B45320  37.209  21.268   6.542
 3416POPC   C3B45321  37.376  21.320   6.964
 3416POPC   C4B45322  37.263  21.602   7.302
 3417POPC   NC345323  23.675  37.465   5.035
 3417POPC   PO445324  24.078  38.036   5.177
 3417POPC   GL145325  23.806  37.767   5.468
 3417POPC   GL245326  24.060  37.697   5.710
 3417POPC   C1A45327  23.596  37.776   5.922
 3417POPC   D2A45328  23.710  37.744   6.400
 3417POPC   C3A45329  23.652  37.799   6.867
 3417POPC   C4A45330  23.817  37.654   7.250
 3417POPC   C1B45331  24.103  37.506   6.133
 3417POPC   C2B45332  23.931  37.271   6.487
 3417POPC   C3B45333  23.999  37.326   6.896
 3417POPC   C4B45334  24.054  37.204   7.307
 3418POPC   NC345335  10.655   7.679   5.090
 3418POPC   PO445336  10.124   7.318   5.250
 3418POPC   GL145337  10.609   7.363   5.512
 3418POPC   GL245338  10.635   7.706   5.688
 3418POPC   C1A45339  10.743   7.132   5.945
 3418POPC   D2A45340  10.771   7.083   6.420
 3418POPC   C3A45341  10.613   7.056   6.846
 3418POPC   C4A45342  10.630   7.384   7.163
 3418POPC   C1B45343  10.588   7.698   6.175
 3418POPC   C2B45344  10.618   7.593   6.626
 3418POPC   C3B45345  10.335   7.746   6.944
 3418POPC   C4B45346  10.194   7.656   7.356
 3419POPC   NC345347  34.228  34.782   5.434
 3419POPC   PO445348  34.860  34.413   5.407
 3419POPC   GL145349  34.750  34.498   5.829
 3419POPC   GL245350  34.690  34.833   5.692
 3419POPC   C1A45351  34.640  34.314   6.259
 3419POPC   D2A45352  34.740  34.364   6.695
 3419POPC   C3A45353  34.518  34.651   6.994
 3419POPC   C4A45354  34.506  34.559   7.416
 3419POPC   C1B45355  34.721  34.949   6.110
 3419POPC   C2B45356  34.675  34.892   6.545
 3419POPC   C3B45357  34.970  34.830   6.879
 3419POPC   C4B45358  34.812  34.985   7.279
 3420POPC   NC345359  44.233  28.333   5.562
 3420POPC   PO445360  44.653  28.702   5.166
 3420POPC   GL145361  44.645  28.628   5.666
 3420POPC   GL245362  44.351  28.637   5.942
 3420POPC   C1A45363  44.746  28.322   6.021
 3420POPC   D2A45364  44.634  28.144   6.446
 3420POPC   C3A45365  44.843  28.242   6.864
 3420POPC   C4A45366  44.774  28.167   7.339
 3420POPC   C1B45367  44.591  28.679   6.355
 3420POPC   C2B45368  44.430  28.498   6.741
 3420POPC   C3B45369  44.349  28.219   7.096
 3420POPC   C4B45370  44.343  28.313   7.585
 3421POPC   NC345371  20.058  43.308   5.347
 3421POPC   PO445372  19.826  43.949   5.396
 3421POPC   GL145373  19.884  43.856   5.831
 3421POPC   GL245374  20.091  43.581   5.828
 3421POPC   C1A45375  19.809  43.638   6.248
 3421POPC   D2A45376  19.658  43.863   6.572
 3421POPC   C3A45377  19.749  43.726   6.985
 3421POPC   C4A45378  19.617  43.965   7.374
 3421POPC   C1B45379  20.225  43.914   6.182
 3421POPC   C2B45380  20.171  43.868   6.630
 3421POPC   C3B45381  20.131  44.038   7.057
 3421POPC   C4B45382  20.120  43.842   7.486
 3422POPC   NC345383   9.698  16.245   5.557
 3422POPC   PO445384  10.007  16.790   5.222
 3422POPC   GL145385  10.040  16.792   5.718
 3422POPC   GL245386   9.743  16.628   5.874
 3422POPC   C1A45387  10.055  16.841   6.203
 3422POPC   D2A45388   9.815  16.658   6.560
 3422POPC   C3A45389   9.600  16.811   6.946
 3422POPC   C4A45390   9.369  16.664   7.342
 3422POPC   C1B45391   9.951  16.320   6.157
 3422POPC   C2B45392  10.124  16.255   6.553
 3422POPC   C3B45393  10.267  16.551   6.816
 3422POPC   C4B45394  10.030  16.584   7.185
 3423POPC   NC345395  14.266  15.501   5.417
 3423POPC   PO445396  14.603  14.843   5.331
 3423POPC   GL145397  14.385  15.058   5.723
 3423POPC   GL245398  14.339  14.840   6.033
 3423POPC   C1A45399  14.300  15.324   6.139
 3423POPC   D2A45400  14.389  15.085   6.519
 3423POPC   C3A45401  14.304  15.237   6.915
 3423POPC   C4A45402  14.016  15.132   7.210
 3423POPC   C1B45403  14.756  15.112   6.115
 3423POPC   C2B45404  14.854  15.302   6.530
 3423POPC   C3B45405  14.802  15.167   6.974
 3423POPC   C4B45406  14.555  15.121   7.352
 3424POPC   NC345407  29.924  32.245   5.481
 3424POPC   PO445408  29.483  31.788   5.540
 3424POPC   GL145409  29.772  31.879   5.863
 3424POPC   GL245410  30.110  31.832   5.754
 3424POPC   C1A45411  29.842  32.220   6.179
 3424POPC   D2A45412  29.642  32.365   6.574
 3424POPC   C3A45413  29.836  32.304   6.975
 3424POPC   C4A45414  29.924  32.615   7.291
 3424POPC   C1B45415  30.305  31.924   6.174
 3424POPC   C2B45416  30.373  31.819   6.620
 3424POPC   C3B45417  30.336  31.898   7.077
 3424POPC   C4B45418  30.022  32.002   7.355
 3425POPC   NC345419   3.369  42.347   5.436
 3425POPC   PO445420   4.045  42.263   5.628
 3425POPC   GL145421   3.651  42.285   5.873
 3425POPC   GL245422   3.445  42.606   5.867
 3425POPC   C1A45423   3.520  42.328   6.311
 3425POPC   D2A45424   3.364  42.469   6.711
 3425POPC   C3A45425   3.582  42.293   7.093
 3425POPC   C4A45426   3.541  42.378   7.516
 3425POPC   C1B45427   3.774  42.764   6.116
 3425POPC   C2B45428   3.823  42.935   6.519
 3425POPC   C3B45429   3.819  42.712   6.890
 3425POPC   C4B45430   3.916  42.687   7.326
 3426POPC   NC345431  12.808   0.417   5.502
 3426POPC   PO445432  13.436   0.464   5.266
 3426POPC   GL145433  13.209   0.545   5.799
 3426POPC   GL245434  13.119   0.281   5.946
 3426POPC   C1A45435  12.825   0.572   6.174
 3426POPC   D2A45436  12.741   0.383   6.557
 3426POPC   C3A45437  12.740   0.733   6.807
 3426POPC   C4A45438  12.689   0.750   7.233
 3426POPC   C1B45439  13.061  44.989   6.354
 3426POPC   C2B45440  12.817  44.899   6.753
 3426POPC   C3B45441  12.798   0.259   7.075
 3426POPC   C4B45442  13.142   0.581   7.094
 3427POPC   NC345443  22.015  36.544   4.977
 3427POPC   PO445444  22.442  36.855   5.365
 3427POPC   GL145445  22.399  36.742   5.846
 3427POPC   GL245446  22.046  36.795   5.852
 3427POPC   C1A45447  22.344  36.973   6.284
 3427POPC   D2A45448  22.500  36.931   6.693
 3427POPC   C3A45449  22.241  37.018   7.041
 3427POPC   C4A45450  22.272  36.885   7.481
 3427POPC   C1B45451  21.838  36.968   6.229
 3427POPC   C2B45452  21.914  37.164   6.641
 3427POPC   C3B45453  21.715  37.024   7.029
 3427POPC   C4B45454  21.783  36.734   7.388
 3428POPC   NC345455  13.073  27.096   5.476
 3428POPC   PO445456  12.752  27.734   5.603
 3428POPC   GL145457  12.963  27.702   5.986
 3428POPC   GL245458  13.062  27.327   5.977
 3428POPC   C1A45459  12.825  27.804   6.412
 3428POPC   D2A45460  12.886  27.519   6.747
 3428POPC   C3A45461  13.125  27.593   7.116
 3428POPC   C4A45462  12.866  27.859   7.367
 3428POPC   C1B45463  12.730  27.289   6.274
 3428POPC   C2B45464  12.437  27.289   6.623
 3428POPC   C3B45465  12.490  27.292   7.078
 3428POPC   C4B45466  12.626  27.373   7.507
 3429POPC   NC345467  11.082  20.866   5.373
 3429POPC   PO445468  11.449  20.383   5.256
 3429POPC   GL145469  11.427  20.409   5.703
 3429POPC   GL245470  11.083  20.426   5.777
 3429POPC   C1A45471  11.474  20.278   6.142
 3429POPC   D2A45472  11.293  20.195   6.550
 3429POPC   C3A45473  11.504  20.395   6.896
 3429POPC   C4A45474  11.428  20.731   7.181
 3429POPC   C1B45475  11.035  20.580   6.211
 3429POPC   C2B45476  11.156  20.680   6.643
 3429POPC   C3B45477  11.001  20.483   7.034
 3429POPC   C4B45478  10.938  20.731   7.412
 3430POPC   NC345479  11.134   1.611   5.565
 3430POPC   PO445480  11.646   1.091   5.342
 3430POPC   GL145481  11.444   1.149   5.762
 3430POPC   GL245482  11.085   1.164   5.783
 3430POPC   C1A45483  11.378   1.315   6.212
 3430POPC   D2A45484  11.643   1.415   6.599
 3430POPC   C3A45485  11.514   1.432   7.057
 3430POPC   C4A45486  11.301   1.310   7.440
 3430POPC   C1B45487  10.946   1.004   6.159
 3430POPC   C2B45488  10.927   1.310   6.485
 3430POPC   C3B45489  11.007   1.385   6.924
 3430POPC   C4B45490  10.899   1.083   7.222
 3431POPC   NC345491  15.386  30.005   5.410
 3431POPC   PO445492  14.694  29.681   5.401
 3431POPC   GL145493  15.005  29.750   5.764
 3431POPC   GL245494  15.039  30.098   5.818
 3431POPC   C1A45495  15.190  29.802   6.223
 3431POPC   D2A45496  15.199  29.585   6.630
 3431POPC   C3A45497  15.348  29.836   6.938
 3431POPC   C4A45498  15.226  30.021   7.289
 3431POPC   C1B45499  15.004  30.301   6.231
 3431POPC   C2B45500  15.173  30.266   6.644
 3431POPC   C3B45501  15.127  30.452   7.022
 3431POPC   C4B45502  14.878  30.399   7.385
 3432POPC   NC345503  19.537  11.978   5.433
 3432POPC   PO445504  20.163  12.172   5.217
 3432POPC   GL145505  20.013  12.077   5.615
 3432POPC   GL245506  20.030  11.727   5.581
 3432POPC   C1A45507  19.982  12.187   6.067
 3432POPC   D2A45508  20.059  12.311   6.478
 3432POPC   C3A45509  19.736  12.279   6.767
 3432POPC   C4A45510  19.742  12.277   7.216
 3432POPC   C1B45511  19.917  11.676   6.031
 3432POPC   C2B45512  19.785  11.845   6.440
 3432POPC   C3B45513  19.993  11.859   6.841
 3432POPC   C4B45514  19.850  11.776   7.252
 3433POPC   NC345515  22.070   5.937   5.289
 3433POPC   PO445516  22.618   6.022   5.618
 3433POPC   GL145517  22.278   5.819   5.842
 3433POPC   GL245518  21.917   5.859   5.774
 3433POPC   C1A45519  22.100   5.816   6.262
 3433POPC   D2A45520  22.068   5.739   6.691
 3433POPC   C3A45521  22.329   5.957   6.958
 3433POPC   C4A45522  22.073   5.758   7.244
 3433POPC   C1B45523  21.854   6.237   6.077
 3433POPC   C2B45524  21.990   6.266   6.533
 3433POPC   C3B45525  21.861   6.157   6.944
 3433POPC   C4B45526  21.863   6.189   7.383
 3434POPC   NC345527  13.773   3.348   5.379
 3434POPC   PO445528  13.352   3.823   5.461
 3434POPC   GL145529  13.444   3.491   5.790
 3434POPC   GL245530  13.777   3.350   5.899
 3434POPC   C1A45531  13.359   3.332   6.199
 3434POPC   D2A45532  13.655   3.199   6.502
 3434POPC   C3A45533  13.569   3.313   6.918
 3434POPC   C4A45534  13.607   3.439   7.321
 3434POPC   C1B45535  13.740   3.670   6.247
 3434POPC   C2B45536  13.601   3.761   6.688
 3434POPC   C3B45537  13.878   3.775   7.063
 3434POPC   C4B45538  14.164   3.606   7.385
 3435POPC   NC345539   2.374   4.524   5.159
 3435POPC   PO445540   1.826   4.351   5.567
 3435POPC   GL145541   1.993   4.188   5.904
 3435POPC   GL245542   1.919   3.851   5.837
 3435POPC   C1A45543   2.032   4.369   6.297
 3435POPC   D2A45544   2.106   4.228   6.700
 3435POPC   C3A45545   2.292   4.491   6.994
 3435POPC   C4A45546   2.174   4.702   7.374
 3435POPC   C1B45547   1.627   3.917   6.130
 3435POPC   C2B45548   1.637   4.084   6.503
 3435POPC   C3B45549   1.708   3.987   6.916
 3435POPC   C4B45550   2.040   4.079   7.192
 3436POPC   NC345551  11.447  27.049   5.533
 3436POPC   PO445552  11.057  26.555   5.358
 3436POPC   GL145553  11.112  26.771   5.813
 3436POPC   GL245554  11.475  26.749   5.951
 3436POPC   C1A45555  11.143  26.907   6.270
 3436POPC   D2A45556  11.447  26.982   6.617
 3436POPC   C3A45557  11.143  27.011   6.923
 3436POPC   C4A45558  11.018  26.709   7.179
 3436POPC   C1B45559  11.780  26.604   6.278
 3436POPC   C2B45560  11.819  26.480   6.718
 3436POPC   C3B45561  11.612  26.681   7.066
 3436POPC   C4B45562  11.567  27.067   7.213
 3437POPC   NC345563   4.789  39.468   5.337
 3437POPC   PO445564   4.292  39.007   5.371
 3437POPC   GL145565   4.250  39.247   5.731
 3437POPC   GL245566   4.434  39.573   5.715
 3437POPC   C1A45567   4.113  39.106   6.128
 3437POPC   D2A45568   4.215  38.988   6.538
 3437POPC   C3A45569   3.963  39.238   6.787
 3437POPC   C4A45570   4.044  39.241   7.193
 3437POPC   C1B45571   4.603  39.327   6.070
 3437POPC   C2B45572   4.680  39.210   6.472
 3437POPC   C3B45573   4.512  39.269   6.871
 3437POPC   C4B45574   4.476  39.497   7.252
 3438POPC   NC345575  35.031   7.234   5.164
 3438POPC   PO445576  34.460   7.450   5.574
 3438POPC   GL145577  34.561   7.336   5.997
 3438POPC   GL245578  34.857   7.088   6.016
 3438POPC   C1A45579  34.704   7.591   6.342
 3438POPC   D2A45580  34.490   7.779   6.705
 3438POPC   C3A45581  34.500   7.520   7.066
 3438POPC   C4A45582  34.522   7.720   7.452
 3438POPC   C1B45583  35.132   7.270   6.331
 3438POPC   C2B45584  34.960   7.390   6.752
 3438POPC   C3B45585  34.938   7.231   7.166
 3438POPC   C4B45586  34.660   7.221   7.511
 3439POPC   NC345587   0.282   8.566   5.327
 3439POPC   PO445588   0.711   9.099   5.347
 3439POPC   GL145589   0.426   8.991   5.732
 3439POPC   GL245590   0.064   9.060   5.767
 3439POPC   C1A45591   0.372   9.113   6.180
 3439POPC   D2A45592   0.686   9.045   6.486
 3439POPC   C3A45593   0.488   9.009   6.880
 3439POPC   C4A45594   0.673   8.950   7.280
 3439POPC   C1B45595  44.951   8.838   6.185
 3439POPC   C2B45596   0.089   8.507   6.437
 3439POPC   C3B45597   0.153   8.447   6.853
 3439POPC   C4B45598   0.198   8.708   7.228
 3440POPC   NC345599  30.356  31.472   5.462
 3440POPC   PO445600  31.054  31.537   5.346
 3440POPC   GL145601  30.957  31.617   5.758
 3440POPC   GL245602  30.631  31.750   5.813
 3440POPC   C1A45603  31.082  31.734   6.172
 3440POPC   D2A45604  30.870  31.689   6.568
 3440POPC   C3A45605  31.049  31.629   6.994
 3440POPC   C4A45606  30.896  31.628   7.445
 3440POPC   C1B45607  30.645  31.427   6.141
 3440POPC   C2B45608  30.556  31.283   6.540
 3440POPC   C3B45609  30.549  31.454   6.946
 3440POPC   C4B45610  30.204  31.323   7.177
 3441POPC   NC345611  33.988  25.822   5.395
 3441POPC   PO445612  33.555  26.290   5.296
 3441POPC   GL145613  33.704  26.391   5.742
 3441POPC   GL245614  33.868  26.080   5.806
 3441POPC   C1A45615  33.812  26.306   6.237
 3441POPC   D2A45616  33.848  25.957   6.527
 3441POPC   C3A45617  33.712  26.136   6.848
 3441POPC   C4A45618  33.877  26.233   7.192
 3441POPC   C1B45619  33.722  25.736   6.078
 3441POPC   C2B45620  33.435  25.659   6.446
 3441POPC   C3B45621  33.543  25.662   6.893
 3441POPC   C4B45622  33.939  25.709   7.130
 3442POPC   NC345623  10.788  17.746   5.304
 3442POPC   PO445624  10.286  17.310   5.553
 3442POPC   GL145625  10.427  17.697   5.797
 3442POPC   GL245626  10.075  17.793   5.808
 3442POPC   C1A45627  10.593  17.848   6.263
 3442POPC   D2A45628  10.599  17.859   6.757
 3442POPC   C3A45629  10.640  17.482   7.017
 3442POPC   C4A45630  10.853  17.522   7.449
 3442POPC   C1B45631  10.197  17.524   6.215
 3442POPC   C2B45632  10.225  17.425   6.662
 3442POPC   C3B45633  10.165  17.646   7.041
 3442POPC   C4B45634  10.485  17.877   7.319
 3443POPC   NC345635   0.981  28.393   5.242
 3443POPC   PO445636   1.620  28.200   5.520
 3443POPC   GL145637   1.494  28.516   5.776
 3443POPC   GL245638   1.116  28.476   5.738
 3443POPC   C1A45639   1.560  28.448   6.215
 3443POPC   D2A45640   1.403  28.645   6.564
 3443POPC   C3A45641   1.480  28.457   6.954
 3443POPC   C4A45642   1.808  28.489   7.212
 3443POPC   C1B45643   1.112  28.200   6.109
 3443POPC   C2B45644   1.018  28.281   6.541
 3443POPC   C3B45645   0.983  28.372   6.967
 3443POPC   C4B45646   1.127  28.067   7.261
 3444POPC   NC345647  24.243  33.286   5.593
 3444POPC   PO445648  24.453  32.711   5.327
 3444POPC   GL145649  24.575  32.925   5.768
 3444POPC   GL245650  24.536  33.276   5.994
 3444POPC   C1A45651  24.387  32.826   6.179
 3444POPC   D2A45652  24.253  33.013   6.565
 3444POPC   C3A45653  24.383  32.768   6.913
 3444POPC   C4A45654  24.229  32.801   7.306
 3444POPC   C1B45655  24.872  33.494   6.233
 3444POPC   C2B45656  24.863  33.440   6.652
 3444POPC   C3B45657  24.590  33.258   6.965
 3444POPC   C4B45658  24.670  33.094   7.351
 3445POPC   NC345659  15.479  24.525   5.479
 3445POPC   PO445660  14.904  24.540   5.141
 3445POPC   GL145661  14.936  24.449   5.626
 3445POPC   GL245662  15.196  24.579   5.889
 3445POPC   C1A45663  14.860  24.280   6.079
 3445POPC   D2A45664  15.155  24.149   6.436
 3445POPC   C3A45665  15.155  24.459   6.792
 3445POPC   C4A45666  14.907  24.460   7.162
 3445POPC   C1B45667  15.413  24.582   6.338
 3445POPC   C2B45668  15.644  24.334   6.700
 3445POPC   C3B45669  15.540  24.322   7.146
 3445POPC   C4B45670  15.335  24.740   7.243
 3446POPC   NC345671  20.118   7.556   5.326
 3446POPC   PO445672  19.691   7.014   5.393
 3446POPC   GL145673  19.796   7.248   5.782
 3446POPC   GL245674  19.882   7.627   5.765
 3446POPC   C1A45675  19.641   7.395   6.189
 3446POPC   D2A45676  19.576   7.206   6.582
 3446POPC   C3A45677  19.555   7.496   6.942
 3446POPC   C4A45678  19.530   7.171   7.235
 3446POPC   C1B45679  20.140   7.502   6.119
 3446POPC   C2B45680  20.041   7.419   6.567
 3446POPC   C3B45681  20.029   7.397   7.032
 3446POPC   C4B45682  20.121   7.802   7.229
 3447POPC   NC345683   0.460  18.376   5.324
 3447POPC   PO445684   0.511  17.678   5.391
 3447POPC   GL145685   0.628  18.095   5.746
 3447POPC   GL245686   0.484  18.480   5.810
 3447POPC   C1A45687   0.747  18.310   6.192
 3447POPC   D2A45688   0.963  18.555   6.534
 3447POPC   C3A45689   0.852  18.393   6.942
 3447POPC   C4A45690   0.634  18.283   7.319
 3447POPC   C1B45691   0.155  18.365   6.140
 3447POPC   C2B45692   0.015  18.432   6.576
 3447POPC   C3B45693   0.315  18.433   6.936
 3447POPC   C4B45694   0.191  18.505   7.362
 3448POPC   NC345695  20.890  31.673   5.120
 3448POPC   PO445696  21.535  31.534   5.447
 3448POPC   GL145697  21.543  31.593   5.854
 3448POPC   GL245698  21.244  31.424   5.872
 3448POPC   C1A45699  21.725  31.472   6.237
 3448POPC   D2A45700  21.775  31.350   6.649
 3448POPC   C3A45701  21.487  31.507   6.959
 3448POPC   C4A45702  21.156  31.203   7.045
 3448POPC   C1B45703  21.190  31.730   6.208
 3448POPC   C2B45704  21.238  31.904   6.614
 3448POPC   C3B45705  21.043  31.951   6.983
 3448POPC   C4B45706  21.094  31.647   7.282
 3449POPC   NC345707  26.973   6.288   5.441
 3449POPC   PO445708  26.553   5.764   5.485
 3449POPC   GL145709  26.739   5.908   5.848
 3449POPC   GL245710  26.465   6.137   5.891
 3449POPC   C1A45711  26.737   5.737   6.297
 3449POPC   D2A45712  26.719   5.508   6.724
 3449POPC   C3A45713  26.914   5.663   7.153
 3449POPC   C4A45714  26.795   5.787   7.630
 3449POPC   C1B45715  26.697   6.246   6.255
 3449POPC   C2B45716  26.913   6.127   6.634
 3449POPC   C3B45717  26.752   6.140   7.040
 3449POPC   C4B45718  26.847   6.277   7.442
 3450POPC   NC345719  34.083  18.446   5.394
 3450POPC   PO445720  33.685  17.917   5.589
 3450POPC   GL145721  33.895  18.209   5.813
 3450POPC   GL245722  33.706  18.510   5.743
 3450POPC   C1A45723  33.757  18.232   6.226
 3450POPC   D2A45724  33.876  18.009   6.552
 3450POPC   C3A45725  33.750  18.196   6.925
 3450POPC   C4A45726  33.776  17.999   7.308
 3450POPC   C1B45727  33.984  18.665   6.083
 3450POPC   C2B45728  33.826  18.659   6.519
 3450POPC   C3B45729  33.905  18.717   6.966
 3450POPC   C4B45730  33.724  18.531   7.348
 3451POPC   NC345731  21.690  18.705   5.488
 3451POPC   PO445732  21.311  18.196   5.293
 3451POPC   GL145733  21.343  18.228   5.733
 3451POPC   GL245734  21.659  18.338   5.870
 3451POPC   C1A45735  21.216  18.238   6.165
 3451POPC   D2A45736  21.125  18.232   6.598
 3451POPC   C3A45737  21.480  18.347   6.864
 3451POPC   C4A45738  21.311  18.352   7.292
 3451POPC   C1B45739  21.593  17.894   6.050
 3451POPC   C2B45740  21.684  17.713   6.500
 3451POPC   C3B45741  21.804  17.941   6.894
 3451POPC   C4B45742  21.796  18.205   7.271
 3452POPC   NC345743   1.662  41.732   5.185
 3452POPC   PO445744   2.058  42.296   5.395
 3452POPC   GL145745   2.023  42.398   5.808
 3452POPC   GL245746   1.709  42.267   5.856
 3452POPC   C1A45747   2.069  42.184   6.213
 3452POPC   D2A45748   1.911  41.901   6.535
 3452POPC   C3A45749   2.216  41.973   6.862
 3452POPC   C4A45750   2.080  42.107   7.236
 3452POPC   C1B45751   1.485  42.220   6.254
 3452POPC   C2B45752   1.487  42.353   6.681
 3452POPC   C3B45753   1.609  42.110   7.043
 3452POPC   C4B45754   1.673  42.271   7.484
 3453POPC   NC345755  38.341  28.127   5.373
 3453POPC   PO445756  38.728  28.688   5.529
 3453POPC   GL145757  38.585  28.337   5.778
 3453POPC   GL245758  38.234  28.412   5.798
 3453POPC   C1A45759  38.474  28.220   6.215
 3453POPC   D2A45760  38.418  28.453   6.601
 3453POPC   C3A45761  38.406  28.203   6.943
 3453POPC   C4A45762  38.588  28.140   7.331
 3453POPC   C1B45763  38.143  28.653   6.190
 3453POPC   C2B45764  37.898  28.593   6.588
 3453POPC   C3B45765  38.029  28.689   7.007
 3453POPC   C4B45766  38.411  28.631   7.252
 3454POPC   NC345767   7.650  32.236   5.287
 3454POPC   PO445768   7.351  32.746   5.525
 3454POPC   GL145769   7.585  32.472   5.838
 3454POPC   GL245770   7.706  32.119   5.778
 3454POPC   C1A45771   7.449  32.438   6.271
 3454POPC   D2A45772   7.230  32.749   6.549
 3454POPC   C3A45773   7.362  32.604   6.922
 3454POPC   C4A45774   7.719  32.450   7.111
 3454POPC   C1B45775   7.563  31.942   6.147
 3454POPC   C2B45776   7.299  31.951   6.509
 3454POPC   C3B45777   7.337  32.090   6.919
 3454POPC   C4B45778   7.648  31.953   7.163
 3455POPC   NC345779  32.797  31.716   5.441
 3455POPC   PO445780  33.037  31.035   5.398
 3455POPC   GL145781  32.931  31.308   5.729
 3455POPC   GL245782  33.206  31.525   5.789
 3455POPC   C1A45783  32.941  31.350   6.191
 3455POPC   D2A45784  33.039  31.548   6.606
 3455POPC   C3A45785  32.871  31.317   6.989
 3455POPC   C4A45786  32.698  31.316   7.456
 3455POPC   C1B45787  33.401  31.603   6.210
 3455POPC   C2B45788  33.430  31.919   6.566
 3455POPC   C3B45789  33.362  31.898   7.027
 3455POPC   C4B45790  33.055  31.666   7.302
 3456POPC   NC345791   0.638  39.039   5.481
 3456POPC   PO445792   1.195  39.455   5.427
 3456POPC   GL145793   1.226  39.364   5.852
 3456POPC   GL245794   0.933  39.164   5.908
 3456POPC   C1A45795   1.286  39.224   6.285
 3456POPC   D2A45796   1.172  39.031   6.673
 3456POPC   C3A45797   1.132  39.314   7.023
 3456POPC   C4A45798   1.237  39.113   7.420
 3456POPC   C1B45799   0.841  39.553   6.145
 3456POPC   C2B45800   0.838  39.649   6.605
 3456POPC   C3B45801   0.664  39.580   7.024
 3456POPC   C4B45802   0.771  39.352   7.422
 3457POPC   NC345803  13.458  39.570   5.530
 3457POPC   PO445804  13.666  40.139   5.179
 3457POPC   GL145805  13.627  40.199   5.630
 3457POPC   GL245806  13.775  39.927   5.837
 3457POPC   C1A45807  13.607  40.366   6.081
 3457POPC   D2A45808  13.790  40.482   6.513
 3457POPC   C3A45809  13.661  40.264   6.880
 3457POPC   C4A45810  13.664  39.944   7.154
 3457POPC   C1B45811  13.610  39.842   6.282
 3457POPC   C2B45812  13.604  39.686   6.727
 3457POPC   C3B45813  13.922  39.523   7.033
 3457POPC   C4B45814  14.084  39.422   7.470
 3458POPC   NC345815   7.145  37.509   5.271
 3458POPC   PO445816   7.640  37.858   5.552
 3458POPC   GL145817   7.341  37.603   5.862
 3458POPC   GL245818   7.116  37.832   6.072
 3458POPC   C1A45819   7.346  37.458   6.342
 3458POPC   D2A45820   7.155  37.529   6.749
 3458POPC   C3A45821   7.469  37.566   7.075
 3458POPC   C4A45822   7.526  37.255   7.326
 3458POPC   C1B45823   7.542  37.911   6.233
 3458POPC   C2B45824   7.581  37.825   6.631
 3458POPC   C3B45825   7.312  38.012   6.894
 3458POPC   C4B45826   7.469  38.053   7.298
 3459POPC   NC345827  28.384  16.963   5.372
 3459POPC   PO445828  29.033  17.247   5.548
 3459POPC   GL145829  28.694  16.978   5.789
 3459POPC   GL245830  28.481  16.637   5.769
 3459POPC   C1A45831  28.362  16.980   6.121
 3459POPC   D2A45832  28.107  16.992   6.494
 3459POPC   C3A45833  28.151  16.938   6.936
 3459POPC   C4A45834  28.429  16.690   7.161
 3459POPC   C1B45835  28.340  16.474   6.205
 3459POPC   C2B45836  28.337  16.554   6.655
 3459POPC   C3B45837  28.085  16.365   6.996
 3459POPC   C4B45838  28.191  16.309   7.427
 3460POPC   NC345839  27.051  20.472   5.521
 3460POPC   PO445840  27.677  20.659   5.164
 3460POPC   GL145841  27.570  20.574   5.622
 3460POPC   GL245842  27.713  20.863   5.821
 3460POPC   C1A45843  27.443  20.460   6.068
 3460POPC   D2A45844  27.546  20.558   6.502
 3460POPC   C3A45845  27.378  20.790   6.822
 3460POPC   C4A45846  27.415  20.478   7.164
 3460POPC   C1B45847  27.948  20.602   6.146
 3460POPC   C2B45848  28.056  20.683   6.601
 3460POPC   C3B45849  27.841  20.650   6.970
 3460POPC   C4B45850  27.631  20.978   7.235
 3461POPC   NC345851  33.156  32.486   5.424
 3461POPC   PO445852  33.286  31.838   5.380
 3461POPC   GL145853  33.066  32.033   5.736
 3461POPC   GL245854  32.761  32.252   5.707
 3461POPC   C1A45855  32.908  31.864   6.132
 3461POPC   D2A45856  32.695  32.039   6.488
 3461POPC   C3A45857  32.841  31.928   6.897
 3461POPC   C4A45858  32.665  31.981   7.296
 3461POPC   C1B45859  32.926  32.380   6.151
 3461POPC   C2B45860  33.092  32.324   6.621
 3461POPC   C3B45861  33.054  32.367   7.116
 3461POPC   C4B45862  33.271  32.586   7.523
 3462POPC   NC345863  26.691  26.216   5.206
 3462POPC   PO445864  26.255  25.864   5.637
 3462POPC   GL145865  26.078  26.232   5.871
 3462POPC   GL245866  25.823  26.475   5.699
 3462POPC   C1A45867  26.017  26.176   6.309
 3462POPC   D2A45868  25.934  25.903   6.609
 3462POPC   C3A45869  26.204  26.033   6.926
 3462POPC   C4A45870  25.990  25.871   7.249
 3462POPC   C1B45871  25.602  26.345   6.076
 3462POPC   C2B45872  25.500  26.199   6.508
 3462POPC   C3B45873  25.692  26.214   6.933
 3462POPC   C4B45874  25.557  26.401   7.306
 3463POPC   NC345875  14.521  28.601   5.197
 3463POPC   PO445876  14.387  28.796   5.752
 3463POPC   GL145877  14.347  28.363   5.853
 3463POPC   GL245878  14.636  28.174   5.894
 3463POPC   C1A45879  14.248  28.293   6.288
 3463POPC   D2A45880  14.160  28.637   6.607
 3463POPC   C3A45881  14.273  28.539   7.053
 3463POPC   C4A45882  14.211  28.104   7.229
 3463POPC   C1B45883  14.771  28.352   6.265
 3463POPC   C2B45884  14.603  28.345   6.679
 3463POPC   C3B45885  14.717  28.286   7.095
 3463POPC   C4B45886  14.569  28.323   7.513
 3464POPC   NC345887  42.727   3.918   5.150
 3464POPC   PO445888  43.120   3.443   5.456
 3464POPC   GL145889  43.022   3.555   5.817
 3464POPC   GL245890  42.696   3.414   5.895
 3464POPC   C1A45891  43.318   3.508   6.166
 3464POPC   D2A45892  43.235   3.581   6.585
 3464POPC   C3A45893  43.318   3.296   6.883
 3464POPC   C4A45894  43.291   3.590   7.205
 3464POPC   C1B45895  42.820   3.556   6.282
 3464POPC   C2B45896  42.842   3.252   6.600
 3464POPC   C3B45897  42.759   3.310   7.008
 3464POPC   C4B45898  42.816   3.584   7.368
 3465POPC   NC345899   2.791  10.234   5.445
 3465POPC   PO445900   2.851  10.940   5.230
 3465POPC   GL145901   2.764  10.742   5.708
 3465POPC   GL245902   2.538  10.481   5.803
 3465POPC   C1A45903   2.820  10.623   6.197
 3465POPC   D2A45904   2.903  10.447   6.625
 3465POPC   C3A45905   2.803  10.715   7.003
 3465POPC   C4A45906   2.886  10.886   7.425
 3465POPC   C1B45907   2.476  10.206   6.170
 3465POPC   C2B45908   2.400  10.214   6.627
 3465POPC   C3B45909   2.638  10.199   7.027
 3465POPC   C4B45910   2.833  10.396   7.399
 3466POPC   NC345911  42.674  20.354   5.334
 3466POPC   PO445912  42.215  20.826   5.307
 3466POPC   GL145913  42.303  20.634   5.705
 3466POPC   GL245914  41.997  20.456   5.665
 3466POPC   C1A45915  42.421  20.795   6.152
 3466POPC   D2A45916  42.476  21.044   6.562
 3466POPC   C3A45917  42.363  20.861   6.981
 3466POPC   C4A45918  42.490  20.540   7.284
 3466POPC   C1B45919  41.987  20.542   6.111
 3466POPC   C2B45920  42.138  20.589   6.556
 3466POPC   C3B45921  42.103  20.407   6.985
 3466POPC   C4B45922  42.025  20.503   7.436
 3467POPC   NC345923  24.497  37.838   5.346
 3467POPC   PO445924  24.111  37.280   5.408
 3467POPC   GL145925  24.440  37.354   5.762
 3467POPC   GL245926  24.580  37.700   5.831
 3467POPC   C1A45927  24.624  37.309   6.182
 3467POPC   D2A45928  24.429  37.315   6.584
 3467POPC   C3A45929  24.476  37.487   6.989
 3467POPC   C4A45930  24.296  37.872   7.121
 3467POPC   C1B45931  24.837  37.764   6.222
 3467POPC   C2B45932  24.911  37.536   6.613
 3467POPC   C3B45933  24.861  37.822   6.955
 3467POPC   C4B45934  24.718  38.136   7.220
 3468POPC   NC345935  41.747  25.513   5.131
 3468POPC   PO445936  41.267  25.058   5.454
 3468POPC   GL145937  41.650  25.178   5.739
 3468POPC   GL245938  41.786  24.893   5.955
 3468POPC   C1A45939  41.791  25.421   6.118
 3468POPC   D2A45940  41.963  25.193   6.466
 3468POPC   C3A45941  41.850  25.311   6.876
 3468POPC   C4A45942  41.746  25.092   7.226
 3468POPC   C1B45943  41.463  25.014   6.235
 3468POPC   C2B45944  41.427  25.319   6.579
 3468POPC   C3B45945  41.303  25.307   7.011
 3468POPC   C4B45946  41.075  25.451   7.290
 3469POPC   NC345947   3.105  31.149   5.444
 3469POPC   PO445948   2.454  31.473   5.422
 3469POPC   GL145949   2.751  31.477   5.786
 3469POPC   GL245950   2.725  31.160   5.858
 3469POPC   C1A45951   2.873  31.716   6.131
 3469POPC   D2A45952   2.666  31.779   6.521
 3469POPC   C3A45953   2.830  31.691   6.919
 3469POPC   C4A45954   2.813  31.308   7.145
 3469POPC   C1B45955   2.566  31.324   6.266
 3469POPC   C2B45956   2.518  31.290   6.724
 3469POPC   C3B45957   2.352  31.060   7.077
 3469POPC   C4B45958   2.416  31.182   7.482
 3470POPC   NC345959  14.113  23.679   5.353
 3470POPC   PO445960  14.846  23.588   5.378
 3470POPC   GL145961  14.503  23.754   5.723
 3470POPC   GL245962  14.197  23.529   5.822
 3470POPC   C1A45963  14.380  24.056   6.105
 3470POPC   D2A45964  14.629  24.171   6.524
 3470POPC   C3A45965  14.563  23.933   6.914
 3470POPC   C4A45966  14.141  23.885   7.144
 3470POPC   C1B45967  14.279  23.572   6.251
 3470POPC   C2B45968  14.208  23.642   6.678
 3470POPC   C3B45969  14.371  23.457   7.056
 3470POPC   C4B45970  14.560  23.712   7.381
 3471POPC   NC345971  29.214  16.412   5.293
 3471POPC   PO445972  28.791  15.877   5.426
 3471POPC   GL145973  28.954  16.043   5.804
 3471POPC   GL245974  29.282  15.967   5.830
 3471POPC   C1A45975  29.126  16.249   6.217
 3471POPC   D2A45976  29.286  16.314   6.653
 3471POPC   C3A45977  29.115  16.153   7.044
 3471POPC   C4A45978  29.174  16.213   7.503
 3471POPC   C1B45979  29.077  15.747   6.237
 3471POPC   C2B45980  28.771  15.783   6.628
 3471POPC   C3B45981  28.776  15.740   7.096
 3471POPC   C4B45982  28.848  15.826   7.557
 3472POPC   NC345983  28.347  39.194   5.277
 3472POPC   PO445984  28.913  39.602   5.462
 3472POPC   GL145985  28.500  39.408   5.722
 3472POPC   GL245986  28.275  39.028   5.745
 3472POPC   C1A45987  28.302  39.343   6.141
 3472POPC   D2A45988  28.409  39.402   6.582
 3472POPC   C3A45989  28.151  39.626   6.858
 3472POPC   C4A45990  28.317  39.599   7.257
 3472POPC   C1B45991  28.359  38.815   6.175
 3472POPC   C2B45992  28.318  38.886   6.642
 3472POPC   C3B45993  28.370  39.094   7.044
 3472POPC   C4B45994  28.107  39.134   7.408
 3473POPC   NC345995   0.139  15.475   5.455
 3473POPC   PO445996   0.555  16.026   5.414
 3473POPC   GL145997   0.397  15.796   5.787
 3473POPC   GL245998   0.715  15.737   5.911
 3473POPC   C1A45999   0.213  15.952   6.225
 3473POPC   D2A46000   0.051  16.130   6.633
 3473POPC   C3A46001   0.135  15.927   7.022
 3473POPC   C4A46002   0.171  15.513   7.164
 3473POPC   C1B46003   0.632  16.178   6.049
 3473POPC   C2B46004   0.710  16.178   6.479
 3473POPC   C3B46005   0.787  15.928   6.843
 3473POPC   C4B46006   0.592  16.123   7.178
 3474POPC   NC346007  35.508  18.051   5.063
 3474POPC   PO446008  35.229  18.667   5.344
 3474POPC   GL146009  35.400  18.289   5.570
 3474POPC   GL246010  35.698  18.373   5.767
 3474POPC   C1A46011  35.352  18.118   6.028
 3474POPC   D2A46012  35.301  18.334   6.446
 3474POPC   C3A46013  35.179  18.215   6.868
 3474POPC   C4A46014  35.072  18.483   7.235
 3474POPC   C1B46015  35.759  18.482   6.199
 3474POPC   C2B46016  35.732  18.715   6.617
 3474POPC   C3B46017  35.542  18.560   7.004
 3474POPC   C4B46018  35.613  18.131   7.167
 3475POPC   NC346019  12.755  39.180   5.370
 3475POPC   PO446020  13.361  39.193   5.285
 3475POPC   GL146021  13.118  39.104   5.706
 3475POPC   GL246022  12.892  38.768   5.729
 3475POPC   C1A46023  12.995  39.345   6.104
 3475POPC   D2A46024  13.245  39.482   6.428
 3475POPC   C3A46025  13.139  39.415   6.840
 3475POPC   C4A46026  13.051  39.540   7.258
 3475POPC   C1B46027  12.861  38.862   6.179
 3475POPC   C2B46028  12.749  39.127   6.567
 3475POPC   C3B46029  12.792  39.092   7.020
 3475POPC   C4B46030  12.881  38.844   7.410
 3476POPC   NC346031   2.059   6.510   5.296
 3476POPC   PO446032   1.628   6.888   5.611
 3476POPC   GL146033   2.040   6.770   5.779
 3476POPC   GL246034   2.111   6.466   5.891
 3476POPC   C1A46035   2.232   6.901   6.192
 3476POPC   D2A46036   1.943   7.012   6.569
 3476POPC   C3A46037   1.832   6.918   7.001
 3476POPC   C4A46038   2.155   6.857   7.309
 3476POPC   C1B46039   1.817   6.600   6.246
 3476POPC   C2B46040   1.777   6.531   6.677
 3476POPC   C3B46041   2.070   6.455   7.014
 3476POPC   C4B46042   2.015   6.316   7.473
 3477POPC   NC346043  18.318  29.509   5.257
 3477POPC   PO446044  18.294  30.125   5.487
 3477POPC   GL146045  18.233  30.273   5.915
 3477POPC   GL246046  18.575  30.336   5.956
 3477POPC   C1A46047  18.231  30.373   6.362
 3477POPC   D2A46048  18.207  29.979   6.605
 3477POPC   C3A46049  18.387  29.852   6.981
 3477POPC   C4A46050  18.402  30.174   7.233
 3477POPC   C1B46051  18.662  30.102   6.326
 3477POPC   C2B46052  18.683  30.200   6.758
 3477POPC   C3B46053  18.894  30.222   7.152
 3477POPC   C4B46054  18.790  30.087   7.600
 3478POPC   NC346055  13.984  28.776   5.559
 3478POPC   PO446056  14.518  29.070   5.194
 3478POPC   GL146057  14.447  29.283   5.678
 3478POPC   GL246058  14.099  29.228   5.824
 3478POPC   C1A46059  14.505  29.306   6.158
 3478POPC   D2A46060  14.678  29.412   6.592
 3478POPC   C3A46061  14.541  29.294   7.032
 3478POPC   C4A46062  14.791  29.236   7.444
 3478POPC   C1B46063  14.021  29.105   6.277
 3478POPC   C2B46064  14.129  29.233   6.703
 3478POPC   C3B46065  14.040  29.302   7.151
 3478POPC   C4B46066  14.296  28.983   7.376
 3479POPC   NC346067  37.184   5.121   5.454
 3479POPC   PO446068  36.519   4.815   5.602
 3479POPC   GL146069  36.767   5.104   5.857
 3479POPC   GL246070  37.142   5.085   5.948
 3479POPC   C1A46071  36.786   5.141   6.297
 3479POPC   D2A46072  36.596   5.365   6.625
 3479POPC   C3A46073  36.822   5.166   6.945
 3479POPC   C4A46074  36.741   4.740   7.120
 3479POPC   C1B46075  37.211   5.443   6.127
 3479POPC   C2B46076  37.114   5.473   6.531
 3479POPC   C3B46077  37.295   5.410   6.910
 3479POPC   C4B46078  37.172   5.293   7.296
 3480POPC   NC346079  44.416  13.874   5.386
 3480POPC   PO446080  44.964  13.625   5.216
 3480POPC   GL146081  44.978  13.462   5.657
 3480POPC   GL246082  44.867  13.760   5.769
 3480POPC   C1A46083  44.722  13.344   6.062
 3480POPC   D2A46084  44.479  13.309   6.483
 3480POPC   C3A46085  44.503  13.568   6.882
 3480POPC   C4A46086  44.484  13.426   7.288
 3480POPC   C1B46087  44.679  13.834   6.176
 3480POPC   C2B46088  44.862  13.706   6.561
 3480POPC   C3B46089  44.965  13.862   6.945
 3480POPC   C4B46090  44.767  13.870   7.320
 3481POPC   NC346091   0.621  11.024   5.468
 3481POPC   PO446092   1.291  11.099   5.556
 3481POPC   GL146093   0.932  11.156   5.867
 3481POPC   GL246094   0.912  10.928   6.144
 3481POPC   C1A46095   0.881  11.473   6.217
 3481POPC   D2A46096   1.120  11.520   6.621
 3481POPC   C3A46097   0.966  11.527   7.049
 3481POPC   C4A46098   1.189  11.674   7.424
 3481POPC   C1B46099   1.298  11.199   6.248
 3481POPC   C2B46100   1.554  11.116   6.604
 3481POPC   C3B46101   1.341  11.190   7.001
 3481POPC   C4B46102   0.936  10.975   7.129
 3482POPC   NC346103  44.211  28.612   5.074
 3482POPC   PO446104  43.830  28.137   5.397
 3482POPC   GL146105  43.810  28.251   5.822
 3482POPC   GL246106  43.844  28.607   5.761
 3482POPC   C1A46107  43.997  28.241   6.228
 3482POPC   D2A46108  43.916  27.952   6.559
 3482POPC   C3A46109  43.871  28.124   6.967
 3482POPC   C4A46110  43.585  28.203   7.280
 3482POPC   C1B46111  43.747  28.693   6.169
 3482POPC   C2B46112  43.825  28.870   6.562
 3482POPC   C3B46113  43.976  28.633   6.885
 3482POPC   C4B46114  43.982  28.512   7.299
 3483POPC   NC346115  35.437  31.645   5.367
 3483POPC   PO446116  35.950  32.010   5.680
 3483POPC   GL146117  35.530  31.788   5.852
 3483POPC   GL246118  35.150  31.744   5.799
 3483POPC   C1A46119  35.436  31.445   6.166
 3483POPC   D2A46120  35.235  31.220   6.524
 3483POPC   C3A46121  35.248  31.369   6.941
 3483POPC   C4A46122  35.227  31.193   7.333
 3483POPC   C1B46123  35.165  31.867   6.234
 3483POPC   C2B46124  34.974  31.775   6.619
 3483POPC   C3B46125  35.138  31.842   7.054
 3483POPC   C4B46126  35.350  31.693   7.447
 3484POPC   NC346127   7.741  10.338   5.414
 3484POPC   PO446128   8.243  10.564   5.628
 3484POPC   GL146129   8.181  10.379   5.996
 3484POPC   GL246130   7.895  10.198   5.882
 3484POPC   C1A46131   8.236  10.536   6.400
 3484POPC   D2A46132   8.141  10.932   6.554
 3484POPC   C3A46133   8.046  10.904   6.957
 3484POPC   C4A46134   8.345  10.781   7.253
 3484POPC   C1B46135   7.786  10.233   6.287
 3484POPC   C2B46136   7.909  10.101   6.657
 3484POPC   C3B46137   8.112  10.380   6.942
 3484POPC   C4B46138   8.222  10.270   7.319
 3485POPC   NC346139  12.123   3.732   5.457
 3485POPC   PO446140  11.816   3.143   5.394
 3485POPC   GL146141  11.955   3.387   5.804
 3485POPC   GL246142  12.303   3.512   5.945
 3485POPC   C1A46143  11.967   3.336   6.283
 3485POPC   D2A46144  12.210   3.082   6.571
 3485POPC   C3A46145  12.250   3.263   7.003
 3485POPC   C4A46146  11.885   3.499   7.151
 3485POPC   C1B46147  12.407   3.542   6.414
 3485POPC   C2B46148  12.100   3.681   6.697
 3485POPC   C3B46149  12.092   3.940   7.050
 3485POPC   C4B46150  12.343   3.771   7.355
 3486POPC   NC346151  28.601  11.304   5.418
 3486POPC   PO446152  28.230  11.854   5.347
 3486POPC   GL146153  28.301  11.605   5.721
 3486POPC   GL246154  28.189  11.244   5.759
 3486POPC   C1A46155  28.559  11.408   6.078
 3486POPC   D2A46156  28.726  11.209   6.478
 3486POPC   C3A46157  28.640  11.397   6.870
 3486POPC   C4A46158  28.449  11.271   7.219
 3486POPC   C1B46159  28.080  11.482   6.160
 3486POPC   C2B46160  28.220  11.498   6.578
 3486POPC   C3B46161  28.072  11.548   7.016
 3486POPC   C4B46162  28.042  11.422   7.486
 3487POPC   NC346163  37.169  30.994   5.402
 3487POPC   PO446164  36.857  30.425   5.321
 3487POPC   GL146165  36.898  30.639   5.692
 3487POPC   GL246166  37.233  30.562   5.757
 3487POPC   C1A46167  36.775  30.656   6.126
 3487POPC   D2A46168  36.606  30.512   6.531
 3487POPC   C3A46169  36.826  30.667   6.891
 3487POPC   C4A46170  36.686  30.803   7.297
 3487POPC   C1B46171  37.226  30.410   6.162
 3487POPC   C2B46172  37.103  30.280   6.572
 3487POPC   C3B46173  37.274  30.407   6.941
 3487POPC   C4B46174  37.171  30.629   7.299
 3488POPC   NC346175  27.814  20.203   4.933
 3488POPC   PO446176  27.381  20.020   5.378
 3488POPC   GL146177  27.563  20.026   5.778
 3488POPC   GL246178  27.631  19.678   5.808
 3488POPC   C1A46179  27.358  19.945   6.171
 3488POPC   D2A46180  27.214  19.809   6.559
 3488POPC   C3A46181  27.392  20.104   6.816
 3488POPC   C4A46182  27.435  19.902   7.193
 3488POPC   C1B46183  27.828  19.719   6.236
 3488POPC   C2B46184  27.733  19.725   6.697
 3488POPC   C3B46185  27.872  19.610   7.132
 3488POPC   C4B46186  27.973  19.706   7.602
 3489POPC   NC346187  35.773  10.755   5.323
 3489POPC   PO446188  35.889  11.353   5.426
 3489POPC   GL146189  36.033  11.302   5.844
 3489POPC   GL246190  36.181  11.593   5.927
 3489POPC   C1A46191  35.831  11.440   6.250
 3489POPC   D2A46192  35.954  11.265   6.618
 3489POPC   C3A46193  35.814  11.375   7.012
 3489POPC   C4A46194  36.111  11.273   7.315
 3489POPC   C1B46195  36.433  11.734   6.209
 3489POPC   C2B46196  36.235  11.710   6.589
 3489POPC   C3B46197  36.339  11.453   6.899
 3489POPC   C4B46198  36.578  11.449   7.232
 3490POPC   NC346199   6.421  28.196   5.605
 3490POPC   PO446200   7.133  28.029   5.533
 3490POPC   GL146201   6.872  28.294   5.873
 3490POPC   GL246202   6.755  28.651   5.940
 3490POPC   C1A46203   6.680  28.325   6.327
 3490POPC   D2A46204   6.732  28.468   6.786
 3490POPC   C3A46205   6.599  28.215   7.156
 3490POPC   C4A46206   6.313  27.861   7.197
 3490POPC   C1B46207   6.448  28.787   6.319
 3490POPC   C2B46208   6.471  28.904   6.779
 3490POPC   C3B46209   6.541  28.722   7.202
 3490POPC   C4B46210   6.506  28.519   7.583
 3491POPC   NC346211  38.006  44.074   5.051
 3491POPC   PO446212  37.379  44.181   5.334
 3491POPC   GL146213  37.553  43.986   5.704
 3491POPC   GL246214  37.892  43.919   5.568
 3491POPC   C1A46215  37.465  43.878   6.151
 3491POPC   D2A46216  37.723  44.025   6.479
 3491POPC   C3A46217  37.579  43.994   6.870
 3491POPC   C4A46218  37.320  43.782   7.158
 3491POPC   C1B46219  37.989  43.875   6.016
 3491POPC   C2B46220  38.008  43.614   6.384
 3491POPC   C3B46221  38.026  43.733   6.815
 3491POPC   C4B46222  37.823  43.614   7.197
 3492POPC   NC346223   1.173  20.241   5.419
 3492POPC   PO446224   1.636  20.801   5.503
 3492POPC   GL146225   1.327  20.623   5.871
 3492POPC   GL246226   1.028  20.390   5.881
 3492POPC   C1A46227   1.135  20.628   6.316
 3492POPC   D2A46228   0.993  20.721   6.732
 3492POPC   C3A46229   1.202  20.549   7.105
 3492POPC   C4A46230   1.304  20.784   7.456
 3492POPC   C1B46231   1.032  20.133   6.263
 3492POPC   C2B46232   1.151  20.223   6.686
 3492POPC   C3B46233   1.128  20.032   7.080
 3492POPC   C4B46234   1.029  20.186   7.498
 3493POPC   NC346235   8.661   6.178   5.329
 3493POPC   PO446236   8.960   5.546   5.360
 3493POPC   GL146237   9.154   5.847   5.678
 3493POPC   GL246238   9.451   5.706   5.758
 3493POPC   C1A46239   9.197   6.054   6.115
 3493POPC   D2A46240   8.863   6.113   6.412
 3493POPC   C3A46241   8.953   6.081   6.847
 3493POPC   C4A46242   8.779   5.916   7.228
 3493POPC   C1B46243   9.455   5.582   6.171
 3493POPC   C2B46244   9.324   5.808   6.559
 3493POPC   C3B46245   9.286   5.693   7.005
 3493POPC   C4B46246   9.159   5.590   7.424
 3494POPC   NC346247   6.235  31.440   5.480
 3494POPC   PO446248   5.582  31.516   5.462
 3494POPC   GL146249   5.827  31.446   5.890
 3494POPC   GL246250   6.188  31.550   5.969
 3494POPC   C1A46251   5.845  31.482   6.372
 3494POPC   D2A46252   5.693  31.797   6.653
 3494POPC   C3A46253   5.691  31.595   7.041
 3494POPC   C4A46254   5.516  31.668   7.451
 3494POPC   C1B46255   6.161  31.126   6.191
 3494POPC   C2B46256   6.089  31.083   6.672
 3494POPC   C3B46257   6.184  31.339   7.072
 3494POPC   C4B46258   6.396  31.334   7.505
 3495POPC   NC346259  24.987  41.134   5.565
 3495POPC   PO446260  25.229  40.604   5.210
 3495POPC   GL146261  25.420  40.632   5.772
 3495POPC   GL246262  25.773  40.604   5.830
 3495POPC   C1A46263  25.157  40.661   6.269
 3495POPC   D2A46264  24.986  40.779   6.725
 3495POPC   C3A46265  25.189  40.967   7.072
 3495POPC   C4A46266  25.120  41.064   7.506
 3495POPC   C1B46267  25.656  40.622   6.272
 3495POPC   C2B46268  25.511  40.815   6.647
 3495POPC   C3B46269  25.593  40.657   7.049
 3495POPC   C4B46270  25.608  40.894   7.434
 3496POPC   NC346271  30.764  14.858   5.455
 3496POPC   PO446272  30.470  15.470   5.424
 3496POPC   GL146273  30.619  15.261   5.778
 3496POPC   GL246274  30.442  14.953   5.844
 3496POPC   C1A46275  30.768  15.296   6.195
 3496POPC   D2A46276  30.940  15.168   6.569
 3496POPC   C3A46277  30.804  15.359   6.932
 3496POPC   C4A46278  30.728  15.384   7.351
 3496POPC   C1B46279  30.553  14.822   6.239
 3496POPC   C2B46280  30.489  14.948   6.653
 3496POPC   C3B46281  30.767  14.859   6.972
 3496POPC   C4B46282  30.899  14.915   7.401
 3497POPC   NC346283  17.657  23.947   5.638
 3497POPC   PO446284  17.140  23.554   5.533
 3497POPC   GL146285  17.448  23.557   5.891
 3497POPC   GL246286  17.810  23.429   5.811
 3497POPC   C1A46287  17.474  23.768   6.326
 3497POPC   D2A46288  17.607  23.972   6.701
 3497POPC   C3A46289  17.460  23.771   7.087
 3497POPC   C4A46290  17.107  23.522   7.219
 3497POPC   C1B46291  17.785  23.379   6.286
 3497POPC   C2B46292  17.824  23.472   6.730
 3497POPC   C3B46293  17.969  23.780   7.016
 3497POPC   C4B46294  17.877  23.809   7.451
 3498POPC   NC346295  27.637  24.667   5.319
 3498POPC   PO446296  27.286  24.111   5.315
 3498POPC   GL146297  27.546  24.297   5.701
 3498POPC   GL246298  27.715  24.660   5.825
 3498POPC   C1A46299  27.649  24.266   6.138
 3498POPC   D2A46300  27.768  24.516   6.488
 3498POPC   C3A46301  27.703  24.330   6.853
 3498POPC   C4A46302  27.557  24.514   7.188
 3498POPC   C1B46303  28.011  24.848   6.166
 3498POPC   C2B46304  28.210  24.779   6.564
 3498POPC   C3B46305  27.969  24.781   6.923
 3498POPC   C4B46306  27.760  25.000   7.223
 3499POPC   NC346307  11.392  34.416   5.060
 3499POPC   PO446308  10.965  34.224   5.667
 3499POPC   GL146309  11.197  34.533   5.928
 3499POPC   GL246310  11.538  34.684   5.818
 3499POPC   C1A46311  11.093  34.713   6.331
 3499POPC   D2A46312  10.956  34.505   6.708
 3499POPC   C3A46313  11.082  34.695   7.075
 3499POPC   C4A46314  10.958  34.621   7.500
 3499POPC   C1B46315  11.596  34.576   6.260
 3499POPC   C2B46316  11.799  34.659   6.655
 3499POPC   C3B46317  11.583  34.552   7.005
 3499POPC   C4B46318  11.457  34.600   7.411
 3500POPC   NC346319  27.889  19.946   5.374
 3500POPC   PO446320  28.565  19.643   5.430
 3500POPC   GL146321  28.472  19.877   5.754
 3500POPC   GL246322  28.143  19.746   5.790
 3500POPC   C1A46323  28.489  19.887   6.198
 3500POPC   D2A46324  28.240  19.841   6.577
 3500POPC   C3A46325  28.549  20.007   6.859
 3500POPC   C4A46326  28.858  19.761   7.119
 3500POPC   C1B46327  28.052  20.119   6.032
 3500POPC   C2B46328  27.870  20.182   6.463
 3500POPC   C3B46329  27.938  20.146   6.922
 3500POPC   C4B46330  28.214  19.962   7.229
 3501POPC   NC346331  18.357  14.268   5.474
 3501POPC   PO446332  18.721  14.725   5.702
 3501POPC   GL146333  18.441  14.432   5.975
 3501POPC   GL246334  18.172  14.156   5.921
 3501POPC   C1A46335  18.125  14.410   6.342
 3501POPC   D2A46336  18.071  14.233   6.752
 3501POPC   C3A46337  18.181  14.511   7.126
 3501POPC   C4A46338  18.076  14.949   7.320
 3501POPC   C1B46339  18.460  13.983   6.231
 3501POPC   C2B46340  18.462  13.845   6.638
 3501POPC   C3B46341  18.481  14.051   7.001
 3501POPC   C4B46342  18.489  14.207   7.380
 3502POPC   NC346343   2.173  14.648   5.502
 3502POPC   PO446344   1.629  14.566   5.398
 3502POPC   GL146345   1.773  14.472   5.816
 3502POPC   GL246346   1.985  14.197   5.773
 3502POPC   C1A46347   1.713  14.454   6.290
 3502POPC   D2A46348   1.883  14.349   6.716
 3502POPC   C3A46349   1.698  14.378   7.118
 3502POPC   C4A46350   1.680  14.694   7.439
 3502POPC   C1B46351   2.211  14.416   6.150
 3502POPC   C2B46352   2.372  14.426   6.599
 3502POPC   C3B46353   2.289  14.239   7.031
 3502POPC   C4B46354   2.507  14.343   7.442
 3503POPC   NC346355  22.822  20.595   5.431
 3503POPC   PO446356  23.401  20.774   5.135
 3503POPC   GL146357  23.304  20.557   5.612
 3503POPC   GL246358  23.443  20.256   5.746
 3503POPC   C1A46359  23.040  20.525   6.059
 3503POPC   D2A46360  22.859  20.422   6.514
 3503POPC   C3A46361  23.044  20.541   6.959
 3503POPC   C4A46362  22.943  20.542   7.418
 3503POPC   C1B46363  23.536  20.540   6.138
 3503POPC   C2B46364  23.352  20.681   6.547
 3503POPC   C3B46365  23.431  20.852   6.981
 3503POPC   C4B46366  23.425  20.636   7.383
 3504POPC   NC346367  36.293  35.985   5.587
 3504POPC   PO446368  35.805  36.304   5.216
 3504POPC   GL146369  35.862  36.267   5.710
 3504POPC   GL246370  35.851  35.912   5.845
 3504POPC   C1A46371  36.151  36.357   6.114
 3504POPC   D2A46372  36.120  36.249   6.580
 3504POPC   C3A46373  36.224  35.866   6.809
 3504POPC   C4A46374  36.443  35.945   7.186
 3504POPC   C1B46375  35.717  36.124   6.213
 3504POPC   C2B46376  35.704  35.948   6.606
 3504POPC   C3B46377  35.814  36.123   7.001
 3504POPC   C4B46378  36.137  36.369   7.126
 3505POPC   NC346379  44.019  21.490   5.279
 3505POPC   PO446380  43.528  21.195   5.516
 3505POPC   GL146381  43.598  21.409   5.871
 3505POPC   GL246382  43.923  21.558   5.780
 3505POPC   C1A46383  43.608  21.256   6.289
 3505POPC   D2A46384  43.864  21.141   6.629
 3505POPC   C3A46385  43.643  21.146   7.010
 3505POPC   C4A46386  43.653  21.208   7.437
 3505POPC   C1B46387  43.838  21.737   6.188
 3505POPC   C2B46388  43.705  21.662   6.597
 3505POPC   C3B46389  43.923  21.561   6.948
 3505POPC   C4B46390  43.975  21.767   7.304
 3506POPC   NC346391  27.824  35.658   5.502
 3506POPC   PO446392  27.411  35.156   5.420
 3506POPC   GL146393  27.485  35.388   5.810
 3506POPC   GL246394  27.841  35.386   5.940
 3506POPC   C1A46395  27.406  35.250   6.235
 3506POPC   D2A46396  27.733  35.264   6.540
 3506POPC   C3A46397  27.563  35.115   6.906
 3506POPC   C4A46398  27.387  35.177   7.318
 3506POPC   C1B46399  27.644  35.705   6.214
 3506POPC   C2B46400  27.625  35.747   6.683
 3506POPC   C3B46401  27.602  35.584   7.096
 3506POPC   C4B46402  27.684  35.528   7.561
 3507POPC   NC346403  34.250  22.612   4.992
 3507POPC   PO446404  34.487  23.163   5.333
 3507POPC   GL146405  34.462  23.127   5.784
 3507POPC   GL246406  34.382  22.806   5.898
 3507POPC   C1A46407  34.370  23.257   6.230
 3507POPC   D2A46408  34.549  23.097   6.646
 3507POPC   C3A46409  34.338  22.950   7.045
 3507POPC   C4A46410  34.463  22.922   7.498
 3507POPC   C1B46411  34.774  22.884   6.151
 3507POPC   C2B46412  34.906  22.694   6.549
 3507POPC   C3B46413  34.760  22.623   6.993
 3507POPC   C4B46414  34.783  22.536   7.442
 3508POPC   NC346415  12.085  13.581   5.448
 3508POPC   PO446416  11.569  13.232   5.163
 3508POPC   GL146417  11.641  13.483   5.670
 3508POPC   GL246418  11.650  13.775   5.835
 3508POPC   C1A46419  12.050  13.600   6.072
 3508POPC   D2A46420  12.361  13.632   6.428
 3508POPC   C3A46421  12.202  13.694   6.856
 3508POPC   C4A46422  12.189  13.561   7.302
 3508POPC   C1B46423  11.604  13.426   6.185
 3508POPC   C2B46424  11.623  13.282   6.599
 3508POPC   C3B46425  11.759  13.449   6.988
 3508POPC   C4B46426  11.704  13.337   7.419
 3509POPC   NC346427  44.408  16.972   5.482
 3509POPC   PO446428  43.678  17.000   5.471
 3509POPC   GL146429  43.731  16.711   5.819
 3509POPC   GL246430  44.070  16.764   5.803
 3509POPC   C1A46431  43.778  16.639   6.264
 3509POPC   D2A46432  43.697  17.015   6.548
 3509POPC   C3A46433  43.857  16.921   6.933
 3509POPC   C4A46434  43.951  16.514   7.076
 3509POPC   C1B46435  44.134  16.987   6.178
 3509POPC   C2B46436  44.184  16.769   6.577
 3509POPC   C3B46437  44.375  16.797   6.977
 3509POPC   C4B46438  44.404  16.510   7.299
 3510POPC   NC346439   0.949   3.082   5.481
 3510POPC   PO446440   1.302   2.641   5.062
 3510POPC   GL146441   1.321   2.644   5.600
 3510POPC   GL246442   1.343   2.990   5.771
 3510POPC   C1A46443   1.167   2.667   6.104
 3510POPC   D2A46444   1.355   2.646   6.518
 3510POPC   C3A46445   1.132   2.530   6.861
 3510POPC   C4A46446   1.306   2.427   7.211
 3510POPC   C1B46447   1.042   3.173   6.100
 3510POPC   C2B46448   1.027   3.160   6.522
 3510POPC   C3B46449   0.899   2.992   6.902
 3510POPC   C4B46450   0.904   2.777   7.281
 3511POPC   NC346451  35.129  13.086   5.535
 3511POPC   PO446452  35.764  12.833   5.487
 3511POPC   GL146453  35.542  12.945   5.841
 3511POPC   GL246454  35.267  12.712   5.874
 3511POPC   C1A46455  35.541  12.902   6.279
 3511POPC   D2A46456  35.286  13.069   6.587
 3511POPC   C3A46457  35.487  12.935   6.953
 3511POPC   C4A46458  35.656  13.124   7.324
 3511POPC   C1B46459  35.092  12.678   6.257
 3511POPC   C2B46460  35.190  12.577   6.674
 3511POPC   C3B46461  35.030  12.729   7.075
 3511POPC   C4B46462  34.785  12.977   7.375
 3512POPC   NC346463   9.512   9.221   5.319
 3512POPC   PO446464   9.830   8.589   5.248
 3512POPC   GL146465   9.715   8.876   5.634
 3512POPC   GL246466   9.955   9.127   5.683
 3512POPC   C1A46467   9.579   9.039   6.074
 3512POPC   D2A46468   9.622   8.916   6.525
 3512POPC   C3A46469   9.589   9.153   6.883
 3512POPC   C4A46470   9.653   9.009   7.313
 3512POPC   C1B46471   9.985   9.329   6.099
 3512POPC   C2B46472  10.089   9.195   6.549
 3512POPC   C3B46473  10.073   9.257   7.027
 3512POPC   C4B46474  10.163   9.074   7.436
 3513POPC   NC346475  36.942  27.309   5.622
 3513POPC   PO446476  36.519  27.917   5.527
 3513POPC   GL146477  36.916  27.852   5.820
 3513POPC   GL246478  37.115  27.538   6.025
 3513POPC   C1A46479  37.087  27.978   6.245
 3513POPC   D2A46480  37.116  27.698   6.621
 3513POPC   C3A46481  37.126  27.948   7.007
 3513POPC   C4A46482  37.206  27.790   7.431
 3513POPC   C1B46483  36.760  27.577   6.239
 3513POPC   C2B46484  36.609  27.485   6.625
 3513POPC   C3B46485  36.748  27.571   7.045
 3513POPC   C4B46486  36.553  27.388   7.401
 3514POPC   NC346487  39.670  18.218   5.256
 3514POPC   PO446488  40.312  18.250   5.351
 3514POPC   GL146489  39.992  18.256   5.710
 3514POPC   GL246490  40.147  17.961   5.847
 3514POPC   C1A46491  39.764  18.313   6.139
 3514POPC   D2A46492  39.717  18.507   6.561
 3514POPC   C3A46493  39.632  18.247   6.946
 3514POPC   C4A46494  39.350  17.956   7.153
 3514POPC   C1B46495  40.242  18.232   6.212
 3514POPC   C2B46496  40.225  18.501   6.546
 3514POPC   C3B46497  40.264  18.461   6.966
 3514POPC   C4B46498  39.948  18.514   7.273
 3515POPC   NC346499  25.681  19.639   5.418
 3515POPC   PO446500  25.064  19.937   5.544
 3515POPC   GL146501  25.421  19.837   5.839
 3515POPC   GL246502  25.588  19.472   5.878
 3515POPC   C1A46503  25.338  20.055   6.234
 3515POPC   D2A46504  25.023  20.226   6.507
 3515POPC   C3A46505  25.143  20.047   6.883
 3515POPC   C4A46506  25.217  20.143   7.306
 3515POPC   C1B46507  25.333  19.516   6.242
 3515POPC   C2B46508  25.144  19.524   6.663
 3515POPC   C3B46509  25.253  19.601   7.113
 3515POPC   C4B46510  25.533  19.768   7.422
 3516POPC   NC346511   7.818   8.503   5.472
 3516POPC   PO446512   7.471   9.127   5.384
 3516POPC   GL146513   7.533   8.916   5.755
 3516POPC   GL246514   7.883   8.948   5.744
 3516POPC   C1A46515   7.274   8.859   6.133
 3516POPC   D2A46516   7.041   9.086   6.447
 3516POPC   C3A46517   7.160   9.148   6.851
 3516POPC   C4A46518   7.136   8.816   7.128
 3516POPC   C1B46519   7.784   9.135   6.149
 3516POPC   C2B46520   7.561   9.029   6.525
 3516POPC   C3B46521   7.626   8.932   6.950
 3516POPC   C4B46522   7.859   9.223   7.179
 3517POPC   NC346523  24.330  30.424   5.278
 3517POPC   PO446524  24.293  31.097   5.344
 3517POPC   GL146525  24.471  30.776   5.704
 3517POPC   GL246526  24.246  30.493   5.773
 3517POPC   C1A46527  24.715  30.640   6.138
 3517POPC   D2A46528  24.839  30.539   6.607
 3517POPC   C3A46529  24.675  30.848   6.891
 3517POPC   C4A46530  24.536  30.893   7.306
 3517POPC   C1B46531  24.200  30.663   6.156
 3517POPC   C2B46532  24.334  30.506   6.540
 3517POPC   C3B46533  24.241  30.600   6.944
 3517POPC   C4B46534  24.204  30.495   7.359
 3518POPC   NC346535  40.060   6.334   5.393
 3518POPC   PO446536  39.722   6.923   5.600
 3518POPC   GL146537  39.907   6.550   5.832
 3518POPC   GL246538  40.273   6.405   5.846
 3518POPC   C1A46539  39.976   6.563   6.261
 3518POPC   D2A46540  39.793   6.779   6.601
 3518POPC   C3A46541  39.943   6.636   6.996
 3518POPC   C4A46542  39.861   6.436   7.395
 3518POPC   C1B46543  40.472   6.634   6.188
 3518POPC   C2B46544  40.351   6.673   6.647
 3518POPC   C3B46545  40.392   6.907   7.040
 3518POPC   C4B46546  40.428   6.904   7.482
 3519POPC   NC346547  32.195   1.503   5.437
 3519POPC   PO446548  32.673   1.799   5.138
 3519POPC   GL146549  32.468   1.941   5.620
 3519POPC   GL246550  32.172   2.178   5.793
 3519POPC   C1A46551  32.457   1.933   6.122
 3519POPC   D2A46552  32.236   1.844   6.532
 3519POPC   C3A46553  32.379   1.955   6.958
 3519POPC   C4A46554  32.325   1.845   7.392
 3519POPC   C1B46555  31.953   1.875   6.097
 3519POPC   C2B46556  31.712   1.918   6.499
 3519POPC   C3B46557  31.881   1.969   6.890
 3519POPC   C4B46558  31.977   2.195   7.258
 3520POPC   NC346559  17.210  32.365   5.292
 3520POPC   PO446560  17.898  32.071   5.272
 3520POPC   GL146561  17.764  32.011   5.713
 3520POPC   GL246562  17.378  32.004   5.697
 3520POPC   C1A46563  17.701  32.281   6.090
 3520POPC   D2A46564  17.605  32.516   6.470
 3520POPC   C3A46565  17.371  32.305   6.778
 3520POPC   C4A46566  17.634  32.328   7.100
 3520POPC   C1B46567  17.076  31.953   6.070
 3520POPC   C2B46568  16.850  31.997   6.470
 3520POPC   C3B46569  16.963  31.984   6.901
 3520POPC   C4B46570  17.269  31.965   7.202
 3521POPC   NC346571  20.637  15.222   5.396
 3521POPC   PO446572  20.079  15.651   5.458
 3521POPC   GL146573  20.384  15.421   5.775
 3521POPC   GL246574  20.343  15.127   5.882
 3521POPC   C1A46575  20.766  15.326   6.103
 3521POPC   D2A46576  20.848  15.090   6.526
 3521POPC   C3A46577  20.730  15.199   6.950
 3521POPC   C4A46578  20.708  14.874   7.266
 3521POPC   C1B46579  20.366  15.094   6.342
 3521POPC   C2B46580  20.340  14.882   6.762
 3521POPC   C3B46581  20.242  15.069   7.177
 3521POPC   C4B46582  20.150  15.145   7.626
 3522POPC   NC346583  21.191  11.531   5.176
 3522POPC   PO446584  21.566  11.185   5.289
 3522POPC   GL146585  21.218  11.269   5.649
 3522POPC   GL246586  21.064  11.003   5.860
 3522POPC   C1A46587  21.102  11.419   6.117
 3522POPC   D2A46588  20.924  11.226   6.520
 3522POPC   C3A46589  21.155  11.270   6.916
 3522POPC   C4A46590  21.301  10.985   7.211
 3522POPC   C1B46591  21.308  10.968   6.293
 3522POPC   C2B46592  21.549  10.978   6.734
 3522POPC   C3B46593  21.791  10.918   7.151
 3522POPC   C4B46594  21.603  10.761   7.561
 3523POPC   NC346595   9.848  41.909   5.556
 3523POPC   PO446596   9.469  42.576   5.444
 3523POPC   GL146597   9.383  42.296   5.867
 3523POPC   GL246598   9.504  41.933   5.923
 3523POPC   C1A46599   9.560  42.234   6.317
 3523POPC   D2A46600   9.979  42.285   6.541
 3523POPC   C3A46601  10.013  42.560   6.908
 3523POPC   C4A46602   9.826  42.593   7.326
 3523POPC   C1B46603   9.848  41.782   6.211
 3523POPC   C2B46604   9.851  41.788   6.637
 3523POPC   C3B46605   9.792  42.073   6.987
 3523POPC   C4B46606   9.611  41.763   7.223
 3524POPC   NC346607   8.372  18.138   5.347
 3524POPC   PO446608   7.945  18.661   5.325
 3524POPC   GL146609   8.273  18.554   5.665
 3524POPC   GL246610   8.287  18.184   5.852
 3524POPC   C1A46611   8.227  18.608   6.122
 3524POPC   D2A46612   7.978  18.571   6.496
 3524POPC   C3A46613   8.198  18.522   6.880
 3524POPC   C4A46614   8.174  18.757   7.272
 3524POPC   C1B46615   8.404  18.183   6.334
 3524POPC   C2B46616   8.299  17.998   6.758
 3524POPC   C3B46617   8.382  18.148   7.185
 3524POPC   C4B46618   8.614  18.511   7.218
 3525POPC   NC346619   6.756  43.641   5.453
 3525POPC   PO446620   6.371  44.161   5.541
 3525POPC   GL146621   6.516  44.084   5.920
 3525POPC   GL246622   6.478  43.707   5.884
 3525POPC   C1A46623   6.627  44.229   6.357
 3525POPC   D2A46624   6.722  44.234   6.799
 3525POPC   C3A46625   6.626  44.247   7.186
 3525POPC   C4A46626   6.880  44.050   7.359
 3525POPC   C1B46627   6.813  43.780   6.168
 3525POPC   C2B46628   6.618  43.770   6.585
 3525POPC   C3B46629   6.551  43.785   7.015
 3525POPC   C4B46630   6.432  43.805   7.467
 3526POPC   NC346631  39.317  42.995   5.266
 3526POPC   PO446632  39.028  43.673   5.326
 3526POPC   GL146633  39.061  43.300   5.608
 3526POPC   GL246634  39.409  43.283   5.689
 3526POPC   C1A46635  39.123  43.054   6.030
 3526POPC   D2A46636  39.267  43.164   6.473
 3526POPC   C3A46637  39.290  42.898   6.832
 3526POPC   C4A46638  39.350  42.978   7.260
 3526POPC   C1B46639  39.638  43.090   6.098
 3526POPC   C2B46640  39.702  42.847   6.510
 3526POPC   C3B46641  39.793  42.941   6.995
 3526POPC   C4B46642  39.773  42.873   7.498
 3527POPC   NC346643  43.843  11.698   5.392
 3527POPC   PO446644  43.721  11.042   5.532
 3527POPC   GL146645  43.916  11.343   5.812
 3527POPC   GL246646  44.205  11.542   5.708
 3527POPC   C1A46647  43.798  11.484   6.248
 3527POPC   D2A46648  43.506  11.332   6.600
 3527POPC   C3A46649  43.693  11.415   7.022
 3527POPC   C4A46650  43.937  11.722   7.292
 3527POPC   C1B46651  44.317  11.590   6.145
 3527POPC   C2B46652  44.262  11.432   6.602
 3527POPC   C3B46653  44.168  11.210   7.027
 3527POPC   C4B46654  44.140  10.928   7.380
 3528POPC   NC346655  23.692  38.269   5.337
 3528POPC   PO446656  23.939  38.855   5.513
 3528POPC   GL146657  23.804  38.653   5.918
 3528POPC   GL246658  23.531  38.377   5.828
 3528POPC   C1A46659  23.863  38.640   6.403
 3528POPC   D2A46660  23.863  38.685   6.881
 3528POPC   C3A46661  23.803  38.272   7.160
 3528POPC   C4A46662  24.028  38.041   7.504
 3528POPC   C1B46663  23.396  38.543   6.231
 3528POPC   C2B46664  23.433  38.450   6.681
 3528POPC   C3B46665  23.379  38.597   7.096
 3528POPC   C4B46666  23.390  38.463   7.508
 3529POPC   NC346667  43.757   9.919   5.661
 3529POPC   PO446668  44.208   9.520   5.392
 3529POPC   GL146669  44.002   9.468   5.809
 3529POPC   GL246670  43.645   9.419   5.781
 3529POPC   C1A46671  43.972   9.707   6.240
 3529POPC   D2A46672  43.885  10.057   6.536
 3529POPC   C3A46673  44.093  10.008   6.904
 3529POPC   C4A46674  44.153   9.765   7.238
 3529POPC   C1B46675  43.476   9.591   6.198
 3529POPC   C2B46676  43.589   9.664   6.646
 3529POPC   C3B46677  43.647   9.795   7.079
 3529POPC   C4B46678  43.413   9.716   7.447
 3530POPC   NC346679  13.757  17.109   5.528
 3530POPC   PO446680  13.374  16.700   5.334
 3530POPC   GL146681  13.337  16.717   5.770
 3530POPC   GL246682  13.360  17.071   5.865
 3530POPC   C1A46683  13.434  16.426   6.120
 3530POPC   D2A46684  13.655  16.374   6.540
 3530POPC   C3A46685  13.428  16.325   6.916
 3530POPC   C4A46686  13.547  16.493   7.312
 3530POPC   C1B46687  13.633  16.928   6.216
 3530POPC   C2B46688  13.751  17.114   6.629
 3530POPC   C3B46689  13.638  17.045   7.044
 3530POPC   C4B46690  13.419  17.036   7.421
 3531POPC   NC346691   6.985   7.418   5.426
 3531POPC   PO446692   7.671   7.322   5.448
 3531POPC   GL146693   7.405   7.457   5.756
 3531POPC   GL246694   7.441   7.148   5.920
 3531POPC   C1A46695   7.111   7.432   6.126
 3531POPC   D2A46696   7.326   7.287   6.474
 3531POPC   C3A46697   7.422   7.583   6.779
 3531POPC   C4A46698   7.235   7.470   7.156
 3531POPC   C1B46699   7.747   7.013   6.228
 3531POPC   C2B46700   7.815   7.175   6.628
 3531POPC   C3B46701   7.606   7.140   7.009
 3531POPC   C4B46702   7.707   7.178   7.428
 3532POPC   NC346703  18.483   4.859   5.444
 3532POPC   PO446704  17.966   5.245   5.481
 3532POPC   GL146705  18.214   5.158   5.820
 3532POPC   GL246706  18.523   5.210   5.832
 3532POPC   C1A46707  18.269   4.944   6.210
 3532POPC   D2A46708  18.192   4.768   6.621
 3532POPC   C3A46709  18.021   5.001   6.926
 3532POPC   C4A46710  18.034   5.303   7.261
 3532POPC   C1B46711  18.441   5.427   6.202
 3532POPC   C2B46712  18.258   5.340   6.596
 3532POPC   C3B46713  18.469   5.230   6.954
 3532POPC   C4B46714  18.585   5.332   7.369
 3533POPC   NC346715   4.922  44.903   5.394
 3533POPC   PO446716   5.483  44.426   5.388
 3533POPC   GL146717   5.274  44.630   5.756
 3533POPC   GL246718   4.936  44.565   5.764
 3533POPC   C1A46719   5.394  44.763   6.170
 3533POPC   D2A46720   5.198  44.963   6.540
 3533POPC   C3A46721   5.320  44.735   6.917
 3533POPC   C4A46722   5.388  44.704   7.358
 3533POPC   C1B46723   4.901  44.825   6.131
 3533POPC   C2B46724   4.723  44.799   6.514
 3533POPC   C3B46725   4.830  44.904   6.924
 3533POPC   C4B46726   4.756  44.784   7.331
 3534POPC   NC346727  11.867   8.763   5.491
 3534POPC   PO446728  12.349   9.304   5.481
 3534POPC   GL146729  12.051   9.149   5.752
 3534POPC   GL246730  12.307   8.949   5.866
 3534POPC   C1A46731  11.909   9.040   6.186
 3534POPC   D2A46732  11.856   8.770   6.527
 3534POPC   C3A46733  12.011   8.867   6.928
 3534POPC   C4A46734  11.823   8.671   7.275
 3534POPC   C1B46735  12.329   9.340   6.145
 3534POPC   C2B46736  12.233   9.270   6.572
 3534POPC   C3B46737  12.364   9.236   6.985
 3534POPC   C4B46738  12.297   9.041   7.380
 3535POPC   NC346739  24.631  24.834   5.373
 3535POPC   PO446740  24.074  24.460   5.409
 3535POPC   GL146741  24.363  24.416   5.785
 3535POPC   GL246742  24.719  24.576   5.806
 3535POPC   C1A46743  24.353  24.522   6.236
 3535POPC   D2A46744  24.132  24.652   6.630
 3535POPC   C3A46745  24.353  24.458   6.995
 3535POPC   C4A46746  24.754  24.209   7.011
 3535POPC   C1B46747  24.686  24.890   6.132
 3535POPC   C2B46748  24.653  25.028   6.562
 3535POPC   C3B46749  24.773  24.746   6.893
 3535POPC   C4B46750  24.710  24.631   7.304
 3536POPC   NC346751  24.995  34.594   5.283
 3536POPC   PO446752  24.374  34.375   5.194
 3536POPC   GL146753  24.588  34.546   5.596
 3536POPC   GL246754  24.503  34.286   5.788
 3536POPC   C1A46755  24.660  34.787   5.999
 3536POPC   D2A46756  24.775  34.858   6.446
 3536POPC   C3A46757  24.842  34.648   6.840
 3536POPC   C4A46758  24.711  34.754   7.243
 3536POPC   C1B46759  24.410  34.427   6.214
 3536POPC   C2B46760  24.398  34.518   6.639
 3536POPC   C3B46761  24.235  34.553   7.068
 3536POPC   C4B46762  24.335  34.509   7.519
 3537POPC   NC346763  23.983   2.103   5.428
 3537POPC   PO446764  23.446   1.747   5.070
 3537POPC   GL146765  23.579   1.810   5.557
 3537POPC   GL246766  23.894   1.653   5.699
 3537POPC   C1A46767  23.695   1.978   6.016
 3537POPC   D2A46768  23.569   1.947   6.449
 3537POPC   C3A46769  23.807   2.069   6.842
 3537POPC   C4A46770  23.550   2.194   7.214
 3537POPC   C1B46771  23.898   1.536   6.165
 3537POPC   C2B46772  23.964   1.636   6.589
 3537POPC   C3B46773  23.972   1.584   7.024
 3537POPC   C4B46774  23.933   1.899   7.321
 3538POPC   NC346775  10.587  33.697   5.380
 3538POPC   PO446776  10.935  33.197   5.662
 3538POPC   GL146777  10.801  33.642   5.873
 3538POPC   GL246778  10.496  33.923   5.840
 3538POPC   C1A46779  10.606  33.717   6.293
 3538POPC   D2A46780  10.247  33.645   6.572
 3538POPC   C3A46781  10.415  33.706   6.980
 3538POPC   C4A46782  10.878  33.749   7.032
 3538POPC   C1B46783  10.257  34.131   6.232
 3538POPC   C2B46784  10.212  34.147   6.714
 3538POPC   C3B46785  10.389  34.195   7.138
 3538POPC   C4B46786  10.811  34.202   7.269
 3539POPC   NC346787  34.062  15.914   5.393
 3539POPC   PO446788  33.443  16.138   5.361
 3539POPC   GL146789  33.748  16.170   5.705
 3539POPC   GL246790  33.795  15.799   5.804
 3539POPC   C1A46791  34.116  16.127   6.040
 3539POPC   D2A46792  34.304  16.125   6.457
 3539POPC   C3A46793  34.069  15.955   6.814
 3539POPC   C4A46794  33.973  15.690   7.189
 3539POPC   C1B46795  33.651  16.002   6.182
 3539POPC   C2B46796  33.487  15.929   6.568
 3539POPC   C3B46797  33.569  15.885   6.967
 3539POPC   C4B46798  33.766  16.179   7.210
 3540POPC   NC346799  38.815  11.140   5.525
 3540POPC   PO446800  38.194  11.386   5.575
 3540POPC   GL146801  38.386  11.050   5.858
 3540POPC   GL246802  38.660  11.256   5.992
 3540POPC   C1A46803  38.515  10.895   6.306
 3540POPC   D2A46804  38.579  11.179   6.671
 3540POPC   C3A46805  38.313  11.060   7.015
 3540POPC   C4A46806  38.423  10.852   7.408
 3540POPC   C1B46807  38.506  11.562   6.282
 3540POPC   C2B46808  38.658  11.743   6.642
 3540POPC   C3B46809  38.496  11.603   6.996
 3540POPC   C4B46810  38.610  11.331   7.309
 3541POPC   NC346811  40.185  39.571   5.433
 3541POPC   PO446812  39.944  39.019   5.453
 3541POPC   GL146813  39.896  39.287   5.870
 3541POPC   GL246814  40.221  39.407   5.943
 3541POPC   C1A46815  39.899  39.359   6.363
 3541POPC   D2A46816  40.048  39.078   6.736
 3541POPC   C3A46817  39.812  38.997   7.129
 3541POPC   C4A46818  39.932  38.957   7.579
 3541POPC   C1B46819  40.374  39.616   6.338
 3541POPC   C2B46820  40.292  39.541   6.786
 3541POPC   C3B46821  39.885  39.490   7.004
 3541POPC   C4B46822  39.689  39.456   7.408
 3542POPC   NC346823  31.052  44.466   5.463
 3542POPC   PO446824  30.544  44.953   5.408
 3542POPC   GL146825  30.720  44.738   5.780
 3542POPC   GL246826  31.089  44.845   5.810
 3542POPC   C1A46827  30.591  44.563   6.194
 3542POPC   D2A46828  30.717  44.517   6.636
 3542POPC   C3A46829  30.489  44.713   6.986
 3542POPC   C4A46830  30.247  44.588   7.384
 3542POPC   C1B46831  31.077  44.691   6.261
 3542POPC   C2B46832  31.224  44.681   6.680
 3542POPC   C3B46833  31.007  44.592   7.058
 3542POPC   C4B46834  30.715  44.332   7.260
 3543POPC   NC346835  23.153  17.096   5.654
 3543POPC   PO446836  22.738  16.655   5.372
 3543POPC   GL146837  22.689  16.845   5.789
 3543POPC   GL246838  22.836  16.557   5.884
 3543POPC   C1A46839  22.730  16.899   6.254
 3543POPC   D2A46840  23.050  17.026   6.588
 3543POPC   C3A46841  23.054  16.796   6.995
 3543POPC   C4A46842  22.978  16.878   7.450
 3543POPC   C1B46843  23.068  16.477   6.266
 3543POPC   C2B46844  23.264  16.264   6.609
 3543POPC   C3B46845  23.253  16.276   7.063
 3543POPC   C4B46846  22.901  16.386   7.290
 3544POPC   NC346847  28.494  12.984   5.342
 3544POPC   PO446848  28.881  12.536   5.669
 3544POPC   GL146849  28.566  12.816   5.829
 3544POPC   GL246850  28.207  12.764   5.720
 3544POPC   C1A46851  28.502  13.000   6.222
 3544POPC   D2A46852  28.498  13.232   6.608
 3544POPC   C3A46853  28.733  13.052   6.929
 3544POPC   C4A46854  28.680  12.736   7.250
 3544POPC   C1B46855  28.137  12.663   6.156
 3544POPC   C2B46856  28.028  12.774   6.588
 3544POPC   C3B46857  27.894  12.577   6.986
 3544POPC   C4B46858  28.166  12.738   7.283
 3545POPC   NC346859  28.942  23.211   5.607
 3545POPC   PO446860  29.406  22.831   5.386
 3545POPC   GL146861  29.438  22.811   5.819
 3545POPC   GL246862  29.081  22.780   5.871
 3545POPC   C1A46863  29.383  22.733   6.277
 3545POPC   D2A46864  29.322  23.010   6.620
 3545POPC   C3A46865  29.276  22.894   7.035
 3545POPC   C4A46866  29.125  23.173   7.349
 3545POPC   C1B46867  28.895  22.940   6.273
 3545POPC   C2B46868  28.852  22.824   6.710
 3545POPC   C3B46869  28.775  22.867   7.148
 3545POPC   C4B46870  28.781  22.846   7.603
 3546POPC   NC346871  44.496  32.923   5.534
 3546POPC   PO446872   0.070  33.386   5.461
 3546POPC   GL146873  44.769  33.265   5.806
 3546POPC   GL246874  44.377  33.338   5.785
 3546POPC   C1A46875  44.705  32.955   6.152
 3546POPC   D2A46876  44.986  32.767   6.474
 3546POPC   C3A46877  44.780  32.785   6.867
 3546POPC   C4A46878  44.617  33.023   7.204
 3546POPC   C1B46879  44.427  33.399   6.243
 3546POPC   C2B46880  44.446  33.611   6.639
 3546POPC   C3B46881  44.528  33.499   7.039
 3546POPC   C4B46882  44.833  33.522   7.349
 3547POPC   NC346883   9.886  34.188   5.212
 3547POPC   PO446884  10.058  33.576   5.368
 3547POPC   GL146885   9.990  33.887   5.671
 3547POPC   GL246886   9.635  33.961   5.579
 3547POPC   C1A46887   9.956  33.732   6.130
 3547POPC   D2A46888   9.742  33.566   6.503
 3547POPC   C3A46889   9.864  33.647   6.936
 3547POPC   C4A46890  10.006  33.902   7.231
 3547POPC   C1B46891   9.662  34.118   5.987
 3547POPC   C2B46892   9.630  34.064   6.425
 3547POPC   C3B46893   9.718  34.141   6.845
 3547POPC   C4B46894   9.521  34.076   7.224
 3548POPC   NC346895  16.182   2.903   5.306
 3548POPC   PO446896  15.885   2.393   5.579
 3548POPC   GL146897  16.034   2.745   5.778
 3548POPC   GL246898  16.308   2.556   5.912
 3548POPC   C1A46899  15.905   2.879   6.188
 3548POPC   D2A46900  15.686   2.619   6.525
 3548POPC   C3A46901  15.698   2.690   6.992
 3548POPC   C4A46902  15.731   2.689   7.452
 3548POPC   C1B46903  16.298   2.604   6.337
 3548POPC   C2B46904  16.165   2.715   6.756
 3548POPC   C3B46905  16.125   2.483   7.127
 3548POPC   C4B46906  16.427   2.451   7.411
 3549POPC   NC346907   8.719  34.824   5.586
 3549POPC   PO446908   8.312  34.424   5.258
 3549POPC   GL146909   8.099  34.588   5.665
 3549POPC   GL246910   8.231  34.865   5.772
 3549POPC   C1A46911   7.969  34.434   6.094
 3549POPC   D2A46912   8.103  34.449   6.537
 3549POPC   C3A46913   7.894  34.536   6.929
 3549POPC   C4A46914   8.096  34.378   7.296
 3549POPC   C1B46915   8.423  34.680   6.166
 3549POPC   C2B46916   8.531  34.765   6.596
 3549POPC   C3B46917   8.407  34.658   6.985
 3549POPC   C4B46918   8.306  34.867   7.337
 3550POPC   NC346919  44.984  33.713   5.163
 3550POPC   PO446920  44.490  33.816   5.569
 3550POPC   GL146921  44.627  33.749   5.929
 3550POPC   GL246922  44.933  33.759   5.822
 3550POPC   C1A46923  44.505  33.939   6.266
 3550POPC   D2A46924  44.660  34.162   6.600
 3550POPC   C3A46925  44.527  33.994   6.992
 3550POPC   C4A46926  44.469  33.855   7.432
 3550POPC   C1B46927   0.025  33.634   6.231
 3550POPC   C2B46928  44.950  33.740   6.648
 3550POPC   C3B46929   0.166  33.736   7.011
 3550POPC   C4B46930   0.129  33.936   7.408
 3551POPC   NC346931  18.624   3.839   5.593
 3551POPC   PO446932  18.451   4.406   5.323
 3551POPC   GL146933  18.316   4.435   5.760
 3551POPC   GL246934  18.245   4.083   5.856
 3551POPC   C1A46935  18.286   4.443   6.218
 3551POPC   D2A46936  18.568   4.414   6.567
 3551POPC   C3A46937  18.617   4.728   6.888
 3551POPC   C4A46938  18.379   4.843   7.265
 3551POPC   C1B46939  18.102   3.963   6.277
 3551POPC   C2B46940  18.090   4.220   6.644
 3551POPC   C3B46941  18.275   4.349   7.019
 3551POPC   C4B46942  18.179   4.402   7.436
 3552POPC   NC346943  32.662  17.091   5.350
 3552POPC   PO446944  33.181  17.458   5.306
 3552POPC   GL146945  33.048  17.493   5.730
 3552POPC   GL246946  32.844  17.214   5.841
 3552POPC   C1A46947  32.943  17.632   6.147
 3552POPC   D2A46948  32.973  17.816   6.542
 3552POPC   C3A46949  32.809  17.626   6.904
 3552POPC   C4A46950  32.997  17.725   7.275
 3552POPC   C1B46951  32.740  17.105   6.302
 3552POPC   C2B46952  32.835  17.126   6.767
 3552POPC   C3B46953  32.958  17.203   7.204
 3552POPC   C4B46954  33.273  16.998   7.484
 3553POPC   NC346955   7.771  38.894   5.323
 3553POPC   PO446956   8.305  39.288   5.408
 3553POPC   GL146957   8.417  39.092   5.750
 3553POPC   GL246958   8.063  39.066   5.800
 3553POPC   C1A46959   8.412  39.171   6.173
 3553POPC   D2A46960   8.493  39.399   6.533
 3553POPC   C3A46961   8.340  39.241   6.877
 3553POPC   C4A46962   8.481  39.230   7.281
 3553POPC   C1B46963   7.879  39.095   6.185
 3553POPC   C2B46964   7.949  38.900   6.593
 3553POPC   C3B46965   7.925  39.003   7.030
 3553POPC   C4B46966   8.190  38.788   7.310
 3554POPC   NC346967  11.928   1.465   5.416
 3554POPC   PO446968  12.299   0.934   5.503
 3554POPC   GL146969  11.988   1.066   5.757
 3554POPC   GL246970  12.180   1.347   5.845
 3554POPC   C1A46971  11.867   1.123   6.191
 3554POPC   D2A46972  11.884   0.936   6.599
 3554POPC   C3A46973  11.979   1.222   6.959
 3554POPC   C4A46974  12.053   1.457   7.377
 3554POPC   C1B46975  12.395   1.240   6.197
 3554POPC   C2B46976  12.392   1.058   6.599
 3554POPC   C3B46977  12.506   1.187   6.981
 3554POPC   C4B46978  12.281   1.021   7.312
 3555POPC   NC346979  33.861  43.604   5.524
 3555POPC   PO446980  34.020  44.324   5.453
 3555POPC   GL146981  33.714  44.086   5.785
 3555POPC   GL246982  33.592  43.725   5.927
 3555POPC   C1A46983  33.635  44.100   6.261
 3555POPC   D2A46984  33.539  43.833   6.621
 3555POPC   C3A46985  33.801  43.894   6.994
 3555POPC   C4A46986  34.073  44.195   7.203
 3555POPC   C1B46987  33.930  43.702   6.248
 3555POPC   C2B46988  33.989  43.562   6.651
 3555POPC   C3B46989  34.186  43.550   7.038
 3555POPC   C4B46990  33.957  43.647   7.451
 3556POPC   NC346991  25.222  25.115   5.348
 3556POPC   PO446992  25.708  25.490   5.608
 3556POPC   GL146993  25.321  25.307   5.822
 3556POPC   GL246994  25.012  25.044   5.784
 3556POPC   C1A46995  25.221  25.413   6.225
 3556POPC   D2A46996  25.372  25.325   6.600
 3556POPC   C3A46997  25.067  25.427   6.875
 3556POPC   C4A46998  25.232  25.458   7.289
 3556POPC   C1B46999  25.202  24.907   6.155
 3556POPC   C2B47000  25.171  24.852   6.581
 3556POPC   C3B47001  25.246  24.987   6.996
 3556POPC   C4B47002  25.069  24.964   7.368
 3557POPC   NC347003   7.224  33.558   5.249
 3557POPC   PO447004   7.656  34.027   5.267
 3557POPC   GL147005   7.298  33.933   5.611
 3557POPC   GL247006   7.368  33.652   5.724
 3557POPC   C1A47007   7.059  33.904   6.039
 3557POPC   D2A47008   6.922  33.813   6.453
 3557POPC   C3A47009   7.092  33.987   6.850
 3557POPC   C4A47010   7.354  33.890   7.204
 3557POPC   C1B47011   7.563  33.860   6.080
 3557POPC   C2B47012   7.437  33.773   6.503
 3557POPC   C3B47013   7.509  33.539   6.860
 3557POPC   C4B47014   7.795  33.510   7.171
 3558POPC   NC347015  21.591  42.910   5.432
 3558POPC   PO447016  21.166  43.424   5.529
 3558POPC   GL147017  21.234  43.094   5.808
 3558POPC   GL247018  21.573  43.197   5.863
 3558POPC   C1A47019  21.216  42.979   6.266
 3558POPC   D2A47020  21.164  42.759   6.655
 3558POPC   C3A47021  21.134  42.978   7.062
 3558POPC   C4A47022  21.480  43.036   7.357
 3558POPC   C1B47023  21.497  43.389   6.257
 3558POPC   C2B47024  21.418  43.258   6.692
 3558POPC   C3B47025  21.353  43.462   7.086
 3558POPC   C4B47026  21.663  43.535   7.410
 3559POPC   NC347027  27.487  21.036   5.380
 3559POPC   PO447028  27.707  21.666   5.456
 3559POPC   GL147029  27.709  21.403   5.844
 3559POPC   GL247030  27.384  21.292   5.867
 3559POPC   C1A47031  27.821  21.455   6.303
 3559POPC   D2A47032  27.673  21.281   6.729
 3559POPC   C3A47033  27.846  21.444   7.133
 3559POPC   C4A47034  27.694  21.471   7.557
 3559POPC   C1B47035  27.312  21.510   6.278
 3559POPC   C2B47036  27.144  21.492   6.720
 3559POPC   C3B47037  27.328  21.366   7.121
 3559POPC   C4B47038  27.255  21.206   7.539
 3560POPC   NC347039  13.181  40.083   5.105
 3560POPC   PO447040  12.926  39.610   5.514
 3560POPC   GL147041  12.816  39.884   5.870
 3560POPC   GL247042  12.494  39.756   5.961
 3560POPC   C1A47043  12.772  40.057   6.312
 3560POPC   D2A47044  12.815  39.872   6.732
 3560POPC   C3A47045  13.197  39.934   6.943
 3560POPC   C4A47046  13.204  40.010   7.377
 3560POPC   C1B47047  12.252  39.916   6.330
 3560POPC   C2B47048  12.325  39.718   6.731
 3560POPC   C3B47049  12.536  39.653   7.142
 3560POPC   C4B47050  12.739  39.857   7.534
 3561POPC   NC347051   2.375  17.096   5.466
 3561POPC   PO447052   2.400  17.751   5.482
 3561POPC   GL147053   2.185  17.479   5.787
 3561POPC   GL247054   1.946  17.205   5.766
 3561POPC   C1A47055   1.958  17.496   6.190
 3561POPC   D2A47056   2.020  17.775   6.489
 3561POPC   C3A47057   2.158  17.660   6.869
 3561POPC   C4A47058   1.987  17.857   7.243
 3561POPC   C1B47059   1.808  17.003   6.148
 3561POPC   C2B47060   1.657  17.078   6.565
 3561POPC   C3B47061   1.638  17.055   7.006
 3561POPC   C4B47062   1.844  17.376   7.233
 3562POPC   NC347063  15.468  31.591   5.434
 3562POPC   PO447064  14.871  31.338   5.660
 3562POPC   GL147065  15.225  31.219   5.931
 3562POPC   GL247066  15.540  31.406   5.903
 3562POPC   C1A47067  15.232  31.331   6.368
 3562POPC   D2A47068  14.946  31.682   6.457
 3562POPC   C3A47069  14.762  31.632   6.843
 3562POPC   C4A47070  14.934  31.813   7.192
 3562POPC   C1B47071  15.395  31.777   6.125
 3562POPC   C2B47072  15.372  31.942   6.549
 3562POPC   C3B47073  15.284  31.591   6.846
 3562POPC   C4B47074  15.318  31.327   7.229
 3563POPC   NC347075  26.702  33.000   5.409
 3563POPC   PO447076  27.218  33.461   5.477
 3563POPC   GL147077  26.925  33.268   5.864
 3563POPC   GL247078  26.651  33.001   5.902
 3563POPC   C1A47079  26.821  33.226   6.308
 3563POPC   D2A47080  26.442  33.004   6.451
 3563POPC   C3A47081  26.544  32.971   6.883
 3563POPC   C4A47082  26.974  33.048   7.087
 3563POPC   C1B47083  26.851  32.730   6.199
 3563POPC   C2B47084  26.968  32.777   6.624
 3563POPC   C3B47085  26.873  32.544   6.991
 3563POPC   C4B47086  27.072  32.469   7.374
 3564POPC   NC347087   8.042  34.119   5.498
 3564POPC   PO447088   8.425  33.512   5.421
 3564POPC   GL147089   8.219  33.715   5.773
 3564POPC   GL247090   7.872  33.658   5.710
 3564POPC   C1A47091   8.320  33.839   6.219
 3564POPC   D2A47092   8.719  33.748   6.471
 3564POPC   C3A47093   8.606  33.664   6.917
 3564POPC   C4A47094   8.257  33.804   7.205
 3564POPC   C1B47095   7.923  33.490   6.164
 3564POPC   C2B47096   7.952  33.703   6.605
 3564POPC   C3B47097   7.816  33.994   6.961
 3564POPC   C4B47098   7.825  33.953   7.431
 3565POPC   NC347099  11.196   4.075   5.306
 3565POPC   PO447100  11.457   4.688   5.547
 3565POPC   GL147101  11.290   4.327   5.752
 3565POPC   GL247102  11.450   3.955   5.739
 3565POPC   C1A47103  11.080   4.326   6.145
 3565POPC   D2A47104  11.059   4.551   6.521
 3565POPC   C3A47105  11.087   4.228   6.860
 3565POPC   C4A47106  11.194   4.282   7.246
 3565POPC   C1B47107  11.540   4.122   6.147
 3565POPC   C2B47108  11.469   4.235   6.534
 3565POPC   C3B47109  11.574   4.414   6.915
 3565POPC   C4B47110  11.754   4.313   7.288
 3566POPC   NC347111  31.597  30.948   5.263
 3566POPC   PO447112  31.135  30.546   5.447
 3566POPC   GL147113  31.368  30.764   5.744
 3566POPC   GL247114  31.090  30.794   5.899
 3566POPC   C1A47115  31.556  30.914   6.141
 3566POPC   D2A47116  31.822  30.765   6.503
 3566POPC   C3A47117  31.677  30.872   6.913
 3566POPC   C4A47118  31.514  30.658   7.256
 3566POPC   C1B47119  31.098  30.551   6.246
 3566POPC   C2B47120  31.311  30.693   6.573
 3566POPC   C3B47121  31.211  30.464   6.929
 3566POPC   C4B47122  30.959  30.666   7.252
 3567POPC   NC347123  33.292  26.368   4.928
 3567POPC   PO447124  32.756  26.336   5.403
 3567POPC   GL147125  32.926  26.083   5.750
 3567POPC   GL247126  33.249  25.928   5.651
 3567POPC   C1A47127  32.950  25.882   6.165
 3567POPC   D2A47128  32.938  25.646   6.541
 3567POPC   C3A47129  32.772  25.737   6.943
 3567POPC   C4A47130  32.894  26.037   7.303
 3567POPC   C1B47131  33.378  26.127   6.036
 3567POPC   C2B47132  33.330  26.158   6.467
 3567POPC   C3B47133  33.193  26.041   6.866
 3567POPC   C4B47134  33.406  26.013   7.256
 3568POPC   NC347135   9.522   8.411   5.573
 3568POPC   PO447136   8.985   8.157   5.258
 3568POPC   GL147137   8.987   8.160   5.713
 3568POPC   GL247138   9.267   8.178   5.947
 3568POPC   C1A47139   8.824   8.008   6.126
 3568POPC   D2A47140   9.038   8.045   6.534
 3568POPC   C3A47141   8.792   8.072   6.923
 3568POPC   C4A47142   9.088   8.082   7.283
 3568POPC   C1B47143   9.016   8.473   6.251
 3568POPC   C2B47144   8.835   8.528   6.675
 3568POPC   C3B47145   8.907   8.528   7.121
 3568POPC   C4B47146   8.923   8.497   7.579
 3569POPC   NC347147  35.095  27.229   5.578
 3569POPC   PO447148  34.532  26.805   5.498
 3569POPC   GL147149  34.307  26.827   5.892
 3569POPC   GL247150  34.184  26.482   5.937
 3569POPC   C1A47151  34.444  26.866   6.334
 3569POPC   D2A47152  34.798  26.867   6.652
 3569POPC   C3A47153  34.716  26.831   7.067
 3569POPC   C4A47154  34.312  26.878   7.105
 3569POPC   C1B47155  34.580  26.384   6.121
 3569POPC   C2B47156  34.859  26.385   6.480
 3569POPC   C3B47157  34.989  26.426   6.931
 3569POPC   C4B47158  34.924  26.451   7.371
 3570POPC   NC347159  34.105  26.625   5.451
 3570POPC   PO447160  33.477  26.811   5.488
 3570POPC   GL147161  33.755  26.915   5.798
 3570POPC   GL247162  33.483  27.084   5.957
 3570POPC   C1A47163  33.910  26.823   6.217
 3570POPC   D2A47164  34.025  26.947   6.630
 3570POPC   C3A47165  34.019  26.571   6.848
 3570POPC   C4A47166  33.828  26.758   7.211
 3570POPC   C1B47167  33.427  26.664   6.168
 3570POPC   C2B47168  33.566  26.596   6.606
 3570POPC   C3B47169  33.405  26.510   7.031
 3570POPC   C4B47170  33.518  26.457   7.465
 3571POPC   NC347171  40.998  15.862   5.415
 3571POPC   PO447172  40.317  16.016   5.468
 3571POPC   GL147173  40.632  16.008   5.773
 3571POPC   GL247174  40.912  16.259   5.753
 3571POPC   C1A47175  40.806  15.931   6.181
 3571POPC   D2A47176  40.918  15.677   6.534
 3571POPC   C3A47177  40.855  15.878   6.928
 3571POPC   C4A47178  40.707  15.970   7.342
 3571POPC   C1B47179  41.064  16.393   6.164
 3571POPC   C2B47180  41.223  16.090   6.456
 3571POPC   C3B47181  41.334  16.040   6.853
 3571POPC   C4B47182  41.282  16.340   7.178
 3572POPC   NC347183   0.824  33.889   5.426
 3572POPC   PO447184   0.260  34.062   5.117
 3572POPC   GL147185   0.363  33.830   5.600
 3572POPC   GL247186   0.421  33.538   5.796
 3572POPC   C1A47187   0.439  33.970   6.110
 3572POPC   D2A47188   0.541  33.845   6.599
 3572POPC   C3A47189   0.598  34.025   7.024
 3572POPC   C4A47190   0.702  34.137   7.473
 3572POPC   C1B47191   0.529  33.497   6.234
 3572POPC   C2B47192   0.340  33.385   6.624
 3572POPC   C3B47193   0.477  33.327   7.038
 3572POPC   C4B47194   0.547  33.652   7.368
 3573POPC   NC347195  11.335   7.147   5.424
 3573POPC   PO447196  11.048   7.689   5.343
 3573POPC   GL147197  11.085   7.469   5.747
 3573POPC   GL247198  11.416   7.409   5.877
 3573POPC   C1A47199  11.030   7.465   6.202
 3573POPC   D2A47200  11.213   7.380   6.580
 3573POPC   C3A47201  11.061   7.589   6.914
 3573POPC   C4A47202  11.063   7.554   7.360
 3573POPC   C1B47203  11.453   7.757   6.222
 3573POPC   C2B47204  11.521   7.787   6.684
 3573POPC   C3B47205  11.557   7.555   7.103
 3573POPC   C4B47206  11.876   7.395   7.427
 3574POPC   NC347207   9.284  11.536   5.483
 3574POPC   PO447208   9.925  11.115   5.505
 3574POPC   GL147209   9.979  11.144   5.926
 3574POPC   GL247210   9.930  10.792   5.945
 3574POPC   C1A47211  10.093  11.212   6.353
 3574POPC   D2A47212  10.060  11.417   6.758
 3574POPC   C3A47213   9.647  11.413   7.029
 3574POPC   C4A47214   9.639  11.491   7.497
 3574POPC   C1B47215   9.856  10.749   6.394
 3574POPC   C2B47216  10.099  10.887   6.763
 3574POPC   C3B47217  10.055  11.112   7.160
 3574POPC   C4B47218   9.704  11.018   7.350
 3575POPC   NC347219   1.488  31.245   5.065
 3575POPC   PO447220   0.919  31.348   5.439
 3575POPC   GL147221   1.177  31.436   5.783
 3575POPC   GL247222   1.466  31.258   5.633
 3575POPC   C1A47223   1.372  31.751   6.090
 3575POPC   D2A47224   1.465  31.837   6.508
 3575POPC   C3A47225   1.204  31.663   6.852
 3575POPC   C4A47226   1.125  31.452   7.245
 3575POPC   C1B47227   1.558  31.288   6.104
 3575POPC   C2B47228   1.650  31.342   6.563
 3575POPC   C3B47229   1.565  31.360   7.035
 3575POPC   C4B47230   1.518  31.281   7.522
 3576POPC   NC347231  14.785  26.545   5.483
 3576POPC   PO447232  15.262  26.968   5.447
 3576POPC   GL147233  15.079  26.834   5.811
 3576POPC   GL247234  14.805  27.050   5.792
 3576POPC   C1A47235  15.196  26.591   6.185
 3576POPC   D2A47236  15.382  26.646   6.596
 3576POPC   C3A47237  15.183  26.981   6.836
 3576POPC   C4A47238  15.238  27.103   7.256
 3576POPC   C1B47239  14.727  26.819   6.176
 3576POPC   C2B47240  14.804  26.604   6.544
 3576POPC   C3B47241  14.976  26.507   6.905
 3576POPC   C4B47242  14.893  26.723   7.238
 3577POPC   NC347243  41.958  23.786   5.377
 3577POPC   PO447244  42.498  23.878   5.006
 3577POPC   GL147245  42.438  23.697   5.506
 3577POPC   GL247246  42.615  23.507   5.803
 3577POPC   C1A47247  42.175  23.754   5.956
 3577POPC   D2A47248  42.048  23.821   6.409
 3577POPC   C3A47249  42.265  23.722   6.800
 3577POPC   C4A47250  42.209  23.790   7.250
 3577POPC   C1B47251  42.559  23.646   6.240
 3577POPC   C2B47252  42.541  24.031   6.460
 3577POPC   C3B47253  42.566  24.134   6.891
 3577POPC   C4B47254  42.691  23.945   7.285
 3578POPC   NC347255  23.631  24.823   5.344
 3578POPC   PO447256  23.825  25.341   5.023
 3578POPC   GL147257  23.891  25.182   5.557
 3578POPC   GL247258  23.526  25.181   5.702
 3578POPC   C1A47259  23.856  24.994   6.029
 3578POPC   D2A47260  23.619  24.961   6.439
 3578POPC   C3A47261  23.752  24.933   6.887
 3578POPC   C4A47262  23.891  25.178   7.275
 3578POPC   C1B47263  23.546  25.386   6.140
 3578POPC   C2B47264  23.694  25.477   6.574
 3578POPC   C3B47265  23.527  25.406   6.987
 3578POPC   C4B47266  23.575  25.591   7.395
 3579POPC   NC347267  35.921  32.489   5.598
 3579POPC   PO447268  36.226  33.016   5.267
 3579POPC   GL147269  36.144  33.238   5.696
 3579POPC   GL247270  36.119  32.920   5.819
 3579POPC   C1A47271  36.283  33.263   6.175
 3579POPC   D2A47272  36.088  33.156   6.605
 3579POPC   C3A47273  36.326  33.234   7.012
 3579POPC   C4A47274  36.441  33.038   7.429
 3579POPC   C1B47275  36.069  32.795   6.223
 3579POPC   C2B47276  35.710  32.793   6.504
 3579POPC   C3B47277  35.707  32.726   6.946
 3579POPC   C4B47278  36.065  32.750   7.237
 3580POPC   NC347279  15.698  15.232   5.335
 3580POPC   PO447280  15.559  14.698   5.587
 3580POPC   GL147281  15.768  14.973   5.801
 3580POPC   GL247282  16.083  14.948   5.594
 3580POPC   C1A47283  15.719  15.166   6.218
 3580POPC   D2A47284  15.926  15.281   6.625
 3580POPC   C3A47285  15.722  15.322   7.056
 3580POPC   C4A47286  15.865  15.384   7.528
 3580POPC   C1B47287  16.217  14.899   6.034
 3580POPC   C2B47288  16.242  14.857   6.476
 3580POPC   C3B47289  16.097  14.884   6.895
 3580POPC   C4B47290  15.914  14.923   7.313
 3581POPC   NC347291  43.426  25.102   5.449
 3581POPC   PO447292  44.110  25.120   5.511
 3581POPC   GL147293  43.917  25.223   5.891
 3581POPC   GL247294  43.604  25.351   5.859
 3581POPC   C1A47295  44.056  25.381   6.287
 3581POPC   D2A47296  44.301  25.344   6.674
 3581POPC   C3A47297  44.035  25.140   7.002
 3581POPC   C4A47298  44.005  24.962   7.448
 3581POPC   C1B47299  43.476  25.370   6.260
 3581POPC   C2B47300  43.672  25.565   6.611
 3581POPC   C3B47301  43.779  25.587   7.032
 3581POPC   C4B47302  43.663  25.311   7.345
 3582POPC   NC347303  33.957  40.332   5.496
 3582POPC   PO447304  33.419  39.938   5.421
 3582POPC   GL147305  33.746  39.868   5.725
 3582POPC   GL247306  34.095  39.808   5.599
 3582POPC   C1A47307  33.712  39.938   6.189
 3582POPC   D2A47308  33.584  39.780   6.601
 3582POPC   C3A47309  33.574  40.127   6.896
 3582POPC   C4A47310  33.705  40.058   7.316
 3582POPC   C1B47311  34.139  39.698   6.049
 3582POPC   C2B47312  34.090  39.678   6.510
 3582POPC   C3B47313  34.010  39.851   6.941
 3582POPC   C4B47314  34.170  40.233   7.181
 3583POPC   NC347315  18.045  42.822   5.583
 3583POPC   PO447316  18.617  43.085   5.283
 3583POPC   GL147317  18.462  43.245   5.738
 3583POPC   GL247318  18.100  43.313   5.798
 3583POPC   C1A47319  18.470  43.213   6.231
 3583POPC   D2A47320  18.497  42.948   6.613
 3583POPC   C3A47321  18.485  43.198   6.999
 3583POPC   C4A47322  18.300  43.134   7.398
 3583POPC   C1B47323  17.915  43.337   6.220
 3583POPC   C2B47324  18.104  43.284   6.636
 3583POPC   C3B47325  17.947  43.115   7.025
 3583POPC   C4B47326  17.824  43.343   7.385
 3584POPC   NC347327  26.467  13.145   5.501
 3584POPC   PO447328  27.098  12.879   5.366
 3584POPC   GL147329  26.914  13.019   5.716
 3584POPC   GL247330  26.907  13.329   5.690
 3584POPC   C1A47331  26.779  12.976   6.137
 3584POPC   D2A47332  26.652  13.045   6.564
 3584POPC   C3A47333  26.806  12.795   6.942
 3584POPC   C4A47334  26.628  12.834   7.335
 3584POPC   C1B47335  27.145  13.338   6.067
 3584POPC   C2B47336  27.041  13.418   6.474
 3584POPC   C3B47337  27.086  13.188   6.805
 3584POPC   C4B47338  27.208  13.083   7.204
 3585POPC   NC347339   8.497  44.471   5.071
 3585POPC   PO447340   8.125  43.954   5.382
 3585POPC   GL147341   7.999  43.897   5.776
 3585POPC   GL247342   7.986  44.231   5.910
 3585POPC   C1A47343   8.106  43.734   6.189
 3585POPC   D2A47344   8.029  43.878   6.610
 3585POPC   C3A47345   8.250  43.778   6.982
 3585POPC   C4A47346   8.094  43.911   7.382
 3585POPC   C1B47347   8.261  44.225   6.293
 3585POPC   C2B47348   8.442  44.202   6.728
 3585POPC   C3B47349   8.401  44.267   7.199
 3585POPC   C4B47350   8.587  44.285   7.666
 3586POPC   NC347351  43.220  43.119   5.223
 3586POPC   PO447352  42.833  43.511   5.591
 3586POPC   GL147353  43.073  43.315   5.899
 3586POPC   GL247354  43.203  43.033   5.765
 3586POPC   C1A47355  43.184  43.331   6.303
 3586POPC   D2A47356  42.992  43.585   6.608
 3586POPC   C3A47357  43.233  43.453   6.906
 3586POPC   C4A47358  43.195  43.347   7.298
 3586POPC   C1B47359  43.015  42.874   6.177
 3586POPC   C2B47360  42.891  43.035   6.584
 3586POPC   C3B47361  43.000  42.892   6.973
 3586POPC   C4B47362  42.914  42.954   7.400
 3587POPC   NC347363  44.208  10.815   5.686
 3587POPC   PO447364  44.748  10.467   5.461
 3587POPC   GL147365  44.569  10.454   5.842
 3587POPC   GL247366  44.743  10.743   5.919
 3587POPC   C1A47367  44.428  10.531   6.287
 3587POPC   D2A47368  44.638  10.447   6.704
 3587POPC   C3A47369  44.473  10.278   7.102
 3587POPC   C4A47370  44.367  10.107   7.555
 3587POPC   C1B47371  44.946  10.534   6.280
 3587POPC   C2B47372   0.139  10.473   6.684
 3587POPC   C3B47373  44.994  10.495   7.112
 3587POPC   C4B47374  44.854  10.224   7.467
 3588POPC   NC347375  23.618  15.732   5.425
 3588POPC   PO447376  23.457  16.356   5.454
 3588POPC   GL147377  23.689  16.150   5.798
 3588POPC   GL247378  23.840  15.799   5.866
 3588POPC   C1A47379  23.638  16.101   6.236
 3588POPC   D2A47380  23.769  16.238   6.632
 3588POPC   C3A47381  23.684  15.998   6.973
 3588POPC   C4A47382  23.632  16.068   7.398
 3588POPC   C1B47383  24.097  15.825   6.206
 3588POPC   C2B47384  23.948  15.762   6.583
 3588POPC   C3B47385  24.126  15.729   6.956
 3588POPC   C4B47386  23.893  15.617   7.306
 3589POPC   NC347387  33.088  11.148   5.371
 3589POPC   PO447388  32.617  11.523   5.436
 3589POPC   GL147389  32.774  11.302   5.773
 3589POPC   GL247390  33.094  11.471   5.793
 3589POPC   C1A47391  32.894  11.173   6.186
 3589POPC   D2A47392  32.733  11.253   6.604
 3589POPC   C3A47393  32.909  11.009   6.925
 3589POPC   C4A47394  33.071  11.108   7.344
 3589POPC   C1B47395  33.054  11.652   6.216
 3589POPC   C2B47396  32.920  11.727   6.638
 3589POPC   C3B47397  33.035  11.523   7.012
 3589POPC   C4B47398  33.280  11.574   7.376
 3590POPC   NC347399   1.512  31.993   5.513
 3590POPC   PO447400   1.099  32.379   5.157
 3590POPC   GL147401   1.057  32.296   5.633
 3590POPC   GL247402   1.026  31.936   5.721
 3590POPC   C1A47403   1.247  32.254   6.093
 3590POPC   D2A47404   1.296  32.370   6.542
 3590POPC   C3A47405   1.341  32.159   6.949
 3590POPC   C4A47406   1.363  32.278   7.401
 3590POPC   C1B47407   0.867  31.823   6.124
 3590POPC   C2B47408   0.972  31.972   6.504
 3590POPC   C3B47409   0.834  32.020   6.915
 3590POPC   C4B47410   1.002  31.938   7.301
 3591POPC   NC347411  21.596  33.563   5.442
 3591POPC   PO447412  21.192  34.086   5.096
 3591POPC   GL147413  21.364  34.017   5.629
 3591POPC   GL247414  21.700  34.008   5.733
 3591POPC   C1A47415  21.246  33.882   6.104
 3591POPC   D2A47416  21.067  34.024   6.532
 3591POPC   C3A47417  21.249  33.899   6.920
 3591POPC   C4A47418  21.291  33.693   7.330
 3591POPC   C1B47419  21.740  33.712   6.116
 3591POPC   C2B47420  21.541  33.665   6.542
 3591POPC   C3B47421  21.698  33.651   6.993
 3591POPC   C4B47422  21.760  33.632   7.474
 3592POPC   NC347423  35.322  36.457   5.178
 3592POPC   PO447424  34.953  36.919   5.402
 3592POPC   GL147425  35.206  36.912   5.762
 3592POPC   GL247426  35.565  36.994   5.715
 3592POPC   C1A47427  35.201  36.951   6.209
 3592POPC   D2A47428  35.011  37.021   6.597
 3592POPC   C3A47429  35.214  36.793   6.913
 3592POPC   C4A47430  35.055  36.679   7.358
 3592POPC   C1B47431  35.652  37.193   6.114
 3592POPC   C2B47432  35.643  37.085   6.545
 3592POPC   C3B47433  35.522  37.262   6.915
 3592POPC   C4B47434  35.329  37.115   7.278
 3593POPC   NC347435   4.108  35.782   5.272
 3593POPC   PO447436   4.491  35.273   5.210
 3593POPC   GL147437   4.472  35.190   5.645
 3593POPC   GL247438   4.215  35.400   5.697
 3593POPC   C1A47439   4.579  35.340   6.076
 3593POPC   D2A47440   4.432  35.276   6.498
 3593POPC   C3A47441   4.664  35.313   6.876
 3593POPC   C4A47442   4.667  35.481   7.270
 3593POPC   C1B47443   4.087  35.116   6.051
 3593POPC   C2B47444   4.034  34.965   6.492
 3593POPC   C3B47445   4.068  35.218   6.884
 3593POPC   C4B47446   4.201  35.302   7.304
 3594POPC   NC347447  30.190  16.516   5.487
 3594POPC   PO447448  29.702  16.960   5.241
 3594POPC   GL147449  29.762  16.667   5.675
 3594POPC   GL247450  29.754  16.933   5.872
 3594POPC   C1A47451  29.932  16.512   6.108
 3594POPC   D2A47452  30.227  16.474   6.484
 3594POPC   C3A47453  30.015  16.571   6.879
 3594POPC   C4A47454  29.861  16.756   7.258
 3594POPC   C1B47455  29.883  17.075   6.231
 3594POPC   C2B47456  29.977  16.996   6.626
 3594POPC   C3B47457  29.892  17.187   6.993
 3594POPC   C4B47458  29.555  17.177   7.295
 3595POPC   NC347459   4.134   9.117   5.392
 3595POPC   PO447460   4.802   8.721   5.347
 3595POPC   GL147461   4.503   8.892   5.678
 3595POPC   GL247462   4.158   8.716   5.719
 3595POPC   C1A47463   4.340   9.048   6.085
 3595POPC   D2A47464   4.567   9.273   6.417
 3595POPC   C3A47465   4.545   9.222   6.872
 3595POPC   C4A47466   4.748   9.279   7.270
 3595POPC   C1B47467   3.897   8.724   6.101
 3595POPC   C2B47468   3.997   8.643   6.543
 3595POPC   C3B47469   4.188   8.669   6.953
 3595POPC   C4B47470   4.263   9.016   7.264
 3596POPC   NC347471  27.053  12.410   5.304
 3596POPC   PO447472  26.616  12.004   5.415
 3596POPC   GL147473  26.921  12.189   5.761
 3596POPC   GL247474  26.844  12.528   5.817
 3596POPC   C1A47475  27.080  12.290   6.222
 3596POPC   D2A47476  27.114  11.977   6.572
 3596POPC   C3A47477  26.975  12.025   6.991
 3596POPC   C4A47478  26.673  11.820   7.286
 3596POPC   C1B47479  26.626  12.498   6.244
 3596POPC   C2B47480  26.741  12.362   6.676
 3596POPC   C3B47481  26.596  12.341   7.136
 3596POPC   C4B47482  26.323  12.434   7.507
 3597POPC   NC347483   3.164  29.557   5.325
 3597POPC   PO447484   3.774  29.926   5.354
 3597POPC   GL147485   3.502  29.880   5.698
 3597POPC   GL247486   3.734  29.726   5.883
 3597POPC   C1A47487   3.366  29.886   6.159
 3597POPC   D2A47488   3.539  30.063   6.552
 3597POPC   C3A47489   3.510  29.798   6.858
 3597POPC   C4A47490   3.391  29.746   7.239
 3597POPC   C1B47491   3.871  30.028   6.162
 3597POPC   C2B47492   4.037  30.003   6.547
 3597POPC   C3B47493   3.912  30.098   6.947
 3597POPC   C4B47494   3.891  29.750   7.255
 3598POPC   NC347495   7.237  38.126   5.677
 3598POPC   PO447496   7.328  38.805   5.470
 3598POPC   GL147497   7.585  38.665   5.796
 3598POPC   GL247498   7.277  38.549   5.951
 3598POPC   C1A47499   7.694  38.610   6.229
 3598POPC   D2A47500   7.487  38.644   6.626
 3598POPC   C3A47501   7.691  38.539   6.998
 3598POPC   C4A47502   7.687  38.731   7.379
 3598POPC   C1B47503   7.211  38.317   6.345
 3598POPC   C2B47504   7.014  38.440   6.732
 3598POPC   C3B47505   7.194  38.443   7.116
 3598POPC   C4B47506   7.062  38.268   7.507
 3599POPC   NC347507  23.135  31.051   5.401
 3599POPC   PO447508  22.890  30.408   5.263
 3599POPC   GL147509  22.929  30.602   5.644
 3599POPC   GL247510  22.816  30.886   5.752
 3599POPC   C1A47511  22.908  30.477   6.080
 3599POPC   D2A47512  23.076  30.654   6.471
 3599POPC   C3A47513  22.927  30.482   6.872
 3599POPC   C4A47514  22.923  30.629   7.294
 3599POPC   C1B47515  22.698  30.982   6.148
 3599POPC   C2B47516  22.654  30.941   6.567
 3599POPC   C3B47517  22.562  30.865   6.978
 3599POPC   C4B47518  22.668  31.099   7.321
 3600POPC   NC347519  13.282  14.541   5.233
 3600POPC   PO447520  12.774  14.160   5.468
 3600POPC   GL147521  12.909  14.274   5.854
 3600POPC   GL247522  13.176  14.512   5.769
 3600POPC   C1A47523  12.756  14.281   6.280
 3600POPC   D2A47524  12.650  14.630   6.569
 3600POPC   C3A47525  12.775  14.510   6.980
 3600POPC   C4A47526  12.599  14.253   7.322
 3600POPC   C1B47527  13.052  14.701   6.188
 3600POPC   C2B47528  13.068  14.926   6.598
 3600POPC   C3B47529  13.200  14.852   7.015
 3600POPC   C4B47530  13.245  14.478   7.208
 3601POPC   NC347531   0.209   2.742   5.287
 3601POPC   PO447532   0.802   2.656   5.574
 3601POPC   GL147533   0.448   2.872   5.767
 3601POPC   GL247534   0.129   2.666   5.794
 3601POPC   C1A47535   0.491   2.887   6.221
 3601POPC   D2A47536   0.794   2.663   6.497
 3601POPC   C3A47537   0.597   2.582   6.906
 3601POPC   C4A47538   0.425   2.951   7.168
 3601POPC   C1B47539  44.970   2.803   6.177
 3601POPC   C2B47540   0.096   2.939   6.599
 3601POPC   C3B47541  44.914   2.849   7.011
 3601POPC   C4B47542   0.063   2.628   7.372
 3602POPC   NC347543  41.335   5.300   5.416
 3602POPC   PO447544  41.711   4.721   5.445
 3602POPC   GL147545  41.591   4.955   5.803
 3602POPC   GL247546  41.398   5.266   5.918
 3602POPC   C1A47547  41.457   4.822   6.215
 3602POPC   D2A47548  41.405   5.008   6.615
 3602POPC   C3A47549  41.411   4.850   7.034
 3602POPC   C4A47550  41.371   5.151   7.326
 3602POPC   C1B47551  41.781   5.247   6.192
 3602POPC   C2B47552  41.898   5.117   6.593
 3602POPC   C3B47553  41.821   5.170   7.017
 3602POPC   C4B47554  41.844   4.870   7.326
 3603POPC   NC347555   9.952   2.763   5.455
 3603POPC   PO447556   9.386   2.431   5.419
 3603POPC   GL147557   9.606   2.565   5.783
 3603POPC   GL247558   9.835   2.320   5.875
 3603POPC   C1A47559   9.735   2.762   6.196
 3603POPC   D2A47560   9.696   3.043   6.582
 3603POPC   C3A47561   9.918   2.844   6.913
 3603POPC   C4A47562   9.763   2.523   7.155
 3603POPC   C1B47563   9.961   2.241   6.319
 3603POPC   C2B47564  10.166   2.377   6.714
 3603POPC   C3B47565  10.254   2.485   7.149
 3603POPC   C4B47566  10.088   2.841   7.427
 3604POPC   NC347567  40.275   9.364   5.367
 3604POPC   PO447568  40.293  10.058   5.323
 3604POPC   GL147569  40.193   9.822   5.756
 3604POPC   GL247570  40.124   9.449   5.829
 3604POPC   C1A47571  40.139   9.761   6.234
 3604POPC   D2A47572  40.140   9.896   6.668
 3604POPC   C3A47573  39.863   9.938   7.042
 3604POPC   C4A47574  40.106   9.743   7.391
 3604POPC   C1B47575  39.820   9.332   6.126
 3604POPC   C2B47576  39.810   9.470   6.544
 3604POPC   C3B47577  39.991   9.456   6.937
 3604POPC   C4B47578  39.819   9.305   7.339
 3605POPC   NC347579  32.761  13.460   5.528
 3605POPC   PO447580  33.224  13.955   5.480
 3605POPC   GL147581  33.067  13.700   5.857
 3605POPC   GL247582  32.724  13.700   5.990
 3605POPC   C1A47583  33.117  13.630   6.318
 3605POPC   D2A47584  33.363  13.726   6.704
 3605POPC   C3A47585  33.101  13.713   7.054
 3605POPC   C4A47586  33.190  13.660   7.459
 3605POPC   C1B47587  32.739  13.293   6.216
 3605POPC   C2B47588  32.703  13.075   6.630
 3605POPC   C3B47589  32.533  13.263   7.006
 3605POPC   C4B47590  32.680  13.528   7.315
 3606POPC   NC347591  14.894  29.180   5.464
 3606POPC   PO447592  15.508  29.513   5.478
 3606POPC   GL147593  15.248  29.295   5.811
 3606POPC   GL247594  15.018  28.955   5.897
 3606POPC   C1A47595  15.023  29.336   6.202
 3606POPC   D2A47596  15.143  29.089   6.532
 3606POPC   C3A47597  15.029  29.184   6.930
 3606POPC   C4A47598  15.264  29.377   7.216
 3606POPC   C1B47599  14.751  28.877   6.285
 3606POPC   C2B47600  14.597  28.894   6.712
 3606POPC   C3B47601  14.753  28.795   7.123
 3606POPC   C4B47602  15.129  28.851   7.383
 3607POPC   NC347603  13.725  34.125   5.457
 3607POPC   PO447604  13.223  33.634   5.485
 3607POPC   GL147605  13.420  33.465   5.876
 3607POPC   GL247606  13.796  33.455   5.793
 3607POPC   C1A47607  13.421  33.532   6.351
 3607POPC   D2A47608  13.240  33.726   6.739
 3607POPC   C3A47609  13.469  33.762   7.103
 3607POPC   C4A47610  13.878  33.904   7.156
 3607POPC   C1B47611  13.842  33.748   6.166
 3607POPC   C2B47612  13.851  33.776   6.634
 3607POPC   C3B47613  14.094  33.523   6.920
 3607POPC   C4B47614  14.101  33.520   7.405
 3608POPC   NC347615  21.416  37.150   5.510
 3608POPC   PO447616  21.825  36.626   5.393
 3608POPC   GL147617  21.540  36.721   5.723
 3608POPC   GL247618  21.286  36.500   5.774
 3608POPC   C1A47619  21.330  36.901   6.124
 3608POPC   D2A47620  21.405  37.060   6.569
 3608POPC   C3A47621  21.219  36.851   6.939
 3608POPC   C4A47622  21.302  37.019   7.355
 3608POPC   C1B47623  21.648  36.478   6.123
 3608POPC   C2B47624  21.580  36.600   6.525
 3608POPC   C3B47625  21.637  36.506   6.942
 3608POPC   C4B47626  21.394  36.384   7.277
 3609POPC   NC347627   8.110  42.015   5.485
 3609POPC   PO447628   8.059  42.693   5.347
 3609POPC   GL147629   8.015  42.499   5.746
 3609POPC   GL247630   8.326  42.296   5.862
 3609POPC   C1A47631   8.034  42.579   6.188
 3609POPC   D2A47632   8.342  42.392   6.465
 3609POPC   C3A47633   8.279  42.549   6.873
 3609POPC   C4A47634   8.259  42.372   7.285
 3609POPC   C1B47635   7.993  42.081   6.112
 3609POPC   C2B47636   7.929  42.054   6.516
 3609POPC   C3B47637   8.143  42.051   6.852
 3609POPC   C4B47638   8.042  41.936   7.243
 3610POPC   NC347639   7.638  10.964   5.337
 3610POPC   PO447640   7.292  10.387   5.373
 3610POPC   GL147641   7.451  10.557   5.780
 3610POPC   GL247642   7.772  10.710   5.785
 3610POPC   C1A47643   7.347  10.495   6.210
 3610POPC   D2A47644   7.085  10.496   6.564
 3610POPC   C3A47645   7.232  10.395   6.961
 3610POPC   C4A47646   7.283  10.277   7.379
 3610POPC   C1B47647   7.798  10.739   6.236
 3610POPC   C2B47648   7.705  10.582   6.666
 3610POPC   C3B47649   7.673  10.597   7.129
 3610POPC   C4B47650   7.886  10.823   7.451
 3611POPC   NC347651   7.242  13.087   5.366
 3611POPC   PO447652   7.369  12.543   5.029
 3611POPC   GL147653   7.467  12.701   5.620
 3611POPC   GL247654   7.343  12.385   5.762
 3611POPC   C1A47655   7.575  12.773   6.115
 3611POPC   D2A47656   7.706  12.940   6.564
 3611POPC   C3A47657   7.458  12.945   6.943
 3611POPC   C4A47658   7.581  13.019   7.369
 3611POPC   C1B47659   7.204  12.422   6.188
 3611POPC   C2B47660   7.210  12.677   6.548
 3611POPC   C3B47661   7.152  12.539   6.961
 3611POPC   C4B47662   7.242  12.653   7.370
 3612POPC   NC347663  38.283  33.096   5.450
 3612POPC   PO447664  38.868  32.804   5.350
 3612POPC   GL147665  38.652  32.941   5.768
 3612POPC   GL247666  38.354  32.724   5.815
 3612POPC   C1A47667  38.423  33.140   6.166
 3612POPC   D2A47668  38.492  32.998   6.608
 3612POPC   C3A47669  38.332  33.018   7.028
 3612POPC   C4A47670  38.373  33.416   7.222
 3612POPC   C1B47671  38.601  32.656   6.211
 3612POPC   C2B47672  38.582  32.503   6.648
 3612POPC   C3B47673  38.776  32.628   7.016
 3612POPC   C4B47674  38.714  32.877   7.364
 3613POPC   NC347675   0.311  23.440   5.521
 3613POPC   PO447676   0.387  24.149   5.528
 3613POPC   GL147677   0.481  23.846   5.829
 3613POPC   GL247678   0.149  23.753   5.875
 3613POPC   C1A47679   0.645  23.633   6.205
 3613POPC   D2A47680   0.885  23.575   6.602
 3613POPC   C3A47681   0.772  23.711   7.030
 3613POPC   C4A47682   0.670  23.461   7.373
 3613POPC   C1B47683   0.147  23.508   6.233
 3613POPC   C2B47684   0.360  23.366   6.602
 3613POPC   C3B47685   0.292  23.510   7.021
 3613POPC   C4B47686   0.282  23.779   7.410
 3614POPC   NC347687   7.991   0.982   5.429
 3614POPC   PO447688   8.473   1.498   5.464
 3614POPC   GL147689   8.470   1.105   5.754
 3614POPC   GL247690   8.105   0.989   5.923
 3614POPC   C1A47691   8.511   1.015   6.210
 3614POPC   D2A47692   8.156   0.882   6.459
 3614POPC   C3A47693   8.191   0.867   6.918
 3614POPC   C4A47694   8.519   1.033   7.234
 3614POPC   C1B47695   8.154   1.361   6.239
 3614POPC   C2B47696   8.320   1.336   6.690
 3614POPC   C3B47697   8.082   1.333   7.097
 3614POPC   C4B47698   7.796   1.452   7.456
 3615POPC   NC347699   3.221  27.944   5.385
 3615POPC   PO447700   2.597  28.225   5.295
 3615POPC   GL147701   2.622  28.048   5.695
 3615POPC   GL247702   2.928  28.214   5.733
 3615POPC   C1A47703   2.549  28.240   6.093
 3615POPC   D2A47704   2.726  28.489   6.412
 3615POPC   C3A47705   2.580  28.305   6.781
 3615POPC   C4A47706   2.666  28.405   7.191
 3615POPC   C1B47707   2.981  27.992   6.144
 3615POPC   C2B47708   3.034  28.088   6.578
 3615POPC   C3B47709   2.937  27.996   7.011
 3615POPC   C4B47710   3.031  28.153   7.436
 3616POPC   NC347711  40.277  35.202   5.654
 3616POPC   PO447712  39.847  35.648   5.394
 3616POPC   GL147713  39.826  35.456   5.797
 3616POPC   GL247714  39.595  35.171   5.738
 3616POPC   C1A47715  40.056  35.472   6.209
 3616POPC   D2A47716  40.213  35.214   6.552
 3616POPC   C3A47717  40.136  35.330   6.996
 3616POPC   C4A47718  40.216  35.163   7.436
 3616POPC   C1B47719  39.441  35.341   6.117
 3616POPC   C2B47720  39.643  35.388   6.486
 3616POPC   C3B47721  39.589  35.414   6.897
 3616POPC   C4B47722  39.731  35.336   7.297
 3617POPC   NC347723  21.729  30.017   5.551
 3617POPC   PO447724  22.141  30.364   5.176
 3617POPC   GL147725  22.116  30.345   5.670
 3617POPC   GL247726  22.135  30.019   5.861
 3617POPC   C1A47727  21.933  30.390   6.124
 3617POPC   D2A47728  22.120  30.224   6.497
 3617POPC   C3A47729  21.917  30.187   6.898
 3617POPC   C4A47730  22.156  30.087   7.255
 3617POPC   C1B47731  22.158  29.781   6.236
 3617POPC   C2B47732  22.106  29.735   6.705
 3617POPC   C3B47733  22.228  29.534   7.091
 3617POPC   C4B47734  22.423  29.700   7.442
 3618POPC   NC347735   0.630   1.427   5.334
 3618POPC   PO447736   0.206   0.897   5.513
 3618POPC   GL147737   0.514   1.135   5.741
 3618POPC   GL247738   0.274   1.377   5.756
 3618POPC   C1A47739   0.625   1.401   6.135
 3618POPC   D2A47740   0.472   1.383   6.573
 3618POPC   C3A47741   0.506   1.020   6.820
 3618POPC   C4A47742   0.657   1.006   7.227
 3618POPC   C1B47743   0.180   1.145   6.160
 3618POPC   C2B47744   0.022   1.096   6.558
 3618POPC   C3B47745   0.082   1.261   6.946
 3618POPC   C4B47746   0.105   1.017   7.251
 3619POPC   NC347747  40.722  21.555   5.415
 3619POPC   PO447748  41.323  21.203   5.404
 3619POPC   GL147749  41.115  21.438   5.745
 3619POPC   GL247750  40.868  21.197   5.863
 3619POPC   C1A47751  40.926  21.700   6.095
 3619POPC   D2A47752  40.627  21.649   6.460
 3619POPC   C3A47753  40.715  21.345   6.812
 3619POPC   C4A47754  40.600  21.546   7.216
 3619POPC   C1B47755  40.910  21.226   6.331
 3619POPC   C2B47756  41.135  21.562   6.569
 3619POPC   C3B47757  41.039  21.694   6.975
 3619POPC   C4B47758  41.039  21.300   7.248
 3620POPC   NC347759   9.202  29.691   5.370
 3620POPC   PO447760   8.749  29.006   5.412
 3620POPC   GL147761   8.887  29.118   5.817
 3620POPC   GL247762   9.047  29.442   5.846
 3620POPC   C1A47763   8.748  29.258   6.261
 3620POPC   D2A47764   8.781  29.412   6.692
 3620POPC   C3A47765   8.809  29.163   7.082
 3620POPC   C4A47766   8.651  29.247   7.532
 3620POPC   C1B47767   9.231  29.180   6.182
 3620POPC   C2B47768   9.284  29.307   6.556
 3620POPC   C3B47769   9.284  29.333   6.950
 3620POPC   C4B47770   9.268  29.118   7.301
 3621POPC   NC347771   1.811   3.130   5.454
 3621POPC   PO447772   2.200   2.581   5.497
 3621POPC   GL147773   2.148   2.828   5.836
 3621POPC   GL247774   1.798   2.820   5.888
 3621POPC   C1A47775   2.088   2.621   6.258
 3621POPC   D2A47776   1.881   2.766   6.640
 3621POPC   C3A47777   2.181   2.680   6.983
 3621POPC   C4A47778   2.363   2.255   7.073
 3621POPC   C1B47779   1.537   3.026   6.239
 3621POPC   C2B47780   1.519   3.154   6.673
 3621POPC   C3B47781   1.503   2.861   6.995
 3621POPC   C4B47782   1.770   2.631   7.270
 3622POPC   NC347783  20.828  30.119   5.380
 3622POPC   PO447784  20.204  29.880   5.500
 3622POPC   GL147785  20.493  30.097   5.811
 3622POPC   GL247786  20.873  30.125   5.884
 3622POPC   C1A47787  20.564  30.140   6.277
 3622POPC   D2A47788  20.858  30.115   6.629
 3622POPC   C3A47789  20.685  30.172   7.026
 3622POPC   C4A47790  20.271  30.073   7.149
 3622POPC   C1B47791  20.909  29.757   6.188
 3622POPC   C2B47792  21.135  29.696   6.618
 3622POPC   C3B47793  20.899  29.686   7.048
 3622POPC   C4B47794  20.813  29.666   7.523
 3623POPC   NC347795  19.710  40.108   5.194
 3623POPC   PO447796  20.174  39.720   5.233
 3623POPC   GL147797  19.974  39.862   5.675
 3623POPC   GL247798  20.165  40.094   5.859
 3623POPC   C1A47799  19.756  40.065   6.125
 3623POPC   D2A47800  19.934  40.311   6.528
 3623POPC   C3A47801  19.802  40.214   6.980
 3623POPC   C4A47802  19.655  40.210   7.439
 3623POPC   C1B47803  20.197  39.866   6.273
 3623POPC   C2B47804  20.016  39.824   6.685
 3623POPC   C3B47805  20.091  39.795   7.120
 3623POPC   C4B47806  20.143  40.057   7.467
 3624POPC   NC347807  30.501  43.705   5.377
 3624POPC   PO447808  31.076  44.087   5.187
 3624POPC   GL147809  30.775  44.039   5.647
 3624POPC   GL247810  30.496  44.232   5.815
 3624POPC   C1A47811  30.743  43.944   6.172
 3624POPC   D2A47812  30.573  44.018   6.624
 3624POPC   C3A47813  30.745  43.854   7.052
 3624POPC   C4A47814  30.584  43.711   7.456
 3624POPC   C1B47815  30.273  43.852   6.036
 3624POPC   C2B47816  30.295  43.566   6.393
 3624POPC   C3B47817  30.343  43.612   6.840
 3624POPC   C4B47818  30.135  43.619   7.208
 3625POPC   NC347819  14.540  17.053   5.270
 3625POPC   PO447820  14.468  16.392   5.215
 3625POPC   GL147821  14.237  16.581   5.626
 3625POPC   GL247822  13.847  16.560   5.659
 3625POPC   C1A47823  14.344  16.790   6.049
 3625POPC   D2A47824  14.550  16.673   6.464
 3625POPC   C3A47825  14.432  16.808   6.900
 3625POPC   C4A47826  14.456  16.749   7.375
 3625POPC   C1B47827  13.930  16.514   6.113
 3625POPC   C2B47828  14.042  16.714   6.522
 3625POPC   C3B47829  13.947  16.650   6.978
 3625POPC   C4B47830  13.907  16.816   7.430
 3626POPC   NC347831   3.816   5.750   5.234
 3626POPC   PO447832   3.454   6.195   5.496
 3626POPC   GL147833   3.532   6.064   5.925
 3626POPC   GL247834   3.694   5.775   5.806
 3626POPC   C1A47835   3.308   5.989   6.359
 3626POPC   D2A47836   3.229   5.952   6.854
 3626POPC   C3A47837   3.585   5.954   7.150
 3626POPC   C4A47838   3.707   6.048   7.592
 3626POPC   C1B47839   3.642   5.620   6.239
 3626POPC   C2B47840   3.615   5.662   6.701
 3626POPC   C3B47841   3.531   5.447   7.115
 3626POPC   C4B47842   3.435   5.257   7.521
 3627POPC   NC347843  29.529  25.127   5.597
 3627POPC   PO447844  30.107  25.339   5.517
 3627POPC   GL147845  30.068  25.613   5.831
 3627POPC   GL247846  29.728  25.557   5.890
 3627POPC   C1A47847  30.109  25.711   6.264
 3627POPC   D2A47848  30.171  25.358   6.565
 3627POPC   C3A47849  29.941  25.363   6.934
 3627POPC   C4A47850  30.018  25.447   7.365
 3627POPC   C1B47851  29.862  25.200   6.181
 3627POPC   C2B47852  29.685  25.080   6.595
 3627POPC   C3B47853  29.718  24.937   7.068
 3627POPC   C4B47854  29.702  25.073   7.515
 3628POPC   NC347855  20.669   3.041   5.409
 3628POPC   PO447856  20.851   2.344   5.438
 3628POPC   GL147857  20.926   2.631   5.750
 3628POPC   GL247858  20.571   2.692   5.773
 3628POPC   C1A47859  20.886   2.776   6.183
 3628POPC   D2A47860  20.655   2.799   6.561
 3628POPC   C3A47861  20.800   2.976   6.928
 3628POPC   C4A47862  20.617   3.017   7.328
 3628POPC   C1B47863  20.355   2.677   6.131
 3628POPC   C2B47864  20.231   2.530   6.528
 3628POPC   C3B47865  20.325   2.687   6.947
 3628POPC   C4B47866  20.182   2.397   7.280
 3629POPC   NC347867   2.596   2.843   5.483
 3629POPC   PO447868   3.191   2.446   5.500
 3629POPC   GL147869   2.990   2.625   5.839
 3629POPC   GL247870   2.925   2.980   5.873
 3629POPC   C1A47871   2.846   2.599   6.266
 3629POPC   D2A47872   2.993   2.662   6.680
 3629POPC   C3A47873   2.729   2.675   7.056
 3629POPC   C4A47874   2.928   2.676   7.465
 3629POPC   C1B47875   2.537   2.990   6.148
 3629POPC   C2B47876   2.483   2.853   6.588
 3629POPC   C3B47877   2.476   3.111   6.985
 3629POPC   C4B47878   2.646   3.073   7.389
 3630POPC   NC347879  39.239   6.896   5.487
 3630POPC   PO447880  39.596   6.363   5.378
 3630POPC   GL147881  39.388   6.508   5.782
 3630POPC   GL247882  39.044   6.424   5.933
 3630POPC   C1A47883  39.451   6.493   6.231
 3630POPC   D2A47884  39.275   6.595   6.644
 3630POPC   C3A47885  39.458   6.482   7.051
 3630POPC   C4A47886  39.506   6.825   7.357
 3630POPC   C1B47887  38.971   6.805   6.223
 3630POPC   C2B47888  38.827   6.897   6.674
 3630POPC   C3B47889  39.004   6.720   7.084
 3630POPC   C4B47890  38.983   6.786   7.545
 3631POPC   NC347891  42.109  25.878   5.299
 3631POPC   PO447892  42.724  26.076   5.311
 3631POPC   GL147893  42.509  26.314   5.659
 3631POPC   GL247894  42.319  26.028   5.744
 3631POPC   C1A47895  42.409  26.382   6.125
 3631POPC   D2A47896  42.253  26.421   6.567
 3631POPC   C3A47897  42.472  26.288   6.941
 3631POPC   C4A47898  42.335  26.006   7.245
 3631POPC   C1B47899  42.175  25.910   6.146
 3631POPC   C2B47900  42.151  25.674   6.509
 3631POPC   C3B47901  42.253  25.624   6.916
 3631POPC   C4B47902  41.976  25.646   7.273
 3632POPC   NC347903   8.667  29.453   5.495
 3632POPC   PO447904   8.064  29.235   5.422
 3632POPC   GL147905   8.333  29.140   5.747
 3632POPC   GL247906   8.404  29.427   5.933
 3632POPC   C1A47907   8.483  28.883   6.043
 3632POPC   D2A47908   8.515  28.711   6.462
 3632POPC   C3A47909   8.391  29.030   6.754
 3632POPC   C4A47910   8.324  29.026   7.193
 3632POPC   C1B47911   8.264  29.394   6.361
 3632POPC   C2B47912   7.946  29.422   6.663
 3632POPC   C3B47913   8.124  29.465   7.044
 3632POPC   C4B47914   8.550  29.583   7.132
 3633POPC   NC347915  25.824  32.954   5.377
 3633POPC   PO447916  26.361  33.409   5.435
 3633POPC   GL147917  26.198  33.238   5.825
 3633POPC   GL247918  25.857  33.175   5.837
 3633POPC   C1A47919  26.043  33.340   6.259
 3633POPC   D2A47920  25.852  33.146   6.613
 3633POPC   C3A47921  26.065  33.259   6.981
 3633POPC   C4A47922  26.412  33.274   7.284
 3633POPC   C1B47923  25.941  32.833   6.180
 3633POPC   C2B47924  26.049  32.680   6.621
 3633POPC   C3B47925  25.893  32.732   7.052
 3633POPC   C4B47926  25.625  32.710   7.472
 3634POPC   NC347927  15.870  33.267   5.325
 3634POPC   PO447928  15.826  32.627   5.370
 3634POPC   GL147929  15.941  32.910   5.727
 3634POPC   GL247930  16.061  33.267   5.785
 3634POPC   C1A47931  15.874  32.965   6.164
 3634POPC   D2A47932  15.715  32.933   6.572
 3634POPC   C3A47933  15.963  32.989   6.890
 3634POPC   C4A47934  15.871  32.939   7.274
 3634POPC   C1B47935  16.299  33.288   6.142
 3634POPC   C2B47936  16.450  33.385   6.539
 3634POPC   C3B47937  16.403  33.533   6.940
 3634POPC   C4B47938  16.242  33.275   7.251
 3635POPC   NC347939  31.726  35.954   5.417
 3635POPC   PO447940  31.167  36.217   5.341
 3635POPC   GL147941  31.358  36.128   5.745
 3635POPC   GL247942  31.390  35.765   5.807
 3635POPC   C1A47943  31.608  36.240   6.111
 3635POPC   D2A47944  31.557  36.463   6.489
 3635POPC   C3A47945  31.723  36.368   6.863
 3635POPC   C4A47946  31.369  36.443   7.153
 3635POPC   C1B47947  31.423  35.768   6.276
 3635POPC   C2B47948  31.652  35.880   6.660
 3635POPC   C3B47949  31.535  35.960   7.110
 3635POPC   C4B47950  31.338  35.683   7.443
 3636POPC   NC347951  23.813  20.672   5.323
 3636POPC   PO447952  23.440  21.035   5.682
 3636POPC   GL147953  23.848  20.809   5.819
 3636POPC   GL247954  23.912  20.433   5.790
 3636POPC   C1A47955  24.010  20.720   6.237
 3636POPC   D2A47956  23.857  20.821   6.640
 3636POPC   C3A47957  24.136  20.878   6.954
 3636POPC   C4A47958  23.904  20.742   7.281
 3636POPC   C1B47959  23.975  20.207   6.183
 3636POPC   C2B47960  23.763  20.315   6.547
 3636POPC   C3B47961  23.644  20.389   6.952
 3636POPC   C4B47962  23.999  20.253   7.133
 3637POPC   NC347963  18.607   8.542   5.381
 3637POPC   PO447964  18.322   9.191   5.330
 3637POPC   GL147965  18.191   9.252   5.738
 3637POPC   GL247966  18.268   8.917   5.823
 3637POPC   C1A47967  18.314   9.288   6.182
 3637POPC   D2A47968  18.408   9.290   6.637
 3637POPC   C3A47969  18.217   9.137   7.015
 3637POPC   C4A47970  18.265   9.087   7.460
 3637POPC   C1B47971  18.510   8.830   6.232
 3637POPC   C2B47972  18.346   8.769   6.665
 3637POPC   C3B47973  18.406   8.651   7.104
 3637POPC   C4B47974  18.736   8.583   7.390
 3638POPC   NC347975   3.655  41.366   5.286
 3638POPC   PO447976   3.484  40.771   5.563
 3638POPC   GL147977   3.653  40.732   5.932
 3638POPC   GL247978   3.351  40.596   6.096
 3638POPC   C1A47979   3.625  40.964   6.312
 3638POPC   D2A47980   3.402  40.807   6.652
 3638POPC   C3A47981   3.563  40.967   7.022
 3638POPC   C4A47982   3.313  40.964   7.355
 3638POPC   C1B47983   3.690  40.448   6.377
 3638POPC   C2B47984   3.689  40.394   6.832
 3638POPC   C3B47985   3.579  40.514   7.263
 3638POPC   C4B47986   3.660  40.395   7.687
 3639POPC   NC347987  26.357   6.909   5.497
 3639POPC   PO447988  25.802   6.422   5.435
 3639POPC   GL147989  26.063   6.558   5.785
 3639POPC   GL247990  26.046   6.943   5.872
 3639POPC   C1A47991  25.941   6.599   6.222
 3639POPC   D2A47992  25.620   6.683   6.529
 3639POPC   C3A47993  25.877   6.581   6.857
 3639POPC   C4A47994  26.232   6.315   7.028
 3639POPC   C1B47995  26.274   7.002   6.276
 3639POPC   C2B47996  26.356   6.757   6.675
 3639POPC   C3B47997  26.246   6.835   7.148
 3639POPC   C4B47998  26.287   6.966   7.609
 3640POPC   NC347999  20.288  32.504   5.445
 3640POPC   PO448000  20.766  31.977   5.457
 3640POPC   GL148001  20.693  32.274   5.783
 3640POPC   GL248002  20.965  32.114   5.949
 3640POPC   C1A48003  20.434  32.528   6.117
 3640POPC   D2A48004  20.162  32.447   6.495
 3640POPC   C3A48005  20.384  32.332   6.862
 3640POPC   C4A48006  20.453  32.347   7.297
 3640POPC   C1B48007  20.636  32.057   6.250
 3640POPC   C2B48008  20.596  31.917   6.669
 3640POPC   C3B48009  20.549  31.886   7.091
 3640POPC   C4B48010  20.791  32.005   7.444
 3641POPC   NC348011  30.012  18.886   5.437
 3641POPC   PO448012  30.060  19.571   5.532
 3641POPC   GL148013  29.933  19.240   5.833
 3641POPC   GL248014  29.607  19.145   5.695
 3641POPC   C1A48015  30.112  18.911   6.141
 3641POPC   D2A48016  30.180  18.811   6.612
 3641POPC   C3A48017  30.237  19.229   6.809
 3641POPC   C4A48018  30.025  19.350   7.180
 3641POPC   C1B48019  29.589  18.839   6.050
 3641POPC   C2B48020  29.695  18.888   6.461
 3641POPC   C3B48021  29.735  19.096   6.835
 3641POPC   C4B48022  29.584  19.003   7.223
 3642POPC   NC348023  30.873  41.692   5.102
 3642POPC   PO448024  30.215  41.551   5.205
 3642POPC   GL148025  30.465  41.597   5.615
 3642POPC   GL248026  30.835  41.710   5.618
 3642POPC   C1A48027  30.427  41.588   6.085
 3642POPC   D2A48028  30.634  41.349   6.388
 3642POPC   C3A48029  30.660  41.468   6.808
 3642POPC   C4A48030  30.877  41.334   7.171
 3642POPC   C1B48031  30.942  41.671   6.079
 3642POPC   C2B48032  31.025  41.743   6.543
 3642POPC   C3B48033  30.922  41.850   7.019
 3642POPC   C4B48034  31.098  41.777   7.470
 3643POPC   NC348035  13.362  26.152   5.316
 3643POPC   PO448036  13.977  26.446   5.167
 3643POPC   GL148037  13.768  26.303   5.632
 3643POPC   GL248038  13.394  26.274   5.799
 3643POPC   C1A48039  13.783  26.084   6.087
 3643POPC   D2A48040  13.606  25.840   6.470
 3643POPC   C3A48041  13.671  25.968   6.925
 3643POPC   C4A48042  13.468  25.819   7.352
 3643POPC   C1B48043  13.292  26.231   6.241
 3643POPC   C2B48044  13.246  26.456   6.630
 3643POPC   C3B48045  13.358  26.356   7.051
 3643POPC   C4B48046  13.137  26.196   7.404
 3644POPC   NC348047   6.027  43.201   5.397
 3644POPC   PO448048   5.522  42.685   5.492
 3644POPC   GL148049   5.604  42.897   5.883
 3644POPC   GL248050   5.958  43.048   5.908
 3644POPC   C1A48051   5.515  43.003   6.345
 3644POPC   D2A48052   5.655  43.363   6.638
 3644POPC   C3A48053   5.766  43.213   7.053
 3644POPC   C4A48054   5.679  42.780   7.234
 3644POPC   C1B48055   6.182  43.335   6.235
 3644POPC   C2B48056   6.400  43.316   6.678
 3644POPC   C3B48057   6.262  43.392   7.106
 3644POPC   C4B48058   5.983  43.602   7.378
 3645POPC   NC348059  26.403   2.973   5.514
 3645POPC   PO448060  27.014   2.741   5.410
 3645POPC   GL148061  26.849   2.860   5.827
 3645POPC   GL248062  26.516   2.767   5.980
 3645POPC   C1A48063  26.925   2.841   6.276
 3645POPC   D2A48064  26.875   2.894   6.727
 3645POPC   C3A48065  27.064   2.986   7.147
 3645POPC   C4A48066  27.103   2.554   7.367
 3645POPC   C1B48067  26.464   3.053   6.370
 3645POPC   C2B48068  26.455   3.110   6.854
 3645POPC   C3B48069  26.559   2.823   7.224
 3645POPC   C4B48070  26.823   2.878   7.624
 3646POPC   NC348071  43.028  32.353   5.326
 3646POPC   PO448072  43.508  32.035   5.451
 3646POPC   GL148073  43.295  32.297   5.787
 3646POPC   GL248074  42.912  32.296   5.815
 3646POPC   C1A48075  43.158  32.209   6.238
 3646POPC   D2A48076  43.111  32.476   6.612
 3646POPC   C3A48077  43.062  32.202   6.949
 3646POPC   C4A48078  43.146  32.213   7.354
 3646POPC   C1B48079  42.715  32.510   6.174
 3646POPC   C2B48080  42.655  32.708   6.582
 3646POPC   C3B48081  42.713  32.589   7.029
 3646POPC   C4B48082  42.807  32.582   7.467
 3647POPC   NC348083  30.559  22.874   5.345
 3647POPC   PO448084  30.703  23.487   5.354
 3647POPC   GL148085  30.716  23.231   5.756
 3647POPC   GL248086  30.850  22.860   5.766
 3647POPC   C1A48087  30.547  23.070   6.153
 3647POPC   D2A48088  30.661  22.952   6.571
 3647POPC   C3A48089  30.615  23.132   6.993
 3647POPC   C4A48090  30.688  22.859   7.342
 3647POPC   C1B48091  31.030  22.926   6.177
 3647POPC   C2B48092  31.171  22.836   6.571
 3647POPC   C3B48093  31.097  22.989   6.955
 3647POPC   C4B48094  31.185  22.889   7.338
 3648POPC   NC348095  27.059  10.554   5.331
 3648POPC   PO448096  26.529  10.625   5.403
 3648POPC   GL148097  26.825  10.539   5.785
 3648POPC   GL248098  27.085  10.280   5.773
 3648POPC   C1A48099  27.151  10.632   6.142
 3648POPC   D2A48100  27.264  10.628   6.596
 3648POPC   C3A48101  26.938  10.712   6.949
 3648POPC   C4A48102  26.517  10.594   7.169
 3648POPC   C1B48103  26.957  10.153   6.218
 3648POPC   C2B48104  26.858  10.276   6.660
 3648POPC   C3B48105  26.880  10.229   7.105
 3648POPC   C4B48106  26.646  10.202   7.487
 3649POPC   NC348107  22.351  34.167   5.476
 3649POPC   PO448108  22.772  33.560   5.451
 3649POPC   GL148109  23.036  33.760   5.790
 3649POPC   GL248110  23.205  33.468   5.900
 3649POPC   C1A48111  23.214  33.881   6.202
 3649POPC   D2A48112  23.058  33.812   6.601
 3649POPC   C3A48113  23.238  33.699   6.971
 3649POPC   C4A48114  22.981  33.983   7.170
 3649POPC   C1B48115  22.837  33.527   6.227
 3649POPC   C2B48116  22.595  33.623   6.623
 3649POPC   C3B48117  22.723  33.544   7.061
 3649POPC   C4B48118  22.559  33.374   7.438
 3650POPC   NC348119  38.894  10.286   5.501
 3650POPC   PO448120  38.234  10.578   5.540
 3650POPC   GL148121  38.492  10.533   5.911
 3650POPC   GL248122  38.815  10.743   5.882
 3650POPC   C1A48123  38.351  10.399   6.341
 3650POPC   D2A48124  38.203  10.616   6.733
 3650POPC   C3A48125  38.320  10.401   7.134
 3650POPC   C4A48126  38.728  10.436   7.398
 3650POPC   C1B48127  38.877  10.514   6.268
 3650POPC   C2B48128  38.719  10.413   6.690
 3650POPC   C3B48129  38.674  10.715   6.971
 3650POPC   C4B48130  38.926  10.929   7.244
 3651POPC   NC348131  13.822  34.889   5.552
 3651POPC   PO448132  13.336  34.384   5.355
 3651POPC   GL148133  13.529  34.504   5.758
 3651POPC   GL248134  13.335  34.798   5.806
 3651POPC   C1A48135  13.709  34.287   6.136
 3651POPC   D2A48136  13.487  34.105   6.489
 3651POPC   C3A48137  13.595  34.245   6.905
 3651POPC   C4A48138  13.957  34.406   7.174
 3651POPC   C1B48139  13.508  34.758   6.261
 3651POPC   C2B48140  13.584  34.745   6.748
 3651POPC   C3B48141  13.502  34.650   7.221
 3651POPC   C4B48142  13.291  34.563   7.679
 3652POPC   NC348143  37.444   8.431   5.138
 3652POPC   PO448144  37.910   8.034   5.357
 3652POPC   GL148145  37.787   8.121   5.812
 3652POPC   GL248146  37.466   8.080   5.961
 3652POPC   C1A48147  37.836   8.365   6.206
 3652POPC   D2A48148  37.767   8.239   6.648
 3652POPC   C3A48149  37.510   8.517   6.933
 3652POPC   C4A48150  37.209   8.350   7.270
 3652POPC   C1B48151  37.580   7.824   6.293
 3652POPC   C2B48152  37.456   7.814   6.709
 3652POPC   C3B48153  37.574   8.022   7.077
 3652POPC   C4B48154  37.601   7.908   7.484
 3653POPC   NC348155  24.093  21.757   5.102
 3653POPC   PO448156  23.662  22.155   5.528
 3653POPC   GL148157  23.696  22.052   5.906
 3653POPC   GL248158  24.040  22.030   5.903
 3653POPC   C1A48159  23.701  22.248   6.311
 3653POPC   D2A48160  23.469  22.221   6.720
 3653POPC   C3A48161  23.531  22.288   7.153
 3653POPC   C4A48162  23.525  21.946   7.465
 3653POPC   C1B48163  24.220  22.098   6.298
 3653POPC   C2B48164  24.080  22.302   6.660
 3653POPC   C3B48165  23.995  22.100   7.054
 3653POPC   C4B48166  23.993  22.106   7.505
 3654POPC   NC348167  30.928  15.655   5.458
 3654POPC   PO448168  30.542  16.215   5.416
 3654POPC   GL148169  30.594  15.917   5.754
 3654POPC   GL248170  30.931  15.951   5.902
 3654POPC   C1A48171  30.456  15.698   6.112
 3654POPC   D2A48172  30.387  15.971   6.495
 3654POPC   C3A48173  30.667  15.981   6.780
 3654POPC   C4A48174  30.541  15.788   7.152
 3654POPC   C1B48175  30.888  15.807   6.332
 3654POPC   C2B48176  31.102  15.677   6.681
 3654POPC   C3B48177  31.041  15.787   7.083
 3654POPC   C4B48178  30.877  16.181   7.199
 3655POPC   NC348179  13.722  35.883   5.588
 3655POPC   PO448180  13.518  35.289   5.476
 3655POPC   GL148181  13.592  35.228   5.896
 3655POPC   GL248182  13.602  35.560   5.978
 3655POPC   C1A48183  13.305  35.249   6.276
 3655POPC   D2A48184  13.274  35.603   6.584
 3655POPC   C3A48185  13.505  35.584   6.944
 3655POPC   C4A48186  13.576  35.149   7.089
 3655POPC   C1B48187  13.793  35.350   6.351
 3655POPC   C2B48188  13.938  35.325   6.767
 3655POPC   C3B48189  13.966  35.476   7.195
 3655POPC   C4B48190  13.954  35.442   7.633
 3656POPC   NC348191  33.932   1.396   5.343
 3656POPC   PO448192  33.380   1.095   5.206
 3656POPC   GL148193  33.627   1.221   5.694
 3656POPC   GL248194  34.002   1.216   5.798
 3656POPC   C1A48195  33.681   1.127   6.191
 3656POPC   D2A48196  33.470   1.203   6.590
 3656POPC   C3A48197  33.617   1.128   7.005
 3656POPC   C4A48198  33.499   1.230   7.426
 3656POPC   C1B48199  34.111   1.407   6.165
 3656POPC   C2B48200  33.972   1.334   6.569
 3656POPC   C3B48201  33.796   1.575   6.872
 3656POPC   C4B48202  34.003   1.387   7.262
 3657POPC   NC348203  22.826  35.447   5.159
 3657POPC   PO448204  23.208  35.477   5.675
 3657POPC   GL148205  23.059  35.120   5.828
 3657POPC   GL248206  22.760  35.112   5.631
 3657POPC   C1A48207  23.064  35.145   6.263
 3657POPC   D2A48208  23.120  35.315   6.644
 3657POPC   C3A48209  22.837  35.520   6.884
 3657POPC   C4A48210  23.101  35.635   7.219
 3657POPC   C1B48211  22.602  35.006   6.063
 3657POPC   C2B48212  22.613  35.149   6.505
 3657POPC   C3B48213  22.812  34.967   6.850
 3657POPC   C4B48214  22.892  35.148   7.253
 3658POPC   NC348215   0.470  10.203   5.432
 3658POPC   PO448216   0.335  10.795   5.175
 3658POPC   GL148217   0.240  10.613   5.646
 3658POPC   GL248218   0.119  10.296   5.842
 3658POPC   C1A48219   0.389  10.720   6.096
 3658POPC   D2A48220   0.642  10.631   6.502
 3658POPC   C3A48221   0.506  10.726   6.929
 3658POPC   C4A48222   0.454  10.744   7.360
 3658POPC   C1B48223   0.391  10.234   6.269
 3658POPC   C2B48224   0.511  10.142   6.744
 3658POPC   C3B48225   0.462  10.250   7.190
 3658POPC   C4B48226   0.319  10.322   7.627
 3659POPC   NC348227  22.326  41.284   5.110
 3659POPC   PO448228  21.791  41.728   5.285
 3659POPC   GL148229  22.022  41.704   5.730
 3659POPC   GL248230  22.401  41.713   5.827
 3659POPC   C1A48231  21.980  41.870   6.146
 3659POPC   D2A48232  21.995  41.892   6.584
 3659POPC   C3A48233  22.194  41.541   6.747
 3659POPC   C4A48234  22.152  41.497   7.184
 3659POPC   C1B48235  22.468  41.515   6.238
 3659POPC   C2B48236  22.709  41.471   6.616
 3659POPC   C3B48237  22.639  41.500   7.054
 3659POPC   C4B48238  22.548  41.599   7.498
 3660POPC   NC348239  32.797  11.956   5.382
 3660POPC   PO448240  32.196  12.212   5.246
 3660POPC   GL148241  32.214  12.059   5.694
 3660POPC   GL248242  31.984  12.330   5.813
 3660POPC   C1A48243  32.200  11.918   6.155
 3660POPC   D2A48244  32.253  12.133   6.585
 3660POPC   C3A48245  32.169  11.953   7.008
 3660POPC   C4A48246  32.358  12.147   7.382
 3660POPC   C1B48247  31.892  12.303   6.235
 3660POPC   C2B48248  31.924  12.539   6.604
 3660POPC   C3B48249  31.990  12.451   7.024
 3660POPC   C4B48250  31.801  12.176   7.304
 3661POPC   NC348251  25.719  24.415   5.535
 3661POPC   PO448252  25.055  24.650   5.382
 3661POPC   GL148253  25.260  24.561   5.752
 3661POPC   GL248254  25.488  24.823   5.733
 3661POPC   C1A48255  25.264  24.385   6.187
 3661POPC   D2A48256  25.482  24.428   6.601
 3661POPC   C3A48257  25.232  24.478   6.969
 3661POPC   C4A48258  25.129  24.350   7.367
 3661POPC   C1B48259  25.673  24.708   6.177
 3661POPC   C2B48260  25.693  24.896   6.615
 3661POPC   C3B48261  25.686  24.757   7.023
 3661POPC   C4B48262  25.486  24.704   7.392
 3662POPC   NC348263  43.524  27.087   5.660
 3662POPC   PO448264  42.920  27.031   5.243
 3662POPC   GL148265  43.062  26.857   5.650
 3662POPC   GL248266  42.994  27.145   5.787
 3662POPC   C1A48267  43.185  26.802   6.152
 3662POPC   D2A48268  43.169  26.944   6.620
 3662POPC   C3A48269  43.217  26.692   7.032
 3662POPC   C4A48270  42.882  26.476   7.331
 3662POPC   C1B48271  42.744  27.323   6.110
 3662POPC   C2B48272  42.645  27.139   6.481
 3662POPC   C3B48273  42.694  27.240   6.927
 3662POPC   C4B48274  42.923  27.054   7.254
 3663POPC   NC348275  42.082  44.375   5.382
 3663POPC   PO448276  42.650  44.795   5.510
 3663POPC   GL148277  42.345  44.634   5.763
 3663POPC   GL248278  42.451  44.289   5.740
 3663POPC   C1A48279  42.164  44.768   6.146
 3663POPC   D2A48280  42.355  44.786   6.560
 3663POPC   C3A48281  42.198  44.878   6.961
 3663POPC   C4A48282  42.357  44.945   7.369
 3663POPC   C1B48283  42.147  44.218   6.055
 3663POPC   C2B48284  42.049  44.382   6.464
 3663POPC   C3B48285  42.251  44.364   6.859
 3663POPC   C4B48286  42.157  44.466   7.285
 3664POPC   NC348287  38.217  15.157   5.588
 3664POPC   PO448288  37.606  15.427   5.216
 3664POPC   GL148289  37.717  15.259   5.626
 3664POPC   GL248290  37.835  15.537   5.802
 3664POPC   C1A48291  37.664  15.143   6.083
 3664POPC   D2A48292  37.444  15.255   6.492
 3664POPC   C3A48293  37.656  15.166   6.913
 3664POPC   C4A48294  37.606  14.908   7.271
 3664POPC   C1B48295  37.506  15.661   6.087
 3664POPC   C2B48296  37.502  15.776   6.535
 3664POPC   C3B48297  37.371  15.586   6.918
 3664POPC   C4B48298  37.567  15.505   7.315
 3665POPC   NC348299  19.109  21.658   5.341
 3665POPC   PO448300  19.399  21.131   5.407
 3665POPC   GL148301  19.206  21.351   5.775
 3665POPC   GL248302  18.926  21.599   5.856
 3665POPC   C1A48303  19.176  21.247   6.218
 3665POPC   D2A48304  18.949  21.308   6.568
 3665POPC   C3A48305  19.057  21.317   6.977
 3665POPC   C4A48306  19.170  20.963   7.219
 3665POPC   C1B48307  19.037  21.736   6.319
 3665POPC   C2B48308  18.999  21.830   6.789
 3665POPC   C3B48309  18.738  21.669   7.157
 3665POPC   C4B48310  18.735  21.712   7.593
 3666POPC   NC348311  41.379  44.604   5.388
 3666POPC   PO448312  41.931  44.816   5.430
 3666POPC   GL148313  41.796  44.556   5.802
 3666POPC   GL248314  41.437  44.438   5.847
 3666POPC   C1A48315  41.651  44.674   6.240
 3666POPC   D2A48316  41.438  44.775   6.643
 3666POPC   C3A48317  41.719  44.614   6.991
 3666POPC   C4A48318  41.865  44.877   7.346
 3666POPC   C1B48319  41.150  44.582   6.136
 3666POPC   C2B48320  41.038  44.452   6.524
 3666POPC   C3B48321  41.204  44.422   6.936
 3666POPC   C4B48322  41.339  44.278   7.330
 3667POPC   NC348323  25.910  37.818   5.259
 3667POPC   PO448324  26.384  37.385   5.411
 3667POPC   GL148325  26.004  37.561   5.693
 3667POPC   GL248326  25.867  37.906   5.778
 3667POPC   C1A48327  25.834  37.508   6.121
 3667POPC   D2A48328  26.148  37.486   6.432
 3667POPC   C3A48329  26.099  37.552   6.880
 3667POPC   C4A48330  26.240  37.665   7.245
 3667POPC   C1B48331  26.052  37.993   6.169
 3667POPC   C2B48332  26.052  37.974   6.612
 3667POPC   C3B48333  25.783  37.971   6.944
 3667POPC   C4B48334  25.796  37.922   7.367
 3668POPC   NC348335  22.328  34.893   5.458
 3668POPC   PO448336  21.936  34.404   5.458
 3668POPC   GL148337  22.025  34.387   5.891
 3668POPC   GL248338  22.299  34.568   5.845
 3668POPC   C1A48339  22.094  34.300   6.351
 3668POPC   D2A48340  22.098  34.291   6.816
 3668POPC   C3A48341  21.830  34.606   7.026
 3668POPC   C4A48342  21.896  35.055   7.171
 3668POPC   C1B48343  22.527  34.482   6.153
 3668POPC   C2B48344  22.537  34.648   6.525
 3668POPC   C3B48345  22.348  34.726   6.902
 3668POPC   C4B48346  22.308  34.446   7.247
 3669POPC   NC348347  30.192  13.237   5.369
 3669POPC   PO448348  30.218  13.836   5.670
 3669POPC   GL148349  29.818  13.705   5.774
 3669POPC   GL248350  29.975  13.373   5.832
 3669POPC   C1A48351  29.686  13.658   6.199
 3669POPC   D2A48352  30.072  13.641   6.492
 3669POPC   C3A48353  29.966  13.707   6.928
 3669POPC   C4A48354  29.565  13.829   7.052
 3669POPC   C1B48355  29.915  13.202   6.262
 3669POPC   C2B48356  30.017  13.184   6.728
 3669POPC   C3B48357  30.176  13.288   7.138
 3669POPC   C4B48358  30.206  13.598   7.474
 3670POPC   NC348359  18.827  13.685   5.571
 3670POPC   PO448360  19.294  13.365   5.419
 3670POPC   GL148361  19.209  13.498   5.866
 3670POPC   GL248362  19.157  13.844   5.969
 3670POPC   C1A48363  19.298  13.427   6.304
 3670POPC   D2A48364  19.459  13.716   6.612
 3670POPC   C3A48365  19.403  13.673   7.049
 3670POPC   C4A48366  19.085  13.387   7.186
 3670POPC   C1B48367  18.957  13.800   6.391
 3670POPC   C2B48368  18.959  13.823   6.849
 3670POPC   C3B48369  18.880  13.867   7.293
 3670POPC   C4B48370  18.741  13.930   7.742
 3671POPC   NC348371  21.227  15.967   5.501
 3671POPC   PO448372  21.921  15.804   5.441
 3671POPC   GL148373  21.731  16.052   5.741
 3671POPC   GL248374  21.535  15.828   5.911
 3671POPC   C1A48375  21.792  16.220   6.132
 3671POPC   D2A48376  21.505  16.111   6.453
 3671POPC   C3A48377  21.541  16.022   6.890
 3671POPC   C4A48378  21.307  16.020   7.260
 3671POPC   C1B48379  21.344  15.615   6.254
 3671POPC   C2B48380  21.166  15.474   6.664
 3671POPC   C3B48381  21.000  15.650   7.052
 3671POPC   C4B48382  20.871  15.788   7.453
 3672POPC   NC348383   3.436  27.187   5.520
 3672POPC   PO448384   3.748  27.800   5.295
 3672POPC   GL148385   3.542  27.658   5.679
 3672POPC   GL248386   3.820  27.452   5.748
 3672POPC   C1A48387   3.395  27.690   6.117
 3672POPC   D2A48388   3.249  27.608   6.542
 3672POPC   C3A48389   3.416  27.856   6.862
 3672POPC   C4A48390   3.344  27.788   7.271
 3672POPC   C1B48391   3.795  27.396   6.192
 3672POPC   C2B48392   3.653  27.304   6.625
 3672POPC   C3B48393   3.655  27.437   7.072
 3672POPC   C4B48394   3.707  27.496   7.527
 3673POPC   NC348395   7.273  15.638   5.466
 3673POPC   PO448396   7.676  15.213   5.337
 3673POPC   GL148397   7.624  15.185   5.766
 3673POPC   GL248398   7.681  15.538   5.782
 3673POPC   C1A48399   7.603  15.031   6.215
 3673POPC   D2A48400   7.586  14.782   6.613
 3673POPC   C3A48401   7.494  15.006   7.012
 3673POPC   C4A48402   7.172  15.266   7.272
 3673POPC   C1B48403   7.382  15.519   6.113
 3673POPC   C2B48404   7.340  15.403   6.539
 3673POPC   C3B48405   7.429  15.526   6.943
 3673POPC   C4B48406   7.802  15.466   7.195
 3674POPC   NC348407  20.928  14.265   5.412
 3674POPC   PO448408  20.543  14.793   5.239
 3674POPC   GL148409  20.652  14.746   5.659
 3674POPC   GL248410  20.362  14.638   5.812
 3674POPC   C1A48411  20.751  14.806   6.104
 3674POPC   D2A48412  20.845  14.547   6.463
 3674POPC   C3A48413  20.694  14.531   6.888
 3674POPC   C4A48414  20.651  14.164   7.177
 3674POPC   C1B48415  20.282  14.598   6.256
 3674POPC   C2B48416  20.287  14.356   6.635
 3674POPC   C3B48417  20.210  14.381   7.090
 3674POPC   C4B48418  20.268  14.644   7.470
 3675POPC   NC348419   6.173   7.456   5.457
 3675POPC   PO448420   6.720   7.057   5.459
 3675POPC   GL148421   6.716   7.296   5.842
 3675POPC   GL248422   6.479   7.548   5.875
 3675POPC   C1A48423   6.639   7.266   6.293
 3675POPC   D2A48424   6.422   7.524   6.590
 3675POPC   C3A48425   6.406   7.266   6.958
 3675POPC   C4A48426   6.787   7.185   7.228
 3675POPC   C1B48427   6.719   7.750   6.216
 3675POPC   C2B48428   6.931   7.627   6.596
 3675POPC   C3B48429   6.743   7.653   6.994
 3675POPC   C4B48430   6.634   8.004   7.236
 3676POPC   NC348431   5.895  21.311   5.445
 3676POPC   PO448432   5.285  21.262   5.572
 3676POPC   GL148433   5.596  21.132   5.837
 3676POPC   GL248434   5.767  21.425   5.941
 3676POPC   C1A48435   5.785  21.012   6.242
 3676POPC   D2A48436   5.916  21.107   6.674
 3676POPC   C3A48437   5.736  21.110   7.086
 3676POPC   C4A48438   5.934  21.224   7.484
 3676POPC   C1B48439   5.922  21.524   6.370
 3676POPC   C2B48440   5.779  21.615   6.806
 3676POPC   C3B48441   5.643  21.595   7.241
 3676POPC   C4B48442   5.611  21.824   7.624
 3677POPC   NC348443   6.854  10.795   5.480
 3677POPC   PO448444   6.298  10.386   5.477
 3677POPC   GL148445   6.472  10.581   5.810
 3677POPC   GL248446   6.430  10.306   6.051
 3677POPC   C1A48447   6.806  10.617   6.130
 3677POPC   D2A48448   6.581  10.559   6.522
 3677POPC   C3A48449   6.761  10.826   6.810
 3677POPC   C4A48450   6.511  10.924   7.135
 3677POPC   C1B48451   6.774  10.113   6.318
 3677POPC   C2B48452   6.795  10.130   6.780
 3677POPC   C3B48453   6.635  10.402   7.073
 3677POPC   C4B48454   6.428  10.505   7.436
 3678POPC   NC348455  35.149  37.354   5.428
 3678POPC   PO448456  35.800  37.293   5.367
 3678POPC   GL148457  35.571  37.551   5.705
 3678POPC   GL248458  35.230  37.768   5.744
 3678POPC   C1A48459  35.516  37.671   6.145
 3678POPC   D2A48460  35.312  37.473   6.479
 3678POPC   C3A48461  35.350  37.758   6.815
 3678POPC   C4A48462  35.503  37.905   7.180
 3678POPC   C1B48463  35.134  38.067   6.115
 3678POPC   C2B48464  35.139  38.182   6.572
 3678POPC   C3B48465  34.910  38.071   6.954
 3678POPC   C4B48466  35.009  37.752   7.229
 3679POPC   NC348467   1.676  27.720   5.494
 3679POPC   PO448468   2.284  27.280   5.388
 3679POPC   GL148469   2.056  27.418   5.722
 3679POPC   GL248470   2.124  27.759   5.815
 3679POPC   C1A48471   2.101  27.367   6.152
 3679POPC   D2A48472   1.819  27.372   6.485
 3679POPC   C3A48473   1.925  27.187   6.864
 3679POPC   C4A48474   2.075  27.292   7.229
 3679POPC   C1B48475   1.786  27.809   6.149
 3679POPC   C2B48476   1.679  27.841   6.602
 3679POPC   C3B48477   2.018  27.725   6.899
 3679POPC   C4B48478   2.047  27.766   7.364
 3680POPC   NC348479  17.115  14.399   5.380
 3680POPC   PO448480  17.830  14.305   5.507
 3680POPC   GL148481  17.530  14.379   5.841
 3680POPC   GL248482  17.659  14.087   6.017
 3680POPC   C1A48483  17.282  14.608   6.162
 3680POPC   D2A48484  17.054  14.469   6.520
 3680POPC   C3A48485  17.297  14.305   6.874
 3680POPC   C4A48486  17.331  14.486   7.284
 3680POPC   C1B48487  17.595  14.282   6.422
 3680POPC   C2B48488  17.734  14.641   6.655
 3680POPC   C3B48489  17.724  14.678   7.050
 3680POPC   C4B48490  17.752  14.247   7.144
 3681POPC   NC348491  14.928  42.441   5.307
 3681POPC   PO448492  14.661  42.320   5.886
 3681POPC   GL148493  15.020  42.558   5.938
 3681POPC   GL248494  15.269  42.445   5.730
 3681POPC   C1A48495  15.154  42.650   6.370
 3681POPC   D2A48496  14.869  42.490   6.669
 3681POPC   C3A48497  15.020  42.424   7.046
 3681POPC   C4A48498  15.202  42.028   7.135
 3681POPC   C1B48499  15.545  42.645   6.018
 3681POPC   C2B48500  15.640  42.501   6.426
 3681POPC   C3B48501  15.407  42.296   6.735
 3681POPC   C4B48502  15.549  42.390   7.148
 3682POPC   NC348503   4.433  43.497   5.477
 3682POPC   PO448504   4.005  43.859   5.182
 3682POPC   GL148505   4.095  43.778   5.667
 3682POPC   GL248506   4.269  44.050   5.887
 3682POPC   C1A48507   4.191  43.595   6.093
 3682POPC   D2A48508   4.117  43.434   6.508
 3682POPC   C3A48509   3.953  43.741   6.826
 3682POPC   C4A48510   4.088  43.606   7.235
 3682POPC   C1B48511   4.572  43.915   6.196
 3682POPC   C2B48512   4.422  43.840   6.613
 3682POPC   C3B48513   4.381  43.996   7.029
 3682POPC   C4B48514   4.597  44.281   7.282
 3683POPC   NC348515   4.931  40.346   5.397
 3683POPC   PO448516   5.210  39.680   5.228
 3683POPC   GL148517   5.193  39.962   5.625
 3683POPC   GL248518   5.343  40.257   5.791
 3683POPC   C1A48519   4.927  40.028   6.017
 3683POPC   D2A48520   4.947  40.169   6.428
 3683POPC   C3A48521   4.847  40.135   6.871
 3683POPC   C4A48522   4.554  39.990   7.146
 3683POPC   C1B48523   5.396  39.939   6.173
 3683POPC   C2B48524   5.309  39.885   6.654
 3683POPC   C3B48525   5.333  39.971   7.108
 3683POPC   C4B48526   5.021  40.127   7.397
 3684POPC   NC348527   6.870  29.884   5.454
 3684POPC   PO448528   7.545  30.058   5.192
 3684POPC   GL148529   7.384  29.901   5.598
 3684POPC   GL248530   7.647  30.061   5.770
 3684POPC   C1A48531   7.346  29.757   6.071
 3684POPC   D2A48532   7.548  29.731   6.497
 3684POPC   C3A48533   7.314  29.717   6.905
 3684POPC   C4A48534   7.266  29.445   7.262
 3684POPC   C1B48535   7.625  30.166   6.219
 3684POPC   C2B48536   7.301  30.215   6.526
 3684POPC   C3B48537   7.253  30.241   6.961
 3684POPC   C4B48538   7.559  30.134   7.296
 3685POPC   NC348539  36.058  27.771   5.547
 3685POPC   PO448540  36.581  27.376   5.355
 3685POPC   GL148541  36.449  27.514   5.819
 3685POPC   GL248542  36.100  27.369   5.862
 3685POPC   C1A48543  36.270  27.635   6.252
 3685POPC   D2A48544  36.079  27.378   6.590
 3685POPC   C3A48545  36.243  27.470   6.979
 3685POPC   C4A48546  36.318  27.811   7.261
 3685POPC   C1B48547  35.792  27.526   6.187
 3685POPC   C2B48548  35.662  27.727   6.585
 3685POPC   C3B48549  35.811  27.744   7.027
 3685POPC   C4B48550  35.903  27.409   7.353
 3686POPC   NC348551  40.446  26.107   5.172
 3686POPC   PO448552  39.979  25.783   5.494
 3686POPC   GL148553  39.806  25.876   5.889
 3686POPC   GL248554  40.018  26.128   5.958
 3686POPC   C1A48555  39.705  25.975   6.356
 3686POPC   D2A48556  39.730  26.303   6.701
 3686POPC   C3A48557  39.746  26.166   7.139
 3686POPC   C4A48558  39.748  26.208   7.610
 3686POPC   C1B48559  40.228  25.900   6.242
 3686POPC   C2B48560  40.227  26.084   6.583
 3686POPC   C3B48561  40.115  25.915   6.915
 3686POPC   C4B48562  40.234  26.047   7.291
 3687POPC   NC348563  28.672  23.903   5.386
 3687POPC   PO448564  28.133  23.584   5.380
 3687POPC   GL148565  28.383  23.490   5.754
 3687POPC   GL248566  28.735  23.625   5.833
 3687POPC   C1A48567  28.399  23.472   6.196
 3687POPC   D2A48568  28.354  23.742   6.529
 3687POPC   C3A48569  28.404  23.543   6.901
 3687POPC   C4A48570  28.091  23.540   7.184
 3687POPC   C1B48571  28.623  23.957   6.123
 3687POPC   C2B48572  28.797  24.102   6.504
 3687POPC   C3B48573  28.652  23.992   6.905
 3687POPC   C4B48574  28.399  23.921   7.250
 3688POPC   NC348575  13.655  23.100   5.296
 3688POPC   PO448576  13.526  22.405   5.284
 3688POPC   GL148577  13.494  22.743   5.661
 3688POPC   GL248578  13.618  23.128   5.786
 3688POPC   C1A48579  13.427  22.777   6.114
 3688POPC   D2A48580  13.699  22.832   6.460
 3688POPC   C3A48581  13.515  22.809   6.864
 3688POPC   C4A48582  13.780  22.767   7.242
 3688POPC   C1B48583  13.370  23.293   6.121
 3688POPC   C2B48584  13.313  23.196   6.545
 3688POPC   C3B48585  13.474  23.310   6.943
 3688POPC   C4B48586  13.363  23.075   7.286
 3689POPC   NC348587  15.395  36.311   5.620
 3689POPC   PO448588  14.825  36.021   5.397
 3689POPC   GL148589  14.979  35.873   5.774
 3689POPC   GL248590  15.335  35.805   5.701
 3689POPC   C1A48591  15.029  36.112   6.149
 3689POPC   D2A48592  15.164  36.141   6.553
 3689POPC   C3A48593  14.949  36.314   6.901
 3689POPC   C4A48594  15.098  36.176   7.281
 3689POPC   C1B48595  15.491  35.877   6.118
 3689POPC   C2B48596  15.557  35.797   6.542
 3689POPC   C3B48597  15.467  36.004   6.944
 3689POPC   C4B48598  15.588  35.911   7.350
 3690POPC   NC348599  30.315  24.513   5.530
 3690POPC   PO448600  29.749  24.737   5.434
 3690POPC   GL148601  29.877  24.722   5.841
 3690POPC   GL248602  29.781  24.378   5.870
 3690POPC   C1A48603  29.969  24.657   6.280
 3690POPC   D2A48604  30.122  24.844   6.650
 3690POPC   C3A48605  30.135  24.567   6.954
 3690POPC   C4A48606  30.300  24.256   7.213
 3690POPC   C1B48607  29.479  24.252   6.202
 3690POPC   C2B48608  29.547  24.006   6.548
 3690POPC   C3B48609  29.858  24.137   6.829
 3690POPC   C4B48610  29.757  24.302   7.203
 3691POPC   NC348611  16.116  43.371   5.440
 3691POPC   PO448612  15.720  42.867   5.353
 3691POPC   GL148613  15.769  43.071   5.756
 3691POPC   GL248614  16.113  43.059   5.821
 3691POPC   C1A48615  15.762  43.367   6.120
 3691POPC   D2A48616  15.586  43.534   6.518
 3691POPC   C3A48617  15.571  43.316   6.903
 3691POPC   C4A48618  15.887  43.324   7.202
 3691POPC   C1B48619  16.251  43.262   6.177
 3691POPC   C2B48620  16.066  43.286   6.580
 3691POPC   C3B48621  16.329  43.287   6.949
 3691POPC   C4B48622  16.256  43.014   7.301
 3692POPC   NC348623  32.729  19.528   5.498
 3692POPC   PO448624  32.044  19.749   5.361
 3692POPC   GL148625  32.177  19.685   5.763
 3692POPC   GL248626  32.469  19.831   5.810
 3692POPC   C1A48627  31.978  19.672   6.165
 3692POPC   D2A48628  32.137  19.849   6.538
 3692POPC   C3A48629  31.935  19.759   6.909
 3692POPC   C4A48630  32.072  19.951   7.263
 3692POPC   C1B48631  32.484  19.627   6.193
 3692POPC   C2B48632  32.592  19.550   6.608
 3692POPC   C3B48633  32.463  19.725   6.976
 3692POPC   C4B48634  32.411  19.606   7.405
 3693POPC   NC348635   1.585  33.627   5.429
 3693POPC   PO448636   1.185  34.206   5.417
 3693POPC   GL148637   1.249  33.880   5.750
 3693POPC   GL248638   0.934  33.659   5.868
 3693POPC   C1A48639   1.320  33.764   6.183
 3693POPC   D2A48640   1.068  33.829   6.555
 3693POPC   C3A48641   1.324  33.852   6.937
 3693POPC   C4A48642   1.483  33.515   7.211
 3693POPC   C1B48643   1.005  33.340   6.196
 3693POPC   C2B48644   0.854  33.335   6.616
 3693POPC   C3B48645   0.904  33.578   6.978
 3693POPC   C4B48646   0.991  33.398   7.353
 3694POPC   NC348647  22.457  30.674   5.359
 3694POPC   PO448648  21.856  30.749   5.524
 3694POPC   GL148649  21.984  30.873   5.877
 3694POPC   GL248650  22.312  30.952   5.785
 3694POPC   C1A48651  21.860  30.909   6.277
 3694POPC   D2A48652  22.176  30.748   6.509
 3694POPC   C3A48653  22.075  30.730   6.905
 3694POPC   C4A48654  21.916  30.591   7.246
 3694POPC   C1B48655  22.402  30.581   6.058
 3694POPC   C2B48656  22.579  30.441   6.480
 3694POPC   C3B48657  22.426  30.365   6.906
 3694POPC   C4B48658  22.418  30.533   7.350
 3695POPC   NC348659  14.661  17.681   5.214
 3695POPC   PO448660  14.155  17.319   5.416
 3695POPC   GL148661  14.037  17.440   5.845
 3695POPC   GL248662  14.021  17.805   5.949
 3695POPC   C1A48663  14.082  17.202   6.242
 3695POPC   D2A48664  14.247  17.255   6.659
 3695POPC   C3A48665  14.134  17.178   7.092
 3695POPC   C4A48666  14.420  17.301   7.415
 3695POPC   C1B48667  14.334  17.708   6.286
 3695POPC   C2B48668  14.326  17.765   6.758
 3695POPC   C3B48669  14.595  17.719   7.131
 3695POPC   C4B48670  14.591  17.850   7.564
 3696POPC   NC348671  23.157  41.806   5.305
 3696POPC   PO448672  22.607  41.445   5.430
 3696POPC   GL148673  22.901  41.551   5.721
 3696POPC   GL248674  23.113  41.219   5.702
 3696POPC   C1A48675  22.920  41.757   6.159
 3696POPC   D2A48676  23.199  41.612   6.498
 3696POPC   C3A48677  23.063  41.735   6.903
 3696POPC   C4A48678  23.034  41.626   7.338
 3696POPC   C1B48679  22.944  41.264   6.138
 3696POPC   C2B48680  23.056  41.103   6.526
 3696POPC   C3B48681  23.080  41.209   6.923
 3696POPC   C4B48682  23.003  41.114   7.326
 3697POPC   NC348683   9.002  43.638   5.296
 3697POPC   PO448684   8.791  44.246   5.355
 3697POPC   GL148685   8.818  44.068   5.801
 3697POPC   GL248686   8.498  43.875   5.884
 3697POPC   C1A48687   9.126  44.028   6.170
 3697POPC   D2A48688   9.354  44.110   6.578
 3697POPC   C3A48689   9.261  44.023   7.024
 3697POPC   C4A48690   9.120  43.673   7.271
 3697POPC   C1B48691   8.635  43.856   6.305
 3697POPC   C2B48692   8.903  43.844   6.656
 3697POPC   C3B48693   8.761  43.952   7.040
 3697POPC   C4B48694   8.576  43.838   7.419
 3698POPC   NC348695  10.448  24.912   5.056
 3698POPC   PO448696  10.525  24.381   5.449
 3698POPC   GL148697  10.607  24.239   5.855
 3698POPC   GL248698  10.277  24.144   5.916
 3698POPC   C1A48699  10.776  24.389   6.237
 3698POPC   D2A48700  10.650  24.717   6.526
 3698POPC   C3A48701  10.460  24.636   6.914
 3698POPC   C4A48702  10.744  24.715   7.233
 3698POPC   C1B48703  10.285  24.305   6.377
 3698POPC   C2B48704  10.473  24.143   6.783
 3698POPC   C3B48705  10.546  24.225   7.262
 3698POPC   C4B48706  10.349  24.247   7.696
 3699POPC   NC348707  34.302  19.233   5.401
 3699POPC   PO448708  33.772  18.814   5.316
 3699POPC   GL148709  33.858  19.007   5.722
 3699POPC   GL248710  33.981  19.334   5.776
 3699POPC   C1A48711  33.710  19.098   6.156
 3699POPC   D2A48712  33.828  19.195   6.577
 3699POPC   C3A48713  33.508  19.274   6.896
 3699POPC   C4A48714  33.572  19.011   7.266
 3699POPC   C1B48715  34.217  19.205   6.139
 3699POPC   C2B48716  34.306  19.375   6.548
 3699POPC   C3B48717  34.185  19.219   6.965
 3699POPC   C4B48718  33.875  19.419   7.218
 3700POPC   NC348719   5.768  40.874   5.252
 3700POPC   PO448720   6.321  40.730   5.536
 3700POPC   GL148721   5.879  40.790   5.734
 3700POPC   GL248722   5.713  41.133   5.717
 3700POPC   C1A48723   5.664  40.696   6.108
 3700POPC   D2A48724   5.903  40.554   6.479
 3700POPC   C3A48725   5.865  40.715   6.885
 3700POPC   C4A48726   5.873  40.590   7.299
 3700POPC   C1B48727   5.912  41.130   6.124
 3700POPC   C2B48728   6.054  41.054   6.536
 3700POPC   C3B48729   5.921  41.239   6.879
 3700POPC   C4B48730   5.870  41.086   7.282
 3701POPC   NC348731  26.141  23.961   5.669
 3701POPC   PO448732  25.526  23.718   5.343
 3701POPC   GL148733  25.761  23.535   5.792
 3701POPC   GL248734  26.118  23.566   5.972
 3701POPC   C1A48735  25.785  23.637   6.312
 3701POPC   D2A48736  26.115  23.622   6.638
 3701POPC   C3A48737  25.893  23.625   6.996
 3701POPC   C4A48738  25.728  23.670   7.375
 3701POPC   C1B48739  26.162  23.993   6.293
 3701POPC   C2B48740  26.341  24.101   6.703
 3701POPC   C3B48741  26.205  23.992   7.129
 3701POPC   C4B48742  26.451  23.968   7.482
 3702POPC   NC348743  27.557  16.089   5.356
 3702POPC   PO448744  27.257  15.428   5.320
 3702POPC   GL148745  27.451  15.638   5.689
 3702POPC   GL248746  27.133  15.562   5.846
 3702POPC   C1A48747  27.680  15.941   5.991
 3702POPC   D2A48748  27.554  16.196   6.355
 3702POPC   C3A48749  27.714  16.095   6.763
 3702POPC   C4A48750  27.484  16.160   7.145
 3702POPC   C1B48751  27.305  15.719   6.222
 3702POPC   C2B48752  27.508  15.648   6.602
 3702POPC   C3B48753  27.620  15.659   7.016
 3702POPC   C4B48754  27.307  15.710   7.310
 3703POPC   NC348755  24.534  17.854   5.253
 3703POPC   PO448756  24.289  17.321   5.474
 3703POPC   GL148757  24.534  17.597   5.729
 3703POPC   GL248758  24.265  17.818   5.762
 3703POPC   C1A48759  24.677  17.581   6.176
 3703POPC   D2A48760  24.771  17.324   6.612
 3703POPC   C3A48761  24.802  17.556   7.036
 3703POPC   C4A48762  24.568  17.484   7.430
 3703POPC   C1B48763  24.154  17.511   6.098
 3703POPC   C2B48764  24.287  17.558   6.515
 3703POPC   C3B48765  24.304  17.777   6.895
 3703POPC   C4B48766  24.157  17.789   7.308
 3704POPC   NC348767  21.916  35.770   5.418
 3704POPC   PO448768  22.405  35.306   5.300
 3704POPC   GL148769  22.262  35.279   5.773
 3704POPC   GL248770  22.000  34.994   5.838
 3704POPC   C1A48771  22.277  35.425   6.224
 3704POPC   D2A48772  22.351  35.629   6.656
 3704POPC   C3A48773  22.016  35.558   6.970
 3704POPC   C4A48774  22.118  35.475   7.423
 3704POPC   C1B48775  22.143  34.886   6.265
 3704POPC   C2B48776  22.124  35.136   6.660
 3704POPC   C3B48777  22.400  35.235   7.001
 3704POPC   C4B48778  22.377  34.987   7.338
 3705POPC   NC348779  19.389  12.941   5.208
 3705POPC   PO448780  20.003  13.041   5.503
 3705POPC   GL148781  19.769  12.841   5.795
 3705POPC   GL248782  19.988  12.577   5.760
 3705POPC   C1A48783  19.722  12.636   6.204
 3705POPC   D2A48784  19.890  12.780   6.581
 3705POPC   C3A48785  19.719  12.740   6.969
 3705POPC   C4A48786  19.799  12.877   7.372
 3705POPC   C1B48787  20.212  12.696   6.139
 3705POPC   C2B48788  20.391  12.754   6.526
 3705POPC   C3B48789  20.279  12.541   6.872
 3705POPC   C4B48790  20.173  12.532   7.255
 3706POPC   NC348791  24.379  20.128   5.627
 3706POPC   PO448792  24.420  19.551   5.281
 3706POPC   GL148793  24.399  19.550   5.747
 3706POPC   GL248794  24.700  19.706   5.823
 3706POPC   C1A48795  24.350  19.751   6.188
 3706POPC   D2A48796  24.179  19.872   6.588
 3706POPC   C3A48797  24.344  19.635   6.945
 3706POPC   C4A48798  24.294  19.890   7.294
 3706POPC   C1B48799  24.893  19.775   6.208
 3706POPC   C2B48800  24.701  19.786   6.588
 3706POPC   C3B48801  24.626  20.061   6.904
 3706POPC   C4B48802  24.802  19.847   7.234
 3707POPC   NC348803  17.993  33.921   5.491
 3707POPC   PO448804  18.539  33.375   5.425
 3707POPC   GL148805  18.317  33.572   5.796
 3707POPC   GL248806  18.404  33.921   5.822
 3707POPC   C1A48807  18.393  33.692   6.251
 3707POPC   D2A48808  18.547  33.939   6.582
 3707POPC   C3A48809  18.539  33.698   6.933
 3707POPC   C4A48810  18.196  33.482   7.153
 3707POPC   C1B48811  18.016  34.059   6.144
 3707POPC   C2B48812  17.824  34.099   6.571
 3707POPC   C3B48813  18.091  33.928   6.891
 3707POPC   C4B48814  18.285  33.949   7.326
 3708POPC   NC348815   1.810  30.291   5.510
 3708POPC   PO448816   2.414  29.902   5.421
 3708POPC   GL148817   2.080  29.851   5.746
 3708POPC   GL248818   2.328  29.648   5.899
 3708POPC   C1A48819   1.810  29.880   6.158
 3708POPC   D2A48820   1.895  30.039   6.617
 3708POPC   C3A48821   1.760  29.884   7.046
 3708POPC   C4A48822   1.833  29.944   7.509
 3708POPC   C1B48823   2.256  29.690   6.309
 3708POPC   C2B48824   2.342  29.497   6.677
 3708POPC   C3B48825   2.261  29.788   7.031
 3708POPC   C4B48826   2.367  29.827   7.458
 3709POPC   NC348827  12.865  11.514   5.359
 3709POPC   PO448828  13.211  10.954   5.550
 3709POPC   GL148829  12.960  10.990   5.918
 3709POPC   GL248830  13.068  11.059   6.263
 3709POPC   C1A48831  12.704  11.342   6.067
 3709POPC   D2A48832  12.599  11.524   6.468
 3709POPC   C3A48833  12.863  11.379   6.789
 3709POPC   C4A48834  12.738  11.469   7.221
 3709POPC   C1B48835  13.121  11.510   6.331
 3709POPC   C2B48836  13.246  11.753   6.691
 3709POPC   C3B48837  13.221  11.560   7.111
 3709POPC   C4B48838  13.174  11.242   7.466
 3710POPC   NC348839  19.528   1.710   5.379
 3710POPC   PO448840  19.859   2.285   5.322
 3710POPC   GL148841  19.973   1.959   5.642
 3710POPC   GL248842  19.677   1.926   5.831
 3710POPC   C1A48843  20.095   1.790   6.092
 3710POPC   D2A48844  19.941   1.672   6.519
 3710POPC   C3A48845  20.066   1.825   6.911
 3710POPC   C4A48846  19.803   2.073   7.169
 3710POPC   C1B48847  19.572   1.647   6.171
 3710POPC   C2B48848  19.439   1.812   6.588
 3710POPC   C3B48849  19.458   1.702   7.028
 3710POPC   C4B48850  19.825   1.583   7.286
 3711POPC   NC348851  24.905   7.279   5.201
 3711POPC   PO448852  24.241   7.423   5.320
 3711POPC   GL148853  24.473   7.296   5.718
 3711POPC   GL248854  24.602   7.581   5.908
 3711POPC   C1A48855  24.375   7.092   6.114
 3711POPC   D2A48856  24.518   7.153   6.542
 3711POPC   C3A48857  24.269   7.147   6.928
 3711POPC   C4A48858  24.610   7.209   7.180
 3711POPC   C1B48859  24.572   7.639   6.372
 3711POPC   C2B48860  24.548   7.579   6.833
 3711POPC   C3B48861  24.566   7.813   7.225
 3711POPC   C4B48862  24.389   7.970   7.613
 3712POPC   NC348863  36.292  11.601   5.445
 3712POPC   PO448864  35.839  12.160   5.424
 3712POPC   GL148865  35.991  12.173   5.820
 3712POPC   GL248866  36.314  12.059   5.764
 3712POPC   C1A48867  36.006  12.018   6.229
 3712POPC   D2A48868  36.180  12.226   6.573
 3712POPC   C3A48869  35.967  12.214   6.955
 3712POPC   C4A48870  36.174  12.262   7.290
 3712POPC   C1B48871  36.528  12.222   6.144
 3712POPC   C2B48872  36.667  12.072   6.570
 3712POPC   C3B48873  36.483  11.969   6.964
 3712POPC   C4B48874  36.523  11.905   7.411
 3713POPC   NC348875  42.011   9.998   5.282
 3713POPC   PO448876  42.507   9.587   5.093
 3713POPC   GL148877  42.394   9.715   5.550
 3713POPC   GL248878  42.082   9.597   5.702
 3713POPC   C1A48879  42.459   9.795   6.030
 3713POPC   D2A48880  42.558   9.632   6.475
 3713POPC   C3A48881  42.392   9.782   6.896
 3713POPC   C4A48882  42.111   9.993   7.221
 3713POPC   C1B48883  41.953   9.701   6.158
 3713POPC   C2B48884  41.736   9.597   6.563
 3713POPC   C3B48885  41.918   9.545   6.990
 3713POPC   C4B48886  41.876   9.575   7.449
 3714POPC   NC348887   9.380   8.400   5.090
 3714POPC   PO448888   9.682   7.952   5.509
 3714POPC   GL148889   9.793   8.095   5.898
 3714POPC   GL248890   9.981   8.410   5.798
 3714POPC   C1A48891   9.600   8.025   6.314
 3714POPC   D2A48892   9.462   7.753   6.661
 3714POPC   C3A48893   9.527   7.960   7.064
 3714POPC   C4A48894   9.718   7.822   7.468
 3714POPC   C1B48895  10.038   8.351   6.257
 3714POPC   C2B48896   9.938   8.479   6.640
 3714POPC   C3B48897   9.864   8.695   6.976
 3714POPC   C4B48898   9.678   8.478   7.319
 3715POPC   NC348899  37.829   9.228   5.461
 3715POPC   PO448900  37.716   8.522   5.516
 3715POPC   GL148901  37.832   8.816   5.769
 3715POPC   GL248902  37.516   8.964   5.750
 3715POPC   C1A48903  37.860   8.960   6.200
 3715POPC   D2A48904  37.872   8.738   6.588
 3715POPC   C3A48905  37.792   8.977   6.931
 3715POPC   C4A48906  37.791   8.895   7.329
 3715POPC   C1B48907  37.352   9.043   6.131
 3715POPC   C2B48908  37.449   9.066   6.549
 3715POPC   C3B48909  37.271   9.112   6.918
 3715POPC   C4B48910  37.244   8.849   7.233
 3716POPC   NC348911  30.923   4.012   5.421
 3716POPC   PO448912  31.538   3.636   5.391
 3716POPC   GL148913  31.372   3.602   5.825
 3716POPC   GL248914  31.645   3.368   5.801
 3716POPC   C1A48915  31.375   3.333   6.234
 3716POPC   D2A48916  31.481   3.245   6.687
 3716POPC   C3A48917  31.422   3.575   7.017
 3716POPC   C4A48918  31.304   3.861   7.345
 3716POPC   C1B48919  31.766   3.690   6.125
 3716POPC   C2B48920  31.615   3.727   6.540
 3716POPC   C3B48921  31.901   3.658   6.885
 3716POPC   C4B48922  31.909   3.893   7.243
 3717POPC   NC348923  13.992  12.502   5.159
 3717POPC   PO448924  13.513  12.171   5.475
 3717POPC   GL148925  13.628  12.156   5.888
 3717POPC   GL248926  13.940  12.288   5.726
 3717POPC   C1A48927  13.547  12.176   6.351
 3717POPC   D2A48928  13.643  12.102   6.800
 3717POPC   C3A48929  13.299  12.068   7.127
 3717POPC   C4A48930  13.424  12.076   7.600
 3717POPC   C1B48931  14.038  12.307   6.157
 3717POPC   C2B48932  14.149  12.209   6.589
 3717POPC   C3B48933  14.115  12.327   7.022
 3717POPC   C4B48934  13.791  12.236   7.282
 3718POPC   NC348935  34.878  12.192   5.392
 3718POPC   PO448936  34.246  11.975   5.383
 3718POPC   GL148937  34.481  12.041   5.757
 3718POPC   GL248938  34.764  11.815   5.760
 3718POPC   C1A48939  34.406  12.138   6.200
 3718POPC   D2A48940  34.349  12.338   6.612
 3718POPC   C3A48941  34.737  12.362   6.804
 3718POPC   C4A48942  34.957  12.222   7.158
 3718POPC   C1B48943  34.751  11.716   6.200
 3718POPC   C2B48944  34.579  11.861   6.607
 3718POPC   C3B48945  34.595  11.884   7.041
 3718POPC   C4B48946  34.949  11.704   7.255
 3719POPC   NC348947  40.842   8.623   5.270
 3719POPC   PO448948  40.746   9.319   5.246
 3719POPC   GL148949  40.793   9.122   5.675
 3719POPC   GL248950  40.850   8.747   5.802
 3719POPC   C1A48951  40.954   9.187   6.106
 3719POPC   D2A48952  41.185   9.264   6.499
 3719POPC   C3A48953  40.903   9.332   6.852
 3719POPC   C4A48954  40.807   9.039   7.165
 3719POPC   C1B48955  40.537   8.594   6.146
 3719POPC   C2B48956  40.339   8.713   6.579
 3719POPC   C3B48957  40.463   8.665   7.040
 3719POPC   C4B48958  40.837   8.553   7.319
 3720POPC   NC348959  20.111   6.710   5.484
 3720POPC   PO448960  19.839   6.193   5.133
 3720POPC   GL148961  19.815   6.301   5.640
 3720POPC   GL248962  19.714   6.644   5.780
 3720POPC   C1A48963  19.731   6.280   6.131
 3720POPC   D2A48964  19.634   6.110   6.575
 3720POPC   C3A48965  19.755   6.375   6.954
 3720POPC   C4A48966  19.694   6.666   7.340
 3720POPC   C1B48967  19.966   6.768   6.160
 3720POPC   C2B48968  20.065   6.890   6.617
 3720POPC   C3B48969  20.085   6.850   7.075
 3720POPC   C4B48970  20.193   6.681   7.511
 3721POPC   NC348971  16.644  12.778   5.179
 3721POPC   PO448972  16.545  13.105   5.675
 3721POPC   GL148973  16.739  12.709   5.783
 3721POPC   GL248974  17.033  12.596   5.944
 3721POPC   C1A48975  16.590  12.596   6.203
 3721POPC   D2A48976  16.542  12.925   6.556
 3721POPC   C3A48977  16.538  12.740   6.956
 3721POPC   C4A48978  16.322  12.905   7.291
 3721POPC   C1B48979  16.966  12.962   6.244
 3721POPC   C2B48980  17.027  12.901   6.712
 3721POPC   C3B48981  17.020  12.754   7.154
 3721POPC   C4B48982  17.181  12.604   7.570
 3722POPC   NC348983   5.706  42.378   5.800
 3722POPC   PO448984   6.113  42.755   5.499
 3722POPC   GL148985   6.210  42.449   5.850
 3722POPC   GL248986   6.091  42.064   5.824
 3722POPC   C1A48987   6.092  42.303   6.300
 3722POPC   D2A48988   5.651  42.185   6.454
 3722POPC   C3A48989   5.621  42.314   6.881
 3722POPC   C4A48990   5.791  42.239   7.269
 3722POPC   C1B48991   6.264  41.856   6.154
 3722POPC   C2B48992   6.034  41.830   6.550
 3722POPC   C3B48993   6.048  41.855   7.002
 3722POPC   C4B48994   6.010  41.773   7.442
 3723POPC   NC348995  22.519  33.258   5.205
 3723POPC   PO448996  22.145  32.747   5.272
 3723POPC   GL148997  22.119  32.983   5.682
 3723POPC   GL248998  22.345  32.811   5.937
 3723POPC   C1A48999  21.907  33.163   6.072
 3723POPC   D2A49000  21.964  33.353   6.497
 3723POPC   C3A49001  21.912  33.146   6.909
 3723POPC   C4A49002  21.706  32.756   7.072
 3723POPC   C1B49003  22.416  33.066   6.331
 3723POPC   C2B49004  22.442  33.174   6.762
 3723POPC   C3B49005  22.400  33.001   7.130
 3723POPC   C4B49006  22.184  32.618   7.237
 3724POPC   NC349007  36.348  23.708   5.060
 3724POPC   PO449008  36.469  23.944   5.669
 3724POPC   GL149009  36.154  23.607   5.780
 3724POPC   GL249010  35.848  23.642   5.595
 3724POPC   C1A49011  36.089  23.431   6.205
 3724POPC   D2A49012  36.408  23.539   6.499
 3724POPC   C3A49013  36.325  23.522   6.901
 3724POPC   C4A49014  36.495  23.722   7.231
 3724POPC   C1B49015  35.845  23.972   5.949
 3724POPC   C2B49016  36.002  23.915   6.362
 3724POPC   C3B49017  35.905  23.770   6.767
 3724POPC   C4B49018  36.020  23.942   7.158
 3725POPC   NC349019  15.271  23.337   5.341
 3725POPC   PO449020  14.965  22.637   5.376
 3725POPC   GL149021  15.126  22.945   5.672
 3725POPC   GL249022  14.873  23.206   5.758
 3725POPC   C1A49023  15.351  23.072   6.053
 3725POPC   D2A49024  15.411  22.911   6.478
 3725POPC   C3A49025  15.135  23.076   6.794
 3725POPC   C4A49026  15.234  22.995   7.213
 3725POPC   C1B49027  14.792  22.846   6.070
 3725POPC   C2B49028  14.839  22.671   6.494
 3725POPC   C3B49029  14.966  22.624   6.912
 3725POPC   C4B49030  14.786  22.769   7.280
 3726POPC   NC349031  38.509  36.891   5.382
 3726POPC   PO449032  38.151  37.378   5.487
 3726POPC   GL149033  38.363  37.264   5.864
 3726POPC   GL249034  38.683  37.130   5.783
 3726POPC   C1A49035  38.467  36.880   6.144
 3726POPC   D2A49036  38.416  36.776   6.571
 3726POPC   C3A49037  38.111  36.765   6.883
 3726POPC   C4A49038  38.480  36.643   7.149
 3726POPC   C1B49039  38.759  37.291   6.206
 3726POPC   C2B49040  38.419  37.277   6.526
 3726POPC   C3B49041  38.475  37.116   6.956
 3726POPC   C4B49042  38.619  37.056   7.392
 3727POPC   NC349043  44.564  10.031   5.499
 3727POPC   PO449044   0.166   9.791   5.490
 3727POPC   GL149045  44.881   9.789   5.815
 3727POPC   GL249046  44.696   9.504   5.672
 3727POPC   C1A49047  44.713  10.060   6.150
 3727POPC   D2A49048  44.406  10.045   6.480
 3727POPC   C3A49049  44.586   9.845   6.830
 3727POPC   C4A49050  44.649   9.809   7.253
 3727POPC   C1B49051  44.443   9.610   6.039
 3727POPC   C2B49052  44.394   9.522   6.469
 3727POPC   C3B49053  44.293   9.426   6.887
 3727POPC   C4B49054  44.357   9.298   7.303
 3728POPC   NC349055  27.729  30.923   5.378
 3728POPC   PO449056  27.167  30.455   5.326
 3728POPC   GL149057  27.425  30.515   5.692
 3728POPC   GL249058  27.563  30.814   5.832
 3728POPC   C1A49059  27.542  30.383   6.132
 3728POPC   D2A49060  27.333  30.427   6.549
 3728POPC   C3A49061  27.571  30.393   6.933
 3728POPC   C4A49062  27.660  30.216   7.328
 3728POPC   C1B49063  27.864  30.876   6.136
 3728POPC   C2B49064  27.895  31.017   6.549
 3728POPC   C3B49065  27.913  30.768   6.882
 3728POPC   C4B49066  27.901  30.662   7.285
 3729POPC   NC349067  23.645  39.166   5.328
 3729POPC   PO449068  24.161  39.507   5.530
 3729POPC   GL149069  23.860  39.257   5.798
 3729POPC   GL249070  23.438  39.271   5.771
 3729POPC   C1A49071  23.977  39.146   6.203
 3729POPC   D2A49072  24.138  39.038   6.568
 3729POPC   C3A49073  24.041  39.331   6.867
 3729POPC   C4A49074  23.843  39.205   7.244
 3729POPC   C1B49075  23.495  39.036   6.148
 3729POPC   C2B49076  23.613  39.082   6.592
 3729POPC   C3B49077  23.406  39.110   6.983
 3729POPC   C4B49078  23.288  39.418   7.290
 3730POPC   NC349079  36.020  20.944   5.473
 3730POPC   PO449080  36.228  20.349   5.318
 3730POPC   GL149081  36.331  20.501   5.730
 3730POPC   GL249082  36.341  20.848   5.842
 3730POPC   C1A49083  36.151  20.461   6.154
 3730POPC   D2A49084  36.180  20.196   6.524
 3730POPC   C3A49085  36.026  20.434   6.855
 3730POPC   C4A49086  36.069  20.843   7.062
 3730POPC   C1B49087  36.419  20.993   6.257
 3730POPC   C2B49088  36.456  20.855   6.696
 3730POPC   C3B49089  36.481  21.108   7.068
 3730POPC   C4B49090  36.483  21.068   7.513
 3731POPC   NC349091  27.068  18.708   5.565
 3731POPC   PO449092  26.765  18.265   5.249
 3731POPC   GL149093  26.646  18.087   5.660
 3731POPC   GL249094  26.384  18.318   5.729
 3731POPC   C1A49095  26.813  18.140   6.086
 3731POPC   D2A49096  26.725  18.027   6.523
 3731POPC   C3A49097  26.898  18.168   6.932
 3731POPC   C4A49098  26.675  18.108   7.357
 3731POPC   C1B49099  26.562  18.581   6.063
 3731POPC   C2B49100  26.748  18.533   6.498
 3731POPC   C3B49101  26.560  18.537   6.899
 3731POPC   C4B49102  26.443  18.569   7.312
 3732POPC   NC349103  33.580  34.568   5.531
 3732POPC   PO449104  34.212  34.536   5.822
 3732POPC   GL149105  33.831  34.484   5.976
 3732POPC   GL249106  33.696  34.831   5.952
 3732POPC   C1A49107  33.898  34.328   6.382
 3732POPC   D2A49108  34.232  34.511   6.576
 3732POPC   C3A49109  34.094  34.389   6.951
 3732POPC   C4A49110  34.005  34.563   7.291
 3732POPC   C1B49111  33.510  34.658   6.322
 3732POPC   C2B49112  33.668  34.642   6.751
 3732POPC   C3B49113  33.488  34.669   7.152
 3732POPC   C4B49114  33.389  34.636   7.595
 3733POPC   NC349115  40.609  14.940   5.406
 3733POPC   PO449116  41.092  15.384   5.462
 3733POPC   GL149117  40.806  15.219   5.808
 3733POPC   GL249118  40.438  15.298   5.770
 3733POPC   C1A49119  40.827  15.076   6.258
 3733POPC   D2A49120  41.069  15.188   6.617
 3733POPC   C3A49121  40.949  15.311   7.022
 3733POPC   C4A49122  40.875  14.985   7.368
 3733POPC   C1B49123  40.505  15.477   6.221
 3733POPC   C2B49124  40.530  15.379   6.686
 3733POPC   C3B49125  40.506  15.059   7.028
 3733POPC   C4B49126  40.400  15.030   7.496
 3734POPC   NC349127  28.223  40.909   5.407
 3734POPC   PO449128  28.611  40.390   5.491
 3734POPC   GL149129  28.465  40.680   5.837
 3734POPC   GL249130  28.169  40.858   5.901
 3734POPC   C1A49131  28.531  40.852   6.271
 3734POPC   D2A49132  28.753  40.767   6.636
 3734POPC   C3A49133  28.523  40.608   6.977
 3734POPC   C4A49134  28.290  40.926   7.151
 3734POPC   C1B49135  28.092  40.564   6.246
 3734POPC   C2B49136  28.117  40.725   6.655
 3734POPC   C3B49137  27.929  40.595   7.037
 3734POPC   C4B49138  28.169  40.504   7.389
 3735POPC   NC349139  33.182   0.750   5.455
 3735POPC   PO449140  33.389   0.098   5.391
 3735POPC   GL149141  33.183   0.325   5.810
 3735POPC   GL249142  33.006   0.618   5.906
 3735POPC   C1A49143  32.946   0.323   6.290
 3735POPC   D2A49144  32.688   0.045   6.547
 3735POPC   C3A49145  32.714   0.106   6.976
 3735POPC   C4A49146  33.104   0.280   7.156
 3735POPC   C1B49147  33.178   0.840   6.305
 3735POPC   C2B49148  33.356   0.695   6.713
 3735POPC   C3B49149  33.350   0.730   7.158
 3735POPC   C4B49150  33.006   0.734   7.443
 3736POPC   NC349151  40.957  11.819   5.333
 3736POPC   PO449152  40.548  12.286   5.439
 3736POPC   GL149153  40.703  11.992   5.744
 3736POPC   GL249154  40.413  11.973   5.960
 3736POPC   C1A49155  40.898  11.896   6.156
 3736POPC   D2A49156  40.966  12.183   6.523
 3736POPC   C3A49157  40.975  12.029   6.941
 3736POPC   C4A49158  40.717  11.807   7.210
 3736POPC   C1B49159  40.667  12.335   6.107
 3736POPC   C2B49160  40.639  12.664   6.379
 3736POPC   C3B49161  40.646  12.555   6.803
 3736POPC   C4B49162  40.851  12.456   7.175
 3737POPC   NC349163  44.748  26.053   5.299
 3737POPC   PO449164  44.145  26.120   5.499
 3737POPC   GL149165  44.508  25.993   5.762
 3737POPC   GL249166  44.787  25.776   5.743
 3737POPC   C1A49167  44.719  26.161   6.136
 3737POPC   D2A49168  44.480  26.405   6.422
 3737POPC   C3A49169  44.492  26.248   6.846
 3737POPC   C4A49170  44.650  26.277   7.254
 3737POPC   C1B49171   0.021  25.747   6.138
 3737POPC   C2B49172   0.149  25.916   6.530
 3737POPC   C3B49173  44.955  25.921   6.920
 3737POPC   C4B49174   0.063  25.582   7.162
 3738POPC   NC349175  27.827  10.178   5.461
 3738POPC   PO449176  27.928   9.589   5.342
 3738POPC   GL149177  27.685   9.664   5.726
 3738POPC   GL249178  27.470   9.946   5.756
 3738POPC   C1A49179  27.790   9.817   6.147
 3738POPC   D2A49180  27.845  10.021   6.506
 3738POPC   C3A49181  27.826   9.806   6.890
 3738POPC   C4A49182  27.770  10.122   7.199
 3738POPC   C1B49183  27.299   9.722   6.153
 3738POPC   C2B49184  27.396   9.629   6.612
 3738POPC   C3B49185  27.332   9.820   7.069
 3738POPC   C4B49186  26.991   9.852   7.422
 3739POPC   NC349187  14.546  11.078   5.489
 3739POPC   PO449188  13.938  11.368   5.732
 3739POPC   GL149189  14.291  11.293   5.920
 3739POPC   GL249190  14.446  10.973   5.973
 3739POPC   C1A49191  14.380  11.316   6.340
 3739POPC   D2A49192  14.500  11.092   6.694
 3739POPC   C3A49193  14.544  11.402   7.017
 3739POPC   C4A49194  14.438  11.413   7.458
 3739POPC   C1B49195  14.052  10.919   6.227
 3739POPC   C2B49196  13.946  10.919   6.677
 3739POPC   C3B49197  14.105  11.136   7.052
 3739POPC   C4B49198  14.155  10.965   7.467
 3740POPC   NC349199  37.511  13.538   5.715
 3740POPC   PO449200  37.443  12.895   5.393
 3740POPC   GL149201  37.505  13.032   5.807
 3740POPC   GL249202  37.812  12.870   5.925
 3740POPC   C1A49203  37.403  12.914   6.240
 3740POPC   D2A49204  37.543  12.610   6.570
 3740POPC   C3A49205  37.343  12.739   6.959
 3740POPC   C4A49206  37.421  12.823   7.402
 3740POPC   C1B49207  37.900  12.935   6.358
 3740POPC   C2B49208  37.660  13.096   6.713
 3740POPC   C3B49209  37.810  12.950   7.096
 3740POPC   C4B49210  37.975  12.753   7.451
 3741POPC   NC349211  38.082  21.291   5.582
 3741POPC   PO449212  38.471  21.804   5.428
 3741POPC   GL149213  38.585  21.599   5.765
 3741POPC   GL249214  38.549  21.263   5.717
 3741POPC   C1A49215  38.338  21.655   6.129
 3741POPC   D2A49216  38.095  21.822   6.456
 3741POPC   C3A49217  38.284  21.861   6.856
 3741POPC   C4A49218  38.277  21.605   7.216
 3741POPC   C1B49219  38.408  21.169   6.150
 3741POPC   C2B49220  38.402  21.368   6.562
 3741POPC   C3B49221  38.525  21.240   6.965
 3741POPC   C4B49222  38.224  20.926   7.116
 3742POPC   NC349223  39.272  36.491   5.673
 3742POPC   PO449224  38.999  35.872   5.409
 3742POPC   GL149225  38.981  36.072   5.781
 3742POPC   GL249226  39.318  36.014   5.867
 3742POPC   C1A49227  38.910  36.228   6.182
 3742POPC   D2A49228  39.054  36.127   6.594
 3742POPC   C3A49229  38.972  36.311   6.961
 3742POPC   C4A49230  38.982  36.054   7.333
 3742POPC   C1B49231  39.428  36.227   6.282
 3742POPC   C2B49232  39.505  36.344   6.751
 3742POPC   C3B49233  39.394  36.352   7.231
 3742POPC   C4B49234  39.384  36.167   7.674
 3743POPC   NC349235  44.194  34.829   5.358
 3743POPC   PO449236  43.754  34.342   5.419
 3743POPC   GL149237  43.891  34.317   5.851
 3743POPC   GL249238  44.207  34.481   5.765
 3743POPC   C1A49239  43.983  34.031   6.210
 3743POPC   D2A49240  44.154  34.081   6.622
 3743POPC   C3A49241  43.919  34.381   6.834
 3743POPC   C4A49242  43.598  34.391   7.159
 3743POPC   C1B49243  44.330  34.422   6.203
 3743POPC   C2B49244  44.412  34.592   6.615
 3743POPC   C3B49245  44.403  34.482   7.033
 3743POPC   C4B49246  44.086  34.628   7.280
 3744POPC   NC349247  44.325   6.129   5.322
 3744POPC   PO449248  44.833   5.655   5.374
 3744POPC   GL149249  44.542   5.783   5.702
 3744POPC   GL249250  44.510   6.124   5.789
 3744POPC   C1A49251  44.372   5.714   6.122
 3744POPC   D2A49252  44.414   5.883   6.532
 3744POPC   C3A49253  44.470   5.613   6.893
 3744POPC   C4A49254  44.413   5.709   7.333
 3744POPC   C1B49255  44.673   6.150   6.185
 3744POPC   C2B49256  44.744   6.309   6.573
 3744POPC   C3B49257  44.672   6.093   6.948
 3744POPC   C4B49258  44.890   6.065   7.317
 3745POPC   NC349259   8.591   9.875   5.164
 3745POPC   PO449260   9.186   9.546   5.375
 3745POPC   GL149261   9.002   9.711   5.752
 3745POPC   GL249262   8.820   9.406   5.772
 3745POPC   C1A49263   9.011   9.942   6.171
 3745POPC   D2A49264   8.848   9.859   6.575
 3745POPC   C3A49265   9.105  10.034   6.882
 3745POPC   C4A49266   9.027   9.864   7.265
 3745POPC   C1B49267   8.765   9.495   6.199
 3745POPC   C2B49268   8.666   9.355   6.587
 3745POPC   C3B49269   8.723   9.534   7.001
 3745POPC   C4B49270   8.839   9.372   7.424
 3746POPC   NC349271   3.843   6.442   5.502
 3746POPC   PO449272   3.167   6.696   5.546
 3746POPC   GL149273   3.482   6.579   5.865
 3746POPC   GL249274   3.778   6.788   5.918
 3746POPC   C1A49275   3.649   6.429   6.277
 3746POPC   D2A49276   3.652   6.203   6.675
 3746POPC   C3A49277   3.530   6.449   7.020
 3746POPC   C4A49278   3.795   6.515   7.357
 3746POPC   C1B49279   3.966   6.872   6.325
 3746POPC   C2B49280   3.784   6.764   6.684
 3746POPC   C3B49281   3.804   6.932   7.065
 3746POPC   C4B49282   3.597   7.002   7.439
 3747POPC   NC349283  44.106  44.431   5.449
 3747POPC   PO449284  43.646  44.864   5.441
 3747POPC   GL149285  43.765  44.625   5.839
 3747POPC   GL249286  43.719  44.292   5.743
 3747POPC   C1A49287  43.967  44.685   6.276
 3747POPC   D2A49288  44.103   0.001   6.569
 3747POPC   C3A49289  44.019  44.872   6.977
 3747POPC   C4A49290  44.125  44.465   7.151
 3747POPC   C1B49291  43.914  44.190   6.140
 3747POPC   C2B49292  43.823  44.288   6.569
 3747POPC   C3B49293  43.677  44.302   6.974
 3747POPC   C4B49294  43.639  44.620   7.285
 3748POPC   NC349295  17.876  30.363   5.529
 3748POPC   PO449296  17.283  30.015   5.473
 3748POPC   GL149297  17.503  29.975   5.855
 3748POPC   GL249298  17.861  29.917   5.784
 3748POPC   C1A49299  17.333  29.975   6.283
 3748POPC   D2A49300  17.165  30.118   6.701
 3748POPC   C3A49301  17.268  29.899   7.085
 3748POPC   C4A49302  17.592  29.706   7.384
 3748POPC   C1B49303  17.861  30.031   6.227
 3748POPC   C2B49304  17.691  29.951   6.652
 3748POPC   C3B49305  17.893  29.982   7.056
 3748POPC   C4B49306  17.995  30.021   7.487
 3749POPC   NC349307  37.728   3.596   5.387
 3749POPC   PO449308  37.126   4.025   5.518
 3749POPC   GL149309  37.403   3.725   5.777
 3749POPC   GL249310  37.490   3.350   5.802
 3749POPC   C1A49311  37.729   3.720   6.113
 3749POPC   D2A49312  37.718   3.788   6.565
 3749POPC   C3A49313  37.786   3.433   6.830
 3749POPC   C4A49314  37.883   3.635   7.195
 3749POPC   C1B49315  37.270   3.430   6.217
 3749POPC   C2B49316  37.247   3.537   6.679
 3749POPC   C3B49317  37.361   3.450   7.119
 3749POPC   C4B49318  37.457   3.305   7.536
 3750POPC   NC349319   0.118  13.180   5.231
 3750POPC   PO449320   0.640  13.512   5.568
 3750POPC   GL149321   0.425  13.674   5.855
 3750POPC   GL249322   0.671  13.932   5.866
 3750POPC   C1A49323   0.179  13.565   6.193
 3750POPC   D2A49324   0.151  13.280   6.558
 3750POPC   C3A49325   0.387  13.347   6.937
 3750POPC   C4A49326   0.327  13.663   7.237
 3750POPC   C1B49327   0.525  13.948   6.289
 3750POPC   C2B49328   0.400  13.792   6.664
 3750POPC   C3B49329   0.733  13.752   6.940
 3750POPC   C4B49330   0.804  13.498   7.265
 3751POPC   NC349331   0.677  21.857   5.101
 3751POPC   PO449332   0.197  22.229   5.343
 3751POPC   GL149333   0.427  22.178   5.701
 3751POPC   GL249334   0.236  21.856   5.686
 3751POPC   C1A49335   0.557  22.058   6.123
 3751POPC   D2A49336   0.732  22.014   6.512
 3751POPC   C3A49337   0.526  22.257   6.831
 3751POPC   C4A49338   0.673  22.250   7.235
 3751POPC   C1B49339   0.117  21.799   6.076
 3751POPC   C2B49340   0.211  21.964   6.494
 3751POPC   C3B49341   0.376  21.762   6.846
 3751POPC   C4B49342   0.276  21.905   7.239
 3752POPC   NC349343  26.789  22.326   5.443
 3752POPC   PO449344  26.543  21.716   5.479
 3752POPC   GL149345  26.616  22.001   5.814
 3752POPC   GL249346  26.980  22.024   5.825
 3752POPC   C1A49347  26.674  22.296   6.163
 3752POPC   D2A49348  26.645  22.176   6.587
 3752POPC   C3A49349  26.670  22.367   6.999
 3752POPC   C4A49350  26.553  22.358   7.449
 3752POPC   C1B49351  26.924  21.848   6.248
 3752POPC   C2B49352  27.170  21.999   6.602
 3752POPC   C3B49353  27.234  22.207   6.999
 3752POPC   C4B49354  26.961  22.071   7.321
 3753POPC   NC349355  34.893   4.811   5.455
 3753POPC   PO449356  34.441   5.348   5.495
 3753POPC   GL149357  34.703   5.285   5.846
 3753POPC   GL249358  34.980   5.056   5.892
 3753POPC   C1A49359  34.631   5.215   6.263
 3753POPC   D2A49360  34.365   5.032   6.536
 3753POPC   C3A49361  34.601   5.064   6.896
 3753POPC   C4A49362  34.543   5.353   7.214
 3753POPC   C1B49363  34.878   4.763   6.184
 3753POPC   C2B49364  34.970   4.906   6.575
 3753POPC   C3B49365  35.037   4.761   6.984
 3753POPC   C4B49366  34.869   4.967   7.325
 3754POPC   NC349367  39.521   8.843   5.539
 3754POPC   PO449368  39.121   9.282   5.356
 3754POPC   GL149369  39.178   9.164   5.801
 3754POPC   GL249370  39.078   8.805   5.845
 3754POPC   C1A49371  39.416   9.006   6.189
 3754POPC   D2A49372  39.262   8.798   6.573
 3754POPC   C3A49373  39.441   8.946   6.960
 3754POPC   C4A49374  39.561   8.752   7.344
 3754POPC   C1B49375  38.902   9.016   6.217
 3754POPC   C2B49376  38.745   9.089   6.596
 3754POPC   C3B49377  38.934   9.003   6.965
 3754POPC   C4B49378  38.750   8.920   7.324
 3755POPC   NC349379  41.752  42.876   5.478
 3755POPC   PO449380  41.363  43.446   5.412
 3755POPC   GL149381  41.477  43.204   5.764
 3755POPC   GL249382  41.328  42.896   5.739
 3755POPC   C1A49383  41.627  43.154   6.172
 3755POPC   D2A49384  41.674  42.902   6.529
 3755POPC   C3A49385  41.949  43.040   6.844
 3755POPC   C4A49386  41.703  43.089   7.192
 3755POPC   C1B49387  41.168  42.857   6.129
 3755POPC   C2B49388  41.126  42.711   6.531
 3755POPC   C3B49389  41.377  42.731   6.910
 3755POPC   C4B49390  41.257  42.859   7.303
 3756POPC   NC349391  37.230  26.962   5.202
 3756POPC   PO449392  36.837  26.498   5.421
 3756POPC   GL149393  36.921  26.746   5.767
 3756POPC   GL249394  36.663  26.705   6.064
 3756POPC   C1A49395  37.154  26.677   6.127
 3756POPC   D2A49396  36.922  26.678   6.525
 3756POPC   C3A49397  37.128  26.643   6.890
 3756POPC   C4A49398  36.895  26.518   7.239
 3756POPC   C1B49399  36.926  27.099   6.265
 3756POPC   C2B49400  36.999  27.163   6.719
 3756POPC   C3B49401  36.826  27.038   7.132
 3756POPC   C4B49402  36.693  26.915   7.572
 3757POPC   NC349403  21.627  14.038   5.193
 3757POPC   PO449404  21.623  14.619   5.452
 3757POPC   GL149405  21.396  14.247   5.614
 3757POPC   GL249406  21.660  14.074   5.751
 3757POPC   C1A49407  21.197  14.218   6.023
 3757POPC   D2A49408  21.354  14.423   6.383
 3757POPC   C3A49409  21.178  14.333   6.800
 3757POPC   C4A49410  21.077  14.478   7.207
 3757POPC   C1B49411  21.713  14.070   6.214
 3757POPC   C2B49412  21.745  14.243   6.641
 3757POPC   C3B49413  21.601  14.585   6.908
 3757POPC   C4B49414  21.557  14.300   7.232
 3758POPC   NC349415   7.208  40.227   5.454
 3758POPC   PO449416   7.409  39.587   5.517
 3758POPC   GL149417   7.408  39.934   5.826
 3758POPC   GL249418   7.671  40.188   5.742
 3758POPC   C1A49419   7.321  40.059   6.273
 3758POPC   D2A49420   7.260  40.295   6.676
 3758POPC   C3A49421   7.298  40.194   7.138
 3758POPC   C4A49422   7.436  40.168   7.593
 3758POPC   C1B49423   7.798  40.301   6.127
 3758POPC   C2B49424   7.823  40.096   6.502
 3758POPC   C3B49425   7.868  40.214   6.920
 3758POPC   C4B49426   7.754  39.968   7.261
 3759POPC   NC349427  37.589  33.267   5.519
 3759POPC   PO449428  37.449  33.835   5.104
 3759POPC   GL149429  37.608  33.775   5.546
 3759POPC   GL249430  37.327  33.718   5.727
 3759POPC   C1A49431  37.717  33.726   6.038
 3759POPC   D2A49432  37.936  33.689   6.419
 3759POPC   C3A49433  37.723  33.899   6.744
 3759POPC   C4A49434  37.742  33.758   7.150
 3759POPC   C1B49435  37.320  33.410   6.080
 3759POPC   C2B49436  37.437  33.546   6.464
 3759POPC   C3B49437  37.498  33.402   6.853
 3759POPC   C4B49438  37.318  33.451   7.248
 3760POPC   NC349439   8.856  33.850   5.405
 3760POPC   PO449440   9.073  34.518   5.490
 3760POPC   GL149441   9.172  34.073   5.791
 3760POPC   GL249442   8.919  33.778   5.911
 3760POPC   C1A49443   9.379  33.713   6.106
 3760POPC   D2A49444   9.232  33.657   6.538
 3760POPC   C3A49445   9.334  33.512   6.946
 3760POPC   C4A49446   8.984  33.497   7.237
 3760POPC   C1B49447   8.721  34.132   6.111
 3760POPC   C2B49448   8.554  34.230   6.552
 3760POPC   C3B49449   8.608  34.187   7.008
 3760POPC   C4B49450   8.727  33.937   7.377
 3761POPC   NC349451  17.789   4.160   5.082
 3761POPC   PO449452  17.476   4.628   5.303
 3761POPC   GL149453  17.517   4.498   5.767
 3761POPC   GL249454  17.825   4.387   5.962
 3761POPC   C1A49455  17.351   4.375   6.184
 3761POPC   D2A49456  17.324   4.510   6.602
 3761POPC   C3A49457  17.315   4.324   6.999
 3761POPC   C4A49458  17.396   4.593   7.336
 3761POPC   C1B49459  17.788   4.577   6.389
 3761POPC   C2B49460  17.778   4.543   6.880
 3761POPC   C3B49461  17.785   4.193   7.173
 3761POPC   C4B49462  17.462   4.027   7.451
 3762POPC   NC349463  35.051  33.285   5.354
 3762POPC   PO449464  35.428  32.743   5.467
 3762POPC   GL149465  35.313  32.724   5.881
 3762POPC   GL249466  35.643  32.697   5.978
 3762POPC   C1A49467  35.221  32.920   6.278
 3762POPC   D2A49468  35.222  32.845   6.703
 3762POPC   C3A49469  35.126  33.034   7.095
 3762POPC   C4A49470  35.433  33.025   7.450
 3762POPC   C1B49471  35.705  33.141   6.087
 3762POPC   C2B49472  35.600  33.362   6.466
 3762POPC   C3B49473  35.574  33.230   6.896
 3762POPC   C4B49474  35.865  33.193   7.224
 3763POPC   NC349475  24.966   8.315   5.423
 3763POPC   PO449476  25.587   8.144   5.507
 3763POPC   GL149477  25.293   8.100   5.825
 3763POPC   GL249478  25.043   7.830   5.722
 3763POPC   C1A49479  25.257   8.252   6.257
 3763POPC   D2A49480  25.030   8.173   6.626
 3763POPC   C3A49481  25.219   8.255   7.019
 3763POPC   C4A49482  25.384   8.438   7.395
 3763POPC   C1B49483  25.055   7.786   6.194
 3763POPC   C2B49484  25.398   7.835   6.533
 3763POPC   C3B49485  25.558   7.879   6.979
 3763POPC   C4B49486  25.320   7.905   7.389
 3764POPC   NC349487   1.605  24.443   5.430
 3764POPC   PO449488   1.025  24.755   5.373
 3764POPC   GL149489   1.185  24.538   5.709
 3764POPC   GL249490   1.119  24.197   5.656
 3764POPC   C1A49491   1.419  24.380   6.056
 3764POPC   D2A49492   1.231  24.355   6.435
 3764POPC   C3A49493   1.190  24.621   6.770
 3764POPC   C4A49494   1.193  24.461   7.159
 3764POPC   C1B49495   0.850  24.261   6.033
 3764POPC   C2B49496   0.827  24.054   6.425
 3764POPC   C3B49497   0.919  24.148   6.837
 3764POPC   C4B49498   0.783  24.214   7.293
 3765POPC   NC349499  28.387   3.417   5.359
 3765POPC   PO449500  27.659   3.427   5.500
 3765POPC   GL149501  27.865   3.539   5.889
 3765POPC   GL249502  28.220   3.457   5.850
 3765POPC   C1A49503  27.963   3.654   6.327
 3765POPC   D2A49504  28.298   3.833   6.603
 3765POPC   C3A49505  28.322   3.688   7.034
 3765POPC   C4A49506  28.647   3.749   7.306
 3765POPC   C1B49507  28.225   3.222   6.233
 3765POPC   C2B49508  28.228   3.324   6.662
 3765POPC   C3B49509  28.124   3.177   7.055
 3765POPC   C4B49510  28.437   3.286   7.344
 3766POPC   NC349511  12.371  27.544   5.428
 3766POPC   PO449512  11.688  27.434   5.505
 3766POPC   GL149513  11.988  27.462   5.841
 3766POPC   GL249514  12.331  27.249   5.851
 3766POPC   C1A49515  11.882  27.588   6.280
 3766POPC   D2A49516  11.703  27.835   6.634
 3766POPC   C3A49517  11.910  27.665   6.990
 3766POPC   C4A49518  12.019  27.348   7.279
 3766POPC   C1B49519  12.380  27.640   6.119
 3766POPC   C2B49520  12.282  27.833   6.491
 3766POPC   C3B49521  12.441  27.754   6.873
 3766POPC   C4B49522  12.368  27.757   7.306
 3767POPC   NC349523  17.775   9.960   5.358
 3767POPC   PO449524  17.218   9.928   5.702
 3767POPC   GL149525  17.577   9.786   5.796
 3767POPC   GL249526  17.709   9.487   5.636
 3767POPC   C1A49527  17.675   9.983   6.173
 3767POPC   D2A49528  17.845   9.946   6.550
 3767POPC   C3A49529  17.575   9.965   6.903
 3767POPC   C4A49530  17.267  10.076   7.213
 3767POPC   C1B49531  17.631   9.413   6.118
 3767POPC   C2B49532  17.884   9.421   6.495
 3767POPC   C3B49533  17.736   9.442   6.929
 3767POPC   C4B49534  17.372   9.569   7.165
 3768POPC   NC349535   0.575  17.212   5.432
 3768POPC   PO449536  44.839  17.233   5.510
 3768POPC   GL149537   0.218  17.407   5.807
 3768POPC   GL249538   0.593  17.533   5.856
 3768POPC   C1A49539   0.425  17.386   6.290
 3768POPC   D2A49540   0.644  17.377   6.712
 3768POPC   C3A49541   0.352  17.457   7.052
 3768POPC   C4A49542   0.120  17.526   7.490
 3768POPC   C1B49543   0.396  17.881   6.139
 3768POPC   C2B49544   0.423  18.111   6.542
 3768POPC   C3B49545   0.472  17.946   6.965
 3768POPC   C4B49546   0.616  17.750   7.362
 3769POPC   NC349547  35.276  13.980   5.631
 3769POPC   PO449548  35.742  14.469   5.359
 3769POPC   GL149549  35.539  14.601   5.784
 3769POPC   GL249550  35.372  14.338   5.988
 3769POPC   C1A49551  35.512  14.788   6.219
 3769POPC   D2A49552  35.530  14.572   6.625
 3769POPC   C3A49553  35.359  14.604   7.051
 3769POPC   C4A49554  35.582  14.720   7.466
 3769POPC   C1B49555  35.483  14.011   6.297
 3769POPC   C2B49556  35.493  14.051   6.747
 3769POPC   C3B49557  35.599  14.141   7.174
 3769POPC   C4B49558  35.566  13.945   7.611
 3770POPC   NC349559  30.973  23.781   5.141
 3770POPC   PO449560  30.592  24.154   5.560
 3770POPC   GL149561  30.660  23.780   5.787
 3770POPC   GL249562  30.991  23.683   5.841
 3770POPC   C1A49563  30.595  23.593   6.179
 3770POPC   D2A49564  30.664  23.748   6.571
 3770POPC   C3A49565  30.358  23.958   6.785
 3770POPC   C4A49566  30.454  23.774   7.144
 3770POPC   C1B49567  31.091  23.449   6.205
 3770POPC   C2B49568  30.973  23.344   6.615
 3770POPC   C3B49569  30.916  23.575   7.009
 3770POPC   C4B49570  31.086  23.532   7.421
 3771POPC   NC349571  30.900  40.300   5.373
 3771POPC   PO449572  30.434  39.922   5.463
 3771POPC   GL149573  30.431  40.176   5.854
 3771POPC   GL249574  30.798  40.182   5.865
 3771POPC   C1A49575  30.539  40.157   6.317
 3771POPC   D2A49576  30.901  39.953   6.572
 3771POPC   C3A49577  30.795  39.736   6.966
 3771POPC   C4A49578  30.444  39.874   7.196
 3771POPC   C1B49579  30.905  40.475   6.171
 3771POPC   C2B49580  30.880  40.478   6.597
 3771POPC   C3B49581  30.797  40.287   7.005
 3771POPC   C4B49582  30.927  40.439   7.411
 3772POPC   NC349583  13.190  36.749   4.929
 3772POPC   PO449584  12.693  36.894   5.454
 3772POPC   GL149585  12.794  37.159   5.797
 3772POPC   GL249586  12.816  36.848   5.973
 3772POPC   C1A49587  12.937  37.284   6.219
 3772POPC   D2A49588  12.814  37.003   6.563
 3772POPC   C3A49589  12.863  37.143   7.013
 3772POPC   C4A49590  12.659  37.089   7.449
 3772POPC   C1B49591  12.446  36.641   6.128
 3772POPC   C2B49592  12.353  36.726   6.514
 3772POPC   C3B49593  12.555  36.702   6.888
 3772POPC   C4B49594  12.395  36.617   7.268
 3773POPC   NC349595   0.681  27.720   5.400
 3773POPC   PO449596   0.179  27.321   5.627
 3773POPC   GL149597   0.488  27.448   5.923
 3773POPC   GL249598   0.683  27.767   5.926
 3773POPC   C1A49599   0.339  27.538   6.340
 3773POPC   D2A49600   0.237  27.308   6.718
 3773POPC   C3A49601   0.280  27.519   7.123
 3773POPC   C4A49602   0.173  27.959   7.135
 3773POPC   C1B49603   0.624  27.979   6.335
 3773POPC   C2B49604   0.512  27.841   6.751
 3773POPC   C3B49605   0.665  27.873   7.165
 3773POPC   C4B49606   0.825  27.667   7.533
 3774POPC   NC349607   1.961  22.907   5.339
 3774POPC   PO449608   1.443  22.681   5.628
 3774POPC   GL149609   1.845  22.795   5.895
 3774POPC   GL249610   2.215  22.794   5.877
 3774POPC   C1A49611   2.022  23.078   6.248
 3774POPC   D2A49612   2.107  23.270   6.623
 3774POPC   C3A49613   1.788  23.176   6.954
 3774POPC   C4A49614   1.956  23.100   7.388
 3774POPC   C1B49615   2.136  22.599   6.322
 3774POPC   C2B49616   1.927  22.696   6.764
 3774POPC   C3B49617   1.725  22.692   7.222
 3774POPC   C4B49618   1.693  22.781   7.712
 3775POPC   NC349619  27.496  38.734   5.024
 3775POPC   PO449620  27.797  38.151   5.249
 3775POPC   GL149621  27.671  38.406   5.604
 3775POPC   GL249622  27.379  38.247   5.718
 3775POPC   C1A49623  27.664  38.463   6.095
 3775POPC   D2A49624  27.702  38.323   6.557
 3775POPC   C3A49625  27.576  38.558   6.945
 3775POPC   C4A49626  27.672  38.446   7.393
 3775POPC   C1B49627  27.148  38.293   6.121
 3775POPC   C2B49628  27.206  38.195   6.559
 3775POPC   C3B49629  27.093  38.211   6.980
 3775POPC   C4B49630  27.178  38.509   7.294
 3776POPC   NC349631  23.646  40.987   5.607
 3776POPC   PO449632  23.584  41.673   5.460
 3776POPC   GL149633  23.680  41.539   5.864
 3776POPC   GL249634  23.361  41.563   5.968
 3776POPC   C1A49635  23.752  41.689   6.303
 3776POPC   D2A49636  23.658  41.880   6.723
 3776POPC   C3A49637  23.925  41.708   7.045
 3776POPC   C4A49638  23.893  41.318   7.297
 3776POPC   C1B49639  23.478  41.256   6.246
 3776POPC   C2B49640  23.625  41.354   6.661
 3776POPC   C3B49641  23.475  41.480   7.056
 3776POPC   C4B49642  23.460  41.864   7.239
 3777POPC   NC349643  37.123  37.864   5.524
 3777POPC   PO449644  36.545  37.432   5.480
 3777POPC   GL149645  36.807  37.606   5.824
 3777POPC   GL249646  36.813  37.986   5.928
 3777POPC   C1A49647  37.076  37.637   6.195
 3777POPC   D2A49648  36.860  37.608   6.594
 3777POPC   C3A49649  37.043  37.491   7.002
 3777POPC   C4A49650  37.295  37.634   7.345
 3777POPC   C1B49651  36.540  37.961   6.310
 3777POPC   C2B49652  36.358  37.698   6.667
 3777POPC   C3B49653  36.420  37.669   7.129
 3777POPC   C4B49654  36.747  37.628   7.478
 3778POPC   NC349655  24.256  36.238   5.052
 3778POPC   PO449656  24.330  36.054   5.618
 3778POPC   GL149657  24.523  36.096   5.985
 3778POPC   GL249658  24.666  36.397   5.982
 3778POPC   C1A49659  24.344  36.034   6.398
 3778POPC   D2A49660  24.166  35.955   6.808
 3778POPC   C3A49661  24.496  36.063   7.092
 3778POPC   C4A49662  24.536  36.298   7.465
 3778POPC   C1B49663  24.231  36.492   6.183
 3778POPC   C2B49664  24.075  36.483   6.644
 3778POPC   C3B49665  24.111  36.383   7.122
 3778POPC   C4B49666  24.072  36.398   7.617
 3779POPC   NC349667  37.915  41.029   5.604
 3779POPC   PO449668  38.279  40.675   5.256
 3779POPC   GL149669  38.479  40.759   5.674
 3779POPC   GL249670  38.217  40.746   5.863
 3779POPC   C1A49671  38.590  40.642   6.164
 3779POPC   D2A49672  38.670  40.865   6.570
 3779POPC   C3A49673  38.501  40.831   7.012
 3779POPC   C4A49674  38.704  40.853   7.430
 3779POPC   C1B49675  38.114  40.900   6.266
 3779POPC   C2B49676  38.192  41.097   6.653
 3779POPC   C3B49677  38.064  41.086   7.074
 3779POPC   C4B49678  38.084  40.926   7.445
 3780POPC   NC349679  28.152  27.386   5.417
 3780POPC   PO449680  28.780  27.622   5.527
 3780POPC   GL149681  28.617  27.573   5.934
 3780POPC   GL249682  28.326  27.784   5.894
 3780POPC   C1A49683  28.535  27.793   6.353
 3780POPC   D2A49684  28.224  27.694   6.691
 3780POPC   C3A49685  28.372  27.349   6.962
 3780POPC   C4A49686  28.635  27.644   7.169
 3780POPC   C1B49687  28.175  27.435   6.205
 3780POPC   C2B49688  27.966  27.260   6.599
 3780POPC   C3B49689  27.861  27.428   6.994
 3780POPC   C4B49690  28.131  27.660   7.298
 3781POPC   NC349691  34.701  42.435   5.214
 3781POPC   PO449692  34.628  41.800   5.485
 3781POPC   GL149693  34.415  41.980   5.829
 3781POPC   GL249694  34.467  42.331   5.790
 3781POPC   C1A49695  34.427  42.101   6.280
 3781POPC   D2A49696  34.376  42.260   6.713
 3781POPC   C3A49697  34.528  42.103   7.104
 3781POPC   C4A49698  34.530  42.009   7.555
 3781POPC   C1B49699  34.556  42.603   6.145
 3781POPC   C2B49700  34.514  42.737   6.588
 3781POPC   C3B49701  34.626  42.634   7.018
 3781POPC   C4B49702  34.572  42.512   7.478
 3782POPC   NC349703  23.116   2.369   5.204
 3782POPC   PO449704  22.875   2.976   5.146
 3782POPC   GL149705  22.933   2.838   5.618
 3782POPC   GL249706  22.658   2.905   5.812
 3782POPC   C1A49707  23.031   2.742   6.120
 3782POPC   D2A49708  22.839   2.642   6.588
 3782POPC   C3A49709  23.077   2.734   6.981
 3782POPC   C4A49710  23.091   2.951   7.399
 3782POPC   C1B49711  22.524   2.749   6.189
 3782POPC   C2B49712  22.433   2.981   6.538
 3782POPC   C3B49713  22.626   2.982   6.926
 3782POPC   C4B49714  22.640   2.742   7.302
 3783POPC   NC349715   9.129  18.754   5.404
 3783POPC   PO449716   8.787  18.146   5.161
 3783POPC   GL149717   8.813  18.106   5.641
 3783POPC   GL249718   9.067  18.354   5.754
 3783POPC   C1A49719   8.894  17.985   6.108
 3783POPC   D2A49720   8.757  17.824   6.539
 3783POPC   C3A49721   8.809  18.073   6.912
 3783POPC   C4A49722   9.024  17.925   7.236
 3783POPC   C1B49723   9.007  18.479   6.195
 3783POPC   C2B49724   9.119  18.222   6.538
 3783POPC   C3B49725   9.309  18.286   6.930
 3783POPC   C4B49726   9.095  18.418   7.305
 3784POPC   NC349727  32.572  15.285   4.864
 3784POPC   PO449728  32.264  15.181   5.402
 3784POPC   GL149729  32.202  15.088   5.850
 3784POPC   GL249730  32.090  15.430   5.886
 3784POPC   C1A49731  32.190  14.988   6.316
 3784POPC   D2A49732  32.293  14.774   6.693
 3784POPC   C3A49733  32.035  14.860   6.987
 3784POPC   C4A49734  32.065  15.049   7.370
 3784POPC   C1B49735  32.309  15.477   6.237
 3784POPC   C2B49736  32.440  15.377   6.630
 3784POPC   C3B49737  32.340  15.318   7.031
 3784POPC   C4B49738  32.561  15.159   7.367
 3785POPC   NC349739  20.157  22.063   5.352
 3785POPC   PO449740  19.530  21.854   5.387
 3785POPC   GL149741  19.668  22.009   5.797
 3785POPC   GL249742  19.984  22.196   5.815
 3785POPC   C1A49743  19.833  22.005   6.243
 3785POPC   D2A49744  19.902  22.139   6.651
 3785POPC   C3A49745  19.714  21.866   6.927
 3785POPC   C4A49746  19.641  22.018   7.315
 3785POPC   C1B49747  20.123  22.444   6.163
 3785POPC   C2B49748  20.386  22.342   6.517
 3785POPC   C3B49749  20.325  22.236   6.916
 3785POPC   C4B49750  20.136  22.199   7.305
 3786POPC   NC349751  12.353  17.747   5.470
 3786POPC   PO449752  11.824  17.288   5.449
 3786POPC   GL149753  12.079  17.401   5.780
 3786POPC   GL249754  11.954  17.735   5.837
 3786POPC   C1A49755  12.094  17.351   6.224
 3786POPC   D2A49756  12.031  17.612   6.597
 3786POPC   C3A49757  11.992  17.356   6.945
 3786POPC   C4A49758  11.935  17.234   7.344
 3786POPC   C1B49759  12.276  17.854   6.161
 3786POPC   C2B49760  12.448  17.956   6.594
 3786POPC   C3B49761  12.384  17.717   6.990
 3786POPC   C4B49762  12.454  17.267   7.132
 3787POPC   NC349763  35.409  11.452   5.385
 3787POPC   PO449764  35.333  10.722   5.229
 3787POPC   GL149765  35.296  10.993   5.656
 3787POPC   GL249766  35.547  11.171   5.809
 3787POPC   C1A49767  35.075  11.342   5.965
 3787POPC   D2A49768  35.256  11.621   6.349
 3787POPC   C3A49769  35.247  11.581   6.831
 3787POPC   C4A49770  35.352  11.400   7.248
 3787POPC   C1B49771  35.408  11.101   6.247
 3787POPC   C2B49772  35.470  11.159   6.680
 3787POPC   C3B49773  35.470  10.945   7.087
 3787POPC   C4B49774  35.156  10.680   7.265
 3788POPC   NC349775  36.675   2.120   5.509
 3788POPC   PO449776  37.267   1.808   5.434
 3788POPC   GL149777  37.084   1.930   5.835
 3788POPC   GL249778  36.780   2.054   5.993
 3788POPC   C1A49779  37.185   1.886   6.254
 3788POPC   D2A49780  36.994   2.057   6.561
 3788POPC   C3A49781  37.115   1.885   6.918
 3788POPC   C4A49782  37.267   2.038   7.267
 3788POPC   C1B49783  36.527   1.926   6.342
 3788POPC   C2B49784  36.543   2.070   6.779
 3788POPC   C3B49785  36.741   2.090   7.186
 3788POPC   C4B49786  36.829   1.761   7.484
 3789POPC   NC349787   4.920  42.120   5.382
 3789POPC   PO449788   5.568  42.011   5.560
 3789POPC   GL149789   5.219  42.200   5.813
 3789POPC   GL249790   5.002  41.894   5.842
 3789POPC   C1A49791   5.220  42.494   6.201
 3789POPC   D2A49792   5.216  42.516   6.640
 3789POPC   C3A49793   4.934  42.655   6.975
 3789POPC   C4A49794   5.260  42.474   7.210
 3789POPC   C1B49795   5.209  41.928   6.261
 3789POPC   C2B49796   5.162  41.995   6.712
 3789POPC   C3B49797   5.237  41.974   7.158
 3789POPC   C4B49798   5.077  42.100   7.592
 3790POPC   NC349799  25.018  30.778   5.437
 3790POPC   PO449800  25.598  30.358   5.467
 3790POPC   GL149801  25.268  30.473   5.797
 3790POPC   GL249802  25.212  30.831   5.880
 3790POPC   C1A49803  25.218  30.550   6.268
 3790POPC   D2A49804  25.418  30.712   6.631
 3790POPC   C3A49805  25.170  30.771   6.971
 3790POPC   C4A49806  25.034  30.650   7.344
 3790POPC   C1B49807  25.491  30.990   6.185
 3790POPC   C2B49808  25.529  31.244   6.543
 3790POPC   C3B49809  25.549  31.107   6.949
 3790POPC   C4B49810  25.463  30.976   7.399
 3791POPC   NC349811  11.466  27.855   5.458
 3791POPC   PO449812  10.987  27.411   5.445
 3791POPC   GL149813  11.281  27.438   5.815
 3791POPC   GL249814  11.526  27.718   5.936
 3791POPC   C1A49815  11.476  27.283   6.188
 3791POPC   D2A49816  11.293  27.485   6.546
 3791POPC   C3A49817  11.364  27.473   6.975
 3791POPC   C4A49818  11.528  27.580   7.357
 3791POPC   C1B49819  11.132  27.803   6.158
 3791POPC   C2B49820  11.017  27.920   6.581
 3791POPC   C3B49821  11.169  27.959   7.012
 3791POPC   C4B49822  10.952  28.120   7.387
 3792POPC   NC349823  43.228  24.177   5.456
 3792POPC   PO449824  42.793  24.688   5.225
 3792POPC   GL149825  42.964  24.619   5.715
 3792POPC   GL249826  43.085  24.323   5.907
 3792POPC   C1A49827  43.227  24.728   6.127
 3792POPC   D2A49828  43.205  24.481   6.536
 3792POPC   C3A49829  43.150  24.652   6.938
 3792POPC   C4A49830  42.814  24.531   7.227
 3792POPC   C1B49831  43.013  24.091   6.268
 3792POPC   C2B49832  43.220  23.953   6.638
 3792POPC   C3B49833  43.074  24.149   7.003
 3792POPC   C4B49834  43.267  24.383   7.378
 3793POPC   NC349835  19.544  36.107   5.527
 3793POPC   PO449836  20.155  36.422   5.385
 3793POPC   GL149837  20.138  36.212   5.789
 3793POPC   GL249838  19.952  35.918   5.748
 3793POPC   C1A49839  20.013  36.134   6.211
 3793POPC   D2A49840  20.199  36.172   6.585
 3793POPC   C3A49841  19.928  36.219   6.933
 3793POPC   C4A49842  19.993  36.148   7.348
 3793POPC   C1B49843  19.763  35.704   6.130
 3793POPC   C2B49844  19.756  35.831   6.609
 3793POPC   C3B49845  19.597  35.749   7.052
 3793POPC   C4B49846  19.502  35.875   7.487
 3794POPC   NC349847  11.785  24.348   5.448
 3794POPC   PO449848  12.440  24.555   5.474
 3794POPC   GL149849  12.312  24.747   5.873
 3794POPC   GL249850  11.945  24.688   5.851
 3794POPC   C1A49851  12.173  24.785   6.290
 3794POPC   D2A49852  11.896  24.731   6.610
 3794POPC   C3A49853  12.059  24.684   7.065
 3794POPC   C4A49854  11.962  24.786   7.528
 3794POPC   C1B49855  11.812  24.400   6.186
 3794POPC   C2B49856  11.945  24.208   6.580
 3794POPC   C3B49857  12.104  24.179   6.991
 3794POPC   C4B49858  12.035  23.918   7.357
 3795POPC   NC349859  33.278   6.731   5.528
 3795POPC   PO449860  33.923   6.602   5.473
 3795POPC   GL149861  33.618   6.398   5.774
 3795POPC   GL249862  33.491   6.077   5.692
 3795POPC   C1A49863  33.400   6.500   6.188
 3795POPC   D2A49864  33.422   6.690   6.614
 3795POPC   C3A49865  33.837   6.665   6.819
 3795POPC   C4A49866  34.137   6.739   7.137
 3795POPC   C1B49867  33.518   6.010   6.152
 3795POPC   C2B49868  33.662   6.210   6.563
 3795POPC   C3B49869  33.496   6.329   6.991
 3795POPC   C4B49870  33.519   6.512   7.432
 3796POPC   NC349871  42.850  11.783   5.476
 3796POPC   PO449872  43.191  12.397   5.431
 3796POPC   GL149873  42.959  12.208   5.767
 3796POPC   GL249874  43.164  11.934   5.899
 3796POPC   C1A49875  42.921  12.283   6.214
 3796POPC   D2A49876  43.154  12.113   6.561
 3796POPC   C3A49877  43.027  12.194   6.983
 3796POPC   C4A49878  43.160  12.445   7.348
 3796POPC   C1B49879  43.358  11.731   6.254
 3796POPC   C2B49880  43.572  11.834   6.665
 3796POPC   C3B49881  43.365  11.797   7.078
 3796POPC   C4B49882  43.084  11.926   7.429
 3797POPC   NC349883   5.571  44.918   5.482
 3797POPC   PO449884   6.174   0.000   5.145
 3797POPC   GL149885   6.085  44.918   5.636
 3797POPC   GL249886   5.940  44.608   5.708
 3797POPC   C1A49887   5.955  44.862   6.152
 3797POPC   D2A49888   5.693  44.888   6.559
 3797POPC   C3A49889   5.815  44.840   6.963
 3797POPC   C4A49890   6.068  44.941   7.292
 3797POPC   C1B49891   5.705  44.394   6.031
 3797POPC   C2B49892   5.602  44.384   6.482
 3797POPC   C3B49893   5.724  44.325   6.915
 3797POPC   C4B49894   5.830  44.477   7.323
 3798POPC   NC349895   1.269  23.363   5.303
 3798POPC   PO449896   1.529  23.973   5.425
 3798POPC   GL149897   1.311  23.692   5.732
 3798POPC   GL249898   0.948  23.588   5.760
 3798POPC   C1A49899   1.201  23.905   6.108
 3798POPC   D2A49900   1.305  23.860   6.525
 3798POPC   C3A49901   1.431  24.114   6.854
 3798POPC   C4A49902   1.244  23.962   7.199
 3798POPC   C1B49903   1.112  23.411   6.163
 3798POPC   C2B49904   1.381  23.361   6.538
 3798POPC   C3B49905   1.355  23.532   6.916
 3798POPC   C4B49906   1.173  23.485   7.270
 3799POPC   NC349907  13.220  31.530   5.653
 3799POPC   PO449908  12.638  31.165   5.543
 3799POPC   GL149909  12.712  31.530   5.793
 3799POPC   GL249910  12.914  31.286   5.995
 3799POPC   C1A49911  12.833  31.769   6.170
 3799POPC   D2A49912  12.662  31.639   6.548
 3799POPC   C3A49913  12.961  31.498   6.835
 3799POPC   C4A49914  12.911  31.740   7.200
 3799POPC   C1B49915  13.189  31.396   6.323
 3799POPC   C2B49916  13.421  31.329   6.691
 3799POPC   C3B49917  13.335  31.223   7.092
 3799POPC   C4B49918  13.297  31.149   7.530
 3800POPC   NC349919  37.972  30.475   5.362
 3800POPC   PO449920  37.665  29.835   5.297
 3800POPC   GL149921  37.662  30.145   5.642
 3800POPC   GL249922  37.996  30.205   5.778
 3800POPC   C1A49923  37.506  30.003   6.045
 3800POPC   D2A49924  37.660  29.916   6.468
 3800POPC   C3A49925  37.402  29.845   6.840
 3800POPC   C4A49926  37.616  29.747   7.217
 3800POPC   C1B49927  37.871  30.327   6.186
 3800POPC   C2B49928  37.624  30.428   6.537
 3800POPC   C3B49929  37.751  30.227   6.897
 3800POPC   C4B49930  38.102  30.232   7.122
 3801POPC   NC349931  38.203   6.808   5.408
 3801POPC   PO449932  38.882   6.580   5.477
 3801POPC   GL149933  38.546   6.646   5.777
 3801POPC   GL249934  38.232   6.425   5.787
 3801POPC   C1A49935  38.562   6.491   6.173
 3801POPC   D2A49936  38.827   6.383   6.480
 3801POPC   C3A49937  38.602   6.455   6.850
 3801POPC   C4A49938  38.463   6.218   7.184
 3801POPC   C1B49939  38.116   6.744   6.103
 3801POPC   C2B49940  38.317   6.815   6.504
 3801POPC   C3B49941  38.249   6.853   6.921
 3801POPC   C4B49942  38.536   6.799   7.244
 3802POPC   NC349943  38.102  40.286   5.460
 3802POPC   PO449944  38.545  39.788   5.247
 3802POPC   GL149945  38.494  39.916   5.745
 3802POPC   GL249946  38.406  40.258   5.854
 3802POPC   C1A49947  38.327  39.932   6.229
 3802POPC   D2A49948  38.101  40.053   6.648
 3802POPC   C3A49949  38.367  39.858   6.953
 3802POPC   C4A49950  38.723  39.791   7.162
 3802POPC   C1B49951  38.107  40.386   6.188
 3802POPC   C2B49952  38.263  40.538   6.578
 3802POPC   C3B49953  38.560  40.342   6.832
 3802POPC   C4B49954  38.357  40.318   7.194
 3803POPC   NC349955   1.232  14.442   5.237
 3803POPC   PO449956   0.662  14.337   5.285
 3803POPC   GL149957   0.905  14.349   5.692
 3803POPC   GL249958   1.256  14.441   5.796
 3803POPC   C1A49959   0.888  14.296   6.177
 3803POPC   D2A49960   0.726  14.299   6.649
 3803POPC   C3A49961   1.028  14.170   6.999
 3803POPC   C4A49962   1.248  14.352   7.352
 3803POPC   C1B49963   1.233  14.654   6.261
 3803POPC   C2B49964   1.215  14.624   6.753
 3803POPC   C3B49965   1.250  14.827   7.173
 3803POPC   C4B49966   1.204  14.811   7.610
 3804POPC   NC349967  34.127  31.164   5.289
 3804POPC   PO449968  34.797  31.475   5.371
 3804POPC   GL149969  34.678  31.431   5.775
 3804POPC   GL249970  34.300  31.484   5.719
 3804POPC   C1A49971  34.882  31.411   6.211
 3804POPC   D2A49972  34.725  31.213   6.625
 3804POPC   C3A49973  34.735  31.522   6.990
 3804POPC   C4A49974  34.866  31.510   7.434
 3804POPC   C1B49975  34.381  31.432   6.176
 3804POPC   C2B49976  34.417  31.630   6.587
 3804POPC   C3B49977  34.220  31.450   6.967
 3804POPC   C4B49978  34.398  31.370   7.379
 3805POPC   NC349979  13.668  11.028   5.592
 3805POPC   PO449980  13.326  11.643   5.417
 3805POPC   GL149981  13.371  11.620   5.870
 3805POPC   GL249982  13.405  11.285   5.936
 3805POPC   C1A49983  13.620  11.646   6.269
 3805POPC   D2A49984  13.918  11.427   6.561
 3805POPC   C3A49985  13.929  11.617   6.963
 3805POPC   C4A49986  13.653  11.751   7.286
 3805POPC   C1B49987  13.566  11.119   6.326
 3805POPC   C2B49988  13.432  11.236   6.743
 3805POPC   C3B49989  13.604  11.225   7.165
 3805POPC   C4B49990  13.644  11.035   7.588
 3806POPC   NC349991  12.508  38.276   5.591
 3806POPC   PO449992  11.784  38.528   5.438
 3806POPC   GL149993  12.075  38.483   5.801
 3806POPC   GL249994  12.249  38.787   5.783
 3806POPC   C1A49995  12.133  38.482   6.283
 3806POPC   D2A49996  12.055  38.277   6.687
 3806POPC   C3A49997  12.126  38.388   7.117
 3806POPC   C4A49998  11.952  38.309   7.562
 3806POPC   C1B49999  11.896  38.905   6.082
 3806POPC   C2B50000  11.815  38.800   6.533
 3806POPC   C3B50001  11.928  38.889   6.978
 3806POPC   C4B50002  11.953  38.787   7.420
 3807POPC   NC350003  25.363  20.295   5.565
 3807POPC   PO450004  25.177  20.931   5.458
 3807POPC   GL150005  25.139  20.892   5.897
 3807POPC   GL250006  25.034  20.532   5.944
 3807POPC   C1A50007  24.928  20.902   6.315
 3807POPC   D2A50008  25.138  20.760   6.672
 3807POPC   C3A50009  25.015  20.544   7.031
 3807POPC   C4A50010  25.135  20.641   7.466
 3807POPC   C1B50011  25.366  20.579   6.260
 3807POPC   C2B50012  25.496  20.392   6.680
 3807POPC   C3B50013  25.540  20.500   7.147
 3807POPC   C4B50014  25.534  20.379   7.625
 3808POPC   NC350015   2.629  38.968   5.677
 3808POPC   PO450016   2.701  38.487   5.302
 3808POPC   GL150017   2.907  38.466   5.690
 3808POPC   GL250018   2.600  38.486   5.848
 3808POPC   C1A50019   3.047  38.474   6.140
 3808POPC   D2A50020   2.871  38.278   6.527
 3808POPC   C3A50021   2.953  38.442   6.951
 3808POPC   C4A50022   2.870  38.680   7.342
 3808POPC   C1B50023   2.591  38.657   6.277
 3808POPC   C2B50024   2.634  38.740   6.692
 3808POPC   C3B50025   2.397  38.739   7.089
 3808POPC   C4B50026   2.494  39.006   7.483
 3809POPC   NC350027  36.417  26.364   5.239
 3809POPC   PO450028  36.698  25.843   5.663
 3809POPC   GL150029  36.999  26.050   5.914
 3809POPC   GL250030  37.286  25.832   5.969
 3809POPC   C1A50031  37.039  26.213   6.321
 3809POPC   D2A50032  36.849  26.223   6.728
 3809POPC   C3A50033  37.144  26.111   7.031
 3809POPC   C4A50034  36.857  25.968   7.310
 3809POPC   C1B50035  37.044  25.697   6.343
 3809POPC   C2B50036  36.866  25.698   6.790
 3809POPC   C3B50037  36.806  25.484   7.190
 3809POPC   C4B50038  37.069  25.582   7.598
 3810POPC   NC350039  10.137   7.829   5.578
 3810POPC   PO450040  10.634   8.177   5.304
 3810POPC   GL150041  10.682   8.235   5.773
 3810POPC   GL250042  10.363   8.090   5.942
 3810POPC   C1A50043  10.692   8.276   6.256
 3810POPC   D2A50044  10.432   8.085   6.541
 3810POPC   C3A50045  10.412   8.288   6.914
 3810POPC   C4A50046  10.708   8.455   7.215
 3810POPC   C1B50047  10.091   7.848   6.261
 3810POPC   C2B50048   9.937   7.965   6.700
 3810POPC   C3B50049  10.010   8.105   7.142
 3810POPC   C4B50050  10.390   8.110   7.420
 3811POPC   NC350051   7.132  21.534   5.519
 3811POPC   PO450052   6.561  21.433   5.253
 3811POPC   GL150053   6.645  21.299   5.667
 3811POPC   GL250054   6.360  21.105   5.792
 3811POPC   C1A50055   6.716  21.453   6.088
 3811POPC   D2A50056   6.958  21.351   6.453
 3811POPC   C3A50057   6.721  21.358   6.819
 3811POPC   C4A50058   6.882  21.359   7.224
 3811POPC   C1B50059   6.291  21.181   6.237
 3811POPC   C2B50060   6.411  20.970   6.622
 3811POPC   C3B50061   6.304  21.090   7.064
 3811POPC   C4B50062   6.481  21.182   7.492
 3812POPC   NC350063   9.460  19.732   5.526
 3812POPC   PO450064  10.116  19.508   5.621
 3812POPC   GL150065   9.840  19.763   5.900
 3812POPC   GL250066   9.631  20.066   5.859
 3812POPC   C1A50067   9.914  20.003   6.273
 3812POPC   D2A50068   9.792  19.703   6.566
 3812POPC   C3A50069   9.838  19.892   6.932
 3812POPC   C4A50070  10.059  19.869   7.298
 3812POPC   C1B50071   9.405  20.013   6.232
 3812POPC   C2B50072   9.388  20.002   6.656
 3812POPC   C3B50073   9.361  20.030   7.058
 3812POPC   C4B50074   9.626  20.083   7.370
 3813POPC   NC350075  43.364  28.048   5.433
 3813POPC   PO450076  42.953  28.540   5.345
 3813POPC   GL150077  42.996  28.352   5.753
 3813POPC   GL250078  43.330  28.396   5.907
 3813POPC   C1A50079  42.898  28.294   6.194
 3813POPC   D2A50080  43.005  28.462   6.585
 3813POPC   C3A50081  42.991  28.245   6.959
 3813POPC   C4A50082  43.137  28.422   7.293
 3813POPC   C1B50083  43.437  28.238   6.340
 3813POPC   C2B50084  43.493  28.426   6.764
 3813POPC   C3B50085  43.535  28.707   7.118
 3813POPC   C4B50086  43.585  28.707   7.565
 3814POPC   NC350087   8.585  15.422   5.369
 3814POPC   PO450088   9.156  14.992   5.379
 3814POPC   GL150089   9.249  14.979   5.812
 3814POPC   GL250090   9.314  15.300   5.978
 3814POPC   C1A50091   9.070  14.946   6.244
 3814POPC   D2A50092   9.282  15.027   6.641
 3814POPC   C3A50093   9.153  14.998   7.087
 3814POPC   C4A50094   8.923  15.311   7.343
 3814POPC   C1B50095   9.401  15.623   6.242
 3814POPC   C2B50096   9.542  15.538   6.635
 3814POPC   C3B50097   9.259  15.492   6.970
 3814POPC   C4B50098   9.433  15.370   7.345
 3815POPC   NC350099  24.105  25.592   5.294
 3815POPC   PO450100  24.771  25.269   5.339
 3815POPC   GL150101  24.531  25.216   5.723
 3815POPC   GL250102  24.304  24.933   5.777
 3815POPC   C1A50103  24.731  25.392   6.091
 3815POPC   D2A50104  24.708  25.578   6.488
 3815POPC   C3A50105  24.517  25.434   6.862
 3815POPC   C4A50106  24.694  25.175   7.139
 3815POPC   C1B50107  24.278  25.194   6.196
 3815POPC   C2B50108  24.129  25.184   6.621
 3815POPC   C3B50109  24.266  24.969   7.000
 3815POPC   C4B50110  24.322  24.950   7.446
 3816POPC   NC350111  41.831  27.185   5.566
 3816POPC   PO450112  41.419  26.747   5.232
 3816POPC   GL150113  41.525  26.780   5.707
 3816POPC   GL250114  41.385  27.111   5.837
 3816POPC   C1A50115  41.562  26.765   6.204
 3816POPC   D2A50116  41.764  26.617   6.626
 3816POPC   C3A50117  41.532  26.713   7.022
 3816POPC   C4A50118  41.647  26.608   7.469
 3816POPC   C1B50119  41.679  27.267   6.194
 3816POPC   C2B50120  41.798  27.127   6.578
 3816POPC   C3B50121  41.663  27.261   6.945
 3816POPC   C4B50122  41.647  27.137   7.360
 3817POPC   NC350123  30.952   6.329   5.428
 3817POPC   PO450124  30.554   5.897   5.113
 3817POPC   GL150125  30.623   5.902   5.615
 3817POPC   GL250126  30.391   6.094   5.814
 3817POPC   C1A50127  30.702   5.773   6.108
 3817POPC   D2A50128  30.662   5.458   6.513
 3817POPC   C3A50129  30.786   5.644   6.940
 3817POPC   C4A50130  31.011   6.041   6.999
 3817POPC   C1B50131  30.432   6.194   6.252
 3817POPC   C2B50132  30.603   5.966   6.589
 3817POPC   C3B50133  30.437   6.053   6.955
 3817POPC   C4B50134  30.287   6.473   6.963
 3818POPC   NC350135  38.154   6.031   5.447
 3818POPC   PO450136  38.774   5.813   5.479
 3818POPC   GL150137  38.489   5.895   5.826
 3818POPC   GL250138  38.244   5.609   5.767
 3818POPC   C1A50139  38.527   5.987   6.285
 3818POPC   D2A50140  38.804   5.872   6.604
 3818POPC   C3A50141  38.657   5.792   7.024
 3818POPC   C4A50142  38.629   5.844   7.479
 3818POPC   C1B50143  38.464   5.498   6.163
 3818POPC   C2B50144  38.444   5.516   6.612
 3818POPC   C3B50145  38.182   5.607   6.956
 3818POPC   C4B50146  38.117   5.816   7.304
 3819POPC   NC350147  28.483   5.868   5.085
 3819POPC   PO450148  28.086   6.298   5.383
 3819POPC   GL150149  28.395   6.092   5.643
 3819POPC   GL250150  28.226   6.285   5.874
 3819POPC   C1A50151  28.504   5.886   6.070
 3819POPC   D2A50152  28.645   5.657   6.462
 3819POPC   C3A50153  28.404   5.717   6.848
 3819POPC   C4A50154  28.565   5.631   7.231
 3819POPC   C1B50155  28.094   6.152   6.271
 3819POPC   C2B50156  28.408   6.130   6.565
 3819POPC   C3B50157  28.564   6.280   6.953
 3819POPC   C4B50158  28.540   6.267   7.401
 3820POPC   NC350159  39.193   0.203   5.391
 3820POPC   PO450160  39.324   0.873   5.393
 3820POPC   GL150161  39.163   0.576   5.750
 3820POPC   GL250162  39.394   0.291   5.865
 3820POPC   C1A50163  39.153   0.615   6.205
 3820POPC   D2A50164  39.324   0.722   6.605
 3820POPC   C3A50165  39.116   0.655   6.972
 3820POPC   C4A50166  39.524   0.648   7.171
 3820POPC   C1B50167  39.271   0.121   6.279
 3820POPC   C2B50168  39.251   0.184   6.745
 3820POPC   C3B50169  39.230   0.221   7.215
 3820POPC   C4B50170  39.056   0.161   7.624
 3821POPC   NC350171  21.197  44.528   5.370
 3821POPC   PO450172  21.728  44.866   5.529
 3821POPC   GL150173  21.481  44.797   5.853
 3821POPC   GL250174  21.152  44.867   5.771
 3821POPC   C1A50175  21.367  44.455   6.136
 3821POPC   D2A50176  21.421  44.276   6.548
 3821POPC   C3A50177  21.286  44.559   6.869
 3821POPC   C4A50178  21.205  44.336   7.224
 3821POPC   C1B50179  21.158  44.933   6.231
 3821POPC   C2B50180  20.852  44.945   6.572
 3821POPC   C3B50181  20.865   0.056   7.011
 3821POPC   C4B50182  21.239  44.968   7.234
 3822POPC   NC350183   8.290  10.116   5.571
 3822POPC   PO450184   8.402   9.492   5.385
 3822POPC   GL150185   8.138   9.660   5.763
 3822POPC   GL250186   8.449   9.745   5.885
 3822POPC   C1A50187   8.034   9.792   6.192
 3822POPC   D2A50188   8.265   9.686   6.573
 3822POPC   C3A50189   8.165   9.815   6.993
 3822POPC   C4A50190   7.996   9.672   7.387
 3822POPC   C1B50191   8.494  10.020   6.225
 3822POPC   C2B50192   8.435  10.147   6.637
 3822POPC   C3B50193   8.608  10.057   7.008
 3822POPC   C4B50194   8.506   9.844   7.366
 3823POPC   NC350195  20.779  10.738   5.465
 3823POPC   PO450196  20.693  11.444   5.258
 3823POPC   GL150197  20.649  11.261   5.709
 3823POPC   GL250198  20.354  11.420   5.869
 3823POPC   C1A50199  20.604  11.036   6.141
 3823POPC   D2A50200  20.435  11.040   6.598
 3823POPC   C3A50201  20.649  11.169   7.000
 3823POPC   C4A50202  20.493  11.049   7.422
 3823POPC   C1B50203  20.612  11.529   6.226
 3823POPC   C2B50204  20.576  11.563   6.677
 3823POPC   C3B50205  20.313  11.535   7.052
 3823POPC   C4B50206  20.470  11.536   7.452
 3824POPC   NC350207  34.514  21.094   5.178
 3824POPC   PO450208  34.670  21.622   5.545
 3824POPC   GL150209  34.602  21.235   5.746
 3824POPC   GL250210  34.953  21.171   5.808
 3824POPC   C1A50211  34.372  21.166   6.164
 3824POPC   D2A50212  34.393  21.462   6.522
 3824POPC   C3A50213  34.486  21.378   6.947
 3824POPC   C4A50214  34.124  21.534   7.163
 3824POPC   C1B50215  34.782  21.469   6.166
 3824POPC   C2B50216  34.901  21.494   6.595
 3824POPC   C3B50217  34.908  21.682   6.986
 3824POPC   C4B50218  35.074  21.577   7.387
 3825POPC   NC350219  16.232  29.818   5.348
 3825POPC   PO450220  15.780  30.226   5.257
 3825POPC   GL150221  15.846  29.931   5.666
 3825POPC   GL250222  15.540  29.863   5.868
 3825POPC   C1A50223  15.973  29.814   6.129
 3825POPC   D2A50224  15.690  29.735   6.515
 3825POPC   C3A50225  15.869  29.811   6.950
 3825POPC   C4A50226  16.308  29.746   7.054
 3825POPC   C1B50227  15.525  30.175   6.215
 3825POPC   C2B50228  15.673  30.233   6.636
 3825POPC   C3B50229  15.623  30.295   7.058
 3825POPC   C4B50230  15.753  30.107   7.457
 3826POPC   NC350231  23.810  36.457   5.584
 3826POPC   PO450232  23.621  35.882   5.329
 3826POPC   GL150233  23.638  36.047   5.819
 3826POPC   GL250234  23.984  36.100   5.947
 3826POPC   C1A50235  23.694  36.301   6.266
 3826POPC   D2A50236  23.701  36.082   6.612
 3826POPC   C3A50237  23.649  36.344   6.923
 3826POPC   C4A50238  23.670  36.272   7.349
 3826POPC   C1B50239  23.851  35.777   6.203
 3826POPC   C2B50240  23.492  35.605   6.407
 3826POPC   C3B50241  23.382  35.727   6.804
 3826POPC   C4B50242  23.681  35.842   7.090
 3827POPC   NC350243  22.537  32.430   5.328
 3827POPC   PO450244  23.088  32.084   5.402
 3827POPC   GL150245  22.789  32.043   5.759
 3827POPC   GL250246  22.688  32.376   5.833
 3827POPC   C1A50247  22.710  32.015   6.208
 3827POPC   D2A50248  22.916  32.189   6.573
 3827POPC   C3A50249  22.793  32.042   6.972
 3827POPC   C4A50250  22.770  31.921   7.422
 3827POPC   C1B50251  23.116  32.292   6.093
 3827POPC   C2B50252  23.239  32.577   6.459
 3827POPC   C3B50253  23.161  32.491   6.904
 3827POPC   C4B50254  23.044  32.342   7.323
 3828POPC   NC350255  38.896  17.467   5.110
 3828POPC   PO450256  39.383  17.880   5.363
 3828POPC   GL150257  39.427  17.643   5.732
 3828POPC   GL250258  39.392  17.311   5.872
 3828POPC   C1A50259  39.380  17.706   6.181
 3828POPC   D2A50260  39.088  17.578   6.473
 3828POPC   C3A50261  39.074  17.602   6.904
 3828POPC   C4A50262  39.029  17.569   7.351
 3828POPC   C1B50263  39.424  17.208   6.307
 3828POPC   C2B50264  39.368  17.221   6.733
 3828POPC   C3B50265  39.406  17.282   7.157
 3828POPC   C4B50266  39.157  17.038   7.427
 3829POPC   NC350267  22.490   2.771   5.308
 3829POPC   PO450268  21.767   2.741   5.383
 3829POPC   GL150269  22.101   2.963   5.607
 3829POPC   GL250270  22.220   2.650   5.734
 3829POPC   C1A50271  22.137   3.056   6.058
 3829POPC   D2A50272  21.910   2.861   6.419
 3829POPC   C3A50273  22.019   2.956   6.857
 3829POPC   C4A50274  21.895   2.809   7.281
 3829POPC   C1B50275  22.091   2.503   6.126
 3829POPC   C2B50276  22.248   2.484   6.561
 3829POPC   C3B50277  22.284   2.531   7.015
 3829POPC   C4B50278  22.206   2.407   7.463
 3830POPC   NC350279  13.881   1.790   5.113
 3830POPC   PO450280  13.434   2.218   5.352
 3830POPC   GL150281  13.624   1.923   5.613
 3830POPC   GL250282  13.896   2.127   5.711
 3830POPC   C1A50283  13.583   1.677   6.017
 3830POPC   D2A50284  13.737   1.783   6.426
 3830POPC   C3A50285  13.493   1.824   6.803
 3830POPC   C4A50286  13.540   1.898   7.237
 3830POPC   C1B50287  13.630   2.196   6.092
 3830POPC   C2B50288  13.515   2.271   6.523
 3830POPC   C3B50289  13.688   2.309   6.931
 3830POPC   C4B50290  13.555   2.438   7.300
 3831POPC   NC350291  39.742  13.965   5.499
 3831POPC   PO450292  40.421  13.802   5.277
 3831POPC   GL150293  40.168  13.794   5.726
 3831POPC   GL250294  39.882  13.536   5.752
 3831POPC   C1A50295  39.986  13.888   6.156
 3831POPC   D2A50296  39.774  13.781   6.576
 3831POPC   C3A50297  39.977  13.856   6.986
 3831POPC   C4A50298  39.962  13.754   7.420
 3831POPC   C1B50299  39.836  13.392   6.190
 3831POPC   C2B50300  39.919  13.269   6.619
 3831POPC   C3B50301  39.898  13.348   7.045
 3831POPC   C4B50302  40.267  13.273   7.275
 3832POPC   NC350303   2.735   8.472   5.228
 3832POPC   PO450304   2.957   9.061   5.362
 3832POPC   GL150305   2.803   9.050   5.786
 3832POPC   GL250306   2.815   8.715   5.742
 3832POPC   C1A50307   2.624   9.038   6.211
 3832POPC   D2A50308   2.513   9.242   6.622
 3832POPC   C3A50309   2.603   9.052   7.013
 3832POPC   C4A50310   2.709   9.222   7.417
 3832POPC   C1B50311   2.835   8.545   6.160
 3832POPC   C2B50312   2.691   8.643   6.564
 3832POPC   C3B50313   2.886   8.616   6.944
 3832POPC   C4B50314   2.854   8.747   7.357
 3833POPC   NC350315  35.182  34.046   5.419
 3833POPC   PO450316  35.452  33.506   5.202
 3833POPC   GL150317  35.490  33.711   5.655
 3833POPC   GL250318  35.151  33.717   5.849
 3833POPC   C1A50319  35.534  33.949   6.074
 3833POPC   D2A50320  35.293  33.828   6.433
 3833POPC   C3A50321  35.462  33.753   6.834
 3833POPC   C4A50322  35.530  34.009   7.165
 3833POPC   C1B50323  35.092  33.418   6.216
 3833POPC   C2B50324  35.131  33.384   6.686
 3833POPC   C3B50325  35.042  33.553   7.102
 3833POPC   C4B50326  35.051  33.363   7.497
 3834POPC   NC350327  32.091  20.661   5.438
 3834POPC   PO450328  32.662  20.304   5.232
 3834POPC   GL150329  32.470  20.346   5.657
 3834POPC   GL250330  32.136  20.197   5.650
 3834POPC   C1A50331  32.448  20.601   6.063
 3834POPC   D2A50332  32.261  20.894   6.382
 3834POPC   C3A50333  32.265  20.816   6.841
 3834POPC   C4A50334  32.057  20.756   7.245
 3834POPC   C1B50335  32.206  20.148   6.097
 3834POPC   C2B50336  32.163  20.383   6.472
 3834POPC   C3B50337  32.149  20.282   6.881
 3834POPC   C4B50338  32.369  20.362   7.228
 3835POPC   NC350339   4.480  35.903   5.615
 3835POPC   PO450340   3.937  36.221   5.278
 3835POPC   GL150341   4.187  36.311   5.787
 3835POPC   GL250342   4.516  36.378   5.834
 3835POPC   C1A50343   4.018  36.203   6.293
 3835POPC   D2A50344   4.258  35.949   6.686
 3835POPC   C3A50345   4.240  35.851   7.176
 3835POPC   C4A50346   4.192  36.045   7.601
 3835POPC   C1B50347   4.475  36.385   6.241
 3835POPC   C2B50348   4.679  36.266   6.622
 3835POPC   C3B50349   4.506  36.274   7.048
 3835POPC   C4B50350   4.451  36.620   7.304
 3836POPC   NC350351  26.071  27.846   5.361
 3836POPC   PO450352  26.269  27.279   5.503
 3836POPC   GL150353  26.244  27.618   5.811
 3836POPC   GL250354  26.145  28.000   5.833
 3836POPC   C1A50355  26.045  27.648   6.199
 3836POPC   D2A50356  26.244  27.609   6.568
 3836POPC   C3A50357  26.079  27.455   6.941
 3836POPC   C4A50358  26.275  27.432   7.352
 3836POPC   C1B50359  25.926  28.140   6.230
 3836POPC   C2B50360  25.838  27.947   6.647
 3836POPC   C3B50361  26.163  27.962   6.959
 3836POPC   C4B50362  26.330  27.938   7.353
 3837POPC   NC350363  14.141  39.985   5.366
 3837POPC   PO450364  14.273  40.650   5.519
 3837POPC   GL150365  14.096  40.336   5.791
 3837POPC   GL250366  14.339  40.060   5.848
 3837POPC   C1A50367  14.037  40.139   6.236
 3837POPC   D2A50368  14.031  39.959   6.667
 3837POPC   C3A50369  14.195  40.180   7.014
 3837POPC   C4A50370  14.555  40.451   7.068
 3837POPC   C1B50371  14.537  40.187   6.304
 3837POPC   C2B50372  14.637  40.044   6.773
 3837POPC   C3B50373  14.697  40.010   7.266
 3837POPC   C4B50374  14.527  39.728   7.615
 3838POPC   NC350375  42.222  11.503   5.240
 3838POPC   PO450376  42.792  11.310   5.499
 3838POPC   GL150377  42.381  11.236   5.747
 3838POPC   GL250378  42.222  11.554   5.779
 3838POPC   C1A50379  42.168  11.179   6.176
 3838POPC   D2A50380  42.040  11.421   6.546
 3838POPC   C3A50381  42.015  11.268   6.993
 3838POPC   C4A50382  42.403  11.173   7.236
 3838POPC   C1B50383  42.525  11.570   6.157
 3838POPC   C2B50384  42.549  11.495   6.626
 3838POPC   C3B50385  42.370  11.636   7.025
 3838POPC   C4B50386  42.254  11.621   7.487
 3839POPC   NC350387   2.933  22.421   5.485
 3839POPC   PO450388   2.614  21.861   5.353
 3839POPC   GL150389   2.713  22.055   5.766
 3839POPC   GL250390   2.537  22.394   5.806
 3839POPC   C1A50391   2.818  22.111   6.195
 3839POPC   D2A50392   2.888  21.813   6.555
 3839POPC   C3A50393   2.731  21.798   6.997
 3839POPC   C4A50394   2.850  21.979   7.417
 3839POPC   C1B50395   2.633  22.591   6.205
 3839POPC   C2B50396   2.889  22.556   6.583
 3839POPC   C3B50397   2.916  22.258   6.899
 3839POPC   C4B50398   3.256  22.075   7.125
 3840POPC   NC350399  42.657  24.993   5.551
 3840POPC   PO450400  42.168  25.334   5.118
 3840POPC   GL150401  42.317  25.397   5.572
 3840POPC   GL250402  42.637  25.621   5.646
 3840POPC   C1A50403  42.219  25.170   6.000
 3840POPC   D2A50404  42.467  24.994   6.371
 3840POPC   C3A50405  42.362  25.119   6.809
 3840POPC   C4A50406  42.257  25.227   7.229
 3840POPC   C1B50407  42.608  25.468   6.078
 3840POPC   C2B50408  42.633  25.475   6.535
 3840POPC   C3B50409  42.861  25.292   6.884
 3840POPC   C4B50410  42.734  25.034   7.245
 3841POPC   NC350411  37.251  10.039   5.369
 3841POPC   PO450412  37.796   9.681   5.523
 3841POPC   GL150413  37.617   9.758   5.876
 3841POPC   GL250414  37.383   9.476   5.843
 3841POPC   C1A50415  37.339   9.992   6.150
 3841POPC   D2A50416  37.201   9.930   6.579
 3841POPC   C3A50417  37.551   9.988   6.891
 3841POPC   C4A50418  37.672   9.834   7.308
 3841POPC   C1B50419  37.497   9.512   6.297
 3841POPC   C2B50420  37.843   9.408   6.550
 3841POPC   C3B50421  37.833   9.492   6.962
 3841POPC   C4B50422  37.558   9.343   7.252
 3842POPC   NC350423  28.087   8.433   5.487
 3842POPC   PO450424  28.121   9.073   5.244
 3842POPC   GL150425  28.472   9.078   5.621
 3842POPC   GL250426  28.536   8.776   5.784
 3842POPC   C1A50427  28.491   9.167   6.097
 3842POPC   D2A50428  28.124   9.072   6.390
 3842POPC   C3A50429  28.200   8.950   6.824
 3842POPC   C4A50430  28.607   9.084   6.993
 3842POPC   C1B50431  28.774   8.746   6.212
 3842POPC   C2B50432  28.804   8.654   6.693
 3842POPC   C3B50433  28.536   8.581   7.084
 3842POPC   C4B50434  28.110   8.469   7.214
 3843POPC   NC350435  23.270  39.994   4.899
 3843POPC   PO450436  22.807  39.953   5.397
 3843POPC   GL150437  22.873  39.886   5.823
 3843POPC   GL250438  23.223  39.812   5.856
 3843POPC   C1A50439  22.840  39.820   6.264
 3843POPC   D2A50440  22.839  39.846   6.715
 3843POPC   C3A50441  22.840  40.245   6.899
 3843POPC   C4A50442  22.731  40.211   7.291
 3843POPC   C1B50443  23.339  39.946   6.291
 3843POPC   C2B50444  23.320  40.013   6.738
 3843POPC   C3B50445  23.156  39.918   7.153
 3843POPC   C4B50446  23.214  40.232   7.482
 3844POPC   NC350447   1.988  25.256   5.151
 3844POPC   PO450448   1.499  25.628   5.493
 3844POPC   GL150449   1.719  25.400   5.875
 3844POPC   GL250450   2.063  25.294   5.973
 3844POPC   C1A50451   1.729  25.292   6.342
 3844POPC   D2A50452   2.131  25.401   6.524
 3844POPC   C3A50453   2.134  25.373   6.937
 3844POPC   C4A50454   2.006  25.682   7.178
 3844POPC   C1B50455   2.144  24.970   6.265
 3844POPC   C2B50456   1.964  24.921   6.676
 3844POPC   C3B50457   2.083  24.889   7.099
 3844POPC   C4B50458   1.756  25.142   7.276
 3845POPC   NC350459   2.580  11.326   5.133
 3845POPC   PO450460   2.191  11.532   5.594
 3845POPC   GL150461   2.548  11.223   5.649
 3845POPC   GL250462   2.939  11.221   5.681
 3845POPC   C1A50463   2.617  11.085   6.076
 3845POPC   D2A50464   2.600  11.265   6.505
 3845POPC   C3A50465   2.763  11.246   6.938
 3845POPC   C4A50466   2.601  11.290   7.370
 3845POPC   C1B50467   3.116  11.050   6.121
 3845POPC   C2B50468   3.042  10.963   6.604
 3845POPC   C3B50469   3.226  11.089   7.054
 3845POPC   C4B50470   3.195  11.280   7.498
 3846POPC   NC350471  19.856  23.128   5.372
 3846POPC   PO450472  19.933  22.465   5.401
 3846POPC   GL150473  19.802  22.693   5.791
 3846POPC   GL250474  19.560  22.499   5.938
 3846POPC   C1A50475  19.828  22.897   6.222
 3846POPC   D2A50476  19.552  22.953   6.649
 3846POPC   C3A50477  19.757  23.052   7.049
 3846POPC   C4A50478  20.192  23.152   7.090
 3846POPC   C1B50479  19.611  22.476   6.383
 3846POPC   C2B50480  19.974  22.639   6.626
 3846POPC   C3B50481  20.016  22.625   7.008
 3846POPC   C4B50482  19.764  22.579   7.313
 3847POPC   NC350483   9.244  34.719   5.098
 3847POPC   PO450484   8.977  35.187   5.491
 3847POPC   GL150485   8.984  35.038   5.941
 3847POPC   GL250486   9.072  34.680   5.981
 3847POPC   C1A50487   8.825  35.014   6.271
 3847POPC   D2A50488   9.087  34.920   6.616
 3847POPC   C3A50489   8.932  34.653   6.930
 3847POPC   C4A50490   8.814  34.867   7.321
 3847POPC   C1B50491   8.922  34.517   6.353
 3847POPC   C2B50492   9.060  34.136   6.561
 3847POPC   C3B50493   9.080  33.975   6.974
 3847POPC   C4B50494   9.074  34.306   7.293
 3848POPC   NC350495  38.843  38.515   5.438
 3848POPC   PO450496  39.425  38.181   5.283
 3848POPC   GL150497  39.299  38.299   5.735
 3848POPC   GL250498  39.039  38.516   5.900
 3848POPC   C1A50499  39.360  38.237   6.201
 3848POPC   D2A50500  39.439  38.161   6.667
 3848POPC   C3A50501  39.476  38.487   6.985
 3848POPC   C4A50502  39.688  38.556   7.362
 3848POPC   C1B50503  38.886  38.400   6.317
 3848POPC   C2B50504  38.994  38.509   6.736
 3848POPC   C3B50505  39.001  38.316   7.096
 3848POPC   C4B50506  38.727  37.989   7.138
 3849POPC   NC350507  13.076  12.215   5.357
 3849POPC   PO450508  12.652  11.835   5.092
 3849POPC   GL150509  12.759  11.927   5.625
 3849POPC   GL250510  13.106  12.058   5.828
 3849POPC   C1A50511  12.736  11.857   6.100
 3849POPC   D2A50512  12.597  12.034   6.516
 3849POPC   C3A50513  12.788  11.894   6.917
 3849POPC   C4A50514  12.648  11.948   7.350
 3849POPC   C1B50515  13.034  12.264   6.261
 3849POPC   C2B50516  13.044  12.343   6.729
 3849POPC   C3B50517  12.873  12.368   7.165
 3849POPC   C4B50518  12.990  12.324   7.626
 3850POPC   NC350519  20.064   4.678   5.387
 3850POPC   PO450520  19.690   5.240   5.397
 3850POPC   GL150521  19.691   4.947   5.776
 3850POPC   GL250522  20.004   4.835   5.846
 3850POPC   C1A50523  19.819   5.060   6.252
 3850POPC   D2A50524  19.934   5.444   6.493
 3850POPC   C3A50525  20.016   5.384   6.933
 3850POPC   C4A50526  19.832   5.011   7.112
 3850POPC   C1B50527  20.173   4.653   6.172
 3850POPC   C2B50528  20.269   4.768   6.591
 3850POPC   C3B50529  20.327   4.964   7.008
 3850POPC   C4B50530  20.202   4.991   7.484
 3851POPC   NC350531  20.314  33.993   5.540
 3851POPC   PO450532  20.940  33.796   5.528
 3851POPC   GL150533  20.625  33.662   5.819
 3851POPC   GL250534  20.291  33.506   5.822
 3851POPC   C1A50535  20.678  33.448   6.191
 3851POPC   D2A50536  21.008  33.472   6.496
 3851POPC   C3A50537  20.791  33.653   6.820
 3851POPC   C4A50538  20.839  33.802   7.186
 3851POPC   C1B50539  20.315  33.835   6.201
 3851POPC   C2B50540  20.465  34.045   6.612
 3851POPC   C3B50541  20.370  33.996   7.052
 3851POPC   C4B50542  20.417  33.633   7.364
 3852POPC   NC350543  19.482   0.834   5.410
 3852POPC   PO450544  19.773   1.395   5.140
 3852POPC   GL150545  19.871   1.428   5.688
 3852POPC   GL250546  19.787   1.040   5.793
 3852POPC   C1A50547  19.982   1.305   6.155
 3852POPC   D2A50548  20.195   0.970   6.383
 3852POPC   C3A50549  19.994   0.938   6.783
 3852POPC   C4A50550  20.127   1.214   7.112
 3852POPC   C1B50551  19.500   1.121   6.183
 3852POPC   C2B50552  19.630   1.267   6.594
 3852POPC   C3B50553  19.602   1.193   7.045
 3852POPC   C4B50554  19.703   1.125   7.493
 3853POPC   NC350555  44.426  12.467   5.117
 3853POPC   PO450556  44.892  12.105   5.484
 3853POPC   GL150557  44.675  11.995   5.871
 3853POPC   GL250558  44.839  12.328   5.964
 3853POPC   C1A50559  44.575  12.032   6.295
 3853POPC   D2A50560  44.734  11.962   6.691
 3853POPC   C3A50561  44.398  12.004   6.984
 3853POPC   C4A50562  44.483  11.596   7.107
 3853POPC   C1B50563  44.994  12.473   6.353
 3853POPC   C2B50564   0.073  12.343   6.770
 3853POPC   C3B50565  44.824  12.220   7.166
 3853POPC   C4B50566  44.669  12.420   7.564
 3854POPC   NC350567   0.980   7.857   5.223
 3854POPC   PO450568   0.257   8.096   5.367
 3854POPC   GL150569   0.371   8.279   5.751
 3854POPC   GL250570   0.157   8.547   5.841
 3854POPC   C1A50571   0.518   8.117   6.145
 3854POPC   D2A50572   0.313   8.022   6.501
 3854POPC   C3A50573   0.570   8.057   6.814
 3854POPC   C4A50574   0.385   8.127   7.169
 3854POPC   C1B50575   0.500   8.629   6.133
 3854POPC   C2B50576   0.607   8.519   6.565
 3854POPC   C3B50577   0.649   8.524   7.013
 3854POPC   C4B50578   0.717   8.345   7.446
 3855POPC   NC350579  36.974  10.853   5.723
 3855POPC   PO450580  36.738  11.437   5.370
 3855POPC   GL150581  36.685  11.535   5.784
 3855POPC   GL250582  36.541  11.204   5.843
 3855POPC   C1A50583  36.860  11.433   6.179
 3855POPC   D2A50584  36.736  11.542   6.572
 3855POPC   C3A50585  36.832  11.228   6.843
 3855POPC   C4A50586  37.043  11.274   7.210
 3855POPC   C1B50587  36.356  11.219   6.267
 3855POPC   C2B50588  36.379  10.995   6.658
 3855POPC   C3B50589  36.468  10.957   7.093
 3855POPC   C4B50590  36.720  10.983   7.467
 3856POPC   NC350591  43.338   8.625   5.485
 3856POPC   PO450592  42.649   8.967   5.529
 3856POPC   GL150593  42.987   9.120   5.814
 3856POPC   GL250594  43.330   9.010   5.835
 3856POPC   C1A50595  42.987   9.066   6.257
 3856POPC   D2A50596  42.693   9.158   6.572
 3856POPC   C3A50597  42.891   9.120   6.971
 3856POPC   C4A50598  43.264   9.312   7.162
 3856POPC   C1B50599  43.345   8.696   6.191
 3856POPC   C2B50600  43.186   8.764   6.636
 3856POPC   C3B50601  43.412   8.835   7.031
 3856POPC   C4B50602  43.572   8.583   7.357
 3857POPC   NC350603  31.730   5.702   5.482
 3857POPC   PO450604  31.426   6.318   5.350
 3857POPC   GL150605  31.417   6.093   5.728
 3857POPC   GL250606  31.739   6.164   5.835
 3857POPC   C1A50607  31.306   5.899   6.152
 3857POPC   D2A50608  31.504   5.665   6.519
 3857POPC   C3A50609  31.299   5.614   6.922
 3857POPC   C4A50610  31.282   5.456   7.344
 3857POPC   C1B50611  31.504   6.380   6.173
 3857POPC   C2B50612  31.407   6.191   6.584
 3857POPC   C3B50613  31.525   6.098   7.019
 3857POPC   C4B50614  31.354   5.973   7.450
 3858POPC   NC350615  26.843   6.902   5.069
 3858POPC   PO450616  26.524   6.470   5.482
 3858POPC   GL150617  26.793   6.570   5.823
 3858POPC   GL250618  26.519   6.659   5.999
 3858POPC   C1A50619  27.088   6.557   6.196
 3858POPC   D2A50620  26.905   6.659   6.619
 3858POPC   C3A50621  27.129   6.519   7.008
 3858POPC   C4A50622  27.252   6.612   7.449
 3858POPC   C1B50623  26.782   6.983   6.180
 3858POPC   C2B50624  26.674   7.250   6.530
 3858POPC   C3B50625  26.668   7.062   6.941
 3858POPC   C4B50626  26.749   6.846   7.338
 3859POPC   NC350627   3.715  20.937   5.394
 3859POPC   PO450628   3.249  20.428   5.281
 3859POPC   GL150629   3.327  20.621   5.680
 3859POPC   GL250630   3.313  20.967   5.703
 3859POPC   C1A50631   3.572  20.589   6.076
 3859POPC   D2A50632   3.814  20.665   6.481
 3859POPC   C3A50633   3.740  20.441   6.896
 3859POPC   C4A50634   3.605  20.567   7.310
 3859POPC   C1B50635   3.248  20.961   6.134
 3859POPC   C2B50636   3.307  20.743   6.537
 3859POPC   C3B50637   3.495  20.901   6.923
 3859POPC   C4B50638   3.247  20.950   7.300
 3860POPC   NC350639  30.248  17.378   5.622
 3860POPC   PO450640  29.850  17.562   5.065
 3860POPC   GL150641  29.777  17.683   5.593
 3860POPC   GL250642  30.059  17.805   5.808
 3860POPC   C1A50643  29.750  17.567   6.111
 3860POPC   D2A50644  29.829  17.491   6.549
 3860POPC   C3A50645  29.643  17.641   6.926
 3860POPC   C4A50646  29.868  17.591   7.330
 3860POPC   C1B50647  30.116  17.876   6.288
 3860POPC   C2B50648  30.247  17.757   6.733
 3860POPC   C3B50649  30.200  17.963   7.146
 3860POPC   C4B50650  30.200  17.866   7.606
 3861POPC   NC350651  38.449  11.738   5.396
 3861POPC   PO450652  38.222  12.376   5.437
 3861POPC   GL150653  38.456  12.253   5.819
 3861POPC   GL250654  38.518  11.871   5.873
 3861POPC   C1A50655  38.287  12.155   6.228
 3861POPC   D2A50656  38.172  11.915   6.580
 3861POPC   C3A50657  38.337  12.114   6.918
 3861POPC   C4A50658  38.324  12.380   7.270
 3861POPC   C1B50659  38.775  12.026   6.211
 3861POPC   C2B50660  39.067  12.045   6.539
 3861POPC   C3B50661  39.048  11.926   6.947
 3861POPC   C4B50662  38.717  12.012   7.236
 3862POPC   NC350663   3.299   2.896   5.368
 3862POPC   PO450664   3.770   2.547   5.292
 3862POPC   GL150665   3.547   2.681   5.773
 3862POPC   GL250666   3.778   2.818   5.996
 3862POPC   C1A50667   3.369   2.581   6.228
 3862POPC   D2A50668   3.518   2.605   6.691
 3862POPC   C3A50669   3.298   2.710   7.093
 3862POPC   C4A50670   3.416   2.532   7.494
 3862POPC   C1B50671   3.895   2.558   6.349
 3862POPC   C2B50672   4.057   2.477   6.764
 3862POPC   C3B50673   3.816   2.558   7.149
 3862POPC   C4B50674   3.714   2.991   7.303
 3863POPC   NC350675  31.826  13.107   5.569
 3863POPC   PO450676  31.516  12.535   5.440
 3863POPC   GL150677  31.524  12.655   5.852
 3863POPC   GL250678  31.364  12.982   5.798
 3863POPC   C1A50679  31.479  12.589   6.301
 3863POPC   D2A50680  31.342  12.766   6.693
 3863POPC   C3A50681  31.394  12.555   7.097
 3863POPC   C4A50682  31.691  12.654   7.389
 3863POPC   C1B50683  31.565  13.089   6.199
 3863POPC   C2B50684  31.541  13.262   6.641
 3863POPC   C3B50685  31.650  13.032   7.022
 3863POPC   C4B50686  31.290  13.049   7.314
 3864POPC   NC350687  41.757  24.762   5.464
 3864POPC   PO450688  41.656  24.126   5.485
 3864POPC   GL150689  41.637  24.386   5.854
 3864POPC   GL250690  41.355  24.634   5.776
 3864POPC   C1A50691  41.636  24.235   6.300
 3864POPC   D2A50692  41.291  24.119   6.609
 3864POPC   C3A50693  41.334  24.379   6.986
 3864POPC   C4A50694  41.722  24.575   7.181
 3864POPC   C1B50695  41.198  24.506   6.175
 3864POPC   C2B50696  41.191  24.687   6.558
 3864POPC   C3B50697  41.440  24.860   6.858
 3864POPC   C4B50698  41.304  24.845   7.303
 3865POPC   NC350699  17.887  13.122   5.409
 3865POPC   PO450700  17.718  12.470   5.569
 3865POPC   GL150701  17.518  12.745   5.884
 3865POPC   GL250702  17.284  13.013   5.772
 3865POPC   C1A50703  17.411  12.742   6.337
 3865POPC   D2A50704  17.640  12.536   6.660
 3865POPC   C3A50705  17.506  12.804   6.972
 3865POPC   C4A50706  17.517  12.939   7.384
 3865POPC   C1B50707  17.471  13.210   6.151
 3865POPC   C2B50708  17.386  13.256   6.615
 3865POPC   C3B50709  17.204  13.222   7.067
 3865POPC   C4B50710  17.041  13.130   7.498
 3866POPC   NC350711   1.011  22.728   5.459
 3866POPC   PO450712   1.546  23.022   5.116
 3866POPC   GL150713   1.580  23.157   5.623
 3866POPC   GL250714   1.215  23.127   5.746
 3866POPC   C1A50715   1.545  23.134   6.118
 3866POPC   D2A50716   1.460  22.848   6.520
 3866POPC   C3A50717   1.299  23.015   6.951
 3866POPC   C4A50718   1.444  23.081   7.388
 3866POPC   C1B50719   1.074  22.906   6.136
 3866POPC   C2B50720   0.974  23.055   6.550
 3866POPC   C3B50721   0.787  23.197   6.933
 3866POPC   C4B50722   0.939  23.052   7.332
 3867POPC   NC350723  43.420   2.692   5.499
 3867POPC   PO450724  42.901   3.028   5.124
 3867POPC   GL150725  43.018   2.995   5.635
 3867POPC   GL250726  43.387   3.139   5.756
 3867POPC   C1A50727  43.030   3.083   6.117
 3867POPC   D2A50728  43.157   2.841   6.504
 3867POPC   C3A50729  42.993   2.860   6.933
 3867POPC   C4A50730  43.100   3.116   7.331
 3867POPC   C1B50731  43.531   2.900   6.131
 3867POPC   C2B50732  43.663   2.857   6.558
 3867POPC   C3B50733  43.501   2.830   6.989
 3867POPC   C4B50734  43.289   2.647   7.326
 3868POPC   NC350735   1.304  37.273   5.432
 3868POPC   PO450736   0.984  36.741   5.446
 3868POPC   GL150737   1.275  36.883   5.821
 3868POPC   GL250738   1.510  37.183   5.882
 3868POPC   C1A50739   1.454  36.657   6.204
 3868POPC   D2A50740   1.663  36.593   6.639
 3868POPC   C3A50741   1.394  36.511   7.010
 3868POPC   C4A50742   0.959  36.656   7.105
 3868POPC   C1B50743   1.307  37.149   6.280
 3868POPC   C2B50744   1.233  36.867   6.627
 3868POPC   C3B50745   1.296  37.041   7.003
 3868POPC   C4B50746   1.115  37.320   7.286
 3869POPC   NC350747   2.686   9.420   5.448
 3869POPC   PO450748   3.095   9.876   5.398
 3869POPC   GL150749   3.039   9.963   5.827
 3869POPC   GL250750   2.708   9.840   5.769
 3869POPC   C1A50751   2.974   9.941   6.301
 3869POPC   D2A50752   2.946   9.594   6.644
 3869POPC   C3A50753   3.122   9.732   7.042
 3869POPC   C4A50754   3.058   9.966   7.490
 3869POPC   C1B50755   2.686   9.555   6.100
 3869POPC   C2B50756   2.504   9.740   6.447
 3869POPC   C3B50757   2.516   9.724   6.880
 3869POPC   C4B50758   2.678   9.708   7.272
 3870POPC   NC350759  39.165  19.733   5.452
 3870POPC   PO450760  38.962  20.279   5.288
 3870POPC   GL150761  38.930  20.014   5.796
 3870POPC   GL250762  39.024  19.677   5.933
 3870POPC   C1A50763  39.196  20.005   6.270
 3870POPC   D2A50764  39.447  19.865   6.680
 3870POPC   C3A50765  39.330  20.069   7.101
 3870POPC   C4A50766  38.948  20.035   7.371
 3870POPC   C1B50767  39.483  19.592   6.086
 3870POPC   C2B50768  39.621  19.390   6.495
 3870POPC   C3B50769  39.459  19.299   6.906
 3870POPC   C4B50770  39.154  19.594   7.083
 3871POPC   NC350771  31.060  29.118   5.207
 3871POPC   PO450772  30.496  28.866   5.530
 3871POPC   GL150773  30.830  29.031   5.741
 3871POPC   GL250774  30.745  29.352   5.877
 3871POPC   C1A50775  30.800  28.961   6.204
 3871POPC   D2A50776  30.590  28.818   6.586
 3871POPC   C3A50777  30.777  29.064   6.902
 3871POPC   C4A50778  31.023  29.079   7.282
 3871POPC   C1B50779  30.414  29.338   6.205
 3871POPC   C2B50780  30.382  29.317   6.643
 3871POPC   C3B50781  30.484  29.567   7.001
 3871POPC   C4B50782  30.263  29.602   7.393
 3872POPC   NC350783  41.791  15.625   5.101
 3872POPC   PO450784  42.361  16.035   5.199
 3872POPC   GL150785  42.434  16.124   5.723
 3872POPC   GL250786  42.121  16.165   5.945
 3872POPC   C1A50787  42.520  15.891   6.148
 3872POPC   D2A50788  42.294  15.608   6.466
 3872POPC   C3A50789  42.125  15.721   6.894
 3872POPC   C4A50790  42.392  15.737   7.258
 3872POPC   C1B50791  42.025  16.281   6.332
 3872POPC   C2B50792  42.313  16.110   6.593
 3872POPC   C3B50793  42.525  16.126   6.948
 3872POPC   C4B50794  42.186  16.196   7.234
 3873POPC   NC350795  16.435  11.243   5.591
 3873POPC   PO450796  17.077  11.507   5.343
 3873POPC   GL150797  16.923  11.552   5.788
 3873POPC   GL250798  16.605  11.757   5.791
 3873POPC   C1A50799  16.849  11.260   6.181
 3873POPC   D2A50800  16.894  11.085   6.620
 3873POPC   C3A50801  16.643  11.192   6.982
 3873POPC   C4A50802  16.887  11.117   7.339
 3873POPC   C1B50803  16.614  11.706   6.236
 3873POPC   C2B50804  16.636  11.599   6.671
 3873POPC   C3B50805  16.669  11.666   7.142
 3873POPC   C4B50806  16.530  11.465   7.511
 3874POPC   NC350807  31.720  27.768   5.445
 3874POPC   PO450808  31.088  27.508   5.252
 3874POPC   GL150809  31.261  27.625   5.652
 3874POPC   GL250810  31.483  27.364   5.754
 3874POPC   C1A50811  31.424  27.791   6.059
 3874POPC   D2A50812  31.628  27.800   6.459
 3874POPC   C3A50813  31.471  27.716   6.880
 3874POPC   C4A50814  31.642  27.812   7.288
 3874POPC   C1B50815  31.643  27.351   6.192
 3874POPC   C2B50816  31.661  27.283   6.642
 3874POPC   C3B50817  31.550  27.247   7.080
 3874POPC   C4B50818  31.705  27.354   7.497
 3875POPC   NC350819  41.993  18.973   5.628
 3875POPC   PO450820  42.468  19.104   5.145
 3875POPC   GL150821  42.575  19.119   5.602
 3875POPC   GL250822  42.468  18.810   5.769
 3875POPC   C1A50823  42.566  19.245   6.053
 3875POPC   D2A50824  42.541  19.511   6.463
 3875POPC   C3A50825  42.779  19.415   6.855
 3875POPC   C4A50826  42.584  19.348   7.231
 3875POPC   C1B50827  42.324  18.722   6.193
 3875POPC   C2B50828  42.398  18.527   6.592
 3875POPC   C3B50829  42.488  18.712   6.963
 3875POPC   C4B50830  42.225  18.988   7.188
 3876POPC   NC350831   9.116  19.298   5.113
 3876POPC   PO450832   8.657  18.895   5.466
 3876POPC   GL150833   8.840  19.194   5.762
 3876POPC   GL250834   9.008  18.890   5.876
 3876POPC   C1A50835   9.010  19.272   6.193
 3876POPC   D2A50836   8.922  19.076   6.571
 3876POPC   C3A50837   8.822  19.348   6.918
 3876POPC   C4A50838   8.928  19.480   7.311
 3876POPC   C1B50839   9.348  18.884   6.167
 3876POPC   C2B50840   9.326  18.698   6.580
 3876POPC   C3B50841   8.978  18.668   6.873
 3876POPC   C4B50842   8.933  18.931   7.257
 3877POPC   NC350843  11.063  39.530   5.332
 3877POPC   PO450844  11.177  40.171   5.496
 3877POPC   GL150845  11.417  39.989   5.811
 3877POPC   GL250846  11.380  40.324   5.965
 3877POPC   C1A50847  11.299  39.637   6.026
 3877POPC   D2A50848  11.070  39.650   6.389
 3877POPC   C3A50849  11.317  39.670   6.770
 3877POPC   C4A50850  11.360  39.612   7.191
 3877POPC   C1B50851  11.222  40.120   6.268
 3877POPC   C2B50852  11.475  40.099   6.553
 3877POPC   C3B50853  11.501  40.122   6.950
 3877POPC   C4B50854  11.150  40.133   7.189
 3878POPC   NC350855  17.101   9.518   5.551
 3878POPC   PO450856  16.672   9.934   5.420
 3878POPC   GL150857  16.779   9.747   5.886
 3878POPC   GL250858  17.119   9.580   6.052
 3878POPC   C1A50859  16.849   9.943   6.319
 3878POPC   D2A50860  17.024  10.012   6.758
 3878POPC   C3A50861  16.854   9.750   7.143
 3878POPC   C4A50862  16.606   9.614   7.548
 3878POPC   C1B50863  16.982   9.467   6.473
 3878POPC   C2B50864  16.995   9.313   6.912
 3878POPC   C3B50865  16.992   9.306   7.381
 3878POPC   C4B50866  17.011   9.334   7.849
 3879POPC   NC350867  38.681   9.338   5.265
 3879POPC   PO450868  38.189   8.947   5.311
 3879POPC   GL150869  38.355   8.885   5.724
 3879POPC   GL250870  38.634   9.092   5.799
 3879POPC   C1A50871  38.572   8.634   6.062
 3879POPC   D2A50872  38.369   8.640   6.456
 3879POPC   C3A50873  38.512   8.700   6.873
 3879POPC   C4A50874  38.268   8.906   7.179
 3879POPC   C1B50875  38.356   9.091   6.211
 3879POPC   C2B50876  38.226   9.096   6.670
 3879POPC   C3B50877  38.326   9.374   7.006
 3879POPC   C4B50878  38.739   9.467   7.043
 3880POPC   NC350879  33.444  12.794   5.235
 3880POPC   PO450880  32.883  12.433   5.360
 3880POPC   GL150881  32.846  12.829   5.639
 3880POPC   GL250882  33.165  12.989   5.749
 3880POPC   C1A50883  32.796  12.797   6.108
 3880POPC   D2A50884  33.099  12.757   6.458
 3880POPC   C3A50885  32.983  12.668   6.876
 3880POPC   C4A50886  32.805  12.896   7.219
 3880POPC   C1B50887  33.306  13.141   6.151
 3880POPC   C2B50888  33.374  13.232   6.577
 3880POPC   C3B50889  33.136  13.168   6.945
 3880POPC   C4B50890  33.302  12.908   7.280
 3881POPC   NC350891  38.172  26.930   5.357
 3881POPC   PO450892  38.782  26.983   5.238
 3881POPC   GL150893  38.594  26.900   5.689
 3881POPC   GL250894  38.286  26.728   5.805
 3881POPC   C1A50895  38.438  27.074   6.127
 3881POPC   D2A50896  38.331  26.866   6.517
 3881POPC   C3A50897  38.442  27.029   6.890
 3881POPC   C4A50898  38.302  26.975   7.253
 3881POPC   C1B50899  38.507  26.556   6.158
 3881POPC   C2B50900  38.822  26.542   6.474
 3881POPC   C3B50901  38.643  26.571   6.855
 3881POPC   C4B50902  38.525  26.523   7.260
 3882POPC   NC350903  40.191  31.129   5.151
 3882POPC   PO450904  39.872  31.715   5.478
 3882POPC   GL150905  39.864  31.523   5.840
 3882POPC   GL250906  39.821  31.172   5.698
 3882POPC   C1A50907  40.116  31.589   6.208
 3882POPC   D2A50908  40.373  31.558   6.546
 3882POPC   C3A50909  40.137  31.533   6.943
 3882POPC   C4A50910  39.746  31.581   7.207
 3882POPC   C1B50911  39.840  31.122   6.154
 3882POPC   C2B50912  39.834  31.319   6.556
 3882POPC   C3B50913  39.799  31.152   6.954
 3882POPC   C4B50914  39.790  30.840   7.208
 3883POPC   NC350915  22.941   8.231   5.299
 3883POPC   PO450916  23.319   7.718   5.363
 3883POPC   GL150917  22.991   7.757   5.743
 3883POPC   GL250918  22.867   8.100   5.830
 3883POPC   C1A50919  22.964   7.799   6.246
 3883POPC   D2A50920  22.743   7.975   6.628
 3883POPC   C3A50921  22.683   7.816   7.042
 3883POPC   C4A50922  22.849   7.970   7.425
 3883POPC   C1B50923  22.853   8.322   6.262
 3883POPC   C2B50924  23.011   8.420   6.711
 3883POPC   C3B50925  23.214   8.381   7.136
 3883POPC   C4B50926  23.362   8.673   7.511
 3884POPC   NC350927  37.810  35.122   5.427
 3884POPC   PO450928  37.596  35.755   5.516
 3884POPC   GL150929  37.623  35.446   5.870
 3884POPC   GL250930  37.672  35.077   5.902
 3884POPC   C1A50931  38.011  35.427   6.137
 3884POPC   D2A50932  38.137  35.712   6.469
 3884POPC   C3A50933  37.836  35.595   6.767
 3884POPC   C4A50934  37.919  35.312   7.100
 3884POPC   C1B50935  37.910  34.927   6.237
 3884POPC   C2B50936  37.795  34.986   6.648
 3884POPC   C3B50937  37.456  35.207   6.796
 3884POPC   C4B50938  37.432  35.086   7.193
 3885POPC   NC350939  27.362  19.352   4.949
 3885POPC   PO450940  27.839  19.131   5.369
 3885POPC   GL150941  27.585  19.143   5.751
 3885POPC   GL250942  27.911  19.250   5.870
 3885POPC   C1A50943  27.413  18.938   6.159
 3885POPC   D2A50944  27.632  18.853   6.590
 3885POPC   C3A50945  27.550  19.023   7.009
 3885POPC   C4A50946  27.527  18.698   7.318
 3885POPC   C1B50947  27.813  19.222   6.281
 3885POPC   C2B50948  28.014  19.302   6.650
 3885POPC   C3B50949  28.067  19.148   7.035
 3885POPC   C4B50950  27.918  19.162   7.446
 3886POPC   NC350951  22.066   7.779   5.125
 3886POPC   PO450952  22.493   8.263   5.281
 3886POPC   GL150953  22.382   7.997   5.710
 3886POPC   GL250954  22.032   7.929   5.861
 3886POPC   C1A50955  22.436   7.998   6.201
 3886POPC   D2A50956  22.123   7.951   6.571
 3886POPC   C3A50957  22.176   8.070   7.001
 3886POPC   C4A50958  22.490   8.269   7.225
 3886POPC   C1B50959  21.986   8.281   6.212
 3886POPC   C2B50960  22.023   8.453   6.667
 3886POPC   C3B50961  22.078   8.584   7.116
 3886POPC   C4B50962  22.061   8.320   7.498
 3887POPC   NC350963   2.232  42.725   5.425
 3887POPC   PO450964   1.926  43.278   5.526
 3887POPC   GL150965   2.026  42.976   5.838
 3887POPC   GL250966   1.715  42.811   5.817
 3887POPC   C1A50967   2.050  43.046   6.271
 3887POPC   D2A50968   2.066  43.337   6.582
 3887POPC   C3A50969   1.951  43.130   6.919
 3887POPC   C4A50970   2.114  42.977   7.280
 3887POPC   C1B50971   1.787  42.623   6.227
 3887POPC   C2B50972   1.986  42.530   6.637
 3887POPC   C3B50973   1.846  42.590   7.073
 3887POPC   C4B50974   1.686  42.787   7.489
 3888POPC   NC350975  37.333  23.923   5.388
 3888POPC   PO450976  36.782  23.522   5.172
 3888POPC   GL150977  36.906  23.696   5.610
 3888POPC   GL250978  36.964  24.052   5.707
 3888POPC   C1A50979  37.000  23.645   6.072
 3888POPC   D2A50980  36.829  23.859   6.423
 3888POPC   C3A50981  36.818  23.700   6.826
 3888POPC   C4A50982  37.011  23.664   7.216
 3888POPC   C1B50983  37.245  24.113   6.070
 3888POPC   C2B50984  37.160  24.246   6.501
 3888POPC   C3B50985  37.193  24.045   6.917
 3888POPC   C4B50986  37.148  24.095   7.427
 3889POPC   NC350987   9.697  37.865   5.273
 3889POPC   PO450988  10.071  38.172   5.665
 3889POPC   GL150989   9.915  37.861   5.928
 3889POPC   GL250990   9.579  37.863   5.790
 3889POPC   C1A50991   9.958  37.758   6.408
 3889POPC   D2A50992  10.189  37.454   6.700
 3889POPC   C3A50993   9.891  37.357   7.032
 3889POPC   C4A50994   9.712  37.771   7.095
 3889POPC   C1B50995   9.534  37.613   6.152
 3889POPC   C2B50996   9.438  37.717   6.579
 3889POPC   C3B50997   9.236  37.641   6.952
 3889POPC   C4B50998   9.331  37.627   7.412
 3890POPC   NC350999  34.865  39.903   5.213
 3890POPC   PO451000  34.402  40.286   5.437
 3890POPC   GL151001  34.522  40.059   5.822
 3890POPC   GL251002  34.591  39.702   5.827
 3890POPC   C1A51003  34.521  40.015   6.280
 3890POPC   D2A51004  34.473  39.982   6.718
 3890POPC   C3A51005  34.796  40.152   7.008
 3890POPC   C4A51006  34.684  40.200   7.445
 3890POPC   C1B51007  34.586  39.502   6.275
 3890POPC   C2B51008  34.698  39.517   6.739
 3890POPC   C3B51009  34.912  39.581   7.134
 3890POPC   C4B51010  34.749  39.684   7.579
 3891POPC   NC351011  32.730  42.454   5.383
 3891POPC   PO451012  33.333  42.374   5.588
 3891POPC   GL151013  32.968  42.325   5.852
 3891POPC   GL251014  32.745  42.628   5.849
 3891POPC   C1A51015  33.083  42.222   6.280
 3891POPC   D2A51016  33.360  42.065   6.629
 3891POPC   C3A51017  33.235  42.267   7.030
 3891POPC   C4A51018  33.415  42.480   7.392
 3891POPC   C1B51019  32.655  42.527   6.255
 3891POPC   C2B51020  32.528  42.410   6.644
 3891POPC   C3B51021  32.656  42.412   7.078
 3891POPC   C4B51022  32.531  42.497   7.527
 3892POPC   NC351023  32.692  22.106   5.228
 3892POPC   PO451024  33.252  22.381   5.212
 3892POPC   GL151025  33.099  22.156   5.573
 3892POPC   GL251026  33.327  22.297   5.829
 3892POPC   C1A51027  32.838  22.195   5.992
 3892POPC   D2A51028  32.724  22.114   6.461
 3892POPC   C3A51029  32.916  22.351   6.825
 3892POPC   C4A51030  32.916  22.227   7.252
 3892POPC   C1B51031  33.288  22.166   6.275
 3892POPC   C2B51032  33.230  21.967   6.663
 3892POPC   C3B51033  33.264  21.890   7.088
 3892POPC   C4B51034  33.367  22.161   7.452
 3893POPC   NC351035  11.213  33.269   5.307
 3893POPC   PO451036  11.446  32.611   5.524
 3893POPC   GL151037  11.336  32.944   5.829
 3893POPC   GL251038  11.550  33.231   5.772
 3893POPC   C1A51039  11.197  32.999   6.279
 3893POPC   D2A51040  11.115  33.221   6.673
 3893POPC   C3A51041  11.202  32.932   7.014
 3893POPC   C4A51042  11.368  32.917   7.442
 3893POPC   C1B51043  11.692  32.993   6.168
 3893POPC   C2B51044  11.595  32.996   6.628
 3893POPC   C3B51045  11.665  33.148   7.057
 3893POPC   C4B51046  11.755  33.206   7.517
 3894POPC   NC351047  41.928  28.745   5.074
 3894POPC   PO451048  42.421  29.163   5.351
 3894POPC   GL151049  42.267  29.190   5.784
 3894POPC   GL251050  42.163  28.864   5.873
 3894POPC   C1A51051  42.401  29.131   6.243
 3894POPC   D2A51052  42.223  29.106   6.678
 3894POPC   C3A51053  42.562  29.206   6.984
 3894POPC   C4A51054  42.796  29.383   7.306
 3894POPC   C1B51055  42.010  28.723   6.301
 3894POPC   C2B51056  42.187  28.597   6.726
 3894POPC   C3B51057  42.286  28.789   7.161
 3894POPC   C4B51058  42.224  28.697   7.622
 3895POPC   NC351059  27.248  37.054   5.274
 3895POPC   PO451060  27.811  36.737   5.398
 3895POPC   GL151061  27.567  36.889   5.740
 3895POPC   GL251062  27.861  36.958   5.934
 3895POPC   C1A51063  27.353  37.089   6.108
 3895POPC   D2A51064  27.533  37.125   6.544
 3895POPC   C3A51065  27.322  37.032   6.947
 3895POPC   C4A51066  27.303  37.144   7.389
 3895POPC   C1B51067  27.611  36.649   6.194
 3895POPC   C2B51068  27.447  36.612   6.616
 3895POPC   C3B51069  27.678  36.653   6.990
 3895POPC   C4B51070  27.636  36.775   7.418
 3896POPC   NC351071   5.305  38.774   5.201
 3896POPC   PO451072   4.954  38.232   5.328
 3896POPC   GL151073   4.907  38.228   5.802
 3896POPC   GL251074   5.264  38.204   5.889
 3896POPC   C1A51075   4.807  38.420   6.261
 3896POPC   D2A51076   4.723  38.733   6.641
 3896POPC   C3A51077   4.933  38.687   7.065
 3896POPC   C4A51078   4.874  38.332   7.388
 3896POPC   C1B51079   5.314  38.507   6.249
 3896POPC   C2B51080   5.161  38.443   6.681
 3896POPC   C3B51081   5.339  38.349   7.111
 3896POPC   C4B51082   5.356  38.008   7.423
 3897POPC   NC351083  41.506  32.014   5.343
 3897POPC   PO451084  41.652  32.576   5.460
 3897POPC   GL151085  41.433  32.362   5.827
 3897POPC   GL251086  41.299  32.019   5.803
 3897POPC   C1A51087  41.430  32.426   6.292
 3897POPC   D2A51088  41.497  32.583   6.712
 3897POPC   C3A51089  41.667  32.376   7.080
 3897POPC   C4A51090  41.839  32.386   7.517
 3897POPC   C1B51091  41.217  31.934   6.237
 3897POPC   C2B51092  41.235  32.094   6.667
 3897POPC   C3B51093  41.389  31.905   7.038
 3897POPC   C4B51094  41.490  32.043   7.439
 3898POPC   NC351095  30.217  30.755   5.320
 3898POPC   PO451096  29.730  30.385   5.688
 3898POPC   GL151097  29.766  30.560   6.069
 3898POPC   GL251098  29.915  30.926   5.999
 3898POPC   C1A51099  29.601  30.688   6.393
 3898POPC   D2A51100  29.753  31.011   6.593
 3898POPC   C3A51101  29.985  30.897   6.937
 3898POPC   C4A51102  30.067  30.859   7.369
 3898POPC   C1B51103  30.199  30.941   6.332
 3898POPC   C2B51104  30.322  30.633   6.620
 3898POPC   C3B51105  30.386  30.559   7.044
 3898POPC   C4B51106  30.388  30.490   7.474
 3899POPC   NC351107   1.097  25.251   5.390
 3899POPC   PO451108   1.757  24.947   5.410
 3899POPC   GL151109   1.388  25.032   5.754
 3899POPC   GL251110   1.020  25.011   5.821
 3899POPC   C1A51111   1.250  25.366   6.097
 3899POPC   D2A51112   0.966  25.476   6.457
 3899POPC   C3A51113   1.178  25.653   6.838
 3899POPC   C4A51114   1.348  25.440   7.188
 3899POPC   C1B51115   1.146  24.804   6.175
 3899POPC   C2B51116   1.287  25.055   6.503
 3899POPC   C3B51117   1.475  25.035   6.871
 3899POPC   C4B51118   1.234  24.953   7.246
 3900POPC   NC351119  40.364   4.586   5.531
 3900POPC   PO451120  39.880   4.086   5.616
 3900POPC   GL151121  40.129   4.199   5.920
 3900POPC   GL251122  40.461   4.141   5.771
 3900POPC   C1A51123  39.854   4.293   6.282
 3900POPC   D2A51124  39.714   4.034   6.625
 3900POPC   C3A51125  39.753   4.332   6.933
 3900POPC   C4A51126  40.009   4.554   7.195
 3900POPC   C1B51127  40.580   4.186   6.177
 3900POPC   C2B51128  40.318   4.232   6.494
 3900POPC   C3B51129  40.237   4.212   6.904
 3900POPC   C4B51130  40.470   3.923   7.096
 3901POPC   NC351131  13.233  19.393   5.368
 3901POPC   PO451132  12.698  18.916   5.390
 3901POPC   GL151133  12.690  19.148   5.776
 3901POPC   GL251134  13.044  19.146   5.764
 3901POPC   C1A51135  12.609  19.164   6.241
 3901POPC   D2A51136  12.527  18.855   6.594
 3901POPC   C3A51137  12.511  19.003   7.024
 3901POPC   C4A51138  12.694  19.380   7.188
 3901POPC   C1B51139  13.097  19.018   6.158
 3901POPC   C2B51140  13.019  19.237   6.555
 3901POPC   C3B51141  13.083  19.068   6.960
 3901POPC   C4B51142  12.927  18.958   7.326
 3902POPC   NC351143  35.795   5.226   5.340
 3902POPC   PO451144  35.141   5.257   5.456
 3902POPC   GL151145  35.479   5.158   5.785
 3902POPC   GL251146  35.682   5.466   5.807
 3902POPC   C1A51147  35.406   4.966   6.229
 3902POPC   D2A51148  35.444   4.706   6.648
 3902POPC   C3A51149  35.550   4.859   7.086
 3902POPC   C4A51150  35.322   4.837   7.493
 3902POPC   C1B51151  35.571   5.466   6.261
 3902POPC   C2B51152  35.410   5.238   6.661
 3902POPC   C3B51153  35.260   5.265   7.100
 3902POPC   C4B51154  35.445   5.330   7.517
 3903POPC   NC351155  13.113  22.371   5.474
 3903POPC   PO451156  12.664  21.900   5.253
 3903POPC   GL151157  12.725  22.154   5.702
 3903POPC   GL251158  12.448  22.275   5.869
 3903POPC   C1A51159  12.919  22.478   6.088
 3903POPC   D2A51160  13.123  22.657   6.515
 3903POPC   C3A51161  13.144  22.340   6.866
 3903POPC   C4A51162  12.943  22.158   7.249
 3903POPC   C1B51163  12.720  22.004   6.190
 3903POPC   C2B51164  12.678  21.892   6.640
 3903POPC   C3B51165  12.487  22.159   6.978
 3903POPC   C4B51166  12.444  22.129   7.454
 3904POPC   NC351167   9.986  36.506   5.508
 3904POPC   PO451168   9.500  36.039   5.494
 3904POPC   GL151169   9.826  36.125   5.827
 3904POPC   GL251170   9.711  36.487   5.937
 3904POPC   C1A51171   9.827  36.050   6.284
 3904POPC   D2A51172   9.460  36.131   6.535
 3904POPC   C3A51173   9.507  36.230   6.951
 3904POPC   C4A51174   9.726  35.883   7.146
 3904POPC   C1B51175  10.088  36.485   6.210
 3904POPC   C2B51176  10.121  36.342   6.672
 3904POPC   C3B51177   9.987  36.344   7.142
 3904POPC   C4B51178   9.586  36.508   7.371
 3905POPC   NC351179  24.984  21.820   5.537
 3905POPC   PO451180  25.632  22.027   5.519
 3905POPC   GL151181  25.346  22.207   5.822
 3905POPC   GL251182  25.443  22.552   5.890
 3905POPC   C1A51183  25.128  22.302   6.228
 3905POPC   D2A51184  25.167  22.371   6.682
 3905POPC   C3A51185  24.851  22.220   7.012
 3905POPC   C4A51186  24.883  22.281   7.509
 3905POPC   C1B51187  25.737  22.601   6.239
 3905POPC   C2B51188  25.782  22.385   6.620
 3905POPC   C3B51189  25.614  22.345   6.993
 3905POPC   C4B51190  25.310  22.110   7.122
 3906POPC   NC351191   9.581  27.879   5.278
 3906POPC   PO451192   9.698  28.557   5.418
 3906POPC   GL151193   9.862  28.380   5.787
 3906POPC   GL251194   9.659  28.085   5.783
 3906POPC   C1A51195   9.859  28.355   6.238
 3906POPC   D2A51196  10.015  28.311   6.644
 3906POPC   C3A51197   9.930  28.602   6.978
 3906POPC   C4A51198   9.964  28.376   7.351
 3906POPC   C1B51199   9.399  28.142   6.177
 3906POPC   C2B51200   9.500  28.133   6.608
 3906POPC   C3B51201   9.623  28.176   7.031
 3906POPC   C4B51202   9.513  28.180   7.484
 3907POPC   NC351203  10.582  19.359   5.467
 3907POPC   PO451204  10.366  18.717   5.583
 3907POPC   GL151205  10.387  19.090   5.853
 3907POPC   GL251206  10.745  19.255   5.925
 3907POPC   C1A51207  10.354  19.245   6.270
 3907POPC   D2A51208  10.601  19.320   6.645
 3907POPC   C3A51209  10.468  19.063   6.994
 3907POPC   C4A51210  10.072  18.911   7.182
 3907POPC   C1B51211  10.767  18.870   6.142
 3907POPC   C2B51212  10.713  18.802   6.556
 3907POPC   C3B51213  10.959  18.893   6.904
 3907POPC   C4B51214  10.764  18.685   7.215
 3908POPC   NC351215   8.439  10.858   5.340
 3908POPC   PO451216   9.038  11.130   5.412
 3908POPC   GL151217   8.747  11.164   5.702
 3908POPC   GL251218   8.650  11.529   5.645
 3908POPC   C1A51219   8.837  10.980   6.096
 3908POPC   D2A51220   8.667  10.888   6.481
 3908POPC   C3A51221   8.941  11.006   6.819
 3908POPC   C4A51222   8.851  10.915   7.211
 3908POPC   C1B51223   8.914  11.537   6.028
 3908POPC   C2B51224   8.862  11.403   6.463
 3908POPC   C3B51225   8.794  11.561   6.887
 3908POPC   C4B51226   8.829  11.643   7.322
 3909POPC   NC351227  43.494   3.286   5.259
 3909POPC   PO451228  43.833   2.719   5.311
 3909POPC   GL151229  43.919   2.637   5.723
 3909POPC   GL251230  43.900   2.976   5.781
 3909POPC   C1A51231  44.010   2.631   6.179
 3909POPC   D2A51232  44.000   2.423   6.586
 3909POPC   C3A51233  43.984   2.694   6.926
 3909POPC   C4A51234  44.157   2.865   7.276
 3909POPC   C1B51235  43.994   3.141   6.181
 3909POPC   C2B51236  44.116   3.078   6.601
 3909POPC   C3B51237  43.864   3.201   6.948
 3909POPC   C4B51238  43.626   3.193   7.328
 3910POPC   NC351239  14.638  35.486   5.645
 3910POPC   PO451240  15.166  35.219   5.297
 3910POPC   GL151241  15.109  35.342   5.759
 3910POPC   GL251242  15.417  35.370   5.965
 3910POPC   C1A51243  14.896  35.137   6.157
 3910POPC   D2A51244  15.052  35.137   6.594
 3910POPC   C3A51245  14.893  35.288   6.996
 3910POPC   C4A51246  14.919  35.156   7.419
 3910POPC   C1B51247  15.092  35.596   6.217
 3910POPC   C2B51248  15.056  35.655   6.645
 3910POPC   C3B51249  15.346  35.517   6.956
 3910POPC   C4B51250  15.403  35.252   7.302
 3911POPC   NC351251  41.528  27.160   5.048
 3911POPC   PO451252  41.653  27.691   5.461
 3911POPC   GL151253  41.784  27.632   5.844
 3911POPC   GL251254  41.420  27.619   5.929
 3911POPC   C1A51255  41.751  27.850   6.226
 3911POPC   D2A51256  41.437  27.741   6.529
 3911POPC   C3A51257  41.639  27.788   6.906
 3911POPC   C4A51258  41.468  27.687   7.281
 3911POPC   C1B51259  41.163  27.392   6.242
 3911POPC   C2B51260  41.242  27.207   6.653
 3911POPC   C3B51261  41.189  27.256   7.111
 3911POPC   C4B51262  41.166  27.380   7.549
 3912POPC   NC351263  42.106  17.478   5.096
 3912POPC   PO451264  41.552  17.280   5.462
 3912POPC   GL151265  41.485  17.478   5.895
 3912POPC   GL251266  41.254  17.794   5.916
 3912POPC   C1A51267  41.633  17.571   6.334
 3912POPC   D2A51268  41.802  17.897   6.618
 3912POPC   C3A51269  41.880  17.791   7.022
 3912POPC   C4A51270  41.927  17.340   7.121
 3912POPC   C1B51271  41.124  17.523   6.247
 3912POPC   C2B51272  41.251  17.423   6.686
 3912POPC   C3B51273  41.364  17.271   7.122
 3912POPC   C4B51274  41.236  17.185   7.551
 3913POPC   NC351275   6.363  30.448   5.471
 3913POPC   PO451276   6.397  29.805   5.401
 3913POPC   GL151277   6.461  29.910   5.804
 3913POPC   GL251278   6.604  30.224   5.855
 3913POPC   C1A51279   6.248  30.067   6.180
 3913POPC   D2A51280   6.437  29.937   6.560
 3913POPC   C3A51281   6.343  29.610   6.858
 3913POPC   C4A51282   6.487  29.700   7.309
 3913POPC   C1B51283   6.818  29.992   6.171
 3913POPC   C2B51284   6.969  29.823   6.533
 3913POPC   C3B51285   6.803  29.862   6.920
 3913POPC   C4B51286   6.963  29.845   7.292
 3914POPC   NC351287   6.790  44.344   5.538
 3914POPC   PO451288   6.935  44.980   5.433
 3914POPC   GL151289   6.612  44.931   5.805
 3914POPC   GL251290   6.461  44.606   5.840
 3914POPC   C1A51291   6.520  44.975   6.261
 3914POPC   D2A51292   6.615  44.686   6.610
 3914POPC   C3A51293   6.776  44.706   7.047
 3914POPC   C4A51294   6.566   0.037   7.281
 3914POPC   C1B51295   6.204  44.426   6.163
 3914POPC   C2B51296   6.093  44.568   6.575
 3914POPC   C3B51297   6.260  44.562   6.985
 3914POPC   C4B51298   6.318  44.550   7.420
 3915POPC   NC351299  12.241   2.184   5.467
 3915POPC   PO451300  11.629   2.076   5.175
 3915POPC   GL151301  11.824   2.048   5.697
 3915POPC   GL251302  12.053   1.827   5.791
 3915POPC   C1A51303  11.939   2.153   6.168
 3915POPC   D2A51304  11.931   1.958   6.596
 3915POPC   C3A51305  12.012   2.186   6.967
 3915POPC   C4A51306  12.238   2.078   7.325
 3915POPC   C1B51307  12.286   1.760   6.187
 3915POPC   C2B51308  12.206   1.534   6.576
 3915POPC   C3B51309  12.270   1.683   6.981
 3915POPC   C4B51310  12.547   1.558   7.333
 3916POPC   NC351311  24.725  21.052   5.426
 3916POPC   PO451312  24.263  20.526   5.433
 3916POPC   GL151313  24.374  20.644   5.867
 3916POPC   GL251314  24.630  20.863   5.899
 3916POPC   C1A51315  24.487  20.518   6.302
 3916POPC   D2A51316  24.246  20.422   6.694
 3916POPC   C3A51317  24.452  20.498   7.105
 3916POPC   C4A51318  24.741  20.313   7.396
 3916POPC   C1B51319  24.416  21.047   6.263
 3916POPC   C2B51320  24.514  21.173   6.650
 3916POPC   C3B51321  24.736  20.974   6.946
 3916POPC   C4B51322  24.693  20.857   7.362
 3917POPC   NC351323   8.577  39.626   5.235
 3917POPC   PO451324   8.894  40.147   5.423
 3917POPC   GL151325   8.893  39.882   5.751
 3917POPC   GL251326   8.724  39.555   5.705
 3917POPC   C1A51327   8.942  40.046   6.165
 3917POPC   D2A51328   9.199  40.105   6.512
 3917POPC   C3A51329   9.084  39.909   6.900
 3917POPC   C4A51330   9.240  40.031   7.325
 3917POPC   C1B51331   8.608  39.669   6.124
 3917POPC   C2B51332   8.588  39.905   6.528
 3917POPC   C3B51333   8.577  39.749   6.964
 3917POPC   C4B51334   8.857  39.584   7.250
 3918POPC   NC351335  38.053  17.703   5.587
 3918POPC   PO451336  37.672  17.159   5.353
 3918POPC   GL151337  37.532  17.440   5.696
 3918POPC   GL251338  37.308  17.709   5.579
 3918POPC   C1A51339  37.578  17.420   6.166
 3918POPC   D2A51340  37.701  17.194   6.557
 3918POPC   C3A51341  37.914  17.456   6.857
 3918POPC   C4A51342  37.841  17.338   7.247
 3918POPC   C1B51343  37.314  17.844   6.024
 3918POPC   C2B51344  37.478  17.853   6.446
 3918POPC   C3B51345  37.415  17.594   6.792
 3918POPC   C4B51346  37.508  17.722   7.172
 3919POPC   NC351347  27.879  18.687   5.508
 3919POPC   PO451348  27.311  18.315   5.602
 3919POPC   GL151349  27.310  17.977   5.888
 3919POPC   GL251350  27.655  17.915   5.842
 3919POPC   C1A51351  27.276  18.102   6.329
 3919POPC   D2A51352  27.251  18.472   6.589
 3919POPC   C3A51353  27.432  18.339   6.965
 3919POPC   C4A51354  27.407  17.945   7.179
 3919POPC   C1B51355  27.973  17.796   6.152
 3919POPC   C2B51356  28.128  17.951   6.552
 3919POPC   C3B51357  27.922  17.988   6.954
 3919POPC   C4B51358  27.836  18.248   7.299
 3920POPC   NC351359  41.774   3.627   5.066
 3920POPC   PO451360  41.290   3.360   5.474
 3920POPC   GL151361  41.453   3.595   5.785
 3920POPC   GL251362  41.795   3.660   5.722
 3920POPC   C1A51363  41.516   3.522   6.214
 3920POPC   D2A51364  41.248   3.675   6.552
 3920POPC   C3A51365  41.441   3.578   6.919
 3920POPC   C4A51366  41.271   3.611   7.319
 3920POPC   C1B51367  41.921   3.882   6.106
 3920POPC   C2B51368  41.923   3.717   6.534
 3920POPC   C3B51369  41.927   3.781   6.989
 3920POPC   C4B51370  41.825   3.368   7.209
 3921POPC   NC351371  14.034  42.890   5.289
 3921POPC   PO451372  13.431  43.185   5.327
 3921POPC   GL151373  13.711  43.120   5.682
 3921POPC   GL251374  13.892  42.828   5.785
 3921POPC   C1A51375  13.666  43.181   6.117
 3921POPC   D2A51376  13.429  43.038   6.466
 3921POPC   C3A51377  13.493  43.276   6.817
 3921POPC   C4A51378  13.561  43.127   7.213
 3921POPC   C1B51379  13.870  42.738   6.253
 3921POPC   C2B51380  13.886  42.939   6.655
 3921POPC   C3B51381  14.019  42.852   7.078
 3921POPC   C4B51382  13.816  42.690   7.409
 3922POPC   NC351383  43.012   0.910   5.399
 3922POPC   PO451384  43.424   0.428   5.509
 3922POPC   GL151385  43.066   0.530   5.756
 3922POPC   GL251386  42.937   0.827   5.875
 3922POPC   C1A51387  42.971   0.379   6.159
 3922POPC   D2A51388  43.206   0.119   6.426
 3922POPC   C3A51389  43.154   0.229   6.859
 3922POPC   C4A51390  43.041   0.357   7.280
 3922POPC   C1B51391  43.169   0.843   6.211
 3922POPC   C2B51392  43.023   0.661   6.589
 3922POPC   C3B51393  42.903   0.784   6.990
 3922POPC   C4B51394  43.255   0.816   7.252
 3923POPC   NC351395  38.120   0.769   5.456
 3923POPC   PO451396  38.763   0.431   5.455
 3923POPC   GL151397  38.594   0.498   5.850
 3923POPC   GL251398  38.249   0.563   5.917
 3923POPC   C1A51399  38.655   0.509   6.289
 3923POPC   D2A51400  38.383   0.608   6.630
 3923POPC   C3A51401  38.506   0.419   7.063
 3923POPC   C4A51402  38.536   0.377   7.541
 3923POPC   C1B51403  37.910   0.775   6.172
 3923POPC   C2B51404  37.860   0.847   6.629
 3923POPC   C3B51405  38.032   0.653   7.002
 3923POPC   C4B51406  38.199   0.709   7.385
 3924POPC   NC351407  40.821  37.738   5.327
 3924POPC   PO451408  40.316  37.910   5.312
 3924POPC   GL151409  40.296  37.843   5.784
 3924POPC   GL251410  40.654  37.789   5.831
 3924POPC   C1A51411  40.398  37.814   6.279
 3924POPC   D2A51412  40.639  37.726   6.704
 3924POPC   C3A51413  40.385  37.800   7.105
 3924POPC   C4A51414  40.473  38.078   7.469
 3924POPC   C1B51415  40.946  37.840   6.206
 3924POPC   C2B51416  41.210  37.596   6.511
 3924POPC   C3B51417  41.035  37.378   6.855
 3924POPC   C4B51418  40.822  37.514   7.229
 3925POPC   NC351419  11.124  13.622   5.174
 3925POPC   PO451420  10.989  13.196   5.728
 3925POPC   GL151421  11.181  13.450   5.931
 3925POPC   GL251422  11.159  13.788   5.729
 3925POPC   C1A51423  11.152  13.244   6.363
 3925POPC   D2A51424  11.026  13.091   6.776
 3925POPC   C3A51425  11.257  13.339   7.020
 3925POPC   C4A51426  11.353  13.675   7.223
 3925POPC   C1B51427  11.305  13.856   6.196
 3925POPC   C2B51428  11.229  13.685   6.611
 3925POPC   C3B51429  11.148  13.994   6.885
 3925POPC   C4B51430  11.330  14.174   7.241
 3926POPC   NC351431  22.289  20.182   5.357
 3926POPC   PO451432  21.993  19.548   5.481
 3926POPC   GL151433  22.141  19.913   5.770
 3926POPC   GL251434  22.480  20.069   5.822
 3926POPC   C1A51435  22.094  20.007   6.217
 3926POPC   D2A51436  21.892  19.740   6.527
 3926POPC   C3A51437  21.870  19.863   6.939
 3926POPC   C4A51438  21.802  19.589   7.281
 3926POPC   C1B51439  22.516  19.749   6.137
 3926POPC   C2B51440  22.407  19.693   6.553
 3926POPC   C3B51441  22.401  19.959   6.884
 3926POPC   C4B51442  22.234  20.033   7.268
 3927POPC   NC351443  11.476   2.351   5.522
 3927POPC   PO451444  11.000   2.805   5.251
 3927POPC   GL151445  11.142   2.749   5.696
 3927POPC   GL251446  11.143   2.423   5.908
 3927POPC   C1A51447  11.259   2.878   6.123
 3927POPC   D2A51448  11.210   2.669   6.528
 3927POPC   C3A51449  11.289   2.883   6.897
 3927POPC   C4A51450  11.013   3.013   7.212
 3927POPC   C1B51451  11.508   2.417   6.198
 3927POPC   C2B51452  11.576   2.323   6.642
 3927POPC   C3B51453  11.627   2.524   7.057
 3927POPC   C4B51454  11.264   2.599   7.331
 3928POPC   NC351455  37.590  14.282   5.474
 3928POPC   PO451456  37.462  14.813   5.464
 3928POPC   GL151457  37.649  14.645   5.832
 3928POPC   GL251458  37.941  14.384   5.811
 3928POPC   C1A51459  37.437  14.682   6.206
 3928POPC   D2A51460  37.507  14.757   6.638
 3928POPC   C3A51461  37.501  14.487   6.972
 3928POPC   C4A51462  37.901  14.459   7.160
 3928POPC   C1B51463  37.793  14.297   6.229
 3928POPC   C2B51464  37.896  14.285   6.665
 3928POPC   C3B51465  37.946  13.973   6.982
 3928POPC   C4B51466  37.599  14.051   7.235
 3929POPC   NC351467  22.966  37.664   5.352
 3929POPC   PO451468  22.656  37.171   5.763
 3929POPC   GL151469  22.928  37.522   5.844
 3929POPC   GL251470  22.792  37.841   5.805
 3929POPC   C1A51471  23.115  37.720   6.199
 3929POPC   D2A51472  22.923  37.603   6.588
 3929POPC   C3A51473  23.147  37.751   6.906
 3929POPC   C4A51474  23.310  37.611   7.293
 3929POPC   C1B51475  22.530  38.021   6.114
 3929POPC   C2B51476  22.672  38.065   6.525
 3929POPC   C3B51477  22.648  37.904   6.938
 3929POPC   C4B51478  22.804  37.650   7.268
 3930POPC   NC351479  14.558  42.709   5.647
 3930POPC   PO451480  14.167  43.296   5.475
 3930POPC   GL151481  14.484  43.295   5.787
 3930POPC   GL251482  14.357  43.076   5.936
 3930POPC   C1A51483  14.640  43.423   6.222
 3930POPC   D2A51484  14.501  43.543   6.605
 3930POPC   C3A51485  14.692  43.392   6.959
 3930POPC   C4A51486  14.413  43.184   7.223
 3930POPC   C1B51487  14.230  43.135   6.333
 3930POPC   C2B51488  14.386  43.036   6.743
 3930POPC   C3B51489  14.522  42.704   7.047
 3930POPC   C4B51490  14.778  42.658   7.424
 3931POPC   NC351491  31.105   4.922   5.472
 3931POPC   PO451492  31.696   5.217   5.413
 3931POPC   GL151493  31.539   5.043   5.786
 3931POPC   GL251494  31.635   4.690   5.804
 3931POPC   C1A51495  31.562   5.102   6.234
 3931POPC   D2A51496  31.663   4.846   6.585
 3931POPC   C3A51497  31.747   5.078   6.971
 3931POPC   C4A51498  31.675   4.841   7.347
 3931POPC   C1B51499  31.308   4.664   6.135
 3931POPC   C2B51500  31.181   4.604   6.573
 3931POPC   C3B51501  31.312   4.761   6.982
 3931POPC   C4B51502  31.143   4.836   7.399
 3932POPC   NC351503  21.021  24.332   5.503
 3932POPC   PO451504  21.715  24.457   5.519
 3932POPC   GL151505  21.446  24.390   5.821
 3932POPC   GL251506  21.242  24.707   5.765
 3932POPC   C1A51507  21.524  24.234   6.252
 3932POPC   D2A51508  21.772  24.433   6.581
 3932POPC   C3A51509  21.509  24.418   6.897
 3932POPC   C4A51510  21.334  24.408   7.288
 3932POPC   C1B51511  21.068  24.477   6.133
 3932POPC   C2B51512  21.049  24.245   6.509
 3932POPC   C3B51513  20.984  24.346   6.905
 3932POPC   C4B51514  20.859  24.259   7.293
 3933POPC   NC351515  24.660  41.762   5.311
 3933POPC   PO451516  25.174  41.557   5.508
 3933POPC   GL151517  25.113  41.476   5.931
 3933POPC   GL251518  25.004  41.815   5.960
 3933POPC   C1A51519  24.966  41.165   6.257
 3933POPC   D2A51520  24.807  41.256   6.678
 3933POPC   C3A51521  25.167  41.444   6.912
 3933POPC   C4A51522  25.548  41.323   7.173
 3933POPC   C1B51523  24.770  41.641   6.275
 3933POPC   C2B51524  24.691  41.765   6.659
 3933POPC   C3B51525  24.850  41.816   7.078
 3933POPC   C4B51526  25.114  42.072   7.375
 3934POPC   NC351527  20.775  21.708   5.392
 3934POPC   PO451528  20.543  22.280   5.230
 3934POPC   GL151529  20.533  22.296   5.690
 3934POPC   GL251530  20.763  22.025   5.807
 3934POPC   C1A51531  20.687  22.433   6.116
 3934POPC   D2A51532  20.923  22.526   6.510
 3934POPC   C3A51533  20.836  22.289   6.881
 3934POPC   C4A51534  20.665  22.198   7.285
 3934POPC   C1B51535  20.385  21.984   6.098
 3934POPC   C2B51536  20.263  21.813   6.521
 3934POPC   C3B51537  20.206  21.762   6.968
 3934POPC   C4B51538  20.398  21.712   7.366
 3935POPC   NC351539   8.978  16.026   5.439
 3935POPC   PO451540   8.937  15.372   5.658
 3935POPC   GL151541   9.081  15.764   5.860
 3935POPC   GL251542   8.763  15.963   5.900
 3935POPC   C1A51543   9.105  16.039   6.260
 3935POPC   D2A51544   9.214  15.914   6.652
 3935POPC   C3A51545   9.180  16.016   7.058
 3935POPC   C4A51546   9.156  15.772   7.420
 3935POPC   C1B51547   8.756  15.677   6.270
 3935POPC   C2B51548   8.707  15.834   6.686
 3935POPC   C3B51549   8.735  15.748   7.105
 3935POPC   C4B51550   8.748  16.071   7.343
 3936POPC   NC351551  42.156   1.655   5.368
 3936POPC   PO451552  42.595   2.090   5.138
 3936POPC   GL151553  42.411   2.114   5.590
 3936POPC   GL251554  42.277   1.832   5.826
 3936POPC   C1A51555  42.481   2.247   6.046
 3936POPC   D2A51556  42.410   2.313   6.512
 3936POPC   C3A51557  42.577   2.069   6.865
 3936POPC   C4A51558  42.493   2.200   7.294
 3936POPC   C1B51559  42.610   1.758   6.149
 3936POPC   C2B51560  42.729   1.658   6.556
 3936POPC   C3B51561  42.375   1.577   6.836
 3936POPC   C4B51562  42.209   1.768   7.166
 3937POPC   NC351563  22.084  14.632   5.559
 3937POPC   PO451564  22.436  14.088   5.414
 3937POPC   GL151565  22.441  14.341   5.791
 3937POPC   GL251566  22.114  14.263   5.927
 3937POPC   C1A51567  22.460  14.548   6.197
 3937POPC   D2A51568  22.397  14.310   6.545
 3937POPC   C3A51569  22.535  14.323   6.965
 3937POPC   C4A51570  22.426  14.284   7.430
 3937POPC   C1B51571  21.944  14.528   6.250
 3937POPC   C2B51572  22.058  14.646   6.665
 3937POPC   C3B51573  22.042  14.390   7.056
 3937POPC   C4B51574  21.928  14.564   7.491
 3938POPC   NC351575  28.336  33.340   5.516
 3938POPC   PO451576  28.656  33.998   5.479
 3938POPC   GL151577  28.359  33.796   5.791
 3938POPC   GL251578  28.631  33.570   5.857
 3938POPC   C1A51579  28.282  33.701   6.256
 3938POPC   D2A51580  28.075  33.448   6.620
 3938POPC   C3A51581  28.215  33.571   7.044
 3938POPC   C4A51582  28.173  33.922   7.290
 3938POPC   C1B51583  28.744  33.928   6.118
 3938POPC   C2B51584  28.852  33.853   6.509
 3938POPC   C3B51585  28.635  33.853   6.902
 3938POPC   C4B51586  28.690  34.027   7.326
 3939POPC   NC351587  29.288   4.599   5.352
 3939POPC   PO451588  28.636   4.781   5.476
 3939POPC   GL151589  28.876   4.585   5.843
 3939POPC   GL251590  29.202   4.399   5.811
 3939POPC   C1A51591  28.884   4.281   6.212
 3939POPC   D2A51592  29.115   4.066   6.567
 3939POPC   C3A51593  28.992   4.263   6.934
 3939POPC   C4A51594  28.839   4.262   7.351
 3939POPC   C1B51595  29.415   4.232   6.176
 3939POPC   C2B51596  29.630   4.312   6.546
 3939POPC   C3B51597  29.527   4.153   6.923
 3939POPC   C4B51598  29.358   4.331   7.271
 3940POPC   NC351599   5.745   9.270   5.450
 3940POPC   PO451600   5.793   8.614   5.264
 3940POPC   GL151601   5.961   8.825   5.657
 3940POPC   GL251602   6.052   8.565   5.852
 3940POPC   C1A51603   5.813   8.958   6.112
 3940POPC   D2A51604   5.721   8.673   6.489
 3940POPC   C3A51605   5.657   8.854   6.917
 3940POPC   C4A51606   5.495   8.606   7.269
 3940POPC   C1B51607   6.269   8.777   6.192
 3940POPC   C2B51608   6.119   8.982   6.550
 3940POPC   C3B51609   6.162   8.882   6.958
 3940POPC   C4B51610   6.006   8.642   7.255
 3941POPC   NC351611  21.659   3.186   5.417
 3941POPC   PO451612  21.890   3.844   5.338
 3941POPC   GL151613  21.567   3.789   5.675
 3941POPC   GL251614  21.485   3.455   5.814
 3941POPC   C1A51615  21.365   3.849   6.117
 3941POPC   D2A51616  21.205   3.501   6.407
 3941POPC   C3A51617  21.304   3.559   6.862
 3941POPC   C4A51618  21.310   3.779   7.271
 3941POPC   C1B51619  21.669   3.262   6.166
 3941POPC   C2B51620  21.584   3.190   6.610
 3941POPC   C3B51621  21.543   3.104   7.019
 3941POPC   C4B51622  21.579   3.362   7.293
 3942POPC   NC351623  20.406   8.044   5.280
 3942POPC   PO451624  20.907   8.369   5.387
 3942POPC   GL151625  20.624   8.169   5.743
 3942POPC   GL251626  20.427   7.801   5.742
 3942POPC   C1A51627  20.576   8.410   6.159
 3942POPC   D2A51628  20.297   8.591   6.502
 3942POPC   C3A51629  20.443   8.486   6.906
 3942POPC   C4A51630  20.513   8.130   7.132
 3942POPC   C1B51631  20.403   7.935   6.185
 3942POPC   C2B51632  20.661   8.041   6.574
 3942POPC   C3B51633  20.853   7.814   6.941
 3942POPC   C4B51634  20.611   7.659   7.305
 3943POPC   NC351635   6.543  34.273   5.154
 3943POPC   PO451636   6.942  34.725   5.328
 3943POPC   GL151637   6.853  34.656   5.750
 3943POPC   GL251638   6.930  34.308   5.735
 3943POPC   C1A51639   6.540  34.774   6.107
 3943POPC   D2A51640   6.330  34.685   6.521
 3943POPC   C3A51641   6.609  34.763   6.871
 3943POPC   C4A51642   6.659  34.729   7.333
 3943POPC   C1B51643   6.848  34.364   6.181
 3943POPC   C2B51644   6.712  34.298   6.596
 3943POPC   C3B51645   6.702  34.293   7.033
 3943POPC   C4B51646   7.067  34.312   7.307
 3944POPC   NC351647  10.090  30.018   5.457
 3944POPC   PO451648   9.465  30.084   5.161
 3944POPC   GL151649   9.619  29.916   5.606
 3944POPC   GL251650   9.545  29.597   5.717
 3944POPC   C1A51651   9.816  29.992   6.065
 3944POPC   D2A51652  10.031  30.049   6.482
 3944POPC   C3A51653   9.862  30.090   6.899
 3944POPC   C4A51654  10.003  29.888   7.279
 3944POPC   C1B51655   9.536  29.570   6.152
 3944POPC   C2B51656   9.622  29.705   6.570
 3944POPC   C3B51657   9.734  29.580   6.975
 3944POPC   C4B51658   9.579  29.509   7.403
 3945POPC   NC351659  23.327  23.600   5.359
 3945POPC   PO451660  22.761  23.258   5.300
 3945POPC   GL151661  22.687  23.529   5.670
 3945POPC   GL251662  23.003  23.683   5.756
 3945POPC   C1A51663  22.686  23.561   6.145
 3945POPC   D2A51664  22.916  23.458   6.541
 3945POPC   C3A51665  22.717  23.518   6.965
 3945POPC   C4A51666  22.764  23.677   7.383
 3945POPC   C1B51667  23.170  23.733   6.178
 3945POPC   C2B51668  23.150  23.961   6.570
 3945POPC   C3B51669  23.098  23.868   7.008
 3945POPC   C4B51670  23.123  24.047   7.443
 3946POPC   NC351671   0.130  34.835   5.297
 3946POPC   PO451672   0.510  34.299   5.539
 3946POPC   GL151673   0.492  34.643   5.813
 3946POPC   GL251674   0.784  34.884   5.828
 3946POPC   C1A51675   0.432  34.501   6.246
 3946POPC   D2A51676   0.674  34.357   6.608
 3946POPC   C3A51677   0.434  34.489   6.966
 3946POPC   C4A51678   0.291  34.442   7.355
 3946POPC   C1B51679   0.581  34.981   6.210
 3946POPC   C2B51680   0.570  34.855   6.636
 3946POPC   C3B51681   0.374  34.983   7.041
 3946POPC   C4B51682   0.183  34.952   7.474
 3947POPC   NC351683  20.875  41.018   5.442
 3947POPC   PO451684  20.416  40.619   5.338
 3947POPC   GL151685  20.625  40.696   5.782
 3947POPC   GL251686  20.679  41.010   5.901
 3947POPC   C1A51687  20.783  40.681   6.255
 3947POPC   D2A51688  20.504  40.711   6.615
 3947POPC   C3A51689  20.680  40.808   7.043
 3947POPC   C4A51690  20.865  40.798   7.496
 3947POPC   C1B51691  20.389  41.102   6.228
 3947POPC   C2B51692  20.363  41.235   6.654
 3947POPC   C3B51693  20.378  41.231   7.100
 3947POPC   C4B51694  20.710  41.286   7.430
 3948POPC   NC351695  40.781  41.267   5.133
 3948POPC   PO451696  41.034  41.820   5.377
 3948POPC   GL151697  40.773  41.702   5.723
 3948POPC   GL251698  40.723  41.362   5.702
 3948POPC   C1A51699  40.654  41.855   6.140
 3948POPC   D2A51700  40.753  41.681   6.565
 3948POPC   C3A51701  41.033  41.427   6.815
 3948POPC   C4A51702  40.924  41.610   7.202
 3948POPC   C1B51703  40.514  41.359   6.122
 3948POPC   C2B51704  40.261  41.618   6.417
 3948POPC   C3B51705  40.237  41.529   6.826
 3948POPC   C4B51706  40.466  41.408   7.184
 3949POPC   NC351707  36.936  44.744   5.339
 3949POPC   PO451708  36.411  44.399   5.490
 3949POPC   GL151709  36.749  44.557   5.806
 3949POPC   GL251710  36.970  44.888   5.817
 3949POPC   C1A51711  36.858  44.646   6.238
 3949POPC   D2A51712  36.978  44.887   6.578
 3949POPC   C3A51713  36.857  44.648   6.925
 3949POPC   C4A51714  36.909  44.455   7.310
 3949POPC   C1B51715  37.238   0.085   6.154
 3949POPC   C2B51716  37.489   0.000   6.551
 3949POPC   C3B51717  37.364  44.762   6.957
 3949POPC   C4B51718  37.286  44.768   7.436
 3950POPC   NC351719  42.887  23.418   5.389
 3950POPC   PO451720  42.791  24.033   5.630
 3950POPC   GL151721  43.065  23.783   5.859
 3950POPC   GL251722  43.317  23.666   5.664
 3950POPC   C1A51723  43.048  23.587   6.288
 3950POPC   D2A51724  42.798  23.612   6.702
 3950POPC   C3A51725  43.005  23.600   7.113
 3950POPC   C4A51726  43.316  23.882   7.345
 3950POPC   C1B51727  43.510  23.697   6.113
 3950POPC   C2B51728  43.476  23.483   6.546
 3950POPC   C3B51729  43.466  23.444   7.002
 3950POPC   C4B51730  43.357  23.405   7.472
 3951POPC   NC351731   3.794  31.168   5.224
 3951POPC   PO451732   3.255  31.591   5.401
 3951POPC   GL151733   3.579  31.503   5.650
 3951POPC   GL251734   3.333  31.605   5.916
 3951POPC   C1A51735   3.731  31.319   6.037
 3951POPC   D2A51736   3.545  31.283   6.448
 3951POPC   C3A51737   3.835  31.208   6.804
 3951POPC   C4A51738   3.733  31.426   7.192
 3951POPC   C1B51739   3.120  31.275   6.157
 3951POPC   C2B51740   3.027  31.233   6.598
 3951POPC   C3B51741   3.283  31.388   6.932
 3951POPC   C4B51742   3.236  31.465   7.372
 3952POPC   NC351743  31.336  41.982   5.548
 3952POPC   PO451744  31.406  42.660   5.387
 3952POPC   GL151745  31.474  42.471   5.775
 3952POPC   GL251746  31.146  42.490   5.823
 3952POPC   C1A51747  31.545  42.506   6.222
 3952POPC   D2A51748  31.248  42.552   6.590
 3952POPC   C3A51749  31.387  42.613   7.028
 3952POPC   C4A51750  31.735  42.421   7.226
 3952POPC   C1B51751  31.127  42.168   6.167
 3952POPC   C2B51752  31.480  42.018   6.431
 3952POPC   C3B51753  31.667  42.056   6.822
 3952POPC   C4B51754  31.371  42.051   7.119
 3953POPC   NC351755   3.695   8.265   5.386
 3953POPC   PO451756   3.011   8.089   5.306
 3953POPC   GL151757   3.350   8.074   5.698
 3953POPC   GL251758   3.706   7.892   5.732
 3953POPC   C1A51759   3.423   8.461   6.015
 3953POPC   D2A51760   3.480   8.650   6.455
 3953POPC   C3A51761   3.635   8.459   6.862
 3953POPC   C4A51762   3.425   8.264   7.209
 3953POPC   C1B51763   3.868   8.205   6.044
 3953POPC   C2B51764   3.678   8.149   6.454
 3953POPC   C3B51765   3.602   7.930   6.863
 3953POPC   C4B51766   3.735   7.832   7.283
 3954POPC   NC351767  33.702  42.640   5.524
 3954POPC   PO451768  34.250  42.401   5.320
 3954POPC   GL151769  33.963  42.238   5.708
 3954POPC   GL251770  34.005  42.511   5.921
 3954POPC   C1A51771  33.695  42.193   6.142
 3954POPC   D2A51772  33.884  42.111   6.560
 3954POPC   C3A51773  33.745  42.239   6.957
 3954POPC   C4A51774  33.596  41.931   7.250
 3954POPC   C1B51775  34.088  42.499   6.338
 3954POPC   C2B51776  34.012  42.635   6.740
 3954POPC   C3B51777  34.154  42.485   7.156
 3954POPC   C4B51778  34.072  42.082   7.353
 3955POPC   NC351779  28.480   6.609   5.463
 3955POPC   PO451780  27.943   7.040   5.341
 3955POPC   GL151781  28.061   6.777   5.716
 3955POPC   GL251782  28.424   6.797   5.919
 3955POPC   C1A51783  28.001   6.638   6.133
 3955POPC   D2A51784  28.322   6.619   6.431
 3955POPC   C3A51785  28.110   6.500   6.798
 3955POPC   C4A51786  28.167   6.556   7.218
 3955POPC   C1B51787  28.671   6.408   6.098
 3955POPC   C2B51788  28.827   6.438   6.520
 3955POPC   C3B51789  28.664   6.754   6.817
 3955POPC   C4B51790  28.648   6.758   7.245
 3956POPC   NC351791  44.072  25.595   5.525
 3956POPC   PO451792  44.712  25.596   5.213
 3956POPC   GL151793  44.709  25.296   5.629
 3956POPC   GL251794  44.424  25.346   5.844
 3956POPC   C1A51795  44.833  25.271   6.125
 3956POPC   D2A51796  44.928  25.435   6.591
 3956POPC   C3A51797  44.727  25.241   6.986
 3956POPC   C4A51798  44.885  24.883   7.247
 3956POPC   C1B51799  44.484  25.670   6.162
 3956POPC   C2B51800  44.596  25.822   6.566
 3956POPC   C3B51801  44.476  25.742   7.013
 3956POPC   C4B51802  44.674  25.791   7.418
 3957POPC   NC351803  43.997  17.356   5.450
 3957POPC   PO451804  43.469  17.770   5.360
 3957POPC   GL151805  43.756  17.766   5.711
 3957POPC   GL251806  44.125  17.755   5.736
 3957POPC   C1A51807  43.741  17.532   6.110
 3957POPC   D2A51808  43.807  17.715   6.521
 3957POPC   C3A51809  43.711  17.463   6.887
 3957POPC   C4A51810  43.608  17.470   7.347
 3957POPC   C1B51811  44.236  17.585   6.198
 3957POPC   C2B51812  44.150  17.304   6.603
 3957POPC   C3B51813  44.149  17.303   7.081
 3957POPC   C4B51814  44.120  17.459   7.527
 3958POPC   NC351815  39.076  18.749   5.610
 3958POPC   PO451816  39.365  19.315   5.392
 3958POPC   GL151817  39.419  19.099   5.763
 3958POPC   GL251818  39.044  19.198   5.801
 3958POPC   C1A51819  39.561  18.865   6.138
 3958POPC   D2A51820  39.391  18.924   6.550
 3958POPC   C3A51821  39.465  18.751   6.932
 3958POPC   C4A51822  39.593  18.945   7.263
 3958POPC   C1B51823  39.160  19.233   6.218
 3958POPC   C2B51824  39.024  19.306   6.628
 3958POPC   C3B51825  39.010  19.015   6.953
 3958POPC   C4B51826  39.101  18.881   7.342
 3959POPC   NC351827  28.501  32.566   5.657
 3959POPC   PO451828  28.488  31.881   5.580
 3959POPC   GL151829  28.292  32.134   5.924
 3959POPC   GL251830  28.007  32.419   5.863
 3959POPC   C1A51831  28.535  32.224   6.321
 3959POPC   D2A51832  28.663  32.367   6.735
 3959POPC   C3A51833  28.462  32.144   7.032
 3959POPC   C4A51834  28.531  32.071   7.415
 3959POPC   C1B51835  28.049  32.378   6.324
 3959POPC   C2B51836  28.170  32.494   6.759
 3959POPC   C3B51837  28.381  32.645   7.141
 3959POPC   C4B51838  28.127  32.774   7.513
 3960POPC   NC351839  37.840  27.685   5.393
 3960POPC   PO451840  37.209  27.437   5.273
 3960POPC   GL151841  37.388  27.654   5.624
 3960POPC   GL251842  37.557  27.339   5.745
 3960POPC   C1A51843  37.551  27.822   6.061
 3960POPC   D2A51844  37.533  28.016   6.525
 3960POPC   C3A51845  37.586  27.703   6.885
 3960POPC   C4A51846  37.249  27.435   7.071
 3960POPC   C1B51847  37.956  27.283   6.020
 3960POPC   C2B51848  38.122  27.344   6.467
 3960POPC   C3B51849  37.976  27.234   6.885
 3960POPC   C4B51850  37.713  27.302   7.240
 3961POPC   NC351851   2.835  28.565   5.108
 3961POPC   PO451852   2.916  29.167   5.402
 3961POPC   GL151853   2.807  29.333   5.824
 3961POPC   GL251854   2.991  29.024   5.934
 3961POPC   C1A51855   2.582  29.284   6.244
 3961POPC   D2A51856   2.505  28.991   6.605
 3961POPC   C3A51857   2.443  29.149   7.048
 3961POPC   C4A51858   2.636  28.892   7.391
 3961POPC   C1B51859   2.978  28.960   6.372
 3961POPC   C2B51860   2.915  29.271   6.705
 3961POPC   C3B51861   2.958  29.242   7.147
 3961POPC   C4B51862   3.269  29.312   7.420
 3962POPC   NC351863  32.552  39.241   5.613
 3962POPC   PO451864  32.136  39.586   5.284
 3962POPC   GL151865  32.064  39.373   5.751
 3962POPC   GL251866  32.027  38.991   5.769
 3962POPC   C1A51867  32.232  39.267   6.177
 3962POPC   D2A51868  32.345  39.011   6.556
 3962POPC   C3A51869  32.387  39.303   6.899
 3962POPC   C4A51870  32.069  39.550   7.126
 3962POPC   C1B51871  32.000  38.803   6.168
 3962POPC   C2B51872  31.836  38.838   6.586
 3962POPC   C3B51873  32.062  38.923   6.981
 3962POPC   C4B51874  31.869  39.038   7.367
 3963POPC   NC351875  12.588  32.347   5.369
 3963POPC   PO451876  13.210  31.985   5.541
 3963POPC   GL151877  12.978  32.321   5.756
 3963POPC   GL251878  12.667  32.129   5.826
 3963POPC   C1A51879  12.953  32.384   6.213
 3963POPC   D2A51880  12.805  32.143   6.570
 3963POPC   C3A51881  12.993  32.191   6.946
 3963POPC   C4A51882  12.958  32.537   7.209
 3963POPC   C1B51883  12.432  32.100   6.216
 3963POPC   C2B51884  12.283  32.118   6.675
 3963POPC   C3B51885  12.501  32.066   7.103
 3963POPC   C4B51886  12.448  31.988   7.566
 3964POPC   NC351887  30.975  30.104   5.360
 3964POPC   PO451888  30.814  29.459   5.369
 3964POPC   GL151889  30.643  29.790   5.620
 3964POPC   GL251890  30.943  29.847   5.793
 3964POPC   C1A51891  30.552  29.817   6.070
 3964POPC   D2A51892  30.588  29.801   6.510
 3964POPC   C3A51893  30.339  30.100   6.753
 3964POPC   C4A51894  30.265  30.077   7.172
 3964POPC   C1B51895  31.024  30.007   6.241
 3964POPC   C2B51896  31.248  29.900   6.641
 3964POPC   C3B51897  31.205  29.960   7.093
 3964POPC   C4B51898  30.883  29.750   7.358
 3965POPC   NC351899  14.029  33.187   5.295
 3965POPC   PO451900  14.675  33.310   5.500
 3965POPC   GL151901  14.639  33.145   5.889
 3965POPC   GL251902  14.976  33.199   5.956
 3965POPC   C1A51903  14.291  32.987   6.134
 3965POPC   D2A51904  14.112  32.818   6.508
 3965POPC   C3A51905  14.263  33.000   6.908
 3965POPC   C4A51906  14.094  33.000   7.329
 3965POPC   C1B51907  14.843  33.166   6.362
 3965POPC   C2B51908  14.883  33.331   6.746
 3965POPC   C3B51909  14.924  33.128   7.117
 3965POPC   C4B51910  14.609  32.893   7.304
 3966POPC   NC351911  14.842  40.573   5.490
 3966POPC   PO451912  14.927  41.200   5.411
 3966POPC   GL151913  15.036  41.108   5.878
 3966POPC   GL251914  15.062  40.772   5.888
 3966POPC   C1A51915  15.191  40.921   6.340
 3966POPC   D2A51916  15.275  40.795   6.788
 3966POPC   C3A51917  15.294  41.121   7.128
 3966POPC   C4A51918  15.498  41.125   7.536
 3966POPC   C1B51919  14.968  40.470   6.206
 3966POPC   C2B51920  14.843  40.501   6.641
 3966POPC   C3B51921  15.047  40.365   7.025
 3966POPC   C4B51922  15.296  40.624   7.300
 3967POPC   NC351923  29.835   2.936   5.542
 3967POPC   PO451924  30.231   2.414   5.408
 3967POPC   GL151925  30.096   2.615   5.843
 3967POPC   GL251926  29.721   2.649   5.958
 3967POPC   C1A51927  30.096   2.595   6.310
 3967POPC   D2A51928  29.763   2.657   6.630
 3967POPC   C3A51929  29.921   2.557   7.025
 3967POPC   C4A51930  30.147   2.569   7.386
 3967POPC   C1B51931  29.727   3.023   6.248
 3967POPC   C2B51932  29.672   3.195   6.673
 3967POPC   C3B51933  29.666   3.001   7.110
 3967POPC   C4B51934  29.575   3.090   7.646
 3968POPC   NC351935  22.516  33.304   5.736
 3968POPC   PO451936  22.051  33.725   5.461
 3968POPC   GL151937  22.184  33.873   5.860
 3968POPC   GL251938  22.527  33.822   5.825
 3968POPC   C1A51939  22.249  33.747   6.270
 3968POPC   D2A51940  22.086  33.804   6.675
 3968POPC   C3A51941  22.204  33.571   7.049
 3968POPC   C4A51942  22.077  33.953   7.252
 3968POPC   C1B51943  22.700  34.010   6.174
 3968POPC   C2B51944  22.511  34.115   6.563
 3968POPC   C3B51945  22.496  33.995   6.988
 3968POPC   C4B51946  22.559  33.994   7.453
 3969POPC   NC351947  24.259  27.888   5.656
 3969POPC   PO451948  24.648  27.513   5.260
 3969POPC   GL151949  24.576  27.458   5.749
 3969POPC   GL251950  24.269  27.405   5.949
 3969POPC   C1A51951  24.719  27.512   6.220
 3969POPC   D2A51952  24.697  27.727   6.649
 3969POPC   C3A51953  24.497  27.668   7.061
 3969POPC   C4A51954  24.455  27.558   7.499
 3969POPC   C1B51955  24.362  27.141   6.293
 3969POPC   C2B51956  24.209  27.198   6.696
 3969POPC   C3B51957  24.278  27.209   7.147
 3969POPC   C4B51958  23.990  27.260   7.485
 3970POPC   NC351959  37.519  24.675   5.202
 3970POPC   PO451960  37.792  24.073   5.359
 3970POPC   GL151961  37.570  24.355   5.725
 3970POPC   GL251962  37.709  24.718   5.766
 3970POPC   C1A51963  37.595  24.469   6.221
 3970POPC   D2A51964  37.580  24.426   6.698
 3970POPC   C3A51965  37.935  24.540   6.979
 3970POPC   C4A51966  37.790  24.613   7.432
 3970POPC   C1B51967  37.762  24.970   6.171
 3970POPC   C2B51968  37.788  24.890   6.611
 3970POPC   C3B51969  37.538  24.830   6.995
 3970POPC   C4B51970  37.524  25.037   7.323
 3971POPC   NC351971  22.524   4.356   5.606
 3971POPC   PO451972  22.059   4.689   5.348
 3971POPC   GL151973  22.025   4.477   5.730
 3971POPC   GL251974  22.075   4.102   5.728
 3971POPC   C1A51975  22.061   4.557   6.176
 3971POPC   D2A51976  22.161   4.353   6.573
 3971POPC   C3A51977  22.077   4.481   6.987
 3971POPC   C4A51978  22.299   4.316   7.331
 3971POPC   C1B51979  22.258   4.054   6.139
 3971POPC   C2B51980  22.137   3.855   6.532
 3971POPC   C3B51981  22.186   3.955   6.956
 3971POPC   C4B51982  22.484   3.793   7.235
 3972POPC   NC351983  35.828   3.549   5.667
 3972POPC   PO451984  36.400   3.883   5.269
 3972POPC   GL151985  36.341   3.640   5.724
 3972POPC   GL251986  36.454   3.307   5.778
 3972POPC   C1A51987  36.321   3.661   6.205
 3972POPC   D2A51988  36.314   3.844   6.635
 3972POPC   C3A51989  36.109   3.595   6.951
 3972POPC   C4A51990  36.362   3.330   7.214
 3972POPC   C1B51991  36.262   3.167   6.160
 3972POPC   C2B51992  36.004   3.280   6.490
 3972POPC   C3B51993  36.031   3.086   6.874
 3972POPC   C4B51994  35.864   3.144   7.249
 3973POPC   NC351995  15.252  27.419   5.466
 3973POPC   PO451996  14.926  28.020   5.425
 3973POPC   GL151997  15.125  27.793   5.787
 3973POPC   GL251998  15.490  27.832   5.724
 3973POPC   C1A51999  15.049  27.397   6.108
 3973POPC   D2A52000  14.884  27.320   6.554
 3973POPC   C3A52001  15.015  27.475   6.969
 3973POPC   C4A52002  14.926  27.473   7.426
 3973POPC   C1B52003  15.499  27.634   6.137
 3973POPC   C2B52004  15.359  27.500   6.548
 3973POPC   C3B52005  15.539  27.444   6.967
 3973POPC   C4B52006  15.402  27.608   7.315
 3974POPC   NC352007  39.998  16.303   5.624
 3974POPC   PO452008  39.571  15.841   5.355
 3974POPC   GL152009  39.764  15.863   5.805
 3974POPC   GL252010  40.077  15.666   5.867
 3974POPC   C1A52011  39.784  16.005   6.267
 3974POPC   D2A52012  39.955  16.107   6.685
 3974POPC   C3A52013  39.926  15.786   7.015
 3974POPC   C4A52014  39.808  15.630   7.439
 3974POPC   C1B52015  40.277  15.929   6.172
 3974POPC   C2B52016  40.445  15.901   6.587
 3974POPC   C3B52017  40.406  16.156   6.958
 3974POPC   C4B52018  40.074  16.221   7.231
 3975POPC   NC352019  39.486  13.087   5.545
 3975POPC   PO452020  40.133  13.081   5.593
 3975POPC   GL152021  39.876  12.830   5.860
 3975POPC   GL252022  39.594  12.583   5.786
 3975POPC   C1A52023  40.006  12.889   6.262
 3975POPC   D2A52024  40.163  12.695   6.599
 3975POPC   C3A52025  39.852  12.804   6.863
 3975POPC   C4A52026  39.975  12.875   7.256
 3975POPC   C1B52027  39.696  12.430   6.228
 3975POPC   C2B52028  39.863  12.279   6.659
 3975POPC   C3B52029  39.900  12.366   7.128
 3975POPC   C4B52030  40.106  12.466   7.554
 3976POPC   NC352031  41.913   6.630   5.229
 3976POPC   PO452032  41.239   6.705   5.280
 3976POPC   GL152033  41.431   6.515   5.693
 3976POPC   GL252034  41.786   6.432   5.708
 3976POPC   C1A52035  41.590   6.622   6.150
 3976POPC   D2A52036  41.776   6.687   6.591
 3976POPC   C3A52037  41.485   6.770   6.948
 3976POPC   C4A52038  41.610   7.097   7.252
 3976POPC   C1B52039  41.839   6.177   6.077
 3976POPC   C2B52040  41.907   6.177   6.519
 3976POPC   C3B52041  41.731   6.290   6.918
 3976POPC   C4B52042  41.901   6.255   7.301
 3977POPC   NC352043  30.886  33.468   5.139
 3977POPC   PO452044  31.376  33.847   5.495
 3977POPC   GL152045  31.568  33.793   5.858
 3977POPC   GL252046  31.323  33.589   5.978
 3977POPC   C1A52047  31.748  33.935   6.240
 3977POPC   D2A52048  31.787  34.096   6.663
 3977POPC   C3A52049  31.609  33.830   6.951
 3977POPC   C4A52050  31.725  33.789   7.358
 3977POPC   C1B52051  31.243  34.014   6.165
 3977POPC   C2B52052  31.290  33.952   6.570
 3977POPC   C3B52053  31.064  33.842   6.931
 3977POPC   C4B52054  31.147  33.978   7.346
 3978POPC   NC352055  37.055  11.783   5.366
 3978POPC   PO452056  36.622  12.325   5.421
 3978POPC   GL152057  36.821  12.062   5.732
 3978POPC   GL252058  37.121  12.240   5.723
 3978POPC   C1A52059  36.959  11.938   6.154
 3978POPC   D2A52060  37.159  11.924   6.568
 3978POPC   C3A52061  36.969  11.762   6.966
 3978POPC   C4A52062  37.028  11.930   7.359
 3978POPC   C1B52063  37.213  12.429   6.134
 3978POPC   C2B52064  37.063  12.437   6.552
 3978POPC   C3B52065  37.055  12.284   6.968
 3978POPC   C4B52066  36.712  12.341   7.236
 3979POPC   NC352067  26.730   9.307   4.958
 3979POPC   PO452068  27.126   9.074   5.339
 3979POPC   GL152069  27.123   9.097   5.816
 3979POPC   GL252070  27.281   8.814   5.995
 3979POPC   C1A52071  27.167   9.234   6.258
 3979POPC   D2A52072  27.138   9.168   6.688
 3979POPC   C3A52073  26.794   9.215   6.938
 3979POPC   C4A52074  27.020   9.416   7.207
 3979POPC   C1B52075  27.007   8.692   6.355
 3979POPC   C2B52076  26.948   8.710   6.814
 3979POPC   C3B52077  27.172   8.924   7.167
 3979POPC   C4B52078  27.120   8.951   7.607
 3980POPC   NC352079  36.043  32.087   5.233
 3980POPC   PO452080  36.395  32.534   5.617
 3980POPC   GL152081  36.244  32.321   5.966
 3980POPC   GL252082  36.336  31.987   6.024
 3980POPC   C1A52083  36.203  32.339   6.396
 3980POPC   D2A52084  36.331  32.683   6.648
 3980POPC   C3A52085  36.357  32.436   6.956
 3980POPC   C4A52086  35.987  32.287   7.081
 3980POPC   C1B52087  36.244  31.818   6.390
 3980POPC   C2B52088  36.135  31.903   6.788
 3980POPC   C3B52089  36.367  31.965   7.178
 3980POPC   C4B52090  36.358  32.053   7.622
 3981POPC   NC352091  40.016  27.047   5.118
 3981POPC   PO452092  40.105  27.665   5.444
 3981POPC   GL152093  40.030  27.537   5.828
 3981POPC   GL252094  40.363  27.398   5.816
 3981POPC   C1A52095  39.833  27.635   6.241
 3981POPC   D2A52096  39.965  27.851   6.627
 3981POPC   C3A52097  39.806  27.751   7.029
 3981POPC   C4A52098  39.900  27.918   7.444
 3981POPC   C1B52099  40.264  27.312   6.212
 3981POPC   C2B52100  40.103  27.355   6.591
 3981POPC   C3B52101  40.269  27.537   6.935
 3981POPC   C4B52102  40.358  27.152   7.111
 3982POPC   NC352103   1.210   8.762   5.286
 3982POPC   PO452104   1.406   9.353   5.123
 3982POPC   GL152105   1.347   9.137   5.592
 3982POPC   GL252106   1.403   8.855   5.783
 3982POPC   C1A52107   1.066   9.069   6.070
 3982POPC   D2A52108   1.213   9.063   6.529
 3982POPC   C3A52109   1.011   9.190   6.932
 3982POPC   C4A52110   1.157   9.112   7.384
 3982POPC   C1B52111   1.570   8.920   6.178
 3982POPC   C2B52112   1.560   8.685   6.578
 3982POPC   C3B52113   1.407   8.830   6.972
 3982POPC   C4B52114   1.105   8.625   7.200
 3983POPC   NC352115  27.789  22.132   5.409
 3983POPC   PO452116  27.214  22.448   5.600
 3983POPC   GL152117  27.576  22.259   5.851
 3983POPC   GL252118  27.969  22.347   5.829
 3983POPC   C1A52119  27.773  21.974   6.162
 3983POPC   D2A52120  27.907  21.882   6.600
 3983POPC   C3A52121  27.555  21.786   6.885
 3983POPC   C4A52122  27.420  21.828   7.320
 3983POPC   C1B52123  27.822  22.515   6.211
 3983POPC   C2B52124  27.621  22.325   6.584
 3983POPC   C3B52125  27.783  22.230   6.989
 3983POPC   C4B52126  27.605  22.302   7.400
 3984POPC   NC352127  37.150  35.861   5.555
 3984POPC   PO452128  36.978  35.259   5.197
 3984POPC   GL152129  36.966  35.355   5.638
 3984POPC   GL252130  37.175  35.103   5.791
 3984POPC   C1A52131  36.879  35.468   6.099
 3984POPC   D2A52132  36.640  35.627   6.491
 3984POPC   C3A52133  36.641  35.528   6.947
 3984POPC   C4A52134  36.708  35.374   7.392
 3984POPC   C1B52135  37.275  35.164   6.221
 3984POPC   C2B52136  36.962  35.180   6.544
 3984POPC   C3B52137  36.965  35.131   6.969
 3984POPC   C4B52138  37.137  35.480   7.168
 3985POPC   NC352139  16.001  23.699   5.270
 3985POPC   PO452140  16.332  23.246   5.588
 3985POPC   GL152141  16.008  23.457   5.799
 3985POPC   GL252142  15.965  23.834   5.795
 3985POPC   C1A52143  15.792  23.512   6.184
 3985POPC   D2A52144  15.688  23.894   6.426
 3985POPC   C3A52145  15.595  23.834   6.866
 3985POPC   C4A52146  15.761  23.535   7.203
 3985POPC   C1B52147  16.211  23.818   6.187
 3985POPC   C2B52148  16.121  23.649   6.604
 3985POPC   C3B52149  16.226  23.613   7.032
 3985POPC   C4B52150  16.011  23.986   7.078
 3986POPC   NC352151   2.668  30.250   5.599
 3986POPC   PO452152   2.862  30.709   5.140
 3986POPC   GL152153   2.907  30.706   5.648
 3986POPC   GL252154   2.540  30.688   5.817
 3986POPC   C1A52155   2.940  30.759   6.136
 3986POPC   D2A52156   2.610  30.851   6.481
 3986POPC   C3A52157   2.792  30.843   6.912
 3986POPC   C4A52158   3.145  30.945   7.211
 3986POPC   C1B52159   2.558  30.414   6.213
 3986POPC   C2B52160   2.769  30.392   6.645
 3986POPC   C3B52161   2.628  30.270   7.048
 3986POPC   C4B52162   2.960  30.484   7.249
 3987POPC   NC352163   6.688  36.036   5.397
 3987POPC   PO452164   5.944  36.062   5.450
 3987POPC   GL152165   6.296  36.021   5.764
 3987POPC   GL252166   6.684  36.084   5.882
 3987POPC   C1A52167   6.309  36.128   6.204
 3987POPC   D2A52168   6.638  36.168   6.507
 3987POPC   C3A52169   6.475  36.193   6.879
 3987POPC   C4A52170   6.617  36.165   7.255
 3987POPC   C1B52171   6.952  36.360   6.133
 3987POPC   C2B52172   7.055  36.499   6.556
 3987POPC   C3B52173   6.874  36.546   6.972
 3987POPC   C4B52174   7.013  36.486   7.400
 3988POPC   NC352175  29.323  33.044   5.444
 3988POPC   PO452176  28.647  33.011   5.637
 3988POPC   GL152177  28.969  32.859   5.837
 3988POPC   GL252178  29.234  33.087   5.951
 3988POPC   C1A52179  28.948  32.803   6.265
 3988POPC   D2A52180  29.275  32.868   6.530
 3988POPC   C3A52181  29.027  32.800   6.881
 3988POPC   C4A52182  28.978  32.925   7.292
 3988POPC   C1B52183  29.544  33.272   6.246
 3988POPC   C2B52184  29.612  33.326   6.675
 3988POPC   C3B52185  29.311  33.211   6.973
 3988POPC   C4B52186  29.216  33.361   7.407
 3989POPC   NC352187  30.736   2.536   5.373
 3989POPC   PO452188  30.697   3.150   5.626
 3989POPC   GL152189  30.595   2.819   5.936
 3989POPC   GL252190  30.581   2.458   5.854
 3989POPC   C1A52191  30.585   2.824   6.400
 3989POPC   D2A52192  30.500   2.654   6.800
 3989POPC   C3A52193  30.724   2.963   7.058
 3989POPC   C4A52194  31.098   3.206   7.145
 3989POPC   C1B52195  30.591   2.349   6.272
 3989POPC   C2B52196  30.923   2.410   6.565
 3989POPC   C3B52197  30.943   2.393   6.995
 3989POPC   C4B52198  30.637   2.520   7.294
 3990POPC   NC352199  29.723  37.195   5.434
 3990POPC   PO452200  29.015  37.081   5.372
 3990POPC   GL152201  29.065  37.048   5.806
 3990POPC   GL252202  29.353  36.811   5.778
 3990POPC   C1A52203  29.128  36.862   6.221
 3990POPC   D2A52204  28.928  36.662   6.523
 3990POPC   C3A52205  29.123  36.831   6.865
 3990POPC   C4A52206  28.864  36.826   7.190
 3990POPC   C1B52207  29.494  37.168   6.066
 3990POPC   C2B52208  29.434  37.200   6.521
 3990POPC   C3B52209  29.496  37.232   6.989
 3990POPC   C4B52210  29.349  37.131   7.414
 3991POPC   NC352211  38.610  37.543   5.481
 3991POPC   PO452212  38.426  38.142   5.278
 3991POPC   GL152213  38.338  37.917   5.717
 3991POPC   GL252214  38.055  37.748   5.817
 3991POPC   C1A52215  38.502  37.702   6.097
 3991POPC   D2A52216  38.481  37.779   6.520
 3991POPC   C3A52217  38.719  37.557   6.833
 3991POPC   C4A52218  38.615  37.518   7.246
 3991POPC   C1B52219  38.101  37.977   6.169
 3991POPC   C2B52220  38.049  38.065   6.595
 3991POPC   C3B52221  38.235  37.935   6.959
 3991POPC   C4B52222  38.268  38.115   7.331
 3992POPC   NC352223  14.567  30.125   5.473
 3992POPC   PO452224  13.954  29.892   5.272
 3992POPC   GL152225  14.113  29.725   5.705
 3992POPC   GL252226  14.454  29.770   5.831
 3992POPC   C1A52227  14.126  29.638   6.189
 3992POPC   D2A52228  14.310  29.804   6.583
 3992POPC   C3A52229  14.197  29.784   7.028
 3992POPC   C4A52230  14.276  30.057   7.399
 3992POPC   C1B52231  14.686  29.785   6.196
 3992POPC   C2B52232  14.815  29.921   6.586
 3992POPC   C3B52233  14.757  30.054   7.002
 3992POPC   C4B52234  14.831  29.680   7.187
 3993POPC   NC352235  10.802  34.646   5.610
 3993POPC   PO452236  10.315  34.253   5.358
 3993POPC   GL152237  10.417  34.434   5.811
 3993POPC   GL252238  10.400  34.854   5.835
 3993POPC   C1A52239  10.605  34.521   6.237
 3993POPC   D2A52240  10.429  34.631   6.634
 3993POPC   C3A52241  10.575  34.648   7.073
 3993POPC   C4A52242  10.438  34.575   7.512
 3993POPC   C1B52243  10.636  35.043   6.232
 3993POPC   C2B52244  10.782  35.019   6.694
 3993POPC   C3B52245  10.746  35.110   7.157
 3993POPC   C4B52246  10.715  35.040   7.595
 3994POPC   NC352247  28.869  21.561   5.300
 3994POPC   PO452248  29.467  21.239   5.477
 3994POPC   GL152249  29.142  21.438   5.719
 3994POPC   GL252250  29.275  21.707   5.885
 3994POPC   C1A52251  28.934  21.404   6.141
 3994POPC   D2A52252  29.036  21.223   6.558
 3994POPC   C3A52253  28.986  21.474   6.948
 3994POPC   C4A52254  29.172  21.596   7.359
 3994POPC   C1B52255  29.436  21.289   6.123
 3994POPC   C2B52256  29.480  20.959   6.440
 3994POPC   C3B52257  29.424  21.064   6.865
 3994POPC   C4B52258  29.564  21.129   7.261
 3995POPC   NC352259  17.373  42.711   5.069
 3995POPC   PO452260  17.771  43.175   5.401
 3995POPC   GL152261  17.615  43.090   5.779
 3995POPC   GL252262  17.582  43.449   5.820
 3995POPC   C1A52263  17.494  43.014   6.193
 3995POPC   D2A52264  17.639  43.067   6.605
 3995POPC   C3A52265  17.346  42.927   6.910
 3995POPC   C4A52266  17.527  42.930   7.287
 3995POPC   C1B52267  17.359  43.532   6.185
 3995POPC   C2B52268  17.490  43.541   6.602
 3995POPC   C3B52269  17.438  43.401   7.024
 3995POPC   C4B52270  17.406  43.636   7.391
 3996POPC   NC352271   1.590   3.850   5.472
 3996POPC   PO452272   2.165   3.428   5.385
 3996POPC   GL152273   2.116   3.381   5.827
 3996POPC   GL252274   1.760   3.341   5.918
 3996POPC   C1A52275   2.010   3.598   6.255
 3996POPC   D2A52276   1.789   3.594   6.601
 3996POPC   C3A52277   2.111   3.672   6.876
 3996POPC   C4A52278   2.271   3.521   7.224
 3996POPC   C1B52279   2.036   3.113   6.241
 3996POPC   C2B52280   2.122   3.208   6.629
 3996POPC   C3B52281   1.944   3.166   6.991
 3996POPC   C4B52282   1.681   3.461   7.098
 3997POPC   NC352283   4.224  30.110   5.261
 3997POPC   PO452284   4.364  30.727   5.320
 3997POPC   GL152285   4.326  30.499   5.706
 3997POPC   GL252286   4.678  30.340   5.734
 3997POPC   C1A52287   4.067  30.560   6.112
 3997POPC   D2A52288   4.178  30.741   6.518
 3997POPC   C3A52289   3.953  30.651   6.888
 3997POPC   C4A52290   4.256  30.593   7.187
 3997POPC   C1B52291   4.616  30.601   6.128
 3997POPC   C2B52292   4.790  30.672   6.507
 3997POPC   C3B52293   4.691  30.568   6.876
 3997POPC   C4B52294   4.720  30.435   7.248
 3998POPC   NC352295  43.374   6.153   5.632
 3998POPC   PO452296  43.864   5.861   5.233
 3998POPC   GL152297  43.982   5.906   5.686
 3998POPC   GL252298  43.973   6.258   5.675
 3998POPC   C1A52299  43.769   5.827   6.130
 3998POPC   D2A52300  43.526   5.725   6.546
 3998POPC   C3A52301  43.621   5.936   6.939
 3998POPC   C4A52302  43.870   5.804   7.317
 3998POPC   C1B52303  44.117   6.211   6.116
 3998POPC   C2B52304  43.934   6.112   6.535
 3998POPC   C3B52305  44.126   6.011   6.934
 3998POPC   C4B52306  44.292   6.202   7.276
 3999POPC   NC352307   6.038  35.659   5.246
 3999POPC   PO452308   5.648  35.108   5.405
 3999POPC   GL152309   5.818  35.263   5.824
 3999POPC   GL252310   5.940  35.639   5.801
 3999POPC   C1A52311   5.596  35.301   6.230
 3999POPC   D2A52312   5.673  35.545   6.581
 3999POPC   C3A52313   5.581  35.367   6.961
 3999POPC   C4A52314   5.798  35.170   7.257
 3999POPC   C1B52315   6.080  35.673   6.240
 3999POPC   C2B52316   6.197  35.774   6.660
 3999POPC   C3B52317   6.114  35.453   6.983
 3999POPC   C4B52318   6.172  35.459   7.465
 4000POPC   NC352319  44.498  24.872   5.429
 4000POPC   PO452320  44.387  24.164   5.518
 4000POPC   GL152321  44.625  24.444   5.850
 4000POPC   GL252322  44.681  24.821   5.900
 4000POPC   C1A52323  44.800  24.468   6.285
 4000POPC   D2A52324  44.997  24.261   6.672
 4000POPC   C3A52325  44.729  24.386   7.057
 4000POPC   C4A52326  44.668  24.473   7.510
 4000POPC   C1B52327  44.453  24.949   6.283
 4000POPC   C2B52328  44.494  24.843   6.740
 4000POPC   C3B52329  44.403  24.820   7.177
 4000POPC   C4B52330  44.474  24.929   7.629
 4001POPC   NC352331   8.736   0.381   5.410
 4001POPC   PO452332   9.311   0.072   5.573
 4001POPC   GL152333   9.169   0.400   5.880
 4001POPC   GL252334   8.816   0.491   5.896
 4001POPC   C1A52335   9.218   0.415   6.335
 4001POPC   D2A52336   9.385   0.337   6.743
 4001POPC   C3A52337   9.295   0.506   7.174
 4001POPC   C4A52338   9.322   0.673   7.614
 4001POPC   C1B52339   8.582   0.524   6.259
 4001POPC   C2B52340   8.610   0.701   6.660
 4001POPC   C3B52341   8.562   0.533   7.077
 4001POPC   C4B52342   8.855   0.566   7.418
 4002POPC   NC352343  36.428   6.194   5.361
 4002POPC   PO452344  35.992   5.644   5.413
 4002POPC   GL152345  36.122   5.910   5.760
 4002POPC   GL252346  35.815   5.935   5.968
 4002POPC   C1A52347  36.257   6.077   6.161
 4002POPC   D2A52348  36.373   5.826   6.524
 4002POPC   C3A52349  36.125   5.779   6.886
 4002POPC   C4A52350  36.315   5.852   7.264
 4002POPC   C1B52351  35.851   5.905   6.421
 4002POPC   C2B52352  35.613   5.718   6.719
 4002POPC   C3B52353  35.647   5.645   7.136
 4002POPC   C4B52354  35.840   5.672   7.543
 4003POPC   NC352355  30.187  44.653   5.325
 4003POPC   PO452356  29.636  44.357   5.423
 4003POPC   GL152357  29.785  44.592   5.804
 4003POPC   GL252358  30.168  44.652   5.849
 4003POPC   C1A52359  29.850  44.669   6.258
 4003POPC   D2A52360  30.181  44.497   6.517
 4003POPC   C3A52361  30.024  44.506   6.927
 4003POPC   C4A52362  29.698  44.552   7.223
 4003POPC   C1B52363  30.266  44.956   6.217
 4003POPC   C2B52364  30.125  44.976   6.696
 4003POPC   C3B52365  30.038  44.999   7.177
 4003POPC   C4B52366  30.141  44.981   7.696
 4004POPC   NC352367  22.050  24.775   5.454
 4004POPC   PO452368  22.337  24.162   5.369
 4004POPC   GL152369  22.174  24.387   5.776
 4004POPC   GL252370  22.272  24.732   5.910
 4004POPC   C1A52371  22.048  24.253   6.189
 4004POPC   D2A52372  22.260  24.205   6.607
 4004POPC   C3A52373  22.045  24.202   6.984
 4004POPC   C4A52374  21.913  24.591   7.145
 4004POPC   C1B52375  22.314  24.666   6.371
 4004POPC   C2B52376  22.273  24.787   6.817
 4004POPC   C3B52377  22.290  24.891   7.296
 4004POPC   C4B52378  22.236  25.011   7.736
 4005POPC   NC352379  10.606  23.924   5.450
 4005POPC   PO452380  10.178  23.455   5.443
 4005POPC   GL152381  10.329  23.616   5.864
 4005POPC   GL252382  10.679  23.720   5.899
 4005POPC   C1A52383  10.301  23.458   6.318
 4005POPC   D2A52384  10.221  23.636   6.753
 4005POPC   C3A52385  10.289  23.489   7.155
 4005POPC   C4A52386  10.282  23.780   7.511
 4005POPC   C1B52387  10.578  23.904   6.251
 4005POPC   C2B52388  10.674  23.726   6.567
 4005POPC   C3B52389  10.868  23.703   6.870
 4005POPC   C4B52390  10.711  23.743   7.217
 4006POPC   NC352391  33.976  20.759   5.335
 4006POPC   PO452392  33.420  20.315   5.343
 4006POPC   GL152393  33.712  20.502   5.668
 4006POPC   GL252394  33.658  20.888   5.720
 4006POPC   C1A52395  33.892  20.434   6.070
 4006POPC   D2A52396  33.809  20.144   6.417
 4006POPC   C3A52397  33.943  20.288   6.808
 4006POPC   C4A52398  33.702  20.267   7.198
 4006POPC   C1B52399  33.884  20.945   6.105
 4006POPC   C2B52400  33.823  20.783   6.524
 4006POPC   C3B52401  33.720  20.726   6.952
 4006POPC   C4B52402  34.057  20.638   7.244
 4007POPC   NC352403  36.632  20.613   5.301
 4007POPC   PO452404  37.314  20.626   5.333
 4007POPC   GL152405  37.095  20.474   5.699
 4007POPC   GL252406  36.832  20.696   5.760
 4007POPC   C1A52407  37.164  20.490   6.154
 4007POPC   D2A52408  37.165  20.263   6.562
 4007POPC   C3A52409  37.073  20.519   6.935
 4007POPC   C4A52410  37.306  20.841   7.197
 4007POPC   C1B52411  36.653  20.565   6.151
 4007POPC   C2B52412  36.653  20.374   6.576
 4007POPC   C3B52413  36.520  20.410   6.997
 4007POPC   C4B52414  36.719  20.694   7.261
 4008POPC   NC352415  34.030   2.177   5.387
 4008POPC   PO452416  33.593   1.705   5.472
 4008POPC   GL152417  33.748   1.679   5.891
 4008POPC   GL252418  34.077   1.776   5.774
 4008POPC   C1A52419  33.776   1.767   6.348
 4008POPC   D2A52420  33.636   2.111   6.636
 4008POPC   C3A52421  33.735   2.076   7.071
 4008POPC   C4A52422  33.647   1.733   7.331
 4008POPC   C1B52423  33.906   2.160   6.033
 4008POPC   C2B52424  34.052   2.315   6.439
 4008POPC   C3B52425  34.151   2.316   6.896
 4008POPC   C4B52426  34.205   2.216   7.356
 4009POPC   NC352427   6.504  16.266   5.262
 4009POPC   PO452428   6.901  15.882   5.559
 4009POPC   GL152429   6.764  16.104   5.927
 4009POPC   GL252430   6.613  15.793   6.029
 4009POPC   C1A52431   6.700  16.169   6.378
 4009POPC   D2A52432   6.769  16.263   6.799
 4009POPC   C3A52433   6.704  16.023   7.167
 4009POPC   C4A52434   6.758  16.010   7.634
 4009POPC   C1B52435   6.966  15.742   6.332
 4009POPC   C2B52436   6.958  15.688   6.791
 4009POPC   C3B52437   6.742  15.514   7.149
 4009POPC   C4B52438   6.433  15.643   7.460
 4010POPC   NC352439  32.985   2.115   5.393
 4010POPC   PO452440  32.775   1.529   5.594
 4010POPC   GL152441  33.122   1.805   5.789
 4010POPC   GL252442  32.908   2.088   5.910
 4010POPC   C1A52443  33.357   2.005   6.151
 4010POPC   D2A52444  33.110   2.187   6.516
 4010POPC   C3A52445  33.210   2.056   6.944
 4010POPC   C4A52446  33.310   2.093   7.372
 4010POPC   C1B52447  32.912   1.774   6.253
 4010POPC   C2B52448  32.753   1.800   6.639
 4010POPC   C3B52449  32.730   1.587   7.010
 4010POPC   C4B52450  32.820   1.911   7.259
 4011POPC   NC352451  32.930   0.138   5.337
 4011POPC   PO452452  33.065  44.478   5.415
 4011POPC   GL152453  33.028  44.443   5.853
 4011POPC   GL252454  33.133  44.814   5.807
 4011POPC   C1A52455  32.911  44.644   6.272
 4011POPC   D2A52456  32.724  44.528   6.687
 4011POPC   C3A52457  32.915  44.651   7.087
 4011POPC   C4A52458  33.170  44.435   7.368
 4011POPC   C1B52459  33.296  44.986   6.178
 4011POPC   C2B52460  33.404  44.885   6.622
 4011POPC   C3B52461  33.402  44.824   7.068
 4011POPC   C4B52462  33.236  44.912   7.476
 4012POPC   NC352463   6.158  33.184   5.146
 4012POPC   PO452464   5.743  32.664   5.336
 4012POPC   GL152465   5.715  32.990   5.712
 4012POPC   GL252466   5.404  33.004   5.930
 4012POPC   C1A52467   5.823  33.227   6.143
 4012POPC   D2A52468   5.667  33.341   6.572
 4012POPC   C3A52469   5.926  33.296   6.966
 4012POPC   C4A52470   5.763  33.193   7.375
 4012POPC   C1B52471   5.709  32.727   6.132
 4012POPC   C2B52472   5.842  32.820   6.533
 4012POPC   C3B52473   5.901  32.785   6.980
 4012POPC   C4B52474   6.034  32.505   7.285
 4013POPC   NC352475  11.419  44.916   5.421
 4013POPC   PO452476  11.206  44.275   5.377
 4013POPC   GL152477  11.180  44.506   5.755
 4013POPC   GL252478  10.994  44.835   5.711
 4013POPC   C1A52479  11.368  44.547   6.169
 4013POPC   D2A52480  11.396  44.875   6.474
 4013POPC   C3A52481  11.357  44.694   6.834
 4013POPC   C4A52482  11.349  44.367   7.085
 4013POPC   C1B52483  10.998  44.915   6.147
 4013POPC   C2B52484  10.810  44.709   6.518
 4013POPC   C3B52485  10.870  44.621   6.974
 4013POPC   C4B52486  11.096  44.902   7.264
 4014POPC   NC352487   6.179  39.028   5.246
 4014POPC   PO452488   5.867  39.621   5.382
 4014POPC   GL152489   5.869  39.218   5.659
 4014POPC   GL252490   5.530  39.015   5.674
 4014POPC   C1A52491   6.095  39.188   6.061
 4014POPC   D2A52492   6.126  39.414   6.471
 4014POPC   C3A52493   6.155  39.210   6.870
 4014POPC   C4A52494   5.771  39.165   7.109
 4014POPC   C1B52495   5.576  39.117   6.137
 4014POPC   C2B52496   5.722  38.981   6.572
 4014POPC   C3B52497   5.435  38.829   6.910
 4014POPC   C4B52498   5.345  38.923   7.339
 4015POPC   NC352499  10.887  22.241   5.209
 4015POPC   PO452500  10.330  21.918   5.484
 4015POPC   GL152501  10.538  21.842   5.841
 4015POPC   GL252502  10.253  21.644   5.904
 4015POPC   C1A52503  10.726  22.094   6.169
 4015POPC   D2A52504  10.619  22.484   6.409
 4015POPC   C3A52505  10.521  22.431   6.856
 4015POPC   C4A52506  10.753  22.418   7.237
 4015POPC   C1B52507  10.333  21.700   6.323
 4015POPC   C2B52508  10.523  21.935   6.610
 4015POPC   C3B52509  10.294  21.950   6.945
 4015POPC   C4B52510  10.531  21.965   7.254
 4016POPC   NC352511  31.200  18.882   5.380
 4016POPC   PO452512  30.529  18.973   5.437
 4016POPC   GL152513  30.786  19.125   5.722
 4016POPC   GL252514  30.957  18.842   5.836
 4016POPC   C1A52515  30.650  19.319   6.083
 4016POPC   D2A52516  30.566  19.057   6.405
 4016POPC   C3A52517  30.726  19.050   6.807
 4016POPC   C4A52518  30.577  19.163   7.197
 4016POPC   C1B52519  31.032  18.810   6.307
 4016POPC   C2B52520  31.107  18.718   6.747
 4016POPC   C3B52521  30.942  18.722   7.198
 4016POPC   C4B52522  30.925  18.541   7.631
 4017POPC   NC352523   8.967  16.817   5.167
 4017POPC   PO452524   9.265  16.400   5.483
 4017POPC   GL152525   9.020  16.738   5.704
 4017POPC   GL252526   8.675  16.570   5.742
 4017POPC   C1A52527   9.119  16.963   6.112
 4017POPC   D2A52528   9.211  16.824   6.552
 4017POPC   C3A52529   8.909  16.955   6.870
 4017POPC   C4A52530   8.690  17.041   7.249
 4017POPC   C1B52531   8.881  16.489   6.155
 4017POPC   C2B52532   8.910  16.371   6.604
 4017POPC   C3B52533   8.997  16.485   7.043
 4017POPC   C4B52534   8.912  16.514   7.490
 4018POPC   NC352535  12.949  41.002   5.423
 4018POPC   PO452536  12.795  40.341   5.201
 4018POPC   GL152537  12.935  40.540   5.687
 4018POPC   GL252538  12.847  40.878   5.898
 4018POPC   C1A52539  13.106  40.527   6.165
 4018POPC   D2A52540  13.237  40.381   6.607
 4018POPC   C3A52541  12.912  40.359   6.941
 4018POPC   C4A52542  12.728  40.603   7.255
 4018POPC   C1B52543  12.627  41.004   6.308
 4018POPC   C2B52544  12.657  40.780   6.723
 4018POPC   C3B52545  13.039  40.881   6.969
 4018POPC   C4B52546  13.130  41.317   7.140
 4019POPC   NC352547  20.366  31.813   5.640
 4019POPC   PO452548  20.576  31.353   5.231
 4019POPC   GL152549  20.722  31.346   5.695
 4019POPC   GL252550  20.772  31.646   5.897
 4019POPC   C1A52551  20.894  31.178   6.120
 4019POPC   D2A52552  21.088  31.360   6.544
 4019POPC   C3A52553  20.792  31.491   6.876
 4019POPC   C4A52554  20.675  31.385   7.322
 4019POPC   C1B52555  20.638  31.546   6.338
 4019POPC   C2B52556  20.327  31.456   6.681
 4019POPC   C3B52557  20.228  31.481   7.136
 4019POPC   C4B52558  20.369  31.756   7.542
 4020POPC   NC352559  35.595  14.913   5.357
 4020POPC   PO452560  35.139  15.280   5.316
 4020POPC   GL152561  35.370  15.168   5.717
 4020POPC   GL252562  35.113  15.060   5.933
 4020POPC   C1A52563  35.633  15.275   6.089
 4020POPC   D2A52564  35.758  15.147   6.519
 4020POPC   C3A52565  35.637  15.042   6.940
 4020POPC   C4A52566  35.295  15.101   7.217
 4020POPC   C1B52567  35.010  14.840   6.315
 4020POPC   C2B52568  35.216  14.997   6.660
 4020POPC   C3B52569  35.013  15.336   6.867
 4020POPC   C4B52570  34.784  15.255   7.236
 4021POPC   NC352571  18.048  12.163   5.639
 4021POPC   PO452572  18.691  12.324   5.386
 4021POPC   GL152573  18.531  12.186   5.830
 4021POPC   GL252574  18.383  11.826   5.855
 4021POPC   C1A52575  18.346  12.282   6.262
 4021POPC   D2A52576  18.104  12.173   6.670
 4021POPC   C3A52577  18.042  12.503   6.991
 4021POPC   C4A52578  18.390  12.675   7.201
 4021POPC   C1B52579  18.235  11.782   6.288
 4021POPC   C2B52580  18.101  11.617   6.680
 4021POPC   C3B52581  18.264  11.629   7.055
 4021POPC   C4B52582  18.220  12.047   7.212
 4022POPC   NC352583   6.652  37.007   5.285
 4022POPC   PO452584   6.393  36.387   5.297
 4022POPC   GL152585   6.408  36.740   5.664
 4022POPC   GL252586   6.785  36.808   5.763
 4022POPC   C1A52587   6.441  36.904   6.122
 4022POPC   D2A52588   6.568  36.685   6.515
 4022POPC   C3A52589   6.357  36.700   6.924
 4022POPC   C4A52590   6.539  36.852   7.278
 4022POPC   C1B52591   6.965  36.888   6.208
 4022POPC   C2B52592   6.950  37.006   6.684
 4022POPC   C3B52593   7.029  37.011   7.177
 4022POPC   C4B52594   7.069  37.299   7.563
 4023POPC   NC352595  17.031  10.261   5.457
 4023POPC   PO452596  16.510  10.691   5.457
 4023POPC   GL152597  16.678  10.586   5.872
 4023POPC   GL252598  16.761  10.252   5.899
 4023POPC   C1A52599  16.685  10.719   6.328
 4023POPC   D2A52600  16.436  10.798   6.716
 4023POPC   C3A52601  16.655  10.713   7.111
 4023POPC   C4A52602  16.797  10.621   7.552
 4023POPC   C1B52603  16.451  10.278   6.261
 4023POPC   C2B52604  16.566  10.301   6.729
 4023POPC   C3B52605  16.768  10.240   7.156
 4023POPC   C4B52606  16.707  10.111   7.574
 4024POPC   NC352607  28.837  37.561   5.483
 4024POPC   PO452608  29.498  37.585   5.538
 4024POPC   GL152609  29.198  37.573   5.890
 4024POPC   GL252610  28.902  37.833   5.958
 4024POPC   C1A52611  29.218  37.644   6.341
 4024POPC   D2A52612  29.190  37.974   6.650
 4024POPC   C3A52613  29.273  37.906   7.044
 4024POPC   C4A52614  29.164  37.561   7.249
 4024POPC   C1B52615  28.775  37.439   6.145
 4024POPC   C2B52616  28.916  37.205   6.528
 4024POPC   C3B52617  28.865  37.287   6.951
 4024POPC   C4B52618  28.644  37.549   7.235
 4025POPC   NC352619   9.168  12.379   5.399
 4025POPC   PO452620   8.665  12.016   5.347
 4025POPC   GL152621   8.928  11.987   5.711
 4025POPC   GL252622   8.820  12.292   5.826
 4025POPC   C1A52623   9.029  12.030   6.192
 4025POPC   D2A52624   8.906  12.190   6.609
 4025POPC   C3A52625   9.002  12.053   7.046
 4025POPC   C4A52626   9.332  11.811   7.247
 4025POPC   C1B52627   8.560  12.313   6.193
 4025POPC   C2B52628   8.494  12.461   6.575
 4025POPC   C3B52629   8.576  12.339   6.986
 4025POPC   C4B52630   8.819  12.450   7.355
 4026POPC   NC352631  14.867  22.101   5.357
 4026POPC   PO452632  14.248  22.392   5.488
 4026POPC   GL152633  14.519  22.197   5.752
 4026POPC   GL252634  14.343  21.880   5.773
 4026POPC   C1A52635  14.654  22.307   6.161
 4026POPC   D2A52636  14.537  22.129   6.550
 4026POPC   C3A52637  14.530  22.434   6.834
 4026POPC   C4A52638  14.680  22.271   7.233
 4026POPC   C1B52639  14.179  22.106   6.158
 4026POPC   C2B52640  14.052  22.304   6.560
 4026POPC   C3B52641  14.156  22.183   6.999
 4026POPC   C4B52642  13.961  22.264   7.371
 4027POPC   NC352643   5.236  10.766   5.447
 4027POPC   PO452644   4.675  10.381   5.320
 4027POPC   GL152645   4.957  10.398   5.774
 4027POPC   GL252646   5.270  10.549   5.910
 4027POPC   C1A52647   4.941  10.392   6.272
 4027POPC   D2A52648   4.877  10.648   6.676
 4027POPC   C3A52649   4.900  10.515   7.113
 4027POPC   C4A52650   5.194  10.687   7.414
 4027POPC   C1B52651   5.463  10.280   6.212
 4027POPC   C2B52652   5.369  10.092   6.624
 4027POPC   C3B52653   5.357  10.298   7.027
 4027POPC   C4B52654   5.432  10.255   7.453
 4028POPC   NC352655  30.034  20.785   5.216
 4028POPC   PO452656  29.645  20.353   5.582
 4028POPC   GL152657  29.919  20.685   5.732
 4028POPC   GL252658  30.283  20.732   5.661
 4028POPC   C1A52659  29.895  20.753   6.170
 4028POPC   D2A52660  29.969  20.895   6.584
 4028POPC   C3A52661  29.870  20.804   6.984
 4028POPC   C4A52662  30.146  21.006   7.276
 4028POPC   C1B52663  30.330  20.500   6.044
 4028POPC   C2B52664  30.132  20.353   6.444
 4028POPC   C3B52665  30.253  20.366   6.879
 4028POPC   C4B52666  30.094  20.464   7.276
 4029POPC   NC352667  43.772  14.589   5.112
 4029POPC   PO452668  44.211  14.687   5.626
 4029POPC   GL152669  43.910  14.765   5.884
 4029POPC   GL252670  43.543  14.780   5.723
 4029POPC   C1A52671  43.992  14.583   6.284
 4029POPC   D2A52672  44.214  14.647   6.664
 4029POPC   C3A52673  43.951  14.479   6.962
 4029POPC   C4A52674  44.011  14.329   7.370
 4029POPC   C1B52675  43.503  14.610   6.126
 4029POPC   C2B52676  43.593  14.818   6.485
 4029POPC   C3B52677  43.511  14.753   6.862
 4029POPC   C4B52678  43.510  14.574   7.230
 4030POPC   NC352679  24.644  22.576   5.311
 4030POPC   PO452680  24.597  21.921   5.261
 4030POPC   GL152681  24.510  22.038   5.691
 4030POPC   GL252682  24.364  22.397   5.735
 4030POPC   C1A52683  24.686  21.969   6.104
 4030POPC   D2A52684  24.717  22.131   6.520
 4030POPC   C3A52685  24.441  21.965   6.831
 4030POPC   C4A52686  24.405  21.806   7.266
 4030POPC   C1B52687  24.636  22.482   6.100
 4030POPC   C2B52688  24.693  22.640   6.534
 4030POPC   C3B52689  24.476  22.522   6.887
 4030POPC   C4B52690  24.404  22.326   7.254
 4031POPC   NC352691  30.593  10.236   5.577
 4031POPC   PO452692  30.957  10.547   5.108
 4031POPC   GL152693  30.933  10.788   5.596
 4031POPC   GL252694  30.639  10.706   5.785
 4031POPC   C1A52695  31.013  10.860   6.100
 4031POPC   D2A52696  30.983  10.653   6.534
 4031POPC   C3A52697  31.065  10.849   6.925
 4031POPC   C4A52698  30.856  10.589   7.238
 4031POPC   C1B52699  30.622  10.517   6.201
 4031POPC   C2B52700  30.435  10.380   6.614
 4031POPC   C3B52701  30.432  10.315   7.078
 4031POPC   C4B52702  30.380  10.668   7.367
 4032POPC   NC352703  26.747  24.624   5.230
 4032POPC   PO452704  26.567  24.050   5.517
 4032POPC   GL152705  26.695  24.174   5.896
 4032POPC   GL252706  27.044  24.166   5.792
 4032POPC   C1A52707  26.635  24.364   6.308
 4032POPC   D2A52708  26.805  24.715   6.547
 4032POPC   C3A52709  26.597  24.729   6.917
 4032POPC   C4A52710  26.551  24.369   7.171
 4032POPC   C1B52711  27.136  24.171   6.241
 4032POPC   C2B52712  27.234  24.436   6.635
 4032POPC   C3B52713  27.052  24.457   7.065
 4032POPC   C4B52714  27.183  24.384   7.512
 4033POPC   NC352715  20.388  10.299   5.541
 4033POPC   PO452716  21.014  10.516   5.787
 4033POPC   GL152717  20.588  10.583   5.917
 4033POPC   GL252718  20.536  10.254   6.011
 4033POPC   C1A52719  20.351  10.592   6.320
 4033POPC   D2A52720  20.538  10.407   6.691
 4033POPC   C3A52721  20.585  10.682   7.001
 4033POPC   C4A52722  20.483  10.557   7.389
 4033POPC   C1B52723  20.860  10.222   6.336
 4033POPC   C2B52724  21.035  10.167   6.757
 4033POPC   C3B52725  20.827  10.275   7.134
 4033POPC   C4B52726  20.891  10.286   7.580
 4034POPC   NC352727  43.010  10.131   5.322
 4034POPC   PO452728  43.474  10.591   5.039
 4034POPC   GL152729  43.361  10.501   5.563
 4034POPC   GL252730  43.313  10.160   5.759
 4034POPC   C1A52731  43.193  10.575   6.055
 4034POPC   D2A52732  42.802  10.522   6.380
 4034POPC   C3A52733  42.844  10.574   6.849
 4034POPC   C4A52734  43.203  10.705   7.096
 4034POPC   C1B52735  43.453  10.135   6.231
 4034POPC   C2B52736  43.393  10.150   6.710
 4034POPC   C3B52737  43.296  10.194   7.163
 4034POPC   C4B52738  43.135  10.108   7.582
 4035POPC   NC352739  18.966  23.219   5.411
 4035POPC   PO452740  19.468  22.851   5.434
 4035POPC   GL152741  19.255  22.873   5.782
 4035POPC   GL252742  18.893  22.923   5.812
 4035POPC   C1A52743  19.304  22.881   6.203
 4035POPC   D2A52744  19.032  22.975   6.541
 4035POPC   C3A52745  19.124  22.811   6.917
 4035POPC   C4A52746  19.329  22.832   7.291
 4035POPC   C1B52747  18.605  23.068   6.147
 4035POPC   C2B52748  18.649  23.335   6.514
 4035POPC   C3B52749  18.795  23.263   6.919
 4035POPC   C4B52750  18.871  23.079   7.302
 4036POPC   NC352751  40.573  27.630   5.393
 4036POPC   PO452752  41.163  27.246   5.344
 4036POPC   GL152753  40.953  27.429   5.726
 4036POPC   GL252754  40.991  27.787   5.708
 4036POPC   C1A52755  40.721  27.614   6.083
 4036POPC   D2A52756  40.638  27.544   6.480
 4036POPC   C3A52757  40.938  27.612   6.767
 4036POPC   C4A52758  40.743  27.485   7.127
 4036POPC   C1B52759  41.098  27.960   6.152
 4036POPC   C2B52760  41.013  28.116   6.584
 4036POPC   C3B52761  41.174  28.020   6.991
 4036POPC   C4B52762  40.982  27.834   7.387
 4037POPC   NC352763   6.348  37.918   5.565
 4037POPC   PO452764   6.747  37.419   5.454
 4037POPC   GL152765   6.818  37.345   5.838
 4037POPC   GL252766   6.673  37.683   5.880
 4037POPC   C1A52767   6.858  37.383   6.264
 4037POPC   D2A52768   6.659  37.493   6.603
 4037POPC   C3A52769   6.519  37.191   6.879
 4037POPC   C4A52770   6.684  37.374   7.241
 4037POPC   C1B52771   6.613  37.890   6.248
 4037POPC   C2B52772   6.891  37.960   6.562
 4037POPC   C3B52773   6.792  37.844   6.968
 4037POPC   C4B52774   7.030  37.760   7.299
 4038POPC   NC352775   7.366  28.389   5.389
 4038POPC   PO452776   7.122  28.993   5.268
 4038POPC   GL152777   7.233  28.805   5.748
 4038POPC   GL252778   7.549  28.568   5.835
 4038POPC   C1A52779   7.284  28.733   6.243
 4038POPC   D2A52780   7.497  28.562   6.632
 4038POPC   C3A52781   7.213  28.354   6.963
 4038POPC   C4A52782   7.032  28.490   7.364
 4038POPC   C1B52783   7.825  28.308   6.146
 4038POPC   C2B52784   7.844  28.124   6.584
 4038POPC   C3B52785   7.763  28.304   7.006
 4038POPC   C4B52786   7.877  28.152   7.409
 4039POPC   NC352787  40.145   0.350   5.354
 4039POPC   PO452788  39.643   0.022   5.481
 4039POPC   GL152789  39.906   0.183   5.808
 4039POPC   GL252790  40.081   0.531   5.839
 4039POPC   C1A52791  39.800   0.245   6.223
 4039POPC   D2A52792  39.826   0.580   6.488
 4039POPC   C3A52793  39.901   0.437   6.888
 4039POPC   C4A52794  39.745   0.157   7.175
 4039POPC   C1B52795  40.305   0.693   6.226
 4039POPC   C2B52796  40.265   0.771   6.687
 4039POPC   C3B52797  40.320   0.649   7.129
 4039POPC   C4B52798  40.376   0.734   7.571
 4040POPC   NC352799  24.816  26.106   5.508
 4040POPC   PO452800  24.184  26.013   5.453
 4040POPC   GL152801  24.258  26.223   5.848
 4040POPC   GL252802  24.625  26.332   5.934
 4040POPC   C1A52803  24.245  26.129   6.305
 4040POPC   D2A52804  24.207  25.764   6.620
 4040POPC   C3A52805  24.340  25.916   7.045
 4040POPC   C4A52806  24.624  26.302   7.081
 4040POPC   C1B52807  24.784  26.127   6.254
 4040POPC   C2B52808  24.647  26.061   6.634
 4040POPC   C3B52809  24.824  25.859   6.912
 4040POPC   C4B52810  24.782  25.673   7.239
 4041POPC   NC352811  11.920   4.707   5.542
 4041POPC   PO452812  11.838   4.096   5.408
 4041POPC   GL152813  11.904   4.237   5.807
 4041POPC   GL252814  11.947   3.898   5.941
 4041POPC   C1A52815  11.935   4.422   6.235
 4041POPC   D2A52816  11.963   4.200   6.633
 4041POPC   C3A52817  12.121   4.440   6.962
 4041POPC   C4A52818  12.094   4.733   7.284
 4041POPC   C1B52819  12.261   4.001   6.267
 4041POPC   C2B52820  12.500   4.010   6.695
 4041POPC   C3B52821  12.531   4.185   7.135
 4041POPC   C4B52822  12.219   4.259   7.496
 4042POPC   NC352823  24.896  32.399   5.100
 4042POPC   PO452824  25.434  32.692   5.423
 4042POPC   GL152825  25.272  32.386   5.719
 4042POPC   GL252826  25.270  32.013   5.663
 4042POPC   C1A52827  25.278  32.351   6.177
 4042POPC   D2A52828  25.318  32.048   6.522
 4042POPC   C3A52829  25.317  32.334   6.875
 4042POPC   C4A52830  25.211  32.482   7.272
 4042POPC   C1B52831  24.978  31.959   6.065
 4042POPC   C2B52832  24.818  32.019   6.515
 4042POPC   C3B52833  24.976  31.956   6.958
 4042POPC   C4B52834  25.343  31.962   7.239
 4043POPC   NC352835  38.429  16.154   5.430
 4043POPC   PO452836  38.100  15.552   5.380
 4043POPC   GL152837  38.330  15.726   5.756
 4043POPC   GL252838  38.706  15.755   5.740
 4043POPC   C1A52839  38.406  16.081   6.083
 4043POPC   D2A52840  38.359  16.330   6.476
 4043POPC   C3A52841  38.402  16.146   6.888
 4043POPC   C4A52842  38.200  16.151   7.297
 4043POPC   C1B52843  38.873  15.850   6.129
 4043POPC   C2B52844  38.706  15.905   6.514
 4043POPC   C3B52845  38.817  15.810   6.913
 4043POPC   C4B52846  38.592  15.855   7.283
 4044POPC   NC352847  36.443   4.465   5.311
 4044POPC   PO452848  35.996   3.978   5.554
 4044POPC   GL152849  36.245   4.303   5.778
 4044POPC   GL252850  36.419   4.129   6.034
 4044POPC   C1A52851  36.091   4.589   6.131
 4044POPC   D2A52852  35.916   4.858   6.491
 4044POPC   C3A52853  35.984   4.669   6.895
 4044POPC   C4A52854  36.254   4.566   7.231
 4044POPC   C1B52855  36.032   4.095   6.250
 4044POPC   C2B52856  35.962   4.208   6.673
 4044POPC   C3B52857  36.045   4.093   7.085
 4044POPC   C4B52858  36.143   4.130   7.488
 4045POPC   NC352859   2.637  34.797   5.304
 4045POPC   PO452860   2.929  34.156   5.538
 4045POPC   GL152861   2.675  34.389   5.839
 4045POPC   GL252862   2.686  34.760   5.833
 4045POPC   C1A52863   2.605  34.492   6.270
 4045POPC   D2A52864   2.547  34.258   6.637
 4045POPC   C3A52865   2.580  34.439   7.040
 4045POPC   C4A52866   2.922  34.563   7.318
 4045POPC   C1B52867   2.843  35.015   6.210
 4045POPC   C2B52868   2.769  35.025   6.682
 4045POPC   C3B52869   2.683  34.973   7.136
 4045POPC   C4B52870   2.879  34.998   7.584
 4046POPC   NC352871  10.847  28.633   5.396
 4046POPC   PO452872  11.580  28.402   5.418
 4046POPC   GL152873  11.386  28.356   5.819
 4046POPC   GL252874  11.185  28.693   5.830
 4046POPC   C1A52875  11.513  28.153   6.244
 4046POPC   D2A52876  11.388  28.289   6.681
 4046POPC   C3A52877  11.624  28.178   7.073
 4046POPC   C4A52878  11.471  28.102   7.492
 4046POPC   C1B52879  11.120  28.474   6.243
 4046POPC   C2B52880  10.843  28.401   6.575
 4046POPC   C3B52881  10.931  28.416   6.974
 4046POPC   C4B52882  11.239  28.505   7.252
 4047POPC   NC352883  15.302  25.764   5.133
 4047POPC   PO452884  14.792  26.134   5.273
 4047POPC   GL152885  15.126  26.161   5.645
 4047POPC   GL252886  15.121  25.832   5.717
 4047POPC   C1A52887  15.298  26.091   6.116
 4047POPC   D2A52888  15.096  26.173   6.517
 4047POPC   C3A52889  15.253  26.074   6.948
 4047POPC   C4A52890  15.453  26.019   7.355
 4047POPC   C1B52891  14.877  25.820   6.125
 4047POPC   C2B52892  14.868  25.689   6.527
 4047POPC   C3B52893  15.023  25.579   6.911
 4047POPC   C4B52894  14.972  25.769   7.290
 4048POPC   NC352895   4.700  37.855   5.289
 4048POPC   PO452896   5.305  37.590   5.301
 4048POPC   GL152897   5.023  37.713   5.673
 4048POPC   GL252898   4.752  37.449   5.621
 4048POPC   C1A52899   4.987  37.847   6.146
 4048POPC   D2A52900   4.864  37.984   6.598
 4048POPC   C3A52901   5.190  37.844   6.936
 4048POPC   C4A52902   5.313  37.417   7.087
 4048POPC   C1B52903   4.792  37.359   6.043
 4048POPC   C2B52904   4.719  37.340   6.472
 4048POPC   C3B52905   4.903  37.225   6.854
 4048POPC   C4B52906   4.731  37.299   7.245
 4049POPC   NC352907   4.656  30.950   5.591
 4049POPC   PO452908   5.190  30.589   5.381
 4049POPC   GL152909   5.241  30.630   5.782
 4049POPC   GL252910   5.252  30.273   5.791
 4049POPC   C1A52911   5.068  30.879   6.127
 4049POPC   D2A52912   5.009  31.142   6.506
 4049POPC   C3A52913   5.082  30.912   6.881
 4049POPC   C4A52914   5.125  30.803   7.322
 4049POPC   C1B52915   5.094  30.359   6.195
 4049POPC   C2B52916   5.262  30.455   6.584
 4049POPC   C3B52917   5.184  30.409   6.996
 4049POPC   C4B52918   5.172  30.302   7.408
 4050POPC   NC352919  23.866  17.521   5.423
 4050POPC   PO452920  23.263  17.895   5.371
 4050POPC   GL152921  23.470  17.638   5.727
 4050POPC   GL252922  23.768  17.782   5.833
 4050POPC   C1A52923  23.625  17.420   6.134
 4050POPC   D2A52924  23.841  17.250   6.493
 4050POPC   C3A52925  23.552  17.339   6.814
 4050POPC   C4A52926  23.622  17.495   7.205
 4050POPC   C1B52927  23.951  17.969   6.191
 4050POPC   C2B52928  23.823  17.785   6.579
 4050POPC   C3B52929  23.776  17.934   6.993
 4050POPC   C4B52930  23.942  18.265   7.281
 4051POPC   NC352931  17.741   2.010   5.409
 4051POPC   PO452932  17.143   2.079   5.138
 4051POPC   GL152933  17.289   2.109   5.642
 4051POPC   GL252934  17.224   1.785   5.806
 4051POPC   C1A52935  17.329   2.137   6.155
 4051POPC   D2A52936  17.641   1.970   6.487
 4051POPC   C3A52937  17.618   2.008   6.953
 4051POPC   C4A52938  17.687   2.161   7.417
 4051POPC   C1B52939  17.037   1.651   6.206
 4051POPC   C2B52940  17.140   1.829   6.582
 4051POPC   C3B52941  17.042   1.759   6.965
 4051POPC   C4B52942  17.241   1.909   7.256
 4052POPC   NC352943  22.680  29.711   5.517
 4052POPC   PO452944  22.611  29.033   5.390
 4052POPC   GL152945  22.886  29.127   5.755
 4052POPC   GL252946  22.761  29.414   5.922
 4052POPC   C1A52947  23.033  29.034   6.184
 4052POPC   D2A52948  22.847  29.015   6.608
 4052POPC   C3A52949  23.071  29.062   6.994
 4052POPC   C4A52950  22.808  28.885   7.305
 4052POPC   C1B52951  22.830  29.505   6.346
 4052POPC   C2B52952  22.865  29.504   6.783
 4052POPC   C3B52953  22.722  29.383   7.197
 4052POPC   C4B52954  22.629  29.276   7.653
 4053POPC   NC352955  10.328  38.257   5.301
 4053POPC   PO452956  10.805  38.718   5.510
 4053POPC   GL152957  10.637  38.318   5.703
 4053POPC   GL252958  10.427  38.457   5.911
 4053POPC   C1A52959  10.797  38.200   6.138
 4053POPC   D2A52960  10.795  38.495   6.508
 4053POPC   C3A52961  10.603  38.390   6.907
 4053POPC   C4A52962  10.229  38.457   7.134
 4053POPC   C1B52963  10.312  38.668   6.297
 4053POPC   C2B52964  10.220  38.798   6.732
 4053POPC   C3B52965  10.046  38.940   7.142
 4053POPC   C4B52966  10.245  38.798   7.563
 4054POPC   NC352967  12.513  29.097   5.207
 4054POPC   PO452968  11.876  29.256   5.482
 4054POPC   GL152969  12.191  29.186   5.791
 4054POPC   GL252970  12.344  28.881   5.695
 4054POPC   C1A52971  12.097  29.289   6.222
 4054POPC   D2A52972  11.947  29.333   6.665
 4054POPC   C3A52973  11.844  29.042   7.025
 4054POPC   C4A52974  11.771  29.088   7.525
 4054POPC   C1B52975  12.499  28.949   6.157
 4054POPC   C2B52976  12.454  29.183   6.560
 4054POPC   C3B52977  12.446  29.103   6.975
 4054POPC   C4B52978  12.234  29.042   7.329
 4055POPC   NC352979   5.621  30.756   5.412
 4055POPC   PO452980   6.319  30.911   5.411
 4055POPC   GL152981   6.024  30.746   5.756
 4055POPC   GL252982   5.770  30.924   5.880
 4055POPC   C1A52983   6.065  30.586   6.192
 4055POPC   D2A52984   6.150  30.373   6.591
 4055POPC   C3A52985   6.075  30.612   6.932
 4055POPC   C4A52986   6.015  30.847   7.264
 4055POPC   C1B52987   5.552  30.682   6.184
 4055POPC   C2B52988   5.702  30.724   6.582
 4055POPC   C3B52989   5.573  30.796   6.992
 4055POPC   C4B52990   5.589  30.582   7.349
 4056POPC   NC352991  43.681  43.527   5.405
 4056POPC   PO452992  43.513  42.821   5.419
 4056POPC   GL152993  43.743  43.089   5.733
 4056POPC   GL252994  43.580  43.327   5.864
 4056POPC   C1A52995  43.985  43.191   6.127
 4056POPC   D2A52996  44.125  43.289   6.553
 4056POPC   C3A52997  44.023  43.044   6.934
 4056POPC   C4A52998  44.091  43.243   7.322
 4056POPC   C1B52999  43.524  42.966   6.159
 4056POPC   C2B53000  43.383  42.869   6.545
 4056POPC   C3B53001  43.501  43.017   6.931
 4056POPC   C4B53002  43.643  43.002   7.313
 4057POPC   NC353003  34.317  29.267   5.459
 4057POPC   PO453004  33.635  29.159   5.452
 4057POPC   GL153005  33.894  29.143   5.779
 4057POPC   GL253006  34.117  28.921   5.836
 4057POPC   C1A53007  33.793  29.129   6.193
 4057POPC   D2A53008  33.874  29.256   6.569
 4057POPC   C3A53009  33.606  29.286   6.900
 4057POPC   C4A53010  33.688  29.248   7.315
 4057POPC   C1B53011  34.073  28.707   6.186
 4057POPC   C2B53012  34.203  28.848   6.556
 4057POPC   C3B53013  34.009  28.927   6.929
 4057POPC   C4B53014  33.991  28.716   7.298
 4058POPC   NC353015  20.248  11.276   5.386
 4058POPC   PO453016  19.571  11.475   5.439
 4058POPC   GL153017  19.852  11.253   5.727
 4058POPC   GL253018  19.786  10.912   5.603
 4058POPC   C1A53019  20.019  11.183   6.175
 4058POPC   D2A53020  20.097  11.432   6.555
 4058POPC   C3A53021  19.893  11.283   6.948
 4058POPC   C4A53022  19.997  11.305   7.413
 4058POPC   C1B53023  19.584  10.947   6.017
 4058POPC   C2B53024  19.686  10.815   6.429
 4058POPC   C3B53025  19.669  10.781   6.862
 4058POPC   C4B53026  19.631  10.949   7.254
 4059POPC   NC353027  13.102  17.840   5.454
 4059POPC   PO453028  12.599  17.322   5.446
 4059POPC   GL153029  12.923  17.445   5.728
 4059POPC   GL253030  12.765  17.754   5.829
 4059POPC   C1A53031  13.086  17.417   6.138
 4059POPC   D2A53032  13.292  17.257   6.481
 4059POPC   C3A53033  13.183  17.240   6.897
 4059POPC   C4A53034  12.934  17.110   7.242
 4059POPC   C1B53035  12.835  17.862   6.241
 4059POPC   C2B53036  12.962  17.669   6.655
 4059POPC   C3B53037  12.882  17.595   7.113
 4059POPC   C4B53038  12.668  17.850   7.399
 4060POPC   NC353039  29.324  39.604   5.194
 4060POPC   PO453040  29.345  39.027   5.606
 4060POPC   GL153041  29.069  39.187   5.884
 4060POPC   GL253042  28.762  38.990   5.870
 4060POPC   C1A53043  29.250  39.230   6.298
 4060POPC   D2A53044  29.357  38.956   6.649
 4060POPC   C3A53045  29.286  39.150   7.047
 4060POPC   C4A53046  29.097  39.117   7.463
 4060POPC   C1B53047  28.744  39.149   6.289
 4060POPC   C2B53048  28.903  39.218   6.690
 4060POPC   C3B53049  28.802  39.374   7.077
 4060POPC   C4B53050  28.819  39.729   7.321
 4061POPC   NC353051  18.085   2.705   5.199
 4061POPC   PO453052  18.721   2.886   5.196
 4061POPC   GL153053  18.596   2.791   5.677
 4061POPC   GL253054  18.226   2.784   5.758
 4061POPC   C1A53055  18.537   2.701   6.157
 4061POPC   D2A53056  18.485   2.911   6.580
 4061POPC   C3A53057  18.320   2.758   6.993
 4061POPC   C4A53058  18.365   2.460   7.334
 4061POPC   C1B53059  18.065   2.912   6.199
 4061POPC   C2B53060  17.951   2.887   6.634
 4061POPC   C3B53061  17.808   2.557   6.908
 4061POPC   C4B53062  17.869   2.649   7.300
 4062POPC   NC353063   0.912  13.170   5.444
 4062POPC   PO453064   1.388  12.845   5.365
 4062POPC   GL153065   1.194  12.834   5.804
 4062POPC   GL253066   0.864  12.742   5.818
 4062POPC   C1A53067   1.097  12.914   6.281
 4062POPC   D2A53068   1.271  12.990   6.710
 4062POPC   C3A53069   1.314  12.930   7.156
 4062POPC   C4A53070   1.217  13.264   7.410
 4062POPC   C1B53071   0.841  12.489   6.229
 4062POPC   C2B53072   0.910  12.594   6.687
 4062POPC   C3B53073   0.966  12.566   7.125
 4062POPC   C4B53074   1.004  12.690   7.555
 4063POPC   NC353075   1.310   7.738   5.652
 4063POPC   PO453076   1.144   8.295   5.243
 4063POPC   GL153077   1.287   8.376   5.659
 4063POPC   GL253078   1.577   8.235   5.762
 4063POPC   C1A53079   1.262   8.478   6.124
 4063POPC   D2A53080   1.013   8.212   6.423
 4063POPC   C3A53081   1.069   8.232   6.863
 4063POPC   C4A53082   0.933   7.961   7.167
 4063POPC   C1B53083   1.527   8.044   6.206
 4063POPC   C2B53084   1.515   8.108   6.629
 4063POPC   C3B53085   1.689   7.937   6.991
 4063POPC   C4B53086   1.503   7.669   7.296
 4064POPC   NC353087  40.339  44.352   5.473
 4064POPC   PO453088  40.364  44.963   5.290
 4064POPC   GL153089  40.244  44.822   5.703
 4064POPC   GL253090  39.939  44.628   5.704
 4064POPC   C1A53091  40.204  44.672   6.132
 4064POPC   D2A53092  40.035  44.373   6.430
 4064POPC   C3A53093  40.094  44.573   6.828
 4064POPC   C4A53094  40.007  44.722   7.218
 4064POPC   C1B53095  39.690  44.741   6.096
 4064POPC   C2B53096  39.496  44.718   6.519
 4064POPC   C3B53097  39.571  44.716   6.957
 4064POPC   C4B53098  39.635  44.366   7.263
 4065POPC   NC353099   2.373  33.427   5.270
 4065POPC   PO453100   1.955  33.947   5.449
 4065POPC   GL153101   1.975  34.007   5.829
 4065POPC   GL253102   1.949  33.644   5.938
 4065POPC   C1A53103   1.780  34.039   6.215
 4065POPC   D2A53104   1.758  33.633   6.411
 4065POPC   C3A53105   1.786  33.645   6.818
 4065POPC   C4A53106   1.799  33.945   7.133
 4065POPC   C1B53107   2.252  33.521   6.313
 4065POPC   C2B53108   2.277  33.480   6.780
 4065POPC   C3B53109   2.067  33.497   7.209
 4065POPC   C4B53110   2.271  33.428   7.604
 4066POPC   NC353111  17.192  34.041   5.346
 4066POPC   PO453112  17.695  33.559   5.455
 4066POPC   GL153113  17.501  33.844   5.747
 4066POPC   GL253114  17.263  33.639   5.916
 4066POPC   C1A53115  17.472  34.021   6.195
 4066POPC   D2A53116  17.308  33.942   6.638
 4066POPC   C3A53117  17.585  33.826   6.976
 4066POPC   C4A53118  17.792  34.116   7.252
 4066POPC   C1B53119  17.305  33.507   6.352
 4066POPC   C2B53120  17.290  33.435   6.805
 4066POPC   C3B53121  17.359  33.264   7.233
 4066POPC   C4B53122  17.193  33.446   7.679
 4067POPC   NC353123   7.751  31.101   5.191
 4067POPC   PO453124   7.539  31.768   5.434
 4067POPC   GL153125   7.674  31.552   5.825
 4067POPC   GL253126   7.766  31.229   5.696
 4067POPC   C1A53127   7.446  31.436   6.218
 4067POPC   D2A53128   7.287  31.278   6.612
 4067POPC   C3A53129   7.304  31.557   7.001
 4067POPC   C4A53130   7.003  31.857   7.234
 4067POPC   C1B53131   7.859  31.143   6.140
 4067POPC   C2B53132   7.788  31.122   6.597
 4067POPC   C3B53133   7.770  31.136   7.057
 4067POPC   C4B53134   7.767  31.487   7.348
 4068POPC   NC353135  13.772  44.276   5.295
 4068POPC   PO453136  13.402  44.791   5.383
 4068POPC   GL153137  13.623  44.552   5.685
 4068POPC   GL253138  13.748  44.840   5.820
 4068POPC   C1A53139  13.829  44.337   6.015
 4068POPC   D2A53140  14.127  44.386   6.337
 4068POPC   C3A53141  13.933  44.567   6.701
 4068POPC   C4A53142  13.749  44.565   7.115
 4068POPC   C1B53143  13.882  44.846   6.266
 4068POPC   C2B53144  13.776   0.076   6.662
 4068POPC   C3B53145  14.010   0.149   7.063
 4068POPC   C4B53146  14.044  44.891   7.438
 4069POPC   NC353147  19.319   9.051   4.897
 4069POPC   PO453148  19.143   8.638   5.470
 4069POPC   GL153149  18.835   8.775   5.826
 4069POPC   GL253150  18.709   9.171   5.835
 4069POPC   C1A53151  19.061   8.839   6.247
 4069POPC   D2A53152  19.279   8.674   6.637
 4069POPC   C3A53153  19.283   8.951   7.014
 4069POPC   C4A53154  19.147   8.876   7.437
 4069POPC   C1B53155  18.822   9.291   6.277
 4069POPC   C2B53156  18.837   9.020   6.665
 4069POPC   C3B53157  18.754   9.039   7.084
 4069POPC   C4B53158  18.597   9.443   7.169
 4070POPC   NC353159  21.507  34.362   5.302
 4070POPC   PO453160  21.013  34.789   5.440
 4070POPC   GL153161  21.126  34.588   5.802
 4070POPC   GL253162  21.499  34.494   5.825
 4070POPC   C1A53163  21.156  34.428   6.209
 4070POPC   D2A53164  21.436  34.584   6.540
 4070POPC   C3A53165  21.306  34.462   6.947
 4070POPC   C4A53166  21.280  34.673   7.344
 4070POPC   C1B53167  21.618  34.214   6.214
 4070POPC   C2B53168  21.640  34.135   6.699
 4070POPC   C3B53169  21.618  34.137   7.193
 4070POPC   C4B53170  21.577  34.065   7.665
 4071POPC   NC353171  19.417  10.064   5.567
 4071POPC   PO453172  19.014   9.556   5.443
 4071POPC   GL153173  19.083   9.548   5.871
 4071POPC   GL253174  19.432   9.449   5.841
 4071POPC   C1A53175  19.216   9.676   6.278
 4071POPC   D2A53176  19.382   9.804   6.666
 4071POPC   C3A53177  19.065   9.983   6.914
 4071POPC   C4A53178  18.921   9.820   7.281
 4071POPC   C1B53179  19.580   9.319   6.253
 4071POPC   C2B53180  19.285   9.259   6.583
 4071POPC   C3B53181  19.055   9.443   6.924
 4071POPC   C4B53182  19.155   9.383   7.366
 4072POPC   NC353183   6.312  33.698   5.469
 4072POPC   PO453184   6.913  33.980   5.233
 4072POPC   GL153185   6.769  33.840   5.632
 4072POPC   GL253186   6.875  33.522   5.674
 4072POPC   C1A53187   6.535  33.986   6.036
 4072POPC   D2A53188   6.303  34.015   6.458
 4072POPC   C3A53189   6.574  33.845   6.812
 4072POPC   C4A53190   6.781  33.828   7.227
 4072POPC   C1B53191   6.710  33.503   6.096
 4072POPC   C2B53192   6.632  33.382   6.545
 4072POPC   C3B53193   6.482  33.386   7.012
 4072POPC   C4B53194   6.672  33.363   7.442
 4073POPC   NC353195   0.083  42.089   5.455
 4073POPC   PO453196   0.531  42.545   5.484
 4073POPC   GL153197   0.481  42.241   5.813
 4073POPC   GL253198   0.731  41.989   5.862
 4073POPC   C1A53199   0.409  42.279   6.261
 4073POPC   D2A53200   0.321  42.528   6.635
 4073POPC   C3A53201   0.108  42.262   6.919
 4073POPC   C4A53202   0.125  42.185   7.355
 4073POPC   C1B53203   0.665  41.824   6.243
 4073POPC   C2B53204   0.556  41.955   6.657
 4073POPC   C3B53205   0.601  42.156   7.060
 4073POPC   C4B53206   0.580  41.939   7.460
 4074POPC   NC353207  20.526  20.864   5.373
 4074POPC   PO453208  20.289  21.578   5.395
 4074POPC   GL153209  20.544  21.512   5.800
 4074POPC   GL253210  20.929  21.533   5.883
 4074POPC   C1A53211  20.582  21.514   6.243
 4074POPC   D2A53212  20.390  21.293   6.549
 4074POPC   C3A53213  20.545  21.397   6.914
 4074POPC   C4A53214  20.466  21.202   7.275
 4074POPC   C1B53215  21.129  21.172   6.140
 4074POPC   C2B53216  21.185  21.020   6.573
 4074POPC   C3B53217  20.925  21.060   6.962
 4074POPC   C4B53218  20.933  21.458   7.244
 4075POPC   NC353219  16.369  10.247   5.533
 4075POPC   PO453220  15.849  10.432   5.146
 4075POPC   GL153221  15.826  10.575   5.614
 4075POPC   GL253222  16.134  10.631   5.807
 4075POPC   C1A53223  15.692  10.716   6.065
 4075POPC   D2A53224  16.044  10.735   6.356
 4075POPC   C3A53225  15.904  10.744   6.781
 4075POPC   C4A53226  16.142  10.678   7.153
 4075POPC   C1B53227  15.938  10.280   6.060
 4075POPC   C2B53228  15.853  10.281   6.506
 4075POPC   C3B53229  15.853  10.257   6.963
 4075POPC   C4B53230  16.255  10.163   7.163
 4076POPC   NC353231  27.531  32.690   5.450
 4076POPC   PO453232  27.716  32.048   5.588
 4076POPC   GL153233  27.475  32.254   5.867
 4076POPC   GL253234  27.377  32.571   5.904
 4076POPC   C1A53235  27.554  32.319   6.292
 4076POPC   D2A53236  27.659  32.051   6.599
 4076POPC   C3A53237  27.625  32.240   6.999
 4076POPC   C4A53238  27.980  32.360   7.246
 4076POPC   C1B53239  27.343  32.799   6.249
 4076POPC   C2B53240  27.512  32.733   6.626
 4076POPC   C3B53241  27.361  32.691   6.995
 4076POPC   C4B53242  27.550  32.621   7.365
 4077POPC   NC353243  33.790  11.858   5.310
 4077POPC   PO453244  33.857  12.584   5.189
 4077POPC   GL153245  33.834  12.252   5.622
 4077POPC   GL253246  33.557  12.081   5.757
 4077POPC   C1A53247  33.993  11.932   5.978
 4077POPC   D2A53248  33.818  11.821   6.401
 4077POPC   C3A53249  34.067  11.882   6.803
 4077POPC   C4A53250  34.126  11.874   7.269
 4077POPC   C1B53251  33.697  12.303   6.157
 4077POPC   C2B53252  33.834  12.333   6.574
 4077POPC   C3B53253  33.644  12.317   6.955
 4077POPC   C4B53254  33.611  11.962   7.212
 4078POPC   NC353255  10.080   6.091   5.451
 4078POPC   PO453256  10.508   5.631   5.376
 4078POPC   GL153257  10.469   5.937   5.767
 4078POPC   GL253258  10.827   6.043   5.832
 4078POPC   C1A53259  10.307   6.022   6.221
 4078POPC   D2A53260  10.226   5.821   6.639
 4078POPC   C3A53261  10.296   5.905   7.080
 4078POPC   C4A53262  10.240   5.945   7.542
 4078POPC   C1B53263  10.778   5.807   6.228
 4078POPC   C2B53264  10.701   6.050   6.578
 4078POPC   C3B53265  10.741   6.136   7.005
 4078POPC   C4B53266  10.735   5.902   7.394
 4079POPC   NC353267   6.961  40.974   5.392
 4079POPC   PO453268   6.826  40.340   5.212
 4079POPC   GL153269   6.811  40.527   5.686
 4079POPC   GL253270   6.694  40.878   5.829
 4079POPC   C1A53271   6.851  40.550   6.179
 4079POPC   D2A53272   7.010  40.738   6.581
 4079POPC   C3A53273   6.928  40.551   6.990
 4079POPC   C4A53274   6.792  40.831   7.244
 4079POPC   C1B53275   6.383  40.791   6.203
 4079POPC   C2B53276   6.390  40.675   6.645
 4079POPC   C3B53277   6.329  40.914   7.018
 4079POPC   C4B53278   6.343  40.857   7.464
 4080POPC   NC353279  10.883  42.083   5.437
 4080POPC   PO453280  10.218  41.930   5.286
 4080POPC   GL153281  10.398  42.128   5.693
 4080POPC   GL253282  10.600  42.437   5.718
 4080POPC   C1A53283  10.345  42.294   6.152
 4080POPC   D2A53284  10.468  42.500   6.564
 4080POPC   C3A53285  10.525  42.284   6.956
 4080POPC   C4A53286  10.218  42.236   7.274
 4080POPC   C1B53287  10.776  42.586   6.149
 4080POPC   C2B53288  10.968  42.615   6.603
 4080POPC   C3B53289  10.745  42.776   6.998
 4080POPC   C4B53290  10.368  42.731   7.257
 4081POPC   NC353291   7.659  20.532   5.489
 4081POPC   PO453292   7.287  21.124   5.354
 4081POPC   GL153293   7.294  20.780   5.719
 4081POPC   GL253294   7.607  20.746   5.954
 4081POPC   C1A53295   7.102  20.560   6.101
 4081POPC   D2A53296   7.348  20.499   6.481
 4081POPC   C3A53297   7.215  20.558   6.913
 4081POPC   C4A53298   7.256  20.343   7.314
 4081POPC   C1B53299   7.770  20.346   6.189
 4081POPC   C2B53300   7.703  20.116   6.582
 4081POPC   C3B53301   7.695  20.287   7.002
 4081POPC   C4B53302   7.662  20.664   7.266
 4082POPC   NC353303   2.221  38.455   5.332
 4082POPC   PO453304   1.603  38.286   5.380
 4082POPC   GL153305   1.906  38.437   5.737
 4082POPC   GL253306   2.171  38.209   5.803
 4082POPC   C1A53307   2.111  38.601   6.141
 4082POPC   D2A53308   2.130  38.761   6.592
 4082POPC   C3A53309   1.885  38.638   6.958
 4082POPC   C4A53310   1.919  38.380   7.315
 4082POPC   C1B53311   2.426  38.159   6.187
 4082POPC   C2B53312   2.346  38.292   6.598
 4082POPC   C3B53313   2.232  38.125   6.990
 4082POPC   C4B53314   2.547  38.287   7.251
 4083POPC   NC353315  37.729  37.069   5.474
 4083POPC   PO453316  38.232  36.512   5.364
 4083POPC   GL153317  37.880  36.609   5.705
 4083POPC   GL253318  38.033  36.880   5.861
 4083POPC   C1A53319  37.587  36.796   6.103
 4083POPC   D2A53320  37.471  36.589   6.517
 4083POPC   C3A53321  37.402  36.785   6.918
 4083POPC   C4A53322  37.677  36.803   7.274
 4083POPC   C1B53323  38.008  36.978   6.319
 4083POPC   C2B53324  37.745  37.075   6.645
 4083POPC   C3B53325  37.586  37.334   6.966
 4083POPC   C4B53326  37.723  37.335   7.374
 4084POPC   NC353327   4.665   1.331   5.657
 4084POPC   PO453328   5.270   1.169   5.393
 4084POPC   GL153329   5.228   0.983   5.851
 4084POPC   GL253330   5.455   0.673   5.960
 4084POPC   C1A53331   4.997   0.841   6.222
 4084POPC   D2A53332   4.869   0.794   6.663
 4084POPC   C3A53333   4.881   1.107   7.009
 4084POPC   C4A53334   4.967   1.203   7.445
 4084POPC   C1B53335   5.523   0.901   6.339
 4084POPC   C2B53336   5.309   1.053   6.709
 4084POPC   C3B53337   5.418   1.126   7.146
 4084POPC   C4B53338   5.845   1.240   7.332
 4085POPC   NC353339  18.570  43.559   5.320
 4085POPC   PO453340  18.145  44.044   5.349
 4085POPC   GL153341  18.228  43.833   5.721
 4085POPC   GL253342  18.558  43.982   5.809
 4085POPC   C1A53343  18.300  43.691   6.149
 4085POPC   D2A53344  18.490  43.671   6.561
 4085POPC   C3A53345  18.320  43.873   6.929
 4085POPC   C4A53346  18.230  43.649   7.331
 4085POPC   C1B53347  18.620  44.307   6.153
 4085POPC   C2B53348  18.645  44.205   6.593
 4085POPC   C3B53349  18.645  44.276   7.021
 4085POPC   C4B53350  18.599  43.995   7.363
 4086POPC   NC353351  11.598  40.354   5.517
 4086POPC   PO453352  11.195  40.788   5.243
 4086POPC   GL153353  11.165  40.706   5.681
 4086POPC   GL253354  11.493  40.887   5.720
 4086POPC   C1A53355  11.088  40.950   6.073
 4086POPC   D2A53356  11.378  41.176   6.352
 4086POPC   C3A53357  11.338  41.019   6.792
 4086POPC   C4A53358  11.220  41.037   7.232
 4086POPC   C1B53359  11.576  40.756   6.148
 4086POPC   C2B53360  11.271  40.606   6.453
 4086POPC   C3B53361  11.163  40.536   6.878
 4086POPC   C4B53362  11.425  40.545   7.261
 4087POPC   NC353363  28.597  26.499   5.297
 4087POPC   PO453364  28.061  26.188   5.536
 4087POPC   GL153365  28.418  26.132   5.798
 4087POPC   GL253366  28.189  26.209   6.040
 4087POPC   C1A53367  28.668  26.109   6.193
 4087POPC   D2A53368  28.682  25.953   6.615
 4087POPC   C3A53369  28.364  26.098   6.883
 4087POPC   C4A53370  28.392  26.220   7.298
 4087POPC   C1B53371  27.904  26.408   6.275
 4087POPC   C2B53372  27.737  26.246   6.645
 4087POPC   C3B53373  27.939  26.380   7.023
 4087POPC   C4B53374  27.953  26.394   7.446
 4088POPC   NC353375   3.404  34.195   5.526
 4088POPC   PO453376   3.663  34.835   5.560
 4088POPC   GL153377   3.307  34.611   5.873
 4088POPC   GL253378   3.201  34.242   5.992
 4088POPC   C1A53379   3.138  34.617   6.330
 4088POPC   D2A53380   3.019  34.494   6.765
 4088POPC   C3A53381   3.362  34.497   7.069
 4088POPC   C4A53382   3.618  34.668   7.411
 4088POPC   C1B53383   3.579  34.351   6.250
 4088POPC   C2B53384   3.779  34.248   6.666
 4088POPC   C3B53385   3.834  34.306   7.105
 4088POPC   C4B53386   3.591  34.137   7.387
 4089POPC   NC353387  18.059  22.638   5.427
 4089POPC   PO453388  18.525  23.127   5.250
 4089POPC   GL153389  18.301  23.087   5.649
 4089POPC   GL253390  18.407  22.771   5.763
 4089POPC   C1A53391  18.085  23.013   6.071
 4089POPC   D2A53392  18.186  23.146   6.507
 4089POPC   C3A53393  18.130  22.966   6.915
 4089POPC   C4A53394  18.291  23.067   7.351
 4089POPC   C1B53395  18.441  22.550   6.152
 4089POPC   C2B53396  18.621  22.686   6.540
 4089POPC   C3B53397  18.605  22.787   6.971
 4089POPC   C4B53398  18.395  22.595   7.317
 4090POPC   NC353399   4.014  41.805   5.665
 4090POPC   PO453400   3.371  41.747   5.376
 4090POPC   GL153401   3.440  41.657   5.775
 4090POPC   GL253402   3.143  41.846   5.866
 4090POPC   C1A53403   3.515  41.774   6.213
 4090POPC   D2A53404   3.383  41.908   6.634
 4090POPC   C3A53405   3.741  41.855   6.920
 4090POPC   C4A53406   4.032  41.621   7.146
 4090POPC   C1B53407   3.084  41.475   6.159
 4090POPC   C2B53408   3.208  41.315   6.570
 4090POPC   C3B53409   3.415  41.462   6.941
 4090POPC   C4B53410   3.578  41.413   7.343
 4091POPC   NC353411  27.434  36.456   5.524
 4091POPC   PO453412  27.825  36.055   5.273
 4091POPC   GL153413  27.716  36.118   5.763
 4091POPC   GL253414  27.912  36.436   5.793
 4091POPC   C1A53415  27.432  36.168   6.189
 4091POPC   D2A53416  27.178  36.180   6.597
 4091POPC   C3A53417  27.240  35.936   6.978
 4091POPC   C4A53418  27.441  35.946   7.411
 4091POPC   C1B53419  27.971  36.229   6.180
 4091POPC   C2B53420  27.780  36.213   6.574
 4091POPC   C3B53421  27.712  36.145   7.015
 4091POPC   C4B53422  27.933  36.348   7.333
 4092POPC   NC353423  29.854   8.526   5.304
 4092POPC   PO453424  30.338   9.032   5.392
 4092POPC   GL153425  29.942   8.911   5.699
 4092POPC   GL253426  29.562   9.049   5.737
 4092POPC   C1A53427  29.803   8.837   6.163
 4092POPC   D2A53428  29.662   9.038   6.577
 4092POPC   C3A53429  29.813   8.842   6.967
 4092POPC   C4A53430  29.697   8.514   7.271
 4092POPC   C1B53431  29.569   9.330   6.137
 4092POPC   C2B53432  29.888   9.487   6.476
 4092POPC   C3B53433  30.057   9.297   6.853
 4092POPC   C4B53434  29.963   9.316   7.315
 4093POPC   NC353435  16.595  44.959   5.338
 4093POPC   PO453436  16.928  44.405   5.142
 4093POPC   GL153437  16.826  44.561   5.612
 4093POPC   GL253438  16.552  44.781   5.809
 4093POPC   C1A53439  16.908  44.535   6.083
 4093POPC   D2A53440  16.886  44.628   6.538
 4093POPC   C3A53441  16.962  44.299   6.882
 4093POPC   C4A53442  17.014  44.440   7.326
 4093POPC   C1B53443  16.417  44.620   6.202
 4093POPC   C2B53444  16.492  44.306   6.514
 4093POPC   C3B53445  16.460  44.393   6.946
 4093POPC   C4B53446  16.564  44.139   7.271
 4094POPC   NC353447   3.423  26.202   5.521
 4094POPC   PO453448   3.862  25.718   5.541
 4094POPC   GL153449   3.604  25.891   5.895
 4094POPC   GL253450   3.224  25.924   5.906
 4094POPC   C1A53451   3.504  25.854   6.337
 4094POPC   D2A53452   3.283  26.002   6.682
 4094POPC   C3A53453   3.589  26.099   7.019
 4094POPC   C4A53454   3.702  26.046   7.459
 4094POPC   C1B53455   3.098  26.223   6.223
 4094POPC   C2B53456   3.145  26.496   6.593
 4094POPC   C3B53457   3.142  26.366   7.005
 4094POPC   C4B53458   3.365  26.426   7.360
 4095POPC   NC353459   8.057  40.397   5.305
 4095POPC   PO453460   8.299  40.944   5.532
 4095POPC   GL153461   8.176  40.606   5.774
 4095POPC   GL253462   8.473  40.399   5.636
 4095POPC   C1A53463   8.054  40.741   6.191
 4095POPC   D2A53464   8.074  40.947   6.588
 4095POPC   C3A53465   8.062  40.709   6.949
 4095POPC   C4A53466   8.238  41.042   7.149
 4095POPC   C1B53467   8.591  40.495   6.056
 4095POPC   C2B53468   8.533  40.818   6.358
 4095POPC   C3B53469   8.558  40.803   6.819
 4095POPC   C4B53470   8.513  40.610   7.225
 4096POPC   NC353471  27.276  38.738   5.547
 4096POPC   PO453472  27.684  39.139   5.150
 4096POPC   GL153473  27.582  39.187   5.639
 4096POPC   GL253474  27.632  39.546   5.758
 4096POPC   C1A53475  27.581  39.019   6.102
 4096POPC   D2A53476  27.816  38.847   6.485
 4096POPC   C3A53477  27.848  39.061   6.908
 4096POPC   C4A53478  27.636  38.964   7.310
 4096POPC   C1B53479  27.804  39.476   6.190
 4096POPC   C2B53480  27.692  39.494   6.645
 4096POPC   C3B53481  27.478  39.421   7.041
 4096POPC   C4B53482  27.481  39.436   7.497
 4097POPC   NC353483  23.648  24.256   5.445
 4097POPC   PO453484  23.314  24.715   5.648
 4097POPC   GL153485  23.672  24.585   5.822
 4097POPC   GL253486  23.459  24.339   5.965
 4097POPC   C1A53487  23.845  24.497   6.231
 4097POPC   D2A53488  23.630  24.419   6.615
 4097POPC   C3A53489  23.869  24.330   6.968
 4097POPC   C4A53490  23.940  24.630   7.282
 4097POPC   C1B53491  23.244  24.615   6.317
 4097POPC   C2B53492  23.252  24.794   6.755
 4097POPC   C3B53493  23.443  24.575   7.106
 4097POPC   C4B53494  23.495  24.645   7.566
 4098POPC   NC353495  25.014  32.887   5.473
 4098POPC   PO453496  25.561  33.370   5.450
 4098POPC   GL153497  25.356  33.164   5.813
 4098POPC   GL253498  25.035  33.222   5.849
 4098POPC   C1A53499  25.428  32.970   6.260
 4098POPC   D2A53500  25.480  32.802   6.717
 4098POPC   C3A53501  25.518  33.075   7.117
 4098POPC   C4A53502  25.541  33.214   7.588
 4098POPC   C1B53503  24.901  32.959   6.188
 4098POPC   C2B53504  24.799  32.922   6.623
 4098POPC   C3B53505  25.018  32.894   7.014
 4098POPC   C4B53506  25.137  32.950   7.451
 4099POPC   NC353507  25.762   7.713   5.480
 4099POPC   PO453508  25.365   7.250   5.222
 4099POPC   GL153509  25.326   7.195   5.705
 4099POPC   GL253510  24.987   7.252   5.740
 4099POPC   C1A53511  25.353   7.374   6.171
 4099POPC   D2A53512  25.554   7.368   6.607
 4099POPC   C3A53513  25.398   7.386   7.017
 4099POPC   C4A53514  25.122   7.065   7.148
 4099POPC   C1B53515  24.869   7.244   6.181
 4099POPC   C2B53516  25.015   7.446   6.584
 4099POPC   C3B53517  25.034   7.747   6.923
 4099POPC   C4B53518  24.977   7.533   7.292
 4100POPC   NC353519  38.046  23.104   5.643
 4100POPC   PO453520  38.669  22.784   5.413
 4100POPC   GL153521  38.738  22.798   5.897
 4100POPC   GL253522  38.444  23.041   5.956
 4100POPC   C1A53523  38.697  22.916   6.369
 4100POPC   D2A53524  38.373  22.804   6.658
 4100POPC   C3A53525  38.199  23.123   6.913
 4100POPC   C4A53526  38.548  22.954   7.150
 4100POPC   C1B53527  38.290  23.206   6.369
 4100POPC   C2B53528  38.631  23.306   6.727
 4100POPC   C3B53529  38.734  23.412   7.167
 4100POPC   C4B53530  38.295  23.327   7.410
 4101POPC   NC353531  42.612  28.757   5.566
 4101POPC   PO453532  41.963  28.507   5.486
 4101POPC   GL153533  42.104  28.362   5.901
 4101POPC   GL253534  42.470  28.349   5.893
 4101POPC   C1A53535  42.190  28.202   6.325
 4101POPC   D2A53536  42.557  28.199   6.611
 4101POPC   C3A53537  42.457  28.284   7.040
 4101POPC   C4A53538  42.090  28.322   7.301
 4101POPC   C1B53539  42.514  28.623   6.262
 4101POPC   C2B53540  42.665  28.833   6.634
 4101POPC   C3B53541  42.763  28.696   7.055
 4101POPC   C4B53542  42.666  28.486   7.475
 4102POPC   NC353543  28.623  24.724   5.476
 4102POPC   PO453544  27.987  24.390   5.417
 4102POPC   GL153545  28.220  24.565   5.779
 4102POPC   GL253546  28.547  24.394   5.853
 4102POPC   C1A53547  28.165  24.366   6.191
 4102POPC   D2A53548  28.331  24.254   6.557
 4102POPC   C3A53549  28.325  24.420   6.939
 4102POPC   C4A53550  28.048  24.385   7.259
 4102POPC   C1B53551  28.549  24.720   6.183
 4102POPC   C2B53552  28.705  24.634   6.611
 4102POPC   C3B53553  28.837  24.461   7.007
 4102POPC   C4B53554  28.595  24.356   7.375
 4103POPC   NC353555  33.682  13.846   5.496
 4103POPC   PO453556  33.261  13.302   5.364
 4103POPC   GL153557  33.499  13.446   5.798
 4103POPC   GL253558  33.867  13.528   5.860
 4103POPC   C1A53559  33.616  13.607   6.259
 4103POPC   D2A53560  34.037  13.554   6.434
 4103POPC   C3A53561  33.932  13.330   6.834
 4103POPC   C4A53562  33.555  13.406   7.080
 4103POPC   C1B53563  33.980  13.956   6.054
 4103POPC   C2B53564  34.028  14.084   6.460
 4103POPC   C3B53565  33.847  13.855   6.787
 4103POPC   C4B53566  34.124  13.793   7.078
 4104POPC   NC353567  37.982  15.149   5.149
 4104POPC   PO453568  38.667  15.226   5.494
 4104POPC   GL153569  38.573  15.283   5.934
 4104POPC   GL253570  38.205  15.292   6.060
 4104POPC   C1A53571  38.596  15.135   6.360
 4104POPC   D2A53572  38.662  15.320   6.757
 4104POPC   C3A53573  38.631  15.094   7.136
 4104POPC   C4A53574  38.232  14.856   7.201
 4104POPC   C1B53575  38.362  15.613   6.291
 4104POPC   C2B53576  38.308  15.672   6.733
 4104POPC   C3B53577  38.311  15.457   7.138
 4104POPC   C4B53578  38.502  15.463   7.583
 4105POPC   NC353579  30.417   5.499   5.272
 4105POPC   PO453580  30.653   4.943   5.395
 4105POPC   GL153581  30.746   5.068   5.834
 4105POPC   GL253582  30.527   5.349   5.891
 4105POPC   C1A53583  30.988   5.092   6.248
 4105POPC   D2A53584  31.223   5.159   6.653
 4105POPC   C3A53585  30.943   5.153   7.035
 4105POPC   C4A53586  30.601   4.979   7.318
 4105POPC   C1B53587  30.434   5.055   6.261
 4105POPC   C2B53588  30.302   5.078   6.716
 4105POPC   C3B53589  30.359   5.375   7.055
 4105POPC   C4B53590  30.494   5.487   7.478
 4106POPC   NC353591  28.235  19.363   5.272
 4106POPC   PO453592  28.735  18.886   5.343
 4106POPC   GL153593  28.350  18.966   5.630
 4106POPC   GL253594  28.411  19.299   5.770
 4106POPC   C1A53595  28.275  18.923   6.097
 4106POPC   D2A53596  28.593  18.880   6.459
 4106POPC   C3A53597  28.468  18.855   6.892
 4106POPC   C4A53598  28.481  18.930   7.338
 4106POPC   C1B53599  28.284  19.427   6.194
 4106POPC   C2B53600  28.510  19.399   6.587
 4106POPC   C3B53601  28.396  19.532   6.993
 4106POPC   C4B53602  28.344  19.405   7.406
 4107POPC   NC353603  32.694  27.546   5.406
 4107POPC   PO453604  32.156  27.843   5.315
 4107POPC   GL153605  32.289  27.621   5.721
 4107POPC   GL253606  32.006  27.383   5.780
 4107POPC   C1A53607  32.546  27.759   6.099
 4107POPC   D2A53608  32.433  27.975   6.491
 4107POPC   C3A53609  32.434  27.806   6.917
 4107POPC   C4A53610  32.631  27.762   7.305
 4107POPC   C1B53611  32.133  27.493   6.209
 4107POPC   C2B53612  32.063  27.618   6.606
 4107POPC   C3B53613  31.961  27.522   6.996
 4107POPC   C4B53614  32.194  27.524   7.322
 4108POPC   NC353615  35.240  44.204   5.398
 4108POPC   PO453616  35.044  44.861   5.301
 4108POPC   GL153617  35.199  44.665   5.694
 4108POPC   GL253618  35.563  44.651   5.634
 4108POPC   C1A53619  35.075  44.704   6.161
 4108POPC   D2A53620  35.034  44.932   6.571
 4108POPC   C3A53621  35.060  44.684   6.961
 4108POPC   C4A53622  34.953  44.197   7.036
 4108POPC   C1B53623  35.539  44.893   6.027
 4108POPC   C2B53624  35.519  44.836   6.476
 4108POPC   C3B53625  35.584  44.867   6.927
 4108POPC   C4B53626  35.389  44.840   7.351
 4109POPC   NC353627  29.336  26.268   5.477
 4109POPC   PO453628  28.679  26.019   5.368
 4109POPC   GL153629  28.948  25.991   5.772
 4109POPC   GL253630  28.956  26.334   5.833
 4109POPC   C1A53631  29.170  25.937   6.221
 4109POPC   D2A53632  29.417  25.805   6.639
 4109POPC   C3A53633  29.152  25.805   7.007
 4109POPC   C4A53634  28.856  26.098   7.119
 4109POPC   C1B53635  29.316  26.424   6.109
 4109POPC   C2B53636  29.386  26.530   6.550
 4109POPC   C3B53637  29.325  26.366   6.958
 4109POPC   C4B53638  29.592  26.148   7.205
 4110POPC   NC353639   9.572   1.269   5.473
 4110POPC   PO453640  10.022   0.775   5.568
 4110POPC   GL153641   9.678   0.917   5.823
 4110POPC   GL253642   9.741   1.296   5.962
 4110POPC   C1A53643   9.497   0.932   6.200
 4110POPC   D2A53644   9.755   1.181   6.508
 4110POPC   C3A53645   9.578   1.212   6.912
 4110POPC   C4A53646   9.604   0.923   7.248
 4110POPC   C1B53647   9.383   1.423   6.273
 4110POPC   C2B53648   9.223   1.509   6.697
 4110POPC   C3B53649   9.453   1.714   7.077
 4110POPC   C4B53650   9.557   1.664   7.539
 4111POPC   NC353651  34.741  28.719   5.265
 4111POPC   PO453652  34.789  29.397   5.422
 4111POPC   GL153653  34.908  29.128   5.719
 4111POPC   GL253654  34.579  29.137   5.876
 4111POPC   C1A53655  34.981  28.991   6.137
 4111POPC   D2A53656  34.704  29.066   6.484
 4111POPC   C3A53657  34.756  29.012   6.893
 4111POPC   C4A53658  34.746  29.182   7.295
 4111POPC   C1B53659  34.307  29.243   6.250
 4111POPC   C2B53660  34.327  29.307   6.761
 4111POPC   C3B53661  34.244  29.216   7.245
 4111POPC   C4B53662  34.086  29.465   7.608
 4112POPC   NC353663  12.143  24.967   5.454
 4112POPC   PO453664  11.811  25.633   5.388
 4112POPC   GL153665  11.854  25.312   5.706
 4112POPC   GL253666  12.215  25.301   5.830
 4112POPC   C1A53667  11.824  25.121   6.109
 4112POPC   D2A53668  11.687  25.245   6.514
 4112POPC   C3A53669  11.620  25.031   6.911
 4112POPC   C4A53670  11.945  25.161   7.193
 4112POPC   C1B53671  12.388  25.234   6.255
 4112POPC   C2B53672  12.566  24.958   6.596
 4112POPC   C3B53673  12.447  25.043   7.025
 4112POPC   C4B53674  12.406  25.476   7.166
 4113POPC   NC353675  28.982  34.724   5.454
 4113POPC   PO453676  29.430  34.273   5.342
 4113POPC   GL153677  29.303  34.444   5.744
 4113POPC   GL253678  28.943  34.375   5.836
 4113POPC   C1A53679  29.342  34.628   6.151
 4113POPC   D2A53680  29.153  34.549   6.537
 4113POPC   C3A53681  29.333  34.656   6.930
 4113POPC   C4A53682  29.520  35.003   7.158
 4113POPC   C1B53683  28.847  34.758   6.105
 4113POPC   C2B53684  28.715  34.866   6.517
 4113POPC   C3B53685  28.835  34.713   6.912
 4113POPC   C4B53686  29.014  34.857   7.288
 4114POPC   NC353687  30.399  36.056   5.652
 4114POPC   PO453688  30.736  36.538   5.464
 4114POPC   GL153689  30.852  36.269   5.800
 4114POPC   GL253690  30.890  35.922   5.846
 4114POPC   C1A53691  30.626  36.218   6.232
 4114POPC   D2A53692  30.730  36.252   6.677
 4114POPC   C3A53693  30.540  36.008   6.995
 4114POPC   C4A53694  30.298  36.265   7.242
 4114POPC   C1B53695  31.118  36.157   6.226
 4114POPC   C2B53696  31.222  36.134   6.689
 4114POPC   C3B53697  31.037  36.036   7.084
 4114POPC   C4B53698  30.856  35.705   7.339
 4115POPC   NC353699  39.797  26.241   5.514
 4115POPC   PO453700  39.171  25.989   5.398
 4115POPC   GL153701  39.164  25.988   5.799
 4115POPC   GL253702  38.946  25.717   5.853
 4115POPC   C1A53703  39.307  26.230   6.142
 4115POPC   D2A53704  39.218  26.167   6.569
 4115POPC   C3A53705  39.351  25.931   6.923
 4115POPC   C4A53706  39.283  26.209   7.320
 4115POPC   C1B53707  39.134  25.749   6.269
 4115POPC   C2B53708  39.112  25.510   6.616
 4115POPC   C3B53709  38.908  25.629   6.951
 4115POPC   C4B53710  39.045  25.775   7.311
 4116POPC   NC353711  32.789  28.290   5.339
 4116POPC   PO453712  33.426  28.511   5.488
 4116POPC   GL153713  33.051  28.407   5.770
 4116POPC   GL253714  32.829  28.086   5.806
 4116POPC   C1A53715  32.848  28.482   6.178
 4116POPC   D2A53716  32.815  28.288   6.597
 4116POPC   C3A53717  33.154  28.389   6.890
 4116POPC   C4A53718  33.113  28.534   7.287
 4116POPC   C1B53719  33.018  27.963   6.178
 4116POPC   C2B53720  32.925  27.761   6.561
 4116POPC   C3B53721  32.954  27.932   6.959
 4116POPC   C4B53722  33.090  27.980   7.373
 4117POPC   NC353723   2.388  35.753   5.463
 4117POPC   PO453724   1.887  36.313   5.401
 4117POPC   GL153725   2.081  36.272   5.770
 4117POPC   GL253726   2.251  36.589   5.824
 4117POPC   C1A53727   2.050  35.984   6.133
 4117POPC   D2A53728   2.142  35.855   6.543
 4117POPC   C3A53729   1.998  36.073   6.895
 4117POPC   C4A53730   1.964  36.074   7.305
 4117POPC   C1B53731   1.963  36.498   6.196
 4117POPC   C2B53732   2.124  36.416   6.552
 4117POPC   C3B53733   2.141  36.543   6.971
 4117POPC   C4B53734   2.135  36.653   7.383
 4118POPC   NC353735  29.317  11.582   5.435
 4118POPC   PO453736  28.937  11.004   5.528
 4118POPC   GL153737  29.013  11.369   5.792
 4118POPC   GL253738  29.410  11.406   5.898
 4118POPC   C1A53739  29.021  11.521   6.198
 4118POPC   D2A53740  29.272  11.288   6.469
 4118POPC   C3A53741  29.156  11.334   6.877
 4118POPC   C4A53742  28.948  11.137   7.207
 4118POPC   C1B53743  29.455  11.738   6.210
 4118POPC   C2B53744  29.245  11.793   6.603
 4118POPC   C3B53745  29.447  11.728   7.006
 4118POPC   C4B53746  29.326  11.473   7.361
 4119POPC   NC353747  22.709  44.133   5.438
 4119POPC   PO453748  23.099  43.592   5.446
 4119POPC   GL153749  22.947  43.636   5.896
 4119POPC   GL253750  22.782  43.957   5.928
 4119POPC   C1A53751  23.057  43.803   6.337
 4119POPC   D2A53752  22.861  44.008   6.703
 4119POPC   C3A53753  23.083  43.837   7.045
 4119POPC   C4A53754  23.053  43.398   7.092
 4119POPC   C1B53755  22.564  43.752   6.292
 4119POPC   C2B53756  22.653  43.547   6.709
 4119POPC   C3B53757  22.574  43.775   7.120
 4119POPC   C4B53758  22.454  43.752   7.572
 4120POPC   NC353759  34.535  44.869   5.368
 4120POPC   PO453760  34.835  44.299   5.602
 4120POPC   GL153761  34.677  44.662   5.818
 4120POPC   GL253762  34.830   0.029   5.771
 4120POPC   C1A53763  34.573  44.539   6.234
 4120POPC   D2A53764  34.765  44.442   6.627
 4120POPC   C3A53765  34.561  44.541   7.059
 4120POPC   C4A53766  34.534  44.323   7.476
 4120POPC   C1B53767  34.582   0.061   6.150
 4120POPC   C2B53768  34.513  44.927   6.565
 4120POPC   C3B53769  34.683   0.057   6.936
 4120POPC   C4B53770  34.408   0.195   7.241
 4121POPC   NC353771  26.301  29.277   5.255
 4121POPC   PO453772  25.770  28.879   5.301
 4121POPC   GL153773  25.868  29.225   5.603
 4121POPC   GL253774  26.210  29.203   5.733
 4121POPC   C1A53775  25.841  29.175   6.070
 4121POPC   D2A53776  26.042  28.945   6.405
 4121POPC   C3A53777  25.936  29.033   6.840
 4121POPC   C4A53778  25.773  29.122   7.251
 4121POPC   C1B53779  26.401  29.292   6.111
 4121POPC   C2B53780  26.266  29.376   6.541
 4121POPC   C3B53781  26.424  29.215   6.918
 4121POPC   C4B53782  26.416  29.095   7.357
 4122POPC   NC353783  28.165  34.147   5.441
 4122POPC   PO453784  28.603  34.652   5.206
 4122POPC   GL153785  28.475  34.535   5.648
 4122POPC   GL253786  28.108  34.596   5.715
 4122POPC   C1A53787  28.483  34.392   6.097
 4122POPC   D2A53788  28.688  34.336   6.516
 4122POPC   C3A53789  28.496  34.346   6.944
 4122POPC   C4A53790  28.573  34.552   7.328
 4122POPC   C1B53791  27.977  34.450   6.126
 4122POPC   C2B53792  28.163  34.428   6.537
 4122POPC   C3B53793  28.005  34.231   6.912
 4122POPC   C4B53794  28.066  34.422   7.306
 4123POPC   NC353795  43.370  27.090   5.140
 4123POPC   PO453796  43.656  26.651   5.647
 4123POPC   GL153797  43.808  26.819   5.999
 4123POPC   GL253798  43.996  27.089   5.899
 4123POPC   C1A53799  44.103  26.802   6.318
 4123POPC   D2A53800  44.145  26.646   6.722
 4123POPC   C3A53801  43.771  26.498   6.928
 4123POPC   C4A53802  43.583  26.517   7.349
 4123POPC   C1B53803  43.789  27.281   6.255
 4123POPC   C2B53804  43.721  27.017   6.613
 4123POPC   C3B53805  43.865  26.989   7.025
 4123POPC   C4B53806  43.552  27.014   7.281
 4124POPC   NC353807   1.649  44.949   5.663
 4124POPC   PO453808   1.221  44.524   5.364
 4124POPC   GL153809   1.172  44.586   5.766
 4124POPC   GL253810   1.414  44.352   5.814
 4124POPC   C1A53811   0.953  44.587   6.160
 4124POPC   D2A53812   0.846  44.447   6.539
 4124POPC   C3A53813   0.982  44.571   6.939
 4124POPC   C4A53814   1.209  44.684   7.315
 4124POPC   C1B53815   1.462  44.555   6.192
 4124POPC   C2B53816   1.317  44.719   6.558
 4124POPC   C3B53817   1.535  44.669   6.930
 4124POPC   C4B53818   1.698   0.012   7.173
 4125POPC   NC353819  31.835  39.945   5.375
 4125POPC   PO453820  31.328  40.480   5.379
 4125POPC   GL153821  31.307  40.121   5.676
 4125POPC   GL253822  31.637  40.171   5.782
 4125POPC   C1A53823  31.230  40.063   6.168
 4125POPC   D2A53824  31.350  40.196   6.642
 4125POPC   C3A53825  31.232  40.016   7.094
 4125POPC   C4A53826  31.307  40.133   7.547
 4125POPC   C1B53827  31.789  39.902   6.100
 4125POPC   C2B53828  31.900  39.929   6.542
 4125POPC   C3B53829  31.723  39.933   6.967
 4125POPC   C4B53830  31.735  39.911   7.412
 4126POPC   NC353831   8.956  40.585   5.375
 4126POPC   PO453832   8.922  41.176   5.339
 4126POPC   GL153833   8.891  40.939   5.748
 4126POPC   GL253834   9.112  40.635   5.842
 4126POPC   C1A53835   9.040  41.061   6.155
 4126POPC   D2A53836   8.976  40.935   6.558
 4126POPC   C3A53837   9.045  41.143   6.897
 4126POPC   C4A53838   8.991  41.018   7.305
 4126POPC   C1B53839   9.057  40.537   6.248
 4126POPC   C2B53840   8.787  40.406   6.558
 4126POPC   C3B53841   8.930  40.405   6.965
 4126POPC   C4B53842   9.037  40.496   7.372
 4127POPC   NC353843  39.391  31.674   5.400
 4127POPC   PO453844  38.902  31.198   5.407
 4127POPC   GL153845  39.050  31.492   5.758
 4127POPC   GL253846  39.364  31.376   5.827
 4127POPC   C1A53847  39.080  31.656   6.226
 4127POPC   D2A53848  39.234  31.828   6.676
 4127POPC   C3A53849  39.207  31.574   7.098
 4127POPC   C4A53850  39.363  31.691   7.549
 4127POPC   C1B53851  39.328  31.211   6.227
 4127POPC   C2B53852  39.315  31.312   6.649
 4127POPC   C3B53853  39.272  31.050   6.989
 4127POPC   C4B53854  38.945  30.923   7.245
 4128POPC   NC353855   7.207  43.240   5.154
 4128POPC   PO453856   6.510  43.240   5.364
 4128POPC   GL153857   6.678  43.204   5.784
 4128POPC   GL253858   6.484  42.936   5.934
 4128POPC   C1A53859   6.691  43.312   6.245
 4128POPC   D2A53860   7.007  43.463   6.551
 4128POPC   C3A53861   6.891  43.374   6.960
 4128POPC   C4A53862   6.818  43.506   7.354
 4128POPC   C1B53863   6.913  42.880   6.149
 4128POPC   C2B53864   6.887  42.979   6.622
 4128POPC   C3B53865   6.619  42.967   7.028
 4128POPC   C4B53866   6.173  42.890   7.138
 4129POPC   NC353867  30.599  18.451   5.373
 4129POPC   PO453868  30.525  17.706   5.366
 4129POPC   GL153869  30.470  18.060   5.701
 4129POPC   GL253870  30.764  18.179   5.768
 4129POPC   C1A53871  30.463  18.249   6.156
 4129POPC   D2A53872  30.627  18.542   6.472
 4129POPC   C3A53873  30.701  18.407   6.882
 4129POPC   C4A53874  30.565  18.342   7.304
 4129POPC   C1B53875  30.977  18.014   6.131
 4129POPC   C2B53876  31.154  18.224   6.488
 4129POPC   C3B53877  31.161  18.125   6.894
 4129POPC   C4B53878  31.051  18.203   7.289
 4130POPC   NC353879  40.256  30.440   5.515
 4130POPC   PO453880  40.814  29.978   5.344
 4130POPC   GL153881  40.811  29.909   5.765
 4130POPC   GL253882  40.559  30.137   5.788
 4130POPC   C1A53883  40.944  29.906   6.214
 4130POPC   D2A53884  41.182  29.970   6.625
 4130POPC   C3A53885  40.934  29.979   6.988
 4130POPC   C4A53886  40.988  29.984   7.409
 4130POPC   C1B53887  40.542  30.242   6.193
 4130POPC   C2B53888  40.652  30.139   6.591
 4130POPC   C3B53889  40.467  30.261   6.964
 4130POPC   C4B53890  40.658  30.358   7.301
 4131POPC   NC353891  33.248  12.487   5.666
 4131POPC   PO453892  33.259  11.819   5.429
 4131POPC   GL153893  33.049  12.000   5.823
 4131POPC   GL253894  32.704  11.839   5.857
 4131POPC   C1A53895  33.203  12.145   6.250
 4131POPC   D2A53896  33.386  11.980   6.643
 4131POPC   C3A53897  33.165  12.084   7.018
 4131POPC   C4A53898  32.954  12.377   7.296
 4131POPC   C1B53899  32.694  12.031   6.255
 4131POPC   C2B53900  32.824  12.235   6.615
 4131POPC   C3B53901  32.664  12.072   6.968
 4131POPC   C4B53902  32.817  11.873   7.335
 4132POPC   NC353903  13.026  34.772   5.296
 4132POPC   PO453904  12.548  34.352   5.317
 4132POPC   GL153905  12.831  34.430   5.676
 4132POPC   GL253906  12.629  34.708   5.741
 4132POPC   C1A53907  12.981  34.592   6.112
 4132POPC   D2A53908  13.136  34.500   6.537
 4132POPC   C3A53909  12.864  34.496   6.897
 4132POPC   C4A53910  13.072  34.370   7.262
 4132POPC   C1B53911  12.506  34.835   6.164
 4132POPC   C2B53912  12.760  34.870   6.534
 4132POPC   C3B53913  13.100  34.957   6.834
 4132POPC   C4B53914  13.132  34.995   7.289
 4133POPC   NC353915  31.253  34.337   5.471
 4133POPC   PO453916  31.709  34.783   5.604
 4133POPC   GL153917  31.576  34.477   5.902
 4133POPC   GL253918  31.237  34.553   5.923
 4133POPC   C1A53919  31.509  34.401   6.340
 4133POPC   D2A53920  31.199  34.487   6.617
 4133POPC   C3A53921  31.312  34.282   6.975
 4133POPC   C4A53922  31.680  34.278   7.206
 4133POPC   C1B53923  31.324  34.871   6.241
 4133POPC   C2B53924  31.716  34.865   6.439
 4133POPC   C3B53925  31.675  34.612   6.816
 4133POPC   C4B53926  31.376  34.742   7.194
 4134POPC   NC353927  37.610  13.308   5.249
 4134POPC   PO453928  37.870  13.904   5.551
 4134POPC   GL153929  38.037  13.735   5.963
 4134POPC   GL253930  37.984  13.354   5.902
 4134POPC   C1A53931  38.025  13.864   6.385
 4134POPC   D2A53932  37.619  13.860   6.552
 4134POPC   C3A53933  37.511  13.633   6.904
 4134POPC   C4A53934  37.232  13.710   7.235
 4134POPC   C1B53935  37.787  13.422   6.317
 4134POPC   C2B53936  37.995  13.495   6.731
 4134POPC   C3B53937  37.903  13.443   7.151
 4134POPC   C4B53938  37.496  13.306   7.307
 4135POPC   NC353939  16.132  10.787   5.193
 4135POPC   PO453940  15.615  11.038   5.454
 4135POPC   GL153941  15.859  11.107   5.800
 4135POPC   GL253942  15.953  11.425   5.736
 4135POPC   C1A53943  15.839  11.202   6.261
 4135POPC   D2A53944  16.218  11.242   6.544
 4135POPC   C3A53945  16.131  11.176   6.972
 4135POPC   C4A53946  15.831  11.140   7.268
 4135POPC   C1B53947  16.130  11.596   6.124
 4135POPC   C2B53948  15.975  11.695   6.544
 4135POPC   C3B53949  16.195  11.689   6.908
 4135POPC   C4B53950  16.098  11.592   7.290
 4136POPC   NC353951  42.278  31.990   5.511
 4136POPC   PO453952  42.642  32.557   5.477
 4136POPC   GL153953  42.265  32.557   5.785
 4136POPC   GL253954  41.958  32.308   5.773
 4136POPC   C1A53955  42.194  32.394   6.219
 4136POPC   D2A53956  42.281  32.179   6.623
 4136POPC   C3A53957  42.197  32.406   7.012
 4136POPC   C4A53958  42.329  32.449   7.441
 4136POPC   C1B53959  41.778  32.081   6.152
 4136POPC   C2B53960  41.747  32.133   6.595
 4136POPC   C3B53961  41.897  31.953   6.953
 4136POPC   C4B53962  42.144  31.976   7.307
 4137POPC   NC353963  29.504  23.376   5.360
 4137POPC   PO453964  30.128  23.042   5.425
 4137POPC   GL153965  29.942  23.011   5.778
 4137POPC   GL253966  29.844  23.341   5.783
 4137POPC   C1A53967  30.085  22.834   6.139
 4137POPC   D2A53968  30.149  22.894   6.538
 4137POPC   C3A53969  30.303  22.730   6.890
 4137POPC   C4A53970  30.191  22.911   7.283
 4137POPC   C1B53971  29.676  23.155   6.181
 4137POPC   C2B53972  29.783  23.225   6.592
 4137POPC   C3B53973  29.753  23.093   7.006
 4137POPC   C4B53974  29.611  23.347   7.335
 4138POPC   NC353975  13.443  38.107   5.421
 4138POPC   PO453976  13.970  38.497   5.316
 4138POPC   GL153977  13.698  38.459   5.715
 4138POPC   GL253978  13.390  38.279   5.869
 4138POPC   C1A53979  13.751  38.482   6.166
 4138POPC   D2A53980  13.718  38.794   6.463
 4138POPC   C3A53981  13.684  38.671   6.875
 4138POPC   C4A53982  13.844  38.391   7.133
 4138POPC   C1B53983  13.249  38.539   6.162
 4138POPC   C2B53984  13.326  38.455   6.572
 4138POPC   C3B53985  13.341  38.291   6.981
 4138POPC   C4B53986  13.394  38.565   7.311
 4139POPC   NC353987  17.540   5.059   5.443
 4139POPC   PO453988  17.497   5.667   5.575
 4139POPC   GL153989  17.712   5.328   5.911
 4139POPC   GL253990  17.771   4.932   5.892
 4139POPC   C1A53991  17.824   5.158   6.355
 4139POPC   D2A53992  17.570   4.961   6.673
 4139POPC   C3A53993  17.559   5.061   7.115
 4139POPC   C4A53994  17.567   5.197   7.559
 4139POPC   C1B53995  17.407   4.890   6.153
 4139POPC   C2B53996  17.088   4.940   6.481
 4139POPC   C3B53997  17.122   4.846   6.944
 4139POPC   C4B53998  17.104   5.093   7.332
 4140POPC   NC353999  37.180  42.086   5.649
 4140POPC   PO454000  36.783  42.639   5.542
 4140POPC   GL154001  36.854  42.399   5.871
 4140POPC   GL254002  36.663  42.122   5.749
 4140POPC   C1A54003  37.022  42.393   6.280
 4140POPC   D2A54004  36.869  42.267   6.671
 4140POPC   C3A54005  36.953  42.457   7.057
 4140POPC   C4A54006  37.250  42.209   7.285
 4140POPC   C1B54007  36.563  42.023   6.166
 4140POPC   C2B54008  36.480  41.933   6.607
 4140POPC   C3B54009  36.528  42.122   7.030
 4140POPC   C4B54010  36.751  42.157   7.413
 4141POPC   NC354011   3.769   1.252   5.475
 4141POPC   PO454012   3.214   0.883   5.480
 4141POPC   GL154013   3.403   1.008   5.860
 4141POPC   GL254014   3.345   1.335   5.872
 4141POPC   C1A54015   3.417   1.098   6.307
 4141POPC   D2A54016   3.299   1.332   6.643
 4141POPC   C3A54017   3.383   1.134   7.035
 4141POPC   C4A54018   3.561   0.812   7.294
 4141POPC   C1B54019   3.687   1.484   6.118
 4141POPC   C2B54020   3.726   1.638   6.521
 4141POPC   C3B54021   3.458   1.746   6.867
 4141POPC   C4B54022   3.583   1.587   7.252
 4142POPC   NC354023  35.663  30.321   5.409
 4142POPC   PO454024  35.173  29.889   5.228
 4142POPC   GL154025  35.375  29.970   5.651
 4142POPC   GL254026  35.225  30.277   5.737
 4142POPC   C1A54027  35.271  29.881   6.087
 4142POPC   D2A54028  35.316  29.732   6.487
 4142POPC   C3A54029  35.303  29.933   6.867
 4142POPC   C4A54030  35.009  29.846   7.215
 4142POPC   C1B54031  34.991  30.318   6.139
 4142POPC   C2B54032  34.883  30.154   6.552
 4142POPC   C3B54033  35.011  30.345   6.933
 4142POPC   C4B54034  35.304  30.270   7.250
 4143POPC   NC354035  31.071  13.594   5.369
 4143POPC   PO454036  30.438  13.687   5.175
 4143POPC   GL154037  30.609  13.488   5.612
 4143POPC   GL254038  30.899  13.246   5.732
 4143POPC   C1A54039  30.652  13.552   6.087
 4143POPC   D2A54040  30.681  13.849   6.449
 4143POPC   C3A54041  30.486  13.682   6.820
 4143POPC   C4A54042  30.627  13.707   7.206
 4143POPC   C1B54043  31.088  13.270   6.173
 4143POPC   C2B54044  31.107  13.556   6.540
 4143POPC   C3B54045  31.131  13.515   6.988
 4143POPC   C4B54046  31.044  13.533   7.416
 4144POPC   NC354047   9.002  35.647   5.381
 4144POPC   PO454048   8.475  35.211   5.449
 4144POPC   GL154049   8.668  35.425   5.815
 4144POPC   GL254050   9.065  35.525   5.874
 4144POPC   C1A54051   8.714  35.555   6.239
 4144POPC   D2A54052   8.785  35.358   6.613
 4144POPC   C3A54053   8.769  35.536   6.950
 4144POPC   C4A54054   8.906  35.382   7.325
 4144POPC   C1B54055   9.229  35.363   6.298
 4144POPC   C2B54056   9.282  35.359   6.778
 4144POPC   C3B54057   9.242  35.051   7.112
 4144POPC   C4B54058   9.220  35.112   7.605
 4145POPC   NC354059   3.711  37.974   5.375
 4145POPC   PO454060   3.746  37.200   5.347
 4145POPC   GL154061   3.644  37.528   5.653
 4145POPC   GL254062   3.300  37.601   5.697
 4145POPC   C1A54063   3.608  37.779   6.056
 4145POPC   D2A54064   3.819  37.651   6.433
 4145POPC   C3A54065   3.611  37.752   6.799
 4145POPC   C4A54066   3.570  37.727   7.221
 4145POPC   C1B54067   3.198  37.454   6.134
 4145POPC   C2B54068   3.303  37.370   6.563
 4145POPC   C3B54069   3.166  37.485   6.983
 4145POPC   C4B54070   3.261  37.324   7.400
 4146POPC   NC354071  42.958  22.165   5.250
 4146POPC   PO454072  43.411  22.456   5.575
 4146POPC   GL154073  43.176  22.118   5.744
 4146POPC   GL254074  42.835  22.248   5.770
 4146POPC   C1A54075  43.306  22.113   6.172
 4146POPC   D2A54076  43.305  21.992   6.605
 4146POPC   C3A54077  43.168  22.265   6.945
 4146POPC   C4A54078  43.273  22.432   7.341
 4146POPC   C1B54079  42.820  21.956   6.157
 4146POPC   C2B54080  42.755  21.938   6.613
 4146POPC   C3B54081  42.645  22.206   6.935
 4146POPC   C4B54082  42.813  22.202   7.335
 4147POPC   NC354083  15.427  28.243   5.424
 4147POPC   PO454084  15.290  28.880   5.459
 4147POPC   GL154085  15.360  28.593   5.815
 4147POPC   GL254086  15.091  28.372   5.793
 4147POPC   C1A54087  15.208  28.629   6.255
 4147POPC   D2A54088  15.029  28.617   6.645
 4147POPC   C3A54089  15.296  28.740   6.917
 4147POPC   C4A54090  15.254  28.383   7.097
 4147POPC   C1B54091  15.293  28.142   6.110
 4147POPC   C2B54092  15.191  28.129   6.519
 4147POPC   C3B54093  15.281  27.913   6.880
 4147POPC   C4B54094  15.036  27.936   7.231
 4148POPC   NC354095   5.357  18.556   5.668
 4148POPC   PO454096   4.833  18.160   5.405
 4148POPC   GL154097   5.130  18.015   5.735
 4148POPC   GL254098   4.996  18.262   5.938
 4148POPC   C1A54099   5.435  18.062   6.115
 4148POPC   D2A54100   5.394  18.325   6.486
 4148POPC   C3A54101   5.059  18.329   6.794
 4148POPC   C4A54102   5.095  18.247   7.207
 4148POPC   C1B54103   4.914  18.480   6.311
 4148POPC   C2B54104   4.659  18.666   6.633
 4148POPC   C3B54105   4.619  18.492   7.040
 4148POPC   C4B54106   4.731  18.500   7.461
 4149POPC   NC354107  20.840  43.116   5.421
 4149POPC   PO454108  20.239  43.091   5.703
 4149POPC   GL154109  20.652  43.100   5.889
 4149POPC   GL254110  20.816  42.799   5.952
 4149POPC   C1A54111  20.901  43.357   6.180
 4149POPC   D2A54112  20.926  43.234   6.612
 4149POPC   C3A54113  20.861  43.507   6.903
 4149POPC   C4A54114  20.860  43.383   7.311
 4149POPC   C1B54115  20.592  42.954   6.370
 4149POPC   C2B54116  20.480  42.930   6.822
 4149POPC   C3B54117  20.617  42.946   7.251
 4149POPC   C4B54118  20.556  43.096   7.682
 4150POPC   NC354119  33.589  19.859   5.458
 4150POPC   PO454120  34.200  19.697   5.445
 4150POPC   GL154121  34.012  19.838   5.862
 4150POPC   GL254122  33.686  19.995   5.932
 4150POPC   C1A54123  33.912  19.636   6.279
 4150POPC   D2A54124  33.819  19.689   6.738
 4150POPC   C3A54125  34.033  19.891   7.114
 4150POPC   C4A54126  34.098  20.102   7.517
 4150POPC   C1B54127  33.307  20.069   6.146
 4150POPC   C2B54128  33.111  20.186   6.517
 4150POPC   C3B54129  33.425  20.109   6.811
 4150POPC   C4B54130  33.505  19.763   7.125
 4151POPC   NC354131  42.554  43.423   5.238
 4151POPC   PO454132  42.345  43.989   5.300
 4151POPC   GL154133  42.404  43.777   5.658
 4151POPC   GL254134  42.117  43.724   5.752
 4151POPC   C1A54135  42.528  43.843   6.090
 4151POPC   D2A54136  42.420  44.021   6.474
 4151POPC   C3A54137  42.557  43.843   6.839
 4151POPC   C4A54138  42.522  44.089   7.224
 4151POPC   C1B54139  42.039  43.669   6.189
 4151POPC   C2B54140  41.937  43.889   6.583
 4151POPC   C3B54141  42.087  43.892   7.003
 4151POPC   C4B54142  42.215  43.721   7.420
 4152POPC   NC354143  32.054  23.022   5.193
 4152POPC   PO454144  32.475  22.524   5.351
 4152POPC   GL154145  32.181  22.808   5.641
 4152POPC   GL254146  32.237  23.192   5.681
 4152POPC   C1A54147  32.015  22.916   6.080
 4152POPC   D2A54148  32.248  22.863   6.484
 4152POPC   C3A54149  32.054  22.975   6.895
 4152POPC   C4A54150  32.250  22.724   7.251
 4152POPC   C1B54151  32.507  23.151   6.087
 4152POPC   C2B54152  32.669  23.243   6.526
 4152POPC   C3B54153  32.542  23.058   6.902
 4152POPC   C4B54154  32.350  23.225   7.269
 4153POPC   NC354155  21.283  38.839   5.435
 4153POPC   PO454156  21.667  38.349   5.491
 4153POPC   GL154157  21.427  38.530   5.846
 4153POPC   GL254158  21.624  38.858   5.829
 4153POPC   C1A54159  21.212  38.480   6.277
 4153POPC   D2A54160  21.092  38.349   6.717
 4153POPC   C3A54161  21.389  38.390   7.050
 4153POPC   C4A54162  21.353  38.458   7.457
 4153POPC   C1B54163  21.700  38.710   6.244
 4153POPC   C2B54164  21.529  38.664   6.657
 4153POPC   C3B54165  21.691  38.807   7.072
 4153POPC   C4B54166  21.676  38.831   7.540
 4154POPC   NC354167   2.813   0.673   5.421
 4154POPC   PO454168   2.627   0.137   5.318
 4154POPC   GL154169   2.593   0.353   5.768
 4154POPC   GL254170   2.918   0.479   5.867
 4154POPC   C1A54171   2.617   0.479   6.255
 4154POPC   D2A54172   2.857   0.396   6.630
 4154POPC   C3A54173   2.586   0.500   6.986
 4154POPC   C4A54174   2.372   0.790   7.277
 4154POPC   C1B54175   3.093   0.718   6.212
 4154POPC   C2B54176   3.030   0.890   6.614
 4154POPC   C3B54177   3.127   0.663   7.018
 4154POPC   C4B54178   2.928   0.436   7.350
 4155POPC   NC354179  19.450   6.414   5.293
 4155POPC   PO454180  18.901   6.823   5.179
 4155POPC   GL154181  18.912   6.797   5.618
 4155POPC   GL254182  19.251   6.826   5.676
 4155POPC   C1A54183  18.972   6.576   6.038
 4155POPC   D2A54184  19.091   6.703   6.474
 4155POPC   C3A54185  19.111   6.426   6.844
 4155POPC   C4A54186  18.823   6.449   7.221
 4155POPC   C1B54187  19.426   6.908   6.109
 4155POPC   C2B54188  19.598   6.671   6.489
 4155POPC   C3B54189  19.481   6.798   6.887
 4155POPC   C4B54190  19.129   6.848   7.154
 4156POPC   NC354191  22.191  29.176   5.271
 4156POPC   PO454192  22.240  29.832   5.410
 4156POPC   GL154193  22.268  29.515   5.759
 4156POPC   GL254194  21.939  29.469   5.878
 4156POPC   C1A54195  22.335  29.299   6.189
 4156POPC   D2A54196  22.413  29.333   6.648
 4156POPC   C3A54197  22.394  29.026   7.010
 4156POPC   C4A54198  22.330  28.883   7.466
 4156POPC   C1B54199  21.816  29.419   6.340
 4156POPC   C2B54200  21.895  29.271   6.782
 4156POPC   C3B54201  21.930  29.142   7.228
 4156POPC   C4B54202  22.093  29.350   7.605
 4157POPC   NC354203  36.586  38.800   5.198
 4157POPC   PO454204  36.932  38.348   5.575
 4157POPC   GL154205  37.119  38.465   5.938
 4157POPC   GL254206  37.330  38.166   5.940
 4157POPC   C1A54207  36.966  38.622   6.350
 4157POPC   D2A54208  37.142  38.530   6.760
 4157POPC   C3A54209  36.913  38.533   7.151
 4157POPC   C4A54210  37.018  38.686   7.557
 4157POPC   C1B54211  37.126  38.128   6.359
 4157POPC   C2B54212  36.821  38.107   6.723
 4157POPC   C3B54213  36.929  38.003   7.147
 4157POPC   C4B54214  37.333  38.174   7.323
 4158POPC   NC354215  20.553  34.844   5.447
 4158POPC   PO454216  20.460  35.469   5.379
 4158POPC   GL154217  20.571  35.282   5.816
 4158POPC   GL254218  20.853  35.088   5.817
 4158POPC   C1A54219  20.396  35.174   6.278
 4158POPC   D2A54220  20.313  35.171   6.751
 4158POPC   C3A54221  20.511  35.432   7.059
 4158POPC   C4A54222  20.466  35.365   7.492
 4158POPC   C1B54223  20.889  35.288   6.220
 4158POPC   C2B54224  20.796  35.224   6.646
 4158POPC   C3B54225  21.010  35.302   7.021
 4158POPC   C4B54226  20.916  35.127   7.427
 4159POPC   NC354227  30.001   3.922   5.539
 4159POPC   PO454228  29.741   4.562   5.248
 4159POPC   GL154229  29.683   4.619   5.703
 4159POPC   GL254230  29.738   4.273   5.800
 4159POPC   C1A54231  29.820   4.613   6.165
 4159POPC   D2A54232  30.104   4.626   6.530
 4159POPC   C3A54233  29.928   4.512   6.943
 4159POPC   C4A54234  29.857   4.356   7.360
 4159POPC   C1B54235  29.917   4.057   6.197
 4159POPC   C2B54236  30.103   4.109   6.623
 4159POPC   C3B54237  29.983   3.960   7.054
 4159POPC   C4B54238  29.633   3.888   7.352
 4160POPC   NC354239  12.251  31.408   5.438
 4160POPC   PO454240  11.738  31.781   5.573
 4160POPC   GL154241  11.864  31.446   5.828
 4160POPC   GL254242  12.197  31.537   5.926
 4160POPC   C1A54243  11.920  31.229   6.217
 4160POPC   D2A54244  12.070  31.512   6.530
 4160POPC   C3A54245  12.000  31.340   6.929
 4160POPC   C4A54246  12.056  31.568   7.279
 4160POPC   C1B54247  12.447  31.306   6.200
 4160POPC   C2B54248  12.443  31.162   6.619
 4160POPC   C3B54249  12.496  31.407   6.999
 4160POPC   C4B54250  12.527  31.497   7.435
 4161POPC   NC354251  30.153  15.068   5.428
 4161POPC   PO454252  29.535  15.228   5.467
 4161POPC   GL154253  29.798  15.166   5.868
 4161POPC   GL254254  30.111  15.382   5.837
 4161POPC   C1A54255  29.802  15.018   6.338
 4161POPC   D2A54256  29.991  14.969   6.782
 4161POPC   C3A54257  29.832  15.158   7.146
 4161POPC   C4A54258  29.725  15.574   7.181
 4161POPC   C1B54259  30.257  15.243   6.242
 4161POPC   C2B54260  30.423  15.461   6.606
 4161POPC   C3B54261  30.304  15.340   7.034
 4161POPC   C4B54262  30.382  14.968   7.282
 4162POPC   NC354263  23.373  30.214   5.079
 4162POPC   PO454264  23.538  30.781   5.463
 4162POPC   GL154265  23.674  30.703   5.848
 4162POPC   GL254266  23.320  30.744   5.953
 4162POPC   C1A54267  23.702  30.747   6.273
 4162POPC   D2A54268  23.837  30.582   6.595
 4162POPC   C3A54269  23.766  30.812   6.917
 4162POPC   C4A54270  23.781  30.751   7.313
 4162POPC   C1B54271  23.401  30.344   6.232
 4162POPC   C2B54272  23.446  30.279   6.687
 4162POPC   C3B54273  23.392  30.472   7.100
 4162POPC   C4B54274  23.383  30.538   7.561
 4163POPC   NC354275  13.944  27.076   5.592
 4163POPC   PO454276  14.351  26.583   5.598
 4163POPC   GL154277  14.294  26.908   5.918
 4163POPC   GL254278  14.340  27.257   5.818
 4163POPC   C1A54279  14.081  26.847   6.298
 4163POPC   D2A54280  14.220  26.502   6.564
 4163POPC   C3A54281  14.423  26.631   6.924
 4163POPC   C4A54282  14.358  26.815   7.333
 4163POPC   C1B54283  14.522  27.285   6.204
 4163POPC   C2B54284  14.474  27.019   6.579
 4163POPC   C3B54285  14.651  27.101   6.981
 4163POPC   C4B54286  14.454  27.336   7.289
 4164POPC   NC354287  43.362  17.318   5.338
 4164POPC   PO454288  42.839  17.052   5.580
 4164POPC   GL154289  42.962  17.517   5.732
 4164POPC   GL254290  43.301  17.558   5.814
 4164POPC   C1A54291  42.959  17.831   6.121
 4164POPC   D2A54292  42.747  17.776   6.561
 4164POPC   C3A54293  42.844  17.518   6.920
 4164POPC   C4A54294  43.101  17.458   7.277
 4164POPC   C1B54295  43.213  17.379   6.229
 4164POPC   C2B54296  43.263  17.338   6.683
 4164POPC   C3B54297  43.397  17.089   7.060
 4164POPC   C4B54298  43.344  17.043   7.503
 4165POPC   NC354299  16.468  14.560   5.395
 4165POPC   PO454300  16.890  13.992   5.369
 4165POPC   GL154301  16.760  14.150   5.761
 4165POPC   GL254302  16.890  14.475   5.846
 4165POPC   C1A54303  16.639  14.187   6.199
 4165POPC   D2A54304  16.477  14.346   6.575
 4165POPC   C3A54305  16.715  14.326   6.903
 4165POPC   C4A54306  16.607  14.331   7.320
 4165POPC   C1B54307  16.689  14.686   6.235
 4165POPC   C2B54308  16.716  14.802   6.710
 4165POPC   C3B54309  16.910  14.731   7.164
 4165POPC   C4B54310  17.110  14.814   7.596
 4166POPC   NC354311  11.534  23.557   5.501
 4166POPC   PO454312  11.043  23.991   5.571
 4166POPC   GL154313  11.183  23.650   5.856
 4166POPC   GL254314  11.428  23.848   5.995
 4166POPC   C1A54315  11.330  23.407   6.234
 4166POPC   D2A54316  11.176  23.337   6.658
 4166POPC   C3A54317  11.339  23.607   7.013
 4166POPC   C4A54318  11.626  23.953   7.032
 4166POPC   C1B54319  11.093  23.861   6.322
 4166POPC   C2B54320  10.959  24.159   6.657
 4166POPC   C3B54321  11.041  24.125   7.110
 4166POPC   C4B54322  11.311  24.075   7.474
 4167POPC   NC354323  12.122  40.778   5.349
 4167POPC   PO454324  12.536  41.236   5.562
 4167POPC   GL154325  12.340  40.876   5.841
 4167POPC   GL254326  11.986  40.789   5.851
 4167POPC   C1A54327  12.272  40.621   6.262
 4167POPC   D2A54328  12.067  40.770   6.663
 4167POPC   C3A54329  12.269  40.682   7.071
 4167POPC   C4A54330  12.301  40.516   7.538
 4167POPC   C1B54331  12.058  41.077   6.230
 4167POPC   C2B54332  12.262  41.279   6.581
 4167POPC   C3B54333  12.103  41.173   6.988
 4167POPC   C4B54334  11.763  40.892   7.110
 4168POPC   NC354335  33.851  38.710   5.408
 4168POPC   PO454336  33.357  38.328   5.376
 4168POPC   GL154337  33.548  38.334   5.791
 4168POPC   GL254338  33.904  38.382   5.783
 4168POPC   C1A54339  33.562  38.624   6.143
 4168POPC   D2A54340  33.788  38.606   6.536
 4168POPC   C3A54341  33.599  38.712   6.925
 4168POPC   C4A54342  33.792  38.680   7.310
 4168POPC   C1B54343  34.079  38.166   6.106
 4168POPC   C2B54344  34.058  38.153   6.550
 4168POPC   C3B54345  33.921  38.294   6.967
 4168POPC   C4B54346  34.117  38.122   7.337
 4169POPC   NC354347  15.172  34.760   5.213
 4169POPC   PO454348  14.948  34.179   5.262
 4169POPC   GL154349  15.145  34.542   5.715
 4169POPC   GL254350  15.109  34.850   5.742
 4169POPC   C1A54351  15.016  34.560   6.198
 4169POPC   D2A54352  15.253  34.298   6.514
 4169POPC   C3A54353  15.053  34.195   6.910
 4169POPC   C4A54354  14.967  34.446   7.291
 4169POPC   C1B54355  15.356  34.910   6.156
 4169POPC   C2B54356  15.411  34.786   6.621
 4169POPC   C3B54357  15.209  34.853   7.042
 4169POPC   C4B54358  15.276  34.797   7.515
 4170POPC   NC354359  18.577   9.564   5.330
 4170POPC   PO454360  18.214  10.154   5.395
 4170POPC   GL154361  18.178   9.770   5.631
 4170POPC   GL254362  18.499   9.668   5.814
 4170POPC   C1A54363  18.047   9.677   6.038
 4170POPC   D2A54364  18.296   9.736   6.426
 4170POPC   C3A54365  18.157   9.695   6.857
 4170POPC   C4A54366  18.102   9.565   7.266
 4170POPC   C1B54367  18.723   9.816   6.152
 4170POPC   C2B54368  18.781   9.722   6.582
 4170POPC   C3B54369  18.575   9.944   6.905
 4170POPC   C4B54370  18.439   9.941   7.295
 4171POPC   NC354371   5.184  31.783   5.422
 4171POPC   PO454372   4.696  31.386   5.728
 4171POPC   GL154373   5.171  31.468   5.831
 4171POPC   GL254374   5.341  31.164   5.780
 4171POPC   C1A54375   5.445  31.708   6.127
 4171POPC   D2A54376   5.236  31.617   6.507
 4171POPC   C3A54377   5.191  31.666   6.956
 4171POPC   C4A54378   4.876  31.422   7.193
 4171POPC   C1B54379   5.460  31.191   6.239
 4171POPC   C2B54380   5.503  31.228   6.717
 4171POPC   C3B54381   5.358  31.233   7.181
 4171POPC   C4B54382   5.349  31.150   7.640
 4172POPC   NC354383  15.868   1.959   5.413
 4172POPC   PO454384  16.298   2.451   5.183
 4172POPC   GL154385  16.282   2.102   5.675
 4172POPC   GL254386  15.940   2.029   5.900
 4172POPC   C1A54387  16.317   2.091   6.194
 4172POPC   D2A54388  16.133   2.223   6.616
 4172POPC   C3A54389  16.341   2.059   6.987
 4172POPC   C4A54390  16.084   1.785   7.217
 4172POPC   C1B54391  15.688   2.148   6.274
 4172POPC   C2B54392  15.643   2.151   6.736
 4172POPC   C3B54393  15.695   2.126   7.174
 4172POPC   C4B54394  15.693   1.848   7.548
 4173POPC   NC354395  36.480   8.220   5.299
 4173POPC   PO454396  35.831   8.209   5.337
 4173POPC   GL154397  35.974   8.317   5.727
 4173POPC   GL254398  36.341   8.329   5.799
 4173POPC   C1A54399  35.949   8.086   6.112
 4173POPC   D2A54400  36.127   8.247   6.486
 4173POPC   C3A54401  35.906   8.177   6.834
 4173POPC   C4A54402  35.907   8.139   7.221
 4173POPC   C1B54403  36.482   8.020   6.124
 4173POPC   C2B54404  36.486   7.874   6.550
 4173POPC   C3B54405  36.402   8.083   6.937
 4173POPC   C4B54406  36.318   7.856   7.320
 4174POPC   NC354407  35.125  25.488   5.434
 4174POPC   PO454408  35.256  26.121   5.408
 4174POPC   GL154409  35.375  26.300   5.773
 4174POPC   GL254410  35.088  26.338   5.989
 4174POPC   C1A54411  35.552  26.209   6.177
 4174POPC   D2A54412  35.330  26.206   6.555
 4174POPC   C3A54413  35.432  25.908   6.858
 4174POPC   C4A54414  35.198  25.998   7.197
 4174POPC   C1B54415  35.166  25.880   6.161
 4174POPC   C2B54416  35.117  25.617   6.564
 4174POPC   C3B54417  35.051  25.536   7.022
 4174POPC   C4B54418  34.906  25.462   7.456
 4175POPC   NC354419  14.743  31.752   5.489
 4175POPC   PO454420  14.232  31.471   5.154
 4175POPC   GL154421  14.179  31.511   5.641
 4175POPC   GL254422  14.434  31.492   5.813
 4175POPC   C1A54423  14.118  31.621   6.152
 4175POPC   D2A54424  14.165  31.383   6.599
 4175POPC   C3A54425  14.263  31.590   6.969
 4175POPC   C4A54426  14.454  31.761   7.328
 4175POPC   C1B54427  14.579  31.436   6.231
 4175POPC   C2B54428  14.693  31.170   6.534
 4175POPC   C3B54429  14.608  31.130   6.955
 4175POPC   C4B54430  14.816  31.326   7.266
 4176POPC   NC354431  29.220  44.519   5.546
 4176POPC   PO454432  29.229  43.823   5.293
 4176POPC   GL154433  29.292  43.883   5.746
 4176POPC   GL254434  29.465  44.169   5.852
 4176POPC   C1A54435  29.314  43.864   6.237
 4176POPC   D2A54436  29.368  43.739   6.696
 4176POPC   C3A54437  29.099  43.684   7.091
 4176POPC   C4A54438  29.206  43.358   7.409
 4176POPC   C1B54439  29.431  44.369   6.257
 4176POPC   C2B54440  29.580  44.206   6.659
 4176POPC   C3B54441  29.391  44.132   7.091
 4176POPC   C4B54442  28.997  44.227   7.355
 4177POPC   NC354443   4.148   9.868   5.299
 4177POPC   PO454444   4.491   9.412   5.483
 4177POPC   GL154445   4.269   9.680   5.771
 4177POPC   GL254446   3.923   9.823   5.747
 4177POPC   C1A54447   4.223   9.587   6.195
 4177POPC   D2A54448   4.394   9.765   6.564
 4177POPC   C3A54449   4.248   9.604   6.945
 4177POPC   C4A54450   4.515   9.752   7.240
 4177POPC   C1B54451   3.960  10.008   6.130
 4177POPC   C2B54452   3.968  10.057   6.566
 4177POPC   C3B54453   4.115  10.076   6.984
 4177POPC   C4B54454   4.038   9.846   7.371
 4178POPC   NC354455  21.275  21.000   5.253
 4178POPC   PO454456  21.271  20.370   5.524
 4178POPC   GL154457  21.384  20.753   5.839
 4178POPC   GL254458  21.532  20.476   5.965
 4178POPC   C1A54459  21.575  20.886   6.253
 4178POPC   D2A54460  21.615  20.701   6.668
 4178POPC   C3A54461  21.227  20.581   6.818
 4178POPC   C4A54462  21.221  20.726   7.202
 4178POPC   C1B54463  21.256  20.491   6.296
 4178POPC   C2B54464  21.101  20.164   6.486
 4178POPC   C3B54465  21.105  20.088   6.888
 4178POPC   C4B54466  21.071  20.244   7.269
 4179POPC   NC354467  31.033   6.946   5.443
 4179POPC   PO454468  30.580   6.545   5.602
 4179POPC   GL154469  30.731   6.463   5.934
 4179POPC   GL254470  30.940   6.194   5.920
 4179POPC   C1A54471  30.630   6.676   6.301
 4179POPC   D2A54472  30.738   6.963   6.610
 4179POPC   C3A54473  30.596   6.882   6.988
 4179POPC   C4A54474  30.778   6.971   7.323
 4179POPC   C1B54475  30.953   6.260   6.356
 4179POPC   C2B54476  30.748   6.436   6.731
 4179POPC   C3B54477  30.762   6.438   7.174
 4179POPC   C4B54478  30.957   6.295   7.564
 4180POPC   NC354479  40.376   7.741   5.196
 4180POPC   PO454480  39.774   8.038   5.143
 4180POPC   GL154481  39.824   8.043   5.647
 4180POPC   GL254482  39.871   7.734   5.840
 4180POPC   C1A54483  39.808   8.302   6.059
 4180POPC   D2A54484  39.939   8.397   6.482
 4180POPC   C3A54485  39.695   8.504   6.850
 4180POPC   C4A54486  39.992   8.471   7.181
 4180POPC   C1B54487  40.187   7.963   6.060
 4180POPC   C2B54488  40.270   7.991   6.515
 4180POPC   C3B54489  40.310   8.156   6.932
 4180POPC   C4B54490  40.178   7.969   7.341
 4181POPC   NC354491   1.795   5.228   5.305
 4181POPC   PO454492   1.157   4.937   5.124
 4181POPC   GL154493   1.368   5.037   5.528
 4181POPC   GL254494   1.255   5.363   5.604
 4181POPC   C1A54495   1.405   4.927   5.986
 4181POPC   D2A54496   1.422   4.995   6.454
 4181POPC   C3A54497   1.243   4.779   6.827
 4181POPC   C4A54498   1.201   4.923   7.233
 4181POPC   C1B54499   1.055   5.289   6.029
 4181POPC   C2B54500   0.977   5.316   6.469
 4181POPC   C3B54501   1.179   5.308   6.860
 4181POPC   C4B54502   1.051   5.405   7.270
 4182POPC   NC354503  42.729  19.618   5.422
 4182POPC   PO454504  42.314  20.091   5.180
 4182POPC   GL154505  42.212  19.981   5.614
 4182POPC   GL254506  42.421  19.727   5.826
 4182POPC   C1A54507  42.072  20.051   6.043
 4182POPC   D2A54508  42.081  19.792   6.428
 4182POPC   C3A54509  42.042  19.908   6.875
 4182POPC   C4A54510  42.138  19.611   7.198
 4182POPC   C1B54511  42.557  19.966   6.214
 4182POPC   C2B54512  42.444  20.127   6.636
 4182POPC   C3B54513  42.555  19.875   7.008
 4182POPC   C4B54514  42.780  19.777   7.399
 4183POPC   NC354515  31.535  14.044   5.758
 4183POPC   PO454516  31.613  13.481   5.374
 4183POPC   GL154517  31.403  13.505   5.796
 4183POPC   GL254518  31.116  13.712   5.938
 4183POPC   C1A54519  31.529  13.595   6.228
 4183POPC   D2A54520  31.837  13.703   6.526
 4183POPC   C3A54521  31.625  13.726   6.899
 4183POPC   C4A54522  31.583  13.480   7.251
 4183POPC   C1B54523  31.185  14.026   6.288
 4183POPC   C2B54524  31.461  14.158   6.615
 4183POPC   C3B54525  31.215  14.012   6.932
 4183POPC   C4B54526  31.023  14.040   7.297
 4184POPC   NC354527   1.583  19.580   5.341
 4184POPC   PO454528   0.897  19.790   5.407
 4184POPC   GL154529   0.989  19.847   5.830
 4184POPC   GL254530   1.327  19.960   5.826
 4184POPC   C1A54531   1.181  19.644   6.212
 4184POPC   D2A54532   1.343  19.767   6.637
 4184POPC   C3A54533   1.153  19.522   6.957
 4184POPC   C4A54534   1.105  19.600   7.391
 4184POPC   C1B54535   1.529  20.179   6.170
 4184POPC   C2B54536   1.725  20.139   6.590
 4184POPC   C3B54537   1.627  20.198   7.013
 4184POPC   C4B54538   1.503  20.055   7.415
 4185POPC   NC354539   4.785  34.236   5.124
 4185POPC   PO454540   5.189  33.779   5.519
 4185POPC   GL154541   5.312  33.816   5.897
 4185POPC   GL254542   4.956  33.827   5.982
 4185POPC   C1A54543   5.320  34.068   6.259
 4185POPC   D2A54544   5.160  33.907   6.636
 4185POPC   C3A54545   5.253  34.107   7.025
 4185POPC   C4A54546   5.429  33.976   7.450
 4185POPC   C1B54547   4.798  34.093   6.280
 4185POPC   C2B54548   4.647  34.037   6.664
 4185POPC   C3B54549   4.730  34.234   7.043
 4185POPC   C4B54550   4.934  34.036   7.416
 4186POPC   NC354551   5.827  17.133   5.401
 4186POPC   PO454552   6.155  16.560   5.307
 4186POPC   GL154553   6.127  16.772   5.732
 4186POPC   GL254554   5.807  16.931   5.864
 4186POPC   C1A54555   6.212  16.958   6.154
 4186POPC   D2A54556   6.048  16.775   6.554
 4186POPC   C3A54557   6.048  16.950   6.967
 4186POPC   C4A54558   5.932  16.754   7.391
 4186POPC   C1B54559   5.730  17.099   6.299
 4186POPC   C2B54560   5.603  17.114   6.758
 4186POPC   C3B54561   5.471  16.861   7.145
 4186POPC   C4B54562   5.508  16.920   7.628
 4187POPC   NC354563  20.929  39.532   5.391
 4187POPC   PO454564  21.582  39.232   5.451
 4187POPC   GL154565  21.288  39.251   5.790
 4187POPC   GL254566  21.464  39.544   5.847
 4187POPC   C1A54567  21.263  39.001   6.198
 4187POPC   D2A54568  21.045  38.853   6.599
 4187POPC   C3A54569  21.177  38.914   7.050
 4187POPC   C4A54570  21.255  39.270   7.367
 4187POPC   C1B54571  21.516  39.449   6.257
 4187POPC   C2B54572  21.631  39.156   6.542
 4187POPC   C3B54573  21.494  39.301   6.907
 4187POPC   C4B54574  21.553  39.697   7.168
 4188POPC   NC354575  23.274   4.281   5.400
 4188POPC   PO454576  22.781   4.724   5.489
 4188POPC   GL154577  22.962   4.447   5.813
 4188POPC   GL254578  23.241   4.615   5.851
 4188POPC   C1A54579  22.747   4.345   6.223
 4188POPC   D2A54580  22.608   4.047   6.532
 4188POPC   C3A54581  22.598   4.263   6.910
 4188POPC   C4A54582  22.789   4.183   7.293
 4188POPC   C1B54583  23.275   4.355   6.226
 4188POPC   C2B54584  23.065   4.254   6.636
 4188POPC   C3B54585  23.228   4.407   7.006
 4188POPC   C4B54586  23.224   4.433   7.420
 4189POPC   NC354587  43.231   7.872   5.036
 4189POPC   PO454588  42.997   8.314   5.449
 4189POPC   GL154589  43.281   8.181   5.755
 4189POPC   GL254590  43.122   7.909   5.802
 4189POPC   C1A54591  43.398   8.132   6.211
 4189POPC   D2A54592  43.511   8.369   6.591
 4189POPC   C3A54593  43.257   8.336   6.965
 4189POPC   C4A54594  43.379   8.109   7.308
 4189POPC   C1B54595  42.895   8.173   6.138
 4189POPC   C2B54596  42.935   8.139   6.601
 4189POPC   C3B54597  42.723   8.242   7.013
 4189POPC   C4B54598  42.838   8.060   7.433
 4190POPC   NC354599  23.090  42.475   5.606
 4190POPC   PO454600  22.740  42.032   5.278
 4190POPC   GL154601  22.804  42.067   5.754
 4190POPC   GL254602  23.173  42.002   5.783
 4190POPC   C1A54603  22.919  42.272   6.200
 4190POPC   D2A54604  22.929  42.529   6.606
 4190POPC   C3A54605  22.662  42.456   6.976
 4190POPC   C4A54606  22.751  42.521   7.413
 4190POPC   C1B54607  23.371  42.008   6.188
 4190POPC   C2B54608  23.230  42.114   6.584
 4190POPC   C3B54609  23.126  42.226   6.981
 4190POPC   C4B54610  23.201  42.272   7.392
 4191POPC   NC354611  23.329  43.154   5.488
 4191POPC   PO454612  22.726  42.739   5.655
 4191POPC   GL154613  22.902  43.116   5.810
 4191POPC   GL254614  23.197  42.929   5.932
 4191POPC   C1A54615  22.776  43.278   6.222
 4191POPC   D2A54616  22.965  43.033   6.539
 4191POPC   C3A54617  22.778  42.968   6.921
 4191POPC   C4A54618  22.572  43.266   7.143
 4191POPC   C1B54619  23.272  43.327   6.170
 4191POPC   C2B54620  23.277  43.414   6.621
 4191POPC   C3B54621  23.349  43.042   6.900
 4191POPC   C4B54622  23.179  42.709   7.137
 4192POPC   NC354623  12.471  14.483   5.643
 4192POPC   PO454624  11.872  14.112   5.528
 4192POPC   GL154625  11.995  14.414   5.858
 4192POPC   GL254626  12.254  14.199   6.026
 4192POPC   C1A54627  12.021  14.563   6.310
 4192POPC   D2A54628  12.003  14.313   6.708
 4192POPC   C3A54629  11.890  14.499   7.127
 4192POPC   C4A54630  12.162  14.459   7.523
 4192POPC   C1B54631  11.839  14.067   6.221
 4192POPC   C2B54632  11.721  13.812   6.566
 4192POPC   C3B54633  11.733  13.967   6.981
 4192POPC   C4B54634  12.140  14.069   7.184
 4193POPC   NC354635  13.056  17.039   5.407
 4193POPC   PO454636  12.701  16.449   5.461
 4193POPC   GL154637  12.820  16.584   5.868
 4193POPC   GL254638  12.850  16.943   5.882
 4193POPC   C1A54639  12.672  16.588   6.308
 4193POPC   D2A54640  12.846  16.818   6.670
 4193POPC   C3A54641  12.665  16.734   7.051
 4193POPC   C4A54642  12.560  16.427   7.344
 4193POPC   C1B54643  13.128  16.817   6.237
 4193POPC   C2B54644  13.361  16.778   6.640
 4193POPC   C3B54645  13.201  16.745   7.040
 4193POPC   C4B54646  13.042  16.594   7.419
 4194POPC   NC354647  33.842  28.730   5.449
 4194POPC   PO454648  34.127  28.069   5.518
 4194POPC   GL154649  33.945  28.254   5.889
 4194POPC   GL254650  33.718  28.506   5.892
 4194POPC   C1A54651  33.866  28.277   6.344
 4194POPC   D2A54652  33.952  28.455   6.764
 4194POPC   C3A54653  34.120  28.201   7.114
 4194POPC   C4A54654  33.920  28.050   7.518
 4194POPC   C1B54655  33.431  28.756   6.129
 4194POPC   C2B54656  33.452  28.925   6.550
 4194POPC   C3B54657  33.539  28.744   6.961
 4194POPC   C4B54658  33.625  28.343   7.174
 4195POPC   NC354659   3.422  30.242   5.337
 4195POPC   PO454660   3.460  30.876   5.342
 4195POPC   GL154661   3.451  30.646   5.703
 4195POPC   GL254662   3.711  30.358   5.754
 4195POPC   C1A54663   3.457  30.881   6.086
 4195POPC   D2A54664   3.674  30.792   6.455
 4195POPC   C3A54665   3.439  30.912   6.805
 4195POPC   C4A54666   3.648  30.933   7.203
 4195POPC   C1B54667   3.497  30.390   6.166
 4195POPC   C2B54668   3.273  30.488   6.586
 4195POPC   C3B54669   3.440  30.456   7.030
 4195POPC   C4B54670   3.400  30.588   7.486
 4196POPC   NC354671  40.554  22.467   5.448
 4196POPC   PO454672  41.033  21.918   5.383
 4196POPC   GL154673  40.859  22.115   5.758
 4196POPC   GL254674  40.533  21.934   5.780
 4196POPC   C1A54675  41.015  22.262   6.189
 4196POPC   D2A54676  41.117  22.081   6.594
 4196POPC   C3A54677  41.042  22.209   7.053
 4196POPC   C4A54678  41.145  21.929   7.434
 4196POPC   C1B54679  40.526  22.117   6.203
 4196POPC   C2B54680  40.664  22.365   6.577
 4196POPC   C3B54681  40.485  22.458   6.962
 4196POPC   C4B54682  40.529  22.104   7.213
 4197POPC   NC354683  12.268  19.180   5.213
 4197POPC   PO454684  11.811  18.836   5.592
 4197POPC   GL154685  12.174  18.964   5.755
 4197POPC   GL254686  12.038  19.286   5.843
 4197POPC   C1A54687  12.173  18.890   6.197
 4197POPC   D2A54688  11.850  18.939   6.504
 4197POPC   C3A54689  12.009  19.022   6.888
 4197POPC   C4A54690  12.063  18.960   7.332
 4197POPC   C1B54691  12.183  19.463   6.262
 4197POPC   C2B54692  12.349  19.388   6.709
 4197POPC   C3B54693  12.189  19.421   7.169
 4197POPC   C4B54694  12.237  19.536   7.646
 4198POPC   NC354695  39.634   1.186   5.508
 4198POPC   PO454696  38.956   1.412   5.485
 4198POPC   GL154697  39.276   1.419   5.793
 4198POPC   GL254698  39.224   1.073   5.855
 4198POPC   C1A54699  39.494   1.348   6.177
 4198POPC   D2A54700  39.236   1.213   6.525
 4198POPC   C3A54701  39.424   1.242   6.937
 4198POPC   C4A54702  39.209   1.525   7.215
 4198POPC   C1B54703  38.886   1.050   6.157
 4198POPC   C2B54704  38.814   0.924   6.590
 4198POPC   C3B54705  38.934   1.132   6.977
 4198POPC   C4B54706  39.199   1.000   7.345
 4199POPC   NC354707  16.101   3.659   5.346
 4199POPC   PO454708  15.773   3.113   5.397
 4199POPC   GL154709  16.048   3.281   5.760
 4199POPC   GL254710  16.006   3.674   5.847
 4199POPC   C1A54711  16.070   3.370   6.236
 4199POPC   D2A54712  15.830   3.554   6.549
 4199POPC   C3A54713  15.962   3.455   6.951
 4199POPC   C4A54714  15.770   3.169   7.198
 4199POPC   C1B54715  16.131   3.906   6.257
 4199POPC   C2B54716  16.233   3.844   6.714
 4199POPC   C3B54717  16.242   3.867   7.177
 4199POPC   C4B54718  15.930   3.654   7.432
 4200POPC   NC354719  37.740   7.110   5.258
 4200POPC   PO454720  37.898   6.419   5.400
 4200POPC   GL154721  37.760   6.717   5.717
 4200POPC   GL254722  37.468   6.527   5.839
 4200POPC   C1A54723  37.606   6.891   6.139
 4200POPC   D2A54724  37.393   6.808   6.526
 4200POPC   C3A54725  37.264   6.760   6.966
 4200POPC   C4A54726  37.336   6.467   7.319
 4200POPC   C1B54727  37.701   6.394   6.235
 4200POPC   C2B54728  37.599   6.356   6.678
 4200POPC   C3B54729  37.769   6.596   6.999
 4200POPC   C4B54730  38.102   6.532   7.282
 4201POPC   NC354731  34.379   2.568   5.077
 4201POPC   PO454732  34.942   2.814   5.385
 4201POPC   GL154733  34.763   2.739   5.778
 4201POPC   GL254734  34.685   3.056   5.949
 4201POPC   C1A54735  34.615   2.600   6.190
 4201POPC   D2A54736  34.360   2.710   6.543
 4201POPC   C3A54737  34.584   2.608   6.895
 4201POPC   C4A54738  34.438   2.649   7.274
 4201POPC   C1B54739  34.893   3.227   6.305
 4201POPC   C2B54740  34.638   3.122   6.647
 4201POPC   C3B54741  34.449   3.106   7.012
 4201POPC   C4B54742  34.716   3.130   7.325
 4202POPC   NC354743  17.949  32.479   5.499
 4202POPC   PO454744  18.646  32.400   5.618
 4202POPC   GL154745  18.263  32.228   5.842
 4202POPC   GL254746  18.158  32.518   6.014
 4202POPC   C1A54747  18.137  32.028   6.242
 4202POPC   D2A54748  18.180  32.250   6.650
 4202POPC   C3A54749  18.083  32.051   7.033
 4202POPC   C4A54750  18.225  32.096   7.464
 4202POPC   C1B54751  18.537  32.388   6.271
 4202POPC   C2B54752  18.730  32.327   6.671
 4202POPC   C3B54753  18.583  32.179   7.090
 4202POPC   C4B54754  18.702  32.214   7.549
 4203POPC   NC354755  33.502  29.670   5.424
 4203POPC   PO454756  34.181  29.943   5.341
 4203POPC   GL154757  33.872  29.872   5.753
 4203POPC   GL254758  33.680  29.589   5.889
 4203POPC   C1A54759  33.752  30.079   6.178
 4203POPC   D2A54760  33.650  30.232   6.621
 4203POPC   C3A54761  33.867  30.051   7.013
 4203POPC   C4A54762  33.989  29.625   7.091
 4203POPC   C1B54763  33.980  29.624   6.205
 4203POPC   C2B54764  33.860  29.762   6.588
 4203POPC   C3B54765  33.465  29.780   6.788
 4203POPC   C4B54766  33.475  29.720   7.190
 4204POPC   NC354767  37.185   2.969   5.469
 4204POPC   PO454768  36.640   2.586   5.428
 4204POPC   GL154769  36.860   2.568   5.801
 4204POPC   GL254770  37.180   2.418   5.676
 4204POPC   C1A54771  36.922   2.832   6.204
 4204POPC   D2A54772  37.010   3.046   6.655
 4204POPC   C3A54773  36.905   2.945   7.140
 4204POPC   C4A54774  37.100   2.963   7.600
 4204POPC   C1B54775  37.175   2.381   6.138
 4204POPC   C2B54776  37.131   2.530   6.557
 4204POPC   C3B54777  37.057   2.428   6.957
 4204POPC   C4B54778  37.159   2.536   7.354
 4205POPC   NC354779  14.565  25.331   5.300
 4205POPC   PO454780  14.067  24.860   5.340
 4205POPC   GL154781  14.211  25.017   5.753
 4205POPC   GL254782  14.555  25.135   5.765
 4205POPC   C1A54783  14.243  25.193   6.189
 4205POPC   D2A54784  13.946  25.435   6.455
 4205POPC   C3A54785  14.052  25.578   6.881
 4205POPC   C4A54786  14.133  25.372   7.276
 4205POPC   C1B54787  14.746  25.306   6.159
 4205POPC   C2B54788  14.626  25.245   6.580
 4205POPC   C3B54789  14.579  25.340   7.010
 4205POPC   C4B54790  14.626  25.403   7.447
 4206POPC   NC354791  22.470  22.151   5.448
 4206POPC   PO454792  21.878  21.952   5.361
 4206POPC   GL154793  22.115  21.919   5.746
 4206POPC   GL254794  22.087  22.278   5.784
 4206POPC   C1A54795  22.317  21.945   6.183
 4206POPC   D2A54796  22.486  21.887   6.620
 4206POPC   C3A54797  22.246  22.089   6.962
 4206POPC   C4A54798  22.216  22.086   7.398
 4206POPC   C1B54799  21.984  22.347   6.215
 4206POPC   C2B54800  21.935  22.502   6.662
 4206POPC   C3B54801  21.823  22.600   7.123
 4206POPC   C4B54802  21.835  22.412   7.583
 4207POPC   NC354803  23.774  35.472   5.479
 4207POPC   PO454804  23.528  34.895   5.199
 4207POPC   GL154805  23.547  35.052   5.652
 4207POPC   GL254806  23.628  34.795   5.830
 4207POPC   C1A54807  23.724  35.259   6.077
 4207POPC   D2A54808  24.036  35.345   6.392
 4207POPC   C3A54809  23.920  35.465   6.811
 4207POPC   C4A54810  23.934  35.425   7.265
 4207POPC   C1B54811  23.489  34.854   6.237
 4207POPC   C2B54812  23.584  35.106   6.619
 4207POPC   C3B54813  23.461  35.283   7.048
 4207POPC   C4B54814  23.340  35.135   7.472
 4208POPC   NC354815  18.793   1.319   5.457
 4208POPC   PO454816  19.426   1.278   5.541
 4208POPC   GL154817  19.129   1.223   5.839
 4208POPC   GL254818  18.962   0.909   5.787
 4208POPC   C1A54819  19.070   1.446   6.219
 4208POPC   D2A54820  19.147   1.412   6.664
 4208POPC   C3A54821  19.124   1.014   6.875
 4208POPC   C4A54822  19.180   1.076   7.312
 4208POPC   C1B54823  18.857   0.973   6.216
 4208POPC   C2B54824  18.681   1.272   6.505
 4208POPC   C3B54825  18.722   1.338   6.938
 4208POPC   C4B54826  18.670   0.977   7.224
 4209POPC   NC354827   3.510  44.523   5.596
 4209POPC   PO454828   3.625   0.153   5.457
 4209POPC   GL154829   3.456  44.953   5.866
 4209POPC   GL254830   3.764  44.765   5.992
 4209POPC   C1A54831   3.339  44.730   6.275
 4209POPC   D2A54832   3.606  44.535   6.619
 4209POPC   C3A54833   3.433  44.593   7.028
 4209POPC   C4A54834   3.216  44.678   7.415
 4209POPC   C1B54835   4.020  44.443   6.245
 4209POPC   C2B54836   4.050  44.223   6.647
 4209POPC   C3B54837   3.895  44.352   7.053
 4209POPC   C4B54838   3.654  44.392   7.479
 4210POPC   NC354839  41.171  31.330   5.179
 4210POPC   PO454840  40.557  31.559   5.299
 4210POPC   GL154841  40.779  31.537   5.716
 4210POPC   GL254842  40.778  31.169   5.799
 4210POPC   C1A54843  40.724  31.737   6.153
 4210POPC   D2A54844  40.900  31.643   6.561
 4210POPC   C3A54845  40.671  31.485   6.939
 4210POPC   C4A54846  40.908  31.770   7.129
 4210POPC   C1B54847  40.705  31.242   6.237
 4210POPC   C2B54848  40.896  31.128   6.621
 4210POPC   C3B54849  41.163  31.382   6.926
 4210POPC   C4B54850  40.991  31.259   7.299
 4211POPC   NC354851   5.681  37.256   5.320
 4211POPC   PO454852   5.874  37.899   5.537
 4211POPC   GL154853   5.982  37.535   5.779
 4211POPC   GL254854   6.299  37.350   5.709
 4211POPC   C1A54855   5.894  37.652   6.216
 4211POPC   D2A54856   5.961  37.930   6.594
 4211POPC   C3A54857   5.735  37.727   6.946
 4211POPC   C4A54858   5.845  37.777   7.392
 4211POPC   C1B54859   6.351  37.423   6.176
 4211POPC   C2B54860   6.160  37.466   6.614
 4211POPC   C3B54861   6.211  37.551   7.072
 4211POPC   C4B54862   6.235  37.259   7.437
 4212POPC   NC354863  11.760  41.735   5.641
 4212POPC   PO454864  11.897  41.177   5.317
 4212POPC   GL154865  12.043  41.304   5.748
 4212POPC   GL254866  11.752  41.347   5.956
 4212POPC   C1A54867  12.301  41.534   6.090
 4212POPC   D2A54868  12.290  41.850   6.440
 4212POPC   C3A54869  12.100  41.706   6.838
 4212POPC   C4A54870  12.366  41.544   7.179
 4212POPC   C1B54871  11.862  41.551   6.347
 4212POPC   C2B54872  11.735  41.333   6.684
 4212POPC   C3B54873  11.596  41.391   7.080
 4212POPC   C4B54874  11.892  41.564   7.344
 4213POPC   NC354875  24.318  27.132   5.408
 4213POPC   PO454876  24.773  26.565   5.503
 4213POPC   GL154877  24.394  26.699   5.689
 4213POPC   GL254878  24.516  26.961   5.835
 4213POPC   C1A54879  24.261  26.639   6.136
 4213POPC   D2A54880  24.510  26.533   6.505
 4213POPC   C3A54881  24.414  26.755   6.889
 4213POPC   C4A54882  24.577  26.759   7.293
 4213POPC   C1B54883  24.748  26.812   6.151
 4213POPC   C2B54884  24.853  26.919   6.560
 4213POPC   C3B54885  24.707  27.220   6.842
 4213POPC   C4B54886  24.770  27.232   7.257
 4214POPC   NC354887  43.691   1.146   5.032
 4214POPC   PO454888  43.066   1.302   5.181
 4214POPC   GL154889  43.061   1.358   5.666
 4214POPC   GL254890  43.338   1.140   5.772
 4214POPC   C1A54891  42.887   1.310   6.117
 4214POPC   D2A54892  43.007   1.196   6.559
 4214POPC   C3A54893  42.796   1.306   6.950
 4214POPC   C4A54894  42.932   1.203   7.356
 4214POPC   C1B54895  43.392   1.300   6.195
 4214POPC   C2B54896  43.392   1.534   6.587
 4214POPC   C3B54897  43.313   1.390   7.004
 4214POPC   C4B54898  43.595   1.196   7.261
 4215POPC   NC354899  35.382   0.194   5.382
 4215POPC   PO454900  35.131   0.846   5.451
 4215POPC   GL154901  35.143   0.503   5.758
 4215POPC   GL254902  35.501   0.559   5.745
 4215POPC   C1A54903  35.256   0.306   6.191
 4215POPC   D2A54904  35.424   0.321   6.636
 4215POPC   C3A54905  35.195   0.201   7.016
 4215POPC   C4A54906  35.289   0.323   7.467
 4215POPC   C1B54907  35.345   0.841   6.102
 4215POPC   C2B54908  35.271   0.809   6.540
 4215POPC   C3B54909  35.183   0.699   6.958
 4215POPC   C4B54910  35.254   0.835   7.366
 4216POPC   NC354911  25.468  37.689   5.538
 4216POPC   PO454912  24.846  37.444   5.425
 4216POPC   GL154913  25.074  37.539   5.829
 4216POPC   GL254914  25.368  37.348   5.897
 4216POPC   C1A54915  25.312  37.890   6.095
 4216POPC   D2A54916  25.586  37.894   6.428
 4216POPC   C3A54917  25.339  37.789   6.769
 4216POPC   C4A54918  25.302  37.938   7.190
 4216POPC   C1B54919  25.358  37.436   6.335
 4216POPC   C2B54920  25.678  37.415   6.650
 4216POPC   C3B54921  25.616  37.528   7.096
 4216POPC   C4B54922  25.146  37.447   7.169
 4217POPC   NC354923  34.922   3.983   5.347
 4217POPC   PO454924  34.501   4.519   5.408
 4217POPC   GL154925  34.575   4.490   5.811
 4217POPC   GL254926  34.621   4.146   5.737
 4217POPC   C1A54927  34.398   4.514   6.221
 4217POPC   D2A54928  34.480   4.563   6.672
 4217POPC   C3A54929  34.510   4.591   7.104
 4217POPC   C4A54930  34.836   4.373   7.289
 4217POPC   C1B54931  34.435   3.971   6.074
 4217POPC   C2B54932  34.464   4.074   6.504
 4217POPC   C3B54933  34.645   4.067   6.909
 4217POPC   C4B54934  34.452   3.965   7.305
 4218POPC   NC354935  18.420   1.784   5.400
 4218POPC   PO454936  18.319   2.304   5.212
 4218POPC   GL154937  18.399   2.279   5.686
 4218POPC   GL254938  18.642   2.018   5.789
 4218POPC   C1A54939  18.319   2.232   6.166
 4218POPC   D2A54940  18.206   2.423   6.591
 4218POPC   C3A54941  18.104   2.146   6.993
 4218POPC   C4A54942  18.042   1.799   7.337
 4218POPC   C1B54943  18.827   2.299   6.053
 4218POPC   C2B54944  18.749   2.380   6.503
 4218POPC   C3B54945  18.594   2.283   6.903
 4218POPC   C4B54946  18.526   1.956   7.201
 4219POPC   NC354947  13.728  30.316   5.379
 4219POPC   PO454948  13.619  31.037   5.193
 4219POPC   GL154949  13.761  30.769   5.601
 4219POPC   GL254950  13.430  30.608   5.783
 4219POPC   C1A54951  13.843  30.781   6.064
 4219POPC   D2A54952  13.799  30.928   6.504
 4219POPC   C3A54953  13.842  30.605   6.812
 4219POPC   C4A54954  13.750  30.681   7.215
 4219POPC   C1B54955  13.347  30.788   6.253
 4219POPC   C2B54956  13.347  30.816   6.749
 4219POPC   C3B54957  13.233  30.734   7.198
 4219POPC   C4B54958  13.404  30.409   7.463
 4220POPC   NC354959  30.655  20.008   5.218
 4220POPC   PO454960  30.693  20.678   5.342
 4220POPC   GL154961  30.775  20.685   5.799
 4220POPC   GL254962  30.654  20.941   5.983
 4220POPC   C1A54963  30.854  20.511   6.182
 4220POPC   D2A54964  30.600  20.527   6.520
 4220POPC   C3A54965  30.765  20.570   6.911
 4220POPC   C4A54966  30.532  20.681   7.256
 4220POPC   C1B54967  30.391  20.960   6.318
 4220POPC   C2B54968  30.455  20.976   6.782
 4220POPC   C3B54969  30.795  21.073   7.103
 4220POPC   C4B54970  30.810  20.967   7.571
 4221POPC   NC354971  29.208  12.382   5.383
 4221POPC   PO454972  28.859  11.735   5.449
 4221POPC   GL154973  29.125  11.891   5.817
 4221POPC   GL254974  29.308  12.219   5.854
 4221POPC   C1A54975  28.995  12.073   6.232
 4221POPC   D2A54976  28.828  12.210   6.651
 4221POPC   C3A54977  29.124  12.115   6.974
 4221POPC   C4A54978  28.943  11.747   7.128
 4221POPC   C1B54979  29.616  12.217   6.190
 4221POPC   C2B54980  29.692  12.056   6.616
 4221POPC   C3B54981  29.616  12.262   7.013
 4221POPC   C4B54982  29.575  12.382   7.478
 4222POPC   NC354983  38.256  10.111   5.656
 4222POPC   PO454984  38.740   9.803   5.278
 4222POPC   GL154985  38.557   9.579   5.693
 4222POPC   GL254986  38.215   9.437   5.806
 4222POPC   C1A54987  38.661   9.479   6.152
 4222POPC   D2A54988  38.472   9.527   6.545
 4222POPC   C3A54989  38.589   9.893   6.760
 4222POPC   C4A54990  38.663  10.000   7.164
 4222POPC   C1B54991  38.114   9.695   6.211
 4222POPC   C2B54992  38.071   9.869   6.687
 4222POPC   C3B54993  38.164   9.863   7.170
 4222POPC   C4B54994  38.075   9.859   7.655
 4223POPC   NC354995  42.550   2.548   5.180
 4223POPC   PO454996  41.990   2.811   5.475
 4223POPC   GL154997  42.310   2.667   5.784
 4223POPC   GL254998  42.678   2.577   5.703
 4223POPC   C1A54999  42.191   2.680   6.231
 4223POPC   D2A55000  42.047   2.968   6.599
 4223POPC   C3A55001  42.112   2.918   7.075
 4223POPC   C4A55002  42.105   2.573   7.366
 4223POPC   C1B55003  42.708   2.692   6.173
 4223POPC   C2B55004  42.559   2.808   6.588
 4223POPC   C3B55005  42.523   2.608   6.978
 4223POPC   C4B55006  42.636   2.873   7.317
 4224POPC   NC355007  30.261  39.509   5.534
 4224POPC   PO455008  30.768  38.981   5.419
 4224POPC   GL155009  30.564  39.078   5.769
 4224POPC   GL255010  30.701  39.399   5.820
 4224POPC   C1A55011  30.599  39.076   6.219
 4224POPC   D2A55012  30.722  39.315   6.616
 4224POPC   C3A55013  30.742  39.020   6.983
 4224POPC   C4A55014  30.585  38.938   7.400
 4224POPC   C1B55015  30.628  39.644   6.203
 4224POPC   C2B55016  30.433  39.760   6.604
 4224POPC   C3B55017  30.147  39.599   6.864
 4224POPC   C4B55018  30.372  39.347   7.138
 4225POPC   NC355019  27.374  37.946   5.250
 4225POPC   PO455020  27.549  37.336   5.503
 4225POPC   GL155021  27.548  37.763   5.758
 4225POPC   GL255022  27.868  37.976   5.793
 4225POPC   C1A55023  27.520  37.959   6.200
 4225POPC   D2A55024  27.502  37.778   6.640
 4225POPC   C3A55025  27.559  38.005   7.045
 4225POPC   C4A55026  27.408  38.039   7.500
 4225POPC   C1B55027  27.952  37.710   6.176
 4225POPC   C2B55028  27.920  37.475   6.559
 4225POPC   C3B55029  27.702  37.403   6.962
 4225POPC   C4B55030  27.608  37.587   7.358
 4226POPC   NC355031  30.907  11.635   5.444
 4226POPC   PO455032  30.389  12.133   5.446
 4226POPC   GL155033  30.564  11.936   5.773
 4226POPC   GL255034  30.825  12.161   5.921
 4226POPC   C1A55035  30.465  11.928   6.205
 4226POPC   D2A55036  30.617  12.129   6.573
 4226POPC   C3A55037  30.628  11.914   6.962
 4226POPC   C4A55038  30.315  11.985   7.270
 4226POPC   C1B55039  31.042  12.313   6.307
 4226POPC   C2B55040  31.047  12.334   6.777
 4226POPC   C3B55041  30.874  12.319   7.228
 4226POPC   C4B55042  30.888  12.318   7.711
 4227POPC   NC355043  11.880  22.550   5.461
 4227POPC   PO455044  11.281  22.227   5.458
 4227POPC   GL155045  11.216  22.172   5.870
 4227POPC   GL255046  11.077  21.830   5.854
 4227POPC   C1A55047  11.141  22.377   6.280
 4227POPC   D2A55048  10.965  22.230   6.681
 4227POPC   C3A55049  11.213  22.431   6.970
 4227POPC   C4A55050  11.329  22.449   7.380
 4227POPC   C1B55051  11.227  21.889   6.290
 4227POPC   C2B55052  11.431  22.035   6.662
 4227POPC   C3B55053  11.382  21.842   7.016
 4227POPC   C4B55054  11.049  22.002   7.217
 4228POPC   NC355055  34.026   5.121   5.379
 4228POPC   PO455056  33.456   4.924   5.618
 4228POPC   GL155057  33.799   5.071   5.883
 4228POPC   GL255058  34.190   5.059   5.877
 4228POPC   C1A55059  33.748   5.032   6.331
 4228POPC   D2A55060  33.699   4.971   6.761
 4228POPC   C3A55061  33.633   5.339   7.022
 4228POPC   C4A55062  33.629   5.065   7.341
 4228POPC   C1B55063  34.126   5.359   6.210
 4228POPC   C2B55064  33.978   5.388   6.635
 4228POPC   C3B55065  34.109   5.159   7.011
 4228POPC   C4B55066  34.079   5.299   7.428
 4229POPC   NC355067  14.453  28.020   5.452
 4229POPC   PO455068  14.057  27.505   5.437
 4229POPC   GL155069  14.247  27.756   5.829
 4229POPC   GL255070  14.627  27.673   5.846
 4229POPC   C1A55071  14.345  27.779   6.284
 4229POPC   D2A55072  14.377  27.517   6.663
 4229POPC   C3A55073  14.098  27.629   7.030
 4229POPC   C4A55074  14.099  27.637   7.510
 4229POPC   C1B55075  14.852  27.842   6.227
 4229POPC   C2B55076  14.794  27.848   6.670
 4229POPC   C3B55077  14.591  27.775   7.046
 4229POPC   C4B55078  14.581  27.825   7.462
 4230POPC   NC355079   4.992  17.682   5.347
 4230POPC   PO455080   5.595  17.524   5.381
 4230POPC   GL155081   5.244  17.496   5.758
 4230POPC   GL255082   4.820  17.483   5.782
 4230POPC   C1A55083   5.082  17.695   6.154
 4230POPC   D2A55084   4.952  17.957   6.472
 4230POPC   C3A55085   5.047  17.809   6.910
 4230POPC   C4A55086   5.020  17.615   7.315
 4230POPC   C1B55087   4.695  17.369   6.228
 4230POPC   C2B55088   4.992  17.387   6.583
 4230POPC   C3B55089   5.141  17.247   6.975
 4230POPC   C4B55090   5.064  17.088   7.388
 4231POPC   NC355091  41.615   6.011   5.484
 4231POPC   PO455092  41.773   5.379   5.539
 4231POPC   GL155093  41.762   5.667   5.880
 4231POPC   GL255094  41.433   5.792   5.908
 4231POPC   C1A55095  41.692   5.742   6.338
 4231POPC   D2A55096  41.466   5.902   6.691
 4231POPC   C3A55097  41.557   5.666   7.080
 4231POPC   C4A55098  41.782   5.805   7.457
 4231POPC   C1B55099  41.351   6.134   6.195
 4231POPC   C2B55100  41.342   6.400   6.562
 4231POPC   C3B55101  41.178   6.342   6.971
 4231POPC   C4B55102  41.403   6.126   7.304
 4232POPC   NC355103  28.574  31.217   5.330
 4232POPC   PO455104  29.068  31.584   5.106
 4232POPC   GL155105  29.077  31.484   5.663
 4232POPC   GL255106  28.807  31.347   5.794
 4232POPC   C1A55107  29.165  31.552   6.102
 4232POPC   D2A55108  29.032  31.623   6.516
 4232POPC   C3A55109  29.056  31.442   6.910
 4232POPC   C4A55110  29.299  31.631   7.202
 4232POPC   C1B55111  28.860  31.152   6.197
 4232POPC   C2B55112  28.757  31.160   6.594
 4232POPC   C3B55113  28.845  30.968   7.003
 4232POPC   C4B55114  29.007  31.182   7.364
 4233POPC   NC355115  20.879  19.287   5.428
 4233POPC   PO455116  20.357  18.960   5.531
 4233POPC   GL155117  20.774  18.959   5.809
 4233POPC   GL255118  20.764  18.641   5.973
 4233POPC   C1A55119  21.005  18.987   6.242
 4233POPC   D2A55120  20.818  18.893   6.674
 4233POPC   C3A55121  20.884  19.122   7.076
 4233POPC   C4A55122  20.814  18.874   7.432
 4233POPC   C1B55123  20.491  18.950   6.248
 4233POPC   C2B55124  20.331  19.041   6.680
 4233POPC   C3B55125  20.421  18.855   7.102
 4233POPC   C4B55126  20.319  19.016   7.530
 4234POPC   NC355127   1.699  44.315   5.373
 4234POPC   PO455128   2.088  44.893   5.522
 4234POPC   GL155129   2.104  44.733   5.896
 4234POPC   GL255130   1.897  44.481   5.852
 4234POPC   C1A55131   1.878  44.830   6.278
 4234POPC   D2A55132   1.890   0.000   6.673
 4234POPC   C3A55133   2.049  44.640   6.858
 4234POPC   C4A55134   1.946  44.537   7.257
 4234POPC   C1B55135   2.212  44.236   6.097
 4234POPC   C2B55136   2.470  44.274   6.479
 4234POPC   C3B55137   2.301  44.173   6.880
 4234POPC   C4B55138   2.220  44.100   7.305
 4235POPC   NC355139  20.348  40.163   5.396
 4235POPC   PO455140  20.555  39.568   5.664
 4235POPC   GL155141  20.605  39.870   5.985
 4235POPC   GL255142  20.668  40.194   5.823
 4235POPC   C1A55143  20.850  40.052   6.330
 4235POPC   D2A55144  20.906  40.358   6.684
 4235POPC   C3A55145  20.792  40.113   7.044
 4235POPC   C4A55146  20.605  39.704   7.128
 4235POPC   C1B55147  20.427  40.334   6.203
 4235POPC   C2B55148  20.422  40.172   6.624
 4235POPC   C3B55149  20.313  40.277   7.017
 4235POPC   C4B55150  20.541  40.417   7.369
 4236POPC   NC355151   6.520   0.216   5.377
 4236POPC   PO455152   6.843   0.746   5.223
 4236POPC   GL155153   6.792   0.687   5.699
 4236POPC   GL255154   6.891   0.358   5.768
 4236POPC   C1A55155   6.598   0.516   6.136
 4236POPC   D2A55156   6.710   0.385   6.570
 4236POPC   C3A55157   6.474   0.439   6.971
 4236POPC   C4A55158   6.509   0.778   7.285
 4236POPC   C1B55159   7.008   0.182   6.167
 4236POPC   C2B55160   7.070  44.988   6.555
 4236POPC   C3B55161   6.968   0.152   6.943
 4236POPC   C4B55162   6.952   0.545   7.115
 4237POPC   NC355163  22.331  21.466   5.411
 4237POPC   PO455164  21.715  21.152   5.343
 4237POPC   GL155165  21.938  21.254   5.706
 4237POPC   GL255166  22.263  21.068   5.706
 4237POPC   C1A55167  22.142  21.455   6.055
 4237POPC   D2A55168  22.012  21.512   6.456
 4237POPC   C3A55169  22.157  21.560   6.862
 4237POPC   C4A55170  21.944  21.701   7.222
 4237POPC   C1B55171  22.376  20.959   6.140
 4237POPC   C2B55172  22.395  21.179   6.545
 4237POPC   C3B55173  22.232  21.045   6.949
 4237POPC   C4B55174  22.327  21.268   7.314
 4238POPC   NC355175  43.880  22.451   5.516
 4238POPC   PO455176  43.680  21.806   5.328
 4238POPC   GL155177  43.713  22.029   5.770
 4238POPC   GL255178  44.099  22.063   5.818
 4238POPC   C1A55179  43.814  22.241   6.216
 4238POPC   D2A55180  43.984  22.105   6.640
 4238POPC   C3A55181  43.675  22.041   6.977
 4238POPC   C4A55182  43.673  22.141   7.435
 4238POPC   C1B55183  44.320  22.081   6.224
 4238POPC   C2B55184  44.538  22.204   6.629
 4238POPC   C3B55185  44.454  22.372   7.005
 4238POPC   C4B55186  44.056  22.330   7.159
 4239POPC   NC355187   9.390  32.425   5.435
 4239POPC   PO455188   9.018  31.863   5.462
 4239POPC   GL155189   9.356  32.038   5.799
 4239POPC   GL255190   9.736  32.143   5.715
 4239POPC   C1A55191   9.634  32.033   6.195
 4239POPC   D2A55192   9.926  32.163   6.519
 4239POPC   C3A55193   9.661  32.282   6.856
 4239POPC   C4A55194   9.506  32.039   7.211
 4239POPC   C1B55195   9.893  32.462   6.060
 4239POPC   C2B55196   9.819  32.682   6.476
 4239POPC   C3B55197  10.010  32.715   6.911
 4239POPC   C4B55198   9.983  32.603   7.364
 4240POPC   NC355199  29.706  42.093   5.442
 4240POPC   PO455200  30.277  42.537   5.450
 4240POPC   GL155201  30.020  42.444   5.820
 4240POPC   GL255202  29.839  42.185   5.928
 4240POPC   C1A55203  29.964  42.547   6.273
 4240POPC   D2A55204  29.832  42.340   6.626
 4240POPC   C3A55205  30.030  42.385   7.023
 4240POPC   C4A55206  29.688  42.430   7.290
 4240POPC   C1B55207  30.121  42.047   6.238
 4240POPC   C2B55208  30.190  41.894   6.624
 4240POPC   C3B55209  29.901  41.919   6.934
 4240POPC   C4B55210  29.785  41.923   7.373
 4241POPC   NC355211   6.975   9.158   5.361
 4241POPC   PO455212   6.645   8.564   5.356
 4241POPC   GL155213   6.496   8.842   5.687
 4241POPC   GL255214   6.342   9.168   5.644
 4241POPC   C1A55215   6.739   8.916   6.070
 4241POPC   D2A55216   6.730   8.658   6.456
 4241POPC   C3A55217   6.691   8.854   6.860
 4241POPC   C4A55218   6.529   8.642   7.226
 4241POPC   C1B55219   6.372   9.277   6.084
 4241POPC   C2B55220   6.560   9.195   6.497
 4241POPC   C3B55221   6.440   9.300   6.943
 4241POPC   C4B55222   6.218   9.218   7.357
 4242POPC   NC355223  16.952  24.002   5.334
 4242POPC   PO455224  16.429  23.578   5.091
 4242POPC   GL155225  16.447  23.760   5.629
 4242POPC   GL255226  16.750  23.948   5.799
 4242POPC   C1A55227  16.649  23.543   6.061
 4242POPC   D2A55228  16.623  23.636   6.493
 4242POPC   C3A55229  16.710  23.545   6.927
 4242POPC   C4A55230  16.680  23.250   7.307
 4242POPC   C1B55231  16.992  23.911   6.221
 4242POPC   C2B55232  17.079  23.855   6.688
 4242POPC   C3B55233  16.978  23.984   7.112
 4242POPC   C4B55234  16.891  24.015   7.567
 4243POPC   NC355235  11.961   6.345   5.207
 4243POPC   PO455236  11.665   6.837   5.412
 4243POPC   GL155237  11.664   6.778   5.873
 4243POPC   GL255238  11.761   6.450   5.893
 4243POPC   C1A55239  11.889   6.725   6.309
 4243POPC   D2A55240  12.079   6.523   6.707
 4243POPC   C3A55241  12.009   6.765   7.113
 4243POPC   C4A55242  12.199   6.981   7.490
 4243POPC   C1B55243  11.763   6.213   6.332
 4243POPC   C2B55244  11.741   6.119   6.790
 4243POPC   C3B55245  12.006   6.254   7.161
 4243POPC   C4B55246  12.004   6.462   7.552
 4244POPC   NC355247  22.562   1.020   5.454
 4244POPC   PO455248  23.197   0.893   5.383
 4244POPC   GL155249  23.023   1.117   5.761
 4244POPC   GL255250  22.790   1.417   5.728
 4244POPC   C1A55251  23.117   1.132   6.208
 4244POPC   D2A55252  22.967   1.321   6.577
 4244POPC   C3A55253  23.195   1.237   6.927
 4244POPC   C4A55254  23.060   1.449   7.254
 4244POPC   C1B55255  22.636   1.308   6.161
 4244POPC   C2B55256  22.484   1.145   6.575
 4244POPC   C3B55257  22.649   1.188   6.983
 4244POPC   C4B55258  22.403   1.120   7.315
 4245POPC   NC355259  32.012   3.713   5.472
 4245POPC   PO455260  32.632   3.399   5.405
 4245POPC   GL155261  32.524   3.365   5.836
 4245POPC   GL255262  32.166   3.403   5.856
 4245POPC   C1A55263  32.478   3.588   6.247
 4245POPC   D2A55264  32.569   3.901   6.585
 4245POPC   C3A55265  32.468   3.677   6.965
 4245POPC   C4A55266  32.583   3.263   7.104
 4245POPC   C1B55267  31.914   3.184   6.164
 4245POPC   C2B55268  31.975   3.247   6.562
 4245POPC   C3B55269  32.119   3.153   6.946
 4245POPC   C4B55270  32.136   3.426   7.290
 4246POPC   NC355271  33.431  21.982   5.091
 4246POPC   PO455272  34.072  22.188   5.315
 4246POPC   GL155273  33.815  22.146   5.682
 4246POPC   GL255274  33.551  21.882   5.596
 4246POPC   C1A55275  33.770  22.332   6.119
 4246POPC   D2A55276  33.786  22.500   6.541
 4246POPC   C3A55277  33.634  22.286   6.932
 4246POPC   C4A55278  33.811  22.347   7.361
 4246POPC   C1B55279  33.635  21.846   6.050
 4246POPC   C2B55280  33.753  21.959   6.477
 4246POPC   C3B55281  33.932  21.889   6.865
 4246POPC   C4B55282  33.727  21.832   7.265
 4247POPC   NC355283  24.220  18.457   5.420
 4247POPC   PO455284  24.871  18.163   5.313
 4247POPC   GL155285  24.678  18.106   5.732
 4247POPC   GL255286  24.532  18.414   5.817
 4247POPC   C1A55287  24.489  18.062   6.191
 4247POPC   D2A55288  24.543  18.256   6.634
 4247POPC   C3A55289  24.449  18.225   7.100
 4247POPC   C4A55290  24.675  17.978   7.386
 4247POPC   C1B55291  24.592  18.612   6.235
 4247POPC   C2B55292  24.496  18.769   6.653
 4247POPC   C3B55293  24.694  18.686   7.066
 4247POPC   C4B55294  24.876  18.491   7.458
 4248POPC   NC355295  14.764   2.123   5.398
 4248POPC   PO455296  15.424   1.797   5.345
 4248POPC   GL155297  15.231   1.830   5.742
 4248POPC   GL255298  15.138   2.176   5.763
 4248POPC   C1A55299  15.140   1.883   6.192
 4248POPC   D2A55300  15.166   2.161   6.537
 4248POPC   C3A55301  15.209   1.954   6.937
 4248POPC   C4A55302  15.247   1.811   7.338
 4248POPC   C1B55303  14.846   2.314   6.112
 4248POPC   C2B55304  14.674   2.302   6.560
 4248POPC   C3B55305  14.843   2.301   6.969
 4248POPC   C4B55306  14.916   2.186   7.425
 4249POPC   NC355307   1.890  20.421   5.426
 4249POPC   PO455308   2.552  20.269   5.549
 4249POPC   GL155309   2.198  20.368   5.843
 4249POPC   GL255310   1.829  20.501   5.901
 4249POPC   C1A55311   2.150  20.577   6.255
 4249POPC   D2A55312   2.017  20.657   6.688
 4249POPC   C3A55313   2.166  20.469   7.096
 4249POPC   C4A55314   2.232  20.769   7.459
 4249POPC   C1B55315   1.650  20.671   6.282
 4249POPC   C2B55316   1.506  20.595   6.694
 4249POPC   C3B55317   1.697  20.702   7.093
 4249POPC   C4B55318   1.780  20.497   7.467
 4250POPC   NC355319  10.165  44.775   5.432
 4250POPC   PO455320   9.633  44.311   5.363
 4250POPC   GL155321   9.688  44.677   5.712
 4250POPC   GL255322   9.512  44.477   5.939
 4250POPC   C1A55323   9.539  44.914   6.170
 4250POPC   D2A55324   9.536  44.584   6.521
 4250POPC   C3A55325   9.615  44.673   6.955
 4250POPC   C4A55326   9.531   0.071   7.143
 4250POPC   C1B55327   9.930  44.596   6.181
 4250POPC   C2B55328  10.140  44.700   6.572
 4250POPC   C3B55329  10.130  44.501   6.948
 4250POPC   C4B55330  10.076  44.445   7.363
 4251POPC   NC355331   3.322  20.097   5.604
 4251POPC   PO455332   3.561  19.552   5.338
 4251POPC   GL155333   3.666  19.751   5.754
 4251POPC   GL255334   3.850  20.099   5.761
 4251POPC   C1A55335   3.589  19.809   6.215
 4251POPC   D2A55336   3.858  19.770   6.607
 4251POPC   C3A55337   3.745  19.704   7.058
 4251POPC   C4A55338   3.371  19.563   7.272
 4251POPC   C1B55339   3.887  20.226   6.215
 4251POPC   C2B55340   3.492  20.241   6.482
 4251POPC   C3B55341   3.339  20.013   6.849
 4251POPC   C4B55342   3.487  20.086   7.261
 4252POPC   NC355343  31.695  18.321   5.534
 4252POPC   PO455344  31.073  18.422   5.278
 4252POPC   GL155345  31.251  18.185   5.705
 4252POPC   GL255346  31.182  18.424   6.008
 4252POPC   C1A55347  31.520  18.068   6.101
 4252POPC   D2A55348  31.796  18.146   6.470
 4252POPC   C3A55349  31.664  18.049   6.898
 4252POPC   C4A55350  31.531  18.012   7.323
 4252POPC   C1B55351  31.500  18.570   6.317
 4252POPC   C2B55352  31.587  18.539   6.729
 4252POPC   C3B55353  31.428  18.514   7.110
 4252POPC   C4B55354  31.772  18.484   7.303
 4253POPC   NC355355   3.996  19.400   5.275
 4253POPC   PO455356   3.441  18.888   5.366
 4253POPC   GL155357   3.623  18.883   5.783
 4253POPC   GL255358   3.735  19.225   5.850
 4253POPC   C1A55359   3.453  18.891   6.199
 4253POPC   D2A55360   3.654  18.903   6.596
 4253POPC   C3A55361   3.331  18.893   6.919
 4253POPC   C4A55362   3.295  19.034   7.347
 4253POPC   C1B55363   3.732  19.330   6.307
 4253POPC   C2B55364   3.535  19.370   6.735
 4253POPC   C3B55365   3.734  19.179   7.108
 4253POPC   C4B55366   3.759  19.322   7.536
 4254POPC   NC355367  26.772  15.661   5.420
 4254POPC   PO455368  27.055  16.299   5.389
 4254POPC   GL155369  26.885  16.021   5.783
 4254POPC   GL255370  26.529  16.059   5.911
 4254POPC   C1A55371  26.831  15.884   6.253
 4254POPC   D2A55372  27.076  15.922   6.631
 4254POPC   C3A55373  26.914  15.728   6.973
 4254POPC   C4A55374  26.985  16.071   7.201
 4254POPC   C1B55375  26.469  16.332   6.268
 4254POPC   C2B55376  26.564  16.557   6.655
 4254POPC   C3B55377  26.427  16.334   6.977
 4254POPC   C4B55378  26.493  15.963   7.198
 4255POPC   NC355379  19.159   8.145   5.290
 4255POPC   PO455380  18.506   8.068   5.378
 4255POPC   GL155381  18.827   8.212   5.718
 4255POPC   GL255382  19.189   8.209   5.783
 4255POPC   C1A55383  18.879   8.366   6.170
 4255POPC   D2A55384  18.790   8.515   6.618
 4255POPC   C3A55385  19.011   8.377   7.015
 4255POPC   C4A55386  18.955   8.093   7.392
 4255POPC   C1B55387  19.319   8.082   6.198
 4255POPC   C2B55388  19.100   8.079   6.591
 4255POPC   C3B55389  19.159   7.869   6.975
 4255POPC   C4B55390  19.260   7.691   7.354
 4256POPC   NC355391  35.328  27.971   5.451
 4256POPC   PO455392  35.755  27.415   5.469
 4256POPC   GL155393  35.467  27.574   5.794
 4256POPC   GL255394  35.635  27.904   5.878
 4256POPC   C1A55395  35.323  27.360   6.209
 4256POPC   D2A55396  35.585  27.143   6.520
 4256POPC   C3A55397  35.614  27.304   6.902
 4256POPC   C4A55398  35.310  27.600   7.043
 4256POPC   C1B55399  35.315  27.884   6.204
 4256POPC   C2B55400  35.093  27.856   6.609
 4256POPC   C3B55401  35.158  28.082   6.982
 4256POPC   C4B55402  35.505  28.109   7.228
 4257POPC   NC355403  40.590  23.149   5.569
 4257POPC   PO455404  41.017  22.682   5.418
 4257POPC   GL155405  40.869  22.779   5.813
 4257POPC   GL255406  40.920  23.140   5.943
 4257POPC   C1A55407  40.699  22.717   6.211
 4257POPC   D2A55408  40.494  22.857   6.569
 4257POPC   C3A55409  40.806  22.833   6.844
 4257POPC   C4A55410  40.846  22.658   7.249
 4257POPC   C1B55411  40.583  23.245   6.236
 4257POPC   C2B55412  40.480  23.383   6.646
 4257POPC   C3B55413  40.474  23.175   7.052
 4257POPC   C4B55414  40.692  23.147   7.456
 4258POPC   NC355415  19.796  20.425   5.428
 4258POPC   PO455416  20.416  20.546   5.715
 4258POPC   GL155417  19.976  20.613   5.879
 4258POPC   GL255418  19.658  20.813   5.795
 4258POPC   C1A55419  19.788  20.589   6.304
 4258POPC   D2A55420  19.919  20.844   6.666
 4258POPC   C3A55421  20.043  20.624   7.040
 4258POPC   C4A55422  20.076  20.899   7.353
 4258POPC   C1B55423  19.649  21.059   6.210
 4258POPC   C2B55424  19.446  21.022   6.595
 4258POPC   C3B55425  19.437  20.687   6.882
 4258POPC   C4B55426  19.597  20.661   7.296
 4259POPC   NC355427   4.495  20.254   5.129
 4259POPC   PO455428   3.972  20.549   5.499
 4259POPC   GL155429   4.111  20.663   5.927
 4259POPC   GL255430   4.219  21.045   5.897
 4259POPC   C1A55431   4.361  20.499   6.304
 4259POPC   D2A55432   4.625  20.761   6.617
 4259POPC   C3A55433   4.575  20.693   7.066
 4259POPC   C4A55434   4.482  20.301   7.244
 4259POPC   C1B55435   4.235  20.975   6.356
 4259POPC   C2B55436   4.160  20.834   6.805
 4259POPC   C3B55437   4.060  20.752   7.254
 4259POPC   C4B55438   4.055  21.024   7.667
 4260POPC   NC355439  30.404  29.314   5.511
 4260POPC   PO455440  29.752  29.423   5.499
 4260POPC   GL155441  29.975  29.172   5.821
 4260POPC   GL255442  30.048  28.807   5.788
 4260POPC   C1A55443  29.840  29.143   6.257
 4260POPC   D2A55444  29.747  29.373   6.634
 4260POPC   C3A55445  29.966  29.385   7.007
 4260POPC   C4A55446  29.790  29.007   7.150
 4260POPC   C1B55447  30.250  28.848   6.198
 4260POPC   C2B55448  30.074  28.883   6.641
 4260POPC   C3B55449  30.287  28.973   7.029
 4260POPC   C4B55450  30.537  29.172   7.364
 4261POPC   NC355451   8.983  13.175   5.142
 4261POPC   PO455452   8.801  12.667   5.484
 4261POPC   GL155453   9.073  12.745   5.801
 4261POPC   GL255454   8.977  13.080   5.749
 4261POPC   C1A55455   9.008  12.588   6.214
 4261POPC   D2A55456   8.929  12.764   6.590
 4261POPC   C3A55457   9.063  12.581   6.937
 4261POPC   C4A55458   9.247  12.802   7.272
 4261POPC   C1B55459   9.024  13.122   6.190
 4261POPC   C2B55460   9.147  13.270   6.600
 4261POPC   C3B55461   8.959  13.117   6.981
 4261POPC   C4B55462   8.831  13.033   7.415
 4262POPC   NC355463  12.329  18.592   5.423
 4262POPC   PO455464  11.929  18.035   5.411
 4262POPC   GL155465  12.210  18.190   5.741
 4262POPC   GL255466  11.952  18.419   5.840
 4262POPC   C1A55467  12.334  18.370   6.171
 4262POPC   D2A55468  12.168  18.455   6.600
 4262POPC   C3A55469  12.013  18.082   6.870
 4262POPC   C4A55470  12.130  18.050   7.331
 4262POPC   C1B55471  11.693  18.524   6.226
 4262POPC   C2B55472  11.654  18.476   6.702
 4262POPC   C3B55473  11.921  18.545   7.070
 4262POPC   C4B55474  11.913  18.479   7.509
 4263POPC   NC355475   6.399  18.709   5.502
 4263POPC   PO455476   5.769  18.503   5.485
 4263POPC   GL155477   5.855  18.568   5.890
 4263POPC   GL255478   6.181  18.423   5.892
 4263POPC   C1A55479   5.866  18.502   6.338
 4263POPC   D2A55480   5.680  18.694   6.706
 4263POPC   C3A55481   5.598  18.369   6.981
 4263POPC   C4A55482   6.022  18.411   7.111
 4263POPC   C1B55483   5.992  18.052   6.097
 4263POPC   C2B55484   5.893  17.905   6.515
 4263POPC   C3B55485   6.096  17.942   6.920
 4263POPC   C4B55486   6.156  17.982   7.359
 4264POPC   NC355487  24.720  17.155   5.535
 4264POPC   PO455488  24.434  16.558   5.524
 4264POPC   GL155489  24.417  16.672   5.930
 4264POPC   GL255490  24.744  16.832   5.949
 4264POPC   C1A55491  24.505  16.619   6.369
 4264POPC   D2A55492  24.710  16.743   6.739
 4264POPC   C3A55493  24.393  16.658   7.016
 4264POPC   C4A55494  24.333  16.496   7.429
 4264POPC   C1B55495  24.479  17.108   6.207
 4264POPC   C2B55496  24.324  17.068   6.621
 4264POPC   C3B55497  24.479  17.158   7.024
 4264POPC   C4B55498  24.404  16.985   7.411
 4265POPC   NC355499  13.561  14.843   5.682
 4265POPC   PO455500  13.811  15.432   5.391
 4265POPC   GL155501  13.636  15.372   5.799
 4265POPC   GL255502  13.897  15.136   5.910
 4265POPC   C1A55503  13.785  15.517   6.209
 4265POPC   D2A55504  13.971  15.418   6.587
 4265POPC   C3A55505  13.779  15.518   6.986
 4265POPC   C4A55506  13.524  15.201   7.238
 4265POPC   C1B55507  13.897  14.972   6.350
 4265POPC   C2B55508  13.877  14.816   6.809
 4265POPC   C3B55509  13.707  14.719   7.249
 4265POPC   C4B55510  13.749  14.945   7.650
 4266POPC   NC355511   9.538   0.500   5.524
 4266POPC   PO455512  10.047   0.213   5.242
 4266POPC   GL155513   9.956   0.244   5.730
 4266POPC   GL255514  10.206   0.424   5.933
 4266POPC   C1A55515   9.709   0.445   6.131
 4266POPC   D2A55516   9.732   0.655   6.540
 4266POPC   C3A55517   9.980   0.522   6.849
 4266POPC   C4A55518   9.835   0.467   7.236
 4266POPC   C1B55519  10.047   0.096   6.241
 4266POPC   C2B55520   9.819   0.072   6.656
 4266POPC   C3B55521  10.012  44.990   7.081
 4266POPC   C4B55522  10.086   0.143   7.532
 4267POPC   NC355523  34.866  35.518   5.698
 4267POPC   PO455524  34.349  35.382   5.306
 4267POPC   GL155525  34.319  35.390   5.779
 4267POPC   GL255526  34.241  35.052   5.879
 4267POPC   C1A55527  34.517  35.416   6.214
 4267POPC   D2A55528  34.713  35.724   6.504
 4267POPC   C3A55529  34.582  35.673   6.910
 4267POPC   C4A55530  34.809  35.493   7.232
 4267POPC   C1B55531  34.115  35.069   6.305
 4267POPC   C2B55532  34.311  35.294   6.650
 4267POPC   C3B55533  34.437  35.189   7.017
 4267POPC   C4B55534  34.273  34.999   7.358
 4268POPC   NC355535   8.380  35.680   5.457
 4268POPC   PO455536   7.925  36.256   5.426
 4268POPC   GL155537   8.251  36.101   5.731
 4268POPC   GL255538   8.058  35.857   5.806
 4268POPC   C1A55539   8.369  35.986   6.203
 4268POPC   D2A55540   8.576  35.882   6.612
 4268POPC   C3A55541   8.403  35.935   7.037
 4268POPC   C4A55542   8.511  36.256   7.333
 4268POPC   C1B55543   7.885  36.126   6.107
 4268POPC   C2B55544   7.967  36.133   6.556
 4268POPC   C3B55545   7.897  36.070   7.005
 4268POPC   C4B55546   8.049  36.082   7.462
 4269POPC   NC355547  12.197  33.236   5.128
 4269POPC   PO455548  12.205  32.600   5.239
 4269POPC   GL155549  12.120  32.848   5.636
 4269POPC   GL255550  12.434  32.768   5.686
 4269POPC   C1A55551  12.196  32.939   6.126
 4269POPC   D2A55552  12.030  33.237   6.450
 4269POPC   C3A55553  12.156  33.371   6.865
 4269POPC   C4A55554  12.163  33.070   7.202
 4269POPC   C1B55555  12.532  32.577   6.029
 4269POPC   C2B55556  12.496  32.547   6.457
 4269POPC   C3B55557  12.553  32.539   6.891
 4269POPC   C4B55558  12.408  32.594   7.322
 4270POPC   NC355559  25.901  30.726   5.450
 4270POPC   PO455560  26.409  30.319   5.394
 4270POPC   GL155561  26.151  30.394   5.746
 4270POPC   GL255562  26.294  30.728   5.766
 4270POPC   C1A55563  26.054  30.561   6.178
 4270POPC   D2A55564  25.887  30.839   6.509
 4270POPC   C3A55565  25.858  30.637   6.916
 4270POPC   C4A55566  26.158  30.605   7.241
 4270POPC   C1B55567  26.197  31.048   6.100
 4270POPC   C2B55568  26.175  31.258   6.496
 4270POPC   C3B55569  26.210  31.129   6.912
 4270POPC   C4B55570  25.968  31.076   7.226
 4271POPC   NC355571   7.741  19.693   5.334
 4271POPC   PO455572   7.402  20.187   5.683
 4271POPC   GL155573   7.656  19.856   5.819
 4271POPC   GL255574   7.385  19.595   5.846
 4271POPC   C1A55575   7.690  19.739   6.229
 4271POPC   D2A55576   7.373  19.644   6.544
 4271POPC   C3A55577   7.431  19.846   6.924
 4271POPC   C4A55578   7.403  19.854   7.348
 4271POPC   C1B55579   7.105  19.842   6.164
 4271POPC   C2B55580   7.079  20.073   6.572
 4271POPC   C3B55581   6.965  20.031   7.016
 4271POPC   C4B55582   6.942  19.942   7.473
 4272POPC   NC355583   6.131  32.723   5.595
 4272POPC   PO455584   6.553  33.249   5.381
 4272POPC   GL155585   6.565  33.092   5.782
 4272POPC   GL255586   6.221  33.190   5.816
 4272POPC   C1A55587   6.829  33.016   6.158
 4272POPC   D2A55588   6.707  32.837   6.540
 4272POPC   C3A55589   6.854  33.020   6.884
 4272POPC   C4A55590   6.909  32.917   7.295
 4272POPC   C1B55591   6.288  32.988   6.232
 4272POPC   C2B55592   6.270  33.053   6.674
 4272POPC   C3B55593   6.401  32.865   7.050
 4272POPC   C4B55594   6.219  32.958   7.435
 4273POPC   NC355595  43.193  16.719   5.574
 4273POPC   PO455596  43.472  16.077   5.512
 4273POPC   GL155597  43.339  16.382   5.924
 4273POPC   GL255598  42.959  16.535   5.977
 4273POPC   C1A55599  43.318  16.812   6.205
 4273POPC   D2A55600  43.214  16.836   6.654
 4273POPC   C3A55601  43.474  16.586   6.889
 4273POPC   C4A55602  43.521  16.604   7.330
 4273POPC   C1B55603  42.850  16.697   6.348
 4273POPC   C2B55604  42.927  16.387   6.677
 4273POPC   C3B55605  43.021  16.523   7.081
 4273POPC   C4B55606  42.929  16.941   7.218
 4274POPC   NC355607  35.859  41.895   5.564
 4274POPC   PO455608  36.584  41.775   5.368
 4274POPC   GL155609  36.307  41.738   5.789
 4274POPC   GL255610  36.123  41.401   5.849
 4274POPC   C1A55611  36.107  41.762   6.235
 4274POPC   D2A55612  36.154  41.555   6.665
 4274POPC   C3A55613  36.153  41.746   7.095
 4274POPC   C4A55614  36.290  41.965   7.471
 4274POPC   C1B55615  35.951  41.271   6.257
 4274POPC   C2B55616  35.766  41.239   6.665
 4274POPC   C3B55617  35.888  41.062   7.007
 4274POPC   C4B55618  35.862  41.169   7.437
 4275POPC   NC355619  37.423   6.183   5.462
 4275POPC   PO455620  37.842   5.687   5.449
 4275POPC   GL155621  37.656   5.844   5.801
 4275POPC   GL255622  37.797   6.139   5.813
 4275POPC   C1A55623  37.579   5.786   6.242
 4275POPC   D2A55624  37.398   5.890   6.632
 4275POPC   C3A55625  37.679   5.751   6.930
 4275POPC   C4A55626  37.594   5.565   7.310
 4275POPC   C1B55627  38.052   5.960   6.109
 4275POPC   C2B55628  38.044   5.871   6.533
 4275POPC   C3B55629  38.029   6.134   6.907
 4275POPC   C4B55630  37.731   6.145   7.254
 4276POPC   NC355631   0.771  16.445   5.395
 4276POPC   PO455632   0.298  16.950   5.129
 4276POPC   GL155633   0.253  16.876   5.622
 4276POPC   GL255634   0.506  16.996   5.867
 4276POPC   C1A55635   0.266  16.577   5.998
 4276POPC   D2A55636   0.113  16.591   6.431
 4276POPC   C3A55637   0.392  16.468   6.790
 4276POPC   C4A55638   0.324  16.562   7.205
 4276POPC   C1B55639   0.709  16.992   6.194
 4276POPC   C2B55640   0.513  16.906   6.552
 4276POPC   C3B55641   0.633  16.900   6.967
 4276POPC   C4B55642   0.773  17.163   7.284
 4277POPC   NC355643   0.867  34.600   5.416
 4277POPC   PO455644   1.547  34.836   5.422
 4277POPC   GL155645   1.577  34.672   5.815
 4277POPC   GL255646   1.220  34.581   5.810
 4277POPC   C1A55647   1.520  34.543   6.240
 4277POPC   D2A55648   1.418  34.227   6.539
 4277POPC   C3A55649   1.423  34.367   6.954
 4277POPC   C4A55650   1.135  34.345   7.283
 4277POPC   C1B55651   0.981  34.614   6.209
 4277POPC   C2B55652   1.103  34.705   6.619
 4277POPC   C3B55653   0.898  34.683   6.991
 4277POPC   C4B55654   0.763  34.713   7.388
 4278POPC   NC355655  20.157  17.822   5.327
 4278POPC   PO455656  19.835  17.348   5.385
 4278POPC   GL155657  20.143  17.487   5.729
 4278POPC   GL255658  20.389  17.254   5.818
 4278POPC   C1A55659  20.254  17.634   6.197
 4278POPC   D2A55660  20.200  17.682   6.693
 4278POPC   C3A55661  19.836  17.496   6.987
 4278POPC   C4A55662  19.606  17.439   7.430
 4278POPC   C1B55663  20.340  17.143   6.289
 4278POPC   C2B55664  20.249  17.181   6.759
 4278POPC   C3B55665  20.314  17.419   7.143
 4278POPC   C4B55666  20.300  17.242   7.563
 4279POPC   NC355667  33.277  30.643   5.361
 4279POPC   PO455668  32.649  30.414   5.339
 4279POPC   GL155669  32.908  30.608   5.724
 4279POPC   GL255670  33.194  30.875   5.851
 4279POPC   C1A55671  33.055  30.462   6.146
 4279POPC   D2A55672  32.843  30.646   6.510
 4279POPC   C3A55673  32.900  30.554   6.934
 4279POPC   C4A55674  32.850  30.870   7.247
 4279POPC   C1B55675  33.225  30.922   6.314
 4279POPC   C2B55676  33.354  30.671   6.690
 4279POPC   C3B55677  33.359  30.763   7.144
 4279POPC   C4B55678  33.348  30.745   7.594
 4280POPC   NC355679  36.200   2.658   5.345
 4280POPC   PO455680  35.851   3.198   5.358
 4280POPC   GL155681  36.059   2.960   5.745
 4280POPC   GL255682  35.921   2.631   5.796
 4280POPC   C1A55683  36.387   2.679   6.060
 4280POPC   D2A55684  36.623   2.475   6.457
 4280POPC   C3A55685  36.548   2.589   6.928
 4280POPC   C4A55686  36.326   2.834   7.255
 4280POPC   C1B55687  35.915   2.786   6.236
 4280POPC   C2B55688  35.997   2.615   6.664
 4280POPC   C3B55689  35.901   2.619   7.114
 4280POPC   C4B55690  35.663   2.380   7.396
 4281POPC   NC355691  25.403  39.246   5.397
 4281POPC   PO455692  24.953  39.686   5.470
 4281POPC   GL155693  25.216  39.469   5.793
 4281POPC   GL255694  25.572  39.611   5.729
 4281POPC   C1A55695  25.154  39.231   6.182
 4281POPC   D2A55696  24.955  39.404   6.565
 4281POPC   C3A55697  24.953  39.244   7.006
 4281POPC   C4A55698  25.103  39.139   7.411
 4281POPC   C1B55699  25.637  39.416   6.120
 4281POPC   C2B55700  25.557  39.244   6.534
 4281POPC   C3B55701  25.468  39.332   6.958
 4281POPC   C4B55702  25.434  39.526   7.361
 4282POPC   NC355703  34.089  32.720   5.271
 4282POPC   PO455704  33.847  33.386   5.338
 4282POPC   GL155705  33.866  33.062   5.646
 4282POPC   GL255706  34.134  33.196   5.804
 4282POPC   C1A55707  33.693  33.099   6.084
 4282POPC   D2A55708  33.839  33.182   6.529
 4282POPC   C3A55709  33.593  33.151   6.897
 4282POPC   C4A55710  33.609  32.875   7.237
 4282POPC   C1B55711  34.175  32.963   6.203
 4282POPC   C2B55712  34.302  32.926   6.640
 4282POPC   C3B55713  34.167  32.906   7.071
 4282POPC   C4B55714  34.021  32.624   7.388
 4283POPC   NC355715  20.032  35.218   5.340
 4283POPC   PO455716  19.557  35.648   5.500
 4283POPC   GL155717  19.754  35.334   5.740
 4283POPC   GL255718  20.102  35.448   5.783
 4283POPC   C1A55719  19.880  35.166   6.128
 4283POPC   D2A55720  19.971  35.403   6.475
 4283POPC   C3A55721  19.831  35.309   6.887
 4283POPC   C4A55722  20.074  35.211   7.212
 4283POPC   C1B55723  20.304  35.675   6.133
 4283POPC   C2B55724  20.386  35.685   6.603
 4283POPC   C3B55725  20.116  35.737   6.987
 4283POPC   C4B55726  19.955  35.648   7.417
 4284POPC   NC355727   6.942  38.654   5.239
 4284POPC   PO455728   6.804  38.071   5.523
 4284POPC   GL155729   6.748  38.480   5.734
 4284POPC   GL255730   6.836  38.287   6.006
 4284POPC   C1A55731   6.413  38.724   6.009
 4284POPC   D2A55732   6.313  38.922   6.436
 4284POPC   C3A55733   6.571  38.780   6.773
 4284POPC   C4A55734   6.847  38.805   7.115
 4284POPC   C1B55735   6.634  38.422   6.369
 4284POPC   C2B55736   6.496  38.260   6.746
 4284POPC   C3B55737   6.675  38.321   7.125
 4284POPC   C4B55738   6.618  38.049   7.441
 4285POPC   NC355739  38.233  18.213   5.170
 4285POPC   PO455740  38.682  18.587   5.448
 4285POPC   GL155741  38.487  18.203   5.645
 4285POPC   GL255742  38.130  18.252   5.737
 4285POPC   C1A55743  38.484  18.108   6.105
 4285POPC   D2A55744  38.604  18.320   6.514
 4285POPC   C3A55745  38.372  18.197   6.895
 4285POPC   C4A55746  38.411  18.158   7.333
 4285POPC   C1B55747  38.136  18.509   6.158
 4285POPC   C2B55748  38.181  18.615   6.610
 4285POPC   C3B55749  37.997  18.559   7.027
 4285POPC   C4B55750  38.173  18.583   7.437
 4286POPC   NC355751  36.923  37.167   5.484
 4286POPC   PO455752  37.387  36.733   5.497
 4286POPC   GL155753  37.142  36.860   5.824
 4286POPC   GL255754  37.233  37.215   5.897
 4286POPC   C1A55755  37.023  36.732   6.226
 4286POPC   D2A55756  36.959  36.605   6.632
 4286POPC   C3A55757  36.894  36.848   6.997
 4286POPC   C4A55758  36.926  36.746   7.446
 4286POPC   C1B55759  36.829  37.194   6.130
 4286POPC   C2B55760  36.743  37.088   6.541
 4286POPC   C3B55761  36.586  37.258   6.883
 4286POPC   C4B55762  36.652  37.171   7.300
 4287POPC   NC355763  11.551  17.755   5.451
 4287POPC   PO455764  11.063  17.347   5.269
 4287POPC   GL155765  11.237  17.425   5.705
 4287POPC   GL255766  11.557  17.363   5.865
 4287POPC   C1A55767  11.148  17.624   6.137
 4287POPC   D2A55768  10.932  17.534   6.546
 4287POPC   C3A55769  11.105  17.621   6.961
 4287POPC   C4A55770  11.187  17.224   7.190
 4287POPC   C1B55771  11.651  17.603   6.234
 4287POPC   C2B55772  11.516  17.717   6.646
 4287POPC   C3B55773  11.585  17.618   7.095
 4287POPC   C4B55774  11.765  17.703   7.472
 4288POPC   NC355775  16.295  22.795   5.462
 4288POPC   PO455776  15.611  23.006   5.389
 4288POPC   GL155777  15.840  22.953   5.749
 4288POPC   GL255778  15.927  22.612   5.782
 4288POPC   C1A55779  15.846  22.946   6.196
 4288POPC   D2A55780  15.868  23.196   6.576
 4288POPC   C3A55781  15.640  23.123   6.911
 4288POPC   C4A55782  15.759  23.013   7.288
 4288POPC   C1B55783  16.155  22.513   6.186
 4288POPC   C2B55784  16.081  22.723   6.603
 4288POPC   C3B55785  15.983  22.598   7.032
 4288POPC   C4B55786  16.358  22.478   7.235
 4289POPC   NC355787  30.782  42.636   5.419
 4289POPC   PO455788  30.888  43.326   5.467
 4289POPC   GL155789  30.920  42.991   5.813
 4289POPC   GL255790  30.619  42.810   5.871
 4289POPC   C1A55791  30.848  43.123   6.242
 4289POPC   D2A55792  30.613  43.226   6.602
 4289POPC   C3A55793  30.820  43.340   6.960
 4289POPC   C4A55794  30.586  43.232   7.300
 4289POPC   C1B55795  30.890  42.628   6.219
 4289POPC   C2B55796  30.726  42.722   6.617
 4289POPC   C3B55797  30.496  42.696   7.002
 4289POPC   C4B55798  30.789  42.762   7.306
 4290POPC   NC355799  43.482  15.628   5.365
 4290POPC   PO455800  43.593  14.992   5.226
 4290POPC   GL155801  43.761  15.225   5.628
 4290POPC   GL255802  43.663  15.530   5.807
 4290POPC   C1A55803  43.731  15.153   6.112
 4290POPC   D2A55804  44.016  15.097   6.452
 4290POPC   C3A55805  43.842  15.127   6.865
 4290POPC   C4A55806  43.916  14.880   7.279
 4290POPC   C1B55807  43.880  15.633   6.195
 4290POPC   C2B55808  43.784  15.737   6.605
 4290POPC   C3B55809  43.944  15.647   6.994
 4290POPC   C4B55810  43.949  15.371   7.297
 4291POPC   NC355811   4.044  35.036   5.373
 4291POPC   PO455812   4.618  34.570   5.431
 4291POPC   GL155813   4.318  34.692   5.752
 4291POPC   GL255814   4.474  34.417   5.970
 4291POPC   C1A55815   4.035  34.599   6.124
 4291POPC   D2A55816   4.250  34.400   6.478
 4291POPC   C3A55817   4.148  34.607   6.845
 4291POPC   C4A55818   4.081  34.814   7.209
 4291POPC   C1B55819   4.511  34.823   6.222
 4291POPC   C2B55820   4.753  34.870   6.615
 4291POPC   C3B55821   4.599  34.804   7.048
 4291POPC   C4B55822   4.482  34.750   7.487
 4292POPC   NC355823  18.873  36.380   5.259
 4292POPC   PO455824  18.490  35.907   5.286
 4292POPC   GL155825  18.374  36.007   5.718
 4292POPC   GL255826  18.121  36.269   5.840
 4292POPC   C1A55827  18.434  35.980   6.163
 4292POPC   D2A55828  18.257  35.747   6.517
 4292POPC   C3A55829  18.164  35.888   6.947
 4292POPC   C4A55830  18.160  36.056   7.373
 4292POPC   C1B55831  17.950  36.107   6.261
 4292POPC   C2B55832  17.825  36.190   6.709
 4292POPC   C3B55833  17.707  36.118   7.156
 4292POPC   C4B55834  17.589  36.201   7.602
 4293POPC   NC355835  32.828  37.165   5.531
 4293POPC   PO455836  32.778  36.514   5.442
 4293POPC   GL155837  33.017  36.722   5.797
 4293POPC   GL255838  33.249  37.015   5.837
 4293POPC   C1A55839  33.076  36.550   6.223
 4293POPC   D2A55840  32.943  36.344   6.625
 4293POPC   C3A55841  32.703  36.634   6.858
 4293POPC   C4A55842  32.762  36.953   7.147
 4293POPC   C1B55843  33.063  37.066   6.261
 4293POPC   C2B55844  33.159  36.835   6.668
 4293POPC   C3B55845  33.403  36.925   7.050
 4293POPC   C4B55846  33.260  36.986   7.473
 4294POPC   NC355847  11.547  14.446   5.551
 4294POPC   PO455848  11.079  14.093   5.297
 4294POPC   GL155849  11.085  14.376   5.739
 4294POPC   GL255850  11.096  14.778   5.745
 4294POPC   C1A55851  11.323  14.390   6.162
 4294POPC   D2A55852  11.495  14.298   6.581
 4294POPC   C3A55853  11.209  14.494   6.848
 4294POPC   C4A55854  10.925  14.519   7.137
 4294POPC   C1B55855  11.283  14.928   6.143
 4294POPC   C2B55856  11.340  14.869   6.550
 4294POPC   C3B55857  11.584  14.878   6.919
 4294POPC   C4B55858  11.424  14.669   7.275
 4295POPC   NC355859  13.823  37.144   5.294
 4295POPC   PO455860  13.418  37.663   5.312
 4295POPC   GL155861  13.580  37.716   5.762
 4295POPC   GL255862  13.358  37.428   5.881
 4295POPC   C1A55863  13.692  37.967   6.178
 4295POPC   D2A55864  13.753  38.195   6.610
 4295POPC   C3A55865  13.730  37.912   6.974
 4295POPC   C4A55866  13.494  37.569   7.155
 4295POPC   C1B55867  13.473  37.484   6.318
 4295POPC   C2B55868  13.731  37.391   6.704
 4295POPC   C3B55869  13.718  37.082   7.055
 4295POPC   C4B55870  13.537  37.164   7.481
 4296POPC   NC355871  14.448  41.020   5.322
 4296POPC   PO455872  14.562  40.243   5.388
 4296POPC   GL155873  14.564  40.517   5.890
 4296POPC   GL255874  14.558  40.906   5.859
 4296POPC   C1A55875  14.231  40.621   6.203
 4296POPC   D2A55876  14.292  40.512   6.630
 4296POPC   C3A55877  14.120  40.698   7.016
 4296POPC   C4A55878  14.416  40.815   7.376
 4296POPC   C1B55879  14.662  40.862   6.312
 4296POPC   C2B55880  14.837  41.035   6.710
 4296POPC   C3B55881  14.867  40.842   7.122
 4296POPC   C4B55882  14.937  40.898   7.592
 4297POPC   NC355883  11.023  43.881   5.199
 4297POPC   PO455884  11.652  43.624   5.428
 4297POPC   GL155885  11.294  43.837   5.687
 4297POPC   GL255886  10.944  43.988   5.750
 4297POPC   C1A55887  11.275  43.933   6.139
 4297POPC   D2A55888  11.412  43.700   6.477
 4297POPC   C3A55889  11.257  43.728   6.855
 4297POPC   C4A55890  11.375  43.895   7.255
 4297POPC   C1B55891  10.917  44.289   6.161
 4297POPC   C2B55892  11.087  44.278   6.600
 4297POPC   C3B55893  10.945  44.089   6.998
 4297POPC   C4B55894  10.953  44.142   7.441
 4298POPC   NC355895  28.588  28.051   5.510
 4298POPC   PO455896  28.202  28.565   5.640
 4298POPC   GL155897  28.382  28.304   5.932
 4298POPC   GL255898  28.633  28.498   5.946
 4298POPC   C1A55899  28.382  28.293   6.379
 4298POPC   D2A55900  28.268  28.451   6.770
 4298POPC   C3A55901  28.271  28.106   7.056
 4298POPC   C4A55902  28.108  28.233   7.463
 4298POPC   C1B55903  28.846  28.717   6.208
 4298POPC   C2B55904  28.671  28.741   6.603
 4298POPC   C3B55905  28.812  28.669   7.025
 4298POPC   C4B55906  28.463  28.527   7.254
 4299POPC   NC355907  10.319   8.727   5.179
 4299POPC   PO455908  10.788   9.151   5.139
 4299POPC   GL155909  10.462   9.066   5.531
 4299POPC   GL255910  10.572   8.731   5.634
 4299POPC   C1A55911  10.437   9.125   6.050
 4299POPC   D2A55912  10.701   9.364   6.367
 4299POPC   C3A55913  10.534   9.314   6.782
 4299POPC   C4A55914  10.591   9.159   7.188
 4299POPC   C1B55915  10.403   8.624   6.029
 4299POPC   C2B55916  10.383   8.698   6.487
 4299POPC   C3B55917  10.360   8.795   6.937
 4299POPC   C4B55918  10.214   8.578   7.332
 4300POPC   NC355919  18.015  21.075   5.431
 4300POPC   PO455920  18.656  21.371   5.445
 4300POPC   GL155921  18.395  21.498   5.829
 4300POPC   GL255922  17.997  21.530   5.830
 4300POPC   C1A55923  18.544  21.604   6.242
 4300POPC   D2A55924  18.569  21.593   6.688
 4300POPC   C3A55925  18.277  21.393   6.936
 4300POPC   C4A55926  17.931  21.384   7.219
 4300POPC   C1B55927  18.085  21.331   6.264
 4300POPC   C2B55928  17.974  21.080   6.672
 4300POPC   C3B55929  18.139  20.928   7.104
 4300POPC   C4B55930  18.044  20.990   7.564
 4301POPC   NC355931  28.331   4.412   5.478
 4301POPC   PO455932  28.140   3.806   5.460
 4301POPC   GL155933  28.220   4.056   5.876
 4301POPC   GL255934  28.067   4.410   5.895
 4301POPC   C1A55935  28.326   4.268   6.299
 4301POPC   D2A55936  28.591   4.378   6.644
 4301POPC   C3A55937  28.442   4.190   7.018
 4301POPC   C4A55938  28.358   4.135   7.453
 4301POPC   C1B55939  27.908   4.625   6.249
 4301POPC   C2B55940  27.738   4.654   6.633
 4301POPC   C3B55941  28.041   4.531   6.937
 4301POPC   C4B55942  28.046   4.512   7.370
 4302POPC   NC355943  16.803  20.916   4.790
 4302POPC   PO455944  16.783  20.702   5.449
 4302POPC   GL155945  16.682  20.686   5.865
 4302POPC   GL255946  16.608  21.018   5.850
 4302POPC   C1A55947  16.435  20.652   6.271
 4302POPC   D2A55948  16.422  20.730   6.735
 4302POPC   C3A55949  16.700  20.484   7.050
 4302POPC   C4A55950  16.582  20.298   7.475
 4302POPC   C1B55951  16.813  21.000   6.259
 4302POPC   C2B55952  16.888  20.942   6.714
 4302POPC   C3B55953  16.677  20.987   7.117
 4302POPC   C4B55954  16.742  20.780   7.494
 4303POPC   NC355955  28.267  13.878   5.727
 4303POPC   PO455956  28.556  13.450   5.385
 4303POPC   GL155957  28.446  13.307   5.775
 4303POPC   GL255958  28.128  13.398   5.860
 4303POPC   C1A55959  28.594  13.491   6.166
 4303POPC   D2A55960  28.603  13.760   6.535
 4303POPC   C3A55961  28.329  13.732   6.893
 4303POPC   C4A55962  28.584  13.974   7.154
 4303POPC   C1B55963  28.067  13.248   6.292
 4303POPC   C2B55964  27.981  13.273   6.732
 4303POPC   C3B55965  28.250  13.224   7.080
 4303POPC   C4B55966  28.175  13.307   7.503
 4304POPC   NC355967  23.154  40.269   5.573
 4304POPC   PO455968  23.614  40.225   5.099
 4304POPC   GL155969  23.603  40.049   5.579
 4304POPC   GL255970  23.688  39.712   5.622
 4304POPC   C1A55971  23.806  40.093   6.016
 4304POPC   D2A55972  24.028  39.999   6.415
 4304POPC   C3A55973  23.842  40.041   6.820
 4304POPC   C4A55974  23.610  40.101   7.170
 4304POPC   C1B55975  23.663  39.606   6.088
 4304POPC   C2B55976  23.729  39.599   6.525
 4304POPC   C3B55977  23.605  39.609   6.953
 4304POPC   C4B55978  23.746  39.686   7.376
 4305POPC   NC355979  28.501  29.909   5.211
 4305POPC   PO455980  28.840  30.238   5.722
 4305POPC   GL155981  28.506  29.992   5.949
 4305POPC   GL255982  28.239  29.830   5.768
 4305POPC   C1A55983  28.409  30.052   6.386
 4305POPC   D2A55984  28.709  30.158   6.696
 4305POPC   C3A55985  28.572  30.141   7.105
 4305POPC   C4A55986  28.604  29.883   7.405
 4305POPC   C1B55987  28.062  29.565   6.115
 4305POPC   C2B55988  28.118  29.649   6.560
 4305POPC   C3B55989  28.045  29.477   6.960
 4305POPC   C4B55990  28.118  29.808   7.255
 4306POPC   NC355991  41.987  12.367   5.481
 4306POPC   PO455992  42.410  11.925   5.328
 4306POPC   GL155993  42.367  12.051   5.761
 4306POPC   GL255994  42.018  12.045   5.888
 4306POPC   C1A55995  42.404  12.134   6.220
 4306POPC   D2A55996  42.651  11.986   6.565
 4306POPC   C3A55997  42.512  12.135   6.944
 4306POPC   C4A55998  42.593  11.978   7.341
 4306POPC   C1B55999  41.891  11.931   6.283
 4306POPC   C2B56000  42.093  11.910   6.661
 4306POPC   C3B56001  41.883  11.782   7.006
 4306POPC   C4B56002  42.099  12.037   7.242
 4307POPC   NC356003   5.239  32.539   5.182
 4307POPC   PO456004   4.842  32.185   5.526
 4307POPC   GL156005   5.138  32.245   5.801
 4307POPC   GL256006   5.330  32.546   5.717
 4307POPC   C1A56007   5.114  32.092   6.235
 4307POPC   D2A56008   5.255  32.106   6.658
 4307POPC   C3A56009   4.898  32.102   6.919
 4307POPC   C4A56010   4.910  31.933   7.328
 4307POPC   C1B56011   5.227  32.584   6.208
 4307POPC   C2B56012   5.067  32.580   6.687
 4307POPC   C3B56013   5.051  32.507   7.192
 4307POPC   C4B56014   5.298  32.550   7.608
 4308POPC   NC356015  10.701  42.941   5.088
 4308POPC   PO456016  10.157  43.194   5.466
 4308POPC   GL156017  10.387  43.074   5.842
 4308POPC   GL256018  10.736  42.934   5.713
 4308POPC   C1A56019  10.481  43.304   6.226
 4308POPC   D2A56020  10.603  43.053   6.592
 4308POPC   C3A56021  10.419  43.192   7.012
 4308POPC   C4A56022  10.388  43.256   7.497
 4308POPC   C1B56023  10.935  43.071   6.102
 4308POPC   C2B56024  11.153  43.096   6.487
 4308POPC   C3B56025  10.981  43.245   6.875
 4308POPC   C4B56026  10.847  43.204   7.295
 4309POPC   NC356027  26.763  30.612   5.478
 4309POPC   PO456028  26.475  31.175   5.460
 4309POPC   GL156029  26.713  30.986   5.834
 4309POPC   GL256030  27.058  30.891   5.798
 4309POPC   C1A56031  26.593  30.719   6.207
 4309POPC   D2A56032  26.382  30.738   6.622
 4309POPC   C3A56033  26.601  30.797   7.038
 4309POPC   C4A56034  26.477  30.963   7.464
 4309POPC   C1B56035  27.043  30.490   6.061
 4309POPC   C2B56036  26.874  30.231   6.399
 4309POPC   C3B56037  26.863  30.374   6.819
 4309POPC   C4B56038  27.116  30.568   7.127
 4310POPC   NC356039  15.359  41.425   5.406
 4310POPC   PO456040  15.262  42.139   5.332
 4310POPC   GL156041  15.039  41.965   5.757
 4310POPC   GL256042  15.149  41.625   5.848
 4310POPC   C1A56043  14.887  41.840   6.231
 4310POPC   D2A56044  15.158  41.808   6.612
 4310POPC   C3A56045  15.018  41.510   6.922
 4310POPC   C4A56046  14.849  41.699   7.245
 4310POPC   C1B56047  15.152  41.411   6.273
 4310POPC   C2B56048  15.402  41.320   6.647
 4310POPC   C3B56049  15.525  41.644   6.949
 4310POPC   C4B56050  15.353  41.591   7.337
 4311POPC   NC356051  42.719  43.059   5.654
 4311POPC   PO456052  42.117  43.143   5.343
 4311POPC   GL156053  42.046  43.202   5.818
 4311POPC   GL256054  42.379  43.323   5.905
 4311POPC   C1A56055  42.142  43.098   6.309
 4311POPC   D2A56056  42.408  42.850   6.640
 4311POPC   C3A56057  42.425  42.912   7.088
 4311POPC   C4A56058  42.180  43.233   7.289
 4311POPC   C1B56059  42.648  43.352   6.247
 4311POPC   C2B56060  42.496  43.367   6.641
 4311POPC   C3B56061  42.727  43.328   6.989
 4311POPC   C4B56062  42.647  43.407   7.370
 4312POPC   NC356063  14.563  18.577   5.495
 4312POPC   PO456064  14.353  17.997   5.363
 4312POPC   GL156065  14.173  18.282   5.705
 4312POPC   GL256066  14.420  18.163   5.933
 4312POPC   C1A56067  14.244  18.599   6.094
 4312POPC   D2A56068  14.053  18.639   6.531
 4312POPC   C3A56069  14.290  18.553   6.910
 4312POPC   C4A56070  14.294  18.157   7.119
 4312POPC   C1B56071  14.387  18.219   6.408
 4312POPC   C2B56072  14.656  18.206   6.768
 4312POPC   C3B56073  14.867  18.158   7.177
 4312POPC   C4B56074  14.990  18.213   7.634
 4313POPC   NC356075   3.488  10.103   5.502
 4313POPC   PO456076   3.826   9.496   5.327
 4313POPC   GL156077   3.470   9.605   5.701
 4313POPC   GL256078   3.132   9.450   5.729
 4313POPC   C1A56079   3.467   9.893   6.121
 4313POPC   D2A56080   3.453  10.176   6.529
 4313POPC   C3A56081   3.606  10.013   6.944
 4313POPC   C4A56082   3.535   9.908   7.367
 4313POPC   C1B56083   3.196   9.470   6.201
 4313POPC   C2B56084   3.439   9.658   6.588
 4313POPC   C3B56085   3.555   9.476   7.012
 4313POPC   C4B56086   3.908   9.364   7.249
 4314POPC   NC356087  25.467   6.052   5.480
 4314POPC   PO456088  25.079   5.447   5.382
 4314POPC   GL156089  25.135   5.725   5.744
 4314POPC   GL256090  25.485   5.661   5.836
 4314POPC   C1A56091  25.162   5.948   6.158
 4314POPC   D2A56092  25.353   5.821   6.571
 4314POPC   C3A56093  25.090   5.875   6.940
 4314POPC   C4A56094  25.047   6.220   7.258
 4314POPC   C1B56095  25.718   5.648   6.219
 4314POPC   C2B56096  25.740   5.467   6.639
 4314POPC   C3B56097  25.517   5.590   7.014
 4314POPC   C4B56098  25.464   5.895   7.296
 4315POPC   NC356099  16.314  44.017   5.520
 4315POPC   PO456100  15.730  43.657   5.432
 4315POPC   GL156101  15.938  43.759   5.797
 4315POPC   GL256102  16.258  43.636   5.854
 4315POPC   C1A56103  15.768  43.900   6.174
 4315POPC   D2A56104  15.457  44.019   6.470
 4315POPC   C3A56105  15.645  44.043   6.880
 4315POPC   C4A56106  15.651  43.784   7.237
 4315POPC   C1B56107  16.296  43.960   6.174
 4315POPC   C2B56108  16.094  43.974   6.576
 4315POPC   C3B56109  16.033  43.704   6.891
 4315POPC   C4B56110  16.187  43.753   7.304
 4316POPC   NC356111  30.588  14.019   5.468
 4316POPC   PO456112  30.350  14.650   5.432
 4316POPC   GL156113  30.615  14.429   5.810
 4316POPC   GL256114  30.701  14.050   5.942
 4316POPC   C1A56115  30.847  14.414   6.232
 4316POPC   D2A56116  30.667  14.459   6.607
 4316POPC   C3A56117  30.710  14.166   6.904
 4316POPC   C4A56118  30.683  14.428   7.240
 4316POPC   C1B56119  30.378  14.207   6.235
 4316POPC   C2B56120  30.252  14.103   6.674
 4316POPC   C3B56121  30.262  14.077   7.152
 4316POPC   C4B56122  30.180  14.336   7.533
 4317POPC   NC356123   2.284   5.629   5.403
 4317POPC   PO456124   2.125   4.908   5.370
 4317POPC   GL156125   1.937   5.030   5.766
 4317POPC   GL256126   1.945   5.410   5.766
 4317POPC   C1A56127   1.890   4.877   6.208
 4317POPC   D2A56128   2.188   4.781   6.551
 4317POPC   C3A56129   2.130   4.994   6.943
 4317POPC   C4A56130   1.722   4.958   7.148
 4317POPC   C1B56131   1.948   5.580   6.198
 4317POPC   C2B56132   1.792   5.651   6.631
 4317POPC   C3B56133   1.845   5.461   7.040
 4317POPC   C4B56134   2.063   5.290   7.373
 4318POPC   NC356135   7.833   7.770   5.518
 4318POPC   PO456136   8.459   7.322   5.424
 4318POPC   GL156137   8.285   7.212   5.827
 4318POPC   GL256138   7.938   7.306   5.861
 4318POPC   C1A56139   8.201   7.287   6.288
 4318POPC   D2A56140   8.427   7.183   6.636
 4318POPC   C3A56141   8.424   7.419   7.020
 4318POPC   C4A56142   8.503   7.196   7.395
 4318POPC   C1B56143   7.732   7.533   6.236
 4318POPC   C2B56144   7.927   7.663   6.670
 4318POPC   C3B56145   7.920   7.540   7.127
 4318POPC   C4B56146   7.802   7.677   7.571
 4319POPC   NC356147  34.218  25.027   5.362
 4319POPC   PO456148  34.863  25.115   5.467
 4319POPC   GL156149  34.515  25.161   5.753
 4319POPC   GL256150  34.340  25.484   5.747
 4319POPC   C1A56151  34.506  25.044   6.159
 4319POPC   D2A56152  34.706  25.281   6.491
 4319POPC   C3A56153  34.682  25.092   6.880
 4319POPC   C4A56154  34.548  25.080   7.280
 4319POPC   C1B56155  34.175  25.456   6.185
 4319POPC   C2B56156  34.279  25.631   6.587
 4319POPC   C3B56157  34.544  25.581   6.923
 4319POPC   C4B56158  34.407  25.574   7.305
 4320POPC   NC356159  17.016  21.099   5.389
 4320POPC   PO456160  17.654  21.344   5.381
 4320POPC   GL156161  17.472  21.520   5.741
 4320POPC   GL256162  17.435  21.206   5.863
 4320POPC   C1A56163  17.573  21.619   6.167
 4320POPC   D2A56164  17.725  21.518   6.587
 4320POPC   C3A56165  17.497  21.524   6.955
 4320POPC   C4A56166  17.310  21.603   7.372
 4320POPC   C1B56167  17.579  21.123   6.280
 4320POPC   C2B56168  17.428  21.090   6.696
 4320POPC   C3B56169  17.625  20.992   7.088
 4320POPC   C4B56170  17.612  20.700   7.476
 4321POPC   NC356171   3.186  38.714   5.331
 4321POPC   PO456172   3.247  38.021   5.389
 4321POPC   GL156173   3.391  38.226   5.775
 4321POPC   GL256174   3.404  38.601   5.791
 4321POPC   C1A56175   3.543  38.274   6.217
 4321POPC   D2A56176   3.416  38.306   6.649
 4321POPC   C3A56177   3.644  38.236   7.038
 4321POPC   C4A56178   3.382  38.491   7.247
 4321POPC   C1B56179   3.713  38.751   6.070
 4321POPC   C2B56180   3.715  38.893   6.454
 4321POPC   C3B56181   3.658  38.739   6.844
 4321POPC   C4B56182   3.755  38.843   7.238
 4322POPC   NC356183  22.468  13.624   5.438
 4322POPC   PO456184  21.815  13.645   5.327
 4322POPC   GL156185  21.964  13.662   5.782
 4322POPC   GL256186  22.309  13.795   5.886
 4322POPC   C1A56187  21.808  13.552   6.221
 4322POPC   D2A56188  21.795  13.738   6.636
 4322POPC   C3A56189  21.913  13.645   7.086
 4322POPC   C4A56190  21.968  13.419   7.486
 4322POPC   C1B56191  22.189  13.905   6.324
 4322POPC   C2B56192  22.273  13.890   6.799
 4322POPC   C3B56193  22.434  13.834   7.232
 4322POPC   C4B56194  22.728  13.899   7.647
 4323POPC   NC356195  35.448  39.708   5.440
 4323POPC   PO456196  35.200  40.202   5.034
 4323POPC   GL156197  35.231  40.186   5.517
 4323POPC   GL256198  35.045  39.922   5.698
 4323POPC   C1A56199  35.464  40.192   5.941
 4323POPC   D2A56200  35.474  40.046   6.394
 4323POPC   C3A56201  35.302  40.305   6.742
 4323POPC   C4A56202  35.333  40.431   7.167
 4323POPC   C1B56203  34.996  39.822   6.138
 4323POPC   C2B56204  34.996  39.892   6.579
 4323POPC   C3B56205  35.307  39.724   6.850
 4323POPC   C4B56206  35.560  39.969   7.109
 4324POPC   NC356207  23.363  32.819   5.514
 4324POPC   PO456208  22.629  32.902   5.516
 4324POPC   GL156209  22.944  33.026   5.835
 4324POPC   GL256210  23.114  32.746   5.929
 4324POPC   C1A56211  23.118  33.101   6.284
 4324POPC   D2A56212  22.977  33.285   6.660
 4324POPC   C3A56213  22.913  33.074   7.010
 4324POPC   C4A56214  23.099  33.249   7.320
 4324POPC   C1B56215  22.787  32.700   6.212
 4324POPC   C2B56216  22.776  32.774   6.633
 4324POPC   C3B56217  22.687  32.595   7.038
 4324POPC   C4B56218  22.832  32.782   7.415
 4325POPC   NC356219   6.295  21.780   5.088
 4325POPC   PO456220   5.705  21.773   5.401
 4325POPC   GL156221   5.840  21.931   5.873
 4325POPC   GL256222   5.781  22.308   5.953
 4325POPC   C1A56223   5.941  22.026   6.338
 4325POPC   D2A56224   5.768  22.139   6.735
 4325POPC   C3A56225   5.898  22.034   7.145
 4325POPC   C4A56226   5.883  22.247   7.553
 4325POPC   C1B56227   5.493  22.306   6.316
 4325POPC   C2B56228   5.370  22.451   6.736
 4325POPC   C3B56229   5.598  22.462   7.138
 4325POPC   C4B56230   5.552  22.684   7.553
 4326POPC   NC356231  37.255  30.196   5.311
 4326POPC   PO456232  36.697  29.662   5.363
 4326POPC   GL156233  36.677  29.835   5.788
 4326POPC   GL256234  36.900  30.134   5.767
 4326POPC   C1A56235  36.755  29.629   6.223
 4326POPC   D2A56236  36.658  29.426   6.635
 4326POPC   C3A56237  36.822  29.623   7.019
 4326POPC   C4A56238  36.621  29.739   7.414
 4326POPC   C1B56239  36.751  30.140   6.203
 4326POPC   C2B56240  36.639  29.996   6.618
 4326POPC   C3B56241  36.777  30.152   7.038
 4326POPC   C4B56242  37.168  30.059   7.299
 4327POPC   NC356243  22.479   6.939   5.156
 4327POPC   PO456244  22.047   6.401   5.233
 4327POPC   GL156245  22.167   6.334   5.683
 4327POPC   GL256246  22.096   6.665   5.750
 4327POPC   C1A56247  22.299   6.470   6.167
 4327POPC   D2A56248  22.443   6.609   6.587
 4327POPC   C3A56249  22.271   6.466   6.996
 4327POPC   C4A56250  22.366   6.222   7.399
 4327POPC   C1B56251  21.870   6.788   6.110
 4327POPC   C2B56252  21.662   6.653   6.466
 4327POPC   C3B56253  21.724   6.739   6.896
 4327POPC   C4B56254  21.886   6.675   7.292
 4328POPC   NC356255   1.458   2.241   5.233
 4328POPC   PO456256   0.955   1.779   5.432
 4328POPC   GL156257   1.221   2.031   5.739
 4328POPC   GL256258   1.459   1.860   5.984
 4328POPC   C1A56259   1.086   2.157   6.173
 4328POPC   D2A56260   0.928   2.143   6.596
 4328POPC   C3A56261   1.271   2.022   6.844
 4328POPC   C4A56262   1.392   1.923   7.255
 4328POPC   C1B56263   1.131   1.596   6.130
 4328POPC   C2B56264   0.954   1.628   6.530
 4328POPC   C3B56265   0.885   1.680   6.956
 4328POPC   C4B56266   0.521   1.481   7.105
 4329POPC   NC356267   4.047  29.547   5.557
 4329POPC   PO456268   4.623  29.851   5.286
 4329POPC   GL156269   4.418  29.854   5.714
 4329POPC   GL256270   4.127  30.030   5.745
 4329POPC   C1A56271   4.324  29.663   6.158
 4329POPC   D2A56272   4.489  29.758   6.569
 4329POPC   C3A56273   4.225  29.662   6.898
 4329POPC   C4A56274   4.404  29.650   7.293
 4329POPC   C1B56275   4.376  30.158   6.118
 4329POPC   C2B56276   4.438  30.294   6.530
 4329POPC   C3B56277   4.420  30.131   6.963
 4329POPC   C4B56278   4.200  30.122   7.376
 4330POPC   NC356279   8.582   8.417   5.301
 4330POPC   PO456280   8.110   8.142   5.528
 4330POPC   GL156281   8.178   8.423   5.846
 4330POPC   GL256282   8.548   8.412   5.830
 4330POPC   C1A56283   7.951   8.410   6.253
 4330POPC   D2A56284   7.779   8.558   6.645
 4330POPC   C3A56285   7.914   8.334   7.038
 4330POPC   C4A56286   8.231   7.962   7.047
 4330POPC   C1B56287   8.492   8.401   6.284
 4330POPC   C2B56288   8.312   8.378   6.702
 4330POPC   C3B56289   8.411   8.442   7.142
 4330POPC   C4B56290   8.582   8.145   7.397
 4331POPC   NC356291  35.710  22.358   5.523
 4331POPC   PO456292  36.309  22.070   5.414
 4331POPC   GL156293  36.134  22.243   5.828
 4331POPC   GL256294  36.052  22.600   5.855
 4331POPC   C1A56295  36.142  22.269   6.307
 4331POPC   D2A56296  36.049  22.546   6.679
 4331POPC   C3A56297  36.048  22.327   7.092
 4331POPC   C4A56298  35.838  21.962   7.283
 4331POPC   C1B56299  36.499  22.544   6.030
 4331POPC   C2B56300  36.653  22.388   6.428
 4331POPC   C3B56301  36.540  22.477   6.873
 4331POPC   C4B56302  36.519  22.272   7.266
 4332POPC   NC356303   5.317  19.856   5.534
 4332POPC   PO456304   4.618  19.819   5.462
 4332POPC   GL156305   4.884  19.925   5.801
 4332POPC   GL256306   5.004  19.606   5.907
 4332POPC   C1A56307   5.157  19.992   6.196
 4332POPC   D2A56308   5.284  19.799   6.598
 4332POPC   C3A56309   5.219  20.038   6.974
 4332POPC   C4A56310   5.195  20.091   7.438
 4332POPC   C1B56311   5.275  19.435   6.217
 4332POPC   C2B56312   5.408  19.293   6.628
 4332POPC   C3B56313   5.427  19.535   7.017
 4332POPC   C4B56314   5.067  19.645   7.246
 4333POPC   NC356315  20.765  30.892   5.276
 4333POPC   PO456316  20.438  30.365   5.301
 4333POPC   GL156317  20.693  30.555   5.659
 4333POPC   GL256318  20.538  30.871   5.767
 4333POPC   C1A56319  20.815  30.595   6.110
 4333POPC   D2A56320  20.672  30.571   6.539
 4333POPC   C3A56321  20.932  30.606   6.886
 4333POPC   C4A56322  20.744  30.612   7.308
 4333POPC   C1B56323  20.412  31.059   6.175
 4333POPC   C2B56324  20.654  31.077   6.569
 4333POPC   C3B56325  20.577  31.008   6.995
 4333POPC   C4B56326  20.207  30.962   7.268
 4334POPC   NC356327   6.150  19.552   5.505
 4334POPC   PO456328   5.750  20.059   5.483
 4334POPC   GL156329   5.760  19.760   5.799
 4334POPC   GL256330   6.076  19.874   5.909
 4334POPC   C1A56331   5.661  19.772   6.230
 4334POPC   D2A56332   5.792  19.654   6.636
 4334POPC   C3A56333   5.833  20.008   6.893
 4334POPC   C4A56334   5.647  19.940   7.252
 4334POPC   C1B56335   6.177  19.585   6.253
 4334POPC   C2B56336   6.296  19.562   6.706
 4334POPC   C3B56337   6.128  19.638   7.144
 4334POPC   C4B56338   5.986  19.784   7.589
 4335POPC   NC356339  10.164  31.792   5.452
 4335POPC   PO456340   9.613  31.383   5.494
 4335POPC   GL156341   9.679  31.605   5.832
 4335POPC   GL256342  10.010  31.432   5.839
 4335POPC   C1A56343   9.592  31.501   6.254
 4335POPC   D2A56344   9.428  31.297   6.625
 4335POPC   C3A56345   9.695  31.360   6.974
 4335POPC   C4A56346   9.880  31.032   7.192
 4335POPC   C1B56347  10.083  31.762   6.126
 4335POPC   C2B56348  10.300  31.777   6.508
 4335POPC   C3B56349  10.231  31.769   6.942
 4335POPC   C4B56350   9.992  31.635   7.319
 4336POPC   NC356351  31.744   2.781   5.068
 4336POPC   PO456352  31.231   2.434   5.410
 4336POPC   GL156353  31.285   2.592   5.829
 4336POPC   GL256354  31.539   2.862   5.870
 4336POPC   C1A56355  31.063   2.778   6.174
 4336POPC   D2A56356  31.030   3.034   6.548
 4336POPC   C3A56357  31.248   2.795   6.842
 4336POPC   C4A56358  31.301   2.654   7.245
 4336POPC   C1B56359  31.576   2.842   6.336
 4336POPC   C2B56360  31.762   2.799   6.760
 4336POPC   C3B56361  31.651   3.063   7.138
 4336POPC   C4B56362  31.437   3.067   7.531
 4337POPC   NC356363  13.067  35.544   5.564
 4337POPC   PO456364  12.665  35.063   5.335
 4337POPC   GL156365  12.670  35.230   5.755
 4337POPC   GL256366  12.325  35.150   5.751
 4337POPC   C1A56367  12.795  35.296   6.219
 4337POPC   D2A56368  12.758  35.539   6.624
 4337POPC   C3A56369  13.009  35.424   7.041
 4337POPC   C4A56370  12.996  35.426   7.535
 4337POPC   C1B56371  12.306  35.388   6.120
 4337POPC   C2B56372  12.348  35.230   6.522
 4337POPC   C3B56373  12.562  35.171   6.904
 4337POPC   C4B56374  12.589  35.228   7.335
 4338POPC   NC356375   3.885  36.604   5.528
 4338POPC   PO456376   4.461  37.063   5.396
 4338POPC   GL156377   4.437  37.076   5.819
 4338POPC   GL256378   4.262  36.814   5.823
 4338POPC   C1A56379   4.561  36.914   6.227
 4338POPC   D2A56380   4.403  36.734   6.594
 4338POPC   C3A56381   4.502  36.937   6.927
 4338POPC   C4A56382   4.257  37.147   7.198
 4338POPC   C1B56383   4.030  36.798   6.205
 4338POPC   C2B56384   3.880  36.637   6.595
 4338POPC   C3B56385   4.067  36.614   6.970
 4338POPC   C4B56386   4.013  36.386   7.293
 4339POPC   NC356387  38.223  13.607   5.525
 4339POPC   PO456388  38.631  14.040   5.316
 4339POPC   GL156389  38.539  13.889   5.787
 4339POPC   GL256390  38.540  13.464   5.875
 4339POPC   C1A56391  38.498  13.812   6.222
 4339POPC   D2A56392  38.702  13.807   6.608
 4339POPC   C3A56393  38.472  13.825   6.974
 4339POPC   C4A56394  38.689  13.764   7.380
 4339POPC   C1B56395  38.330  13.345   6.300
 4339POPC   C2B56396  38.485  13.341   6.747
 4339POPC   C3B56397  38.420  13.352   7.197
 4339POPC   C4B56398  38.138  13.251   7.575
 4340POPC   NC356399   1.934  41.898   5.601
 4340POPC   PO456400   1.927  41.331   5.166
 4340POPC   GL156401   1.937  41.372   5.632
 4340POPC   GL256402   2.199  41.463   5.769
 4340POPC   C1A56403   1.766  41.444   6.099
 4340POPC   D2A56404   1.798  41.356   6.584
 4340POPC   C3A56405   1.884  41.611   7.010
 4340POPC   C4A56406   1.783  41.525   7.501
 4340POPC   C1B56407   2.243  41.657   6.177
 4340POPC   C2B56408   2.286  41.514   6.605
 4340POPC   C3B56409   2.452  41.502   7.000
 4340POPC   C4B56410   2.261  41.666   7.358
 4341POPC   NC356411   5.235  11.387   5.437
 4341POPC   PO456412   4.803  10.954   5.390
 4341POPC   GL156413   4.949  10.943   5.836
 4341POPC   GL256414   5.309  11.081   5.869
 4341POPC   C1A56415   5.072  10.909   6.279
 4341POPC   D2A56416   5.294  11.092   6.622
 4341POPC   C3A56417   5.090  11.002   7.011
 4341POPC   C4A56418   4.954  11.137   7.431
 4341POPC   C1B56419   5.234  11.412   6.212
 4341POPC   C2B56420   5.276  11.595   6.651
 4341POPC   C3B56421   5.246  11.479   7.106
 4341POPC   C4B56422   5.295  11.512   7.557
 4342POPC   NC356423  36.554  24.354   5.466
 4342POPC   PO456424  37.182  24.393   5.314
 4342POPC   GL156425  37.049  24.554   5.741
 4342POPC   GL256426  36.687  24.654   5.847
 4342POPC   C1A56427  37.136  24.693   6.162
 4342POPC   D2A56428  37.273  24.799   6.559
 4342POPC   C3A56429  37.067  24.572   6.918
 4342POPC   C4A56430  36.756  24.649   7.264
 4342POPC   C1B56431  36.784  24.332   6.153
 4342POPC   C2B56432  36.624  24.305   6.567
 4342POPC   C3B56433  36.420  24.049   6.836
 4342POPC   C4B56434  36.748  24.141   7.132
 4343POPC   NC356435  29.417  31.375   5.324
 4343POPC   PO456436  30.075  31.189   5.238
 4343POPC   GL156437  29.918  31.348   5.680
 4343POPC   GL256438  29.590  31.375   5.821
 4343POPC   C1A56439  30.125  31.421   6.106
 4343POPC   D2A56440  30.065  31.409   6.579
 4343POPC   C3A56441  29.890  31.718   6.873
 4343POPC   C4A56442  29.785  31.578   7.282
 4343POPC   C1B56443  29.662  31.540   6.247
 4343POPC   C2B56444  29.506  31.453   6.649
 4343POPC   C3B56445  29.520  31.192   7.020
 4343POPC   C4B56446  29.514  31.196   7.457
 4344POPC   NC356447  13.107  29.254   5.479
 4344POPC   PO456448  12.683  28.689   5.316
 4344POPC   GL156449  12.857  28.876   5.693
 4344POPC   GL256450  12.731  29.210   5.806
 4344POPC   C1A56451  13.056  28.855   6.093
 4344POPC   D2A56452  12.949  29.060   6.489
 4344POPC   C3A56453  12.954  29.184   6.918
 4344POPC   C4A56454  12.866  28.993   7.339
 4344POPC   C1B56455  12.620  29.484   6.133
 4344POPC   C2B56456  12.780  29.575   6.545
 4344POPC   C3B56457  12.558  29.598   6.942
 4344POPC   C4B56458  12.563  29.429   7.367
 4345POPC   NC356459  23.695  14.751   5.251
 4345POPC   PO456460  23.828  15.385   5.232
 4345POPC   GL156461  23.775  15.185   5.687
 4345POPC   GL256462  24.105  15.043   5.762
 4345POPC   C1A56463  23.617  15.044   6.141
 4345POPC   D2A56464  23.480  15.239   6.565
 4345POPC   C3A56465  23.556  15.089   7.000
 4345POPC   C4A56466  23.593  15.233   7.449
 4345POPC   C1B56467  24.095  15.304   6.156
 4345POPC   C2B56468  24.290  15.366   6.589
 4345POPC   C3B56469  24.059  15.237   6.979
 4345POPC   C4B56470  24.098  15.054   7.389
 4346POPC   NC356471   5.985  27.344   5.193
 4346POPC   PO456472   6.119  27.859   5.497
 4346POPC   GL156473   5.916  27.606   5.805
 4346POPC   GL256474   5.719  27.846   5.936
 4346POPC   C1A56475   5.944  27.589   6.296
 4346POPC   D2A56476   5.719  27.684   6.692
 4346POPC   C3A56477   5.888  27.537   7.102
 4346POPC   C4A56478   5.687  27.459   7.505
 4346POPC   C1B56479   5.639  28.053   6.294
 4346POPC   C2B56480   5.920  28.160   6.600
 4346POPC   C3B56481   5.855  28.060   7.017
 4346POPC   C4B56482   5.876  27.916   7.440
 4347POPC   NC356483  25.495  23.263   5.360
 4347POPC   PO456484  25.024  22.810   5.431
 4347POPC   GL156485  25.166  22.990   5.835
 4347POPC   GL256486  25.256  23.340   5.801
 4347POPC   C1A56487  25.271  22.839   6.273
 4347POPC   D2A56488  25.522  22.867   6.657
 4347POPC   C3A56489  25.245  22.780   6.992
 4347POPC   C4A56490  24.858  22.688   7.202
 4347POPC   C1B56491  25.398  23.329   6.231
 4347POPC   C2B56492  25.501  23.409   6.679
 4347POPC   C3B56493  25.544  23.267   7.103
 4347POPC   C4B56494  25.375  23.019   7.421
 4348POPC   NC356495  14.130   1.664   5.638
 4348POPC   PO456496  14.282   2.310   5.345
 4348POPC   GL156497  14.409   2.111   5.787
 4348POPC   GL256498  14.722   1.882   5.871
 4348POPC   C1A56499  14.148   2.028   6.175
 4348POPC   D2A56500  14.036   2.170   6.579
 4348POPC   C3A56501  14.030   1.931   6.971
 4348POPC   C4A56502  14.368   2.195   7.094
 4348POPC   C1B56503  14.621   1.874   6.286
 4348POPC   C2B56504  14.476   1.846   6.700
 4348POPC   C3B56505  14.718   1.808   7.073
 4348POPC   C4B56506  14.760   1.693   7.470
 4349POPC   NC356507  23.271  19.702   5.405
 4349POPC   PO456508  22.755  20.138   5.374
 4349POPC   GL156509  22.981  20.036   5.717
 4349POPC   GL256510  22.873  19.705   5.787
 4349POPC   C1A56511  22.951  20.035   6.165
 4349POPC   D2A56512  22.872  19.863   6.546
 4349POPC   C3A56513  22.886  20.080   6.911
 4349POPC   C4A56514  22.758  20.091   7.301
 4349POPC   C1B56515  22.934  19.452   6.183
 4349POPC   C2B56516  23.083  19.415   6.617
 4349POPC   C3B56517  22.992  19.600   7.005
 4349POPC   C4B56518  23.063  19.682   7.460
 4350POPC   NC356519  42.048   5.027   5.475
 4350POPC   PO456520  42.562   5.290   5.223
 4350POPC   GL156521  42.527   5.144   5.655
 4350POPC   GL256522  42.225   5.301   5.864
 4350POPC   C1A56523  42.517   4.881   6.039
 4350POPC   D2A56524  42.340   5.170   6.354
 4350POPC   C3A56525  42.364   5.176   6.809
 4350POPC   C4A56526  42.316   5.137   7.248
 4350POPC   C1B56527  42.171   5.617   6.201
 4350POPC   C2B56528  42.107   5.601   6.662
 4350POPC   C3B56529  42.102   5.576   7.145
 4350POPC   C4B56530  42.212   5.554   7.616
 4351POPC   NC356531  26.533  37.765   5.168
 4351POPC   PO456532  27.056  37.482   5.302
 4351POPC   GL156533  26.794  37.719   5.611
 4351POPC   GL256534  27.001  37.906   5.825
 4351POPC   C1A56535  26.511  37.740   5.991
 4351POPC   D2A56536  26.522  37.937   6.397
 4351POPC   C3A56537  26.835  37.866   6.690
 4351POPC   C4A56538  26.731  37.724   7.093
 4351POPC   C1B56539  27.084  37.661   6.220
 4351POPC   C2B56540  27.106  37.425   6.625
 4351POPC   C3B56541  27.204  37.545   7.046
 4351POPC   C4B56542  27.128  37.609   7.498
 4352POPC   NC356543  30.413   2.035   5.602
 4352POPC   PO456544  29.792   1.828   5.479
 4352POPC   GL156545  29.891   1.620   5.889
 4352POPC   GL256546  30.248   1.705   5.944
 4352POPC   C1A56547  29.818   1.696   6.330
 4352POPC   D2A56548  29.719   2.125   6.495
 4352POPC   C3A56549  29.713   2.098   6.931
 4352POPC   C4A56550  29.861   1.795   7.181
 4352POPC   C1B56551  30.192   2.039   6.267
 4352POPC   C2B56552  30.181   2.245   6.686
 4352POPC   C3B56553  30.241   2.143   7.122
 4352POPC   C4B56554  30.416   2.162   7.585
 4353POPC   NC356555  17.004  15.357   5.117
 4353POPC   PO456556  16.869  14.793   5.355
 4353POPC   GL156557  16.678  14.941   5.769
 4353POPC   GL256558  17.003  14.977   5.929
 4353POPC   C1A56559  16.620  15.182   6.208
 4353POPC   D2A56560  16.455  15.321   6.619
 4353POPC   C3A56561  16.550  15.154   7.030
 4353POPC   C4A56562  16.430  14.799   7.242
 4353POPC   C1B56563  17.078  15.014   6.382
 4353POPC   C2B56564  16.986  15.246   6.740
 4353POPC   C3B56565  17.070  15.212   7.160
 4353POPC   C4B56566  17.248  15.315   7.548
 4354POPC   NC356567  34.909  10.681   5.559
 4354POPC   PO456568  35.596  10.407   5.584
 4354POPC   GL156569  35.314  10.495   5.836
 4354POPC   GL256570  35.082  10.228   5.712
 4354POPC   C1A56571  35.426  10.597   6.259
 4354POPC   D2A56572  35.276  10.699   6.661
 4354POPC   C3A56573  35.518  10.454   6.951
 4354POPC   C4A56574  35.448  10.234   7.323
 4354POPC   C1B56575  35.045  10.214   6.158
 4354POPC   C2B56576  35.260  10.201   6.549
 4354POPC   C3B56577  35.043  10.291   6.908
 4354POPC   C4B56578  34.898  10.241   7.251
 4355POPC   NC356579  36.912   6.012   4.977
 4355POPC   PO456580  36.880   5.447   5.321
 4355POPC   GL156581  36.881   5.600   5.753
 4355POPC   GL256582  37.132   5.878   5.831
 4355POPC   C1A56583  36.734   5.662   6.185
 4355POPC   D2A56584  36.890   5.916   6.534
 4355POPC   C3A56585  36.867   5.713   6.918
 4355POPC   C4A56586  36.788   5.634   7.317
 4355POPC   C1B56587  37.254   6.162   6.174
 4355POPC   C2B56588  37.090   6.397   6.510
 4355POPC   C3B56589  37.104   6.234   6.918
 4355POPC   C4B56590  37.239   5.937   7.228
 4356POPC   NC356591  16.683  29.320   5.294
 4356POPC   PO456592  16.781  28.736   5.371
 4356POPC   GL156593  16.566  29.058   5.734
 4356POPC   GL256594  16.820  29.189   5.950
 4356POPC   C1A56595  16.395  29.346   6.148
 4356POPC   D2A56596  16.641  29.274   6.552
 4356POPC   C3A56597  16.481  29.262   6.987
 4356POPC   C4A56598  16.744  29.187   7.331
 4356POPC   C1B56599  16.559  28.877   6.237
 4356POPC   C2B56600  16.490  28.799   6.705
 4356POPC   C3B56601  16.485  28.707   7.159
 4356POPC   C4B56602  16.803  28.707   7.508
 4357POPC   NC356603  28.851   8.205   5.702
 4357POPC   PO456604  29.466   8.570   5.553
 4357POPC   GL156605  29.287   8.344   5.931
 4357POPC   GL256606  29.258   7.982   6.021
 4357POPC   C1A56607  29.054   8.327   6.326
 4357POPC   D2A56608  29.071   8.048   6.659
 4357POPC   C3A56609  28.973   8.266   7.000
 4357POPC   C4A56610  29.227   8.339   7.338
 4357POPC   C1B56611  28.866   7.839   6.240
 4357POPC   C2B56612  28.640   7.738   6.618
 4357POPC   C3B56613  28.858   7.714   6.988
 4357POPC   C4B56614  29.141   7.853   7.269
 4358POPC   NC356615  20.943  43.807   5.391
 4358POPC   PO456616  21.561  44.139   5.372
 4358POPC   GL156617  21.392  43.868   5.686
 4358POPC   GL256618  21.667  43.721   5.880
 4358POPC   C1A56619  21.146  43.822   6.080
 4358POPC   D2A56620  21.168  43.681   6.508
 4358POPC   C3A56621  21.136  43.958   6.839
 4358POPC   C4A56622  21.053  43.852   7.251
 4358POPC   C1B56623  21.626  43.881   6.299
 4358POPC   C2B56624  21.622  43.762   6.734
 4358POPC   C3B56625  21.554  43.949   7.147
 4358POPC   C4B56626  21.637  44.223   7.509
 4359POPC   NC356627  27.634  26.242   5.368
 4359POPC   PO456628  27.794  25.563   5.460
 4359POPC   GL156629  27.863  25.823   5.821
 4359POPC   GL256630  27.549  25.984   5.800
 4359POPC   C1A56631  27.785  25.911   6.244
 4359POPC   D2A56632  27.652  25.691   6.608
 4359POPC   C3A56633  27.902  25.860   6.939
 4359POPC   C4A56634  28.019  25.892   7.346
 4359POPC   C1B56635  27.285  25.822   6.152
 4359POPC   C2B56636  27.233  26.021   6.550
 4359POPC   C3B56637  27.346  25.953   6.944
 4359POPC   C4B56638  27.551  26.096   7.271
 4360POPC   NC356639  26.057  39.775   5.396
 4360POPC   PO456640  26.180  40.436   5.325
 4360POPC   GL156641  26.032  40.175   5.721
 4360POPC   GL256642  26.276  39.953   5.844
 4360POPC   C1A56643  25.838  39.902   6.101
 4360POPC   D2A56644  25.591  39.784   6.495
 4360POPC   C3A56645  25.826  39.723   6.866
 4360POPC   C4A56646  25.863  39.841   7.292
 4360POPC   C1B56647  26.505  40.085   6.203
 4360POPC   C2B56648  26.259  39.896   6.502
 4360POPC   C3B56649  26.311  39.877   6.924
 4360POPC   C4B56650  26.364  40.038   7.316
 4361POPC   NC356651  44.464  18.579   5.445
 4361POPC   PO456652  44.670  19.193   5.134
 4361POPC   GL156653  44.567  19.086   5.597
 4361POPC   GL256654  44.816  18.865   5.772
 4361POPC   C1A56655  44.409  19.014   6.063
 4361POPC   D2A56656  44.561  18.972   6.508
 4361POPC   C3A56657  44.408  19.251   6.811
 4361POPC   C4A56658  44.624  19.092   7.165
 4361POPC   C1B56659  44.903  19.133   6.178
 4361POPC   C2B56660   0.066  18.989   6.613
 4361POPC   C3B56661  44.924  18.740   7.005
 4361POPC   C4B56662  44.933  18.897   7.502
 4362POPC   NC356663  34.657  35.711   5.146
 4362POPC   PO456664  34.327  36.151   5.505
 4362POPC   GL156665  34.506  35.872   5.705
 4362POPC   GL256666  34.815  36.025   5.777
 4362POPC   C1A56667  34.432  35.920   6.131
 4362POPC   D2A56668  34.451  36.261   6.430
 4362POPC   C3A56669  34.403  36.171   6.869
 4362POPC   C4A56670  34.477  36.455   7.200
 4362POPC   C1B56671  34.870  36.355   6.086
 4362POPC   C2B56672  34.984  36.503   6.496
 4362POPC   C3B56673  34.906  36.390   6.932
 4362POPC   C4B56674  34.829  36.027   7.174
 4363POPC   NC356675  16.790  43.984   5.234
 4363POPC   PO456676  17.399  44.103   5.412
 4363POPC   GL156677  17.052  44.124   5.778
 4363POPC   GL256678  16.746  43.915   5.775
 4363POPC   C1A56679  16.910  44.051   6.249
 4363POPC   D2A56680  16.984  43.695   6.532
 4363POPC   C3A56681  17.080  43.758   6.944
 4363POPC   C4A56682  17.029  43.943   7.328
 4363POPC   C1B56683  16.688  43.600   6.115
 4363POPC   C2B56684  16.475  43.593   6.507
 4363POPC   C3B56685  16.546  43.833   6.853
 4363POPC   C4B56686  16.659  43.612   7.204
 4364POPC   NC356687  14.497   0.628   5.585
 4364POPC   PO456688  14.746   0.018   5.637
 4364POPC   GL156689  14.474   0.237   5.924
 4364POPC   GL256690  14.143   0.363   5.860
 4364POPC   C1A56691  14.335   0.384   6.332
 4364POPC   D2A56692  14.519   0.592   6.669
 4364POPC   C3A56693  14.517   0.238   6.937
 4364POPC   C4A56694  14.496   0.087   7.309
 4364POPC   C1B56695  14.089   0.780   6.132
 4364POPC   C2B56696  14.215   1.012   6.512
 4364POPC   C3B56697  14.287   0.983   6.937
 4364POPC   C4B56698  14.038   0.680   7.150
 4365POPC   NC356699  38.542   0.011   5.349
 4365POPC   PO456700  38.164  44.401   5.332
 4365POPC   GL156701  38.428  44.615   5.698
 4365POPC   GL256702  38.391  44.989   5.826
 4365POPC   C1A56703  38.374  44.592   6.167
 4365POPC   D2A56704  38.473  44.564   6.608
 4365POPC   C3A56705  38.782  44.361   6.842
 4365POPC   C4A56706  38.643  44.457   7.256
 4365POPC   C1B56707  38.284   0.157   6.217
 4365POPC   C2B56708  38.464   0.100   6.626
 4365POPC   C3B56709  38.410  44.890   7.016
 4365POPC   C4B56710  38.705  44.946   7.335
 4366POPC   NC356711  43.813  13.128   5.536
 4366POPC   PO456712  44.058  12.501   5.427
 4366POPC   GL156713  43.812  12.608   5.809
 4366POPC   GL256714  44.115  12.683   5.938
 4366POPC   C1A56715  43.680  12.970   6.133
 4366POPC   D2A56716  43.427  13.034   6.498
 4366POPC   C3A56717  43.635  12.804   6.828
 4366POPC   C4A56718  43.641  13.131   7.124
 4366POPC   C1B56719  43.988  12.644   6.377
 4366POPC   C2B56720  44.257  12.830   6.640
 4366POPC   C3B56721  44.334  13.067   6.932
 4366POPC   C4B56722  44.104  12.979   7.219
 4367POPC   NC356723   7.937   9.358   5.384
 4367POPC   PO456724   8.288   8.775   5.384
 4367POPC   GL156725   8.383   8.890   5.795
 4367POPC   GL256726   8.331   9.202   5.797
 4367POPC   C1A56727   8.219   8.837   6.186
 4367POPC   D2A56728   8.434   8.858   6.566
 4367POPC   C3A56729   8.149   8.822   6.926
 4367POPC   C4A56730   8.121   8.829   7.371
 4367POPC   C1B56731   8.267   9.339   6.190
 4367POPC   C2B56732   8.071   9.208   6.572
 4367POPC   C3B56733   8.277   9.310   6.922
 4367POPC   C4B56734   8.349   9.294   7.326
 4368POPC   NC356735  41.234  23.910   5.493
 4368POPC   PO456736  41.711  23.402   5.397
 4368POPC   GL156737  41.608  23.656   5.758
 4368POPC   GL256738  41.316  23.468   5.825
 4368POPC   C1A56739  41.583  23.706   6.219
 4368POPC   D2A56740  41.729  23.412   6.573
 4368POPC   C3A56741  41.780  23.628   6.991
 4368POPC   C4A56742  41.533  23.967   7.192
 4368POPC   C1B56743  41.309  23.276   6.236
 4368POPC   C2B56744  40.975  23.251   6.568
 4368POPC   C3B56745  40.987  23.279   7.011
 4368POPC   C4B56746  41.369  23.429   7.237
 4369POPC   NC356747  17.061   3.379   5.336
 4369POPC   PO456748  16.398   3.310   5.340
 4369POPC   GL156749  16.514   3.486   5.710
 4369POPC   GL256750  16.820   3.349   5.807
 4369POPC   C1A56751  16.524   3.593   6.140
 4369POPC   D2A56752  16.603   3.491   6.565
 4369POPC   C3A56753  16.924   3.675   6.823
 4369POPC   C4A56754  16.785   3.756   7.228
 4369POPC   C1B56755  16.930   3.178   6.204
 4369POPC   C2B56756  17.116   3.234   6.595
 4369POPC   C3B56757  16.875   3.175   6.929
 4369POPC   C4B56758  16.741   3.099   7.337
 4370POPC   NC356759  41.221  25.444   5.759
 4370POPC   PO456760  41.694  25.827   5.494
 4370POPC   GL156761  41.784  26.032   5.820
 4370POPC   GL256762  41.905  26.342   5.703
 4370POPC   C1A56763  41.459  26.145   6.111
 4370POPC   D2A56764  41.331  26.369   6.467
 4370POPC   C3A56765  41.428  26.176   6.855
 4370POPC   C4A56766  41.558  25.736   6.969
 4370POPC   C1B56767  41.908  26.396   6.154
 4370POPC   C2B56768  41.831  26.112   6.488
 4370POPC   C3B56769  41.963  26.053   6.889
 4370POPC   C4B56770  41.719  26.118   7.260
 4371POPC   NC356771  30.513  25.163   5.432
 4371POPC   PO456772  30.638  25.753   5.353
 4371POPC   GL156773  30.570  25.554   5.745
 4371POPC   GL256774  30.863  25.321   5.817
 4371POPC   C1A56775  30.454  25.321   6.124
 4371POPC   D2A56776  30.731  25.248   6.463
 4371POPC   C3A56777  30.530  25.088   6.824
 4371POPC   C4A56778  30.256  25.034   7.156
 4371POPC   C1B56779  30.987  24.961   6.114
 4371POPC   C2B56780  30.950  24.792   6.571
 4371POPC   C3B56781  31.032  25.121   6.867
 4371POPC   C4B56782  30.806  25.475   7.024
 4372POPC   NC356783   9.955  40.920   5.435
 4372POPC   PO456784   9.425  40.541   5.386
 4372POPC   GL156785   9.619  40.689   5.749
 4372POPC   GL256786   9.456  41.021   5.822
 4372POPC   C1A56787   9.924  40.558   6.076
 4372POPC   D2A56788   9.977  40.762   6.480
 4372POPC   C3A56789   9.849  40.631   6.886
 4372POPC   C4A56790   9.808  40.928   7.224
 4372POPC   C1B56791   9.496  40.798   6.228
 4372POPC   C2B56792   9.376  40.653   6.641
 4372POPC   C3B56793   9.352  40.768   7.059
 4372POPC   C4B56794   9.402  40.814   7.543
 4373POPC   NC356795  31.169  28.619   5.488
 4373POPC   PO456796  31.703  28.213   5.601
 4373POPC   GL156797  31.333  28.273   5.855
 4373POPC   GL256798  31.072  28.087   5.748
 4373POPC   C1A56799  31.196  28.480   6.248
 4373POPC   D2A56800  31.336  28.637   6.672
 4373POPC   C3A56801  31.700  28.497   6.894
 4373POPC   C4A56802  31.706  28.339   7.323
 4373POPC   C1B56803  30.989  27.992   6.201
 4373POPC   C2B56804  31.226  28.093   6.587
 4373POPC   C3B56805  31.290  28.179   7.013
 4373POPC   C4B56806  31.218  28.085   7.437
 4374POPC   NC356807   3.068   4.305   5.291
 4374POPC   PO456808   3.641   4.272   5.236
 4374POPC   GL156809   3.442   4.235   5.696
 4374POPC   GL256810   3.089   4.229   5.805
 4374POPC   C1A56811   3.414   4.118   6.186
 4374POPC   D2A56812   3.390   4.255   6.653
 4374POPC   C3A56813   3.658   4.137   7.011
 4374POPC   C4A56814   3.894   4.270   7.405
 4374POPC   C1B56815   3.076   4.507   6.235
 4374POPC   C2B56816   3.108   4.667   6.689
 4374POPC   C3B56817   3.223   4.471   7.129
 4374POPC   C4B56818   3.106   4.485   7.607
 4375POPC   NC356819  26.527  40.292   5.584
 4375POPC   PO456820  26.514  39.628   5.496
 4375POPC   GL156821  26.711  39.688   5.899
 4375POPC   GL256822  26.867  39.994   5.817
 4375POPC   C1A56823  26.799  39.660   6.338
 4375POPC   D2A56824  26.763  39.964   6.641
 4375POPC   C3A56825  26.807  39.915   7.082
 4375POPC   C4A56826  26.862  40.279   7.380
 4375POPC   C1B56827  27.037  40.112   6.199
 4375POPC   C2B56828  27.248  40.180   6.578
 4375POPC   C3B56829  27.291  39.889   6.890
 4375POPC   C4B56830  27.262  39.916   7.326
 4376POPC   NC356831   4.564  18.438   5.680
 4376POPC   PO456832   4.401  19.010   5.297
 4376POPC   GL156833   4.213  19.138   5.687
 4376POPC   GL256834   4.173  18.795   5.783
 4376POPC   C1A56835   4.223  19.244   6.159
 4376POPC   D2A56836   4.347  19.522   6.541
 4376POPC   C3A56837   4.178  19.436   6.961
 4376POPC   C4A56838   4.247  19.221   7.357
 4376POPC   C1B56839   3.973  18.768   6.177
 4376POPC   C2B56840   4.092  18.627   6.588
 4376POPC   C3B56841   4.165  18.837   6.977
 4376POPC   C4B56842   4.220  18.704   7.384
 4377POPC   NC356843   1.540  16.971   5.538
 4377POPC   PO456844   0.876  16.892   5.540
 4377POPC   GL156845   0.924  16.612   5.882
 4377POPC   GL256846   1.291  16.564   5.788
 4377POPC   C1A56847   0.960  16.611   6.374
 4377POPC   D2A56848   1.044  16.968   6.635
 4377POPC   C3A56849   1.129  16.862   7.074
 4377POPC   C4A56850   0.848  16.550   7.305
 4377POPC   C1B56851   1.447  16.630   6.223
 4377POPC   C2B56852   1.440  16.640   6.680
 4377POPC   C3B56853   1.508  16.531   7.098
 4377POPC   C4B56854   1.504  16.774   7.437
 4378POPC   NC356855  40.594  10.858   5.247
 4378POPC   PO456856  40.592  11.547   5.442
 4378POPC   GL156857  40.886  11.507   5.764
 4378POPC   GL256858  40.938  11.176   5.685
 4378POPC   C1A56859  40.786  11.400   6.187
 4378POPC   D2A56860  40.664  11.249   6.584
 4378POPC   C3A56861  40.860  11.379   6.941
 4378POPC   C4A56862  40.625  11.231   7.248
 4378POPC   C1B56863  41.110  11.030   6.062
 4378POPC   C2B56864  41.138  11.134   6.488
 4378POPC   C3B56865  40.976  10.906   6.838
 4378POPC   C4B56866  40.954  10.801   7.272
 4379POPC   NC356867  40.288  41.089   5.497
 4379POPC   PO456868  39.744  40.765   5.354
 4379POPC   GL156869  39.866  40.898   5.737
 4379POPC   GL256870  39.690  41.207   5.711
 4379POPC   C1A56871  40.059  40.867   6.124
 4379POPC   D2A56872  40.160  41.106   6.487
 4379POPC   C3A56873  40.256  40.798   6.791
 4379POPC   C4A56874  40.249  40.543   7.158
 4379POPC   C1B56875  39.557  41.052   6.146
 4379POPC   C2B56876  39.715  40.840   6.530
 4379POPC   C3B56877  39.834  41.098   6.882
 4379POPC   C4B56878  40.097  41.048   7.205
 4380POPC   NC356879   0.234  32.984   5.605
 4380POPC   PO456880   0.778  32.715   5.468
 4380POPC   GL156881   0.627  32.749   5.841
 4380POPC   GL256882   0.616  33.088   5.957
 4380POPC   C1A56883   0.450  32.705   6.231
 4380POPC   D2A56884   0.540  32.922   6.573
 4380POPC   C3A56885   0.287  32.857   6.908
 4380POPC   C4A56886   0.419  32.696   7.304
 4380POPC   C1B56887   0.177  33.147   6.201
 4380POPC   C2B56888  44.845  33.255   6.533
 4380POPC   C3B56889  44.963  33.267   6.931
 4380POPC   C4B56890   0.111  33.106   7.317
 4381POPC   NC356891  23.509   1.275   5.015
 4381POPC   PO456892  24.004   1.025   5.480
 4381POPC   GL156893  23.765   1.187   5.809
 4381POPC   GL256894  23.489   1.308   5.591
 4381POPC   C1A56895  23.648   1.051   6.211
 4381POPC   D2A56896  23.874   1.127   6.593
 4381POPC   C3A56897  23.733   1.135   7.017
 4381POPC   C4A56898  24.097   1.157   7.302
 4381POPC   C1B56899  23.408   1.518   6.008
 4381POPC   C2B56900  23.465   1.451   6.482
 4381POPC   C3B56901  23.487   1.656   6.889
 4381POPC   C4B56902  23.556   1.543   7.308
 4382POPC   NC356903  12.985   2.114   5.419
 4382POPC   PO456904  12.480   1.705   5.519
 4382POPC   GL156905  12.749   1.897   5.849
 4382POPC   GL256906  13.125   1.882   5.870
 4382POPC   C1A56907  12.728   2.109   6.250
 4382POPC   D2A56908  12.373   2.220   6.501
 4382POPC   C3A56909  12.508   2.286   6.901
 4382POPC   C4A56910  12.683   1.975   7.114
 4382POPC   C1B56911  13.205   1.914   6.327
 4382POPC   C2B56912  13.044   2.087   6.730
 4382POPC   C3B56913  13.133   2.179   7.154
 4382POPC   C4B56914  13.183   2.245   7.595
 4383POPC   NC356915  38.687  19.066   5.351
 4383POPC   PO456916  38.007  19.016   5.394
 4383POPC   GL156917  38.158  19.021   5.828
 4383POPC   GL256918  38.497  19.161   5.815
 4383POPC   C1A56919  38.285  19.009   6.280
 4383POPC   D2A56920  38.637  18.925   6.557
 4383POPC   C3A56921  38.571  18.711   6.954
 4383POPC   C4A56922  38.480  18.960   7.309
 4383POPC   C1B56923  38.663  19.354   6.174
 4383POPC   C2B56924  38.535  19.449   6.565
 4383POPC   C3B56925  38.579  19.291   6.928
 4383POPC   C4B56926  38.776  19.347   7.282
 4384POPC   NC356927   0.052  34.214   5.505
 4384POPC   PO456928  44.651  34.784   5.377
 4384POPC   GL156929  44.741  34.577   5.806
 4384POPC   GL256930  44.655  34.240   5.842
 4384POPC   C1A56931  44.820  34.595   6.284
 4384POPC   D2A56932   0.071  34.689   6.668
 4384POPC   C3A56933  44.898  34.715   7.103
 4384POPC   C4A56934  44.571  34.753   7.461
 4384POPC   C1B56935  44.966  34.136   6.167
 4384POPC   C2B56936   0.172  34.195   6.566
 4384POPC   C3B56937   0.006  34.218   6.974
 4384POPC   C4B56938  44.766  34.284   7.336
 4385POPC   NC356939  44.170   1.358   5.445
 4385POPC   PO456940  43.919   0.775   5.134
 4385POPC   GL156941  43.807   0.975   5.560
 4385POPC   GL256942  43.683   0.739   5.815
 4385POPC   C1A56943  43.856   1.212   5.997
 4385POPC   D2A56944  43.824   1.235   6.491
 4385POPC   C3A56945  43.853   1.499   6.874
 4385POPC   C4A56946  44.194   1.506   7.190
 4385POPC   C1B56947  43.687   0.803   6.260
 4385POPC   C2B56948  44.086   0.766   6.515
 4385POPC   C3B56949  44.237   0.867   6.908
 4385POPC   C4B56950  44.096   1.004   7.313
 4386POPC   NC356951  20.535  36.691   5.393
 4386POPC   PO456952  20.151  37.209   5.343
 4386POPC   GL156953  20.595  37.159   5.642
 4386POPC   GL256954  20.916  36.878   5.677
 4386POPC   C1A56955  20.840  37.169   6.078
 4386POPC   D2A56956  20.940  36.919   6.456
 4386POPC   C3A56957  20.712  37.019   6.815
 4386POPC   C4A56958  20.812  37.087   7.207
 4386POPC   C1B56959  20.743  36.627   6.084
 4386POPC   C2B56960  20.599  36.563   6.580
 4386POPC   C3B56961  20.600  36.603   7.063
 4386POPC   C4B56962  20.471  36.412   7.455
 4387POPC   NC356963   0.740  21.775   5.595
 4387POPC   PO456964   0.334  21.426   5.231
 4387POPC   GL156965   0.280  21.352   5.718
 4387POPC   GL256966   0.111  21.049   5.791
 4387POPC   C1A56967   0.453  21.450   6.158
 4387POPC   D2A56968   0.136  21.452   6.497
 4387POPC   C3A56969   0.172  21.204   6.837
 4387POPC   C4A56970   0.445  21.340   7.158
 4387POPC   C1B56971   0.226  21.016   6.227
 4387POPC   C2B56972   0.542  20.967   6.552
 4387POPC   C3B56973   0.597  20.884   7.004
 4387POPC   C4B56974   0.948  21.077   7.222
 4388POPC   NC356975  27.906  29.562   5.383
 4388POPC   PO456976  27.541  28.988   5.384
 4388POPC   GL156977  27.713  29.207   5.719
 4388POPC   GL256978  27.479  29.484   5.791
 4388POPC   C1A56979  27.905  29.021   6.087
 4388POPC   D2A56980  27.964  29.168   6.506
 4388POPC   C3A56981  27.884  28.977   6.895
 4388POPC   C4A56982  27.716  29.028   7.287
 4388POPC   C1B56983  27.553  29.372   6.188
 4388POPC   C2B56984  27.620  29.542   6.568
 4388POPC   C3B56985  27.534  29.354   6.928
 4388POPC   C4B56986  27.259  29.222   7.235
 4389POPC   NC356987   5.629  33.982   5.435
 4389POPC   PO456988   5.905  33.411   5.464
 4389POPC   GL156989   5.803  33.639   5.809
 4389POPC   GL256990   6.024  33.909   5.835
 4389POPC   C1A56991   5.723  33.749   6.238
 4389POPC   D2A56992   5.694  33.996   6.615
 4389POPC   C3A56993   5.560  33.716   6.928
 4389POPC   C4A56994   5.765  33.670   7.267
 4389POPC   C1B56995   6.205  33.593   6.134
 4389POPC   C2B56996   6.141  33.535   6.556
 4389POPC   C3B56997   6.083  33.794   6.901
 4389POPC   C4B56998   6.301  33.979   7.238
 4390POPC   NC356999  25.351  15.993   4.996
 4390POPC   PO457000  24.768  15.717   5.313
 4390POPC   GL157001  25.020  15.740   5.698
 4390POPC   GL257002  25.349  15.942   5.667
 4390POPC   C1A57003  25.076  15.963   6.102
 4390POPC   D2A57004  25.310  15.905   6.467
 4390POPC   C3A57005  25.258  16.150   6.815
 4390POPC   C4A57006  25.098  15.866   7.121
 4390POPC   C1B57007  25.646  15.887   6.038
 4390POPC   C2B57008  25.792  15.745   6.471
 4390POPC   C3B57009  25.621  15.783   6.897
 4390POPC   C4B57010  25.569  15.798   7.346
 4391POPC   NC357011  10.274  11.415   5.415
 4391POPC   PO457012  10.482  10.854   5.284
 4391POPC   GL157013  10.437  11.051   5.735
 4391POPC   GL257014  10.677  11.358   5.783
 4391POPC   C1A57015  10.563  11.100   6.194
 4391POPC   D2A57016  10.534  11.247   6.634
 4391POPC   C3A57017  10.525  10.997   7.030
 4391POPC   C4A57018  10.434  10.944   7.504
 4391POPC   C1B57019  10.864  11.515   6.211
 4391POPC   C2B57020  10.931  11.600   6.656
 4391POPC   C3B57021  10.638  11.566   7.021
 4391POPC   C4B57022  10.492  11.422   7.391
 4392POPC   NC357023  38.876  20.689   5.493
 4392POPC   PO457024  38.219  20.867   5.468
 4392POPC   GL157025  38.456  20.752   5.832
 4392POPC   GL257026  38.771  20.886   5.950
 4392POPC   C1A57027  38.368  20.634   6.257
 4392POPC   D2A57028  38.137  20.349   6.561
 4392POPC   C3A57029  38.418  20.279   6.913
 4392POPC   C4A57030  38.407  20.433   7.326
 4392POPC   C1B57031  38.791  20.961   6.392
 4392POPC   C2B57032  38.549  20.789   6.714
 4392POPC   C3B57033  38.710  20.767   7.097
 4392POPC   C4B57034  38.911  21.040   7.353
 4393POPC   NC357035  24.555   6.237   5.398
 4393POPC   PO457036  24.202   5.654   5.604
 4393POPC   GL157037  24.328   6.011   5.817
 4393POPC   GL257038  24.305   5.801   6.100
 4393POPC   C1A57039  24.618   6.205   6.146
 4393POPC   D2A57040  24.766   6.362   6.560
 4393POPC   C3A57041  24.631   6.222   6.973
 4393POPC   C4A57042  24.674   5.827   7.225
 4393POPC   C1B57043  24.703   5.660   6.252
 4393POPC   C2B57044  24.674   5.827   6.647
 4393POPC   C3B57045  24.269   5.843   6.895
 4393POPC   C4B57046  24.020   5.664   7.229
 4394POPC   NC357047   6.217   8.416   5.284
 4394POPC   PO457048   6.593   7.779   5.429
 4394POPC   GL157049   6.619   8.043   5.829
 4394POPC   GL257050   6.483   8.324   5.776
 4394POPC   C1A57051   6.872   8.225   6.185
 4394POPC   D2A57052   6.677   8.110   6.605
 4394POPC   C3A57053   6.841   8.369   6.907
 4394POPC   C4A57054   6.981   8.371   7.316
 4394POPC   C1B57055   6.369   8.285   6.222
 4394POPC   C2B57056   6.257   8.468   6.641
 4394POPC   C3B57057   6.249   8.255   7.052
 4394POPC   C4B57058   6.241   8.295   7.534
 4395POPC   NC357059  36.530  18.019   5.381
 4395POPC   PO457060  35.865  18.150   5.340
 4395POPC   GL157061  36.179  18.263   5.661
 4395POPC   GL257062  36.187  17.930   5.783
 4395POPC   C1A57063  36.260  18.332   6.135
 4395POPC   D2A57064  36.047  18.299   6.585
 4395POPC   C3A57065  36.053  18.511   7.030
 4395POPC   C4A57066  35.946  18.507   7.497
 4395POPC   C1B57067  35.915  17.942   6.182
 4395POPC   C2B57068  36.027  17.798   6.620
 4395POPC   C3B57069  36.258  18.030   6.981
 4395POPC   C4B57070  36.084  18.053   7.390
 4396POPC   NC357071  40.302  31.330   5.623
 4396POPC   PO457072  39.949  30.778   5.374
 4396POPC   GL157073  40.094  30.765   5.855
 4396POPC   GL257074  40.315  31.000   5.997
 4396POPC   C1A57075  40.161  30.604   6.289
 4396POPC   D2A57076  40.036  30.706   6.728
 4396POPC   C3A57077  39.961  30.382   7.003
 4396POPC   C4A57078  39.749  30.369   7.364
 4396POPC   C1B57079  40.276  31.074   6.443
 4396POPC   C2B57080  40.340  31.074   6.884
 4396POPC   C3B57081  40.299  30.739   7.226
 4396POPC   C4B57082  40.058  30.695   7.616
 4397POPC   NC357083  17.718   1.130   5.119
 4397POPC   PO457084  18.311   1.331   5.446
 4397POPC   GL157085  18.456   1.041   5.755
 4397POPC   GL257086  18.618   1.317   5.944
 4397POPC   C1A57087  18.316   0.952   6.175
 4397POPC   D2A57088  18.180   1.256   6.489
 4397POPC   C3A57089  18.268   1.109   6.896
 4397POPC   C4A57090  18.008   1.251   7.238
 4397POPC   C1B57091  18.549   1.704   6.192
 4397POPC   C2B57092  18.393   1.894   6.595
 4397POPC   C3B57093  18.271   1.613   6.931
 4397POPC   C4B57094  18.452   1.444   7.356
 4398POPC   NC357095  26.788  30.070   5.260
 4398POPC   PO457096  27.407  29.679   5.341
 4398POPC   GL157097  27.002  29.754   5.615
 4398POPC   GL257098  26.906  30.124   5.742
 4398POPC   C1A57099  26.706  29.736   6.000
 4398POPC   D2A57100  26.684  29.663   6.457
 4398POPC   C3A57101  26.691  29.903   6.846
 4398POPC   C4A57102  26.807  29.888   7.314
 4398POPC   C1B57103  26.531  30.215   6.025
 4398POPC   C2B57104  26.360  30.246   6.441
 4398POPC   C3B57105  26.338  30.282   6.889
 4398POPC   C4B57106  26.598  30.337   7.271
 4399POPC   NC357107  31.380  38.236   5.407
 4399POPC   PO457108  31.550  38.795   5.035
 4399POPC   GL157109  31.589  38.732   5.552
 4399POPC   GL257110  31.683  38.406   5.772
 4399POPC   C1A57111  31.497  38.778   6.041
 4399POPC   D2A57112  31.359  38.580   6.421
 4399POPC   C3A57113  31.572  38.401   6.757
 4399POPC   C4A57114  31.615  38.708   7.050
 4399POPC   C1B57115  31.332  38.217   6.075
 4399POPC   C2B57116  31.202  38.100   6.539
 4399POPC   C3B57117  31.163  38.186   7.016
 4399POPC   C4B57118  30.856  38.153   7.357
 4400POPC   NC357119  11.403  25.294   5.421
 4400POPC   PO457120  10.732  25.111   5.353
 4400POPC   GL157121  10.954  25.294   5.754
 4400POPC   GL257122  11.327  25.209   5.911
 4400POPC   C1A57123  10.994  25.489   6.178
 4400POPC   D2A57124  11.017  25.257   6.562
 4400POPC   C3A57125  11.222  25.407   6.913
 4400POPC   C4A57126  11.089  25.213   7.253
 4400POPC   C1B57127  11.514  25.585   6.142
 4400POPC   C2B57128  11.632  25.766   6.559
 4400POPC   C3B57129  11.732  25.533   6.943
 4400POPC   C4B57130  11.528  25.443   7.350
 4401POPC   NC357131   3.742  18.527   5.438
 4401POPC   PO457132   3.231  18.126   5.395
 4401POPC   GL157133   3.384  18.339   5.742
 4401POPC   GL257134   3.652  18.086   5.694
 4401POPC   C1A57135   3.604  18.408   6.151
 4401POPC   D2A57136   3.441  18.442   6.581
 4401POPC   C3A57137   3.715  18.541   6.947
 4401POPC   C4A57138   3.564  18.382   7.300
 4401POPC   C1B57139   3.446  17.941   6.072
 4401POPC   C2B57140   3.451  17.923   6.509
 4401POPC   C3B57141   3.640  18.042   6.885
 4401POPC   C4B57142   3.869  18.001   7.259
 4402POPC   NC357143  43.340  20.771   5.591
 4402POPC   PO457144  43.950  20.709   5.191
 4402POPC   GL157145  43.847  20.753   5.646
 4402POPC   GL257146  43.811  20.396   5.713
 4402POPC   C1A57147  43.761  20.752   6.133
 4402POPC   D2A57148  43.950  20.603   6.548
 4402POPC   C3A57149  43.984  20.768   6.979
 4402POPC   C4A57150  44.144  21.157   7.208
 4402POPC   C1B57151  44.021  20.281   6.131
 4402POPC   C2B57152  43.970  20.092   6.575
 4402POPC   C3B57153  43.896  20.234   7.037
 4402POPC   C4B57154  43.890  20.517   7.423
 4403POPC   NC357155  28.611  10.417   4.955
 4403POPC   PO457156  28.376  10.865   5.348
 4403POPC   GL157157  28.323  10.735   5.793
 4403POPC   GL257158  28.588  10.920   5.947
 4403POPC   C1A57159  28.252  10.504   6.214
 4403POPC   D2A57160  28.246  10.303   6.640
 4403POPC   C3A57161  28.120  10.525   7.029
 4403POPC   C4A57162  28.411  10.759   7.312
 4403POPC   C1B57163  28.272  11.018   6.309
 4403POPC   C2B57164  28.259  11.025   6.796
 4403POPC   C3B57165  28.000  11.014   7.189
 4403POPC   C4B57166  28.011  10.868   7.641
 4404POPC   NC357167  37.125  42.939   5.445
 4404POPC   PO457168  36.759  43.428   5.114
 4404POPC   GL157169  36.895  43.350   5.601
 4404POPC   GL257170  36.680  43.099   5.762
 4404POPC   C1A57171  37.103  43.339   6.038
 4404POPC   D2A57172  36.993  43.285   6.521
 4404POPC   C3A57173  37.188  43.341   6.954
 4404POPC   C4A57174  36.948  43.473   7.369
 4404POPC   C1B57175  36.886  42.889   6.152
 4404POPC   C2B57176  36.805  42.790   6.602
 4404POPC   C3B57177  36.751  43.039   6.990
 4404POPC   C4B57178  36.986  42.982   7.351
 4405POPC   NC357179   7.873  39.480   5.421
 4405POPC   PO457180   8.274  39.993   5.222
 4405POPC   GL157181   8.346  39.903   5.671
 4405POPC   GL257182   8.203  39.592   5.815
 4405POPC   C1A57183   8.281  40.080   6.113
 4405POPC   D2A57184   8.257  40.382   6.482
 4405POPC   C3A57185   8.396  40.250   6.878
 4405POPC   C4A57186   8.258  40.068   7.256
 4405POPC   C1B57187   8.100  39.608   6.270
 4405POPC   C2B57188   8.120  39.734   6.733
 4405POPC   C3B57189   8.106  39.586   7.183
 4405POPC   C4B57190   8.343  39.644   7.578
 4406POPC   NC357191  17.938   1.030   5.597
 4406POPC   PO457192  17.665   1.553   5.311
 4406POPC   GL157193  17.458   1.339   5.683
 4406POPC   GL257194  17.542   1.029   5.882
 4406POPC   C1A57195  17.485   1.446   6.143
 4406POPC   D2A57196  17.699   1.450   6.530
 4406POPC   C3A57197  17.465   1.483   6.897
 4406POPC   C4A57198  17.603   1.549   7.298
 4406POPC   C1B57199  17.794   0.799   6.202
 4406POPC   C2B57200  18.005   0.790   6.583
 4406POPC   C3B57201  17.758   1.041   6.839
 4406POPC   C4B57202  17.541   1.044   7.200
 4407POPC   NC357203   2.555   3.679   5.274
 4407POPC   PO457204   2.930   3.158   5.386
 4407POPC   GL157205   2.639   3.379   5.680
 4407POPC   GL257206   2.871   3.675   5.730
 4407POPC   C1A57207   2.526   3.510   6.110
 4407POPC   D2A57208   2.582   3.374   6.531
 4407POPC   C3A57209   2.751   3.554   6.900
 4407POPC   C4A57210   2.775   3.559   7.319
 4407POPC   C1B57211   2.930   3.842   6.175
 4407POPC   C2B57212   3.008   3.924   6.630
 4407POPC   C3B57213   3.182   3.833   7.063
 4407POPC   C4B57214   3.234   3.613   7.513
 4408POPC   NC357215  41.409   1.485   5.434
 4408POPC   PO457216  41.984   1.253   5.221
 4408POPC   GL157217  41.815   1.230   5.674
 4408POPC   GL257218  41.807   1.551   5.848
 4408POPC   C1A57219  41.791   1.151   6.179
 4408POPC   D2A57220  41.612   1.073   6.658
 4408POPC   C3A57221  41.435   1.135   7.119
 4408POPC   C4A57222  41.164   1.088   7.528
 4408POPC   C1B57223  41.394   1.475   6.100
 4408POPC   C2B57224  41.226   1.429   6.536
 4408POPC   C3B57225  41.248   1.664   6.929
 4408POPC   C4B57226  41.448   1.599   7.358
 4409POPC   NC357227   9.307  20.741   5.392
 4409POPC   PO457228   8.596  20.534   5.344
 4409POPC   GL157229   8.884  20.449   5.704
 4409POPC   GL257230   9.000  20.762   5.789
 4409POPC   C1A57231   9.089  20.428   6.147
 4409POPC   D2A57232   8.969  20.256   6.532
 4409POPC   C3A57233   9.057  20.421   6.943
 4409POPC   C4A57234   9.267  20.452   7.335
 4409POPC   C1B57235   8.880  20.916   6.179
 4409POPC   C2B57236   9.081  20.890   6.557
 4409POPC   C3B57237   8.945  20.923   6.932
 4409POPC   C4B57238   8.891  20.792   7.290
 4410POPC   NC357239  14.098  20.042   5.469
 4410POPC   PO457240  14.331  19.582   5.114
 4410POPC   GL157241  14.263  19.559   5.661
 4410POPC   GL257242  13.975  19.686   5.848
 4410POPC   C1A57243  14.452  19.616   6.140
 4410POPC   D2A57244  14.527  19.924   6.555
 4410POPC   C3A57245  14.627  19.821   7.052
 4410POPC   C4A57246  14.768  19.955   7.507
 4410POPC   C1B57247  14.165  20.021   6.142
 4410POPC   C2B57248  14.111  20.200   6.551
 4410POPC   C3B57249  14.200  20.083   6.957
 4410POPC   C4B57250  14.124  19.694   7.182
 4411POPC   NC357251  42.623  33.674   5.541
 4411POPC   PO457252  42.168  34.047   5.254
 4411POPC   GL157253  42.198  33.987   5.716
 4411POPC   GL257254  42.210  33.652   5.824
 4411POPC   C1A57255  42.005  33.966   6.163
 4411POPC   D2A57256  42.014  33.743   6.565
 4411POPC   C3A57257  42.224  33.936   6.915
 4411POPC   C4A57258  42.274  33.911   7.362
 4411POPC   C1B57259  42.417  33.603   6.238
 4411POPC   C2B57260  42.625  33.715   6.649
 4411POPC   C3B57261  42.711  33.753   7.101
 4411POPC   C4B57262  42.569  33.433   7.381
 4412POPC   NC357263  36.894   7.629   5.352
 4412POPC   PO457264  36.416   7.085   5.353
 4412POPC   GL157265  36.686   7.079   5.773
 4412POPC   GL257266  36.924   7.352   5.790
 4412POPC   C1A57267  36.527   7.153   6.212
 4412POPC   D2A57268  36.352   7.292   6.619
 4412POPC   C3A57269  36.633   7.115   6.917
 4412POPC   C4A57270  37.047   7.250   7.072
 4412POPC   C1B57271  36.777   7.578   6.166
 4412POPC   C2B57272  36.845   7.481   6.605
 4412POPC   C3B57273  36.660   7.622   7.003
 4412POPC   C4B57274  36.744   7.630   7.453
 4413POPC   NC357275  10.102  10.664   5.469
 4413POPC   PO457276   9.465  10.374   5.513
 4413POPC   GL157277   9.678  10.331   5.880
 4413POPC   GL257278   9.949  10.167   5.768
 4413POPC   C1A57279   9.671  10.256   6.321
 4413POPC   D2A57280   9.576  10.276   6.739
 4413POPC   C3A57281   9.673  10.658   6.947
 4413POPC   C4A57282   9.637  10.533   7.351
 4413POPC   C1B57283  10.157  10.182   6.165
 4413POPC   C2B57284  10.144  10.366   6.559
 4413POPC   C3B57285  10.049  10.314   6.961
 4413POPC   C4B57286  10.154  10.622   7.218
 4414POPC   NC357287  20.232  39.298   5.462
 4414POPC   PO457288  20.855  38.995   5.343
 4414POPC   GL157289  20.776  39.100   5.775
 4414POPC   GL257290  20.417  39.066   5.876
 4414POPC   C1A57291  20.770  39.116   6.230
 4414POPC   D2A57292  20.544  39.026   6.581
 4414POPC   C3A57293  20.748  39.180   6.893
 4414POPC   C4A57294  20.763  39.230   7.273
 4414POPC   C1B57295  20.313  39.353   6.247
 4414POPC   C2B57296  20.417  39.514   6.678
 4414POPC   C3B57297  20.274  39.306   7.080
 4414POPC   C4B57298  20.029  39.136   7.439
 4415POPC   NC357299  33.300   2.822   5.381
 4415POPC   PO457300  33.957   2.611   5.256
 4415POPC   GL157301  33.889   2.729   5.696
 4415POPC   GL257302  33.593   2.929   5.793
 4415POPC   C1A57303  34.002   2.767   6.150
 4415POPC   D2A57304  33.803   2.779   6.560
 4415POPC   C3A57305  34.027   2.810   6.953
 4415POPC   C4A57306  33.858   2.610   7.303
 4415POPC   C1B57307  33.439   3.155   6.139
 4415POPC   C2B57308  33.332   3.068   6.557
 4415POPC   C3B57309  33.547   3.043   6.936
 4415POPC   C4B57310  33.459   2.991   7.359
 4416POPC   NC357311  20.098   3.679   5.398
 4416POPC   PO457312  19.479   3.503   5.407
 4416POPC   GL157313  19.791   3.387   5.727
 4416POPC   GL257314  19.868   3.716   5.853
 4416POPC   C1A57315  19.896   3.309   6.173
 4416POPC   D2A57316  19.609   3.252   6.551
 4416POPC   C3A57317  19.565   3.431   6.939
 4416POPC   C4A57318  19.768   3.335   7.353
 4416POPC   C1B57319  20.005   3.790   6.275
 4416POPC   C2B57320  20.032   3.543   6.654
 4416POPC   C3B57321  19.975   3.713   7.061
 4416POPC   C4B57322  20.060   3.726   7.497
 4417POPC   NC357323  12.182  29.628   5.518
 4417POPC   PO457324  12.293  30.261   5.517
 4417POPC   GL157325  11.984  30.054   5.760
 4417POPC   GL257326  11.683  29.824   5.746
 4417POPC   C1A57327  12.044  29.829   6.138
 4417POPC   D2A57328  12.290  29.708   6.478
 4417POPC   C3A57329  12.089  29.801   6.841
 4417POPC   C4A57330  12.085  29.480   7.141
 4417POPC   C1B57331  11.579  30.122   6.105
 4417POPC   C2B57332  11.627  30.311   6.518
 4417POPC   C3B57333  11.482  30.211   6.937
 4417POPC   C4B57334  11.772  30.036   7.242
 4418POPC   NC357335  31.459  10.695   5.655
 4418POPC   PO457336  31.050  11.157   5.265
 4418POPC   GL157337  31.151  11.241   5.703
 4418POPC   GL257338  31.496  11.333   5.708
 4418POPC   C1A57339  31.201  11.441   6.113
 4418POPC   D2A57340  31.159  11.194   6.486
 4418POPC   C3A57341  31.331  11.412   6.821
 4418POPC   C4A57342  31.377  11.182   7.172
 4418POPC   C1B57343  31.603  11.132   6.119
 4418POPC   C2B57344  31.714  11.203   6.545
 4418POPC   C3B57345  31.825  11.238   6.954
 4418POPC   C4B57346  32.098  11.432   7.198
 4419POPC   NC357347  22.801  25.379   5.413
 4419POPC   PO457348  23.216  24.983   5.205
 4419POPC   GL157349  23.006  25.071   5.729
 4419POPC   GL257350  22.759  25.288   5.888
 4419POPC   C1A57351  23.111  25.101   6.200
 4419POPC   D2A57352  23.185  25.369   6.567
 4419POPC   C3A57353  23.034  25.269   6.973
 4419POPC   C4A57354  23.260  25.015   7.257
 4419POPC   C1B57355  22.888  25.583   6.204
 4419POPC   C2B57356  22.807  25.832   6.570
 4419POPC   C3B57357  22.586  25.753   6.941
 4419POPC   C4B57358  22.754  25.576   7.281
 4420POPC   NC357359  31.204  40.751   5.025
 4420POPC   PO457360  31.738  40.913   5.448
 4420POPC   GL157361  31.671  40.700   5.830
 4420POPC   GL257362  31.319  40.562   5.916
 4420POPC   C1A57363  31.507  40.906   6.227
 4420POPC   D2A57364  31.333  40.743   6.583
 4420POPC   C3A57365  31.429  41.009   6.913
 4420POPC   C4A57366  31.649  40.921   7.274
 4420POPC   C1B57367  31.598  40.402   6.229
 4420POPC   C2B57368  31.793  40.484   6.570
 4420POPC   C3B57369  31.617  40.503   6.965
 4420POPC   C4B57370  31.797  40.414   7.337
 4421POPC   NC357371  16.732   2.083   4.925
 4421POPC   PO457372  16.807   2.005   5.572
 4421POPC   GL157373  16.703   1.886   5.920
 4421POPC   GL257374  16.476   1.633   5.838
 4421POPC   C1A57375  16.808   2.109   6.294
 4421POPC   D2A57376  16.630   2.324   6.616
 4421POPC   C3A57377  16.884   2.243   6.918
 4421POPC   C4A57378  16.793   2.138   7.282
 4421POPC   C1B57379  16.527   1.555   6.281
 4421POPC   C2B57380  16.610   1.741   6.698
 4421POPC   C3B57381  16.594   1.646   7.187
 4421POPC   C4B57382  16.531   1.449   7.616
 4422POPC   NC357383   8.762  14.929   5.618
 4422POPC   PO457384   9.004  14.328   5.335
 4422POPC   GL157385   9.042  14.502   5.701
 4422POPC   GL257386   8.693  14.388   5.764
 4422POPC   C1A57387   9.314  14.358   6.033
 4422POPC   D2A57388   9.186  14.115   6.402
 4422POPC   C3A57389   9.300  14.223   6.822
 4422POPC   C4A57390   9.139  14.162   7.227
 4422POPC   C1B57391   8.845  14.460   6.188
 4422POPC   C2B57392   9.012  14.569   6.586
 4422POPC   C3B57393   8.879  14.569   6.992
 4422POPC   C4B57394   8.651  14.885   7.241
 4423POPC   NC357395   6.134  20.341   5.401
 4423POPC   PO457396   5.732  20.886   5.362
 4423POPC   GL157397   5.983  20.752   5.757
 4423POPC   GL257398   5.924  20.395   5.861
 4423POPC   C1A57399   6.178  20.686   6.198
 4423POPC   D2A57400   5.892  20.601   6.564
 4423POPC   C3A57401   5.936  20.627   7.024
 4423POPC   C4A57402   6.046  20.267   7.337
 4423POPC   C1B57403   5.550  20.362   6.111
 4423POPC   C2B57404   5.510  20.238   6.521
 4423POPC   C3B57405   5.494  20.441   6.875
 4423POPC   C4B57406   5.525  20.431   7.269
 4424POPC   NC357407  42.396  17.144   5.530
 4424POPC   PO457408  42.365  17.837   5.293
 4424POPC   GL157409  42.215  17.851   5.746
 4424POPC   GL257410  42.519  17.747   5.889
 4424POPC   C1A57411  42.130  17.782   6.229
 4424POPC   D2A57412  42.292  17.520   6.612
 4424POPC   C3A57413  42.366  17.653   7.058
 4424POPC   C4A57414  42.185  17.555   7.507
 4424POPC   C1B57415  42.667  17.410   6.191
 4424POPC   C2B57416  42.684  17.145   6.577
 4424POPC   C3B57417  42.481  17.136   6.984
 4424POPC   C4B57418  42.615  17.316   7.363
 4425POPC   NC357419  26.562  26.247   5.692
 4425POPC   PO457420  27.045  25.911   5.268
 4425POPC   GL157421  26.846  25.827   5.645
 4425POPC   GL257422  27.030  26.097   5.808
 4425POPC   C1A57423  26.763  25.792   6.112
 4425POPC   D2A57424  26.905  25.624   6.503
 4425POPC   C3A57425  26.803  25.884   6.869
 4425POPC   C4A57426  26.991  25.823   7.290
 4425POPC   C1B57427  26.914  26.290   6.231
 4425POPC   C2B57428  26.854  26.373   6.673
 4425POPC   C3B57429  26.968  26.310   7.111
 4425POPC   C4B57430  27.133  26.292   7.511
 4426POPC   NC357431  42.494   5.726   5.123
 4426POPC   PO457432  42.105   6.208   5.339
 4426POPC   GL157433  42.168   5.978   5.747
 4426POPC   GL257434  42.470   5.742   5.758
 4426POPC   C1A57435  42.324   6.100   6.170
 4426POPC   D2A57436  42.462   6.004   6.577
 4426POPC   C3A57437  42.198   6.029   6.930
 4426POPC   C4A57438  42.336   6.006   7.356
 4426POPC   C1B57439  42.671   5.749   6.170
 4426POPC   C2B57440  42.659   5.528   6.563
 4426POPC   C3B57441  42.570   5.660   6.957
 4426POPC   C4B57442  42.630   5.534   7.347
 4427POPC   NC357443  44.564  22.948   5.514
 4427POPC   PO457444   0.237  22.984   5.535
 4427POPC   GL157445   0.053  23.153   5.881
 4427POPC   GL257446  44.720  23.029   5.977
 4427POPC   C1A57447   0.103  23.004   6.302
 4427POPC   D2A57448  44.848  23.091   6.624
 4427POPC   C3A57449  44.775  22.767   6.909
 4427POPC   C4A57450  44.822  22.920   7.311
 4427POPC   C1B57451  44.420  23.069   6.295
 4427POPC   C2B57452  44.302  22.968   6.711
 4427POPC   C3B57453  44.187  22.838   7.131
 4427POPC   C4B57454  44.412  22.648   7.456
 4428POPC   NC357455  32.457  36.177   5.487
 4428POPC   PO457456  32.074  35.707   5.275
 4428POPC   GL157457  32.089  35.841   5.753
 4428POPC   GL257458  32.243  36.120   5.933
 4428POPC   C1A57459  31.928  35.843   6.190
 4428POPC   D2A57460  32.110  36.047   6.569
 4428POPC   C3A57461  32.064  35.855   6.979
 4428POPC   C4A57462  32.309  36.102   7.234
 4428POPC   C1B57463  32.088  36.419   6.224
 4428POPC   C2B57464  32.287  36.544   6.576
 4428POPC   C3B57465  32.207  36.561   7.002
 4428POPC   C4B57466  32.462  36.581   7.357
 4429POPC   NC357467   2.773  38.024   5.338
 4429POPC   PO457468   2.765  37.325   5.496
 4429POPC   GL157469   2.817  37.612   5.831
 4429POPC   GL257470   2.769  37.985   5.835
 4429POPC   C1A57471   2.669  37.695   6.246
 4429POPC   D2A57472   2.784  37.560   6.623
 4429POPC   C3A57473   2.707  37.910   6.890
 4429POPC   C4A57474   2.622  37.808   7.314
 4429POPC   C1B57475   3.109  37.962   6.129
 4429POPC   C2B57476   3.179  37.866   6.558
 4429POPC   C3B57477   3.193  37.997   7.007
 4429POPC   C4B57478   3.027  38.136   7.395
 4430POPC   NC357479  38.883  41.973   5.207
 4430POPC   PO457480  38.975  42.692   5.383
 4430POPC   GL157481  39.068  42.270   5.619
 4430POPC   GL257482  39.453  42.152   5.667
 4430POPC   C1A57483  39.074  42.234   6.092
 4430POPC   D2A57484  39.231  42.571   6.410
 4430POPC   C3A57485  39.137  42.422   6.835
 4430POPC   C4A57486  38.980  42.642   7.206
 4430POPC   C1B57487  39.589  42.278   6.102
 4430POPC   C2B57488  39.412  42.102   6.490
 4430POPC   C3B57489  39.428  42.006   6.901
 4430POPC   C4B57490  39.269  42.198   7.272
 4431POPC   NC357491  43.845  29.470   5.434
 4431POPC   PO457492  44.212  28.847   5.473
 4431POPC   GL157493  44.026  29.136   5.797
 4431POPC   GL257494  44.222  29.461   5.764
 4431POPC   C1A57495  43.703  29.213   6.158
 4431POPC   D2A57496  43.475  29.313   6.568
 4431POPC   C3A57497  43.678  29.176   6.951
 4431POPC   C4A57498  44.051  29.025   7.193
 4431POPC   C1B57499  44.122  29.534   6.172
 4431POPC   C2B57500  43.979  29.387   6.563
 4431POPC   C3B57501  44.094  29.494   6.968
 4431POPC   C4B57502  44.117  29.805   7.284
 4432POPC   NC357503  13.742  21.024   5.282
 4432POPC   PO457504  13.894  20.441   5.459
 4432POPC   GL157505  13.677  20.567   5.774
 4432POPC   GL257506  13.660  20.879   5.754
 4432POPC   C1A57507  13.487  20.568   6.170
 4432POPC   D2A57508  13.660  20.420   6.545
 4432POPC   C3A57509  13.561  20.335   6.963
 4432POPC   C4A57510  13.836  20.208   7.290
 4432POPC   C1B57511  13.847  20.981   6.140
 4432POPC   C2B57512  13.663  20.943   6.547
 4432POPC   C3B57513  13.796  21.015   6.962
 4432POPC   C4B57514  13.683  20.726   7.270
 4433POPC   NC357515  17.030   1.672   5.345
 4433POPC   PO457516  16.371   1.478   5.348
 4433POPC   GL157517  16.657   1.190   5.597
 4433POPC   GL257518  16.931   1.360   5.788
 4433POPC   C1A57519  16.624   1.036   6.039
 4433POPC   D2A57520  16.778   1.143   6.478
 4433POPC   C3A57521  16.554   1.235   6.835
 4433POPC   C4A57522  16.644   1.129   7.239
 4433POPC   C1B57523  17.122   1.061   6.121
 4433POPC   C2B57524  17.301   1.096   6.548
 4433POPC   C3B57525  17.086   1.119   6.951
 4433POPC   C4B57526  17.088   0.927   7.397
 4434POPC   NC357527  43.870  10.708   5.255
 4434POPC   PO457528  44.131  10.183   5.625
 4434POPC   GL157529  43.809  10.381   5.885
 4434POPC   GL257530  43.709  10.717   5.894
 4434POPC   C1A57531  43.877  10.510   6.316
 4434POPC   D2A57532  44.100  10.514   6.704
 4434POPC   C3A57533  43.804  10.413   7.027
 4434POPC   C4A57534  44.013  10.432   7.410
 4434POPC   C1B57535  43.923  11.001   6.203
 4434POPC   C2B57536  43.930  11.022   6.612
 4434POPC   C3B57537  43.629  10.917   6.904
 4434POPC   C4B57538  43.652  10.812   7.320
 4435POPC   NC357539   1.400   1.577   5.511
 4435POPC   PO457540   0.990   1.067   5.304
 4435POPC   GL157541   1.083   0.974   5.737
 4435POPC   GL257542   1.393   1.182   5.845
 4435POPC   C1A57543   1.018   1.065   6.174
 4435POPC   D2A57544   1.252   1.202   6.501
 4435POPC   C3A57545   0.992   1.179   6.823
 4435POPC   C4A57546   1.116   1.285   7.189
 4435POPC   C1B57547   1.615   1.385   6.205
 4435POPC   C2B57548   1.484   1.666   6.506
 4435POPC   C3B57549   1.437   1.538   6.896
 4435POPC   C4B57550   1.726   1.543   7.221
 4436POPC   NC357551   4.107  42.698   5.438
 4436POPC   PO457552   4.517  42.209   5.188
 4436POPC   GL157553   4.549  42.404   5.635
 4436POPC   GL257554   4.525  42.067   5.755
 4436POPC   C1A57555   4.394  42.556   6.081
 4436POPC   D2A57556   4.108  42.530   6.433
 4436POPC   C3A57557   4.264  42.421   6.826
 4436POPC   C4A57558   4.139  42.142   7.149
 4436POPC   C1B57559   4.787  42.257   6.120
 4436POPC   C2B57560   4.733  42.340   6.586
 4436POPC   C3B57561   4.721  42.200   7.056
 4436POPC   C4B57562   4.547  42.229   7.498
 4437POPC   NC357563  37.787  34.155   5.229
 4437POPC   PO457564  37.521  34.759   5.480
 4437POPC   GL157565  37.692  34.557   5.880
 4437POPC   GL257566  37.672  34.199   5.842
 4437POPC   C1A57567  37.784  34.429   6.330
 4437POPC   D2A57568  37.647  34.475   6.755
 4437POPC   C3A57569  37.773  34.713   7.122
 4437POPC   C4A57570  37.482  34.689   7.509
 4437POPC   C1B57571  38.086  34.085   6.073
 4437POPC   C2B57572  38.203  34.122   6.523
 4437POPC   C3B57573  38.055  34.260   6.930
 4437POPC   C4B57574  37.805  34.239   7.307
 4438POPC   NC357575  15.393  43.325   5.324
 4438POPC   PO457576  14.735  43.040   5.380
 4438POPC   GL157577  14.941  43.030   5.734
 4438POPC   GL257578  15.264  42.939   5.635
 4438POPC   C1A57579  14.838  42.980   6.158
 4438POPC   D2A57580  15.019  43.157   6.504
 4438POPC   C3A57581  14.928  42.951   6.852
 4438POPC   C4A57582  15.071  43.111   7.199
 4438POPC   C1B57583  15.327  43.105   6.060
 4438POPC   C2B57584  15.539  43.011   6.446
 4438POPC   C3B57585  15.426  42.806   6.827
 4438POPC   C4B57586  15.577  42.889   7.232
 4439POPC   NC357587  20.304   2.386   5.444
 4439POPC   PO457588  20.434   1.714   5.543
 4439POPC   GL157589  20.626   1.853   5.869
 4439POPC   GL257590  20.398   2.147   5.880
 4439POPC   C1A57591  20.689   1.849   6.310
 4439POPC   D2A57592  20.333   2.024   6.492
 4439POPC   C3A57593  20.417   2.186   6.878
 4439POPC   C4A57594  20.548   2.008   7.239
 4439POPC   C1B57595  20.689   2.311   6.116
 4439POPC   C2B57596  20.784   2.304   6.533
 4439POPC   C3B57597  20.854   2.452   6.926
 4439POPC   C4B57598  20.663   2.516   7.309
 4440POPC   NC357599  31.522  26.813   5.224
 4440POPC   PO457600  31.098  26.590   5.649
 4440POPC   GL157601  31.265  26.618   6.017
 4440POPC   GL257602  31.526  26.895   5.984
 4440POPC   C1A57603  31.551  26.440   6.301
 4440POPC   D2A57604  31.781  26.678   6.549
 4440POPC   C3A57605  31.491  26.746   6.871
 4440POPC   C4A57606  31.580  26.784   7.282
 4440POPC   C1B57607  31.371  26.961   6.386
 4440POPC   C2B57608  31.094  27.030   6.711
 4440POPC   C3B57609  31.044  27.194   7.091
 4440POPC   C4B57610  31.246  27.117   7.487
 4441POPC   NC357611  27.764  28.577   5.487
 4441POPC   PO457612  28.044  27.840   5.464
 4441POPC   GL157613  27.902  28.178   5.828
 4441POPC   GL257614  27.545  28.337   5.905
 4441POPC   C1A57615  27.919  28.446   6.232
 4441POPC   D2A57616  27.729  28.584   6.622
 4441POPC   C3A57617  27.823  28.483   7.078
 4441POPC   C4A57618  27.532  28.289   7.396
 4441POPC   C1B57619  27.443  28.779   6.111
 4441POPC   C2B57620  27.431  28.998   6.549
 4441POPC   C3B57621  27.377  28.787   6.977
 4441POPC   C4B57622  27.312  28.757   7.441
 4442POPC   NC357623  22.942  17.727   5.102
 4442POPC   PO457624  22.757  17.340   5.639
 4442POPC   GL157625  23.002  17.530   5.916
 4442POPC   GL257626  23.049  17.872   5.888
 4442POPC   C1A57627  23.140  17.519   6.323
 4442POPC   D2A57628  22.917  17.560   6.697
 4442POPC   C3A57629  23.147  17.628   7.045
 4442POPC   C4A57630  23.161  17.357   7.391
 4442POPC   C1B57631  22.766  17.881   6.227
 4442POPC   C2B57632  22.392  17.827   6.485
 4442POPC   C3B57633  22.478  17.725   6.907
 4442POPC   C4B57634  22.711  17.710   7.289
 4443POPC   NC357635  25.166  23.997   5.449
 4443POPC   PO457636  25.705  24.044   5.813
 4443POPC   GL157637  25.369  23.814   5.966
 4443POPC   GL257638  25.020  23.824   5.909
 4443POPC   C1A57639  25.298  23.826   6.387
 4443POPC   D2A57640  25.583  23.932   6.724
 4443POPC   C3A57641  25.354  23.781   7.061
 4443POPC   C4A57642  24.934  23.743   7.190
 4443POPC   C1B57643  24.917  23.477   6.160
 4443POPC   C2B57644  24.986  23.452   6.593
 4443POPC   C3B57645  25.059  23.281   6.980
 4443POPC   C4B57646  24.887  23.172   7.348
 4444POPC   NC357647  32.641  21.459   5.428
 4444POPC   PO457648  31.998  21.051   5.210
 4444POPC   GL157649  32.133  21.260   5.614
 4444POPC   GL257650  32.412  21.043   5.715
 4444POPC   C1A57651  32.251  21.444   6.046
 4444POPC   D2A57652  32.408  21.416   6.494
 4444POPC   C3A57653  32.211  21.436   6.936
 4444POPC   C4A57654  32.418  21.453   7.337
 4444POPC   C1B57655  32.641  21.098   6.111
 4444POPC   C2B57656  32.797  21.075   6.528
 4444POPC   C3B57657  32.662  21.199   6.937
 4444POPC   C4B57658  32.524  20.957   7.322
 4445POPC   NC357659   6.956  11.509   5.500
 4445POPC   PO457660   6.433  11.101   5.491
 4445POPC   GL157661   6.637  11.063   5.884
 4445POPC   GL257662   6.958  11.165   5.897
 4445POPC   C1A57663   6.655  11.060   6.329
 4445POPC   D2A57664   6.373  11.145   6.652
 4445POPC   C3A57665   6.548  11.392   6.960
 4445POPC   C4A57666   6.317  11.389   7.356
 4445POPC   C1B57667   7.023  11.523   6.174
 4445POPC   C2B57668   6.949  11.727   6.587
 4445POPC   C3B57669   7.030  11.596   7.004
 4445POPC   C4B57670   7.073  11.141   7.082
 4446POPC   NC357671  20.302  44.221   5.350
 4446POPC   PO457672  20.553  43.525   5.144
 4446POPC   GL157673  20.477  43.801   5.569
 4446POPC   GL257674  20.620  43.596   5.813
 4446POPC   C1A57675  20.664  44.064   5.973
 4446POPC   D2A57676  20.702  43.844   6.394
 4446POPC   C3A57677  20.628  44.016   6.809
 4446POPC   C4A57678  20.555  43.808   7.181
 4446POPC   C1B57679  20.402  43.442   6.209
 4446POPC   C2B57680  20.429  43.418   6.621
 4446POPC   C3B57681  20.200  43.475   6.973
 4446POPC   C4B57682  20.348  43.378   7.322
 4447POPC   NC357683  10.124  39.597   5.548
 4447POPC   PO457684  10.682  39.812   5.224
 4447POPC   GL157685  10.581  39.922   5.682
 4447POPC   GL257686  10.881  40.007   5.890
 4447POPC   C1A57687  10.301  40.151   6.017
 4447POPC   D2A57688  10.220  40.303   6.456
 4447POPC   C3A57689  10.379  40.055   6.814
 4447POPC   C4A57690  10.256  39.731   7.144
 4447POPC   C1B57691  10.712  40.023   6.324
 4447POPC   C2B57692  10.915  40.018   6.738
 4447POPC   C3B57693  10.737  39.883   7.148
 4447POPC   C4B57694  10.702  40.156   7.532
 4448POPC   NC357695  36.332  17.042   5.457
 4448POPC   PO457696  35.791  16.956   5.743
 4448POPC   GL157697  36.179  16.925   5.940
 4448POPC   GL257698  36.369  16.633   5.740
 4448POPC   C1A57699  36.148  16.824   6.388
 4448POPC   D2A57700  35.818  16.635   6.635
 4448POPC   C3A57701  35.894  16.818   7.042
 4448POPC   C4A57702  36.148  17.152   7.236
 4448POPC   C1B57703  36.497  16.574   6.129
 4448POPC   C2B57704  36.348  16.336   6.464
 4448POPC   C3B57705  36.179  16.368   6.881
 4448POPC   C4B57706  36.413  16.652   7.159
 4449POPC   NC357707   9.149  31.411   5.425
 4449POPC   PO457708   8.773  30.869   5.667
 4449POPC   GL157709   8.815  31.336   5.828
 4449POPC   GL257710   9.122  31.584   5.894
 4449POPC   C1A57711   8.741  31.586   6.220
 4449POPC   D2A57712   8.938  31.568   6.630
 4449POPC   C3A57713   8.691  31.495   6.983
 4449POPC   C4A57714   8.919  31.206   7.219
 4449POPC   C1B57715   9.189  31.820   6.274
 4449POPC   C2B57716   9.407  31.799   6.701
 4449POPC   C3B57717   9.251  31.598   7.089
 4449POPC   C4B57718   9.063  31.821   7.427
 4450POPC   NC357719  19.767  42.542   5.269
 4450POPC   PO457720  20.147  42.100   5.606
 4450POPC   GL157721  19.880  42.256   5.906
 4450POPC   GL257722  19.841  41.928   6.014
 4450POPC   C1A57723  19.731  42.535   6.227
 4450POPC   D2A57724  19.837  42.718   6.588
 4450POPC   C3A57725  19.708  42.480   6.956
 4450POPC   C4A57726  19.731  42.623   7.374
 4450POPC   C1B57727  19.721  42.060   6.423
 4450POPC   C2B57728  19.685  41.871   6.812
 4450POPC   C3B57729  20.004  41.982   6.972
 4450POPC   C4B57730  19.989  42.173   7.305
 4451POPC   NC357731   8.747  38.765   5.465
 4451POPC   PO457732   9.014  39.319   5.180
 4451POPC   GL157733   9.075  39.195   5.603
 4451POPC   GL257734   9.254  39.504   5.631
 4451POPC   C1A57735   8.915  39.249   6.045
 4451POPC   D2A57736   8.910  39.095   6.473
 4451POPC   C3A57737   8.855  39.263   6.860
 4451POPC   C4A57738   9.050  39.100   7.207
 4451POPC   C1B57739   9.278  39.654   6.053
 4451POPC   C2B57740   9.076  39.590   6.444
 4451POPC   C3B57741   9.326  39.417   6.766
 4451POPC   C4B57742   9.368  39.563   7.169
 4452POPC   NC357743   1.671   6.382   5.658
 4452POPC   PO457744   1.805   5.697   5.330
 4452POPC   GL157745   2.028   5.975   5.673
 4452POPC   GL257746   1.764   5.916   5.859
 4452POPC   C1A57747   2.241   6.050   6.119
 4452POPC   D2A57748   2.375   5.745   6.428
 4452POPC   C3A57749   2.262   5.718   6.865
 4452POPC   C4A57750   2.321   6.034   7.158
 4452POPC   C1B57751   1.769   6.075   6.269
 4452POPC   C2B57752   2.030   6.103   6.627
 4452POPC   C3B57753   1.833   6.005   7.038
 4452POPC   C4B57754   1.974   5.797   7.439
 4453POPC   NC357755  34.004  30.325   5.589
 4453POPC   PO457756  33.667  30.914   5.331
 4453POPC   GL157757  33.647  30.675   5.713
 4453POPC   GL257758  33.940  30.804   5.849
 4453POPC   C1A57759  33.585  30.575   6.169
 4453POPC   D2A57760  33.874  30.669   6.505
 4453POPC   C3A57761  33.816  30.592   6.946
 4453POPC   C4A57762  33.837  30.674   7.385
 4453POPC   C1B57763  34.169  30.966   6.229
 4453POPC   C2B57764  34.222  30.999   6.704
 4453POPC   C3B57765  34.226  30.941   7.165
 4453POPC   C4B57766  34.173  31.010   7.645
 4454POPC   NC357767  20.948   7.000   5.378
 4454POPC   PO457768  20.609   7.629   5.278
 4454POPC   GL157769  20.635   7.337   5.638
 4454POPC   GL257770  20.303   7.231   5.700
 4454POPC   C1A57771  20.688   7.467   6.078
 4454POPC   D2A57772  20.867   7.536   6.494
 4454POPC   C3A57773  20.972   7.181   6.759
 4454POPC   C4A57774  20.886   7.157   7.222
 4454POPC   C1B57775  20.376   7.053   6.100
 4454POPC   C2B57776  20.492   7.185   6.502
 4454POPC   C3B57777  20.518   7.372   6.898
 4454POPC   C4B57778  20.397   7.188   7.304
 4455POPC   NC357779  36.147  34.307   5.455
 4455POPC   PO457780  36.188  35.012   5.507
 4455POPC   GL157781  36.098  34.979   5.905
 4455POPC   GL257782  36.306  34.678   5.936
 4455POPC   C1A57783  35.982  34.920   6.341
 4455POPC   D2A57784  35.926  34.545   6.602
 4455POPC   C3A57785  36.246  34.569   6.911
 4455POPC   C4A57786  36.092  34.739   7.261
 4455POPC   C1B57787  36.393  34.511   6.353
 4455POPC   C2B57788  36.280  34.139   6.602
 4455POPC   C3B57789  36.055  34.094   6.971
 4455POPC   C4B57790  35.907  34.272   7.352
 4456POPC   NC357791  39.870  24.167   5.563
 4456POPC   PO457792  40.250  24.690   5.326
 4456POPC   GL157793  40.226  24.532   5.772
 4456POPC   GL257794  40.353  24.198   5.862
 4456POPC   C1A57795  39.922  24.507   6.127
 4456POPC   D2A57796  39.687  24.654   6.463
 4456POPC   C3A57797  39.888  24.697   6.883
 4456POPC   C4A57798  39.931  24.419   7.228
 4456POPC   C1B57799  40.355  24.309   6.318
 4456POPC   C2B57800  40.336  24.485   6.741
 4456POPC   C3B57801  40.405  24.619   7.175
 4456POPC   C4B57802  40.362  24.400   7.580
 4457POPC   NC357803  35.013  39.004   5.474
 4457POPC   PO457804  35.529  39.289   5.278
 4457POPC   GL157805  35.591  39.252   5.735
 4457POPC   GL257806  35.371  38.964   5.857
 4457POPC   C1A57807  35.435  39.458   6.134
 4457POPC   D2A57808  35.095  39.386   6.449
 4457POPC   C3A57809  35.136  39.189   6.879
 4457POPC   C4A57810  35.418  39.296   7.201
 4457POPC   C1B57811  35.639  38.990   6.221
 4457POPC   C2B57812  35.594  39.119   6.647
 4457POPC   C3B57813  35.717  38.908   7.025
 4457POPC   C4B57814  35.525  38.772   7.359
 4458POPC   NC357815  22.353  15.618   5.490
 4458POPC   PO457816  22.365  14.975   5.404
 4458POPC   GL157817  22.352  14.933   5.863
 4458POPC   GL257818  22.248  15.257   5.858
 4458POPC   C1A57819  22.145  14.997   6.293
 4458POPC   D2A57820  22.082  15.183   6.707
 4458POPC   C3A57821  22.000  14.920   7.077
 4458POPC   C4A57822  22.349  14.737   7.244
 4458POPC   C1B57823  22.515  15.518   6.124
 4458POPC   C2B57824  22.441  15.655   6.531
 4458POPC   C3B57825  22.360  15.563   6.930
 4458POPC   C4B57826  22.029  15.411   7.171
 4459POPC   NC357827  44.292  15.293   5.535
 4459POPC   PO457828  44.960  15.022   5.453
 4459POPC   GL157829  44.865  15.012   5.866
 4459POPC   GL257830  44.661  15.270   5.911
 4459POPC   C1A57831  44.967  15.103   6.296
 4459POPC   D2A57832  44.731  15.262   6.643
 4459POPC   C3A57833  44.822  15.123   7.066
 4459POPC   C4A57834  44.849  14.803   7.406
 4459POPC   C1B57835  44.356  15.433   6.208
 4459POPC   C2B57836  44.265  15.494   6.638
 4459POPC   C3B57837  44.325  15.230   6.984
 4459POPC   C4B57838  44.451  15.195   7.410
 4460POPC   NC357839  14.705  34.535   5.523
 4460POPC   PO457840  14.031  34.460   5.546
 4460POPC   GL157841  14.198  34.685   5.879
 4460POPC   GL257842  14.561  34.789   5.951
 4460POPC   C1A57843  14.037  34.670   6.281
 4460POPC   D2A57844  14.026  34.467   6.664
 4460POPC   C3A57845  14.224  34.770   6.938
 4460POPC   C4A57846  14.584  34.862   7.218
 4460POPC   C1B57847  14.503  34.408   6.182
 4460POPC   C2B57848  14.701  34.280   6.525
 4460POPC   C3B57849  14.706  34.555   6.836
 4460POPC   C4B57850  14.474  34.380   7.161
 4461POPC   NC357851   7.232  14.041   5.066
 4461POPC   PO457852   7.516  13.486   5.328
 4461POPC   GL157853   7.500  13.706   5.751
 4461POPC   GL257854   7.811  13.777   5.859
 4461POPC   C1A57855   7.366  13.660   6.195
 4461POPC   D2A57856   7.250  13.821   6.606
 4461POPC   C3A57857   7.125  13.507   6.924
 4461POPC   C4A57858   7.108  13.188   7.249
 4461POPC   C1B57859   7.866  13.550   6.185
 4461POPC   C2B57860   7.757  13.645   6.586
 4461POPC   C3B57861   7.640  13.436   6.940
 4461POPC   C4B57862   7.462  13.571   7.320
 4462POPC   NC357863  38.677  35.518   5.389
 4462POPC   PO457864  38.236  34.988   5.300
 4462POPC   GL157865  38.508  35.114   5.682
 4462POPC   GL257866  38.399  35.447   5.801
 4462POPC   C1A57867  38.461  35.060   6.158
 4462POPC   D2A57868  38.269  35.199   6.558
 4462POPC   C3A57869  38.502  35.245   6.953
 4462POPC   C4A57870  38.778  35.006   7.230
 4462POPC   C1B57871  38.577  35.577   6.179
 4462POPC   C2B57872  38.652  35.810   6.563
 4462POPC   C3B57873  38.863  35.757   6.928
 4462POPC   C4B57874  38.831  35.520   7.269
 4463POPC   NC357875   0.050  44.523   5.481
 4463POPC   PO457876  44.369  44.836   5.475
 4463POPC   GL157877  44.555  44.531   5.726
 4463POPC   GL257878  44.275  44.512   5.926
 4463POPC   C1A57879  44.778  44.414   6.117
 4463POPC   D2A57880  44.834  44.235   6.554
 4463POPC   C3A57881  44.991  44.561   6.831
 4463POPC   C4A57882  44.909  44.713   7.252
 4463POPC   C1B57883  44.430  44.885   6.134
 4463POPC   C2B57884  44.630  44.872   6.525
 4463POPC   C3B57885  44.519  44.784   6.924
 4463POPC   C4B57886  44.465   0.026   7.262
 4464POPC   NC357887  17.945   5.697   5.534
 4464POPC   PO457888  18.403   6.125   5.363
 4464POPC   GL157889  18.289   6.016   5.785
 4464POPC   GL257890  18.401   5.697   5.774
 4464POPC   C1A57891  18.149   5.845   6.198
 4464POPC   D2A57892  18.394   5.842   6.575
 4464POPC   C3A57893  18.220   5.723   6.981
 4464POPC   C4A57894  17.840   5.922   7.132
 4464POPC   C1B57895  18.683   5.893   6.112
 4464POPC   C2B57896  18.805   6.188   6.453
 4464POPC   C3B57897  18.684   6.132   6.870
 4464POPC   C4B57898  18.539   6.007   7.273
 4465POPC   NC357899   5.410  33.381   5.590
 4465POPC   PO457900   5.002  32.918   5.426
 4465POPC   GL157901   4.892  32.956   5.862
 4465POPC   GL257902   4.978  33.312   5.871
 4465POPC   C1A57903   4.955  32.994   6.335
 4465POPC   D2A57904   4.820  33.033   6.774
 4465POPC   C3A57905   5.021  33.021   7.171
 4465POPC   C4A57906   5.440  32.842   7.217
 4465POPC   C1B57907   5.159  33.458   6.246
 4465POPC   C2B57908   4.841  33.510   6.544
 4465POPC   C3B57909   5.051  33.483   6.913
 4465POPC   C4B57910   5.140  33.576   7.300
 4466POPC   NC357911  11.018   8.934   5.476
 4466POPC   PO457912  11.593   9.231   5.461
 4466POPC   GL157913  11.536   8.966   5.812
 4466POPC   GL257914  11.213   9.064   5.916
 4466POPC   C1A57915  11.479   8.756   6.190
 4466POPC   D2A57916  11.360   9.045   6.510
 4466POPC   C3A57917  11.495   8.921   6.911
 4466POPC   C4A57918  11.471   9.040   7.324
 4466POPC   C1B57919  10.907   8.824   6.165
 4466POPC   C2B57920  10.837   8.923   6.600
 4466POPC   C3B57921  11.022   9.168   6.922
 4466POPC   C4B57922  11.016   8.869   7.242
 4467POPC   NC357923  11.671  12.077   5.474
 4467POPC   PO457924  11.070  11.619   5.550
 4467POPC   GL157925  11.244  11.819   5.883
 4467POPC   GL257926  11.332  12.156   5.847
 4467POPC   C1A57927  11.107  11.982   6.269
 4467POPC   D2A57928  11.321  11.953   6.619
 4467POPC   C3A57929  11.063  12.031   6.950
 4467POPC   C4A57930  11.277  12.054   7.308
 4467POPC   C1B57931  11.446  12.398   6.197
 4467POPC   C2B57932  11.617  12.361   6.572
 4467POPC   C3B57933  11.432  12.406   6.935
 4467POPC   C4B57934  11.560  12.465   7.313
 4468POPC   NC357935   9.387   5.314   5.374
 4468POPC   PO457936   9.898   4.828   5.314
 4468POPC   GL157937   9.770   5.031   5.671
 4468POPC   GL257938  10.102   4.981   5.788
 4468POPC   C1A57939   9.690   5.064   6.147
 4468POPC   D2A57940   9.586   4.891   6.576
 4468POPC   C3A57941   9.651   5.134   6.963
 4468POPC   C4A57942   9.302   5.150   7.242
 4468POPC   C1B57943  10.198   5.064   6.190
 4468POPC   C2B57944  10.066   5.053   6.587
 4468POPC   C3B57945  10.123   5.362   6.918
 4468POPC   C4B57946  10.092   5.159   7.297
 4469POPC   NC357947   6.755  31.016   5.227
 4469POPC   PO457948   6.871  30.368   5.451
 4469POPC   GL157949   6.783  30.749   5.691
 4469POPC   GL257950   6.495  30.731   5.909
 4469POPC   C1A57951   6.894  30.951   6.112
 4469POPC   D2A57952   6.949  30.789   6.548
 4469POPC   C3A57953   6.563  30.740   6.809
 4469POPC   C4A57954   6.503  30.954   7.198
 4469POPC   C1B57955   6.581  30.489   6.300
 4469POPC   C2B57956   6.800  30.303   6.656
 4469POPC   C3B57957   6.725  30.329   7.098
 4469POPC   C4B57958   6.371  30.472   7.316
 4470POPC   NC357959   6.940  17.271   5.579
 4470POPC   PO457960   6.464  17.791   5.386
 4470POPC   GL157961   6.551  17.568   5.748
 4470POPC   GL257962   6.846  17.711   5.842
 4470POPC   C1A57963   6.560  17.360   6.168
 4470POPC   D2A57964   6.748  17.342   6.578
 4470POPC   C3A57965   6.498  17.228   6.907
 4470POPC   C4A57966   6.667  17.353   7.304
 4470POPC   C1B57967   6.490  17.866   6.139
 4470POPC   C2B57968   6.395  17.728   6.558
 4470POPC   C3B57969   6.587  17.727   6.956
 4470POPC   C4B57970   6.653  17.921   7.355
 4471POPC   NC357971  41.325  22.347   5.311
 4471POPC   PO457972  41.778  21.968   5.495
 4471POPC   GL157973  41.392  22.041   5.766
 4471POPC   GL257974  41.288  22.410   5.803
 4471POPC   C1A57975  41.407  21.879   6.188
 4471POPC   D2A57976  41.705  22.013   6.495
 4471POPC   C3A57977  41.515  22.028   6.904
 4471POPC   C4A57978  41.612  22.074   7.327
 4471POPC   C1B57979  41.569  22.395   6.156
 4471POPC   C2B57980  41.579  22.487   6.612
 4471POPC   C3B57981  41.628  22.506   7.066
 4471POPC   C4B57982  41.297  22.478   7.433
 4472POPC   NC357983   2.085  20.883   5.300
 4472POPC   PO457984   1.780  21.445   5.183
 4472POPC   GL157985   1.920  21.262   5.614
 4472POPC   GL257986   2.077  21.506   5.836
 4472POPC   C1A57987   1.948  21.055   6.052
 4472POPC   D2A57988   2.134  21.119   6.472
 4472POPC   C3A57989   1.970  21.379   6.793
 4472POPC   C4A57990   2.038  21.120   7.122
 4472POPC   C1B57991   2.054  21.653   6.282
 4472POPC   C2B57992   2.271  21.781   6.662
 4472POPC   C3B57993   2.218  21.715   7.097
 4472POPC   C4B57994   2.019  21.914   7.382
 4473POPC   NC357995  13.999  13.397   4.928
 4473POPC   PO457996  13.471  13.592   5.385
 4473POPC   GL157997  13.633  13.590   5.780
 4473POPC   GL257998  13.770  13.282   5.735
 4473POPC   C1A57999  13.496  13.717   6.200
 4473POPC   D2A58000  13.553  13.954   6.581
 4473POPC   C3A58001  13.506  13.702   6.964
 4473POPC   C4A58002  13.646  13.490   7.352
 4473POPC   C1B58003  13.883  13.361   6.156
 4473POPC   C2B58004  13.740  13.148   6.505
 4473POPC   C3B58005  13.657  13.190   6.940
 4473POPC   C4B58006  13.417  13.044   7.298
 4474POPC   NC358007  27.842  11.884   5.623
 4474POPC   PO458008  27.484  12.301   5.172
 4474POPC   GL158009  27.442  12.248   5.677
 4474POPC   GL258010  27.682  12.455   5.918
 4474POPC   C1A58011  27.485  12.020   6.128
 4474POPC   D2A58012  27.563  12.188   6.553
 4474POPC   C3A58013  27.521  11.944   6.927
 4474POPC   C4A58014  27.542  12.179   7.295
 4474POPC   C1B58015  27.960  12.191   6.229
 4474POPC   C2B58016  28.016  11.973   6.648
 4474POPC   C3B58017  28.023  12.068   7.108
 4474POPC   C4B58018  27.994  11.936   7.540
 4475POPC   NC358019   2.998   1.378   5.507
 4475POPC   PO458020   2.508   0.959   5.575
 4475POPC   GL158021   2.648   1.270   5.856
 4475POPC   GL258022   2.903   1.031   5.882
 4475POPC   C1A58023   2.952   1.356   6.252
 4475POPC   D2A58024   2.788   1.398   6.664
 4475POPC   C3A58025   2.386   1.363   6.888
 4475POPC   C4A58026   2.573   1.383   7.311
 4475POPC   C1B58027   2.629   0.982   6.267
 4475POPC   C2B58028   2.460   0.886   6.656
 4475POPC   C3B58029   2.726   1.003   6.995
 4475POPC   C4B58030   2.886   0.977   7.370
 4476POPC   NC358031   4.695  41.149   5.470
 4476POPC   PO458032   5.359  41.054   5.359
 4476POPC   GL158033   5.306  40.792   5.729
 4476POPC   GL258034   4.996  40.898   5.808
 4476POPC   C1A58035   5.170  40.564   6.143
 4476POPC   D2A58036   5.420  40.373   6.449
 4476POPC   C3A58037   5.241  40.442   6.824
 4476POPC   C4A58038   5.395  40.651   7.149
 4476POPC   C1B58039   4.912  40.985   6.265
 4476POPC   C2B58040   5.057  40.907   6.656
 4476POPC   C3B58041   4.959  40.927   7.071
 4476POPC   C4B58042   4.878  41.183   7.432
 4477POPC   NC358043  39.071   8.123   5.523
 4477POPC   PO458044  39.032   7.531   5.207
 4477POPC   GL158045  39.117   7.631   5.659
 4477POPC   GL258046  39.431   7.479   5.748
 4477POPC   C1A58047  39.079   7.668   6.152
 4477POPC   D2A58048  38.868   7.445   6.521
 4477POPC   C3A58049  38.971   7.540   6.959
 4477POPC   C4A58050  39.210   7.200   7.185
 4477POPC   C1B58051  39.528   7.371   6.191
 4477POPC   C2B58052  39.398   7.522   6.615
 4477POPC   C3B58053  39.494   7.600   7.044
 4477POPC   C4B58054  39.899   7.558   7.269
 4478POPC   NC358055  29.013  31.904   5.429
 4478POPC   PO458056  28.890  32.579   5.393
 4478POPC   GL158057  29.149  32.375   5.737
 4478POPC   GL258058  29.188  32.026   5.897
 4478POPC   C1A58059  29.328  32.464   6.159
 4478POPC   D2A58060  29.136  32.360   6.564
 4478POPC   C3A58061  29.251  32.374   7.016
 4478POPC   C4A58062  28.847  32.441   7.239
 4478POPC   C1B58063  29.400  31.970   6.310
 4478POPC   C2B58064  29.362  31.934   6.761
 4478POPC   C3B58065  28.965  31.959   6.994
 4478POPC   C4B58066  29.033  32.017   7.425
 4479POPC   NC358067  32.584  30.889   5.405
 4479POPC   PO458068  31.925  30.594   5.271
 4479POPC   GL158069  32.096  30.803   5.631
 4479POPC   GL258070  32.354  30.567   5.750
 4479POPC   C1A58071  32.110  30.894   6.089
 4479POPC   D2A58072  32.343  30.790   6.485
 4479POPC   C3A58073  32.189  30.950   6.892
 4479POPC   C4A58074  32.046  30.719   7.271
 4479POPC   C1B58075  32.520  30.392   6.160
 4479POPC   C2B58076  32.587  30.219   6.599
 4479POPC   C3B58077  32.391  30.460   6.918
 4479POPC   C4B58078  32.531  30.487   7.316
 4480POPC   NC358079  43.505   7.643   5.550
 4480POPC   PO458080  43.919   7.146   5.349
 4480POPC   GL158081  44.024   7.223   5.750
 4480POPC   GL258082  43.672   7.232   5.815
 4480POPC   C1A58083  44.090   7.452   6.146
 4480POPC   D2A58084  43.892   7.577   6.537
 4480POPC   C3A58085  44.055   7.382   6.907
 4480POPC   C4A58086  44.083   7.607   7.279
 4480POPC   C1B58087  43.522   7.040   6.167
 4480POPC   C2B58088  43.692   7.115   6.585
 4480POPC   C3B58089  43.587   6.978   6.985
 4480POPC   C4B58090  43.719   6.848   7.381
 4481POPC   NC358091  39.546  39.224   5.495
 4481POPC   PO458092  38.892  39.001   5.490
 4481POPC   GL158093  39.214  39.013   5.828
 4481POPC   GL258094  39.498  38.788   5.864
 4481POPC   C1A58095  39.394  39.286   6.160
 4481POPC   D2A58096  39.153  39.483   6.502
 4481POPC   C3A58097  39.334  39.417   6.917
 4481POPC   C4A58098  39.205  39.642   7.255
 4481POPC   C1B58099  39.244  38.790   6.293
 4481POPC   C2B58100  39.082  39.003   6.690
 4481POPC   C3B58101  39.158  38.871   7.136
 4481POPC   C4B58102  39.427  39.007   7.478
 4482POPC   NC358103  13.881  35.729   5.012
 4482POPC   PO458104  13.594  36.283   5.398
 4482POPC   GL158105  13.676  36.306   5.865
 4482POPC   GL258106  13.392  36.489   5.890
 4482POPC   C1A58107  13.705  35.988   6.224
 4482POPC   D2A58108  13.906  35.801   6.562
 4482POPC   C3A58109  13.844  35.994   6.944
 4482POPC   C4A58110  13.696  35.908   7.308
 4482POPC   C1B58111  13.343  36.335   6.284
 4482POPC   C2B58112  13.438  36.118   6.661
 4482POPC   C3B58113  13.347  36.205   7.096
 4482POPC   C4B58114  13.184  35.900   7.365
 4483POPC   NC358115  42.901  12.755   5.366
 4483POPC   PO458116  43.380  13.234   5.470
 4483POPC   GL158117  43.313  12.834   5.761
 4483POPC   GL258118  42.960  12.717   5.862
 4483POPC   C1A58119  43.319  12.620   6.199
 4483POPC   D2A58120  43.140  12.616   6.627
 4483POPC   C3A58121  43.166  12.940   6.972
 4483POPC   C4A58122  43.310  12.929   7.433
 4483POPC   C1B58123  42.929  13.032   6.181
 4483POPC   C2B58124  42.741  13.008   6.583
 4483POPC   C3B58125  42.590  13.093   6.981
 4483POPC   C4B58126  42.813  12.940   7.335
 4484POPC   NC358127   4.036   7.524   5.412
 4484POPC   PO458128   4.785   7.471   5.565
 4484POPC   GL158129   4.415   7.328   5.822
 4484POPC   GL258130   4.194   7.618   5.867
 4484POPC   C1A58131   4.249   7.312   6.277
 4484POPC   D2A58132   4.185   7.191   6.735
 4484POPC   C3A58133   4.488   7.396   7.057
 4484POPC   C4A58134   4.481   7.301   7.507
 4484POPC   C1B58135   3.941   7.735   6.196
 4484POPC   C2B58136   3.887   7.610   6.589
 4484POPC   C3B58137   4.060   7.645   6.953
 4484POPC   C4B58138   4.244   7.806   7.318
 4485POPC   NC358139  30.646  26.525   5.611
 4485POPC   PO458140  30.285  27.142   5.478
 4485POPC   GL158141  30.491  27.000   5.841
 4485POPC   GL258142  30.859  27.007   5.838
 4485POPC   C1A58143  30.393  26.731   6.180
 4485POPC   D2A58144  30.570  26.588   6.555
 4485POPC   C3A58145  30.614  26.885   6.852
 4485POPC   C4A58146  30.645  26.950   7.265
 4485POPC   C1B58147  30.881  26.886   6.251
 4485POPC   C2B58148  31.075  26.553   6.488
 4485POPC   C3B58149  30.969  26.511   6.897
 4485POPC   C4B58150  31.078  26.664   7.280
 4486POPC   NC358151  10.434  16.901   5.392
 4486POPC   PO458152  10.196  16.316   5.502
 4486POPC   GL158153  10.372  16.411   5.861
 4486POPC   GL258154  10.683  16.579   5.787
 4486POPC   C1A58155  10.484  16.474   6.275
 4486POPC   D2A58156  10.855  16.612   6.467
 4486POPC   C3A58157  10.790  16.663   6.908
 4486POPC   C4A58158  10.550  16.553   7.262
 4486POPC   C1B58159  10.557  16.930   6.084
 4486POPC   C2B58160  10.430  16.955   6.542
 4486POPC   C3B58161  10.360  17.032   6.996
 4486POPC   C4B58162  10.698  17.051   7.292
 4487POPC   NC358163  17.821  31.588   5.393
 4487POPC   PO458164  17.188  31.490   5.480
 4487POPC   GL158165  17.500  31.510   5.793
 4487POPC   GL258166  17.713  31.226   5.717
 4487POPC   C1A58167  17.562  31.794   6.153
 4487POPC   D2A58168  17.718  32.003   6.550
 4487POPC   C3A58169  17.649  31.787   6.936
 4487POPC   C4A58170  17.537  31.552   7.313
 4487POPC   C1B58171  17.641  31.147   6.141
 4487POPC   C2B58172  17.455  31.161   6.541
 4487POPC   C3B58173  17.669  31.263   6.918
 4487POPC   C4B58174  17.819  31.150   7.339
 4488POPC   NC358175  12.903  41.788   5.523
 4488POPC   PO458176  12.827  42.502   5.354
 4488POPC   GL158177  12.930  42.599   5.787
 4488POPC   GL258178  13.106  42.284   5.825
 4488POPC   C1A58179  12.910  42.710   6.253
 4488POPC   D2A58180  13.050  42.761   6.700
 4488POPC   C3A58181  12.744  42.751   7.050
 4488POPC   C4A58182  12.794  42.646   7.498
 4488POPC   C1B58183  13.103  42.218   6.277
 4488POPC   C2B58184  12.817  42.283   6.623
 4488POPC   C3B58185  12.789  42.238   7.056
 4488POPC   C4B58186  13.069  42.246   7.346
 4489POPC   NC358187  34.853   5.620   5.482
 4489POPC   PO458188  34.450   6.127   5.387
 4489POPC   GL158189  34.459   5.834   5.760
 4489POPC   GL258190  34.785   5.931   5.872
 4489POPC   C1A58191  34.481   5.717   6.235
 4489POPC   D2A58192  34.460   5.536   6.682
 4489POPC   C3A58193  34.385   5.814   7.059
 4489POPC   C4A58194  34.030   5.788   7.346
 4489POPC   C1B58195  34.815   6.093   6.255
 4489POPC   C2B58196  34.630   6.020   6.649
 4489POPC   C3B58197  34.825   6.134   7.037
 4489POPC   C4B58198  34.766   5.960   7.451
 4490POPC   NC358199  25.629  32.294   5.255
 4490POPC   PO458200  26.248  32.664   5.276
 4490POPC   GL158201  26.033  32.340   5.578
 4490POPC   GL258202  26.159  32.005   5.718
 4490POPC   C1A58203  25.745  32.242   5.957
 4490POPC   D2A58204  25.749  32.306   6.439
 4490POPC   C3A58205  25.725  32.031   6.836
 4490POPC   C4A58206  25.742  32.268   7.212
 4490POPC   C1B58207  26.163  32.076   6.211
 4490POPC   C2B58208  26.202  32.112   6.693
 4490POPC   C3B58209  26.209  32.035   7.177
 4490POPC   C4B58210  26.429  31.920   7.632
 4491POPC   NC358211  37.758  20.789   5.368
 4491POPC   PO458212  37.776  20.115   5.535
 4491POPC   GL158213  37.619  20.434   5.792
 4491POPC   GL258214  37.920  20.653   5.831
 4491POPC   C1A58215  37.659  20.539   6.257
 4491POPC   D2A58216  37.439  20.710   6.608
 4491POPC   C3A58217  37.576  20.439   6.950
 4491POPC   C4A58218  37.882  20.531   7.255
 4491POPC   C1B58219  37.958  20.944   6.171
 4491POPC   C2B58220  38.036  20.862   6.618
 4491POPC   C3B58221  37.744  20.932   6.954
 4491POPC   C4B58222  37.753  21.137   7.339
 4492POPC   NC358223   4.146  37.373   5.518
 4492POPC   PO458224   4.246  38.009   5.346
 4492POPC   GL158225   4.374  37.790   5.738
 4492POPC   GL258226   4.077  37.639   5.932
 4492POPC   C1A58227   4.489  37.776   6.182
 4492POPC   D2A58228   4.298  37.766   6.562
 4492POPC   C3A58229   4.554  37.631   6.870
 4492POPC   C4A58230   4.723  37.932   7.116
 4492POPC   C1B58231   4.214  37.315   6.218
 4492POPC   C2B58232   4.226  37.265   6.646
 4492POPC   C3B58233   4.050  37.541   6.972
 4492POPC   C4B58234   4.334  37.634   7.329
 4493POPC   NC358235   9.219  36.443   5.456
 4493POPC   PO458236   8.694  36.028   5.357
 4493POPC   GL158237   8.770  36.241   5.709
 4493POPC   GL258238   8.728  35.928   5.857
 4493POPC   C1A58239   8.728  36.379   6.137
 4493POPC   D2A58240   8.986  36.331   6.513
 4493POPC   C3A58241   8.852  36.238   6.917
 4493POPC   C4A58242   9.093  36.330   7.301
 4493POPC   C1B58243   9.052  35.948   6.162
 4493POPC   C2B58244   9.086  35.785   6.567
 4493POPC   C3B58245   9.184  35.834   6.983
 4493POPC   C4B58246   8.866  35.882   7.284
 4494POPC   NC358247  29.894  10.032   5.400
 4494POPC   PO458248  30.203  10.542   5.548
 4494POPC   GL158249  29.945  10.292   5.839
 4494POPC   GL258250  30.270  10.238   5.973
 4494POPC   C1A58251  29.647  10.364   6.208
 4494POPC   D2A58252  29.758  10.390   6.640
 4494POPC   C3A58253  29.583  10.611   7.002
 4494POPC   C4A58254  29.566  10.470   7.443
 4494POPC   C1B58255  30.113  10.570   6.235
 4494POPC   C2B58256  30.043  10.813   6.565
 4494POPC   C3B58257  30.076  10.677   6.963
 4494POPC   C4B58258  29.908  10.824   7.339
 4495POPC   NC358259   8.819   7.712   5.443
 4495POPC   PO458260   9.273   7.205   5.369
 4495POPC   GL158261   9.210   7.499   5.703
 4495POPC   GL258262   8.893   7.284   5.771
 4495POPC   C1A58263   9.236   7.683   6.138
 4495POPC   D2A58264   8.974   7.539   6.492
 4495POPC   C3A58265   9.044   7.634   6.938
 4495POPC   C4A58266   8.781   7.684   7.307
 4495POPC   C1B58267   8.708   7.174   6.182
 4495POPC   C2B58268   8.910   7.042   6.588
 4495POPC   C3B58269   8.873   7.156   6.996
 4495POPC   C4B58270   9.002   7.244   7.382
 4496POPC   NC358271  10.698  13.850   5.383
 4496POPC   PO458272  10.865  13.214   5.213
 4496POPC   GL158273  10.546  13.404   5.601
 4496POPC   GL258274  10.697  13.612   5.827
 4496POPC   C1A58275  10.410  13.319   6.092
 4496POPC   D2A58276  10.278  13.210   6.548
 4496POPC   C3A58277  10.321  13.476   6.950
 4496POPC   C4A58278  10.384  13.665   7.377
 4496POPC   C1B58279  10.819  13.635   6.252
 4496POPC   C2B58280  10.735  13.492   6.657
 4496POPC   C3B58281  10.824  13.642   7.068
 4496POPC   C4B58282  10.818  14.047   7.279
 4497POPC   NC358283  44.100  31.660   5.473
 4497POPC   PO458284  43.584  31.258   5.467
 4497POPC   GL158285  43.902  31.306   5.834
 4497POPC   GL258286  44.279  31.236   5.843
 4497POPC   C1A58287  43.849  31.501   6.266
 4497POPC   D2A58288  43.789  31.806   6.638
 4497POPC   C3A58289  43.749  31.605   7.055
 4497POPC   C4A58290  43.630  31.618   7.499
 4497POPC   C1B58291  44.171  31.104   6.279
 4497POPC   C2B58292  43.996  31.164   6.718
 4497POPC   C3B58293  44.045  31.207   7.184
 4497POPC   C4B58294  44.205  31.182   7.663
 4498POPC   NC358295   8.787  13.915   5.466
 4498POPC   PO458296   9.345  13.477   5.265
 4498POPC   GL158297   9.150  13.566   5.719
 4498POPC   GL258298   8.784  13.553   5.836
 4498POPC   C1A58299   9.110  13.642   6.196
 4498POPC   D2A58300   8.846  13.703   6.550
 4498POPC   C3A58301   9.015  13.669   6.954
 4498POPC   C4A58302   9.156  13.444   7.317
 4498POPC   C1B58303   8.695  13.961   6.111
 4498POPC   C2B58304   8.545  14.115   6.522
 4498POPC   C3B58305   8.541  13.901   6.966
 4498POPC   C4B58306   8.609  13.475   7.198
 4499POPC   NC358307  12.225  17.017   5.455
 4499POPC   PO458308  11.714  16.609   5.444
 4499POPC   GL158309  11.970  16.782   5.815
 4499POPC   GL258310  12.280  16.555   5.802
 4499POPC   C1A58311  12.169  16.815   6.256
 4499POPC   D2A58312  12.007  16.890   6.704
 4499POPC   C3A58313  12.165  16.787   7.153
 4499POPC   C4A58314  12.486  16.914   7.497
 4499POPC   C1B58315  11.943  16.373   6.100
 4499POPC   C2B58316  12.002  16.399   6.527
 4499POPC   C3B58317  11.815  16.470   6.936
 4499POPC   C4B58318  11.733  16.517   7.384
 4500POPC   NC358319  24.378   1.306   5.481
 4500POPC   PO458320  24.987   1.183   5.568
 4500POPC   GL158321  24.703   1.366   5.921
 4500POPC   GL258322  24.349   1.500   5.940
 4500POPC   C1A58323  24.555   1.333   6.376
 4500POPC   D2A58324  24.337   1.335   6.766
 4500POPC   C3A58325  24.575   1.314   7.143
 4500POPC   C4A58326  24.493   1.372   7.597
 4500POPC   C1B58327  24.172   1.098   6.140
 4500POPC   C2B58328  24.324   0.884   6.523
 4500POPC   C3B58329  24.341   0.854   6.981
 4500POPC   C4B58330  24.517   0.880   7.411
 4501POPC   NC358331  10.817  10.560   5.219
 4501POPC   PO458332  10.356  10.178   5.471
 4501POPC   GL158333  10.500  10.526   5.753
 4501POPC   GL258334  10.826  10.743   5.694
 4501POPC   C1A58335  10.352  10.653   6.169
 4501POPC   D2A58336  10.542  10.729   6.571
 4501POPC   C3A58337  10.593  10.356   6.841
 4501POPC   C4A58338  10.463  10.142   7.230
 4501POPC   C1B58339  10.862  10.616   6.124
 4501POPC   C2B58340  11.018  10.566   6.520
 4501POPC   C3B58341  10.950  10.733   6.910
 4501POPC   C4B58342  10.749  10.593   7.280
 4502POPC   NC358343  39.762  29.552   5.611
 4502POPC   PO458344  39.944  30.209   5.778
 4502POPC   GL158345  39.998  29.831   5.975
 4502POPC   GL258346  40.256  29.736   5.733
 4502POPC   C1A58347  39.844  29.579   6.331
 4502POPC   D2A58348  39.949  29.511   6.769
 4502POPC   C3A58349  39.954  29.864   7.091
 4502POPC   C4A58350  39.749  29.883   7.489
 4502POPC   C1B58351  40.473  29.709   6.097
 4502POPC   C2B58352  40.316  29.765   6.472
 4502POPC   C3B58353  40.407  29.755   6.881
 4502POPC   C4B58354  40.526  29.834   7.258
 4503POPC   NC358355  35.501  42.745   5.474
 4503POPC   PO458356  35.183  43.363   5.562
 4503POPC   GL158357  35.490  43.309   5.872
 4503POPC   GL258358  35.598  42.982   5.900
 4503POPC   C1A58359  35.383  43.234   6.310
 4503POPC   D2A58360  35.208  43.469   6.642
 4503POPC   C3A58361  35.244  43.298   7.052
 4503POPC   C4A58362  35.619  43.083   7.164
 4503POPC   C1B58363  35.192  42.811   6.068
 4503POPC   C2B58364  34.997  42.886   6.462
 4503POPC   C3B58365  35.120  42.781   6.893
 4503POPC   C4B58366  35.027  42.764   7.332
 4504POPC   NC358367   0.963  39.871   5.471
 4504POPC   PO458368   1.619  39.822   5.678
 4504POPC   GL158369   1.245  39.894   5.884
 4504POPC   GL258370   1.124  40.242   5.821
 4504POPC   C1A58371   1.087  39.986   6.266
 4504POPC   D2A58372   1.027  40.147   6.649
 4504POPC   C3A58373   1.217  39.913   6.959
 4504POPC   C4A58374   1.030  39.765   7.296
 4504POPC   C1B58375   1.477  40.307   6.139
 4504POPC   C2B58376   1.552  40.240   6.594
 4504POPC   C3B58377   1.534  40.314   7.045
 4504POPC   C4B58378   1.371  40.519   7.427
 4505POPC   NC358379  36.903  39.479   5.685
 4505POPC   PO458380  37.048  38.927   5.173
 4505POPC   GL158381  36.952  38.899   5.674
 4505POPC   GL258382  36.717  39.079   5.952
 4505POPC   C1A58383  37.187  38.992   6.059
 4505POPC   D2A58384  37.242  39.072   6.518
 4505POPC   C3A58385  36.934  39.023   6.816
 4505POPC   C4A58386  37.124  39.025   7.198
 4505POPC   C1B58387  36.947  39.398   6.285
 4505POPC   C2B58388  37.087  39.548   6.670
 4505POPC   C3B58389  36.953  39.492   7.055
 4505POPC   C4B58390  36.744  39.587   7.375
 4506POPC   NC358391   2.178   1.946   5.564
 4506POPC   PO458392   1.632   1.827   5.200
 4506POPC   GL158393   1.725   2.167   5.642
 4506POPC   GL258394   1.945   2.074   5.990
 4506POPC   C1A58395   1.564   2.377   6.023
 4506POPC   D2A58396   1.555   2.170   6.432
 4506POPC   C3A58397   1.683   2.334   6.846
 4506POPC   C4A58398   1.863   2.137   7.223
 4506POPC   C1B58399   1.964   1.780   6.354
 4506POPC   C2B58400   1.935   1.802   6.820
 4506POPC   C3B58401   2.200   1.736   7.208
 4506POPC   C4B58402   2.269   1.584   7.663
 4507POPC   NC358403  19.771  10.427   5.310
 4507POPC   PO458404  20.295  10.786   5.477
 4507POPC   GL158405  20.046  10.523   5.841
 4507POPC   GL258406  19.669  10.438   5.829
 4507POPC   C1A58407  19.923  10.289   6.241
 4507POPC   D2A58408  19.853  10.188   6.691
 4507POPC   C3A58409  20.115  10.434   6.982
 4507POPC   C4A58410  20.131  10.870   7.113
 4507POPC   C1B58411  19.317  10.540   6.143
 4507POPC   C2B58412  19.184  10.665   6.560
 4507POPC   C3B58413  19.374  10.351   6.803
 4507POPC   C4B58414  19.637  10.350   7.158
 4508POPC   NC358415  28.745   8.006   5.226
 4508POPC   PO458416  28.413   8.289   5.791
 4508POPC   GL158417  28.426   7.995   6.023
 4508POPC   GL258418  28.305   7.787   5.734
 4508POPC   C1A58419  28.522   8.190   6.435
 4508POPC   D2A58420  28.270   8.189   6.794
 4508POPC   C3A58421  28.510   8.071   7.126
 4508POPC   C4A58422  28.754   8.218   7.462
 4508POPC   C1B58423  27.995   7.675   6.020
 4508POPC   C2B58424  28.121   7.824   6.416
 4508POPC   C3B58425  27.967   7.765   6.821
 4508POPC   C4B58426  28.045   7.909   7.209
 4509POPC   NC358427  26.467  14.733   5.396
 4509POPC   PO458428  26.016  14.142   5.346
 4509POPC   GL158429  26.051  14.318   5.743
 4509POPC   GL258430  26.366  14.373   5.733
 4509POPC   C1A58431  26.070  14.553   6.130
 4509POPC   D2A58432  26.019  14.804   6.509
 4509POPC   C3A58433  26.122  14.545   6.820
 4509POPC   C4A58434  26.061  14.612   7.227
 4509POPC   C1B58435  26.395  14.107   6.077
 4509POPC   C2B58436  26.386  14.110   6.512
 4509POPC   C3B58437  26.567  14.043   6.890
 4509POPC   C4B58438  26.312  14.158   7.184
 4510POPC   NC358439  10.503  25.497   5.498
 4510POPC   PO458440  10.081  24.978   5.320
 4510POPC   GL158441  10.364  25.011   5.688
 4510POPC   GL258442  10.226  25.284   5.876
 4510POPC   C1A58443  10.631  25.042   6.096
 4510POPC   D2A58444  10.505  25.216   6.517
 4510POPC   C3A58445  10.638  25.122   6.946
 4510POPC   C4A58446  10.294  25.016   7.267
 4510POPC   C1B58447  10.491  25.564   6.132
 4510POPC   C2B58448  10.656  25.700   6.523
 4510POPC   C3B58449  10.453  25.607   6.888
 4510POPC   C4B58450  10.684  25.558   7.226
 4511POPC   NC358451   3.501  36.091   5.377
 4511POPC   PO458452   4.016  35.860   5.725
 4511POPC   GL158453   3.700  36.241   5.845
 4511POPC   GL258454   3.351  36.297   5.824
 4511POPC   C1A58455   3.561  36.480   6.234
 4511POPC   D2A58456   3.429  36.297   6.660
 4511POPC   C3A58457   3.748  36.128   6.951
 4511POPC   C4A58458   3.687  36.033   7.425
 4511POPC   C1B58459   3.425  35.976   6.200
 4511POPC   C2B58460   3.462  35.771   6.638
 4511POPC   C3B58461   3.326  35.868   7.076
 4511POPC   C4B58462   3.313  36.318   7.193
 4512POPC   NC358463  43.439  19.855   5.443
 4512POPC   PO458464  42.804  20.021   5.615
 4512POPC   GL158465  43.134  19.963   5.845
 4512POPC   GL258466  43.189  19.664   5.860
 4512POPC   C1A58467  43.165  19.983   6.277
 4512POPC   D2A58468  42.885  19.880   6.610
 4512POPC   C3A58469  43.079  19.867   6.990
 4512POPC   C4A58470  43.272  20.212   7.181
 4512POPC   C1B58471  42.975  19.521   6.187
 4512POPC   C2B58472  43.185  19.490   6.561
 4512POPC   C3B58473  43.307  19.398   6.976
 4512POPC   C4B58474  43.242  19.558   7.403
 4513POPC   NC358475  43.711  26.261   5.404
 4513POPC   PO458476  43.588  25.590   5.419
 4513POPC   GL158477  43.717  25.863   5.758
 4513POPC   GL258478  43.452  26.014   5.793
 4513POPC   C1A58479  43.886  26.149   6.101
 4513POPC   D2A58480  44.143  26.010   6.445
 4513POPC   C3A58481  44.036  26.001   6.872
 4513POPC   C4A58482  44.103  26.206   7.234
 4513POPC   C1B58483  43.480  25.886   6.225
 4513POPC   C2B58484  43.597  26.073   6.629
 4513POPC   C3B58485  43.548  26.070   7.086
 4513POPC   C4B58486  43.499  25.794   7.417
 4514POPC   NC358487  31.290   1.870   5.363
 4514POPC   PO458488  30.631   1.638   5.494
 4514POPC   GL158489  30.859   1.806   5.798
 4514POPC   GL258490  30.920   2.120   5.653
 4514POPC   C1A58491  30.698   1.842   6.206
 4514POPC   D2A58492  30.605   1.967   6.616
 4514POPC   C3A58493  30.609   1.697   6.951
 4514POPC   C4A58494  30.709   1.995   7.216
 4514POPC   C1B58495  31.038   2.218   6.071
 4514POPC   C2B58496  31.160   1.961   6.410
 4514POPC   C3B58497  31.072   1.905   6.825
 4514POPC   C4B58498  31.188   1.888   7.240
 4515POPC   NC358499  30.282  23.513   5.539
 4515POPC   PO458500  29.680  23.784   5.511
 4515POPC   GL158501  29.754  23.864   5.935
 4515POPC   GL258502  30.112  23.740   5.968
 4515POPC   C1A58503  29.969  24.103   6.284
 4515POPC   D2A58504  29.990  23.730   6.512
 4515POPC   C3A58505  29.807  23.637   6.883
 4515POPC   C4A58506  29.976  23.836   7.245
 4515POPC   C1B58507  30.143  23.355   6.222
 4515POPC   C2B58508  30.310  23.364   6.660
 4515POPC   C3B58509  30.169  23.371   7.108
 4515POPC   C4B58510  30.065  23.318   7.566
 4516POPC   NC358511   8.401  22.016   5.290
 4516POPC   PO458512   8.006  22.535   5.504
 4516POPC   GL158513   8.177  22.182   5.799
 4516POPC   GL258514   8.553  22.075   5.775
 4516POPC   C1A58515   8.065  22.132   6.270
 4516POPC   D2A58516   8.181  21.971   6.709
 4516POPC   C3A58517   8.356  22.249   7.089
 4516POPC   C4A58518   8.412  22.385   7.565
 4516POPC   C1B58519   8.507  21.902   6.188
 4516POPC   C2B58520   8.663  21.804   6.595
 4516POPC   C3B58521   8.525  21.774   7.035
 4516POPC   C4B58522   8.635  21.942   7.423
 4517POPC   NC358523  36.763  13.421   5.314
 4517POPC   PO458524  37.349  13.883   5.424
 4517POPC   GL158525  37.067  13.801   5.803
 4517POPC   GL258526  36.731  13.632   5.774
 4517POPC   C1A58527  37.180  13.748   6.249
 4517POPC   D2A58528  37.273  13.414   6.508
 4517POPC   C3A58529  36.980  13.485   6.835
 4517POPC   C4A58530  36.891  13.315   7.234
 4517POPC   C1B58531  36.666  13.847   6.161
 4517POPC   C2B58532  36.852  14.074   6.477
 4517POPC   C3B58533  36.744  14.093   6.872
 4517POPC   C4B58534  36.752  13.838   7.215
 4518POPC   NC358535   9.816  42.908   5.552
 4518POPC   PO458536   9.442  43.486   5.355
 4518POPC   GL158537   9.701  43.402   5.688
 4518POPC   GL258538   9.451  43.165   5.825
 4518POPC   C1A58539   9.860  43.277   6.114
 4518POPC   D2A58540   9.624  43.203   6.505
 4518POPC   C3A58541   9.877  43.312   6.868
 4518POPC   C4A58542   9.967  43.088   7.261
 4518POPC   C1B58543   9.461  42.795   6.129
 4518POPC   C2B58544   9.608  42.681   6.565
 4518POPC   C3B58545   9.570  42.877   6.958
 4518POPC   C4B58546   9.309  42.861   7.323
 4519POPC   NC358547  15.281  12.484   5.365
 4519POPC   PO458548  14.913  13.130   5.473
 4519POPC   GL158549  15.094  12.828   5.718
 4519POPC   GL258550  15.418  12.854   5.681
 4519POPC   C1A58551  15.177  12.863   6.139
 4519POPC   D2A58552  15.279  13.072   6.504
 4519POPC   C3A58553  15.088  12.856   6.852
 4519POPC   C4A58554  15.261  12.803   7.257
 4519POPC   C1B58555  15.486  12.485   5.983
 4519POPC   C2B58556  15.410  12.525   6.450
 4519POPC   C3B58557  15.346  12.390   6.893
 4519POPC   C4B58558  15.579  12.417   7.270
 4520POPC   NC358559   2.828  31.755   5.386
 4520POPC   PO458560   2.534  32.283   5.444
 4520POPC   GL158561   2.777  32.106   5.792
 4520POPC   GL258562   3.156  32.059   5.692
 4520POPC   C1A58563   2.747  32.213   6.248
 4520POPC   D2A58564   2.947  32.205   6.677
 4520POPC   C3A58565   2.682  32.297   7.050
 4520POPC   C4A58566   2.503  32.018   7.353
 4520POPC   C1B58567   3.241  32.065   6.153
 4520POPC   C2B58568   3.198  31.764   6.534
 4520POPC   C3B58569   3.279  31.913   6.971
 4520POPC   C4B58570   3.190  32.328   7.151
 4521POPC   NC358571  41.395  11.385   5.532
 4521POPC   PO458572  41.973  11.127   5.367
 4521POPC   GL158573  41.817  11.213   5.803
 4521POPC   GL258574  41.706  11.578   5.904
 4521POPC   C1A58575  41.617  11.162   6.231
 4521POPC   D2A58576  41.549  11.400   6.635
 4521POPC   C3A58577  41.440  11.136   6.969
 4521POPC   C4A58578  41.566  10.971   7.365
 4521POPC   C1B58579  41.292  11.552   6.172
 4521POPC   C2B58580  41.108  11.661   6.593
 4521POPC   C3B58581  41.278  11.630   7.068
 4521POPC   C4B58582  41.287  11.730   7.552
 4522POPC   NC358583  37.845  16.713   5.260
 4522POPC   PO458584  38.565  16.697   5.422
 4522POPC   GL158585  38.517  16.598   5.854
 4522POPC   GL258586  38.845  16.662   5.886
 4522POPC   C1A58587  38.561  16.788   6.308
 4522POPC   D2A58588  38.558  16.769   6.771
 4522POPC   C3A58589  38.289  17.051   7.013
 4522POPC   C4A58590  38.074  16.925   7.401
 4522POPC   C1B58591  38.832  16.361   6.213
 4522POPC   C2B58592  38.854  16.368   6.648
 4522POPC   C3B58593  38.788  16.409   7.072
 4522POPC   C4B58594  38.693  16.760   7.291
 4523POPC   NC358595  12.552  23.125   5.292
 4523POPC   PO458596  13.203  23.147   5.441
 4523POPC   GL158597  12.907  23.058   5.752
 4523POPC   GL258598  12.708  22.743   5.663
 4523POPC   C1A58599  12.934  23.009   6.198
 4523POPC   D2A58600  12.811  23.094   6.646
 4523POPC   C3A58601  12.988  22.829   6.995
 4523POPC   C4A58602  13.042  22.722   7.459
 4523POPC   C1B58603  12.493  22.751   6.063
 4523POPC   C2B58604  12.616  22.674   6.467
 4523POPC   C3B58605  12.477  22.697   6.880
 4523POPC   C4B58606  12.608  22.574   7.288
 4524POPC   NC358607  12.621   1.266   5.580
 4524POPC   PO458608  13.104   0.924   5.520
 4524POPC   GL158609  12.922   0.997   5.910
 4524POPC   GL258610  12.978   1.361   5.939
 4524POPC   C1A58611  12.832   1.032   6.356
 4524POPC   D2A58612  12.954   1.279   6.670
 4524POPC   C3A58613  13.009   1.109   7.073
 4524POPC   C4A58614  12.811   1.167   7.472
 4524POPC   C1B58615  12.775   1.585   6.265
 4524POPC   C2B58616  12.696   1.715   6.680
 4524POPC   C3B58617  13.041   1.642   7.018
 4524POPC   C4B58618  13.321   1.435   7.308
 4525POPC   NC358619   7.520  29.281   5.173
 4525POPC   PO458620   6.983  29.457   5.591
 4525POPC   GL158621   7.390  29.320   5.712
 4525POPC   GL258622   7.715  29.521   5.735
 4525POPC   C1A58623   7.362  29.238   6.146
 4525POPC   D2A58624   7.200  29.353   6.546
 4525POPC   C3A58625   7.395  29.138   6.885
 4525POPC   C4A58626   7.476  28.747   7.119
 4525POPC   C1B58627   7.862  29.241   6.083
 4525POPC   C2B58628   7.693  29.021   6.476
 4525POPC   C3B58629   7.883  28.957   6.882
 4525POPC   C4B58630   7.773  29.140   7.247
 4526POPC   NC358631   1.772  11.612   5.412
 4526POPC   PO458632   2.160  11.148   5.093
 4526POPC   GL158633   1.985  11.053   5.589
 4526POPC   GL258634   2.210  10.867   5.802
 4526POPC   C1A58635   1.857  11.042   6.109
 4526POPC   D2A58636   2.089  11.142   6.545
 4526POPC   C3A58637   1.876  11.188   6.997
 4526POPC   C4A58638   1.650  11.532   7.233
 4526POPC   C1B58639   2.296  10.723   6.215
 4526POPC   C2B58640   2.472  10.773   6.618
 4526POPC   C3B58641   2.345  10.986   7.011
 4526POPC   C4B58642   2.184  10.940   7.434
 4527POPC   NC358643   8.386  44.265   5.587
 4527POPC   PO458644   7.852  44.588   5.361
 4527POPC   GL158645   7.886  44.735   5.768
 4527POPC   GL258646   8.251  44.728   5.763
 4527POPC   C1A58647   7.990  44.677   6.209
 4527POPC   D2A58648   8.048  44.892   6.585
 4527POPC   C3A58649   8.108  44.613   6.920
 4527POPC   C4A58650   7.946  44.769   7.286
 4527POPC   C1B58651   8.525  44.621   6.116
 4527POPC   C2B58652   8.508  44.673   6.549
 4527POPC   C3B58653   8.639  44.664   6.981
 4527POPC   C4B58654   8.439  44.718   7.413
 4528POPC   NC358655  38.531   1.681   5.442
 4528POPC   PO458656  38.300   2.425   5.384
 4528POPC   GL158657  38.385   2.147   5.750
 4528POPC   GL258658  38.207   1.834   5.812
 4528POPC   C1A58659  38.593   1.972   6.130
 4528POPC   D2A58660  38.447   1.877   6.575
 4528POPC   C3A58661  38.744   1.927   6.961
 4528POPC   C4A58662  38.833   2.299   7.224
 4528POPC   C1B58663  38.025   1.957   6.194
 4528POPC   C2B58664  37.878   1.875   6.601
 4528POPC   C3B58665  38.106   1.765   6.941
 4528POPC   C4B58666  38.294   2.139   7.111
 4529POPC   NC358667  19.300  30.990   5.381
 4529POPC   PO458668  19.263  30.307   5.319
 4529POPC   GL158669  19.199  30.600   5.689
 4529POPC   GL258670  19.475  30.852   5.834
 4529POPC   C1A58671  19.023  30.678   6.099
 4529POPC   D2A58672  19.090  30.829   6.528
 4529POPC   C3A58673  18.879  30.675   6.876
 4529POPC   C4A58674  18.825  30.989   7.164
 4529POPC   C1B58675  19.569  30.502   6.099
 4529POPC   C2B58676  19.653  30.364   6.530
 4529POPC   C3B58677  19.401  30.537   6.855
 4529POPC   C4B58678  19.264  30.576   7.235
 4530POPC   NC358679  36.901  10.808   5.211
 4530POPC   PO458680  36.920  10.227   5.629
 4530POPC   GL158681  36.824  10.390   5.941
 4530POPC   GL258682  36.494  10.324   5.952
 4530POPC   C1A58683  37.021  10.372   6.325
 4530POPC   D2A58684  37.324  10.437   6.634
 4530POPC   C3A58685  37.211  10.487   7.016
 4530POPC   C4A58686  37.366  10.258   7.320
 4530POPC   C1B58687  36.608  10.681   6.290
 4530POPC   C2B58688  36.800  10.679   6.736
 4530POPC   C3B58689  36.711  10.518   7.172
 4530POPC   C4B58690  36.615  10.523   7.657
 4531POPC   NC358691  43.445   3.763   5.573
 4531POPC   PO458692  43.924   3.336   5.412
 4531POPC   GL158693  44.057   3.498   5.773
 4531POPC   GL258694  44.306   3.298   5.816
 4531POPC   C1A58695  43.906   3.647   6.152
 4531POPC   D2A58696  43.714   3.419   6.503
 4531POPC   C3A58697  43.680   3.688   6.849
 4531POPC   C4A58698  43.779   3.674   7.260
 4531POPC   C1B58699  44.418   3.468   6.209
 4531POPC   C2B58700  44.218   3.575   6.558
 4531POPC   C3B58701  44.192   3.614   6.961
 4531POPC   C4B58702  44.157   3.364   7.325
 4532POPC   NC358703  33.437  33.136   5.347
 4532POPC   PO458704  32.822  32.813   5.439
 4532POPC   GL158705  32.767  32.908   5.855
 4532POPC   GL258706  32.949  33.232   5.829
 4532POPC   C1A58707  32.994  32.895   6.261
 4532POPC   D2A58708  33.412  32.853   6.453
 4532POPC   C3A58709  33.338  32.706   6.846
 4532POPC   C4A58710  33.094  32.892   7.157
 4532POPC   C1B58711  33.090  33.413   6.213
 4532POPC   C2B58712  33.117  33.278   6.652
 4532POPC   C3B58713  32.834  33.283   6.995
 4532POPC   C4B58714  32.813  33.378   7.451
 4533POPC   NC358715   5.748  28.890   5.335
 4533POPC   PO458716   6.368  28.668   5.612
 4533POPC   GL158717   6.002  28.957   5.770
 4533POPC   GL258718   5.763  29.295   5.678
 4533POPC   C1A58719   5.984  29.196   6.136
 4533POPC   D2A58720   6.202  29.228   6.513
 4533POPC   C3A58721   5.973  29.190   6.889
 4533POPC   C4A58722   6.054  28.886   7.211
 4533POPC   C1B58723   5.499  29.390   6.048
 4533POPC   C2B58724   5.440  29.220   6.460
 4533POPC   C3B58725   5.452  29.407   6.861
 4533POPC   C4B58726   5.571  29.300   7.245
 4534POPC   NC358727   1.554  26.109   5.442
 4534POPC   PO458728   0.972  25.743   5.227
 4534POPC   GL158729   1.113  25.941   5.656
 4534POPC   GL258730   1.179  26.330   5.749
 4534POPC   C1A58731   1.037  25.878   6.091
 4534POPC   D2A58732   1.339  25.838   6.404
 4534POPC   C3A58733   1.414  26.113   6.764
 4534POPC   C4A58734   1.458  25.930   7.190
 4534POPC   C1B58735   1.226  26.325   6.244
 4534POPC   C2B58736   0.996  26.388   6.648
 4534POPC   C3B58737   0.979  26.163   7.036
 4534POPC   C4B58738   1.141  26.286   7.433
 4535POPC   NC358739  20.598   4.389   5.248
 4535POPC   PO458740  21.139   4.092   5.487
 4535POPC   GL158741  20.806   4.434   5.718
 4535POPC   GL258742  20.418   4.375   5.780
 4535POPC   C1A58743  20.679   4.580   6.161
 4535POPC   D2A58744  20.776   4.354   6.516
 4535POPC   C3A58745  20.560   4.429   6.862
 4535POPC   C4A58746  20.733   4.180   7.164
 4535POPC   C1B58747  20.354   4.181   6.254
 4535POPC   C2B58748  20.248   4.033   6.706
 4535POPC   C3B58749  20.190   4.174   7.161
 4535POPC   C4B58750  20.408   4.142   7.567
 4536POPC   NC358751  21.670  23.138   5.505
 4536POPC   PO458752  21.158  22.874   5.385
 4536POPC   GL158753  21.366  22.786   5.815
 4536POPC   GL258754  21.701  22.671   5.942
 4536POPC   C1A58755  21.351  22.770   6.299
 4536POPC   D2A58756  21.536  22.851   6.713
 4536POPC   C3A58757  21.245  22.942   7.048
 4536POPC   C4A58758  20.911  22.667   7.230
 4536POPC   C1B58759  21.795  23.020   6.284
 4536POPC   C2B58760  21.864  23.292   6.656
 4536POPC   C3B58761  21.774  23.124   7.082
 4536POPC   C4B58762  21.497  23.233   7.451
 4537POPC   NC358763  33.596  44.522   5.388
 4537POPC   PO458764  34.112  44.848   5.182
 4537POPC   GL158765  34.102  44.788   5.674
 4537POPC   GL258766  33.724  44.829   5.796
 4537POPC   C1A58767  34.108  44.751   6.136
 4537POPC   D2A58768  33.806  44.581   6.471
 4537POPC   C3A58769  33.918  44.613   6.910
 4537POPC   C4A58770  33.884  44.931   7.226
 4537POPC   C1B58771  33.473  44.533   6.078
 4537POPC   C2B58772  33.290  44.381   6.511
 4537POPC   C3B58773  33.487  44.324   6.925
 4537POPC   C4B58774  33.665  44.473   7.336
 4538POPC   NC358775   2.937  36.565   5.261
 4538POPC   PO458776   2.922  35.897   5.241
 4538POPC   GL158777   2.909  36.182   5.598
 4538POPC   GL258778   2.592  36.245   5.694
 4538POPC   C1A58779   2.938  36.150   6.081
 4538POPC   D2A58780   2.997  35.926   6.482
 4538POPC   C3A58781   2.943  36.123   6.885
 4538POPC   C4A58782   2.842  35.896   7.261
 4538POPC   C1B58783   2.459  36.288   6.155
 4538POPC   C2B58784   2.555  36.163   6.556
 4538POPC   C3B58785   2.478  35.923   6.915
 4538POPC   C4B58786   2.452  36.227   7.253
 4539POPC   NC358787  38.723  25.952   5.468
 4539POPC   PO458788  38.351  26.524   5.193
 4539POPC   GL158789  38.364  26.287   5.582
 4539POPC   GL258790  38.703  26.371   5.744
 4539POPC   C1A58791  38.299  26.092   6.020
 4539POPC   D2A58792  38.224  25.892   6.443
 4539POPC   C3A58793  38.341  26.100   6.864
 4539POPC   C4A58794  38.116  26.163   7.256
 4539POPC   C1B58795  38.795  26.124   6.140
 4539POPC   C2B58796  38.748  25.992   6.564
 4539POPC   C3B58797  38.874  26.142   6.969
 4539POPC   C4B58798  38.635  26.045   7.303
 4540POPC   NC358799   7.902  18.955   5.682
 4540POPC   PO458800   7.335  19.242   5.361
 4540POPC   GL158801   7.422  19.081   5.768
 4540POPC   GL258802   7.253  18.771   5.813
 4540POPC   C1A58803   7.588  19.236   6.200
 4540POPC   D2A58804   7.798  19.385   6.599
 4540POPC   C3A58805   7.533  19.346   6.946
 4540POPC   C4A58806   7.509  19.368   7.392
 4540POPC   C1B58807   7.369  18.762   6.251
 4540POPC   C2B58808   7.579  18.907   6.636
 4540POPC   C3B58809   7.690  18.780   7.061
 4540POPC   C4B58810   7.417  18.657   7.390
 4541POPC   NC358811  16.238  21.144   5.456
 4541POPC   PO458812  15.592  21.302   5.491
 4541POPC   GL158813  15.792  21.374   5.911
 4541POPC   GL258814  16.040  21.610   5.936
 4541POPC   C1A58815  15.649  21.316   6.347
 4541POPC   D2A58816  15.570  21.027   6.713
 4541POPC   C3A58817  15.661  21.255   7.081
 4541POPC   C4A58818  15.894  21.254   7.467
 4541POPC   C1B58819  16.116  21.542   6.360
 4541POPC   C2B58820  15.944  21.536   6.764
 4541POPC   C3B58821  16.133  21.574   7.153
 4541POPC   C4B58822  16.359  21.578   7.532
 4542POPC   NC358823   5.640  34.688   5.222
 4542POPC   PO458824   6.099  34.139   5.319
 4542POPC   GL158825   5.837  34.370   5.697
 4542POPC   GL258826   5.672  34.724   5.772
 4542POPC   C1A58827   5.835  34.282   6.166
 4542POPC   D2A58828   5.838  34.510   6.577
 4542POPC   C3A58829   6.113  34.336   6.891
 4542POPC   C4A58830   5.824  34.165   7.186
 4542POPC   C1B58831   5.875  34.867   6.205
 4542POPC   C2B58832   5.935  35.025   6.667
 4542POPC   C3B58833   6.131  34.845   7.056
 4542POPC   C4B58834   6.214  34.956   7.501
 4543POPC   NC358835   7.216   0.497   5.026
 4543POPC   PO458836   7.665   0.219   5.463
 4543POPC   GL158837   7.399   0.260   5.788
 4543POPC   GL258838   7.324   0.593   5.646
 4543POPC   C1A58839   7.528   0.214   6.218
 4543POPC   D2A58840   7.580   0.098   6.628
 4543POPC   C3A58841   7.408   0.383   6.888
 4543POPC   C4A58842   7.430   0.508   7.307
 4543POPC   C1B58843   7.603   0.676   6.023
 4543POPC   C2B58844   7.677   0.654   6.506
 4543POPC   C3B58845   7.659   0.823   6.943
 4543POPC   C4B58846   7.601   0.974   7.377
 4544POPC   NC358847  29.052  22.510   5.371
 4544POPC   PO458848  29.222  21.881   5.341
 4544POPC   GL158849  29.348  22.178   5.674
 4544POPC   GL258850  29.012  22.247   5.813
 4544POPC   C1A58851  29.408  22.160   6.141
 4544POPC   D2A58852  29.302  22.304   6.576
 4544POPC   C3A58853  29.187  22.005   6.908
 4544POPC   C4A58854  29.405  22.044   7.304
 4544POPC   C1B58855  28.934  22.426   6.217
 4544POPC   C2B58856  28.761  22.340   6.605
 4544POPC   C3B58857  28.893  22.400   7.013
 4544POPC   C4B58858  28.649  22.425   7.372
 4545POPC   NC358859   4.325  24.369   5.302
 4545POPC   PO458860   4.068  23.776   5.260
 4545POPC   GL158861   4.006  23.606   5.720
 4545POPC   GL258862   3.761  23.872   5.829
 4545POPC   C1A58863   4.279  23.650   6.154
 4545POPC   D2A58864   4.536  23.618   6.589
 4545POPC   C3A58865   4.399  23.609   7.069
 4545POPC   C4A58866   4.102  23.858   7.363
 4545POPC   C1B58867   3.775  23.641   6.214
 4545POPC   C2B58868   4.023  23.537   6.594
 4545POPC   C3B58869   3.880  23.572   7.006
 4545POPC   C4B58870   3.578  23.815   7.219
 4546POPC   NC358871   1.871   8.305   5.299
 4546POPC   PO458872   1.786   7.752   5.692
 4546POPC   GL158873   2.063   8.083   5.851
 4546POPC   GL258874   2.041   8.460   5.767
 4546POPC   C1A58875   2.073   8.032   6.285
 4546POPC   D2A58876   1.966   7.765   6.571
 4546POPC   C3A58877   2.187   7.806   6.918
 4546POPC   C4A58878   2.122   8.090   7.243
 4546POPC   C1B58879   1.822   8.455   6.188
 4546POPC   C2B58880   1.952   8.361   6.657
 4546POPC   C3B58881   1.749   8.443   7.058
 4546POPC   C4B58882   1.924   8.600   7.446
 4547POPC   NC358883  25.105  30.168   5.384
 4547POPC   PO458884  25.636  29.689   5.317
 4547POPC   GL158885  25.300  29.732   5.596
 4547POPC   GL258886  25.447  29.982   5.778
 4547POPC   C1A58887  25.059  29.738   6.003
 4547POPC   D2A58888  24.913  29.868   6.423
 4547POPC   C3A58889  25.111  29.804   6.852
 4547POPC   C4A58890  25.118  29.767   7.302
 4547POPC   C1B58891  25.371  30.069   6.228
 4547POPC   C2B58892  25.270  30.226   6.646
 4547POPC   C3B58893  25.263  30.267   7.089
 4547POPC   C4B58894  25.530  30.096   7.388
 4548POPC   NC358895  24.192  19.165   5.432
 4548POPC   PO458896  23.721  18.682   5.427
 4548POPC   GL158897  23.638  18.979   5.801
 4548POPC   GL258898  23.370  19.251   5.801
 4548POPC   C1A58899  23.710  18.973   6.244
 4548POPC   D2A58900  23.891  18.787   6.602
 4548POPC   C3A58901  23.722  18.934   6.997
 4548POPC   C4A58902  23.919  19.267   7.250
 4548POPC   C1B58903  23.442  19.396   6.254
 4548POPC   C2B58904  23.580  19.308   6.698
 4548POPC   C3B58905  23.442  19.409   7.160
 4548POPC   C4B58906  23.326  19.238   7.594
 4549POPC   NC358907  13.047  13.788   5.425
 4549POPC   PO458908  12.520  13.355   5.446
 4549POPC   GL158909  12.799  13.530   5.780
 4549POPC   GL258910  13.152  13.395   5.765
 4549POPC   C1A58911  12.986  13.779   6.099
 4549POPC   D2A58912  13.057  13.845   6.522
 4549POPC   C3A58913  12.730  13.756   6.816
 4549POPC   C4A58914  12.685  13.746   7.268
 4549POPC   C1B58915  13.340  13.216   6.147
 4549POPC   C2B58916  13.280  13.372   6.588
 4549POPC   C3B58917  13.083  13.399   7.008
 4549POPC   C4B58918  13.136  13.510   7.454
 4550POPC   NC358919  10.481   3.548   5.291
 4550POPC   PO458920  10.282   3.010   5.690
 4550POPC   GL158921  10.338   3.462   5.778
 4550POPC   GL258922  10.646   3.678   5.762
 4550POPC   C1A58923  10.339   3.618   6.178
 4550POPC   D2A58924  10.610   3.641   6.488
 4550POPC   C3A58925  10.449   3.463   6.852
 4550POPC   C4A58926  10.710   3.416   7.159
 4550POPC   C1B58927  10.740   3.965   6.100
 4550POPC   C2B58928  10.697   4.169   6.509
 4550POPC   C3B58929  10.663   3.940   6.896
 4550POPC   C4B58930  10.343   3.824   7.194
 4551POPC   NC358931  35.640  16.403   5.609
 4551POPC   PO458932  35.701  16.833   5.080
 4551POPC   GL158933  35.329  16.766   5.655
 4551POPC   GL258934  35.074  17.011   5.748
 4551POPC   C1A58935  35.242  16.617   6.129
 4551POPC   D2A58936  35.299  16.358   6.533
 4551POPC   C3A58937  35.406  16.570   6.935
 4551POPC   C4A58938  35.264  16.485   7.334
 4551POPC   C1B58939  35.219  17.126   6.160
 4551POPC   C2B58940  35.261  16.930   6.577
 4551POPC   C3B58941  35.413  17.102   6.975
 4551POPC   C4B58942  35.299  17.057   7.396
 4552POPC   NC358943  24.604   5.582   5.367
 4552POPC   PO458944  24.271   4.970   5.493
 4552POPC   GL158945  24.509   5.230   5.765
 4552POPC   GL258946  24.246   5.309   5.960
 4552POPC   C1A58947  24.775   5.141   6.137
 4552POPC   D2A58948  24.833   4.827   6.475
 4552POPC   C3A58949  24.790   4.949   6.904
 4552POPC   C4A58950  24.376   4.896   7.069
 4552POPC   C1B58951  24.232   5.060   6.303
 4552POPC   C2B58952  24.508   5.223   6.576
 4552POPC   C3B58953  24.582   5.416   6.927
 4552POPC   C4B58954  24.413   5.358   7.274
 4553POPC   NC358955  24.768  21.612   4.965
 4553POPC   PO458956  24.302  21.400   5.332
 4553POPC   GL158957  24.580  21.486   5.676
 4553POPC   GL258958  24.333  21.265   5.828
 4553POPC   C1A58959  24.802  21.374   6.087
 4553POPC   D2A58960  24.739  21.620   6.480
 4553POPC   C3A58961  24.736  21.546   6.925
 4553POPC   C4A58962  24.871  21.328   7.306
 4553POPC   C1B58963  24.346  21.584   6.144
 4553POPC   C2B58964  24.238  21.603   6.525
 4553POPC   C3B58965  24.171  21.509   6.899
 4553POPC   C4B58966  24.379  21.269   7.172
 4554POPC   NC358967  40.737   6.179   5.350
 4554POPC   PO458968  41.219   5.754   5.435
 4554POPC   GL158969  40.983   5.581   5.761
 4554POPC   GL258970  40.669   5.759   5.773
 4554POPC   C1A58971  41.002   5.732   6.194
 4554POPC   D2A58972  40.971   6.029   6.532
 4554POPC   C3A58973  41.016   5.856   6.933
 4554POPC   C4A58974  40.928   5.978   7.336
 4554POPC   C1B58975  40.491   5.675   6.202
 4554POPC   C2B58976  40.624   5.643   6.645
 4554POPC   C3B58977  40.523   5.755   7.078
 4554POPC   C4B58978  40.451   5.942   7.497
 4555POPC   NC358979   7.255   9.908   5.334
 4555POPC   PO458980   7.906   9.902   5.393
 4555POPC   GL158981   7.616   9.804   5.718
 4555POPC   GL258982   7.626   9.449   5.783
 4555POPC   C1A58983   7.523   9.816   6.178
 4555POPC   D2A58984   7.694   9.541   6.510
 4555POPC   C3A58985   7.689   9.653   6.947
 4555POPC   C4A58986   7.727  10.068   7.164
 4555POPC   C1B58987   7.314   9.365   6.115
 4555POPC   C2B58988   7.177   9.572   6.515
 4555POPC   C3B58989   7.258   9.893   6.795
 4555POPC   C4B58990   7.278   9.796   7.218
 4556POPC   NC358991  24.826  23.230   5.521
 4556POPC   PO458992  24.258  22.843   5.449
 4556POPC   GL158993  24.548  22.899   5.785
 4556POPC   GL258994  24.462  23.262   5.916
 4556POPC   C1A58995  24.777  22.979   6.168
 4556POPC   D2A58996  24.557  23.191   6.483
 4556POPC   C3A58997  24.614  23.029   6.889
 4556POPC   C4A58998  24.385  22.897   7.229
 4556POPC   C1B58999  24.102  23.331   6.243
 4556POPC   C2B59000  23.887  23.283   6.661
 4556POPC   C3B59001  23.947  23.118   7.084
 4556POPC   C4B59002  24.045  23.126   7.543
 4557POPC   NC359003  41.935  32.917   5.358
 4557POPC   PO459004  42.409  33.293   5.416
 4557POPC   GL159005  42.233  33.107   5.770
 4557POPC   GL259006  41.923  33.272   5.708
 4557POPC   C1A59007  42.316  32.911   6.195
 4557POPC   D2A59008  42.139  32.730   6.596
 4557POPC   C3A59009  42.329  32.927   6.928
 4557POPC   C4A59010  42.454  32.931   7.333
 4557POPC   C1B59011  41.967  33.329   6.167
 4557POPC   C2B59012  42.158  33.263   6.565
 4557POPC   C3B59013  42.257  33.428   6.967
 4557POPC   C4B59014  42.076  33.274   7.355
 4558POPC   NC359015  19.730  13.354   5.298
 4558POPC   PO459016  20.194  13.861   5.336
 4558POPC   GL159017  19.817  13.729   5.658
 4558POPC   GL259018  19.704  13.371   5.795
 4558POPC   C1A59019  19.657  13.767   6.107
 4558POPC   D2A59020  19.925  13.626   6.418
 4558POPC   C3A59021  19.921  13.636   6.884
 4558POPC   C4A59022  20.171  13.870   7.214
 4558POPC   C1B59023  19.777  13.178   6.193
 4558POPC   C2B59024  19.667  13.230   6.617
 4558POPC   C3B59025  19.645  13.235   7.037
 4558POPC   C4B59026  19.535  13.303   7.462
 4559POPC   NC359027  24.646   2.942   5.167
 4559POPC   PO459028  24.267   2.488   5.516
 4559POPC   GL159029  24.374   2.874   5.759
 4559POPC   GL259030  24.729   2.934   5.719
 4559POPC   C1A59031  24.268   2.993   6.206
 4559POPC   D2A59032  24.463   3.010   6.649
 4559POPC   C3A59033  24.218   2.972   7.065
 4559POPC   C4A59034  23.997   2.588   7.255
 4559POPC   C1B59035  24.681   2.708   6.124
 4559POPC   C2B59036  24.371   2.543   6.449
 4559POPC   C3B59037  24.412   2.538   6.899
 4559POPC   C4B59038  24.515   2.637   7.365
 4560POPC   NC359039  17.078  43.071   5.524
 4560POPC   PO459040  16.540  43.591   5.421
 4560POPC   GL159041  16.606  43.247   5.756
 4560POPC   GL259042  16.582  42.906   5.615
 4560POPC   C1A59043  16.884  43.118   6.146
 4560POPC   D2A59044  17.124  43.194   6.516
 4560POPC   C3A59045  16.855  43.272   6.847
 4560POPC   C4A59046  16.745  43.117   7.241
 4560POPC   C1B59047  16.482  42.819   6.058
 4560POPC   C2B59048  16.509  42.971   6.501
 4560POPC   C3B59049  16.503  42.803   6.899
 4560POPC   C4B59050  16.585  42.631   7.282
 4561POPC   NC359051  24.547  37.089   5.347
 4561POPC   PO459052  24.017  36.678   5.222
 4561POPC   GL159053  24.179  36.841   5.662
 4561POPC   GL259054  24.537  36.833   5.774
 4561POPC   C1A59055  24.218  37.003   6.113
 4561POPC   D2A59056  24.506  36.836   6.463
 4561POPC   C3A59057  24.355  36.920   6.912
 4561POPC   C4A59058  24.318  36.775   7.350
 4561POPC   C1B59059  24.887  36.895   6.060
 4561POPC   C2B59060  25.065  37.031   6.452
 4561POPC   C3B59061  24.928  36.981   6.872
 4561POPC   C4B59062  24.727  37.123   7.236
 4562POPC   NC359063  19.871  36.834   5.313
 4562POPC   PO459064  19.298  36.483   5.404
 4562POPC   GL159065  19.706  36.544   5.738
 4562POPC   GL259066  20.060  36.722   5.792
 4562POPC   C1A59067  19.735  36.674   6.222
 4562POPC   D2A59068  19.616  36.916   6.643
 4562POPC   C3A59069  19.768  37.012   7.098
 4562POPC   C4A59070  20.037  37.225   7.426
 4562POPC   C1B59071  20.231  36.595   6.227
 4562POPC   C2B59072  20.097  36.667   6.702
 4562POPC   C3B59073  20.108  36.645   7.183
 4562POPC   C4B59074  20.050  36.635   7.648
 4563POPC   NC359075  40.498  17.793   5.407
 4563POPC   PO459076  40.117  17.222   5.531
 4563POPC   GL159077  40.205  17.420   5.880
 4563POPC   GL259078  39.874  17.512   5.932
 4563POPC   C1A59079  40.164  17.337   6.305
 4563POPC   D2A59080  39.873  17.328   6.607
 4563POPC   C3A59081  40.111  17.165   6.908
 4563POPC   C4A59082  39.946  17.220   7.294
 4563POPC   C1B59083  39.863  17.780   6.309
 4563POPC   C2B59084  39.560  17.732   6.687
 4563POPC   C3B59085  39.787  17.680   7.075
 4563POPC   C4B59086  40.124  17.993   7.143
 4564POPC   NC359087  11.606  12.747   5.174
 4564POPC   PO459088  11.976  13.128   5.588
 4564POPC   GL159089  12.013  12.784   5.837
 4564POPC   GL259090  12.336  12.808   5.987
 4564POPC   C1A59091  11.962  12.569   6.235
 4564POPC   D2A59092  11.891  12.789   6.611
 4564POPC   C3A59093  11.952  12.578   6.991
 4564POPC   C4A59094  12.255  12.652   7.309
 4564POPC   C1B59095  12.080  13.108   6.249
 4564POPC   C2B59096  12.141  13.226   6.677
 4564POPC   C3B59097  12.097  13.088   7.107
 4564POPC   C4B59098  12.264  13.102   7.560
 4565POPC   NC359099  39.674  33.667   5.475
 4565POPC   PO459100  39.031  33.452   5.477
 4565POPC   GL159101  39.282  33.555   5.807
 4565POPC   GL259102  39.281  33.908   5.767
 4565POPC   C1A59103  39.390  33.530   6.229
 4565POPC   D2A59104  39.282  33.745   6.609
 4565POPC   C3A59105  39.258  33.505   6.967
 4565POPC   C4A59106  39.235  33.664   7.364
 4565POPC   C1B59107  39.339  34.058   6.197
 4565POPC   C2B59108  39.146  34.257   6.557
 4565POPC   C3B59109  39.090  34.111   7.000
 4565POPC   C4B59110  39.152  34.140   7.496
 4566POPC   NC359111  41.182  18.424   5.424
 4566POPC   PO459112  41.811  18.560   5.550
 4566POPC   GL159113  41.576  18.250   5.787
 4566POPC   GL259114  41.228  18.305   5.930
 4566POPC   C1A59115  41.576  18.063   6.195
 4566POPC   D2A59116  41.285  17.927   6.527
 4566POPC   C3A59117  41.407  18.175   6.868
 4566POPC   C4A59118  41.581  18.265   7.254
 4566POPC   C1B59119  41.215  18.411   6.380
 4566POPC   C2B59120  41.384  18.677   6.682
 4566POPC   C3B59121  41.343  18.687   7.128
 4566POPC   C4B59122  41.283  18.563   7.577
 4567POPC   NC359123  40.859  25.108   5.212
 4567POPC   PO459124  40.777  25.525   5.757
 4567POPC   GL159125  40.678  25.181   5.980
 4567POPC   GL259126  40.996  24.986   5.939
 4567POPC   C1A59127  40.439  25.184   6.355
 4567POPC   D2A59128  40.233  25.509   6.604
 4567POPC   C3A59129  40.405  25.508   7.004
 4567POPC   C4A59130  40.667  25.738   7.223
 4567POPC   C1B59131  40.978  25.147   6.385
 4567POPC   C2B59132  40.819  25.320   6.782
 4567POPC   C3B59133  40.718  25.110   7.189
 4567POPC   C4B59134  40.965  25.071   7.600
 4568POPC   NC359135   3.712  21.773   5.223
 4568POPC   PO459136   3.394  22.343   5.460
 4568POPC   GL159137   3.422  22.183   5.845
 4568POPC   GL259138   3.714  22.333   5.966
 4568POPC   C1A59139   3.291  21.959   6.239
 4568POPC   D2A59140   3.407  21.814   6.677
 4568POPC   C3A59141   3.710  22.096   6.905
 4568POPC   C4A59142   3.666  22.363   7.300
 4568POPC   C1B59143   3.746  22.126   6.337
 4568POPC   C2B59144   3.849  21.738   6.448
 4568POPC   C3B59145   3.983  21.674   6.831
 4568POPC   C4B59146   3.779  21.659   7.208
 4569POPC   NC359147  33.759  32.027   5.294
 4569POPC   PO459148  33.604  32.666   5.323
 4569POPC   GL159149  33.894  32.431   5.671
 4569POPC   GL259150  34.060  32.030   5.709
 4569POPC   C1A59151  33.819  32.583   6.091
 4569POPC   D2A59152  33.668  32.395   6.487
 4569POPC   C3A59153  33.819  32.539   6.876
 4569POPC   C4A59154  33.585  32.359   7.199
 4569POPC   C1B59155  33.933  32.079   6.140
 4569POPC   C2B59156  34.007  31.986   6.566
 4569POPC   C3B59157  33.954  32.033   6.996
 4569POPC   C4B59158  34.207  31.843   7.295
 4570POPC   NC359159  33.334  23.459   5.399
 4570POPC   PO459160  32.845  23.945   5.450
 4570POPC   GL159161  33.025  23.684   5.744
 4570POPC   GL259162  33.297  23.863   5.706
 4570POPC   C1A59163  32.878  23.537   6.143
 4570POPC   D2A59164  32.605  23.748   6.444
 4570POPC   C3A59165  32.761  23.752   6.862
 4570POPC   C4A59166  32.818  23.410   7.158
 4570POPC   C1B59167  33.378  23.665   6.120
 4570POPC   C2B59168  33.179  23.721   6.548
 4570POPC   C3B59169  33.239  23.656   7.002
 4570POPC   C4B59170  33.453  23.860   7.310
 4571POPC   NC359171   2.110  31.059   5.412
 4571POPC   PO459172   1.768  31.653   5.319
 4571POPC   GL159173   1.897  31.503   5.746
 4571POPC   GL259174   2.227  31.406   5.864
 4571POPC   C1A59175   1.890  31.655   6.193
 4571POPC   D2A59176   2.163  31.574   6.507
 4571POPC   C3A59177   2.034  31.415   6.885
 4571POPC   C4A59178   1.973  31.355   7.338
 4571POPC   C1B59179   2.375  31.809   6.061
 4571POPC   C2B59180   2.247  32.065   6.430
 4571POPC   C3B59181   2.316  31.914   6.868
 4571POPC   C4B59182   2.401  31.576   7.165
 4572POPC   NC359183  36.483  30.169   5.425
 4572POPC   PO459184  35.836  29.861   5.405
 4572POPC   GL159185  36.135  29.937   5.716
 4572POPC   GL259186  35.878  30.015   5.887
 4572POPC   C1A59187  36.292  29.818   6.143
 4572POPC   D2A59188  36.193  29.675   6.578
 4572POPC   C3A59189  36.331  29.839   6.999
 4572POPC   C4A59190  36.304  30.133   7.356
 4572POPC   C1B59191  35.775  29.770   6.224
 4572POPC   C2B59192  35.758  29.969   6.612
 4572POPC   C3B59193  35.843  29.994   7.050
 4572POPC   C4B59194  35.693  29.989   7.460
 4573POPC   NC359195  39.114  24.666   5.405
 4573POPC   PO459196  39.441  24.113   5.433
 4573POPC   GL159197  39.248  24.242   5.752
 4573POPC   GL259198  38.925  24.277   5.729
 4573POPC   C1A59199  39.363  24.435   6.115
 4573POPC   D2A59200  39.414  24.197   6.469
 4573POPC   C3A59201  39.460  24.422   6.855
 4573POPC   C4A59202  39.418  24.434   7.270
 4573POPC   C1B59203  38.904  24.217   6.221
 4573POPC   C2B59204  38.981  24.360   6.666
 4573POPC   C3B59205  38.958  24.545   7.071
 4573POPC   C4B59206  38.972  24.433   7.506
 4574POPC   NC359207  19.136   3.190   5.507
 4574POPC   PO459208  19.017   3.830   5.339
 4574POPC   GL159209  19.074   3.633   5.752
 4574POPC   GL259210  19.367   3.797   5.821
 4574POPC   C1A59211  18.975   3.386   6.151
 4574POPC   D2A59212  18.743   3.380   6.564
 4574POPC   C3A59213  18.942   3.388   6.960
 4574POPC   C4A59214  18.710   3.694   7.149
 4574POPC   C1B59215  19.454   3.571   6.180
 4574POPC   C2B59216  19.215   3.600   6.565
 4574POPC   C3B59217  19.197   3.852   6.943
 4574POPC   C4B59218  19.420   3.740   7.309
 4575POPC   NC359219  30.837   8.360   5.375
 4575POPC   PO459220  30.752   7.587   5.471
 4575POPC   GL159221  30.687   7.971   5.726
 4575POPC   GL259222  30.894   8.292   5.862
 4575POPC   C1A59223  30.652   7.991   6.177
 4575POPC   D2A59224  30.827   8.094   6.548
 4575POPC   C3A59225  30.696   7.919   6.925
 4575POPC   C4A59226  30.980   8.143   7.135
 4575POPC   C1B59227  30.647   8.506   6.180
 4575POPC   C2B59228  30.481   8.463   6.595
 4575POPC   C3B59229  30.657   8.491   6.981
 4575POPC   C4B59230  30.530   8.360   7.372
 4576POPC   NC359231  31.285  43.092   5.475
 4576POPC   PO459232  31.846  43.555   5.452
 4576POPC   GL159233  31.705  43.217   5.746
 4576POPC   GL259234  31.835  42.850   5.677
 4576POPC   C1A59235  31.386  43.160   6.131
 4576POPC   D2A59236  31.213  43.342   6.536
 4576POPC   C3A59237  31.378  43.175   6.900
 4576POPC   C4A59238  31.172  43.072   7.244
 4576POPC   C1B59239  31.852  42.964   6.144
 4576POPC   C2B59240  31.647  42.898   6.547
 4576POPC   C3B59241  31.806  42.908   6.961
 4576POPC   C4B59242  31.650  42.953   7.371
 4577POPC   NC359243  18.788   4.156   5.117
 4577POPC   PO459244  19.366   4.495   5.337
 4577POPC   GL159245  19.220   4.611   5.764
 4577POPC   GL259246  18.840   4.530   5.723
 4577POPC   C1A59247  19.164   4.512   6.238
 4577POPC   D2A59248  19.371   4.326   6.620
 4577POPC   C3A59249  19.205   4.389   7.045
 4577POPC   C4A59250  19.127   4.154   7.439
 4577POPC   C1B59251  18.752   4.235   6.104
 4577POPC   C2B59252  18.911   4.042   6.529
 4577POPC   C3B59253  18.760   4.161   6.972
 4577POPC   C4B59254  18.749   4.479   7.313
 4578POPC   NC359255  27.083  17.950   5.406
 4578POPC   PO459256  26.481  17.716   5.327
 4578POPC   GL159257  26.682  17.490   5.693
 4578POPC   GL259258  27.028  17.550   5.759
 4578POPC   C1A59259  26.665  17.319   6.113
 4578POPC   D2A59260  26.695  17.505   6.532
 4578POPC   C3A59261  26.529  17.545   6.896
 4578POPC   C4A59262  26.515  17.328   7.251
 4578POPC   C1B59263  27.023  17.686   6.212
 4578POPC   C2B59264  27.108  17.759   6.717
 4578POPC   C3B59265  26.956  17.708   7.176
 4578POPC   C4B59266  27.137  17.770   7.632
 4579POPC   NC359267  29.004  14.076   5.325
 4579POPC   PO459268  29.445  13.571   5.143
 4579POPC   GL159269  29.336  13.530   5.630
 4579POPC   GL259270  29.479  13.264   5.825
 4579POPC   C1A59271  29.159  13.610   6.088
 4579POPC   D2A59272  28.992  13.420   6.495
 4579POPC   C3A59273  29.111  13.543   6.940
 4579POPC   C4A59274  28.952  13.676   7.341
 4579POPC   C1B59275  29.409  13.195   6.276
 4579POPC   C2B59276  29.568  13.420   6.643
 4579POPC   C3B59277  29.622  13.300   7.066
 4579POPC   C4B59278  29.476  13.489   7.429
 4580POPC   NC359279  41.153  39.790   5.548
 4580POPC   PO459280  40.517  39.900   5.358
 4580POPC   GL159281  40.741  40.094   5.740
 4580POPC   GL259282  40.908  40.419   5.653
 4580POPC   C1A59283  40.561  40.148   6.200
 4580POPC   D2A59284  40.411  40.052   6.646
 4580POPC   C3A59285  40.677  39.874   7.020
 4580POPC   C4A59286  40.799  39.558   7.380
 4580POPC   C1B59287  40.919  40.505   6.088
 4580POPC   C2B59288  41.043  40.269   6.441
 4580POPC   C3B59289  41.151  40.368   6.845
 4580POPC   C4B59290  40.955  40.303   7.186
 4581POPC   NC359291  26.562  21.250   5.475
 4581POPC   PO459292  27.121  20.915   5.633
 4581POPC   GL159293  26.876  21.174   5.884
 4581POPC   GL259294  26.871  21.514   5.830
 4581POPC   C1A59295  26.848  21.286   6.324
 4581POPC   D2A59296  26.505  21.152   6.575
 4581POPC   C3A59297  26.520  21.340   6.958
 4581POPC   C4A59298  26.840  21.420   7.222
 4581POPC   C1B59299  26.496  21.572   6.113
 4581POPC   C2B59300  26.524  21.679   6.547
 4581POPC   C3B59301  26.747  21.815   6.916
 4581POPC   C4B59302  26.512  21.845   7.295
 4582POPC   NC359303  44.222  30.143   5.544
 4582POPC   PO459304  44.807  30.395   5.557
 4582POPC   GL159305  44.846  30.654   5.872
 4582POPC   GL259306  44.478  30.734   5.869
 4582POPC   C1A59307  44.834  30.603   6.300
 4582POPC   D2A59308  44.829  30.719   6.707
 4582POPC   C3A59309  44.610  30.467   6.978
 4582POPC   C4A59310  44.693  30.460   7.415
 4582POPC   C1B59311  44.213  30.568   6.169
 4582POPC   C2B59312  44.345  30.698   6.556
 4582POPC   C3B59313  44.390  30.923   6.937
 4582POPC   C4B59314  44.336  30.814   7.324
 4583POPC   NC359315  18.859  32.802   5.705
 4583POPC   PO459316  19.105  33.342   5.373
 4583POPC   GL159317  19.407  33.124   5.633
 4583POPC   GL259318  19.140  33.223   5.874
 4583POPC   C1A59319  19.448  32.870   6.043
 4583POPC   D2A59320  19.213  33.084   6.376
 4583POPC   C3A59321  19.275  32.982   6.781
 4583POPC   C4A59322  19.273  32.854   7.184
 4583POPC   C1B59323  18.797  33.321   6.158
 4583POPC   C2B59324  18.792  33.481   6.530
 4583POPC   C3B59325  18.973  33.415   6.901
 4583POPC   C4B59326  18.840  33.142   7.172
 4584POPC   NC359327   2.248   1.300   5.414
 4584POPC   PO459328   1.823   1.677   5.699
 4584POPC   GL159329   2.152   1.490   5.899
 4584POPC   GL259330   1.974   1.189   5.867
 4584POPC   C1A59331   2.191   1.300   6.326
 4584POPC   D2A59332   1.870   1.309   6.657
 4584POPC   C3A59333   1.978   1.041   6.989
 4584POPC   C4A59334   2.101   1.235   7.325
 4584POPC   C1B59335   1.707   0.888   6.118
 4584POPC   C2B59336   1.661   0.849   6.561
 4584POPC   C3B59337   1.475   1.011   6.935
 4584POPC   C4B59338   1.551   1.096   7.369
 4585POPC   NC359339  29.297  14.810   5.409
 4585POPC   PO459340  28.768  14.447   5.490
 4585POPC   GL159341  29.134  14.394   5.824
 4585POPC   GL259342  29.381  14.695   5.896
 4585POPC   C1A59343  29.335  14.107   6.179
 4585POPC   D2A59344  29.277  13.852   6.578
 4585POPC   C3A59345  29.129  14.078   7.003
 4585POPC   C4A59346  29.131  14.512   7.165
 4585POPC   C1B59347  29.585  14.540   6.274
 4585POPC   C2B59348  29.425  14.428   6.692
 4585POPC   C3B59349  29.543  14.756   6.991
 4585POPC   C4B59350  29.544  14.837   7.452
 4586POPC   NC359351  12.987  34.051   5.333
 4586POPC   PO459352  12.504  33.554   5.260
 4586POPC   GL159353  12.608  33.822   5.654
 4586POPC   GL259354  12.952  33.917   5.815
 4586POPC   C1A59355  12.586  33.781   6.114
 4586POPC   D2A59356  12.903  33.606   6.371
 4586POPC   C3A59357  12.752  33.505   6.764
 4586POPC   C4A59358  13.025  33.466   7.127
 4586POPC   C1B59359  13.035  34.081   6.224
 4586POPC   C2B59360  12.852  34.041   6.634
 4586POPC   C3B59361  12.814  33.952   7.074
 4586POPC   C4B59362  12.559  34.264   7.254
 4587POPC   NC359363  24.162  19.807   4.962
 4587POPC   PO459364  23.712  19.848   5.353
 4587POPC   GL159365  23.685  19.682   5.768
 4587POPC   GL259366  23.372  19.757   5.907
 4587POPC   C1A59367  23.843  19.698   6.192
 4587POPC   D2A59368  23.663  19.794   6.589
 4587POPC   C3A59369  23.843  19.706   6.969
 4587POPC   C4A59370  23.745  19.839   7.370
 4587POPC   C1B59371  23.455  20.049   6.209
 4587POPC   C2B59372  23.293  20.154   6.607
 4587POPC   C3B59373  23.373  19.949   7.003
 4587POPC   C4B59374  23.292  20.146   7.376
 4588POPC   NC359375  42.228  41.997   5.520
 4588POPC   PO459376  42.480  41.322   5.402
 4588POPC   GL159377  42.431  41.589   5.780
 4588POPC   GL259378  42.065  41.617   5.864
 4588POPC   C1A59379  42.447  41.702   6.232
 4588POPC   D2A59380  42.393  41.899   6.623
 4588POPC   C3A59381  42.352  41.638   6.952
 4588POPC   C4A59382  42.487  41.618   7.353
 4588POPC   C1B59383  42.077  41.349   6.252
 4588POPC   C2B59384  41.981  41.432   6.666
 4588POPC   C3B59385  42.098  41.211   7.034
 4588POPC   C4B59386  42.187  41.242   7.484
 4589POPC   NC359387  11.941   9.397   5.205
 4589POPC   PO459388  12.225   9.945   5.077
 4589POPC   GL159389  12.053   9.957   5.527
 4589POPC   GL259390  11.967   9.645   5.630
 4589POPC   C1A59391  12.160   9.877   6.017
 4589POPC   D2A59392  12.163   9.780   6.457
 4589POPC   C3A59393  12.112  10.097   6.788
 4589POPC   C4A59394  12.033   9.982   7.219
 4589POPC   C1B59395  11.824   9.503   6.029
 4589POPC   C2B59396  11.751   9.427   6.476
 4589POPC   C3B59397  11.950   9.561   6.890
 4589POPC   C4B59398  11.896   9.292   7.219
 4590POPC   NC359399  25.687  16.953   5.379
 4590POPC   PO459400  25.389  16.348   5.315
 4590POPC   GL159401  25.457  16.465   5.776
 4590POPC   GL259402  25.428  16.859   5.818
 4590POPC   C1A59403  25.428  16.373   6.247
 4590POPC   D2A59404  25.601  16.588   6.631
 4590POPC   C3A59405  25.374  16.636   7.019
 4590POPC   C4A59406  25.207  16.335   7.294
 4590POPC   C1B59407  25.187  16.987   6.183
 4590POPC   C2B59408  25.185  16.932   6.634
 4590POPC   C3B59409  25.053  17.088   7.051
 4590POPC   C4B59410  24.895  17.100   7.484
 4591POPC   NC359411   5.441  38.052   5.402
 4591POPC   PO459412   5.762  38.772   5.238
 4591POPC   GL159413   5.929  38.690   5.670
 4591POPC   GL259414   5.742  38.377   5.764
 4591POPC   C1A59415   5.902  38.702   6.142
 4591POPC   D2A59416   6.110  38.463   6.472
 4591POPC   C3A59417   6.059  38.665   6.879
 4591POPC   C4A59418   5.775  38.667   7.228
 4591POPC   C1B59419   5.727  38.209   6.210
 4591POPC   C2B59420   5.661  38.341   6.677
 4591POPC   C3B59421   5.851  38.201   7.083
 4591POPC   C4B59422   5.764  38.268   7.549
 4592POPC   NC359423  41.938  41.297   5.403
 4592POPC   PO459424  42.142  40.652   5.509
 4592POPC   GL159425  42.144  40.824   5.919
 4592POPC   GL259426  42.222  41.126   5.822
 4592POPC   C1A59427  42.323  40.835   6.354
 4592POPC   D2A59428  42.402  40.810   6.812
 4592POPC   C3A59429  42.061  40.730   7.113
 4592POPC   C4A59430  41.950  40.394   7.316
 4592POPC   C1B59431  42.562  41.219   6.134
 4592POPC   C2B59432  42.546  41.287   6.615
 4592POPC   C3B59433  42.593  41.186   7.090
 4592POPC   C4B59434  42.489  40.822   7.380
 4593POPC   NC359435  31.819  15.206   5.517
 4593POPC   PO459436  31.199  15.020   5.437
 4593POPC   GL159437  31.415  15.072   5.831
 4593POPC   GL259438  31.722  14.879   5.908
 4593POPC   C1A59439  31.281  15.323   6.185
 4593POPC   D2A59440  31.440  15.310   6.605
 4593POPC   C3A59441  31.290  15.021   6.907
 4593POPC   C4A59442  31.221  15.284   7.232
 4593POPC   C1B59443  31.776  15.240   6.218
 4593POPC   C2B59444  31.938  15.314   6.657
 4593POPC   C3B59445  31.728  15.251   7.061
 4593POPC   C4B59446  31.586  14.863   7.299
 4594POPC   NC359447   5.273   8.668   5.228
 4594POPC   PO459448   5.070   8.041   5.285
 4594POPC   GL159449   5.135   8.167   5.735
 4594POPC   GL259450   4.834   7.974   5.796
 4594POPC   C1A59451   5.324   8.224   6.196
 4594POPC   D2A59452   5.242   8.440   6.626
 4594POPC   C3A59453   5.327   8.173   7.020
 4594POPC   C4A59454   5.325   7.904   7.378
 4594POPC   C1B59455   4.831   8.258   6.164
 4594POPC   C2B59456   4.674   8.280   6.566
 4594POPC   C3B59457   4.864   8.346   6.966
 4594POPC   C4B59458   4.899   8.164   7.391
 4595POPC   NC359459  43.859  14.364   5.595
 4595POPC   PO459460  43.987  13.607   5.463
 4595POPC   GL159461  43.826  13.555   5.856
 4595POPC   GL259462  43.831  13.916   5.908
 4595POPC   C1A59463  43.961  13.398   6.268
 4595POPC   D2A59464  43.905  13.205   6.659
 4595POPC   C3A59465  44.009  13.473   6.996
 4595POPC   C4A59466  43.970  13.437   7.402
 4595POPC   C1B59467  43.493  14.084   6.187
 4595POPC   C2B59468  43.509  14.308   6.581
 4595POPC   C3B59469  43.424  14.133   6.980
 4595POPC   C4B59470  43.838  13.974   7.043
 4596POPC   NC359471  17.101  34.835   5.179
 4596POPC   PO459472  16.519  34.459   5.287
 4596POPC   GL159473  16.600  34.500   5.766
 4596POPC   GL259474  16.536  34.858   5.842
 4596POPC   C1A59475  16.805  34.434   6.198
 4596POPC   D2A59476  16.878  34.222   6.607
 4596POPC   C3A59477  16.816  34.382   7.008
 4596POPC   C4A59478  17.042  34.595   7.367
 4596POPC   C1B59479  16.750  34.932   6.248
 4596POPC   C2B59480  16.880  34.743   6.636
 4596POPC   C3B59481  16.667  34.860   7.045
 4596POPC   C4B59482  16.708  34.985   7.478
 4597POPC   NC359483  21.519  16.976   5.295
 4597POPC   PO459484  21.482  16.347   5.397
 4597POPC   GL159485  21.724  16.598   5.738
 4597POPC   GL259486  21.545  16.930   5.816
 4597POPC   C1A59487  21.806  16.731   6.202
 4597POPC   D2A59488  21.460  16.737   6.526
 4597POPC   C3A59489  21.401  16.505   6.911
 4597POPC   C4A59490  21.220  16.513   7.315
 4597POPC   C1B59491  21.223  17.046   6.170
 4597POPC   C2B59492  21.194  17.188   6.616
 4597POPC   C3B59493  21.206  16.975   7.028
 4597POPC   C4B59494  21.178  17.009   7.490
 4598POPC   NC359495  35.624  19.516   5.261
 4598POPC   PO459496  35.260  20.127   5.438
 4598POPC   GL159497  35.535  19.963   5.727
 4598POPC   GL259498  35.652  19.620   5.759
 4598POPC   C1A59499  35.404  19.852   6.128
 4598POPC   D2A59500  35.164  20.003   6.461
 4598POPC   C3A59501  35.326  19.899   6.830
 4598POPC   C4A59502  35.534  20.104   7.168
 4598POPC   C1B59503  35.816  19.512   6.207
 4598POPC   C2B59504  35.664  19.467   6.663
 4598POPC   C3B59505  35.563  19.543   7.095
 4598POPC   C4B59506  35.837  19.742   7.407
 4599POPC   NC359507  43.388   6.173   5.101
 4599POPC   PO459508  42.873   5.824   5.361
 4599POPC   GL159509  42.994   5.796   5.762
 4599POPC   GL259510  42.919   6.115   5.892
 4599POPC   C1A59511  43.173   5.714   6.172
 4599POPC   D2A59512  43.018   5.885   6.570
 4599POPC   C3A59513  43.082   5.646   6.946
 4599POPC   C4A59514  43.368   5.651   7.262
 4599POPC   C1B59515  42.782   6.306   6.292
 4599POPC   C2B59516  42.860   6.340   6.743
 4599POPC   C3B59517  43.142   6.165   7.023
 4599POPC   C4B59518  42.902   5.960   7.307
 4600POPC   NC359519  15.244   0.703   5.480
 4600POPC   PO459520  15.552   0.141   5.249
 4600POPC   GL159521  15.394   0.286   5.731
 4600POPC   GL259522  15.003   0.417   5.808
 4600POPC   C1A59523  15.361   0.439   6.176
 4600POPC   D2A59524  15.450   0.393   6.620
 4600POPC   C3A59525  15.215   0.519   6.988
 4600POPC   C4A59526  15.067   0.486   7.415
 4600POPC   C1B59527  14.836   0.437   6.230
 4600POPC   C2B59528  14.929   0.261   6.650
 4600POPC   C3B59529  14.990   0.092   7.110
 4600POPC   C4B59530  14.890  44.995   7.586
 4601POPC   NC359531  32.502   2.946   5.414
 4601POPC   PO459532  33.026   2.515   5.624
 4601POPC   GL159533  33.034   2.773   5.969
 4601POPC   GL259534  32.726   2.893   5.875
 4601POPC   C1A59535  32.827   2.806   6.384
 4601POPC   D2A59536  32.839   3.114   6.692
 4601POPC   C3A59537  33.055   2.882   7.033
 4601POPC   C4A59538  33.400   2.540   7.081
 4601POPC   C1B59539  32.499   2.524   6.095
 4601POPC   C2B59540  32.555   2.294   6.502
 4601POPC   C3B59541  32.761   2.298   6.912
 4601POPC   C4B59542  32.955   2.435   7.310
 4602POPC   NC359543  16.394  42.508   5.061
 4602POPC   PO459544  17.019  42.618   5.368
 4602POPC   GL159545  16.824  42.466   5.786
 4602POPC   GL259546  16.479  42.413   5.741
 4602POPC   C1A59547  16.763  42.476   6.282
 4602POPC   D2A59548  16.957  42.724   6.635
 4602POPC   C3A59549  17.034  42.531   7.056
 4602POPC   C4A59550  16.860  42.114   7.168
 4602POPC   C1B59551  16.255  42.340   6.131
 4602POPC   C2B59552  16.304  42.480   6.549
 4602POPC   C3B59553  16.407  42.283   6.949
 4602POPC   C4B59554  16.413  42.168   7.392
 4603POPC   NC359555  41.384   0.604   5.404
 4603POPC   PO459556  42.021   0.555   5.527
 4603POPC   GL159557  41.691   0.416   5.810
 4603POPC   GL259558  41.440   0.134   5.727
 4603POPC   C1A59559  41.757   0.241   6.223
 4603POPC   D2A59560  41.892  44.991   6.565
 4603POPC   C3A59561  41.727   0.144   6.934
 4603POPC   C4A59562  41.681   0.613   7.022
 4603POPC   C1B59563  41.270   0.088   6.166
 4603POPC   C2B59564  41.359   0.277   6.585
 4603POPC   C3B59565  41.259   0.304   7.026
 4603POPC   C4B59566  41.292   0.639   7.355
 4604POPC   NC359567   4.401  20.246   5.622
 4604POPC   PO459568   4.000  19.886   5.172
 4604POPC   GL159569   4.164  19.703   5.655
 4604POPC   GL259570   4.477  19.558   5.856
 4604POPC   C1A59571   4.113  19.771   6.138
 4604POPC   D2A59572   4.283  20.038   6.523
 4604POPC   C3A59573   4.180  19.971   6.970
 4604POPC   C4A59574   3.987  20.209   7.318
 4604POPC   C1B59575   4.636  19.826   6.216
 4604POPC   C2B59576   4.808  20.030   6.587
 4604POPC   C3B59577   4.708  19.906   6.997
 4604POPC   C4B59578   4.476  19.695   7.334
 4605POPC   NC359579   6.929  32.912   5.437
 4605POPC   PO459580   7.550  33.214   5.316
 4605POPC   GL159581   7.574  33.191   5.776
 4605POPC   GL259582   7.215  33.156   5.804
 4605POPC   C1A59583   7.596  32.934   6.175
 4605POPC   D2A59584   7.794  32.696   6.555
 4605POPC   C3A59585   7.742  32.974   6.910
 4605POPC   C4A59586   7.344  33.090   7.049
 4605POPC   C1B59587   7.231  33.414   6.154
 4605POPC   C2B59588   7.143  33.307   6.556
 4605POPC   C3B59589   6.996  33.496   6.914
 4605POPC   C4B59590   7.140  33.445   7.316
 4606POPC   NC359591  25.881  27.009   5.579
 4606POPC   PO459592  26.273  26.441   5.377
 4606POPC   GL159593  26.296  26.692   5.782
 4606POPC   GL259594  26.274  27.017   5.919
 4606POPC   C1A59595  26.020  26.663   6.174
 4606POPC   D2A59596  25.795  26.596   6.569
 4606POPC   C3A59597  25.990  26.613   7.002
 4606POPC   C4A59598  26.220  26.922   7.233
 4606POPC   C1B59599  26.097  27.154   6.289
 4606POPC   C2B59600  26.058  27.019   6.670
 4606POPC   C3B59601  25.728  27.056   6.897
 4606POPC   C4B59602  25.658  26.901   7.267
 4607POPC   NC359603  21.412  41.445   5.344
 4607POPC   PO459604  21.010  41.984   5.427
 4607POPC   GL159605  21.246  42.037   5.805
 4607POPC   GL259606  21.522  41.818   5.741
 4607POPC   C1A59607  21.369  41.880   6.239
 4607POPC   D2A59608  21.192  41.558   6.505
 4607POPC   C3A59609  21.277  41.617   6.932
 4607POPC   C4A59610  21.202  41.388   7.278
 4607POPC   C1B59611  21.636  41.481   6.030
 4607POPC   C2B59612  21.718  41.455   6.472
 4607POPC   C3B59613  21.724  41.371   6.911
 4607POPC   C4B59614  21.752  41.810   7.061
 4608POPC   NC359615  15.794  21.757   5.506
 4608POPC   PO459616  16.257  22.295   5.411
 4608POPC   GL159617  16.075  22.120   5.819
 4608POPC   GL259618  15.732  22.135   5.837
 4608POPC   C1A59619  15.981  22.015   6.278
 4608POPC   D2A59620  16.225  21.959   6.674
 4608POPC   C3A59621  16.070  22.075   7.079
 4608POPC   C4A59622  15.809  21.854   7.406
 4608POPC   C1B59623  15.666  22.398   6.211
 4608POPC   C2B59624  15.786  22.301   6.656
 4608POPC   C3B59625  15.585  22.172   7.050
 4608POPC   C4B59626  15.696  22.361   7.439
 4609POPC   NC359627  18.958  20.971   5.432
 4609POPC   PO459628  18.985  20.399   5.400
 4609POPC   GL159629  19.198  20.566   5.796
 4609POPC   GL259630  19.036  20.878   5.910
 4609POPC   C1A59631  19.262  20.657   6.282
 4609POPC   D2A59632  18.985  20.814   6.643
 4609POPC   C3A59633  18.909  20.556   7.008
 4609POPC   C4A59634  19.142  20.446   7.388
 4609POPC   C1B59635  18.690  21.104   6.150
 4609POPC   C2B59636  18.495  21.076   6.575
 4609POPC   C3B59637  18.649  21.019   7.009
 4609POPC   C4B59638  18.724  20.832   7.438
 4610POPC   NC359639   5.924  44.195   5.422
 4610POPC   PO459640   5.570  43.577   5.413
 4610POPC   GL159641   5.667  43.884   5.754
 4610POPC   GL259642   6.006  43.986   5.884
 4610POPC   C1A59643   5.573  43.934   6.206
 4610POPC   D2A59644   5.424  43.907   6.646
 4610POPC   C3A59645   5.746  43.799   6.945
 4610POPC   C4A59646   5.669  43.970   7.346
 4610POPC   C1B59647   6.193  43.917   6.300
 4610POPC   C2B59648   6.225  44.094   6.724
 4610POPC   C3B59649   6.136  44.086   7.162
 4610POPC   C4B59650   6.083  44.154   7.610
 4611POPC   NC359651  34.905  10.705   5.063
 4611POPC   PO459652  34.398  10.750   5.584
 4611POPC   GL159653  34.587  10.753   5.931
 4611POPC   GL259654  34.543  10.447   6.074
 4611POPC   C1A59655  34.933  10.756   6.207
 4611POPC   D2A59656  34.805  10.514   6.532
 4611POPC   C3A59657  34.805  10.771   6.895
 4611POPC   C4A59658  34.545  10.801   7.250
 4611POPC   C1B59659  34.369  10.790   6.376
 4611POPC   C2B59660  34.293  10.703   6.796
 4611POPC   C3B59661  34.454  10.353   7.014
 4611POPC   C4B59662  34.435  10.021   7.299
 4612POPC   NC359663  37.940  23.636   5.377
 4612POPC   PO459664  37.341  23.471   5.540
 4612POPC   GL159665  37.677  23.518   5.816
 4612POPC   GL259666  37.640  23.843   5.790
 4612POPC   C1A59667  37.665  23.517   6.271
 4612POPC   D2A59668  37.279  23.573   6.548
 4612POPC   C3A59669  37.429  23.510   6.958
 4612POPC   C4A59670  37.882  23.504   7.098
 4612POPC   C1B59671  37.841  24.019   6.108
 4612POPC   C2B59672  37.621  23.981   6.471
 4612POPC   C3B59673  37.697  23.948   6.879
 4612POPC   C4B59674  37.564  24.255   7.173
 4613POPC   NC359675  43.622  18.234   5.336
 4613POPC   PO459676  44.304  18.128   5.434
 4613POPC   GL159677  44.102  18.381   5.768
 4613POPC   GL259678  43.757  18.278   5.823
 4613POPC   C1A59679  43.972  18.538   6.191
 4613POPC   D2A59680  43.762  18.249   6.497
 4613POPC   C3A59681  43.969  18.252   6.879
 4613POPC   C4A59682  43.676  18.438   7.129
 4613POPC   C1B59683  43.985  18.026   6.114
 4613POPC   C2B59684  44.246  18.031   6.458
 4613POPC   C3B59685  44.229  17.777   6.810
 4613POPC   C4B59686  43.964  17.805   7.167
 4614POPC   NC359687  44.082   8.375   5.452
 4614POPC   PO459688  43.569   8.021   5.299
 4614POPC   GL159689  43.781   8.065   5.723
 4614POPC   GL259690  43.733   8.420   5.867
 4614POPC   C1A59691  43.848   7.913   6.137
 4614POPC   D2A59692  43.944   8.093   6.548
 4614POPC   C3A59693  43.787   7.951   6.968
 4614POPC   C4A59694  43.889   8.100   7.402
 4614POPC   C1B59695  43.873   8.604   6.286
 4614POPC   C2B59696  44.091   8.557   6.689
 4614POPC   C3B59697  44.035   8.508   7.131
 4614POPC   C4B59698  44.024   8.545   7.602
 4615POPC   NC359699  33.910   0.185   5.437
 4615POPC   PO459700  33.550   0.733   5.715
 4615POPC   GL159701  33.689   0.334   5.902
 4615POPC   GL259702  34.041   0.264   5.938
 4615POPC   C1A59703  33.766   0.092   6.301
 4615POPC   D2A59704  33.908   0.086   6.707
 4615POPC   C3A59705  33.600   0.287   6.960
 4615POPC   C4A59706  33.560   0.296   7.402
 4615POPC   C1B59707  33.983   0.630   6.239
 4615POPC   C2B59708  33.843   0.807   6.651
 4615POPC   C3B59709  33.879   0.693   7.106
 4615POPC   C4B59710  33.925   0.950   7.455
 4616POPC   NC359711  26.541   7.763   5.478
 4616POPC   PO459712  26.414   7.182   5.101
 4616POPC   GL159713  26.772   7.247   5.516
 4616POPC   GL259714  26.663   7.377   5.880
 4616POPC   C1A59715  27.135   7.279   5.910
 4616POPC   D2A59716  27.120   7.487   6.348
 4616POPC   C3A59717  27.139   7.296   6.791
 4616POPC   C4A59718  26.964   7.332   7.241
 4616POPC   C1B59719  26.636   7.685   6.196
 4616POPC   C2B59720  26.495   7.771   6.600
 4616POPC   C3B59721  26.492   7.551   6.935
 4616POPC   C4B59722  26.606   7.694   7.305
 4617POPC   NC359723   3.176  37.134   5.465
 4617POPC   PO459724   2.561  36.828   5.283
 4617POPC   GL159725   2.722  36.780   5.689
 4617POPC   GL259726   2.533  37.033   5.833
 4617POPC   C1A59727   2.796  36.685   6.137
 4617POPC   D2A59728   2.976  36.470   6.487
 4617POPC   C3A59729   2.954  36.637   6.904
 4617POPC   C4A59730   2.616  36.709   7.200
 4617POPC   C1B59731   2.737  37.195   6.185
 4617POPC   C2B59732   2.905  37.047   6.553
 4617POPC   C3B59733   2.788  37.129   6.959
 4617POPC   C4B59734   2.763  37.323   7.340
 4618POPC   NC359735  35.416   2.987   5.279
 4618POPC   PO459736  35.684   2.326   5.290
 4618POPC   GL159737  35.475   2.418   5.677
 4618POPC   GL259738  35.318   2.716   5.726
 4618POPC   C1A59739  35.541   2.438   6.120
 4618POPC   D2A59740  35.482   2.699   6.496
 4618POPC   C3A59741  35.444   2.555   6.910
 4618POPC   C4A59742  35.439   2.835   7.283
 4618POPC   C1B59743  35.138   2.817   6.125
 4618POPC   C2B59744  34.967   2.745   6.550
 4618POPC   C3B59745  35.014   2.879   6.978
 4618POPC   C4B59746  34.949   2.688   7.390
 4619POPC   NC359747   9.113  10.674   5.463
 4619POPC   PO459748   8.570  10.325   5.251
 4619POPC   GL159749   8.722  10.368   5.694
 4619POPC   GL259750   9.052  10.252   5.783
 4619POPC   C1A59751   8.698  10.478   6.133
 4619POPC   D2A59752   8.866  10.381   6.536
 4619POPC   C3A59753   8.649  10.558   6.891
 4619POPC   C4A59754   8.711  10.438   7.328
 4619POPC   C1B59755   9.222  10.497   6.160
 4619POPC   C2B59756   9.274  10.667   6.607
 4619POPC   C3B59757   9.178  10.541   7.072
 4619POPC   C4B59758   9.190  10.718   7.536
 4620POPC   NC359759   4.821  19.382   5.493
 4620POPC   PO459760   4.935  18.710   5.569
 4620POPC   GL159761   5.029  19.032   5.843
 4620POPC   GL259762   4.679  19.069   5.891
 4620POPC   C1A59763   5.110  18.961   6.280
 4620POPC   D2A59764   5.182  18.810   6.694
 4620POPC   C3A59765   5.146  19.095   7.049
 4620POPC   C4A59766   5.304  19.246   7.436
 4620POPC   C1B59767   4.750  19.328   6.243
 4620POPC   C2B59768   4.874  19.504   6.634
 4620POPC   C3B59769   4.698  19.366   7.008
 4620POPC   C4B59770   4.659  18.962   7.192
 4621POPC   NC359771   5.288  43.976   5.301
 4621POPC   PO459772   4.636  43.914   5.534
 4621POPC   GL159773   4.996  43.860   5.803
 4621POPC   GL259774   5.224  44.126   5.793
 4621POPC   C1A59775   5.078  43.779   6.234
 4621POPC   D2A59776   4.913  43.981   6.583
 4621POPC   C3A59777   4.909  43.810   6.947
 4621POPC   C4A59778   5.287  43.676   7.142
 4621POPC   C1B59779   5.008  44.282   6.159
 4621POPC   C2B59780   5.088  44.462   6.525
 4621POPC   C3B59781   4.943  44.385   6.923
 4621POPC   C4B59782   5.264  44.213   7.170
 4622POPC   NC359783  19.036  23.519   4.954
 4622POPC   PO459784  18.996  23.981   5.472
 4622POPC   GL159785  19.130  23.689   5.783
 4622POPC   GL259786  19.222  23.368   5.809
 4622POPC   C1A59787  19.315  23.756   6.186
 4622POPC   D2A59788  19.264  23.999   6.542
 4622POPC   C3A59789  19.353  23.862   6.949
 4622POPC   C4A59790  19.013  23.679   7.112
 4622POPC   C1B59791  19.041  23.328   6.182
 4622POPC   C2B59792  19.150  23.474   6.616
 4622POPC   C3B59793  19.309  23.289   7.022
 4622POPC   C4B59794  19.473  23.268   7.469
 4623POPC   NC359795  41.233  12.535   5.383
 4623POPC   PO459796  41.409  11.834   5.419
 4623POPC   GL159797  41.241  12.094   5.740
 4623POPC   GL259798  41.512  12.352   5.772
 4623POPC   C1A59799  41.381  12.063   6.161
 4623POPC   D2A59800  41.488  12.277   6.491
 4623POPC   C3A59801  41.476  12.004   6.784
 4623POPC   C4A59802  41.491  12.073   7.220
 4623POPC   C1B59803  41.781  12.432   6.116
 4623POPC   C2B59804  42.028  12.395   6.509
 4623POPC   C3B59805  41.828  12.346   6.944
 4623POPC   C4B59806  41.866  12.442   7.421
 4624POPC   NC359807  29.692  34.727   5.430
 4624POPC   PO459808  30.155  34.323   5.596
 4624POPC   GL159809  29.836  34.416   5.813
 4624POPC   GL259810  29.681  34.109   5.859
 4624POPC   C1A59811  29.838  34.554   6.205
 4624POPC   D2A59812  29.683  34.421   6.588
 4624POPC   C3A59813  29.831  34.693   6.893
 4624POPC   C4A59814  30.041  34.866   7.218
 4624POPC   C1B59815  30.039  34.072   6.177
 4624POPC   C2B59816  30.209  34.202   6.570
 4624POPC   C3B59817  29.975  34.203   6.965
 4624POPC   C4B59818  29.545  34.232   7.115
 4625POPC   NC359819  15.651   4.540   5.403
 4625POPC   PO459820  15.952   4.094   5.333
 4625POPC   GL159821  15.889   4.196   5.768
 4625POPC   GL259822  15.589   4.018   5.716
 4625POPC   C1A59823  15.876   4.376   6.217
 4625POPC   D2A59824  16.134   4.338   6.617
 4625POPC   C3A59825  16.022   4.346   7.079
 4625POPC   C4A59826  15.961   4.511   7.517
 4625POPC   C1B59827  15.636   3.902   6.159
 4625POPC   C2B59828  15.716   4.042   6.591
 4625POPC   C3B59829  15.766   3.921   7.007
 4625POPC   C4B59830  15.647   4.090   7.401
 4626POPC   NC359831  16.629   2.424   5.519
 4626POPC   PO459832  17.049   2.975   5.552
 4626POPC   GL159833  16.786   2.811   5.823
 4626POPC   GL259834  16.512   2.953   5.682
 4626POPC   C1A59835  16.801   2.655   6.240
 4626POPC   D2A59836  16.947   2.724   6.667
 4626POPC   C3A59837  16.675   2.696   7.026
 4626POPC   C4A59838  16.908   2.624   7.438
 4626POPC   C1B59839  16.436   3.051   6.099
 4626POPC   C2B59840  16.541   3.002   6.541
 4626POPC   C3B59841  16.376   3.157   6.937
 4626POPC   C4B59842  16.247   2.947   7.288
 4627POPC   NC359843  32.040  13.489   5.148
 4627POPC   PO459844  32.513  13.934   5.280
 4627POPC   GL159845  32.322  13.710   5.674
 4627POPC   GL259846  32.000  13.548   5.743
 4627POPC   C1A59847  32.225  13.781   6.159
 4627POPC   D2A59848  32.289  13.966   6.595
 4627POPC   C3A59849  32.322  13.795   7.010
 4627POPC   C4A59850  31.969  13.855   7.248
 4627POPC   C1B59851  32.212  13.283   6.099
 4627POPC   C2B59852  32.296  13.418   6.547
 4627POPC   C3B59853  32.019  13.396   6.913
 4627POPC   C4B59854  32.141  13.376   7.327
 4628POPC   NC359855  25.062  38.542   5.493
 4628POPC   PO459856  25.582  38.121   5.406
 4628POPC   GL159857  25.527  38.424   5.751
 4628POPC   GL259858  25.477  38.796   5.689
 4628POPC   C1A59859  25.277  38.412   6.144
 4628POPC   D2A59860  25.133  38.176   6.500
 4628POPC   C3A59861  25.336  38.323   6.871
 4628POPC   C4A59862  25.131  38.395   7.284
 4628POPC   C1B59863  25.534  38.851   6.160
 4628POPC   C2B59864  25.367  38.756   6.584
 4628POPC   C3B59865  25.251  38.821   7.030
 4628POPC   C4B59866  25.397  38.754   7.477
 4629POPC   NC359867  31.793   9.941   5.480
 4629POPC   PO459868  31.140   9.575   5.365
 4629POPC   GL159869  31.153   9.461   5.781
 4629POPC   GL259870  31.516   9.538   5.758
 4629POPC   C1A59871  31.163   9.496   6.225
 4629POPC   D2A59872  30.999   9.670   6.603
 4629POPC   C3A59873  31.295   9.845   6.911
 4629POPC   C4A59874  31.254   9.727   7.315
 4629POPC   C1B59875  31.668   9.495   6.185
 4629POPC   C2B59876  31.530   9.466   6.604
 4629POPC   C3B59877  31.754   9.544   6.956
 4629POPC   C4B59878  31.763   9.752   7.318
 4630POPC   NC359879  12.507  39.865   5.448
 4630POPC   PO459880  12.053  40.362   5.530
 4630POPC   GL159881  11.929  40.159   5.865
 4630POPC   GL259882  12.003  39.806   5.801
 4630POPC   C1A59883  11.835  40.319   6.247
 4630POPC   D2A59884  11.951  40.267   6.654
 4630POPC   C3A59885  12.380  40.250   6.779
 4630POPC   C4A59886  12.481  40.158   7.202
 4630POPC   C1B59887  11.756  39.814   6.193
 4630POPC   C2B59888  11.823  39.726   6.629
 4630POPC   C3B59889  11.976  39.934   7.030
 4630POPC   C4B59890  11.901  40.365   7.178
 4631POPC   NC359891  24.679  14.658   5.390
 4631POPC   PO459892  24.112  14.475   5.516
 4631POPC   GL159893  24.435  14.624   5.846
 4631POPC   GL259894  24.762  14.434   5.861
 4631POPC   C1A59895  24.547  14.604   6.307
 4631POPC   D2A59896  24.344  14.610   6.698
 4631POPC   C3A59897  24.517  14.498   7.102
 4631POPC   C4A59898  24.596  14.383   7.521
 4631POPC   C1B59899  24.805  14.158   6.250
 4631POPC   C2B59900  24.659  14.178   6.683
 4631POPC   C3B59901  24.811  14.034   7.092
 4631POPC   C4B59902  24.665  13.841   7.482
 4632POPC   NC359903  22.830  26.257   5.497
 4632POPC   PO459904  23.397  26.579   5.530
 4632POPC   GL159905  23.130  26.559   5.872
 4632POPC   GL259906  22.784  26.697   5.783
 4632POPC   C1A59907  23.259  26.627   6.304
 4632POPC   D2A59908  23.081  26.984   6.555
 4632POPC   C3A59909  22.888  27.003   6.956
 4632POPC   C4A59910  23.034  26.624   7.094
 4632POPC   C1B59911  22.756  26.660   6.246
 4632POPC   C2B59912  22.657  26.601   6.702
 4632POPC   C3B59913  22.525  26.686   7.123
 4632POPC   C4B59914  22.622  27.003   7.428
 4633POPC   NC359915  21.805  43.709   5.392
 4633POPC   PO459916  22.281  44.158   5.239
 4633POPC   GL159917  22.105  44.036   5.655
 4633POPC   GL259918  22.351  44.209   5.800
 4633POPC   C1A59919  22.106  43.907   6.130
 4633POPC   D2A59920  22.130  43.686   6.572
 4633POPC   C3A59921  22.065  43.926   6.943
 4633POPC   C4A59922  22.033  43.950   7.364
 4633POPC   C1B59923  22.378  44.353   6.192
 4633POPC   C2B59924  22.347  44.173   6.577
 4633POPC   C3B59925  22.407  44.319   6.987
 4633POPC   C4B59926  22.506  44.216   7.383
 4634POPC   NC359927   8.449  30.846   5.333
 4634POPC   PO459928   7.817  30.584   5.327
 4634POPC   GL159929   8.140  30.546   5.661
 4634POPC   GL259930   8.033  30.329   5.959
 4634POPC   C1A59931   8.235  30.787   6.031
 4634POPC   D2A59932   8.243  30.931   6.449
 4634POPC   C3A59933   8.126  30.700   6.788
 4634POPC   C4A59934   8.136  30.771   7.198
 4634POPC   C1B59935   8.269  30.361   6.376
 4634POPC   C2B59936   8.567  30.404   6.743
 4634POPC   C3B59937   8.525  30.408   7.204
 4634POPC   C4B59938   8.336  30.218   7.578
 4635POPC   NC359939  30.397   0.425   5.405
 4635POPC   PO459940  31.097   0.743   5.394
 4635POPC   GL159941  30.793   0.646   5.735
 4635POPC   GL259942  30.748   0.282   5.760
 4635POPC   C1A59943  30.644   0.594   6.196
 4635POPC   D2A59944  30.930   0.461   6.563
 4635POPC   C3A59945  30.880   0.581   7.040
 4635POPC   C4A59946  30.494   0.721   7.242
 4635POPC   C1B59947  30.784   0.095   6.163
 4635POPC   C2B59948  30.639   0.025   6.575
 4635POPC   C3B59949  30.493   0.245   6.953
 4635POPC   C4B59950  30.499   0.068   7.355
 4636POPC   NC359951  29.443   0.657   5.598
 4636POPC   PO459952  29.944   0.284   5.207
 4636POPC   GL159953  29.894   0.417   5.657
 4636POPC   GL259954  29.793   0.128   5.869
 4636POPC   C1A59955  30.041   0.567   6.066
 4636POPC   D2A59956  30.197   0.825   6.401
 4636POPC   C3A59957  30.088   0.801   6.850
 4636POPC   C4A59958  29.868   0.496   7.120
 4636POPC   C1B59959  29.820   0.182   6.325
 4636POPC   C2B59960  29.672   0.227   6.738
 4636POPC   C3B59961  29.535   0.050   7.105
 4636POPC   C4B59962  29.656   0.170   7.478
 4637POPC   NC359963  43.792  41.795   5.328
 4637POPC   PO459964  43.966  41.177   5.351
 4637POPC   GL159965  43.874  41.440   5.686
 4637POPC   GL259966  44.224  41.522   5.694
 4637POPC   C1A59967  43.917  41.642   6.086
 4637POPC   D2A59968  44.099  41.571   6.483
 4637POPC   C3A59969  43.850  41.394   6.819
 4637POPC   C4A59970  43.648  41.487   7.202
 4637POPC   C1B59971  44.300  41.281   6.053
 4637POPC   C2B59972  44.491  41.241   6.458
 4637POPC   C3B59973  44.342  41.271   6.884
 4637POPC   C4B59974  44.166  41.489   7.249
 4638POPC   NC359975  15.352  13.267   5.379
 4638POPC   PO459976  15.095  13.901   5.443
 4638POPC   GL159977  15.177  13.674   5.818
 4638POPC   GL259978  15.240  13.312   5.883
 4638POPC   C1A59979  15.141  13.695   6.255
 4638POPC   D2A59980  15.228  13.562   6.661
 4638POPC   C3A59981  15.079  13.782   6.994
 4638POPC   C4A59982  15.315  13.950   7.337
 4638POPC   C1B59983  14.853  13.283   6.153
 4638POPC   C2B59984  14.748  13.420   6.583
 4638POPC   C3B59985  14.886  13.299   7.018
 4638POPC   C4B59986  15.064  13.483   7.412
 4639POPC   NC359987  15.748  30.657   5.425
 4639POPC   PO459988  16.466  30.444   5.622
 4639POPC   GL159989  16.100  30.633   5.831
 4639POPC   GL259990  15.798  30.409   5.861
 4639POPC   C1A59991  16.076  30.818   6.252
 4639POPC   D2A59992  15.998  30.640   6.680
 4639POPC   C3A59993  16.023  30.926   7.030
 4639POPC   C4A59994  15.996  31.166   7.449
 4639POPC   C1B59995  16.019  30.314   6.249
 4639POPC   C2B59996  16.161  30.118   6.636
 4639POPC   C3B59997  16.135  30.266   7.055
 4639POPC   C4B59998  16.364  30.481   7.366
 4640POPC   NC359999  36.820  12.754   5.418
 4640POPC   PO460000  37.173  13.337   5.485
 4640POPC   GL160001  36.916  13.134   5.766
 4640POPC   GL260002  37.082  13.303   6.027
 4640POPC   C1A60003  36.858  12.862   6.152
 4640POPC   D2A60004  37.013  12.958   6.574
 4640POPC   C3A60005  36.837  12.759   6.910
 4640POPC   C4A60006  36.922  12.803   7.309
 4640POPC   C1B60007  36.744  13.353   6.360
 4640POPC   C2B60008  36.495  13.089   6.680
 4640POPC   C3B60009  36.476  13.028   7.159
 4640POPC   C4B60010  36.623  13.070   7.615
 4641POPC   NC360011   7.630  35.848   5.431
 4641POPC   PO460012   7.149  36.325   5.485
 4641POPC   GL160013   7.364  36.130   5.816
 4641POPC   GL260014   7.148  35.847   5.761
 4641POPC   C1A60015   7.401  36.132   6.279
 4641POPC   D2A60016   7.503  36.309   6.708
 4641POPC   C3A60017   7.421  36.238   7.157
 4641POPC   C4A60018   7.668  36.421   7.516
 4641POPC   C1B60019   7.158  35.677   6.184
 4641POPC   C2B60020   7.266  35.791   6.622
 4641POPC   C3B60021   7.010  36.039   6.898
 4641POPC   C4B60022   7.050  35.917   7.313
 4642POPC   NC360023   6.694  29.125   5.454
 4642POPC   PO460024   6.040  29.240   5.254
 4642POPC   GL160025   6.273  29.397   5.705
 4642POPC   GL260026   6.481  29.125   5.921
 4642POPC   C1A60027   6.388  29.560   6.169
 4642POPC   D2A60028   6.684  29.411   6.506
 4642POPC   C3A60029   6.791  29.361   6.932
 4642POPC   C4A60030   6.444  29.222   7.169
 4642POPC   C1B60031   6.875  29.053   6.215
 4642POPC   C2B60032   6.981  28.910   6.675
 4642POPC   C3B60033   6.984  28.959   7.164
 4642POPC   C4B60034   6.862  28.871   7.648
 4643POPC   NC360035  44.663  30.836   5.417
 4643POPC   PO460036  44.546  31.531   5.436
 4643POPC   GL160037  44.734  31.498   5.826
 4643POPC   GL260038  44.815  31.165   5.781
 4643POPC   C1A60039  44.503  31.562   6.221
 4643POPC   D2A60040  44.250  31.584   6.583
 4643POPC   C3A60041  44.418  31.557   6.977
 4643POPC   C4A60042  44.536  31.290   7.315
 4643POPC   C1B60043  44.687  31.080   6.178
 4643POPC   C2B60044  44.583  31.190   6.567
 4643POPC   C3B60045  44.817  31.201   6.905
 4643POPC   C4B60046  44.844  30.894   7.195
 4644POPC   NC360047   9.669   7.474   5.333
 4644POPC   PO460048  10.178   7.402   5.745
 4644POPC   GL160049   9.780   7.554   5.853
 4644POPC   GL260050   9.644   7.245   5.791
 4644POPC   C1A60051   9.711   7.508   6.278
 4644POPC   D2A60052  10.018   7.448   6.620
 4644POPC   C3A60053   9.839   7.543   7.016
 4644POPC   C4A60054   9.445   7.468   7.200
 4644POPC   C1B60055   9.326   7.182   6.104
 4644POPC   C2B60056   9.382   7.224   6.542
 4644POPC   C3B60057   9.673   7.089   6.817
 4644POPC   C4B60058   9.549   6.977   7.197
 4645POPC   NC360059  19.336   4.959   5.341
 4645POPC   PO460060  18.722   5.261   5.362
 4645POPC   GL160061  18.960   5.041   5.674
 4645POPC   GL260062  19.263   5.221   5.770
 4645POPC   C1A60063  18.823   4.893   6.093
 4645POPC   D2A60064  18.686   5.063   6.490
 4645POPC   C3A60065  18.972   5.181   6.817
 4645POPC   C4A60066  18.910   5.003   7.204
 4645POPC   C1B60067  19.321   5.003   6.154
 4645POPC   C2B60068  19.454   4.843   6.565
 4645POPC   C3B60069  19.358   4.897   7.004
 4645POPC   C4B60070  19.358   5.187   7.373
 4646POPC   NC360071  14.294  21.231   5.426
 4646POPC   PO460072  14.767  21.669   5.222
 4646POPC   GL160073  14.719  21.505   5.674
 4646POPC   GL260074  14.873  21.790   5.796
 4646POPC   C1A60075  14.634  21.270   6.123
 4646POPC   D2A60076  14.580  20.970   6.537
 4646POPC   C3A60077  14.349  20.990   6.927
 4646POPC   C4A60078  14.170  21.363   7.073
 4646POPC   C1B60079  14.642  21.785   6.176
 4646POPC   C2B60080  14.564  21.577   6.563
 4646POPC   C3B60081  14.524  21.740   6.973
 4646POPC   C4B60082  14.588  21.479   7.359
 4647POPC   NC360083  21.576  31.089   5.620
 4647POPC   PO460084  21.182  30.609   5.309
 4647POPC   GL160085  21.228  30.504   5.754
 4647POPC   GL260086  21.168  30.858   5.842
 4647POPC   C1A60087  21.450  30.564   6.186
 4647POPC   D2A60088  21.710  30.539   6.591
 4647POPC   C3A60089  21.482  30.528   7.012
 4647POPC   C4A60090  21.229  30.767   7.265
 4647POPC   C1B60091  21.372  31.065   6.233
 4647POPC   C2B60092  21.407  30.948   6.663
 4647POPC   C3B60093  21.656  31.007   7.022
 4647POPC   C4B60094  21.646  31.074   7.442
 4648POPC   NC360095  14.720  13.662   5.568
 4648POPC   PO460096  14.150  13.365   5.391
 4648POPC   GL160097  14.248  13.520   5.788
 4648POPC   GL260098  14.089  13.821   5.871
 4648POPC   C1A60099  14.430  13.606   6.206
 4648POPC   D2A60100  14.410  13.874   6.589
 4648POPC   C3A60101  14.562  13.710   6.984
 4648POPC   C4A60102  14.554  13.479   7.367
 4648POPC   C1B60103  13.985  13.848   6.297
 4648POPC   C2B60104  13.947  13.598   6.670
 4648POPC   C3B60105  14.075  13.574   7.106
 4648POPC   C4B60106  14.099  13.477   7.595
 4649POPC   NC360107  28.051  31.719   5.628
 4649POPC   PO460108  28.357  31.114   5.730
 4649POPC   GL160109  28.344  31.464   5.959
 4649POPC   GL260110  28.243  31.310   6.256
 4649POPC   C1A60111  28.606  31.682   6.257
 4649POPC   D2A60112  28.582  31.736   6.728
 4649POPC   C3A60113  28.524  31.365   6.981
 4649POPC   C4A60114  28.300  30.996   7.098
 4649POPC   C1B60115  28.105  31.784   6.275
 4649POPC   C2B60116  28.160  32.002   6.631
 4649POPC   C3B60117  28.015  31.902   7.008
 4649POPC   C4B60118  28.247  31.661   7.258
 4650POPC   NC360119  32.404  14.385   5.401
 4650POPC   PO460120  31.787  14.419   5.672
 4650POPC   GL160121  32.183  14.542   5.838
 4650POPC   GL260122  32.313  14.189   5.869
 4650POPC   C1A60123  32.276  14.500   6.266
 4650POPC   D2A60124  31.967  14.376   6.569
 4650POPC   C3A60125  32.117  14.327   6.987
 4650POPC   C4A60126  31.981  14.525   7.383
 4650POPC   C1B60127  32.606  14.134   6.237
 4650POPC   C2B60128  32.620  14.352   6.680
 4650POPC   C3B60129  32.673  14.170   7.105
 4650POPC   C4B60130  32.359  14.192   7.430
 4651POPC   NC360131  29.879  36.311   5.350
 4651POPC   PO460132  29.551  35.767   5.617
 4651POPC   GL160133  29.969  35.731   5.721
 4651POPC   GL260134  29.923  36.074   5.803
 4651POPC   C1A60135  30.152  35.696   6.147
 4651POPC   D2A60136  30.322  35.920   6.528
 4651POPC   C3A60137  30.048  35.862   6.898
 4651POPC   C4A60138  29.916  35.792   7.311
 4651POPC   C1B60139  30.009  36.195   6.209
 4651POPC   C2B60140  29.827  36.233   6.592
 4651POPC   C3B60141  29.861  36.378   6.993
 4651POPC   C4B60142  29.686  36.257   7.359
 4652POPC   NC360143   9.167  28.775   5.442
 4652POPC   PO460144   8.769  28.246   5.466
 4652POPC   GL160145   8.810  28.580   5.772
 4652POPC   GL260146   9.133  28.427   5.835
 4652POPC   C1A60147   8.946  28.777   6.184
 4652POPC   D2A60148   8.947  28.934   6.615
 4652POPC   C3A60149   8.749  28.686   6.940
 4652POPC   C4A60150   8.968  28.727   7.319
 4652POPC   C1B60151   8.887  28.292   6.210
 4652POPC   C2B60152   9.076  28.444   6.596
 4652POPC   C3B60153   9.157  28.379   7.024
 4652POPC   C4B60154   8.923  28.206   7.344
 4653POPC   NC360155  34.919  18.909   5.098
 4653POPC   PO460156  35.523  19.088   5.408
 4653POPC   GL160157  35.521  18.858   5.808
 4653POPC   GL260158  35.519  19.168   5.924
 4653POPC   C1A60159  35.370  18.824   6.263
 4653POPC   D2A60160  35.168  18.807   6.696
 4653POPC   C3A60161  35.302  19.062   7.061
 4653POPC   C4A60162  35.221  18.972   7.520
 4653POPC   C1B60163  35.332  19.347   6.263
 4653POPC   C2B60164  35.151  19.375   6.644
 4653POPC   C3B60165  34.959  19.521   6.996
 4653POPC   C4B60166  35.110  19.456   7.374
 4654POPC   NC360167  39.863  10.268   5.252
 4654POPC   PO460168  40.228  10.744   5.536
 4654POPC   GL160169  40.085  10.691   5.932
 4654POPC   GL260170  40.082  10.331   5.857
 4654POPC   C1A60171  39.833  10.565   6.336
 4654POPC   D2A60172  39.708  10.366   6.772
 4654POPC   C3A60173  39.933  10.496   7.160
 4654POPC   C4A60174  39.858  10.616   7.585
 4654POPC   C1B60175  40.322  10.382   6.260
 4654POPC   C2B60176  40.228  10.403   6.721
 4654POPC   C3B60177  40.319  10.154   7.090
 4654POPC   C4B60178  40.260  10.273   7.536
 4655POPC   NC360179  12.278  34.780   5.351
 4655POPC   PO460180  11.814  34.276   5.311
 4655POPC   GL160181  12.005  34.418   5.716
 4655POPC   GL260182  12.318  34.258   5.755
 4655POPC   C1A60183  12.090  34.478   6.191
 4655POPC   D2A60184  11.994  34.198   6.566
 4655POPC   C3A60185  12.070  34.331   6.999
 4655POPC   C4A60186  11.992  34.713   7.242
 4655POPC   C1B60187  12.566  34.289   6.111
 4655POPC   C2B60188  12.487  34.397   6.530
 4655POPC   C3B60189  12.314  34.725   6.770
 4655POPC   C4B60190  12.482  34.761   7.165
 4656POPC   NC360191  38.770  40.153   5.004
 4656POPC   PO460192  39.255  40.483   5.363
 4656POPC   GL160193  39.257  40.292   5.815
 4656POPC   GL260194  39.564  40.077   5.872
 4656POPC   C1A60195  39.045  40.178   6.249
 4656POPC   D2A60196  38.873  39.939   6.641
 4656POPC   C3A60197  39.079  40.115   7.022
 4656POPC   C4A60198  39.315  40.332   7.335
 4656POPC   C1B60199  39.452  39.840   6.246
 4656POPC   C2B60200  39.400  39.898   6.687
 4656POPC   C3B60201  39.587  39.909   7.077
 4656POPC   C4B60202  39.530  39.928   7.551
 4657POPC   NC360203   6.337  41.715   5.394
 4657POPC   PO460204   6.970  41.430   5.283
 4657POPC   GL160205   6.902  41.365   5.771
 4657POPC   GL260206   6.671  41.600   5.939
 4657POPC   C1A60207   6.897  41.132   6.206
 4657POPC   D2A60208   6.642  41.102   6.602
 4657POPC   C3A60209   6.738  41.281   7.033
 4657POPC   C4A60210   6.654  41.269   7.501
 4657POPC   C1B60211   6.769  41.582   6.402
 4657POPC   C2B60212   6.872  41.711   6.796
 4657POPC   C3B60213   6.558  41.788   7.122
 4657POPC   C4B60214   6.496  41.747   7.546
 4658POPC   NC360215  36.028  10.303   5.698
 4658POPC   PO460216  36.542  10.596   5.420
 4658POPC   GL160217  36.257  10.752   5.841
 4658POPC   GL260218  35.885  10.784   5.816
 4658POPC   C1A60219  36.133  10.506   6.283
 4658POPC   D2A60220  36.319  10.492   6.678
 4658POPC   C3A60221  36.102  10.357   6.979
 4658POPC   C4A60222  36.261  10.368   7.355
 4658POPC   C1B60223  35.884  10.932   6.216
 4658POPC   C2B60224  35.821  10.760   6.620
 4658POPC   C3B60225  35.972  10.861   7.007
 4658POPC   C4B60226  35.823  10.610   7.320
 4659POPC   NC360227  29.652  21.685   5.426
 4659POPC   PO460228  30.177  21.181   5.402
 4659POPC   GL160229  30.231  21.243   5.810
 4659POPC   GL260230  30.064  21.595   5.772
 4659POPC   C1A60231  29.981  21.258   6.180
 4659POPC   D2A60232  29.747  21.370   6.533
 4659POPC   C3A60233  29.932  21.319   6.923
 4659POPC   C4A60234  30.185  21.535   7.223
 4659POPC   C1B60235  29.727  21.708   6.096
 4659POPC   C2B60236  29.379  21.710   6.446
 4659POPC   C3B60237  29.482  21.597   6.902
 4659POPC   C4B60238  29.683  21.607   7.298
 4660POPC   NC360239  37.004  31.812   5.270
 4660POPC   PO460240  36.550  31.361   5.494
 4660POPC   GL160241  36.763  31.611   5.795
 4660POPC   GL260242  37.076  31.551   5.704
 4660POPC   C1A60243  36.746  31.734   6.217
 4660POPC   D2A60244  36.627  31.575   6.619
 4660POPC   C3A60245  36.803  31.688   7.009
 4660POPC   C4A60246  36.757  31.296   7.231
 4660POPC   C1B60247  37.225  31.517   6.108
 4660POPC   C2B60248  37.150  31.589   6.536
 4660POPC   C3B60249  37.120  31.297   6.859
 4660POPC   C4B60250  37.252  31.411   7.262
 4661POPC   NC360251  33.244  37.973   5.112
 4661POPC   PO460252  33.251  37.420   5.530
 4661POPC   GL160253  32.959  37.580   5.811
 4661POPC   GL260254  32.623  37.636   5.735
 4661POPC   C1A60255  32.937  37.791   6.185
 4661POPC   D2A60256  33.156  37.662   6.548
 4661POPC   C3A60257  33.321  37.951   6.848
 4661POPC   C4A60258  33.170  37.855   7.258
 4661POPC   C1B60259  32.620  37.369   6.134
 4661POPC   C2B60260  32.622  37.548   6.541
 4661POPC   C3B60261  32.789  37.748   6.894
 4661POPC   C4B60262  32.675  37.743   7.281
 4662POPC   NC360263  23.024   1.819   5.429
 4662POPC   PO460264  22.661   2.348   5.169
 4662POPC   GL160265  22.924   2.324   5.649
 4662POPC   GL260266  22.676   2.406   5.831
 4662POPC   C1A60267  23.193   2.082   6.002
 4662POPC   D2A60268  23.075   1.765   6.341
 4662POPC   C3A60269  23.007   1.808   6.805
 4662POPC   C4A60270  23.101   1.948   7.224
 4662POPC   C1B60271  22.805   2.280   6.241
 4662POPC   C2B60272  22.652   2.164   6.635
 4662POPC   C3B60273  22.763   2.310   7.034
 4662POPC   C4B60274  22.671   2.153   7.434
 4663POPC   NC360275   2.987   6.222   5.534
 4663POPC   PO460276   2.751   5.590   5.434
 4663POPC   GL160277   2.614   5.871   5.773
 4663POPC   GL260278   2.382   5.645   5.901
 4663POPC   C1A60279   2.757   6.022   6.212
 4663POPC   D2A60280   2.609   6.129   6.663
 4663POPC   C3A60281   2.750   5.851   6.987
 4663POPC   C4A60282   2.854   5.973   7.380
 4663POPC   C1B60283   2.718   5.488   6.144
 4663POPC   C2B60284   2.890   5.634   6.541
 4663POPC   C3B60285   3.069   5.459   6.908
 4663POPC   C4B60286   2.958   5.445   7.340
 4664POPC   NC360287  20.763  20.251   5.611
 4664POPC   PO460288  20.922  20.706   5.170
 4664POPC   GL160289  20.922  20.851   5.662
 4664POPC   GL260290  20.904  20.611   5.938
 4664POPC   C1A60291  20.650  21.046   6.038
 4664POPC   D2A60292  20.705  20.900   6.484
 4664POPC   C3A60293  20.443  20.882   6.866
 4664POPC   C4A60294  20.569  20.694   7.275
 4664POPC   C1B60295  20.706  20.416   6.313
 4664POPC   C2B60296  20.727  20.442   6.783
 4664POPC   C3B60297  20.584  20.207   7.152
 4664POPC   C4B60298  20.693  20.239   7.620
 4665POPC   NC360299  18.865  11.967   5.097
 4665POPC   PO460300  19.264  12.367   5.476
 4665POPC   GL160301  19.049  12.118   5.741
 4665POPC   GL260302  18.854  11.870   5.600
 4665POPC   C1A60303  19.132  12.138   6.170
 4665POPC   D2A60304  19.257  11.816   6.441
 4665POPC   C3A60305  19.075  11.822   6.849
 4665POPC   C4A60306  19.328  11.939   7.205
 4665POPC   C1B60307  18.835  11.728   6.055
 4665POPC   C2B60308  18.723  11.932   6.418
 4665POPC   C3B60309  18.562  11.942   6.810
 4665POPC   C4B60310  18.723  11.890   7.233
 4666POPC   NC360311   1.418   4.527   5.455
 4666POPC   PO460312   1.143   3.972   5.386
 4666POPC   GL160313   1.246   4.115   5.794
 4666POPC   GL260314   1.142   4.462   5.916
 4666POPC   C1A60315   1.159   4.059   6.224
 4666POPC   D2A60316   1.168   4.375   6.512
 4666POPC   C3A60317   1.277   4.242   6.890
 4666POPC   C4A60318   1.101   4.396   7.218
 4666POPC   C1B60319   1.539   4.473   6.187
 4666POPC   C2B60320   1.691   4.562   6.659
 4666POPC   C3B60321   1.678   4.455   7.132
 4666POPC   C4B60322   1.488   4.618   7.519
 4667POPC   NC360323   0.985  42.498   5.459
 4667POPC   PO460324   1.368  42.000   5.430
 4667POPC   GL160325   1.201  42.175   5.813
 4667POPC   GL260326   1.282  42.529   5.874
 4667POPC   C1A60327   0.922  42.325   6.159
 4667POPC   D2A60328   0.835  42.376   6.574
 4667POPC   C3A60329   1.068  42.083   6.835
 4667POPC   C4A60330   1.085  42.090   7.273
 4667POPC   C1B60331   1.245  42.694   6.299
 4667POPC   C2B60332   1.062  42.831   6.689
 4667POPC   C3B60333   0.965  42.554   7.038
 4667POPC   C4B60334   1.349  42.516   7.192
 4668POPC   NC360335   3.277  28.875   5.502
 4668POPC   PO460336   3.915  29.131   5.390
 4668POPC   GL160337   3.616  29.179   5.781
 4668POPC   GL260338   3.327  29.409   5.824
 4668POPC   C1A60339   3.466  28.935   6.180
 4668POPC   D2A60340   3.416  29.090   6.638
 4668POPC   C3A60341   3.531  28.860   7.042
 4668POPC   C4A60342   3.501  28.882   7.535
 4668POPC   C1B60343   3.573  29.427   6.246
 4668POPC   C2B60344   3.825  29.480   6.619
 4668POPC   C3B60345   3.676  29.344   7.045
 4668POPC   C4B60346   3.770  29.327   7.502
 4669POPC   NC360347  21.661  27.824   5.281
 4669POPC   PO460348  22.210  27.442   5.379
 4669POPC   GL160349  22.264  27.507   5.836
 4669POPC   GL260350  21.940  27.658   5.868
 4669POPC   C1A60351  22.484  27.477   6.283
 4669POPC   D2A60352  22.423  27.636   6.741
 4669POPC   C3A60353  22.599  27.423   7.116
 4669POPC   C4A60354  22.534  27.477   7.579
 4669POPC   C1B60355  22.009  27.678   6.331
 4669POPC   C2B60356  21.956  27.481   6.746
 4669POPC   C3B60357  22.105  27.553   7.171
 4669POPC   C4B60358  21.815  27.624   7.490
 4670POPC   NC360359  11.021  20.116   5.341
 4670POPC   PO460360  11.640  19.691   5.450
 4670POPC   GL160361  11.427  19.889   5.795
 4670POPC   GL260362  11.073  19.843   5.780
 4670POPC   C1A60363  11.362  19.779   6.242
 4670POPC   D2A60364  11.322  19.686   6.677
 4670POPC   C3A60365  11.190  19.985   7.009
 4670POPC   C4A60366  11.302  19.648   7.255
 4670POPC   C1B60367  10.968  20.072   6.153
 4670POPC   C2B60368  10.842  19.905   6.594
 4670POPC   C3B60369  10.834  19.631   6.985
 4670POPC   C4B60370  10.838  19.711   7.436
 4671POPC   NC360371  23.947   6.002   5.421
 4671POPC   PO460372  23.445   5.472   5.502
 4671POPC   GL160373  23.709   5.708   5.813
 4671POPC   GL260374  23.399   5.716   6.017
 4671POPC   C1A60375  23.825   5.883   6.232
 4671POPC   D2A60376  23.506   5.846   6.562
 4671POPC   C3A60377  23.578   5.729   6.989
 4671POPC   C4A60378  23.809   6.103   7.131
 4671POPC   C1B60379  23.420   6.187   6.158
 4671POPC   C2B60380  23.257   6.321   6.567
 4671POPC   C3B60381  23.319   6.162   6.977
 4671POPC   C4B60382  23.445   6.217   7.455
 4672POPC   NC360383  11.173   9.404   5.338
 4672POPC   PO460384  11.622   9.869   5.284
 4672POPC   GL160385  11.464   9.723   5.682
 4672POPC   GL260386  11.630  10.010   5.827
 4672POPC   C1A60387  11.324   9.530   6.094
 4672POPC   D2A60388  11.222   9.565   6.533
 4672POPC   C3A60389  11.444   9.450   6.902
 4672POPC   C4A60390  11.179   9.675   7.183
 4672POPC   C1B60391  11.629   9.920   6.226
 4672POPC   C2B60392  11.675   9.896   6.616
 4672POPC   C3B60393  11.572   9.945   6.978
 4672POPC   C4B60394  11.647   9.713   7.315
 4673POPC   NC360395  32.370   5.438   5.517
 4673POPC   PO460396  32.025   6.076   5.282
 4673POPC   GL160397  32.228   6.057   5.705
 4673POPC   GL260398  32.532   5.868   5.740
 4673POPC   C1A60399  32.143   6.073   6.184
 4673POPC   D2A60400  31.920   6.134   6.596
 4673POPC   C3A60401  32.040   5.924   6.969
 4673POPC   C4A60402  31.746   5.642   7.169
 4673POPC   C1B60403  32.606   5.814   6.155
 4673POPC   C2B60404  32.389   5.763   6.546
 4673POPC   C3B60405  32.561   5.831   6.924
 4673POPC   C4B60406  32.614   6.003   7.283
 4674POPC   NC360407  27.751   6.615   5.208
 4674POPC   PO460408  27.108   6.809   5.451
 4674POPC   GL160409  27.514   6.758   5.708
 4674POPC   GL260410  27.691   6.417   5.759
 4674POPC   C1A60411  27.538   6.827   6.165
 4674POPC   D2A60412  27.430   6.741   6.597
 4674POPC   C3A60413  27.680   6.788   6.981
 4674POPC   C4A60414  27.503   7.065   7.290
 4674POPC   C1B60415  27.586   6.328   6.223
 4674POPC   C2B60416  27.435   6.236   6.656
 4674POPC   C3B60417  27.609   6.289   7.102
 4674POPC   C4B60418  27.588   6.226   7.556
 4675POPC   NC360419  39.967   8.413   5.329
 4675POPC   PO460420  39.885   9.120   5.451
 4675POPC   GL160421  40.018   8.816   5.727
 4675POPC   GL260422  40.357   8.738   5.682
 4675POPC   C1A60423  39.998   8.807   6.178
 4675POPC   D2A60424  39.796   8.952   6.565
 4675POPC   C3A60425  39.952   8.928   6.994
 4675POPC   C4A60426  40.019   8.864   7.500
 4675POPC   C1B60427  40.410   9.067   6.007
 4675POPC   C2B60428  40.257   9.230   6.395
 4675POPC   C3B60429  40.410   9.170   6.804
 4675POPC   C4B60430  40.308   9.182   7.208
 4676POPC   NC360431  42.313  42.698   5.216
 4676POPC   PO460432  42.677  42.227   5.465
 4676POPC   GL160433  42.441  42.565   5.711
 4676POPC   GL260434  42.199  42.374   5.918
 4676POPC   C1A60435  42.488  42.716   6.154
 4676POPC   D2A60436  42.435  42.377   6.447
 4676POPC   C3A60437  42.506  42.404   6.893
 4676POPC   C4A60438  42.600  42.049   7.128
 4676POPC   C1B60439  42.069  42.028   6.193
 4676POPC   C2B60440  41.860  41.949   6.601
 4676POPC   C3B60441  42.062  42.059   6.988
 4676POPC   C4B60442  42.205  42.315   7.317
 4677POPC   NC360443  26.309  18.170   5.233
 4677POPC   PO460444  25.793  17.775   5.304
 4677POPC   GL160445  25.922  18.089   5.670
 4677POPC   GL260446  25.838  18.427   5.781
 4677POPC   C1A60447  26.105  18.148   6.121
 4677POPC   D2A60448  26.257  18.385   6.504
 4677POPC   C3A60449  26.022  18.405   6.922
 4677POPC   C4A60450  26.043  18.242   7.337
 4677POPC   C1B60451  25.613  18.310   6.178
 4677POPC   C2B60452  25.813  18.122   6.553
 4677POPC   C3B60453  25.835  17.941   6.973
 4677POPC   C4B60454  25.620  17.972   7.345
 4678POPC   NC360455  44.399  40.436   5.605
 4678POPC   PO460456  44.652  39.818   5.331
 4678POPC   GL160457  44.798  40.050   5.705
 4678POPC   GL260458   0.160  40.128   5.826
 4678POPC   C1A60459  44.803  39.928   6.131
 4678POPC   D2A60460  44.932  39.918   6.546
 4678POPC   C3A60461  44.706  40.000   6.923
 4678POPC   C4A60462  44.411  39.954   7.255
 4678POPC   C1B60463   0.120  40.331   6.268
 4678POPC   C2B60464  44.883  40.419   6.663
 4678POPC   C3B60465  44.948  40.451   7.113
 4678POPC   C4B60466  44.971  40.108   7.381
 4679POPC   NC360467  31.889  41.367   5.415
 4679POPC   PO460468  31.268  41.595   5.302
 4679POPC   GL160469  31.502  41.533   5.710
 4679POPC   GL260470  31.615  41.225   5.836
 4679POPC   C1A60471  31.437  41.581   6.160
 4679POPC   D2A60472  31.328  41.314   6.501
 4679POPC   C3A60473  31.339  41.538   6.891
 4679POPC   C4A60474  31.366  41.395   7.289
 4679POPC   C1B60475  31.864  41.314   6.204
 4679POPC   C2B60476  31.812  41.506   6.617
 4679POPC   C3B60477  31.804  41.356   7.054
 4679POPC   C4B60478  31.855  41.323   7.510
 4680POPC   NC360479   9.332  37.138   5.432
 4680POPC   PO460480   8.802  36.753   5.438
 4680POPC   GL160481   8.906  37.040   5.806
 4680POPC   GL260482   9.199  37.291   5.896
 4680POPC   C1A60483   9.036  36.835   6.199
 4680POPC   D2A60484   9.330  36.731   6.556
 4680POPC   C3A60485   9.187  36.718   6.981
 4680POPC   C4A60486   8.763  36.685   7.164
 4680POPC   C1B60487   9.192  37.304   6.345
 4680POPC   C2B60488   8.864  37.161   6.563
 4680POPC   C3B60489   8.854  37.125   6.943
 4680POPC   C4B60490   9.039  37.264   7.248
 4681POPC   NC360491  25.352  17.695   5.177
 4681POPC   PO460492  25.420  18.357   5.505
 4681POPC   GL160493  25.120  18.338   5.819
 4681POPC   GL260494  24.957  18.676   5.885
 4681POPC   C1A60495  25.039  18.042   6.166
 4681POPC   D2A60496  25.357  17.910   6.488
 4681POPC   C3A60497  25.384  18.150   6.867
 4681POPC   C4A60498  25.129  18.121   7.212
 4681POPC   C1B60499  25.131  18.546   6.278
 4681POPC   C2B60500  25.005  18.498   6.701
 4681POPC   C3B60501  25.217  18.609   7.077
 4681POPC   C4B60502  25.574  18.464   7.270
 4682POPC   NC360503   2.240  21.558   5.342
 4682POPC   PO460504   1.646  21.796   5.593
 4682POPC   GL160505   1.885  22.028   5.832
 4682POPC   GL260506   2.217  21.976   5.711
 4682POPC   C1A60507   1.785  22.246   6.200
 4682POPC   D2A60508   1.983  22.200   6.604
 4682POPC   C3A60509   1.794  21.946   6.892
 4682POPC   C4A60510   1.639  22.184   7.208
 4682POPC   C1B60511   2.292  22.115   6.160
 4682POPC   C2B60512   2.492  22.232   6.554
 4682POPC   C3B60513   2.395  22.187   6.958
 4682POPC   C4B60514   2.128  22.393   7.179
 4683POPC   NC360515  10.701  44.377   5.547
 4683POPC   PO460516  10.586  44.998   5.441
 4683POPC   GL160517  10.430  44.955   5.842
 4683POPC   GL260518  10.575  44.665   5.991
 4683POPC   C1A60519  10.552   0.153   6.225
 4683POPC   D2A60520  10.396   0.309   6.600
 4683POPC   C3A60521  10.488  44.968   6.852
 4683POPC   C4A60522  10.445  44.784   7.234
 4683POPC   C1B60523  10.430  44.369   6.321
 4683POPC   C2B60524  10.542  44.258   6.733
 4683POPC   C3B60525  10.528  44.283   7.196
 4683POPC   C4B60526  10.466  44.228   7.637
 4684POPC   NC360527  40.594  18.601   5.284
 4684POPC   PO460528  40.975  18.008   5.494
 4684POPC   GL160529  40.781  18.383   5.713
 4684POPC   GL260530  40.488  18.408   5.816
 4684POPC   C1A60531  40.855  18.639   6.103
 4684POPC   D2A60532  40.734  18.540   6.541
 4684POPC   C3A60533  40.959  18.436   6.905
 4684POPC   C4A60534  41.067  18.169   7.273
 4684POPC   C1B60535  40.740  18.152   6.170
 4684POPC   C2B60536  40.552  18.088   6.596
 4684POPC   C3B60537  40.619  18.055   7.005
 4684POPC   C4B60538  40.589  18.333   7.355
 4685POPC   NC360539  16.032   0.717   5.667
 4685POPC   PO460540  16.215   0.190   5.205
 4685POPC   GL160541  16.248   0.214   5.679
 4685POPC   GL260542  15.909   0.242   5.837
 4685POPC   C1A60543  16.375   0.157   6.120
 4685POPC   D2A60544  16.444   0.009   6.562
 4685POPC   C3A60545  16.418   0.314   6.913
 4685POPC   C4A60546  16.077   0.345   7.238
 4685POPC   C1B60547  15.901   0.344   6.283
 4685POPC   C2B60548  15.966   0.466   6.706
 4685POPC   C3B60549  15.711   0.639   7.021
 4685POPC   C4B60550  15.567   0.479   7.411
 4686POPC   NC360551  12.468  20.035   5.406
 4686POPC   PO460552  12.994  20.347   5.412
 4686POPC   GL160553  12.907  19.937   5.693
 4686POPC   GL260554  13.212  19.711   5.755
 4686POPC   C1A60555  12.823  19.688   6.093
 4686POPC   D2A60556  12.759  19.908   6.483
 4686POPC   C3A60557  12.734  19.784   6.889
 4686POPC   C4A60558  12.896  19.813   7.335
 4686POPC   C1B60559  13.338  19.685   6.184
 4686POPC   C2B60560  13.255  19.773   6.615
 4686POPC   C3B60561  13.188  19.567   7.005
 4686POPC   C4B60562  13.187  19.389   7.434
 4687POPC   NC360563  44.871   5.204   5.457
 4687POPC   PO460564  44.229   4.968   5.392
 4687POPC   GL160565  44.538   4.937   5.756
 4687POPC   GL260566  44.816   4.666   5.758
 4687POPC   C1A60567  44.800   5.092   6.118
 4687POPC   D2A60568  44.679   5.366   6.454
 4687POPC   C3A60569  44.815   5.210   6.839
 4687POPC   C4A60570  44.651   5.254   7.257
 4687POPC   C1B60571  44.573   4.621   6.146
 4687POPC   C2B60572  44.529   4.863   6.503
 4687POPC   C3B60573  44.493   4.830   6.935
 4687POPC   C4B60574  44.673   4.751   7.312
 4688POPC   NC360575  20.862   1.844   5.378
 4688POPC   PO460576  21.586   2.016   5.414
 4688POPC   GL160577  21.461   1.974   5.816
 4688POPC   GL260578  21.113   2.005   5.788
 4688POPC   C1A60579  21.466   1.744   6.199
 4688POPC   D2A60580  21.684   1.787   6.591
 4688POPC   C3A60581  21.429   1.661   6.895
 4688POPC   C4A60582  21.378   1.807   7.299
 4688POPC   C1B60583  21.160   2.162   6.191
 4688POPC   C2B60584  21.222   2.028   6.592
 4688POPC   C3B60585  20.974   1.924   6.938
 4688POPC   C4B60586  21.025   2.158   7.319
 4689POPC   NC360587  30.554  38.562   5.562
 4689POPC   PO460588  30.988  37.991   5.481
 4689POPC   GL160589  30.909  38.267   5.787
 4689POPC   GL260590  31.083  38.571   5.670
 4689POPC   C1A60591  30.676  38.281   6.172
 4689POPC   D2A60592  30.795  38.392   6.570
 4689POPC   C3A60593  30.521  38.584   6.806
 4689POPC   C4A60594  30.488  38.480   7.202
 4689POPC   C1B60595  30.965  38.711   6.094
 4689POPC   C2B60596  30.966  38.878   6.520
 4689POPC   C3B60597  31.127  38.690   6.870
 4689POPC   C4B60598  30.977  38.626   7.259
 4690POPC   NC360599  38.634  42.627   5.682
 4690POPC   PO460600  38.457  42.178   5.259
 4690POPC   GL160601  38.327  42.233   5.729
 4690POPC   GL260602  38.114  42.480   5.806
 4690POPC   C1A60603  38.421  42.342   6.207
 4690POPC   D2A60604  38.746  42.370   6.502
 4690POPC   C3A60605  38.623  42.429   6.925
 4690POPC   C4A60606  38.779  42.174   7.276
 4690POPC   C1B60607  38.026  42.064   6.110
 4690POPC   C2B60608  38.019  42.130   6.546
 4690POPC   C3B60609  38.111  42.368   6.918
 4690POPC   C4B60610  38.307  42.339   7.326
 4691POPC   NC360611  39.830  28.844   5.216
 4691POPC   PO460612  40.155  29.319   5.488
 4691POPC   GL160613  39.931  29.088   5.806
 4691POPC   GL260614  40.075  29.312   5.990
 4691POPC   C1A60615  39.725  29.053   6.262
 4691POPC   D2A60616  39.722  28.727   6.608
 4691POPC   C3A60617  39.798  28.856   7.052
 4691POPC   C4A60618  39.668  28.878   7.494
 4691POPC   C1B60619  40.358  29.235   6.284
 4691POPC   C2B60620  40.438  29.294   6.679
 4691POPC   C3B60621  40.225  29.145   7.001
 4691POPC   C4B60622  39.992  29.388   7.272
 4692POPC   NC360623   8.265  34.888   5.210
 4692POPC   PO460624   7.940  35.496   5.451
 4692POPC   GL160625   8.133  35.360   5.801
 4692POPC   GL260626   7.885  35.215   5.945
 4692POPC   C1A60627   8.350  35.205   6.170
 4692POPC   D2A60628   8.264  35.398   6.572
 4692POPC   C3A60629   8.421  35.177   6.932
 4692POPC   C4A60630   8.396  35.366   7.319
 4692POPC   C1B60631   7.896  35.053   6.333
 4692POPC   C2B60632   8.046  34.937   6.682
 4692POPC   C3B60633   7.930  35.106   7.055
 4692POPC   C4B60634   7.988  35.560   7.063
 4693POPC   NC360635  42.163  18.264   5.418
 4693POPC   PO460636  42.776  18.450   5.599
 4693POPC   GL160637  42.494  18.272   5.860
 4693POPC   GL260638  42.138  18.356   5.907
 4693POPC   C1A60639  42.502  18.125   6.270
 4693POPC   D2A60640  42.299  18.036   6.681
 4693POPC   C3A60641  42.599  18.164   6.985
 4693POPC   C4A60642  42.917  17.974   7.269
 4693POPC   C1B60643  42.010  18.302   6.320
 4693POPC   C2B60644  41.868  18.381   6.731
 4693POPC   C3B60645  42.076  18.298   7.101
 4693POPC   C4B60646  42.343  18.500   7.387
 4694POPC   NC360647  26.423  34.519   5.408
 4694POPC   PO460648  26.806  35.063   5.370
 4694POPC   GL160649  26.675  34.811   5.760
 4694POPC   GL260650  26.908  34.554   5.853
 4694POPC   C1A60651  26.576  34.701   6.224
 4694POPC   D2A60652  26.874  34.535   6.557
 4694POPC   C3A60653  26.765  34.515   6.980
 4694POPC   C4A60654  26.792  34.790   7.341
 4694POPC   C1B60655  27.072  34.835   6.171
 4694POPC   C2B60656  27.267  34.852   6.596
 4694POPC   C3B60657  27.213  34.759   7.062
 4694POPC   C4B60658  27.262  34.752   7.557
 4695POPC   NC360659  23.993  34.697   5.275
 4695POPC   PO460660  23.527  34.216   5.485
 4695POPC   GL160661  23.845  34.343   5.786
 4695POPC   GL260662  24.113  34.629   5.791
 4695POPC   C1A60663  23.882  34.456   6.229
 4695POPC   D2A60664  23.908  34.368   6.661
 4695POPC   C3A60665  23.716  34.624   6.945
 4695POPC   C4A60666  23.755  34.918   7.251
 4695POPC   C1B60667  24.158  34.880   6.197
 4695POPC   C2B60668  24.055  34.895   6.657
 4695POPC   C3B60669  24.227  35.058   7.062
 4695POPC   C4B60670  24.187  34.988   7.497
 4696POPC   NC360671   1.126  26.967   5.159
 4696POPC   PO460672   1.510  27.225   5.713
 4696POPC   GL160673   1.370  26.981   6.108
 4696POPC   GL260674   1.027  26.742   6.072
 4696POPC   C1A60675   1.273  26.810   6.490
 4696POPC   D2A60676   1.376  26.663   6.836
 4696POPC   C3A60677   1.420  27.004   7.114
 4696POPC   C4A60678   1.473  27.079   7.552
 4696POPC   C1B60679   0.739  26.789   6.395
 4696POPC   C2B60680   0.729  26.824   6.827
 4696POPC   C3B60681   0.988  26.690   7.160
 4696POPC   C4B60682   1.056  26.775   7.580
 4697POPC   NC360683  35.727  28.627   5.404
 4697POPC   PO460684  35.044  28.368   5.366
 4697POPC   GL160685  35.371  28.406   5.719
 4697POPC   GL260686  35.230  28.723   5.760
 4697POPC   C1A60687  35.562  28.348   6.164
 4697POPC   D2A60688  35.642  28.259   6.646
 4697POPC   C3A60689  35.516  28.556   7.006
 4697POPC   C4A60690  35.520  28.697   7.470
 4697POPC   C1B60691  35.049  28.474   6.112
 4697POPC   C2B60692  35.126  28.387   6.540
 4697POPC   C3B60693  34.981  28.549   6.930
 4697POPC   C4B60694  35.102  28.451   7.355
 4698POPC   NC360695  18.682  31.247   5.459
 4698POPC   PO460696  19.169  31.694   5.202
 4698POPC   GL160697  19.064  31.604   5.653
 4698POPC   GL260698  19.298  31.357   5.750
 4698POPC   C1A60699  18.971  31.603   6.125
 4698POPC   D2A60700  18.845  31.333   6.515
 4698POPC   C3A60701  18.994  31.444   6.955
 4698POPC   C4A60702  18.940  31.410   7.432
 4698POPC   C1B60703  19.251  31.172   6.181
 4698POPC   C2B60704  19.354  31.289   6.619
 4698POPC   C3B60705  19.307  31.045   7.012
 4698POPC   C4B60706  19.223  30.996   7.500
 4699POPC   NC360707   7.791  21.302   5.346
 4699POPC   PO460708   7.445  21.744   5.749
 4699POPC   GL160709   7.488  21.294   5.835
 4699POPC   GL260710   7.114  21.209   5.891
 4699POPC   C1A60711   7.681  21.288   6.264
 4699POPC   D2A60712   7.433  21.523   6.623
 4699POPC   C3A60713   7.358  21.549   7.116
 4699POPC   C4A60714   7.170  21.630   7.561
 4699POPC   C1B60715   7.264  21.011   6.214
 4699POPC   C2B60716   7.423  20.990   6.587
 4699POPC   C3B60717   7.217  21.133   6.879
 4699POPC   C4B60718   7.245  20.963   7.233
 4700POPC   NC360719  29.827  22.647   5.428
 4700POPC   PO460720  30.031  22.052   5.327
 4700POPC   GL160721  29.889  22.095   5.762
 4700POPC   GL260722  29.997  22.421   5.868
 4700POPC   C1A60723  30.113  22.028   6.187
 4700POPC   D2A60724  29.859  21.885   6.556
 4700POPC   C3A60725  29.725  22.106   6.898
 4700POPC   C4A60726  29.925  22.047   7.296
 4700POPC   C1B60727  29.809  22.436   6.314
 4700POPC   C2B60728  29.696  22.647   6.719
 4700POPC   C3B60729  29.852  22.551   7.144
 4700POPC   C4B60730  30.276  22.405   7.272
 4701POPC   NC360731   3.178  42.989   5.432
 4701POPC   PO460732   2.625  42.702   5.191
 4701POPC   GL160733   2.622  42.947   5.664
 4701POPC   GL260734   2.911  43.096   5.846
 4701POPC   C1A60735   2.480  43.200   6.071
 4701POPC   D2A60736   2.602  43.357   6.501
 4701POPC   C3A60737   2.475  43.190   6.922
 4701POPC   C4A60738   2.546  43.211   7.390
 4701POPC   C1B60739   2.851  42.874   6.248
 4701POPC   C2B60740   2.910  42.752   6.708
 4701POPC   C3B60741   2.900  42.927   7.124
 4701POPC   C4B60742   3.193  43.190   7.344
 4702POPC   NC360743  21.339   8.454   5.255
 4702POPC   PO460744  21.579   7.864   5.352
 4702POPC   GL160745  21.269   8.110   5.675
 4702POPC   GL260746  21.250   8.464   5.777
 4702POPC   C1A60747  21.000   8.027   6.067
 4702POPC   D2A60748  21.172   7.940   6.493
 4702POPC   C3A60749  21.223   8.195   6.847
 4702POPC   C4A60750  21.298   8.011   7.246
 4702POPC   C1B60751  21.477   8.213   6.127
 4702POPC   C2B60752  21.664   7.862   6.365
 4702POPC   C3B60753  21.670   7.869   6.837
 4702POPC   C4B60754  21.697   8.260   7.082
 4703POPC   NC360755  32.304  37.935   5.450
 4703POPC   PO460756  32.357  37.248   5.504
 4703POPC   GL160757  32.167  37.401   5.867
 4703POPC   GL260758  32.091  37.772   5.883
 4703POPC   C1A60759  32.147  37.469   6.306
 4703POPC   D2A60760  31.963  37.778   6.565
 4703POPC   C3A60761  31.999  37.571   6.953
 4703POPC   C4A60762  32.164  37.553   7.363
 4703POPC   C1B60763  32.424  37.888   6.167
 4703POPC   C2B60764  32.414  38.024   6.591
 4703POPC   C3B60765  32.311  37.969   7.015
 4703POPC   C4B60766  32.492  38.222   7.323
 4704POPC   NC360767  44.333  23.646   5.516
 4704POPC   PO460768  43.643  23.915   5.357
 4704POPC   GL160769  43.862  23.728   5.709
 4704POPC   GL260770  43.747  23.373   5.740
 4704POPC   C1A60771  43.977  23.926   6.122
 4704POPC   D2A60772  43.768  23.894   6.543
 4704POPC   C3A60773  43.927  23.811   6.955
 4704POPC   C4A60774  43.778  23.676   7.347
 4704POPC   C1B60775  43.947  23.416   6.147
 4704POPC   C2B60776  43.977  23.375   6.603
 4704POPC   C3B60777  44.162  23.353   7.036
 4704POPC   C4B60778  44.190  23.438   7.490
 4705POPC   NC360779   4.211  27.855   5.423
 4705POPC   PO460780   4.588  27.267   5.396
 4705POPC   GL160781   4.358  27.469   5.726
 4705POPC   GL260782   4.619  27.747   5.749
 4705POPC   C1A60783   4.207  27.727   6.117
 4705POPC   D2A60784   3.999  27.746   6.541
 4705POPC   C3A60785   4.107  27.425   6.839
 4705POPC   C4A60786   4.165  27.431   7.265
 4705POPC   C1B60787   4.632  27.448   6.137
 4705POPC   C2B60788   4.525  27.578   6.556
 4705POPC   C3B60789   4.420  27.797   6.937
 4705POPC   C4B60790   4.315  27.915   7.342
 4706POPC   NC360791  27.374  34.002   5.465
 4706POPC   PO460792  27.974  33.657   5.431
 4706POPC   GL160793  27.780  33.660   5.792
 4706POPC   GL260794  27.856  34.004   5.881
 4706POPC   C1A60795  27.772  33.583   6.220
 4706POPC   D2A60796  27.478  33.680   6.547
 4706POPC   C3A60797  27.661  33.824   6.919
 4706POPC   C4A60798  27.626  33.614   7.291
 4706POPC   C1B60799  27.446  33.972   6.105
 4706POPC   C2B60800  27.187  34.096   6.467
 4706POPC   C3B60801  27.183  34.033   6.888
 4706POPC   C4B60802  27.211  33.906   7.313
 4707POPC   NC360803  43.811  16.374   5.446
 4707POPC   PO460804  44.009  15.681   5.460
 4707POPC   GL160805  43.903  15.987   5.801
 4707POPC   GL260806  44.111  16.261   5.842
 4707POPC   C1A60807  43.694  16.110   6.212
 4707POPC   D2A60808  43.794  16.273   6.639
 4707POPC   C3A60809  43.632  16.067   7.021
 4707POPC   C4A60810  43.626  15.764   7.384
 4707POPC   C1B60811  44.182  16.311   6.252
 4707POPC   C2B60812  44.209  15.993   6.540
 4707POPC   C3B60813  44.194  16.077   6.986
 4707POPC   C4B60814  43.993  16.107   7.406
 4708POPC   NC360815  15.640  42.409   5.352
 4708POPC   PO460816  16.228  42.078   5.081
 4708POPC   GL160817  16.049  42.187   5.574
 4708POPC   GL260818  15.981  42.566   5.754
 4708POPC   C1A60819  15.777  42.167   6.001
 4708POPC   D2A60820  15.739  42.008   6.451
 4708POPC   C3A60821  15.913  42.232   6.799
 4708POPC   C4A60822  15.952  42.072   7.210
 4708POPC   C1B60823  16.000  42.795   6.236
 4708POPC   C2B60824  15.954  42.798   6.741
 4708POPC   C3B60825  16.033  42.587   7.170
 4708POPC   C4B60826  16.195  42.620   7.618
 4709POPC   NC360827  10.110  37.298   5.486
 4709POPC   PO460828   9.604  36.765   5.428
 4709POPC   GL160829   9.724  37.008   5.758
 4709POPC   GL260830   9.685  37.369   5.735
 4709POPC   C1A60831   9.566  36.974   6.163
 4709POPC   D2A60832   9.838  36.806   6.504
 4709POPC   C3A60833   9.726  36.743   6.919
 4709POPC   C4A60834   9.976  36.863   7.278
 4709POPC   C1B60835   9.944  37.318   6.131
 4709POPC   C2B60836   9.720  37.301   6.534
 4709POPC   C3B60837   9.407  37.176   6.826
 4709POPC   C4B60838   9.497  37.066   7.250
 4710POPC   NC360839  43.874   0.403   5.414
 4710POPC   PO460840  44.328   0.886   5.555
 4710POPC   GL160841  44.236   0.451   5.792
 4710POPC   GL260842  44.023   0.078   5.795
 4710POPC   C1A60843  43.976   0.403   6.161
 4710POPC   D2A60844  43.719   0.354   6.529
 4710POPC   C3A60845  43.933   0.402   6.895
 4710POPC   C4A60846  43.736   0.724   7.097
 4710POPC   C1B60847  43.639   0.029   6.142
 4710POPC   C2B60848  43.595  44.874   6.649
 4710POPC   C3B60849  43.567   0.086   7.110
 4710POPC   C4B60850  43.555   0.024   7.592
 4711POPC   NC360851  33.227  28.931   5.449
 4711POPC   PO460852  32.958  29.482   5.426
 4711POPC   GL160853  32.959  29.229   5.789
 4711POPC   GL260854  32.853  28.886   5.812
 4711POPC   C1A60855  33.329  29.255   6.035
 4711POPC   D2A60856  33.429  29.444   6.410
 4711POPC   C3A60857  33.124  29.285   6.715
 4711POPC   C4A60858  33.147  29.041   7.095
 4711POPC   C1B60859  32.979  28.988   6.267
 4711POPC   C2B60860  32.946  28.785   6.648
 4711POPC   C3B60861  32.705  28.771   7.012
 4711POPC   C4B60862  32.654  29.182   7.255
 4712POPC   NC360863   9.312  34.907   5.602
 4712POPC   PO460864   9.704  34.609   5.121
 4712POPC   GL160865   9.624  34.505   5.581
 4712POPC   GL260866   9.935  34.436   5.697
 4712POPC   C1A60867   9.574  34.589   6.081
 4712POPC   D2A60868   9.400  34.520   6.502
 4712POPC   C3A60869   9.469  34.574   6.947
 4712POPC   C4A60870   9.494  34.694   7.360
 4712POPC   C1B60871  10.072  34.617   6.131
 4712POPC   C2B60872   9.911  34.531   6.523
 4712POPC   C3B60873  10.012  34.594   6.939
 4712POPC   C4B60874   9.914  34.402   7.296
 4713POPC   NC360875  16.982  41.029   5.303
 4713POPC   PO460876  16.783  41.572   5.451
 4713POPC   GL160877  16.796  41.176   5.799
 4713POPC   GL260878  16.646  40.816   5.793
 4713POPC   C1A60879  16.803  40.974   6.269
 4713POPC   D2A60880  16.800  40.587   6.567
 4713POPC   C3A60881  16.714  40.692   7.007
 4713POPC   C4A60882  16.805  41.072   7.248
 4713POPC   C1B60883  16.417  40.650   6.197
 4713POPC   C2B60884  16.361  40.851   6.632
 4713POPC   C3B60885  16.302  40.979   7.090
 4713POPC   C4B60886  16.454  40.767   7.474
 4714POPC   NC360887  22.826  35.735   5.662
 4714POPC   PO460888  22.694  36.314   5.487
 4714POPC   GL160889  22.838  36.330   5.886
 4714POPC   GL260890  23.136  36.158   5.755
 4714POPC   C1A60891  22.732  36.139   6.303
 4714POPC   D2A60892  22.972  36.014   6.674
 4714POPC   C3A60893  22.736  36.009   7.054
 4714POPC   C4A60894  22.641  36.348   7.334
 4714POPC   C1B60895  23.225  36.146   6.202
 4714POPC   C2B60896  23.237  36.501   6.509
 4714POPC   C3B60897  23.205  36.565   6.959
 4714POPC   C4B60898  23.228  36.121   7.140
 4715POPC   NC360899  21.230  31.907   5.561
 4715POPC   PO460900  21.697  32.328   5.428
 4715POPC   GL160901  21.447  32.298   5.812
 4715POPC   GL260902  21.173  32.563   5.812
 4715POPC   C1A60903  21.364  32.251   6.254
 4715POPC   D2A60904  21.555  32.427   6.621
 4715POPC   C3A60905  21.379  32.347   7.010
 4715POPC   C4A60906  21.464  31.994   7.286
 4715POPC   C1B60907  20.936  32.529   6.216
 4715POPC   C2B60908  20.911  32.319   6.610
 4715POPC   C3B60909  20.871  32.448   7.031
 4715POPC   C4B60910  21.093  32.414   7.430
 4716POPC   NC360911  13.174  16.303   5.464
 4716POPC   PO460912  12.850  15.703   5.442
 4716POPC   GL160913  12.659  15.763   5.817
 4716POPC   GL260914  12.782  16.075   5.806
 4716POPC   C1A60915  12.739  15.716   6.245
 4716POPC   D2A60916  12.992  15.840   6.605
 4716POPC   C3A60917  12.843  15.709   6.992
 4716POPC   C4A60918  12.547  15.945   7.182
 4716POPC   C1B60919  12.987  16.170   6.154
 4716POPC   C2B60920  13.090  16.356   6.519
 4716POPC   C3B60921  12.903  16.311   6.899
 4716POPC   C4B60922  13.029  16.112   7.235
 4717POPC   NC360923  36.854  27.767   5.243
 4717POPC   PO460924  36.962  28.429   5.275
 4717POPC   GL160925  36.915  28.415   5.740
 4717POPC   GL260926  36.595  28.313   5.873
 4717POPC   C1A60927  36.946  28.462   6.207
 4717POPC   D2A60928  36.719  28.465   6.613
 4717POPC   C3A60929  36.922  28.500   7.018
 4717POPC   C4A60930  37.105  28.431   7.427
 4717POPC   C1B60931  36.555  28.065   6.204
 4717POPC   C2B60932  36.688  27.968   6.582
 4717POPC   C3B60933  36.611  28.080   6.959
 4717POPC   C4B60934  36.756  28.085   7.366
 4718POPC   NC360935  28.819  18.424   5.360
 4718POPC   PO460936  28.139  18.278   5.494
 4718POPC   GL160937  28.459  18.437   5.751
 4718POPC   GL260938  28.559  18.093   5.758
 4718POPC   C1A60939  28.452  18.451   6.200
 4718POPC   D2A60940  28.498  18.297   6.625
 4718POPC   C3A60941  28.235  18.398   6.983
 4718POPC   C4A60942  28.030  18.703   7.250
 4718POPC   C1B60943  28.477  17.924   6.153
 4718POPC   C2B60944  28.652  17.813   6.528
 4718POPC   C3B60945  28.669  17.940   6.953
 4718POPC   C4B60946  28.323  17.969   7.264
 4719POPC   NC360947  20.296  12.624   5.351
 4719POPC   PO460948  20.830  13.155   5.442
 4719POPC   GL160949  20.759  13.073   5.844
 4719POPC   GL260950  20.464  12.891   5.760
 4719POPC   C1A60951  20.767  13.027   6.286
 4719POPC   D2A60952  20.673  13.140   6.719
 4719POPC   C3A60953  20.808  12.837   7.011
 4719POPC   C4A60954  20.770  12.805   7.494
 4719POPC   C1B60955  20.313  13.201   6.095
 4719POPC   C2B60956  20.190  13.225   6.536
 4719POPC   C3B60957  20.166  13.055   6.940
 4719POPC   C4B60958  20.497  13.160   7.217
 4720POPC   NC360959  34.417  34.242   5.540
 4720POPC   PO460960  34.792  33.682   5.475
 4720POPC   GL160961  34.666  33.899   5.847
 4720POPC   GL260962  34.401  33.687   5.877
 4720POPC   C1A60963  34.703  33.770   6.290
 4720POPC   D2A60964  34.848  33.811   6.695
 4720POPC   C3A60965  34.561  33.728   7.006
 4720POPC   C4A60966  34.540  34.143   7.125
 4720POPC   C1B60967  34.237  33.973   6.198
 4720POPC   C2B60968  34.303  34.009   6.653
 4720POPC   C3B60969  34.084  33.906   7.067
 4720POPC   C4B60970  34.204  33.612   7.404
 4721POPC   NC360971   0.953  41.763   5.465
 4721POPC   PO460972   1.473  41.412   5.461
 4721POPC   GL160973   1.295  41.637   5.812
 4721POPC   GL260974   0.928  41.494   5.899
 4721POPC   C1A60975   1.164  41.827   6.197
 4721POPC   D2A60976   1.020  41.628   6.569
 4721POPC   C3A60977   1.388  41.656   6.819
 4721POPC   C4A60978   1.395  41.693   7.244
 4721POPC   C1B60979   1.243  41.305   6.191
 4721POPC   C2B60980   1.315  41.165   6.596
 4721POPC   C3B60981   1.082  41.265   6.942
 4721POPC   C4B60982   1.134  41.285   7.356
 4722POPC   NC360983  15.045  15.928   5.375
 4722POPC   PO460984  15.384  16.411   5.617
 4722POPC   GL160985  15.269  15.994   5.872
 4722POPC   GL260986  14.995  15.730   5.843
 4722POPC   C1A60987  15.251  15.875   6.335
 4722POPC   D2A60988  15.447  15.896   6.773
 4722POPC   C3A60989  15.335  15.837   7.229
 4722POPC   C4A60990  15.419  15.623   7.650
 4722POPC   C1B60991  14.768  15.713   6.236
 4722POPC   C2B60992  14.897  15.781   6.706
 4722POPC   C3B60993  14.764  15.745   7.155
 4722POPC   C4B60994  14.964  15.895   7.570
 4723POPC   NC360995  10.399   1.822   5.396
 4723POPC   PO460996  11.010   2.073   5.552
 4723POPC   GL160997  10.617   2.025   5.830
 4723POPC   GL260998  10.231   1.993   5.829
 4723POPC   C1A60999  10.494   2.134   6.254
 4723POPC   D2A61000  10.693   1.941   6.596
 4723POPC   C3A61001  10.594   2.092   6.984
 4723POPC   C4A61002  10.724   1.741   7.249
 4723POPC   C1B61003  10.128   1.759   6.187
 4723POPC   C2B61004  10.190   1.856   6.633
 4723POPC   C3B61005  10.217   1.762   7.091
 4723POPC   C4B61006  10.348   2.061   7.446
 4724POPC   NC361007  18.816  44.345   5.496
 4724POPC   PO461008  19.305  44.706   5.137
 4724POPC   GL161009  19.186  44.708   5.605
 4724POPC   GL261010  19.394  44.907   5.845
 4724POPC   C1A61011  19.008  44.629   6.051
 4724POPC   D2A61012  18.868  44.660   6.492
 4724POPC   C3A61013  19.075  44.503   6.867
 4724POPC   C4A61014  19.016  44.621   7.302
 4724POPC   C1B61015  19.425  44.797   6.282
 4724POPC   C2B61016  19.278  44.940   6.672
 4724POPC   C3B61017  19.361  44.968   7.118
 4724POPC   C4B61018  19.261  44.977   7.568
 4725POPC   NC361019  18.184  44.478   5.230
 4725POPC   PO461020  18.706  44.872   5.367
 4725POPC   GL161021  18.543  44.712   5.762
 4725POPC   GL261022  18.307  44.428   5.730
 4725POPC   C1A61023  18.526  44.870   6.177
 4725POPC   D2A61024  18.274  44.941   6.547
 4725POPC   C3A61025  18.328  44.644   6.865
 4725POPC   C4A61026  18.514  44.673   7.287
 4725POPC   C1B61027  18.147  44.192   6.086
 4725POPC   C2B61028  18.117  44.264   6.511
 4725POPC   C3B61029  17.930  44.308   6.900
 4725POPC   C4B61030  18.188  44.260   7.253
 4726POPC   NC361031  21.882  24.020   5.526
 4726POPC   PO461032  21.142  23.872   5.453
 4726POPC   GL161033  21.397  23.626   5.743
 4726POPC   GL261034  21.201  23.313   5.665
 4726POPC   C1A61035  21.561  23.708   6.194
 4726POPC   D2A61036  21.351  23.860   6.602
 4726POPC   C3A61037  21.464  23.933   7.028
 4726POPC   C4A61038  21.240  23.931   7.400
 4726POPC   C1B61039  21.326  23.238   6.083
 4726POPC   C2B61040  21.396  23.325   6.497
 4726POPC   C3B61041  21.403  23.432   6.924
 4726POPC   C4B61042  21.063  23.401   7.203
 4727POPC   NC361043  31.643  26.516   5.681
 4727POPC   PO461044  31.378  26.171   5.167
 4727POPC   GL161045  31.438  26.032   5.664
 4727POPC   GL261046  31.244  25.743   5.807
 4727POPC   C1A61047  31.662  25.899   6.117
 4727POPC   D2A61048  31.816  25.862   6.610
 4727POPC   C3A61049  31.732  26.244   6.945
 4727POPC   C4A61050  31.593  26.289   7.422
 4727POPC   C1B61051  31.184  26.069   6.169
 4727POPC   C2B61052  31.348  26.100   6.625
 4727POPC   C3B61053  31.239  26.125   7.074
 4727POPC   C4B61054  30.926  25.902   7.273
 4728POPC   NC361055  41.142  33.525   5.384
 4728POPC   PO461056  41.758  33.769   5.590
 4728POPC   GL161057  41.636  33.635   5.922
 4728POPC   GL261058  41.295  33.665   5.850
 4728POPC   C1A61059  41.551  33.759   6.321
 4728POPC   D2A61060  41.549  33.874   6.752
 4728POPC   C3A61061  41.780  33.613   7.029
 4728POPC   C4A61062  41.805  33.695   7.477
 4728POPC   C1B61063  41.066  33.548   6.193
 4728POPC   C2B61064  41.055  33.745   6.575
 4728POPC   C3B61065  41.059  33.895   6.962
 4728POPC   C4B61066  41.319  33.719   7.233
 4729POPC   NC361067  24.013   4.586   5.454
 4729POPC   PO461068  23.797   4.015   5.319
 4729POPC   GL161069  23.739   4.103   5.757
 4729POPC   GL261070  23.714   4.436   5.843
 4729POPC   C1A61071  23.767   4.045   6.211
 4729POPC   D2A61072  23.470   3.978   6.557
 4729POPC   C3A61073  23.633   4.104   6.964
 4729POPC   C4A61074  23.748   4.239   7.390
 4729POPC   C1B61075  23.775   4.563   6.250
 4729POPC   C2B61076  23.585   4.508   6.634
 4729POPC   C3B61077  23.679   4.671   7.033
 4729POPC   C4B61078  23.601   4.745   7.441
 4730POPC   NC361079   6.211  11.528   5.443
 4730POPC   PO461080   5.610  11.111   5.440
 4730POPC   GL161081   5.827  11.278   5.766
 4730POPC   GL261082   6.171  11.283   5.906
 4730POPC   C1A61083   5.714  11.250   6.172
 4730POPC   D2A61084   5.893  11.321   6.532
 4730POPC   C3A61085   5.674  11.317   6.885
 4730POPC   C4A61086   5.820  11.491   7.265
 4730POPC   C1B61087   6.138  10.953   6.214
 4730POPC   C2B61088   5.948  10.838   6.637
 4730POPC   C3B61089   6.015  11.004   7.075
 4730POPC   C4B61090   6.007  11.026   7.528
 4731POPC   NC361091  20.197  16.102   5.384
 4731POPC   PO461092  20.803  16.084   5.609
 4731POPC   GL161093  20.716  15.795   5.878
 4731POPC   GL261094  20.357  15.908   5.867
 4731POPC   C1A61095  20.871  15.792   6.314
 4731POPC   D2A61096  21.067  15.993   6.684
 4731POPC   C3A61097  20.872  16.183   7.053
 4731POPC   C4A61098  20.681  16.269   7.445
 4731POPC   C1B61099  20.387  15.631   6.265
 4731POPC   C2B61100  20.589  15.640   6.712
 4731POPC   C3B61101  20.486  15.830   7.132
 4731POPC   C4B61102  20.379  15.845   7.588
 4732POPC   NC361103  20.580  13.581   5.407
 4732POPC   PO461104  20.562  14.202   5.675
 4732POPC   GL161105  20.558  13.832   5.852
 4732POPC   GL261106  20.906  13.805   5.749
 4732POPC   C1A61107  20.405  13.692   6.253
 4732POPC   D2A61108  20.327  13.849   6.654
 4732POPC   C3A61109  20.451  13.563   6.927
 4732POPC   C4A61110  20.624  13.654   7.334
 4732POPC   C1B61111  20.863  13.519   6.105
 4732POPC   C2B61112  20.855  13.592   6.551
 4732POPC   C3B61113  20.973  13.511   6.977
 4732POPC   C4B61114  21.012  13.198   7.286
 4733POPC   NC361115  40.856   2.317   5.456
 4733POPC   PO461116  40.706   1.637   5.338
 4733POPC   GL161117  40.950   1.790   5.651
 4733POPC   GL261118  40.661   1.935   5.753
 4733POPC   C1A61119  41.120   2.010   6.009
 4733POPC   D2A61120  41.064   1.904   6.446
 4733POPC   C3A61121  41.042   2.155   6.814
 4733POPC   C4A61122  40.852   1.971   7.202
 4733POPC   C1B61123  40.631   1.958   6.160
 4733POPC   C2B61124  40.637   2.247   6.461
 4733POPC   C3B61125  40.529   2.181   6.866
 4733POPC   C4B61126  40.580   2.408   7.230
 4734POPC   NC361127   1.659  40.986   5.362
 4734POPC   PO461128   1.209  40.453   5.362
 4734POPC   GL161129   1.350  40.711   5.741
 4734POPC   GL261130   1.160  41.030   5.755
 4734POPC   C1A61131   1.416  40.807   6.217
 4734POPC   D2A61132   1.208  40.642   6.619
 4734POPC   C3A61133   1.340  40.831   7.020
 4734POPC   C4A61134   1.591  41.211   7.051
 4734POPC   C1B61135   0.920  40.902   6.149
 4734POPC   C2B61136   0.821  41.024   6.565
 4734POPC   C3B61137   0.842  40.821   6.960
 4734POPC   C4B61138   0.998  40.420   7.074
 4735POPC   NC361139  15.410  34.122   5.796
 4735POPC   PO461140  15.835  33.745   5.423
 4735POPC   GL161141  15.989  33.805   5.847
 4735POPC   GL261142  16.250  34.086   5.744
 4735POPC   C1A61143  16.115  33.726   6.297
 4735POPC   D2A61144  15.944  33.392   6.560
 4735POPC   C3A61145  15.833  33.511   6.962
 4735POPC   C4A61146  16.064  33.739   7.279
 4735POPC   C1B61147  16.025  34.210   6.109
 4735POPC   C2B61148  16.008  34.214   6.520
 4735POPC   C3B61149  15.972  34.039   6.902
 4735POPC   C4B61150  15.952  34.235   7.329
 4736POPC   NC361151  18.390  11.297   5.273
 4736POPC   PO461152  17.769  11.115   5.134
 4736POPC   GL161153  17.948  11.069   5.586
 4736POPC   GL261154  18.173  11.339   5.731
 4736POPC   C1A61155  17.923  11.008   6.071
 4736POPC   D2A61156  18.153  11.154   6.465
 4736POPC   C3A61157  18.310  11.125   6.910
 4736POPC   C4A61158  18.140  11.199   7.340
 4736POPC   C1B61159  18.458  11.350   6.091
 4736POPC   C2B61160  18.576  11.449   6.529
 4736POPC   C3B61161  18.759  11.415   6.938
 4736POPC   C4B61162  18.610  11.388   7.340
 4737POPC   NC361163  12.484   9.752   5.406
 4737POPC   PO461164  13.112   9.507   5.218
 4737POPC   GL161165  13.000   9.792   5.630
 4737POPC   GL261166  12.665   9.818   5.869
 4737POPC   C1A61167  13.121   9.825   6.079
 4737POPC   D2A61168  13.312   9.737   6.470
 4737POPC   C3A61169  13.027   9.747   6.812
 4737POPC   C4A61170  12.872   9.969   7.167
 4737POPC   C1B61171  12.565  10.091   6.270
 4737POPC   C2B61172  12.628  10.092   6.719
 4737POPC   C3B61173  12.458   9.748   6.957
 4737POPC   C4B61174  12.359   9.573   7.350
 4738POPC   NC361175  34.053  43.159   5.188
 4738POPC   PO461176  34.224  43.399   5.763
 4738POPC   GL161177  33.858  43.292   5.937
 4738POPC   GL261178  33.812  42.997   5.865
 4738POPC   C1A61179  33.651  43.285   6.327
 4738POPC   D2A61180  33.763  43.094   6.709
 4738POPC   C3A61181  33.700  43.354   7.088
 4738POPC   C4A61182  33.400  43.515   7.398
 4738POPC   C1B61183  33.660  42.781   6.208
 4738POPC   C2B61184  33.527  42.540   6.528
 4738POPC   C3B61185  33.488  42.703   6.918
 4738POPC   C4B61186  33.800  42.847   7.161
 4739POPC   NC361187  11.639  28.828   5.611
 4739POPC   PO461188  11.057  29.114   5.445
 4739POPC   GL161189  11.152  29.222   5.858
 4739POPC   GL261190  10.906  29.442   5.929
 4739POPC   C1A61191  11.323  29.100   6.256
 4739POPC   D2A61192  11.496  28.780   6.548
 4739POPC   C3A61193  11.366  28.898   6.966
 4739POPC   C4A61194  11.417  29.277   7.197
 4739POPC   C1B61195  10.907  29.420   6.395
 4739POPC   C2B61196  11.063  29.366   6.827
 4739POPC   C3B61197  10.930  29.414   7.264
 4739POPC   C4B61198  10.864  29.207   7.685
 4740POPC   NC361199  32.626   8.028   5.319
 4740POPC   PO461200  32.080   8.421   5.190
 4740POPC   GL161201  32.191   8.208   5.643
 4740POPC   GL261202  32.522   8.104   5.823
 4740POPC   C1A61203  32.144   8.172   6.135
 4740POPC   D2A61204  32.390   8.013   6.496
 4740POPC   C3A61205  32.299   8.185   6.889
 4740POPC   C4A61206  31.966   8.412   7.082
 4740POPC   C1B61207  32.627   8.375   6.196
 4740POPC   C2B61208  32.779   8.563   6.570
 4740POPC   C3B61209  32.655   8.567   6.986
 4740POPC   C4B61210  32.666   8.227   7.225
 4741POPC   NC361211  26.655  16.445   5.603
 4741POPC   PO461212  27.001  16.870   5.210
 4741POPC   GL161213  26.941  16.956   5.666
 4741POPC   GL261214  26.568  16.966   5.727
 4741POPC   C1A61215  27.056  16.713   6.063
 4741POPC   D2A61216  27.248  16.759   6.477
 4741POPC   C3A61217  27.076  16.448   6.776
 4741POPC   C4A61218  26.890  16.546   7.142
 4741POPC   C1B61219  26.573  16.833   6.184
 4741POPC   C2B61220  26.783  17.002   6.520
 4741POPC   C3B61221  26.794  17.016   6.946
 4741POPC   C4B61222  26.482  16.815   7.181
 4742POPC   NC361223  37.455  29.400   5.448
 4742POPC   PO461224  37.856  28.859   5.402
 4742POPC   GL161225  37.835  28.957   5.824
 4742POPC   GL261226  37.923  29.318   5.809
 4742POPC   C1A61227  37.757  28.994   6.270
 4742POPC   D2A61228  38.000  29.100   6.630
 4742POPC   C3A61229  37.852  29.274   7.013
 4742POPC   C4A61230  37.678  29.018   7.294
 4742POPC   C1B61231  37.608  29.466   6.127
 4742POPC   C2B61232  37.570  29.387   6.565
 4742POPC   C3B61233  37.476  29.028   6.808
 4742POPC   C4B61234  37.312  29.350   7.115
 4743POPC   NC361235  36.498  38.508   5.694
 4743POPC   PO461236  36.103  38.815   5.265
 4743POPC   GL161237  36.036  38.820   5.729
 4743POPC   GL261238  35.833  38.576   5.922
 4743POPC   C1A61239  36.146  38.867   6.185
 4743POPC   D2A61240  35.926  38.696   6.575
 4743POPC   C3A61241  36.180  38.706   6.971
 4743POPC   C4A61242  36.027  38.615   7.387
 4743POPC   C1B61243  36.117  38.333   6.240
 4743POPC   C2B61244  36.185  38.197   6.679
 4743POPC   C3B61245  36.434  38.244   7.065
 4743POPC   C4B61246  36.489  38.054   7.466
 4744POPC   NC361247  12.182  11.798   5.192
 4744POPC   PO461248  11.942  12.465   5.353
 4744POPC   GL161249  11.994  12.279   5.786
 4744POPC   GL261250  12.126  11.933   5.728
 4744POPC   C1A61251  11.823  12.068   6.154
 4744POPC   D2A61252  12.059  12.102   6.526
 4744POPC   C3A61253  11.867  12.052   6.918
 4744POPC   C4A61254  12.187  12.155   7.212
 4744POPC   C1B61255  12.229  11.753   6.146
 4744POPC   C2B61256  12.059  11.588   6.524
 4744POPC   C3B61257  12.292  11.707   6.854
 4744POPC   C4B61258  12.246  11.645   7.241
 4745POPC   NC361259  10.388   0.422   5.449
 4745POPC   PO461260  10.752   0.984   5.439
 4745POPC   GL161261  10.653   0.703   5.792
 4745POPC   GL261262  10.767   0.352   5.800
 4745POPC   C1A61263  10.547   0.678   6.218
 4745POPC   D2A61264  10.769   0.756   6.594
 4745POPC   C3A61265  10.489   0.701   6.919
 4745POPC   C4A61266  10.346   0.362   7.162
 4745POPC   C1B61267  10.994   0.444   6.195
 4745POPC   C2B61268  10.925   0.234   6.597
 4745POPC   C3B61269  10.845   0.303   7.048
 4745POPC   C4B61270  10.730   0.636   7.351
 4746POPC   NC361271   1.196  26.897   5.647
 4746POPC   PO461272   1.035  27.440   5.238
 4746POPC   GL161273   1.115  27.542   5.740
 4746POPC   GL261274   0.987  27.278   5.936
 4746POPC   C1A61275   1.329  27.547   6.236
 4746POPC   D2A61276   1.345  27.311   6.674
 4746POPC   C3A61277   1.572  27.526   7.039
 4746POPC   C4A61278   1.637  27.992   7.140
 4746POPC   C1B61279   0.839  27.459   6.323
 4746POPC   C2B61280   1.013  27.748   6.632
 4746POPC   C3B61281   1.063  27.590   7.041
 4746POPC   C4B61282   0.963  27.205   7.282
 4747POPC   NC361283   8.521  32.356   5.411
 4747POPC   PO461284   9.027  32.720   5.419
 4747POPC   GL161285   8.954  32.389   5.739
 4747POPC   GL261286   8.717  32.097   5.802
 4747POPC   C1A61287   9.015  32.304   6.170
 4747POPC   D2A61288   9.256  32.255   6.542
 4747POPC   C3A61289   9.075  32.459   6.893
 4747POPC   C4A61290   9.066  32.304   7.272
 4747POPC   C1B61291   8.510  32.032   6.194
 4747POPC   C2B61292   8.766  32.057   6.550
 4747POPC   C3B61293   8.921  31.970   6.931
 4747POPC   C4B61294   8.632  32.011   7.257
 4748POPC   NC361295  40.707   9.760   5.078
 4748POPC   PO461296  41.020  10.134   5.518
 4748POPC   GL161297  40.921   9.841   5.793
 4748POPC   GL261298  40.661   9.658   5.621
 4748POPC   C1A61299  40.842   9.970   6.223
 4748POPC   D2A61300  40.622  10.116   6.574
 4748POPC   C3A61301  40.864   9.982   6.884
 4748POPC   C4A61302  40.954   9.833   7.245
 4748POPC   C1B61303  40.582   9.550   6.070
 4748POPC   C2B61304  40.582   9.610   6.543
 4748POPC   C3B61305  40.487   9.650   7.008
 4748POPC   C4B61306  40.654   9.463   7.393
 4749POPC   NC361307   0.815   3.634   5.414
 4749POPC   PO461308   1.445   3.412   5.525
 4749POPC   GL161309   1.288   3.591   5.882
 4749POPC   GL261310   0.924   3.664   5.915
 4749POPC   C1A61311   1.363   3.518   6.315
 4749POPC   D2A61312   1.294   3.767   6.670
 4749POPC   C3A61313   1.229   3.668   7.084
 4749POPC   C4A61314   1.219   3.227   7.213
 4749POPC   C1B61315   0.868   3.678   6.371
 4749POPC   C2B61316   0.857   4.008   6.716
 4749POPC   C3B61317   0.800   3.946   7.155
 4749POPC   C4B61318   0.998   3.752   7.536
 4750POPC   NC361319  40.077  42.882   5.427
 4750POPC   PO461320  40.146  42.256   5.325
 4750POPC   GL161321  40.012  42.298   5.747
 4750POPC   GL261322  40.316  42.119   5.821
 4750POPC   C1A61323  40.044  42.574   6.144
 4750POPC   D2A61324  40.077  42.478   6.600
 4750POPC   C3A61325  39.682  42.446   6.828
 4750POPC   C4A61326  39.704  42.439   7.268
 4750POPC   C1B61327  40.224  42.107   6.251
 4750POPC   C2B61328  40.422  42.069   6.672
 4750POPC   C3B61329  40.452  41.924   7.120
 4750POPC   C4B61330  40.161  41.969   7.525
 4751POPC   NC361331  29.421   6.048   5.380
 4751POPC   PO461332  28.808   5.762   5.383
 4751POPC   GL161333  28.913   6.012   5.779
 4751POPC   GL261334  29.207   5.830   5.802
 4751POPC   C1A61335  28.992   5.983   6.260
 4751POPC   D2A61336  29.211   5.650   6.532
 4751POPC   C3A61337  29.042   5.613   6.954
 4751POPC   C4A61338  28.924   5.989   7.158
 4751POPC   C1B61339  29.465   6.017   6.085
 4751POPC   C2B61340  29.590   6.018   6.491
 4751POPC   C3B61341  29.385   6.013   6.876
 4751POPC   C4B61342  29.522   6.049   7.280
 4752POPC   NC361343  20.890  33.324   5.521
 4752POPC   PO461344  20.321  32.970   5.519
 4752POPC   GL161345  20.517  33.029   5.906
 4752POPC   GL261346  20.908  33.009   5.925
 4752POPC   C1A61347  20.297  33.045   6.293
 4752POPC   D2A61348  20.436  33.267   6.649
 4752POPC   C3A61349  20.804  33.138   6.857
 4752POPC   C4A61350  20.790  33.283   7.248
 4752POPC   C1B61351  20.824  32.997   6.356
 4752POPC   C2B61352  20.586  32.739   6.623
 4752POPC   C3B61353  20.462  32.807   7.062
 4752POPC   C4B61354  20.730  32.793   7.428
 4753POPC   NC361355  21.552  15.045   5.316
 4753POPC   PO461356  21.057  15.443   5.454
 4753POPC   GL161357  21.343  15.347   5.788
 4753POPC   GL261358  21.713  15.399   5.675
 4753POPC   C1A61359  21.245  15.111   6.190
 4753POPC   D2A61360  21.320  14.874   6.586
 4753POPC   C3A61361  21.156  14.920   6.976
 4753POPC   C4A61362  21.174  15.238   7.278
 4753POPC   C1B61363  21.762  15.277   6.088
 4753POPC   C2B61364  21.628  15.270   6.506
 4753POPC   C3B61365  21.584  15.227   6.935
 4753POPC   C4B61366  21.548  15.591   7.165
 4754POPC   NC361367   8.458  17.138   5.713
 4754POPC   PO461368   8.029  16.794   5.307
 4754POPC   GL161369   7.876  16.754   5.730
 4754POPC   GL261370   8.146  16.545   5.812
 4754POPC   C1A61371   7.933  16.794   6.194
 4754POPC   D2A61372   8.291  16.765   6.476
 4754POPC   C3A61373   8.120  16.656   6.860
 4754POPC   C4A61374   7.894  16.721   7.230
 4754POPC   C1B61375   8.353  16.356   6.154
 4754POPC   C2B61376   8.325  16.194   6.577
 4754POPC   C3B61377   8.534  16.285   6.941
 4754POPC   C4B61378   8.431  16.572   7.277
 4755POPC   NC361379  22.488  19.390   5.557
 4755POPC   PO461380  22.079  18.881   5.283
 4755POPC   GL161381  22.006  19.042   5.734
 4755POPC   GL261382  22.325  19.010   5.887
 4755POPC   C1A61383  21.917  19.090   6.215
 4755POPC   D2A61384  21.790  18.919   6.671
 4755POPC   C3A61385  21.937  19.112   7.111
 4755POPC   C4A61386  21.701  19.137   7.527
 4755POPC   C1B61387  22.409  19.252   6.255
 4755POPC   C2B61388  22.167  19.268   6.655
 4755POPC   C3B61389  22.237  19.504   7.025
 4755POPC   C4B61390  22.564  19.624   7.280
 4756POPC   NC361391  36.550  10.130   5.388
 4756POPC   PO461392  36.866   9.626   5.161
 4756POPC   GL161393  36.915   9.646   5.660
 4756POPC   GL261394  36.645   9.824   5.829
 4756POPC   C1A61395  36.990   9.568   6.155
 4756POPC   D2A61396  36.974   9.422   6.621
 4756POPC   C3A61397  37.212   9.623   6.999
 4756POPC   C4A61398  37.172   9.810   7.443
 4756POPC   C1B61399  36.671   9.963   6.267
 4756POPC   C2B61400  36.733  10.157   6.675
 4756POPC   C3B61401  36.931  10.063   7.046
 4756POPC   C4B61402  36.694  10.061   7.416
 4757POPC   NC361403  32.653  33.324   5.419
 4757POPC   PO461404  32.027  32.916   5.484
 4757POPC   GL161405  32.253  33.014   5.852
 4757POPC   GL261406  32.429  33.316   5.863
 4757POPC   C1A61407  32.079  32.960   6.245
 4757POPC   D2A61408  31.881  33.087   6.639
 4757POPC   C3A61409  32.026  32.844   7.021
 4757POPC   C4A61410  32.022  32.954   7.458
 4757POPC   C1B61411  32.592  33.215   6.235
 4757POPC   C2B61412  32.430  33.069   6.598
 4757POPC   C3B61413  32.325  33.235   6.948
 4757POPC   C4B61414  32.489  33.012   7.260
 4758POPC   NC361415  13.523  28.642   5.094
 4758POPC   PO461416  14.132  28.356   5.316
 4758POPC   GL161417  13.857  28.311   5.727
 4758POPC   GL261418  13.537  28.474   5.748
 4758POPC   C1A61419  13.805  28.532   6.182
 4758POPC   D2A61420  13.723  28.287   6.561
 4758POPC   C3A61421  13.483  28.415   6.919
 4758POPC   C4A61422  13.784  28.412   7.189
 4758POPC   C1B61423  13.534  28.104   6.096
 4758POPC   C2B61424  13.316  27.975   6.528
 4758POPC   C3B61425  13.100  28.070   6.919
 4758POPC   C4B61426  13.328  28.069   7.324
 4759POPC   NC361427   1.426  21.306   5.469
 4759POPC   PO461428   0.765  21.323   5.586
 4759POPC   GL161429   0.935  21.411   5.966
 4759POPC   GL261430   0.889  21.069   6.121
 4759POPC   C1A61431   0.913  21.483   6.413
 4759POPC   D2A61432   1.117  21.259   6.750
 4759POPC   C3A61433   1.153  21.556   7.098
 4759POPC   C4A61434   0.775  21.756   7.182
 4759POPC   C1B61435   1.336  21.103   6.239
 4759POPC   C2B61436   1.600  21.077   6.616
 4759POPC   C3B61437   1.520  21.173   7.058
 4759POPC   C4B61438   1.677  21.546   7.242
 4760POPC   NC361439  12.683  20.716   5.446
 4760POPC   PO461440  13.257  21.109   5.402
 4760POPC   GL161441  13.146  20.740   5.762
 4760POPC   GL261442  12.845  20.476   5.877
 4760POPC   C1A61443  13.029  20.780   6.231
 4760POPC   D2A61444  13.008  21.077   6.580
 4760POPC   C3A61445  12.914  20.882   7.009
 4760POPC   C4A61446  13.172  20.583   7.251
 4760POPC   C1B61447  12.684  20.382   6.318
 4760POPC   C2B61448  12.655  20.319   6.806
 4760POPC   C3B61449  12.620  20.328   7.280
 4760POPC   C4B61450  12.578  20.463   7.755
 4761POPC   NC361451   0.753  40.567   5.358
 4761POPC   PO461452   0.268  40.915   5.111
 4761POPC   GL161453   0.253  40.769   5.584
 4761POPC   GL261454   0.589  40.840   5.759
 4761POPC   C1A61455   0.196  40.819   6.064
 4761POPC   D2A61456   0.340  40.867   6.461
 4761POPC   C3A61457   0.058  40.873   6.781
 4761POPC   C4A61458   0.130  40.939   7.219
 4761POPC   C1B61459   0.603  40.498   6.094
 4761POPC   C2B61460   0.679  40.507   6.554
 4761POPC   C3B61461   0.424  40.562   6.931
 4761POPC   C4B61462   0.557  40.565   7.341
 4762POPC   NC361463  20.748  22.680   5.311
 4762POPC   PO461464  20.380  23.257   5.370
 4762POPC   GL161465  20.704  23.176   5.721
 4762POPC   GL261466  20.837  22.834   5.798
 4762POPC   C1A61467  20.819  23.205   6.162
 4762POPC   D2A61468  20.985  23.033   6.534
 4762POPC   C3A61469  20.788  23.110   6.882
 4762POPC   C4A61470  20.653  23.094   7.273
 4762POPC   C1B61471  20.437  22.869   6.049
 4762POPC   C2B61472  20.452  22.856   6.500
 4762POPC   C3B61473  20.509  22.701   6.913
 4762POPC   C4B61474  20.378  22.658   7.352
 4763POPC   NC361475  26.171  36.942   5.434
 4763POPC   PO461476  25.617  37.278   5.430
 4763POPC   GL161477  25.838  37.094   5.796
 4763POPC   GL261478  25.864  36.732   5.797
 4763POPC   C1A61479  26.228  37.104   6.077
 4763POPC   D2A61480  26.390  36.956   6.489
 4763POPC   C3A61481  26.064  37.048   6.777
 4763POPC   C4A61482  25.946  37.143   7.186
 4763POPC   C1B61483  25.988  36.658   6.221
 4763POPC   C2B61484  26.064  36.553   6.627
 4763POPC   C3B61485  25.853  36.620   7.014
 4763POPC   C4B61486  25.677  36.695   7.419
 4764POPC   NC361487  32.111  24.943   5.561
 4764POPC   PO461488  32.122  25.563   5.442
 4764POPC   GL161489  32.285  25.381   5.813
 4764POPC   GL261490  31.945  25.268   5.923
 4764POPC   C1A61491  32.396  25.287   6.269
 4764POPC   D2A61492  32.143  25.316   6.670
 4764POPC   C3A61493  32.350  25.219   7.068
 4764POPC   C4A61494  32.771  25.212   7.192
 4764POPC   C1B61495  31.744  25.371   6.311
 4764POPC   C2B61496  31.622  25.350   6.749
 4764POPC   C3B61497  31.857  25.362   7.129
 4764POPC   C4B61498  32.100  25.527   7.471
 4765POPC   NC361499   2.909  26.481   5.046
 4765POPC   PO461500   3.020  25.978   5.437
 4765POPC   GL161501   2.813  26.235   5.737
 4765POPC   GL261502   2.515  26.035   5.785
 4765POPC   C1A61503   2.623  26.407   6.137
 4765POPC   D2A61504   2.689  26.222   6.554
 4765POPC   C3A61505   2.648  26.391   6.965
 4765POPC   C4A61506   2.841  26.269   7.396
 4765POPC   C1B61507   2.766  25.839   6.139
 4765POPC   C2B61508   2.755  25.711   6.594
 4765POPC   C3B61509   2.887  25.900   7.005
 4765POPC   C4B61510   3.204  25.913   7.342
 4766POPC   NC361511  33.121   8.725   5.509
 4766POPC   PO461512  33.285   8.123   5.202
 4766POPC   GL161513  33.286   8.234   5.660
 4766POPC   GL261514  33.039   7.998   5.765
 4766POPC   C1A61515  33.158   8.336   6.136
 4766POPC   D2A61516  33.124   8.126   6.557
 4766POPC   C3A61517  33.096   8.283   6.989
 4766POPC   C4A61518  33.169   8.268   7.467
 4766POPC   C1B61519  32.839   7.897   6.170
 4766POPC   C2B61520  32.796   7.719   6.576
 4766POPC   C3B61521  32.700   7.770   6.991
 4766POPC   C4B61522  33.052   7.833   7.249
 4767POPC   NC361523  20.169  17.040   5.354
 4767POPC   PO461524  20.575  17.639   5.309
 4767POPC   GL161525  20.809  17.551   5.702
 4767POPC   GL261526  21.009  17.833   5.849
 4767POPC   C1A61527  20.791  17.385   6.130
 4767POPC   D2A61528  20.655  17.469   6.553
 4767POPC   C3A61529  20.753  17.218   6.903
 4767POPC   C4A61530  20.749  17.240   7.329
 4767POPC   C1B61531  20.813  17.892   6.266
 4767POPC   C2B61532  20.659  17.957   6.695
 4767POPC   C3B61533  20.746  17.729   7.054
 4767POPC   C4B61534  20.951  17.962   7.389
 4768POPC   NC361535  15.462  32.355   5.349
 4768POPC   PO461536  15.119  31.838   5.242
 4768POPC   GL161537  15.148  32.017   5.702
 4768POPC   GL261538  15.436  32.188   5.825
 4768POPC   C1A61539  15.044  32.156   6.177
 4768POPC   D2A61540  14.891  32.166   6.640
 4768POPC   C3A61541  15.204  32.191   6.989
 4768POPC   C4A61542  15.159  32.212   7.458
 4768POPC   C1B61543  15.533  32.397   6.202
 4768POPC   C2B61544  15.347  32.479   6.579
 4768POPC   C3B61545  15.520  32.630   6.948
 4768POPC   C4B61546  15.555  32.505   7.325
 4769POPC   NC361547  12.411  30.735   5.476
 4769POPC   PO461548  11.886  31.101   5.416
 4769POPC   GL161549  12.107  30.998   5.788
 4769POPC   GL261550  11.993  30.647   5.782
 4769POPC   C1A61551  12.252  30.833   6.191
 4769POPC   D2A61552  12.007  30.720   6.557
 4769POPC   C3A61553  12.190  30.843   6.931
 4769POPC   C4A61554  12.365  31.005   7.282
 4769POPC   C1B61555  12.029  30.373   6.145
 4769POPC   C2B61556  12.140  30.200   6.519
 4769POPC   C3B61557  12.023  30.327   6.913
 4769POPC   C4B61558  12.239  30.463   7.265
 4770POPC   NC361559  28.993  38.717   5.518
 4770POPC   PO461560  29.506  38.355   5.481
 4770POPC   GL161561  29.491  38.311   5.894
 4770POPC   GL261562  29.376  38.648   5.944
 4770POPC   C1A61563  29.194  38.231   6.209
 4770POPC   D2A61564  29.236  38.470   6.595
 4770POPC   C3A61565  29.034  38.378   6.962
 4770POPC   C4A61566  29.333  38.372   7.277
 4770POPC   C1B61567  29.025  38.731   6.216
 4770POPC   C2B61568  28.799  38.726   6.614
 4770POPC   C3B61569  28.846  38.854   7.061
 4770POPC   C4B61570  28.944  38.641   7.459
 4771POPC   NC361571  13.803  26.868   5.117
 4771POPC   PO461572  13.235  26.631   5.394
 4771POPC   GL161573  13.526  26.758   5.713
 4771POPC   GL261574  13.464  27.034   5.856
 4771POPC   C1A61575  13.645  26.598   6.151
 4771POPC   D2A61576  13.730  26.339   6.550
 4771POPC   C3A61577  13.866  26.498   6.976
 4771POPC   C4A61578  13.840  26.730   7.379
 4771POPC   C1B61579  13.598  27.096   6.266
 4771POPC   C2B61580  13.607  26.840   6.640
 4771POPC   C3B61581  13.462  26.870   7.062
 4771POPC   C4B61582  13.484  27.135   7.448
 4772POPC   NC361583   3.690  31.953   5.333
 4772POPC   PO461584   3.357  32.520   5.485
 4772POPC   GL161585   3.652  32.328   5.789
 4772POPC   GL261586   3.714  31.973   5.847
 4772POPC   C1A61587   3.711  32.322   6.243
 4772POPC   D2A61588   3.511  32.189   6.611
 4772POPC   C3A61589   3.687  32.372   6.960
 4772POPC   C4A61590   3.618  32.492   7.356
 4772POPC   C1B61591   3.651  31.790   6.273
 4772POPC   C2B61592   3.665  31.691   6.720
 4772POPC   C3B61593   3.788  31.899   7.052
 4772POPC   C4B61594   3.578  31.983   7.404
 4773POPC   NC361595  26.713  27.503   5.592
 4773POPC   PO461596  26.443  28.143   5.373
 4773POPC   GL161597  26.656  27.977   5.771
 4773POPC   GL261598  27.000  27.841   5.888
 4773POPC   C1A61599  26.561  27.796   6.185
 4773POPC   D2A61600  26.747  27.778   6.584
 4773POPC   C3A61601  26.580  27.620   6.960
 4773POPC   C4A61602  26.772  27.553   7.321
 4773POPC   C1B61603  27.072  27.537   6.260
 4773POPC   C2B61604  27.036  27.377   6.703
 4773POPC   C3B61605  27.170  27.315   7.115
 4773POPC   C4B61606  27.182  27.280   7.551
 4774POPC   NC361607  18.925  12.631   5.654
 4774POPC   PO461608  18.933  13.043   5.143
 4774POPC   GL161609  18.903  13.134   5.614
 4774POPC   GL261610  19.262  13.000   5.771
 4774POPC   C1A61611  18.877  13.158   6.085
 4774POPC   D2A61612  18.843  12.935   6.484
 4774POPC   C3A61613  19.212  13.048   6.764
 4774POPC   C4A61614  19.285  12.908   7.200
 4774POPC   C1B61615  19.308  12.918   6.239
 4774POPC   C2B61616  19.369  12.594   6.581
 4774POPC   C3B61617  19.286  12.424   7.007
 4774POPC   C4B61618  19.345  12.470   7.468
 4775POPC   NC361619  31.475  43.932   5.369
 4775POPC   PO461620  31.201  44.223   5.825
 4775POPC   GL161621  31.591  44.142   6.085
 4775POPC   GL261622  31.873  44.035   5.860
 4775POPC   C1A61623  31.601  43.908   6.503
 4775POPC   D2A61624  31.198  43.843   6.725
 4775POPC   C3A61625  31.237  43.629   7.086
 4775POPC   C4A61626  31.050  43.510   7.450
 4775POPC   C1B61627  31.791  43.631   6.100
 4775POPC   C2B61628  31.725  43.391   6.485
 4775POPC   C3B61629  31.748  43.541   6.905
 4775POPC   C4B61630  31.747  43.924   7.155
 4776POPC   NC361631  22.084  38.123   5.460
 4776POPC   PO461632  22.442  38.777   5.429
 4776POPC   GL161633  22.163  38.560   5.714
 4776POPC   GL261634  22.126  38.799   5.905
 4776POPC   C1A61635  22.107  38.337   6.121
 4776POPC   D2A61636  22.146  38.145   6.531
 4776POPC   C3A61637  21.915  38.313   6.904
 4776POPC   C4A61638  21.982  38.445   7.326
 4776POPC   C1B61639  22.195  38.828   6.312
 4776POPC   C2B61640  22.024  38.763   6.654
 4776POPC   C3B61641  22.218  38.766   6.999
 4776POPC   C4B61642  22.142  38.914   7.346
 4777POPC   NC361643  13.116  10.511   5.556
 4777POPC   PO461644  12.513  10.235   5.551
 4777POPC   GL161645  12.830  10.313   5.916
 4777POPC   GL261646  13.213  10.296   6.001
 4777POPC   C1A61647  12.822  10.611   6.261
 4777POPC   D2A61648  12.954  10.763   6.679
 4777POPC   C3A61649  12.767  10.540   6.992
 4777POPC   C4A61650  12.532  10.692   7.404
 4777POPC   C1B61651  13.079  10.204   6.450
 4777POPC   C2B61652  13.196  10.271   6.895
 4777POPC   C3B61653  13.082  10.382   7.349
 4777POPC   C4B61654  12.738  10.298   7.623
 4778POPC   NC361655  26.244  17.331   5.388
 4778POPC   PO461656  25.511  17.362   5.478
 4778POPC   GL161657  25.903  17.497   5.739
 4778POPC   GL261658  26.223  17.702   5.756
 4778POPC   C1A61659  25.938  17.650   6.168
 4778POPC   D2A61660  25.787  17.608   6.576
 4778POPC   C3A61661  26.009  17.484   6.932
 4778POPC   C4A61662  25.831  17.518   7.354
 4778POPC   C1B61663  26.448  17.772   6.140
 4778POPC   C2B61664  26.256  17.840   6.548
 4778POPC   C3B61665  26.363  18.028   6.935
 4778POPC   C4B61666  26.275  17.782   7.294
 4779POPC   NC361667  43.428  34.038   5.319
 4779POPC   PO461668  43.045  33.472   5.521
 4779POPC   GL161669  43.023  33.629   5.927
 4779POPC   GL261670  43.247  33.920   5.838
 4779POPC   C1A61671  43.053  33.517   6.378
 4779POPC   D2A61672  43.391  33.469   6.706
 4779POPC   C3A61673  43.188  33.522   7.130
 4779POPC   C4A61674  43.129  33.847   7.461
 4779POPC   C1B61675  43.110  34.015   6.285
 4779POPC   C2B61676  43.113  33.904   6.732
 4779POPC   C3B61677  43.099  34.160   7.080
 4779POPC   C4B61678  42.764  34.220   7.395
 4780POPC   NC361679  30.146   1.366   5.530
 4780POPC   PO461680  29.520   1.123   5.547
 4780POPC   GL161681  29.666   0.984   5.919
 4780POPC   GL261682  29.980   1.046   5.908
 4780POPC   C1A61683  29.704   0.962   6.367
 4780POPC   D2A61684  29.906   1.263   6.633
 4780POPC   C3A61685  29.648   1.379   6.966
 4780POPC   C4A61686  29.570   1.067   7.256
 4780POPC   C1B61687  30.159   1.285   6.192
 4780POPC   C2B61688  30.342   1.562   6.442
 4780POPC   C3B61689  30.139   1.718   6.772
 4780POPC   C4B61690  30.161   1.360   7.073
 4781POPC   NC361691  20.184  14.331   5.438
 4781POPC   PO461692  19.619  14.576   5.554
 4781POPC   GL161693  19.883  14.478   5.871
 4781POPC   GL261694  19.901  14.834   5.958
 4781POPC   C1A61695  19.991  14.176   6.215
 4781POPC   D2A61696  19.820  14.076   6.612
 4781POPC   C3A61697  19.761  14.105   7.048
 4781POPC   C4A61698  19.831  14.295   7.463
 4781POPC   C1B61699  19.715  14.615   6.332
 4781POPC   C2B61700  19.842  14.562   6.760
 4781POPC   C3B61701  19.853  14.730   7.163
 4781POPC   C4B61702  19.595  15.053   7.258
 4782POPC   NC361703  10.080  34.892   5.224
 4782POPC   PO461704   9.488  35.243   5.338
 4782POPC   GL161705   9.682  35.256   5.753
 4782POPC   GL261706   9.854  34.948   5.785
 4782POPC   C1A61707   9.725  35.558   6.103
 4782POPC   D2A61708   9.677  35.623   6.553
 4782POPC   C3A61709  10.063  35.731   6.789
 4782POPC   C4A61710  10.067  35.459   7.148
 4782POPC   C1B61711   9.665  35.057   6.226
 4782POPC   C2B61712   9.613  34.976   6.662
 4782POPC   C3B61713   9.768  35.035   7.076
 4782POPC   C4B61714   9.721  35.112   7.512
 4783POPC   NC361715  26.191   6.152   5.457
 4783POPC   PO461716  25.809   5.608   5.443
 4783POPC   GL161717  26.058   5.765   5.787
 4783POPC   GL261718  26.327   5.576   5.926
 4783POPC   C1A61719  25.997   6.081   6.109
 4783POPC   D2A61720  25.762   6.177   6.486
 4783POPC   C3A61721  25.839   5.949   6.842
 4783POPC   C4A61722  25.970   5.840   7.243
 4783POPC   C1B61723  26.222   5.647   6.369
 4783POPC   C2B61724  26.224   5.624   6.826
 4783POPC   C3B61725  25.969   5.362   7.101
 4783POPC   C4B61726  25.763   5.429   7.461
 4784POPC   NC361727   7.336  41.708   5.445
 4784POPC   PO461728   7.318  41.088   5.658
 4784POPC   GL161729   7.418  41.423   5.901
 4784POPC   GL261730   7.690  41.646   5.848
 4784POPC   C1A61731   7.268  41.494   6.310
 4784POPC   D2A61732   7.130  41.270   6.658
 4784POPC   C3A61733   7.223  41.451   7.054
 4784POPC   C4A61734   6.980  41.654   7.376
 4784POPC   C1B61735   7.752  41.632   6.278
 4784POPC   C2B61736   7.536  41.763   6.682
 4784POPC   C3B61737   7.669  41.656   7.091
 4784POPC   C4B61738   7.592  41.841   7.506
 4785POPC   NC361739  15.853  12.173   5.276
 4785POPC   PO461740  16.288  11.645   5.404
 4785POPC   GL161741  16.053  11.927   5.729
 4785POPC   GL261742  15.948  12.277   5.759
 4785POPC   C1A61743  15.830  12.002   6.168
 4785POPC   D2A61744  15.792  12.220   6.590
 4785POPC   C3A61745  15.859  12.057   6.998
 4785POPC   C4A61746  15.838  12.012   7.431
 4785POPC   C1B61747  15.974  12.490   6.170
 4785POPC   C2B61748  16.204  12.536   6.541
 4785POPC   C3B61749  16.039  12.592   6.929
 4785POPC   C4B61750  16.081  12.444   7.317
 4786POPC   NC361751   6.691  31.951   5.294
 4786POPC   PO461752   6.403  32.568   5.261
 4786POPC   GL161753   6.587  32.495   5.678
 4786POPC   GL261754   6.326  32.304   5.836
 4786POPC   C1A61755   6.647  32.522   6.145
 4786POPC   D2A61756   6.685  32.286   6.542
 4786POPC   C3A61757   6.851  32.508   6.909
 4786POPC   C4A61758   7.052  32.366   7.263
 4786POPC   C1B61759   6.135  32.451   6.220
 4786POPC   C2B61760   6.264  32.552   6.648
 4786POPC   C3B61761   6.399  32.301   7.009
 4786POPC   C4B61762   6.567  32.514   7.385
 4787POPC   NC361763  17.990  33.190   5.398
 4787POPC   PO461764  17.284  32.852   5.365
 4787POPC   GL161765  17.650  32.909   5.675
 4787POPC   GL261766  17.674  33.252   5.844
 4787POPC   C1A61767  17.772  32.851   6.121
 4787POPC   D2A61768  17.637  33.096   6.491
 4787POPC   C3A61769  17.543  32.854   6.889
 4787POPC   C4A61770  17.424  32.757   7.318
 4787POPC   C1B61771  17.767  33.600   6.123
 4787POPC   C2B61772  17.791  33.595   6.564
 4787POPC   C3B61773  17.782  33.327   6.925
 4787POPC   C4B61774  17.875  33.034   7.266
 4788POPC   NC361775  36.090  44.729   5.427
 4788POPC   PO461776  35.711  44.141   5.492
 4788POPC   GL161777  35.970  44.392   5.825
 4788POPC   GL261778  36.025  44.806   5.909
 4788POPC   C1A61779  35.826  44.493   6.241
 4788POPC   D2A61780  35.994  44.687   6.593
 4788POPC   C3A61781  35.918  44.462   6.948
 4788POPC   C4A61782  35.887  44.681   7.321
 4788POPC   C1B61783  36.336  44.601   6.169
 4788POPC   C2B61784  36.479  44.554   6.587
 4788POPC   C3B61785  36.351  44.731   7.000
 4788POPC   C4B61786  36.425  44.556   7.410
 4789POPC   NC361787   8.424  12.395   5.508
 4789POPC   PO461788   7.939  11.979   5.294
 4789POPC   GL161789   8.070  12.064   5.716
 4789POPC   GL261790   8.409  11.967   5.809
 4789POPC   C1A61791   8.019  11.866   6.144
 4789POPC   D2A61792   8.081  12.159   6.470
 4789POPC   C3A61793   7.978  12.078   6.890
 4789POPC   C4A61794   8.132  12.314   7.231
 4789POPC   C1B61795   8.535  11.817   6.233
 4789POPC   C2B61796   8.470  11.909   6.671
 4789POPC   C3B61797   8.406  11.855   7.095
 4789POPC   C4B61798   8.520  12.059   7.457
 4790POPC   NC361799   7.732  11.565   5.376
 4790POPC   PO461800   7.213  11.107   5.450
 4790POPC   GL161801   7.409  11.394   5.737
 4790POPC   GL261802   7.711  11.227   5.766
 4790POPC   C1A61803   7.540  11.507   6.165
 4790POPC   D2A61804   7.352  11.438   6.587
 4790POPC   C3A61805   7.549  11.544   6.983
 4790POPC   C4A61806   7.368  11.592   7.395
 4790POPC   C1B61807   7.415  11.010   6.064
 4790POPC   C2B61808   7.352  10.935   6.490
 4790POPC   C3B61809   7.562  11.041   6.858
 4790POPC   C4B61810   7.540  11.119   7.271
 4791POPC   NC361811  29.916  27.679   5.440
 4791POPC   PO461812  29.601  27.243   5.101
 4791POPC   GL161813  29.695  27.256   5.637
 4791POPC   GL261814  29.997  27.386   5.839
 4791POPC   C1A61815  29.584  27.417   6.121
 4791POPC   D2A61816  29.697  27.333   6.589
 4791POPC   C3A61817  30.015  27.541   6.889
 4791POPC   C4A61818  30.011  27.510   7.346
 4791POPC   C1B61819  30.002  27.727   6.197
 4791POPC   C2B61820  29.967  27.986   6.628
 4791POPC   C3B61821  30.026  28.044   7.108
 4791POPC   C4B61822  29.875  27.984   7.538
 4792POPC   NC361823  22.953  24.619   5.383
 4792POPC   PO461824  23.313  24.057   5.179
 4792POPC   GL161825  23.094  24.186   5.635
 4792POPC   GL261826  22.708  24.331   5.737
 4792POPC   C1A61827  22.999  24.209   6.124
 4792POPC   D2A61828  22.771  24.352   6.517
 4792POPC   C3A61829  22.995  24.374   6.916
 4792POPC   C4A61830  22.996  24.542   7.344
 4792POPC   C1B61831  22.763  24.691   6.080
 4792POPC   C2B61832  22.789  24.852   6.531
 4792POPC   C3B61833  22.767  24.840   6.994
 4792POPC   C4B61834  22.755  25.078   7.393
 4793POPC   NC361835  15.700  29.082   5.477
 4793POPC   PO461836  16.265  29.378   5.469
 4793POPC   GL161837  16.064  29.178   5.810
 4793POPC   GL261838  15.764  29.367   5.913
 4793POPC   C1A61839  16.031  28.992   6.218
 4793POPC   D2A61840  16.130  29.157   6.598
 4793POPC   C3A61841  16.051  28.964   6.986
 4793POPC   C4A61842  15.992  29.300   7.288
 4793POPC   C1B61843  15.528  29.014   6.123
 4793POPC   C2B61844  15.614  28.894   6.530
 4793POPC   C3B61845  15.588  29.169   6.869
 4793POPC   C4B61846  15.602  28.985   7.268
 4794POPC   NC361847  23.087  22.931   5.281
 4794POPC   PO461848  22.853  22.375   5.360
 4794POPC   GL161849  22.768  22.798   5.658
 4794POPC   GL261850  23.000  23.124   5.734
 4794POPC   C1A61851  22.786  22.844   6.114
 4794POPC   D2A61852  22.710  22.981   6.528
 4794POPC   C3A61853  22.846  22.726   6.864
 4794POPC   C4A61854  22.775  22.839   7.275
 4794POPC   C1B61855  23.140  23.222   6.127
 4794POPC   C2B61856  23.244  23.044   6.521
 4794POPC   C3B61857  23.081  23.162   6.923
 4794POPC   C4B61858  23.178  23.200   7.344
 4795POPC   NC361859  11.670  44.146   5.466
 4795POPC   PO461860  12.321  43.897   5.233
 4795POPC   GL161861  12.319  43.928   5.709
 4795POPC   GL261862  12.099  44.216   5.820
 4795POPC   C1A61863  12.068  43.775   6.095
 4795POPC   D2A61864  11.919  43.723   6.545
 4795POPC   C3A61865  12.221  43.809   6.871
 4795POPC   C4A61866  12.340  44.155   7.179
 4795POPC   C1B61867  11.746  44.178   6.156
 4795POPC   C2B61868  11.609  44.188   6.605
 4795POPC   C3B61869  11.807  44.117   7.021
 4795POPC   C4B61870  11.709  44.243   7.440
 4796POPC   NC361871  21.144  25.192   5.382
 4796POPC   PO461872  21.663  25.452   5.426
 4796POPC   GL161873  21.543  25.168   5.775
 4796POPC   GL261874  21.720  24.860   5.826
 4796POPC   C1A61875  21.501  25.250   6.225
 4796POPC   D2A61876  21.244  25.211   6.597
 4796POPC   C3A61877  21.414  25.323   7.014
 4796POPC   C4A61878  21.298  25.246   7.469
 4796POPC   C1B61879  21.533  24.739   6.200
 4796POPC   C2B61880  21.262  24.703   6.542
 4796POPC   C3B61881  21.186  24.822   6.945
 4796POPC   C4B61882  21.502  24.868   7.195
 4797POPC   NC361883  42.573   6.162   5.498
 4797POPC   PO461884  42.187   6.722   5.599
 4797POPC   GL161885  42.291   6.482   5.851
 4797POPC   GL261886  42.631   6.529   5.842
 4797POPC   C1A61887  42.153   6.565   6.260
 4797POPC   D2A61888  42.407   6.518   6.599
 4797POPC   C3A61889  42.275   6.515   7.014
 4797POPC   C4A61890  41.945   6.735   7.186
 4797POPC   C1B61891  42.612   6.808   6.162
 4797POPC   C2B61892  42.843   6.802   6.533
 4797POPC   C3B61893  42.673   6.841   6.925
 4797POPC   C4B61894  42.422   6.938   7.273
 4798POPC   NC361895  10.985  24.451   5.565
 4798POPC   PO461896  11.631  24.791   5.457
 4798POPC   GL161897  11.429  24.693   5.817
 4798POPC   GL261898  11.426  24.334   5.799
 4798POPC   C1A61899  11.466  24.784   6.255
 4798POPC   D2A61900  11.160  24.654   6.542
 4798POPC   C3A61901  11.132  24.835   6.913
 4798POPC   C4A61902  11.239  24.568   7.239
 4798POPC   C1B61903  11.284  24.305   6.188
 4798POPC   C2B61904  11.448  24.211   6.578
 4798POPC   C3B61905  11.606  24.453   6.916
 4798POPC   C4B61906  11.740  24.360   7.336
 4799POPC   NC361907  35.975  39.294   5.361
 4799POPC   PO461908  36.641  39.210   5.425
 4799POPC   GL161909  36.294  39.259   5.747
 4799POPC   GL261910  36.301  39.575   5.792
 4799POPC   C1A61911  35.978  39.353   6.113
 4799POPC   D2A61912  36.087  39.230   6.560
 4799POPC   C3A61913  35.930  39.365   6.981
 4799POPC   C4A61914  36.087  39.116   7.377
 4799POPC   C1B61915  36.454  39.501   6.219
 4799POPC   C2B61916  36.587  39.388   6.637
 4799POPC   C3B61917  36.448  39.326   7.016
 4799POPC   C4B61918  36.260  39.575   7.304
 4800POPC   NC361919  36.122  37.615   5.448
 4800POPC   PO461920  36.093  38.297   5.573
 4800POPC   GL161921  36.294  37.928   5.840
 4800POPC   GL261922  35.962  37.841   5.874
 4800POPC   C1A61923  36.386  37.506   6.140
 4800POPC   D2A61924  36.219  37.196   6.488
 4800POPC   C3A61925  36.068  37.298   6.935
 4800POPC   C4A61926  35.810  37.479   7.279
 4800POPC   C1B61927  36.013  37.816   6.290
 4800POPC   C2B61928  35.827  37.576   6.568
 4800POPC   C3B61929  35.904  37.800   6.899
 4800POPC   C4B61930  36.025  37.994   7.258
 4801POPC   NC361931  11.500  35.337   5.425
 4801POPC   PO461932  11.214  34.687   5.418
 4801POPC   GL161933  11.143  35.035   5.763
 4801POPC   GL261934  10.999  35.387   5.752
 4801POPC   C1A61935  11.219  35.198   6.202
 4801POPC   D2A61936  11.477  35.039   6.547
 4801POPC   C3A61937  11.486  35.050   6.993
 4801POPC   C4A61938  11.594  35.405   7.231
 4801POPC   C1B61939  11.009  35.657   6.121
 4801POPC   C2B61940  10.917  35.513   6.534
 4801POPC   C3B61941  11.100  35.384   6.926
 4801POPC   C4B61942  11.061  35.570   7.319
 4802POPC   NC361943  12.967  36.539   5.598
 4802POPC   PO461944  12.763  35.903   5.573
 4802POPC   GL161945  13.147  36.040   5.760
 4802POPC   GL261946  12.931  36.249   6.000
 4802POPC   C1A61947  13.222  35.858   6.149
 4802POPC   D2A61948  12.951  36.001   6.461
 4802POPC   C3A61949  12.972  35.910   6.895
 4802POPC   C4A61950  12.694  35.758   7.258
 4802POPC   C1B61951  12.877  36.516   6.360
 4802POPC   C2B61952  13.025  36.428   6.744
 4802POPC   C3B61953  12.849  36.338   7.122
 4802POPC   C4B61954  12.896  36.693   7.278
 4803POPC   NC361955  30.502  37.805   5.579
 4803POPC   PO461956  30.891  37.236   5.460
 4803POPC   GL161957  30.878  37.529   5.793
 4803POPC   GL261958  30.557  37.387   5.918
 4803POPC   C1A61959  30.844  37.778   6.192
 4803POPC   D2A61960  30.539  37.911   6.522
 4803POPC   C3A61961  30.749  37.893   6.902
 4803POPC   C4A61962  31.106  37.654   7.048
 4803POPC   C1B61963  30.332  37.470   6.317
 4803POPC   C2B61964  30.383  37.471   6.784
 4803POPC   C3B61965  30.633  37.439   7.161
 4803POPC   C4B61966  30.470  37.452   7.644
 4804POPC   NC361967  25.884  13.697   5.333
 4804POPC   PO461968  26.024  13.090   5.500
 4804POPC   GL161969  26.178  13.460   5.800
 4804POPC   GL261970  26.138  13.819   5.741
 4804POPC   C1A61971  26.185  13.667   6.243
 4804POPC   D2A61972  25.973  13.692   6.645
 4804POPC   C3A61973  26.189  13.668   7.046
 4804POPC   C4A61974  26.541  13.712   7.303
 4804POPC   C1B61975  25.845  13.996   6.064
 4804POPC   C2B61976  25.864  14.180   6.462
 4804POPC   C3B61977  25.875  14.117   6.906
 4804POPC   C4B61978  25.841  14.146   7.344
 4805POPC   NC361979  11.171   2.038   5.123
 4805POPC   PO461980  11.570   1.636   5.640
 4805POPC   GL161981  11.379   1.937   5.914
 4805POPC   GL261982  11.060   1.825   6.031
 4805POPC   C1A61983  11.491   1.883   6.337
 4805POPC   D2A61984  11.293   1.797   6.726
 4805POPC   C3A61985  11.530   1.990   7.046
 4805POPC   C4A61986  11.510   2.190   7.450
 4805POPC   C1B61987  11.072   2.167   6.345
 4805POPC   C2B61988  11.075   2.262   6.794
 4805POPC   C3B61989  11.056   2.141   7.202
 4805POPC   C4B61990  10.927   2.295   7.593
 4806POPC   NC361991  31.892  28.605   5.417
 4806POPC   PO461992  32.610  28.732   5.372
 4806POPC   GL161993  32.498  28.466   5.743
 4806POPC   GL261994  32.299  28.145   5.712
 4806POPC   C1A61995  32.348  28.389   6.168
 4806POPC   D2A61996  32.374  28.573   6.570
 4806POPC   C3A61997  32.371  28.334   6.935
 4806POPC   C4A61998  32.671  28.269   7.256
 4806POPC   C1B61999  32.059  27.978   6.097
 4806POPC   C2B62000  31.966  28.184   6.506
 4806POPC   C3B62001  31.927  28.031   6.916
 4806POPC   C4B62002  32.146  28.026   7.305
 4807POPC   NC362003   0.265  30.440   5.570
 4807POPC   PO462004   0.984  30.427   5.627
 4807POPC   GL162005   0.646  30.475   5.930
 4807POPC   GL262006   0.520  30.813   5.863
 4807POPC   C1A62007   0.578  30.644   6.363
 4807POPC   D2A62008   0.840  30.891   6.651
 4807POPC   C3A62009   0.781  30.772   7.062
 4807POPC   C4A62010   0.644  30.366   7.154
 4807POPC   C1B62011   0.206  30.976   6.174
 4807POPC   C2B62012   0.249  30.992   6.610
 4807POPC   C3B62013   0.317  30.642   6.861
 4807POPC   C4B62014   0.196  30.551   7.277
 4808POPC   NC362015  19.050  19.977   5.273
 4808POPC   PO462016  19.638  19.989   5.425
 4808POPC   GL162017  19.263  20.033   5.741
 4808POPC   GL262018  19.052  19.718   5.729
 4808POPC   C1A62019  19.083  20.143   6.183
 4808POPC   D2A62020  19.172  20.297   6.630
 4808POPC   C3A62021  19.119  20.087   7.023
 4808POPC   C4A62022  18.754  20.048   7.308
 4808POPC   C1B62023  19.125  19.614   6.193
 4808POPC   C2B62024  19.018  19.723   6.658
 4808POPC   C3B62025  19.006  19.607   7.137
 4808POPC   C4B62026  18.809  19.571   7.565
 4809POPC   NC362027  38.301  22.214   5.266
 4809POPC   PO462028  38.906  22.117   5.191
 4809POPC   GL162029  38.676  22.241   5.630
 4809POPC   GL262030  38.377  22.478   5.716
 4809POPC   C1A62031  38.535  22.119   6.061
 4809POPC   D2A62032  38.664  21.908   6.445
 4809POPC   C3A62033  38.753  22.123   6.827
 4809POPC   C4A62034  38.653  22.011   7.242
 4809POPC   C1B62035  38.329  22.573   6.177
 4809POPC   C2B62036  38.302  22.310   6.562
 4809POPC   C3B62037  38.353  22.400   7.008
 4809POPC   C4B62038  38.224  22.334   7.436
 4810POPC   NC362039  29.230   1.372   5.291
 4810POPC   PO462040  29.191   0.746   5.210
 4810POPC   GL162041  29.063   0.977   5.693
 4810POPC   GL262042  29.095   1.349   5.776
 4810POPC   C1A62043  29.236   1.084   6.170
 4810POPC   D2A62044  29.251   1.221   6.649
 4810POPC   C3A62045  29.118   0.960   7.054
 4810POPC   C4A62046  29.196   0.907   7.553
 4810POPC   C1B62047  28.887   1.468   6.186
 4810POPC   C2B62048  28.887   1.659   6.631
 4810POPC   C3B62049  28.920   1.437   7.044
 4810POPC   C4B62050  28.775   1.161   7.397
 4811POPC   NC362051  40.425  28.478   5.446
 4811POPC   PO462052  39.705  28.428   5.432
 4811POPC   GL162053  39.938  28.181   5.760
 4811POPC   GL262054  40.207  28.391   5.903
 4811POPC   C1A62055  39.876  28.174   6.228
 4811POPC   D2A62056  40.120  28.342   6.587
 4811POPC   C3A62057  40.149  28.156   7.027
 4811POPC   C4A62058  40.067  28.421   7.418
 4811POPC   C1B62059  40.112  28.724   6.184
 4811POPC   C2B62060  40.241  28.836   6.591
 4811POPC   C3B62061  40.302  28.639   6.995
 4811POPC   C4B62062  40.457  28.791   7.375
 4812POPC   NC362063  28.338  22.557   5.525
 4812POPC   PO462064  28.244  22.007   5.504
 4812POPC   GL162065  28.514  22.027   5.849
 4812POPC   GL262066  28.508  22.361   5.955
 4812POPC   C1A62067  28.654  21.943   6.281
 4812POPC   D2A62068  28.410  21.985   6.695
 4812POPC   C3A62069  28.637  21.965   7.085
 4812POPC   C4A62070  28.429  21.981   7.491
 4812POPC   C1B62071  28.228  22.220   6.260
 4812POPC   C2B62072  28.129  22.429   6.622
 4812POPC   C3B62073  28.343  22.506   6.977
 4812POPC   C4B62074  28.129  22.372   7.353
 4813POPC   NC362075  13.226  21.458   5.710
 4813POPC   PO462076  13.868  21.441   5.455
 4813POPC   GL162077  13.706  21.379   5.847
 4813POPC   GL262078  13.647  21.715   5.882
 4813POPC   C1A62079  13.510  21.362   6.281
 4813POPC   D2A62080  13.724  21.439   6.666
 4813POPC   C3A62081  13.504  21.438   7.054
 4813POPC   C4A62082  13.678  21.259   7.412
 4813POPC   C1B62083  13.961  21.642   6.226
 4813POPC   C2B62084  14.092  21.797   6.648
 4813POPC   C3B62085  13.903  21.772   7.078
 4813POPC   C4B62086  13.783  21.782   7.482
 4814POPC   NC362087  41.184  17.555   5.477
 4814POPC   PO462088  40.582  17.362   5.235
 4814POPC   GL162089  40.690  17.363   5.711
 4814POPC   GL262090  40.721  17.714   5.871
 4814POPC   C1A62091  40.663  17.319   6.199
 4814POPC   D2A62092  40.768  17.641   6.584
 4814POPC   C3A62093  40.916  17.617   7.025
 4814POPC   C4A62094  40.808  17.276   7.282
 4814POPC   C1B62095  40.411  17.759   6.228
 4814POPC   C2B62096  40.243  17.685   6.677
 4814POPC   C3B62097  40.397  17.553   7.081
 4814POPC   C4B62098  40.569  17.780   7.423
 4815POPC   NC362099  21.680  20.624   5.470
 4815POPC   PO462100  22.375  20.595   5.539
 4815POPC   GL162101  22.122  20.446   5.843
 4815POPC   GL262102  21.945  20.749   5.928
 4815POPC   C1A62103  22.401  20.420   6.219
 4815POPC   D2A62104  22.390  20.669   6.590
 4815POPC   C3A62105  22.522  20.459   6.945
 4815POPC   C4A62106  22.461  20.519   7.358
 4815POPC   C1B62107  21.906  20.481   6.315
 4815POPC   C2B62108  22.058  20.297   6.710
 4815POPC   C3B62109  22.005  20.514   7.108
 4815POPC   C4B62110  21.747  20.902   7.148
 4816POPC   NC362111   9.707  23.486   5.427
 4816POPC   PO462112   9.826  22.753   5.446
 4816POPC   GL162113  10.043  22.767   5.839
 4816POPC   GL262114  10.132  23.128   5.862
 4816POPC   C1A62115   9.867  22.559   6.224
 4816POPC   D2A62116   9.680  22.746   6.616
 4816POPC   C3A62117   9.710  22.743   7.080
 4816POPC   C4A62118   9.782  22.907   7.500
 4816POPC   C1B62119   9.936  23.077   6.256
 4816POPC   C2B62120   9.966  23.198   6.681
 4816POPC   C3B62121   9.864  23.221   7.110
 4816POPC   C4B62122   9.948  23.393   7.533
 4817POPC   NC362123   0.459  31.436   5.341
 4817POPC   PO462124   0.157  30.881   5.495
 4817POPC   GL162125   0.314  31.283   5.785
 4817POPC   GL262126   0.605  31.582   5.780
 4817POPC   C1A62127   0.265  31.496   6.160
 4817POPC   D2A62128   0.008  31.449   6.501
 4817POPC   C3A62129   0.265  31.427   6.888
 4817POPC   C4A62130   0.378  31.050   7.161
 4817POPC   C1B62131   0.732  31.285   6.095
 4817POPC   C2B62132   0.623  31.338   6.516
 4817POPC   C3B62133   0.757  31.315   6.941
 4817POPC   C4B62134   0.612  31.618   7.248
 4818POPC   NC362135  43.300  29.859   5.464
 4818POPC   PO462136  42.737  30.166   5.402
 4818POPC   GL162137  42.892  29.997   5.799
 4818POPC   GL262138  43.003  29.631   5.804
 4818POPC   C1A62139  43.190  29.952   6.147
 4818POPC   D2A62140  43.290  30.104   6.525
 4818POPC   C3A62141  43.204  29.873   6.857
 4818POPC   C4A62142  43.303  29.992   7.251
 4818POPC   C1B62143  42.754  29.665   6.192
 4818POPC   C2B62144  42.776  29.913   6.556
 4818POPC   C3B62145  42.720  29.747   6.964
 4818POPC   C4B62146  42.821  29.886   7.369
 4819POPC   NC362147  29.535  28.991   5.555
 4819POPC   PO462148  28.899  29.231   5.672
 4819POPC   GL162149  29.191  29.213   5.969
 4819POPC   GL262150  29.014  29.516   6.103
 4819POPC   C1A62151  29.356  28.942   6.299
 4819POPC   D2A62152  29.535  28.886   6.722
 4819POPC   C3A62153  29.285  28.949   7.140
 4819POPC   C4A62154  29.342  29.271   7.458
 4819POPC   C1B62155  28.885  29.199   6.362
 4819POPC   C2B62156  29.041  29.061   6.702
 4819POPC   C3B62157  28.846  29.204   7.022
 4819POPC   C4B62158  28.938  29.526   7.270
 4820POPC   NC362159  11.807  11.251   5.417
 4820POPC   PO462160  12.412  11.554   5.505
 4820POPC   GL162161  12.114  11.385   5.824
 4820POPC   GL262162  11.939  11.058   5.858
 4820POPC   C1A62163  12.248  11.222   6.230
 4820POPC   D2A62164  12.525  11.020   6.521
 4820POPC   C3A62165  12.416  11.172   6.932
 4820POPC   C4A62166  12.328  11.164   7.368
 4820POPC   C1B62167  11.772  11.073   6.260
 4820POPC   C2B62168  11.990  11.058   6.664
 4820POPC   C3B62169  11.908  11.240   7.073
 4820POPC   C4B62170  11.505  11.255   7.280
 4821POPC   NC362171  31.019  32.018   5.256
 4821POPC   PO462172  30.389  32.208   5.485
 4821POPC   GL162173  30.807  32.228   5.717
 4821POPC   GL262174  30.971  32.564   5.811
 4821POPC   C1A62175  30.805  32.166   6.163
 4821POPC   D2A62176  30.565  32.292   6.517
 4821POPC   C3A62177  30.751  32.104   6.865
 4821POPC   C4A62178  30.818  32.128   7.296
 4821POPC   C1B62179  30.830  32.689   6.241
 4821POPC   C2B62180  30.965  32.574   6.663
 4821POPC   C3B62181  30.789  32.587   7.071
 4821POPC   C4B62182  30.751  32.623   7.522
 4822POPC   NC362183  19.633  41.964   5.527
 4822POPC   PO462184  19.686  41.295   5.232
 4822POPC   GL162185  19.825  41.477   5.645
 4822POPC   GL262186  19.513  41.563   5.822
 4822POPC   C1A62187  19.947  41.403   6.094
 4822POPC   D2A62188  19.976  41.567   6.497
 4822POPC   C3A62189  19.940  41.406   6.898
 4822POPC   C4A62190  19.853  41.606   7.277
 4822POPC   C1B62191  19.513  41.622   6.256
 4822POPC   C2B62192  19.486  41.426   6.635
 4822POPC   C3B62193  19.450  41.402   7.069
 4822POPC   C4B62194  19.390  41.662   7.471
 4823POPC   NC362195  20.139  41.004   5.306
 4823POPC   PO462196  19.922  40.359   5.496
 4823POPC   GL162197  20.110  40.641   5.778
 4823POPC   GL262198  19.954  40.983   5.799
 4823POPC   C1A62199  20.059  40.709   6.228
 4823POPC   D2A62200  19.958  40.954   6.594
 4823POPC   C3A62201  20.142  40.790   6.966
 4823POPC   C4A62202  20.000  40.562   7.302
 4823POPC   C1B62203  19.632  41.020   6.181
 4823POPC   C2B62204  19.454  40.909   6.609
 4823POPC   C3B62205  19.622  40.881   7.038
 4823POPC   C4B62206  19.887  41.085   7.311
 4824POPC   NC362207  11.385  13.054   5.552
 4824POPC   PO462208  11.341  12.385   5.376
 4824POPC   GL162209  11.543  12.608   5.732
 4824POPC   GL262210  11.190  12.692   5.855
 4824POPC   C1A62211  11.577  12.893   6.152
 4824POPC   D2A62212  11.379  12.808   6.556
 4824POPC   C3A62213  11.558  12.922   6.972
 4824POPC   C4A62214  11.299  12.919   7.304
 4824POPC   C1B62215  10.947  12.487   6.184
 4824POPC   C2B62216  11.002  12.437   6.626
 4824POPC   C3B62217  10.958  12.626   7.053
 4824POPC   C4B62218  11.047  12.461   7.490
 4825POPC   NC362219  44.428  41.122   5.322
 4825POPC   PO462220  44.779  41.747   5.232
 4825POPC   GL162221  44.727  41.658   5.662
 4825POPC   GL262222  44.548  41.988   5.689
 4825POPC   C1A62223  44.795  41.459   6.089
 4825POPC   D2A62224   0.024  41.282   6.461
 4825POPC   C3A62225  44.898  41.332   6.913
 4825POPC   C4A62226  44.658  41.301   7.290
 4825POPC   C1B62227  44.409  41.821   6.107
 4825POPC   C2B62228  44.589  41.735   6.524
 4825POPC   C3B62229  44.571  41.730   6.978
 4825POPC   C4B62230  44.359  41.950   7.333
 4826POPC   NC362231  40.996  42.981   5.367
 4826POPC   PO462232  40.390  43.226   5.341
 4826POPC   GL162233  40.607  43.122   5.731
 4826POPC   GL262234  40.952  43.236   5.815
 4826POPC   C1A62235  40.659  42.933   6.152
 4826POPC   D2A62236  40.729  43.092   6.562
 4826POPC   C3A62237  40.857  42.885   6.940
 4826POPC   C4A62238  40.754  42.970   7.362
 4826POPC   C1B62239  41.133  43.351   6.228
 4826POPC   C2B62240  41.238  43.212   6.654
 4826POPC   C3B62241  41.235  43.361   7.091
 4826POPC   C4B62242  40.949  43.481   7.471
 4827POPC   NC362243  12.740  30.173   5.337
 4827POPC   PO462244  12.705  29.479   5.379
 4827POPC   GL162245  12.865  29.738   5.707
 4827POPC   GL262246  12.554  29.883   5.763
 4827POPC   C1A62247  12.991  29.856   6.148
 4827POPC   D2A62248  13.174  29.976   6.573
 4827POPC   C3A62249  13.004  29.828   6.940
 4827POPC   C4A62250  12.780  29.879   7.347
 4827POPC   C1B62251  12.512  30.076   6.151
 4827POPC   C2B62252  12.665  30.076   6.562
 4827POPC   C3B62253  12.516  30.123   6.968
 4827POPC   C4B62254  12.276  29.919   7.291
 4828POPC   NC362255   8.042  20.336   5.073
 4828POPC   PO462256   8.033  20.894   5.415
 4828POPC   GL162257   8.129  20.739   5.805
 4828POPC   GL262258   8.486  20.743   5.858
 4828POPC   C1A62259   8.091  20.754   6.255
 4828POPC   D2A62260   8.110  20.445   6.590
 4828POPC   C3A62261   8.125  20.623   7.008
 4828POPC   C4A62262   8.142  20.492   7.428
 4828POPC   C1B62263   8.561  20.523   6.278
 4828POPC   C2B62264   8.598  20.556   6.743
 4828POPC   C3B62265   8.580  20.422   7.182
 4828POPC   C4B62266   8.611  20.614   7.649
 4829POPC   NC362267  31.950   7.294   5.250
 4829POPC   PO462268  32.561   7.551   5.292
 4829POPC   GL162269  32.299   7.688   5.630
 4829POPC   GL262270  31.993   7.541   5.700
 4829POPC   C1A62271  32.313   7.687   6.089
 4829POPC   D2A62272  32.077   7.589   6.469
 4829POPC   C3A62273  32.175   7.680   6.902
 4829POPC   C4A62274  32.035   7.517   7.285
 4829POPC   C1B62275  31.953   7.270   6.085
 4829POPC   C2B62276  32.029   7.065   6.495
 4829POPC   C3B62277  32.079   7.133   6.925
 4829POPC   C4B62278  31.873   7.047   7.329
 4830POPC   NC362279  35.987  13.306   5.429
 4830POPC   PO462280  36.498  13.819   5.288
 4830POPC   GL162281  36.225  13.744   5.632
 4830POPC   GL262282  36.342  14.011   5.812
 4830POPC   C1A62283  36.084  13.562   6.023
 4830POPC   D2A62284  36.206  13.505   6.471
 4830POPC   C3A62285  35.884  13.687   6.759
 4830POPC   C4A62286  35.810  13.674   7.213
 4830POPC   C1B62287  36.166  14.002   6.236
 4830POPC   C2B62288  36.334  13.979   6.617
 4830POPC   C3B62289  36.278  13.886   7.031
 4830POPC   C4B62290  36.468  13.503   6.973
 4831POPC   NC362291  28.515  15.506   5.390
 4831POPC   PO462292  28.150  14.970   5.390
 4831POPC   GL162293  28.244  15.208   5.744
 4831POPC   GL262294  28.135  14.920   5.940
 4831POPC   C1A62295  28.275  15.344   6.191
 4831POPC   D2A62296  28.435  15.171   6.601
 4831POPC   C3A62297  28.407  15.366   7.025
 4831POPC   C4A62298  28.627  15.338   7.433
 4831POPC   C1B62299  27.887  14.966   6.292
 4831POPC   C2B62300  27.910  14.853   6.709
 4831POPC   C3B62301  28.213  14.842   7.000
 4831POPC   C4B62302  28.115  14.659   7.368
 4832POPC   NC362303  42.673   3.347   5.401
 4832POPC   PO462304  42.205   3.743   5.184
 4832POPC   GL162305  42.279   3.616   5.596
 4832POPC   GL262306  42.542   3.817   5.613
 4832POPC   C1A62307  42.169   3.425   6.023
 4832POPC   D2A62308  42.363   3.428   6.448
 4832POPC   C3A62309  42.223   3.376   6.866
 4832POPC   C4A62310  42.354   3.353   7.300
 4832POPC   C1B62311  42.450   3.854   6.044
 4832POPC   C2B62312  42.512   3.947   6.479
 4832POPC   C3B62313  42.537   3.784   6.905
 4832POPC   C4B62314  42.411   3.876   7.328
 4833POPC   NC362315   0.348  14.716   5.424
 4833POPC   PO462316   0.595  15.322   5.441
 4833POPC   GL162317   0.357  15.211   5.827
 4833POPC   GL262318   0.342  14.859   5.939
 4833POPC   C1A62319   0.320  15.456   6.191
 4833POPC   D2A62320   0.172  15.542   6.622
 4833POPC   C3A62321   0.275  15.151   6.820
 4833POPC   C4A62322   0.296  15.014   7.241
 4833POPC   C1B62323   0.675  14.905   6.283
 4833POPC   C2B62324   0.814  14.963   6.738
 4833POPC   C3B62325   0.808  15.113   7.185
 4833POPC   C4B62326   0.714  14.922   7.592
 4834POPC   NC362327  39.760  32.182   5.428
 4834POPC   PO462328  40.388  32.543   5.357
 4834POPC   GL162329  40.128  32.421   5.747
 4834POPC   GL262330  39.984  32.074   5.882
 4834POPC   C1A62331  40.108  32.548   6.198
 4834POPC   D2A62332  40.010  32.479   6.652
 4834POPC   C3A62333  40.311  32.437   6.996
 4834POPC   C4A62334  40.189  32.383   7.430
 4834POPC   C1B62335  39.703  31.910   6.231
 4834POPC   C2B62336  39.808  31.827   6.688
 4834POPC   C3B62337  39.965  32.038   7.085
 4834POPC   C4B62338  39.826  31.972   7.530
 4835POPC   NC362339  19.484  22.363   5.439
 4835POPC   PO462340  18.921  22.070   5.314
 4835POPC   GL162341  19.135  22.061   5.701
 4835POPC   GL262342  19.076  22.403   5.740
 4835POPC   C1A62343  19.287  22.132   6.134
 4835POPC   D2A62344  19.411  22.032   6.549
 4835POPC   C3A62345  19.385  22.274   6.954
 4835POPC   C4A62346  19.094  22.047   7.284
 4835POPC   C1B62347  18.952  22.538   6.139
 4835POPC   C2B62348  19.093  22.446   6.533
 4835POPC   C3B62349  18.898  22.353   6.914
 4835POPC   C4B62350  18.909  22.548   7.316
 4836POPC   NC362351  18.619  24.143   5.253
 4836POPC   PO462352  18.287  24.655   5.264
 4836POPC   GL162353  18.146  24.403   5.690
 4836POPC   GL262354  18.384  24.118   5.786
 4836POPC   C1A62355  17.998  24.415   6.154
 4836POPC   D2A62356  18.082  24.664   6.567
 4836POPC   C3A62357  18.136  24.543   7.011
 4836POPC   C4A62358  18.193  24.169   7.239
 4836POPC   C1B62359  18.454  24.152   6.271
 4836POPC   C2B62360  18.409  24.222   6.728
 4836POPC   C3B62361  18.650  24.351   7.144
 4836POPC   C4B62362  18.456  24.524   7.518
 4837POPC   NC362363   1.786  37.863   5.348
 4837POPC   PO462364   1.179  37.722   5.464
 4837POPC   GL162365   1.528  37.680   5.745
 4837POPC   GL262366   1.625  38.011   5.825
 4837POPC   C1A62367   1.586  37.591   6.188
 4837POPC   D2A62368   1.298  37.677   6.536
 4837POPC   C3A62369   1.412  37.668   6.964
 4837POPC   C4A62370   1.642  37.369   7.222
 4837POPC   C1B62371   1.293  38.044   6.158
 4837POPC   C2B62372   1.188  38.185   6.610
 4837POPC   C3B62373   1.046  38.072   7.070
 4837POPC   C4B62374   0.997  38.085   7.548
 4838POPC   NC362375  30.067  33.889   5.530
 4838POPC   PO462376  29.594  33.437   5.436
 4838POPC   GL162377  29.577  33.605   5.835
 4838POPC   GL262378  29.931  33.578   5.914
 4838POPC   C1A62379  29.608  33.778   6.253
 4838POPC   D2A62380  29.915  33.759   6.563
 4838POPC   C3A62381  29.717  33.762   6.954
 4838POPC   C4A62382  29.669  33.455   7.231
 4838POPC   C1B62383  30.337  33.621   6.131
 4838POPC   C2B62384  30.475  33.750   6.538
 4838POPC   C3B62385  30.289  33.792   6.910
 4838POPC   C4B62386  30.174  33.519   7.176
 4839POPC   NC362387   3.851  39.135   5.440
 4839POPC   PO462388   3.722  39.805   5.461
 4839POPC   GL162389   3.793  39.499   5.849
 4839POPC   GL262390   3.547  39.202   5.867
 4839POPC   C1A62391   3.741  39.423   6.326
 4839POPC   D2A62392   3.436  39.273   6.645
 4839POPC   C3A62393   3.532  39.279   7.081
 4839POPC   C4A62394   3.598  39.536   7.418
 4839POPC   C1B62395   3.268  38.988   6.172
 4839POPC   C2B62396   3.177  38.769   6.571
 4839POPC   C3B62397   3.200  38.901   7.010
 4839POPC   C4B62398   3.316  38.945   7.470
 4840POPC   NC362399  21.415   0.148   5.311
 4840POPC   PO462400  20.922   0.482   5.419
 4840POPC   GL162401  21.263   0.377   5.795
 4840POPC   GL262402  21.611   0.573   5.849
 4840POPC   C1A62403  21.342   0.405   6.280
 4840POPC   D2A62404  21.352   0.171   6.708
 4840POPC   C3A62405  21.259   0.448   7.081
 4840POPC   C4A62406  21.339   0.469   7.551
 4840POPC   C1B62407  21.857   0.507   6.272
 4840POPC   C2B62408  21.748   0.544   6.748
 4840POPC   C3B62409  21.681   0.703   7.188
 4840POPC   C4B62410  21.559   0.939   7.575
 4841POPC   NC362411  31.206   0.250   5.273
 4841POPC   PO462412  31.765   0.451   5.472
 4841POPC   GL162413  31.554   0.492   5.833
 4841POPC   GL262414  31.248   0.367   5.783
 4841POPC   C1A62415  31.463   0.602   6.262
 4841POPC   D2A62416  31.814   0.516   6.557
 4841POPC   C3A62417  31.750   0.354   6.951
 4841POPC   C4A62418  31.369   0.332   7.178
 4841POPC   C1B62419  31.310   0.133   6.177
 4841POPC   C2B62420  31.357   0.176   6.632
 4841POPC   C3B62421  31.007   0.085   6.939
 4841POPC   C4B62422  31.000   0.004   7.396
 4842POPC   NC362423   2.494  30.271   5.119
 4842POPC   PO462424   3.028  29.986   5.400
 4842POPC   GL162425   2.994  29.895   5.808
 4842POPC   GL262426   3.144  30.249   5.827
 4842POPC   C1A62427   2.743  29.795   6.189
 4842POPC   D2A62428   2.557  29.946   6.613
 4842POPC   C3A62429   2.747  29.696   6.959
 4842POPC   C4A62430   2.890  29.752   7.367
 4842POPC   C1B62431   3.015  30.219   6.239
 4842POPC   C2B62432   3.058  29.938   6.598
 4842POPC   C3B62433   3.099  30.073   7.017
 4842POPC   C4B62434   3.197  30.119   7.523
 4843POPC   NC362435  17.771  34.846   5.474
 4843POPC   PO462436  17.330  34.437   5.145
 4843POPC   GL162437  17.331  34.621   5.624
 4843POPC   GL262438  17.610  34.545   5.909
 4843POPC   C1A62439  17.203  34.759   6.080
 4843POPC   D2A62440  17.296  34.462   6.428
 4843POPC   C3A62441  17.312  34.556   6.879
 4843POPC   C4A62442  17.276  34.192   7.142
 4843POPC   C1B62443  17.801  34.570   6.342
 4843POPC   C2B62444  17.926  34.759   6.748
 4843POPC   C3B62445  17.837  34.620   7.185
 4843POPC   C4B62446  17.972  34.545   7.669
 4844POPC   NC362447   5.550  35.553   5.502
 4844POPC   PO462448   4.890  35.699   5.533
 4844POPC   GL162449   4.970  35.273   5.739
 4844POPC   GL262450   5.305  35.192   5.798
 4844POPC   C1A62451   5.016  35.089   6.204
 4844POPC   D2A62452   5.131  35.334   6.592
 4844POPC   C3A62453   5.135  35.120   6.991
 4844POPC   C4A62454   4.919  35.054   7.375
 4844POPC   C1B62455   5.161  35.569   6.109
 4844POPC   C2B62456   5.221  35.841   6.468
 4844POPC   C3B62457   5.291  35.789   6.856
 4844POPC   C4B62458   5.150  35.598   7.207
 4845POPC   NC362459  37.830   1.357   5.151
 4845POPC   PO462460  37.574   0.781   5.364
 4845POPC   GL162461  37.566   0.932   5.773
 4845POPC   GL262462  37.869   1.122   5.754
 4845POPC   C1A62463  37.514   1.113   6.203
 4845POPC   D2A62464  37.333   1.001   6.597
 4845POPC   C3A62465  37.513   1.184   6.968
 4845POPC   C4A62466  37.693   0.944   7.251
 4845POPC   C1B62467  38.008   1.311   6.153
 4845POPC   C2B62468  37.883   1.357   6.592
 4845POPC   C3B62469  38.028   1.243   6.991
 4845POPC   C4B62470  37.902   1.446   7.334
 4846POPC   NC362471  34.770  16.354   5.430
 4846POPC   PO462472  34.439  15.851   5.147
 4846POPC   GL162473  34.509  15.953   5.642
 4846POPC   GL262474  34.846  15.896   5.746
 4846POPC   C1A62475  34.615  16.252   6.052
 4846POPC   D2A62476  34.770  16.356   6.504
 4846POPC   C3A62477  34.592  16.116   6.884
 4846POPC   C4A62478  34.283  16.132   7.248
 4846POPC   C1B62479  34.949  15.908   6.228
 4846POPC   C2B62480  35.025  15.860   6.678
 4846POPC   C3B62481  34.954  15.772   7.132
 4846POPC   C4B62482  34.775  15.757   7.594
 4847POPC   NC362483  32.310  10.496   5.322
 4847POPC   PO462484  31.656  10.373   5.364
 4847POPC   GL162485  31.954  10.427   5.718
 4847POPC   GL262486  32.175  10.755   5.750
 4847POPC   C1A62487  32.101  10.471   6.161
 4847POPC   D2A62488  31.957  10.441   6.590
 4847POPC   C3A62489  32.247  10.191   6.843
 4847POPC   C4A62490  32.200  10.419   7.194
 4847POPC   C1B62491  32.483  10.894   6.062
 4847POPC   C2B62492  32.677  10.765   6.457
 4847POPC   C3B62493  32.489  10.653   6.837
 4847POPC   C4B62494  32.626  10.720   7.242
 4848POPC   NC362495  38.831  14.789   5.391
 4848POPC   PO462496  39.435  14.364   5.514
 4848POPC   GL162497  39.212  14.442   5.870
 4848POPC   GL262498  39.139  14.097   5.917
 4848POPC   C1A62499  39.299  14.386   6.312
 4848POPC   D2A62500  39.623  14.282   6.570
 4848POPC   C3A62501  39.420  14.355   6.962
 4848POPC   C4A62502  39.190  14.459   7.353
 4848POPC   C1B62503  38.857  14.163   6.246
 4848POPC   C2B62504  38.939  14.250   6.689
 4848POPC   C3B62505  38.845  14.168   7.114
 4848POPC   C4B62506  38.790  14.222   7.597
 4849POPC   NC362507  14.691  37.403   5.391
 4849POPC   PO462508  14.267  36.867   5.368
 4849POPC   GL162509  14.148  36.925   5.826
 4849POPC   GL262510  14.186  36.588   5.912
 4849POPC   C1A62511  14.164  37.103   6.284
 4849POPC   D2A62512  14.470  37.039   6.674
 4849POPC   C3A62513  14.362  37.241   7.080
 4849POPC   C4A62514  14.058  37.188   7.433
 4849POPC   C1B62515  14.286  36.624   6.349
 4849POPC   C2B62516  14.033  36.798   6.700
 4849POPC   C3B62517  14.174  36.777   7.124
 4849POPC   C4B62518  14.630  36.817   7.241
 4850POPC   NC362519  32.564  16.586   5.657
 4850POPC   PO462520  33.089  16.631   5.182
 4850POPC   GL162521  33.077  16.780   5.581
 4850POPC   GL262522  33.058  16.409   5.648
 4850POPC   C1A62523  33.070  16.784   6.040
 4850POPC   D2A62524  32.797  16.543   6.331
 4850POPC   C3A62525  32.920  16.569   6.755
 4850POPC   C4A62526  32.947  16.692   7.173
 4850POPC   C1B62527  33.289  16.328   6.000
 4850POPC   C2B62528  33.346  16.453   6.420
 4850POPC   C3B62529  33.382  16.354   6.851
 4850POPC   C4B62530  33.445  16.577   7.232
 4851POPC   NC362531   7.790  13.940   5.390
 4851POPC   PO462532   8.438  13.598   5.442
 4851POPC   GL162533   8.311  13.731   5.842
 4851POPC   GL262534   8.267  14.072   5.815
 4851POPC   C1A62535   8.366  13.592   6.279
 4851POPC   D2A62536   8.140  13.257   6.524
 4851POPC   C3A62537   8.172  13.336   6.957
 4851POPC   C4A62538   7.947  13.367   7.334
 4851POPC   C1B62539   8.077  14.045   6.253
 4851POPC   C2B62540   8.080  14.014   6.725
 4851POPC   C3B62541   8.015  13.809   7.108
 4851POPC   C4B62542   7.855  13.834   7.558
 4852POPC   NC362543  24.455  31.564   5.335
 4852POPC   PO462544  25.005  31.246   5.381
 4852POPC   GL162545  24.644  31.253   5.722
 4852POPC   GL262546  24.269  31.391   5.775
 4852POPC   C1A62547  24.497  31.117   6.150
 4852POPC   D2A62548  24.561  31.248   6.584
 4852POPC   C3A62549  24.623  31.620   6.798
 4852POPC   C4A62550  24.687  31.620   7.247
 4852POPC   C1B62551  24.228  31.565   6.210
 4852POPC   C2B62552  24.057  31.512   6.635
 4852POPC   C3B62553  24.179  31.623   7.049
 4852POPC   C4B62554  24.177  31.672   7.486
 4853POPC   NC362555  41.020  13.421   5.067
 4853POPC   PO462556  41.669  13.565   5.369
 4853POPC   GL162557  41.671  13.613   5.805
 4853POPC   GL262558  41.893  13.899   5.818
 4853POPC   C1A62559  41.470  13.705   6.220
 4853POPC   D2A62560  41.635  13.905   6.615
 4853POPC   C3A62561  41.455  13.775   7.003
 4853POPC   C4A62562  41.284  13.407   7.210
 4853POPC   C1B62563  41.970  13.620   6.220
 4853POPC   C2B62564  41.778  13.268   6.457
 4853POPC   C3B62565  41.715  13.357   6.884
 4853POPC   C4B62566  41.957  13.706   7.042
 4854POPC   NC362567  29.261  30.428   5.603
 4854POPC   PO462568  29.018  31.043   5.445
 4854POPC   GL162569  29.142  30.928   5.825
 4854POPC   GL262570  29.460  30.875   5.796
 4854POPC   C1A62571  29.118  30.675   6.214
 4854POPC   D2A62572  28.863  30.640   6.585
 4854POPC   C3A62573  28.990  30.475   6.999
 4854POPC   C4A62574  29.095  30.695   7.398
 4854POPC   C1B62575  29.392  31.112   6.214
 4854POPC   C2B62576  29.238  31.002   6.620
 4854POPC   C3B62577  29.433  30.688   6.880
 4854POPC   C4B62578  29.588  30.726   7.273
 4855POPC   NC362579  37.431   1.429   5.618
 4855POPC   PO462580  36.802   1.052   5.450
 4855POPC   GL162581  37.039   1.129   5.796
 4855POPC   GL262582  36.926   1.470   5.723
 4855POPC   C1A62583  36.957   1.009   6.230
 4855POPC   D2A62584  36.706   1.068   6.616
 4855POPC   C3A62585  36.993   1.154   6.955
 4855POPC   C4A62586  37.165   1.009   7.350
 4855POPC   C1B62587  36.832   1.517   6.159
 4855POPC   C2B62588  36.883   1.559   6.593
 4855POPC   C3B62589  36.715   1.575   7.011
 4855POPC   C4B62590  36.707   1.276   7.367
 4856POPC   NC362591   0.590  24.643   5.483
 4856POPC   PO462592  44.911  24.663   5.456
 4856POPC   GL162593   0.154  24.577   5.849
 4856POPC   GL262594   0.116  24.252   5.961
 4856POPC   C1A62595   0.318  24.558   6.313
 4856POPC   D2A62596   0.747  24.542   6.506
 4856POPC   C3A62597   0.704  24.592   6.944
 4856POPC   C4A62598   0.308  24.696   7.060
 4856POPC   C1B62599   0.332  24.038   6.276
 4856POPC   C2B62600   0.421  23.870   6.658
 4856POPC   C3B62601   0.401  24.107   6.996
 4856POPC   C4B62602   0.155  24.280   7.315
 4857POPC   NC362603  27.507  30.132   5.284
 4857POPC   PO462604  28.056  29.999   5.274
 4857POPC   GL162605  27.747  29.922   5.698
 4857POPC   GL262606  27.409  30.014   5.768
 4857POPC   C1A62607  27.675  29.870   6.164
 4857POPC   D2A62608  27.719  30.061   6.555
 4857POPC   C3A62609  27.696  29.864   6.953
 4857POPC   C4A62610  27.542  29.669   7.337
 4857POPC   C1B62611  27.174  29.870   6.152
 4857POPC   C2B62612  27.228  29.925   6.612
 4857POPC   C3B62613  27.217  30.041   7.059
 4857POPC   C4B62614  27.182  30.190   7.504
 4858POPC   NC362615  32.219  15.668   5.465
 4858POPC   PO462616  32.166  16.415   5.463
 4858POPC   GL162617  32.260  16.156   5.791
 4858POPC   GL262618  31.979  15.967   5.854
 4858POPC   C1A62619  32.234  16.170   6.241
 4858POPC   D2A62620  32.370  16.284   6.648
 4858POPC   C3A62621  32.059  16.249   6.978
 4858POPC   C4A62622  32.205  16.080   7.364
 4858POPC   C1B62623  31.897  15.767   6.234
 4858POPC   C2B62624  32.102  15.807   6.619
 4858POPC   C3B62625  32.037  15.726   7.017
 4858POPC   C4B62626  31.904  15.648   7.401
 4859POPC   NC362627   0.211  12.512   5.325
 4859POPC   PO462628   0.557  13.057   5.178
 4859POPC   GL162629   0.439  12.904   5.588
 4859POPC   GL262630   0.357  13.156   5.813
 4859POPC   C1A62631   0.412  12.704   6.035
 4859POPC   D2A62632   0.455  12.691   6.494
 4859POPC   C3A62633   0.259  12.853   6.830
 4859POPC   C4A62634  44.988  12.704   7.126
 4859POPC   C1B62635   0.547  13.161   6.237
 4859POPC   C2B62636   0.785  13.181   6.634
 4859POPC   C3B62637   0.810  13.039   7.050
 4859POPC   C4B62638   0.498  12.813   7.291
 4860POPC   NC362639   8.337  18.856   5.123
 4860POPC   PO462640   8.060  19.355   5.542
 4860POPC   GL162641   8.316  19.224   5.861
 4860POPC   GL262642   8.098  19.434   6.072
 4860POPC   C1A62643   8.572  18.996   6.169
 4860POPC   D2A62644   8.542  18.710   6.533
 4860POPC   C3A62645   8.537  18.932   6.930
 4860POPC   C4A62646   8.477  19.208   7.291
 4860POPC   C1B62647   8.079  19.058   6.329
 4860POPC   C2B62648   8.075  19.003   6.769
 4860POPC   C3B62649   7.975  19.211   7.136
 4860POPC   C4B62650   8.014  19.423   7.499
 4861POPC   NC362651  17.902  24.418   5.241
 4861POPC   PO462652  17.308  24.321   5.496
 4861POPC   GL162653  17.575  24.410   5.831
 4861POPC   GL262654  17.654  24.735   5.760
 4861POPC   C1A62655  17.470  24.277   6.252
 4861POPC   D2A62656  17.126  24.338   6.542
 4861POPC   C3A62657  17.319  24.317   6.937
 4861POPC   C4A62658  17.697  24.224   7.177
 4861POPC   C1B62659  17.412  24.781   6.176
 4861POPC   C2B62660  17.531  24.663   6.608
 4861POPC   C3B62661  17.623  24.722   7.053
 4861POPC   C4B62662  17.546  25.028   7.379
 4862POPC   NC362663  29.684  35.424   5.351
 4862POPC   PO462664  30.147  34.945   5.378
 4862POPC   GL162665  29.994  34.929   5.825
 4862POPC   GL262666  29.793  35.229   5.815
 4862POPC   C1A62667  30.119  35.154   6.242
 4862POPC   D2A62668  30.217  35.434   6.610
 4862POPC   C3A62669  29.968  35.327   7.009
 4862POPC   C4A62670  30.074  35.320   7.464
 4862POPC   C1B62671  29.688  35.478   6.177
 4862POPC   C2B62672  29.721  35.534   6.602
 4862POPC   C3B62673  29.488  35.482   6.968
 4862POPC   C4B62674  29.570  35.438   7.400
 4863POPC   NC362675  13.085  18.677   5.498
 4863POPC   PO462676  12.681  18.111   5.467
 4863POPC   GL162677  12.764  18.291   5.848
 4863POPC   GL262678  13.107  18.254   5.773
 4863POPC   C1A62679  12.793  18.612   6.196
 4863POPC   D2A62680  13.065  18.710   6.579
 4863POPC   C3A62681  12.821  18.590   6.959
 4863POPC   C4A62682  12.472  18.274   7.012
 4863POPC   C1B62683  13.172  18.277   6.202
 4863POPC   C2B62684  12.957  18.207   6.596
 4863POPC   C3B62685  12.937  18.078   7.007
 4863POPC   C4B62686  12.862  18.309   7.399
 4864POPC   NC362687  29.404  28.114   5.420
 4864POPC   PO462688  28.829  28.460   5.473
 4864POPC   GL162689  29.066  28.254   5.802
 4864POPC   GL262690  28.829  28.033   5.942
 4864POPC   C1A62691  29.307  28.392   6.172
 4864POPC   D2A62692  29.153  28.560   6.582
 4864POPC   C3A62693  29.294  28.468   6.964
 4864POPC   C4A62694  29.211  28.473   7.383
 4864POPC   C1B62695  28.873  28.200   6.329
 4864POPC   C2B62696  28.776  28.227   6.755
 4864POPC   C3B62697  28.895  28.126   7.169
 4864POPC   C4B62698  28.587  28.052   7.474
 4865POPC   NC362699  25.647  34.609   5.214
 4865POPC   PO462700  25.098  34.957   5.565
 4865POPC   GL162701  25.142  34.609   5.858
 4865POPC   GL262702  24.997  34.276   5.844
 4865POPC   C1A62703  25.357  34.648   6.276
 4865POPC   D2A62704  25.257  34.870   6.611
 4865POPC   C3A62705  25.372  34.676   6.953
 4865POPC   C4A62706  25.231  34.629   7.330
 4865POPC   C1B62707  24.931  34.394   6.284
 4865POPC   C2B62708  25.192  34.313   6.651
 4865POPC   C3B62709  25.050  34.241   7.073
 4865POPC   C4B62710  24.642  34.249   7.191
 4866POPC   NC362711  12.515  38.254   5.079
 4866POPC   PO462712  13.015  38.276   5.482
 4866POPC   GL162713  12.874  38.235   5.933
 4866POPC   GL262714  12.582  38.455   6.049
 4866POPC   C1A62715  12.910  38.241   6.381
 4866POPC   D2A62716  12.830  38.600   6.634
 4866POPC   C3A62717  12.854  38.492   7.063
 4866POPC   C4A62718  12.990  38.353   7.503
 4866POPC   C1B62719  12.440  38.080   6.316
 4866POPC   C2B62720  12.550  38.151   6.763
 4866POPC   C3B62721  12.657  38.054   7.197
 4866POPC   C4B62722  12.686  37.986   7.683
 4867POPC   NC362723  43.735  40.799   5.411
 4867POPC   PO462724  44.463  40.673   5.219
 4867POPC   GL162725  44.241  40.882   5.706
 4867POPC   GL262726  43.922  40.956   5.848
 4867POPC   C1A62727  44.258  40.782   6.180
 4867POPC   D2A62728  43.912  40.698   6.452
 4867POPC   C3A62729  43.917  40.654   6.885
 4867POPC   C4A62730  43.640  40.588   7.263
 4867POPC   C1B62731  43.803  41.160   6.235
 4867POPC   C2B62732  43.496  41.073   6.565
 4867POPC   C3B62733  43.510  41.024   7.001
 4867POPC   C4B62734  43.912  41.051   7.207
 4868POPC   NC362735  43.984  20.261   5.029
 4868POPC   PO462736  43.791  19.662   5.217
 4868POPC   GL162737  43.934  19.812   5.674
 4868POPC   GL262738  43.655  19.938   5.903
 4868POPC   C1A62739  44.093  19.778   6.138
 4868POPC   D2A62740  44.055  19.564   6.548
 4868POPC   C3A62741  44.062  19.751   6.952
 4868POPC   C4A62742  44.011  19.739   7.395
 4868POPC   C1B62743  43.606  19.722   6.294
 4868POPC   C2B62744  43.525  19.851   6.711
 4868POPC   C3B62745  43.586  19.818   7.144
 4868POPC   C4B62746  43.651  20.087   7.525
 4869POPC   NC362747  33.746   9.456   5.640
 4869POPC   PO462748  33.293   9.823   5.202
 4869POPC   GL162749  33.356   9.854   5.664
 4869POPC   GL262750  33.238   9.525   5.674
 4869POPC   C1A62751  33.094   9.937   6.074
 4869POPC   D2A62752  32.846   9.903   6.498
 4869POPC   C3A62753  33.059   9.914   6.925
 4869POPC   C4A62754  32.875   9.755   7.336
 4869POPC   C1B62755  33.263   9.457   6.124
 4869POPC   C2B62756  33.044   9.411   6.500
 4869POPC   C3B62757  32.982   9.423   6.922
 4869POPC   C4B62758  33.208   9.378   7.293
 4870POPC   NC362759  16.198  35.802   5.313
 4870POPC   PO462760  15.796  36.255   5.439
 4870POPC   GL162761  15.874  35.945   5.793
 4870POPC   GL262762  16.205  35.795   5.839
 4870POPC   C1A62763  15.964  36.039   6.263
 4870POPC   D2A62764  15.865  36.190   6.681
 4870POPC   C3A62765  16.000  36.118   7.114
 4870POPC   C4A62766  15.922  36.417   7.452
 4870POPC   C1B62767  16.366  35.724   6.277
 4870POPC   C2B62768  16.300  35.866   6.715
 4870POPC   C3B62769  16.337  35.731   7.142
 4870POPC   C4B62770  16.125  35.787   7.538
 4871POPC   NC362771  31.181  36.623   5.554
 4871POPC   PO462772  31.521  37.152   5.374
 4871POPC   GL162773  31.527  36.976   5.733
 4871POPC   GL262774  31.262  37.179   5.848
 4871POPC   C1A62775  31.508  36.807   6.131
 4871POPC   D2A62776  31.343  37.005   6.506
 4871POPC   C3A62777  31.527  36.851   6.874
 4871POPC   C4A62778  31.785  36.746   7.223
 4871POPC   C1B62779  31.006  37.273   6.216
 4871POPC   C2B62780  30.880  37.309   6.658
 4871POPC   C3B62781  31.071  37.113   7.013
 4871POPC   C4B62782  31.322  36.935   7.334
 4872POPC   NC362783  31.300  22.453   5.309
 4872POPC   PO462784  31.661  21.976   5.542
 4872POPC   GL162785  31.499  22.283   5.836
 4872POPC   GL262786  31.119  22.404   5.784
 4872POPC   C1A62787  31.629  22.207   6.283
 4872POPC   D2A62788  31.778  22.110   6.697
 4872POPC   C3A62789  31.503  22.074   7.038
 4872POPC   C4A62790  31.650  22.026   7.441
 4872POPC   C1B62791  31.033  22.401   6.216
 4872POPC   C2B62792  31.247  22.336   6.619
 4872POPC   C3B62793  31.205  22.484   7.035
 4872POPC   C4B62794  31.288  22.370   7.482
 4873POPC   NC362795  32.867  41.239   5.371
 4873POPC   PO462796  33.216  40.698   5.335
 4873POPC   GL162797  33.154  40.742   5.798
 4873POPC   GL262798  32.919  40.998   5.837
 4873POPC   C1A62799  33.074  40.592   6.267
 4873POPC   D2A62800  33.144  40.407   6.720
 4873POPC   C3A62801  33.091  40.680   7.100
 4873POPC   C4A62802  32.808  40.654   7.447
 4873POPC   C1B62803  32.888  41.072   6.274
 4873POPC   C2B62804  32.856  40.879   6.679
 4873POPC   C3B62805  32.669  41.002   7.097
 4873POPC   C4B62806  32.662  41.167   7.528
 4874POPC   NC362807  42.176   9.113   5.509
 4874POPC   PO462808  42.009   8.458   5.507
 4874POPC   GL162809  42.192   8.729   5.853
 4874POPC   GL262810  41.926   8.957   5.932
 4874POPC   C1A62811  42.452   8.790   6.268
 4874POPC   D2A62812  42.681   8.675   6.683
 4874POPC   C3A62813  42.489   8.740   7.076
 4874POPC   C4A62814  42.666   8.553   7.446
 4874POPC   C1B62815  42.220   9.250   6.149
 4874POPC   C2B62816  42.181   9.301   6.578
 4874POPC   C3B62817  42.371   9.257   6.961
 4874POPC   C4B62818  42.107   9.114   7.240
 4875POPC   NC362819   5.710  18.941   5.366
 4875POPC   PO462820   5.293  19.393   5.538
 4875POPC   GL162821   5.560  19.133   5.833
 4875POPC   GL262822   5.921  19.260   5.902
 4875POPC   C1A62823   5.633  18.989   6.260
 4875POPC   D2A62824   5.920  19.141   6.596
 4875POPC   C3A62825   5.724  19.119   7.016
 4875POPC   C4A62826   5.777  19.356   7.397
 4875POPC   C1B62827   6.126  18.909   6.147
 4875POPC   C2B62828   6.265  18.749   6.576
 4875POPC   C3B62829   6.196  18.898   7.013
 4875POPC   C4B62830   5.963  18.850   7.410
 4876POPC   NC362831  10.580   2.784   5.431
 4876POPC   PO462832  10.081   2.288   5.403
 4876POPC   GL162833  10.293   2.505   5.801
 4876POPC   GL262834  10.641   2.532   5.870
 4876POPC   C1A62835  10.256   2.662   6.264
 4876POPC   D2A62836  10.291   3.014   6.595
 4876POPC   C3A62837  10.429   2.968   7.042
 4876POPC   C4A62838  10.578   3.027   7.471
 4876POPC   C1B62839  10.764   2.577   6.302
 4876POPC   C2B62840  10.655   2.572   6.758
 4876POPC   C3B62841  10.740   2.576   7.221
 4876POPC   C4B62842  10.477   2.538   7.633
 4877POPC   NC362843  22.251  36.439   5.468
 4877POPC   PO462844  22.364  35.767   5.616
 4877POPC   GL162845  22.379  36.094   5.884
 4877POPC   GL262846  22.099  36.290   5.917
 4877POPC   C1A62847  22.247  35.992   6.302
 4877POPC   D2A62848  22.346  36.194   6.690
 4877POPC   C3A62849  22.230  36.004   7.066
 4877POPC   C4A62850  21.931  35.980   7.374
 4877POPC   C1B62851  22.155  36.505   6.286
 4877POPC   C2B62852  22.066  36.657   6.688
 4877POPC   C3B62853  22.176  36.514   7.101
 4877POPC   C4B62854  22.177  36.411   7.539
 4878POPC   NC362855  19.262  11.119   5.448
 4878POPC   PO462856  18.798  11.520   5.221
 4878POPC   GL162857  18.822  11.361   5.668
 4878POPC   GL262858  19.167  11.508   5.759
 4878POPC   C1A62859  18.956  11.195   6.112
 4878POPC   D2A62860  19.082  11.353   6.525
 4878POPC   C3A62861  19.251  11.142   6.886
 4878POPC   C4A62862  19.036  11.115   7.307
 4878POPC   C1B62863  19.445  11.445   6.102
 4878POPC   C2B62864  19.597  11.354   6.494
 4878POPC   C3B62865  19.531  11.606   6.848
 4878POPC   C4B62866  19.478  11.430   7.248
 4879POPC   NC362867   3.734  27.045   5.083
 4879POPC   PO462868   3.175  26.836   5.293
 4879POPC   GL162869   3.361  26.701   5.735
 4879POPC   GL262870   3.566  26.963   5.942
 4879POPC   C1A62871   3.493  26.533   6.166
 4879POPC   D2A62872   3.587  26.795   6.516
 4879POPC   C3A62873   3.562  26.612   6.909
 4879POPC   C4A62874   3.858  26.499   7.230
 4879POPC   C1B62875   3.332  27.170   6.213
 4879POPC   C2B62876   3.173  27.068   6.577
 4879POPC   C3B62877   3.312  27.058   6.971
 4879POPC   C4B62878   3.613  26.963   7.273
 4880POPC   NC362879  32.448  35.460   5.168
 4880POPC   PO462880  31.859  35.201   5.209
 4880POPC   GL162881  32.021  35.340   5.639
 4880POPC   GL262882  32.393  35.433   5.673
 4880POPC   C1A62883  32.086  35.333   6.101
 4880POPC   D2A62884  32.171  35.538   6.505
 4880POPC   C3A62885  32.073  35.327   6.868
 4880POPC   C4A62886  32.113  35.385   7.313
 4880POPC   C1B62887  32.481  35.677   6.052
 4880POPC   C2B62888  32.673  35.627   6.440
 4880POPC   C3B62889  32.577  35.488   6.830
 4880POPC   C4B62890  32.521  35.657   7.181
 4881POPC   NC362891  32.871  44.061   5.340
 4881POPC   PO462892  33.408  43.693   5.397
 4881POPC   GL162893  33.164  43.897   5.735
 4881POPC   GL262894  32.983  43.605   5.805
 4881POPC   C1A62895  33.176  43.838   6.221
 4881POPC   D2A62896  33.091  43.561   6.598
 4881POPC   C3A62897  33.170  43.752   6.978
 4881POPC   C4A62898  33.005  44.158   6.981
 4881POPC   C1B62899  32.710  43.612   6.160
 4881POPC   C2B62900  32.591  43.460   6.548
 4881POPC   C3B62901  32.665  43.591   6.972
 4881POPC   C4B62902  32.789  43.824   7.317
 4882POPC   NC362903  38.981   4.639   5.495
 4882POPC   PO462904  38.461   4.985   5.480
 4882POPC   GL162905  38.315   5.087   5.851
 4882POPC   GL262906  38.652   5.066   5.978
 4882POPC   C1A62907  38.233   5.043   6.261
 4882POPC   D2A62908  38.521   5.016   6.571
 4882POPC   C3A62909  38.336   5.113   6.970
 4882POPC   C4A62910  38.522   5.380   7.298
 4882POPC   C1B62911  38.593   4.651   6.141
 4882POPC   C2B62912  38.511   4.468   6.544
 4882POPC   C3B62913  38.581   4.656   6.934
 4882POPC   C4B62914  38.431   4.662   7.343
 4883POPC   NC362915  24.345  39.060   5.453
 4883POPC   PO462916  24.685  38.416   5.255
 4883POPC   GL162917  24.607  38.363   5.688
 4883POPC   GL262918  24.619  38.734   5.792
 4883POPC   C1A62919  24.753  38.321   6.124
 4883POPC   D2A62920  24.868  38.625   6.449
 4883POPC   C3A62921  24.814  38.545   6.896
 4883POPC   C4A62922  24.741  38.767   7.302
 4883POPC   C1B62923  24.333  38.703   6.177
 4883POPC   C2B62924  24.348  38.576   6.639
 4883POPC   C3B62925  24.306  38.426   7.083
 4883POPC   C4B62926  24.296  38.471   7.527
 4884POPC   NC362927  32.457  12.580   5.183
 4884POPC   PO462928  32.269  13.194   5.424
 4884POPC   GL162929  32.239  12.813   5.724
 4884POPC   GL262930  32.462  12.503   5.699
 4884POPC   C1A62931  32.004  12.788   6.131
 4884POPC   D2A62932  31.968  13.036   6.510
 4884POPC   C3A62933  32.180  12.916   6.870
 4884POPC   C4A62934  32.164  12.872   7.297
 4884POPC   C1B62935  32.393  12.443   6.160
 4884POPC   C2B62936  32.474  12.605   6.595
 4884POPC   C3B62937  32.493  12.538   7.067
 4884POPC   C4B62938  32.573  12.611   7.551
 4885POPC   NC362939  25.636   3.078   5.186
 4885POPC   PO462940  26.026   2.591   5.454
 4885POPC   GL162941  25.969   2.836   5.843
 4885POPC   GL262942  26.179   3.131   5.926
 4885POPC   C1A62943  26.025   2.821   6.288
 4885POPC   D2A62944  26.217   2.697   6.678
 4885POPC   C3A62945  25.971   2.607   7.050
 4885POPC   C4A62946  25.957   2.724   7.471
 4885POPC   C1B62947  25.969   3.332   6.209
 4885POPC   C2B62948  25.765   3.259   6.564
 4885POPC   C3B62949  25.943   3.104   6.914
 4885POPC   C4B62950  26.176   3.166   7.292
 4886POPC   NC362951  38.643  43.425   5.268
 4886POPC   PO462952  38.297  42.931   5.516
 4886POPC   GL162953  38.266  43.069   5.911
 4886POPC   GL262954  38.629  43.160   5.875
 4886POPC   C1A62955  37.944  43.015   6.256
 4886POPC   D2A62956  37.889  42.786   6.649
 4886POPC   C3A62957  38.191  42.917   6.963
 4886POPC   C4A62958  38.479  42.838   7.290
 4886POPC   C1B62959  38.766  43.263   6.320
 4886POPC   C2B62960  38.798  43.029   6.703
 4886POPC   C3B62961  38.875  43.138   7.102
 4886POPC   C4B62962  38.900  43.497   7.304
 4887POPC   NC362963  28.186  26.588   5.699
 4887POPC   PO462964  28.730  26.929   5.479
 4887POPC   GL162965  28.611  26.728   5.889
 4887POPC   GL262966  28.510  27.028   6.076
 4887POPC   C1A62967  28.434  26.567   6.309
 4887POPC   D2A62968  28.360  26.836   6.656
 4887POPC   C3A62969  28.423  26.641   7.032
 4887POPC   C4A62970  28.549  26.881   7.374
 4887POPC   C1B62971  28.064  26.917   6.237
 4887POPC   C2B62972  27.850  26.763   6.636
 4887POPC   C3B62973  27.997  26.915   7.057
 4887POPC   C4B62974  28.067  26.902   7.516
 4888POPC   NC362975  12.300  36.638   5.365
 4888POPC   PO462976  11.965  36.067   5.421
 4888POPC   GL162977  12.102  36.325   5.767
 4888POPC   GL262978  12.473  36.314   5.746
 4888POPC   C1A62979  11.940  36.350   6.193
 4888POPC   D2A62980  12.043  36.323   6.627
 4888POPC   C3A62981  11.928  35.974   6.886
 4888POPC   C4A62982  11.898  36.150   7.296
 4888POPC   C1B62983  12.459  36.145   6.197
 4888POPC   C2B62984  12.543  36.226   6.659
 4888POPC   C3B62985  12.383  36.138   7.075
 4888POPC   C4B62986  12.530  36.161   7.526
 4889POPC   NC362987  44.574  19.570   5.375
 4889POPC   PO462988  44.240  20.151   5.389
 4889POPC   GL162989  44.453  19.901   5.738
 4889POPC   GL262990  44.396  19.518   5.845
 4889POPC   C1A62991  44.689  19.873   6.100
 4889POPC   D2A62992  44.462  20.021   6.443
 4889POPC   C3A62993  44.545  19.865   6.835
 4889POPC   C4A62994  44.701  19.990   7.243
 4889POPC   C1B62995  44.497  19.457   6.309
 4889POPC   C2B62996  44.860  19.478   6.602
 4889POPC   C3B62997  44.854  19.524   7.044
 4889POPC   C4B62998  44.441  19.545   7.243
 4890POPC   NC362999  23.076   7.271   5.392
 4890POPC   PO463000  22.515   6.938   5.617
 4890POPC   GL163001  22.749   7.285   5.814
 4890POPC   GL263002  23.119   7.288   5.934
 4890POPC   C1A63003  22.682   7.381   6.236
 4890POPC   D2A63004  22.614   7.107   6.615
 4890POPC   C3A63005  22.649   7.291   7.022
 4890POPC   C4A63006  22.925   7.438   7.313
 4890POPC   C1B63007  23.149   7.315   6.409
 4890POPC   C2B63008  23.063   7.551   6.798
 4890POPC   C3B63009  23.248   7.802   7.161
 4890POPC   C4B63010  23.228   7.684   7.626
 4891POPC   NC363011  42.087  14.330   5.468
 4891POPC   PO463012  42.657  14.686   5.396
 4891POPC   GL163013  42.597  14.517   5.828
 4891POPC   GL263014  42.397  14.236   5.859
 4891POPC   C1A63015  42.283  14.615   6.179
 4891POPC   D2A63016  42.082  14.505   6.569
 4891POPC   C3A63017  42.371  14.461   6.882
 4891POPC   C4A63018  42.662  14.382   7.181
 4891POPC   C1B63019  42.141  14.115   6.209
 4891POPC   C2B63020  42.142  13.981   6.639
 4891POPC   C3B63021  41.920  14.200   6.968
 4891POPC   C4B63022  42.109  14.401   7.309
 4892POPC   NC363023  20.340  35.954   5.393
 4892POPC   PO463024  20.888  36.402   5.389
 4892POPC   GL163025  20.671  36.184   5.736
 4892POPC   GL263026  20.688  35.798   5.744
 4892POPC   C1A63027  20.533  36.147   6.170
 4892POPC   D2A63028  20.724  36.082   6.576
 4892POPC   C3A63029  20.478  36.115   7.000
 4892POPC   C4A63030  20.433  35.884   7.392
 4892POPC   C1B63031  20.930  35.791   6.125
 4892POPC   C2B63032  21.035  35.677   6.564
 4892POPC   C3B63033  20.854  35.782   6.959
 4892POPC   C4B63034  20.889  35.654   7.391
 4893POPC   NC363035   0.054  19.112   5.350
 4893POPC   PO463036   0.625  18.870   5.304
 4893POPC   GL163037   0.552  19.028   5.707
 4893POPC   GL263038   0.245  19.171   5.815
 4893POPC   C1A63039   0.655  19.345   6.038
 4893POPC   D2A63040   0.330  19.422   6.353
 4893POPC   C3A63041   0.480  19.400   6.766
 4893POPC   C4A63042   0.710  19.311   7.160
 4893POPC   C1B63043   0.325  18.857   6.134
 4893POPC   C2B63044   0.473  18.669   6.495
 4893POPC   C3B63045   0.507  18.894   6.884
 4893POPC   C4B63046   0.203  19.144   7.119
 4894POPC   NC363047   4.980  28.473   5.259
 4894POPC   PO463048   5.121  27.908   5.538
 4894POPC   GL163049   5.089  28.171   5.920
 4894POPC   GL263050   5.106  28.515   5.792
 4894POPC   C1A63051   4.989  28.339   6.363
 4894POPC   D2A63052   4.956  28.481   6.806
 4894POPC   C3A63053   5.226  28.353   7.138
 4894POPC   C4A63054   5.396  27.934   7.220
 4894POPC   C1B63055   4.746  28.666   6.042
 4894POPC   C2B63056   4.562  28.634   6.492
 4894POPC   C3B63057   4.574  28.804   6.915
 4894POPC   C4B63058   4.789  28.627   7.284
 4895POPC   NC363059  42.149  22.744   5.353
 4895POPC   PO463060  42.661  23.046   5.536
 4895POPC   GL163061  42.331  23.034   5.801
 4895POPC   GL263062  42.491  22.721   5.884
 4895POPC   C1A63063  42.172  23.262   6.183
 4895POPC   D2A63064  42.399  23.276   6.576
 4895POPC   C3A63065  42.248  23.119   6.968
 4895POPC   C4A63066  42.429  23.024   7.386
 4895POPC   C1B63067  42.271  22.756   6.262
 4895POPC   C2B63068  42.266  22.527   6.638
 4895POPC   C3B63069  42.390  22.625   7.034
 4895POPC   C4B63070  42.082  22.683   7.277
 4896POPC   NC363071  31.941  24.918   5.034
 4896POPC   PO463072  32.407  24.647   5.366
 4896POPC   GL163073  32.363  24.492   5.757
 4896POPC   GL263074  32.024  24.557   5.881
 4896POPC   C1A63075  32.412  24.390   6.187
 4896POPC   D2A63076  32.089  24.435   6.480
 4896POPC   C3A63077  32.267  24.583   6.837
 4896POPC   C4A63078  32.131  24.427   7.221
 4896POPC   C1B63079  32.100  24.864   6.219
 4896POPC   C2B63080  31.884  24.888   6.616
 4896POPC   C3B63081  31.925  24.871   7.077
 4896POPC   C4B63082  32.017  25.004   7.506
 4897POPC   NC363083  11.407  37.224   5.237
 4897POPC   PO463084  11.165  36.590   5.287
 4897POPC   GL163085  11.374  36.817   5.649
 4897POPC   GL263086  11.248  37.175   5.732
 4897POPC   C1A63087  11.504  36.638   6.061
 4897POPC   D2A63088  11.280  36.567   6.463
 4897POPC   C3A63089  11.584  36.640   6.815
 4897POPC   C4A63090  11.387  36.741   7.225
 4897POPC   C1B63091  11.185  37.018   6.141
 4897POPC   C2B63092  11.489  37.027   6.469
 4897POPC   C3B63093  11.436  37.120   6.901
 4897POPC   C4B63094  11.290  37.232   7.319
 4898POPC   NC363095  36.517  19.647   5.530
 4898POPC   PO463096  36.816  20.161   5.228
 4898POPC   GL163097  36.827  20.024   5.716
 4898POPC   GL263098  36.791  19.681   5.952
 4898POPC   C1A63099  36.832  20.104   6.176
 4898POPC   D2A63100  36.762  19.864   6.549
 4898POPC   C3A63101  36.886  20.050   6.947
 4898POPC   C4A63102  37.273  20.066   7.167
 4898POPC   C1B63103  36.899  19.406   6.310
 4898POPC   C2B63104  37.048  19.256   6.690
 4898POPC   C3B63105  36.864  19.543   6.934
 4898POPC   C4B63106  36.850  19.704   7.330
 4899POPC   NC363107  39.694  14.749   5.398
 4899POPC   PO463108  40.097  14.242   5.508
 4899POPC   GL163109  39.901  14.401   5.805
 4899POPC   GL263110  39.653  14.215   5.963
 4899POPC   C1A63111  40.044  14.405   6.243
 4899POPC   D2A63112  40.155  14.150   6.591
 4899POPC   C3A63113  39.976  14.363   6.945
 4899POPC   C4A63114  40.181  14.699   7.183
 4899POPC   C1B63115  39.652  14.690   6.106
 4899POPC   C2B63116  39.845  14.840   6.488
 4899POPC   C3B63117  39.765  14.828   6.925
 4899POPC   C4B63118  39.693  14.617   7.319
 4900POPC   NC363119  34.258  10.314   5.674
 4900POPC   PO463120  33.611  10.506   5.400
 4900POPC   GL163121  33.776  10.462   5.814
 4900POPC   GL263122  34.050  10.683   5.960
 4900POPC   C1A63123  33.621  10.538   6.221
 4900POPC   D2A63124  33.826  10.770   6.522
 4900POPC   C3A63125  33.803  10.575   6.927
 4900POPC   C4A63126  33.657  10.793   7.255
 4900POPC   C1B63127  34.085  10.369   6.318
 4900POPC   C2B63128  33.834  10.143   6.629
 4900POPC   C3B63129  33.947  10.091   7.095
 4900POPC   C4B63130  34.003  10.056   7.559
 4901POPC   NC363131   5.358  43.125   5.391
 4901POPC   PO463132   4.676  43.134   5.339
 4901POPC   GL163133   4.964  43.132   5.728
 4901POPC   GL263134   5.077  42.783   5.765
 4901POPC   C1A63135   5.117  43.273   6.170
 4901POPC   D2A63136   5.152  43.456   6.635
 4901POPC   C3A63137   4.955  43.286   7.032
 4901POPC   C4A63138   5.023  43.416   7.496
 4901POPC   C1B63139   4.838  42.831   6.156
 4901POPC   C2B63140   4.992  42.971   6.567
 4901POPC   C3B63141   5.327  42.973   6.894
 4901POPC   C4B63142   5.209  42.962   7.357
 4902POPC   NC363143  10.353   9.697   5.419
 4902POPC   PO463144  10.855   9.332   5.658
 4902POPC   GL163145  10.649   9.666   5.926
 4902POPC   GL263146  10.307   9.781   5.904
 4902POPC   C1A63147  10.723  10.050   6.208
 4902POPC   D2A63148  10.996  10.059   6.591
 4902POPC   C3A63149  10.812   9.746   6.852
 4902POPC   C4A63150  10.539   9.648   7.202
 4902POPC   C1B63151  10.281   9.688   6.331
 4902POPC   C2B63152  10.037   9.873   6.653
 4902POPC   C3B63153  10.017   9.813   7.096
 4902POPC   C4B63154  10.105   9.586   7.462
 4903POPC   NC363155   5.616  39.840   5.063
 4903POPC   PO463156   5.834  40.436   5.138
 4903POPC   GL163157   5.851  40.277   5.611
 4903POPC   GL263158   5.723  39.934   5.728
 4903POPC   C1A63159   5.827  40.227   6.095
 4903POPC   D2A63160   5.810  40.011   6.487
 4903POPC   C3A63161   5.707  40.219   6.872
 4903POPC   C4A63162   5.950  40.097   7.220
 4903POPC   C1B63163   5.839  39.660   6.096
 4903POPC   C2B63164   5.625  39.515   6.480
 4903POPC   C3B63165   5.743  39.673   6.891
 4903POPC   C4B63166   5.797  39.636   7.317
 4904POPC   NC363167  38.989  34.574   5.496
 4904POPC   PO463168  39.618  34.261   5.499
 4904POPC   GL163169  39.337  34.431   5.843
 4904POPC   GL263170  39.002  34.328   5.940
 4904POPC   C1A63171  39.316  34.836   6.074
 4904POPC   D2A63172  39.320  34.972   6.512
 4904POPC   C3A63173  39.458  34.607   6.764
 4904POPC   C4A63174  39.436  34.445   7.187
 4904POPC   C1B63175  38.834  34.679   6.201
 4904POPC   C2B63176  38.814  34.862   6.610
 4904POPC   C3B63177  38.984  34.641   6.944
 4904POPC   C4B63178  38.826  34.463   7.292
 4905POPC   NC363179  20.496  24.454   5.045
 4905POPC   PO463180  20.891  24.820   5.358
 4905POPC   GL163181  20.739  24.776   5.802
 4905POPC   GL263182  20.643  24.428   5.849
 4905POPC   C1A63183  20.644  24.725   6.270
 4905POPC   D2A63184  20.558  24.410   6.596
 4905POPC   C3A63185  20.519  24.557   7.035
 4905POPC   C4A63186  20.793  24.807   7.279
 4905POPC   C1B63187  20.713  24.097   6.166
 4905POPC   C2B63188  20.634  23.902   6.570
 4905POPC   C3B63189  20.487  24.052   6.970
 4905POPC   C4B63190  20.377  24.177   7.395
 4906POPC   NC363191   6.011  32.306   5.216
 4906POPC   PO463192   6.315  31.902   5.542
 4906POPC   GL163193   5.933  31.964   5.752
 4906POPC   GL263194   5.829  32.325   5.722
 4906POPC   C1A63195   5.945  31.942   6.204
 4906POPC   D2A63196   6.136  32.080   6.580
 4906POPC   C3A63197   6.120  31.860   6.936
 4906POPC   C4A63198   5.885  32.011   7.235
 4906POPC   C1B63199   5.578  32.234   6.051
 4906POPC   C2B63200   5.681  32.321   6.464
 4906POPC   C3B63201   5.675  32.319   6.897
 4906POPC   C4B63202   5.384  32.108   7.184
 4907POPC   NC363203  19.950  31.347   5.212
 4907POPC   PO463204  19.757  31.949   5.224
 4907POPC   GL163205  19.758  31.602   5.626
 4907POPC   GL263206  20.081  31.366   5.714
 4907POPC   C1A63207  19.700  31.361   6.057
 4907POPC   D2A63208  19.870  31.301   6.532
 4907POPC   C3A63209  19.734  31.342   7.002
 4907POPC   C4A63210  19.406  31.579   7.272
 4907POPC   C1B63211  20.164  31.512   6.159
 4907POPC   C2B63212  20.143  31.881   6.407
 4907POPC   C3B63213  20.094  31.896   6.836
 4907POPC   C4B63214  19.869  31.829   7.195
 4908POPC   NC363215  21.116   1.076   5.087
 4908POPC   PO463216  21.703   0.976   5.221
 4908POPC   GL163217  21.470   1.159   5.606
 4908POPC   GL263218  21.212   1.474   5.600
 4908POPC   C1A63219  21.554   1.125   6.079
 4908POPC   D2A63220  21.541   1.320   6.484
 4908POPC   C3A63221  21.567   1.134   6.878
 4908POPC   C4A63222  21.430   1.305   7.261
 4908POPC   C1B63223  21.002   1.518   6.028
 4908POPC   C2B63224  21.064   1.541   6.494
 4908POPC   C3B63225  21.019   1.336   6.897
 4908POPC   C4B63226  20.961   1.524   7.289
 4909POPC   NC363227  29.257  15.605   5.474
 4909POPC   PO463228  28.774  15.120   5.451
 4909POPC   GL163229  29.077  15.203   5.750
 4909POPC   GL263230  28.894  15.516   5.810
 4909POPC   C1A63231  29.302  15.187   6.153
 4909POPC   D2A63232  29.307  14.902   6.530
 4909POPC   C3A63233  29.097  14.990   6.941
 4909POPC   C4A63234  29.328  15.237   7.233
 4909POPC   C1B63235  28.786  15.315   6.184
 4909POPC   C2B63236  28.991  15.329   6.578
 4909POPC   C3B63237  29.227  15.605   6.866
 4909POPC   C4B63238  29.256  15.726   7.302
 4910POPC   NC363239  21.146  37.848   5.460
 4910POPC   PO463240  21.720  37.485   5.604
 4910POPC   GL163241  21.385  37.620   5.849
 4910POPC   GL263242  21.480  37.977   5.832
 4910POPC   C1A63243  21.272  37.457   6.238
 4910POPC   D2A63244  21.463  37.541   6.640
 4910POPC   C3A63245  21.178  37.388   6.953
 4910POPC   C4A63246  21.021  37.518   7.363
 4910POPC   C1B63247  21.631  38.192   6.194
 4910POPC   C2B63248  21.543  38.096   6.612
 4910POPC   C3B63249  21.485  37.904   7.000
 4910POPC   C4B63250  21.698  38.040   7.343
 4911POPC   NC363251   3.779  21.838   5.756
 4911POPC   PO463252   3.441  21.377   5.317
 4911POPC   GL163253   3.431  21.464   5.752
 4911POPC   GL263254   3.728  21.277   5.808
 4911POPC   C1A63255   3.447  21.478   6.220
 4911POPC   D2A63256   3.345  21.262   6.582
 4911POPC   C3A63257   3.395  21.412   7.009
 4911POPC   C4A63258   3.316  21.672   7.427
 4911POPC   C1B63259   3.758  21.079   6.187
 4911POPC   C2B63260   3.860  21.224   6.600
 4911POPC   C3B63261   3.913  21.205   7.031
 4911POPC   C4B63262   3.684  21.169   7.363
 4912POPC   NC363263  19.989  30.269   5.379
 4912POPC   PO463264  19.753  30.959   5.364
 4912POPC   GL163265  20.000  30.841   5.751
 4912POPC   GL263266  20.172  30.511   5.774
 4912POPC   C1A63267  19.904  30.906   6.179
 4912POPC   D2A63268  19.606  30.867   6.494
 4912POPC   C3A63269  19.814  30.833   6.891
 4912POPC   C4A63270  19.690  30.882   7.291
 4912POPC   C1B63271  20.285  30.565   6.188
 4912POPC   C2B63272  20.221  30.783   6.590
 4912POPC   C3B63273  20.311  30.566   6.985
 4912POPC   C4B63274  19.979  30.469   7.296
 4913POPC   NC363275  33.234  14.443   5.557
 4913POPC   PO463276  33.928  14.221   5.402
 4913POPC   GL163277  33.957  14.455   5.784
 4913POPC   GL263278  34.205  14.716   5.792
 4913POPC   C1A63279  33.722  14.428   6.182
 4913POPC   D2A63280  33.551  14.258   6.570
 4913POPC   C3A63281  33.771  14.306   6.978
 4913POPC   C4A63282  33.651  14.368   7.400
 4913POPC   C1B63283  34.079  14.798   6.198
 4913POPC   C2B63284  34.015  14.578   6.592
 4913POPC   C3B63285  34.023  14.738   7.015
 4913POPC   C4B63286  34.105  14.564   7.413
 4914POPC   NC363287  15.172  21.512   5.385
 4914POPC   PO463288  14.889  20.933   5.588
 4914POPC   GL163289  15.151  21.266   5.846
 4914POPC   GL263290  15.354  21.612   5.834
 4914POPC   C1A63291  15.089  21.500   6.242
 4914POPC   D2A63292  15.235  21.430   6.650
 4914POPC   C3A63293  14.919  21.368   6.950
 4914POPC   C4A63294  15.010  21.211   7.365
 4914POPC   C1B63295  15.540  21.792   6.181
 4914POPC   C2B63296  15.536  21.852   6.631
 4914POPC   C3B63297  15.419  21.696   7.058
 4914POPC   C4B63298  15.446  21.503   7.478
 4915POPC   NC363299  28.270  36.781   5.364
 4915POPC   PO463300  28.393  37.450   5.390
 4915POPC   GL163301  28.537  37.104   5.728
 4915POPC   GL263302  28.361  36.737   5.846
 4915POPC   C1A63303  28.636  36.959   6.181
 4915POPC   D2A63304  28.444  36.775   6.568
 4915POPC   C3A63305  28.418  37.037   6.936
 4915POPC   C4A63306  28.015  37.016   7.121
 4915POPC   C1B63307  28.567  36.451   6.173
 4915POPC   C2B63308  28.363  36.202   6.502
 4915POPC   C3B63309  28.160  36.418   6.858
 4915POPC   C4B63310  28.373  36.615   7.200
 4916POPC   NC363311  13.916  13.784   5.394
 4916POPC   PO463312  13.716  14.491   5.413
 4916POPC   GL163313  13.677  14.189   5.757
 4916POPC   GL263314  13.352  14.013   5.786
 4916POPC   C1A63315  13.770  14.295   6.190
 4916POPC   D2A63316  13.987  14.302   6.593
 4916POPC   C3A63317  13.651  14.343   6.896
 4916POPC   C4A63318  13.618  14.116   7.257
 4916POPC   C1B63319  13.272  14.214   6.204
 4916POPC   C2B63320  13.164  14.351   6.639
 4916POPC   C3B63321  13.111  14.054   6.987
 4916POPC   C4B63322  13.144  14.007   7.411
 4917POPC   NC363323  27.661  33.283   5.422
 4917POPC   PO463324  27.104  32.839   5.573
 4917POPC   GL163325  27.386  33.080   5.803
 4917POPC   GL263326  27.698  32.989   5.836
 4917POPC   C1A63327  27.346  33.312   6.166
 4917POPC   D2A63328  27.270  33.199   6.580
 4917POPC   C3A63329  27.608  33.246   6.858
 4917POPC   C4A63330  27.466  33.119   7.248
 4917POPC   C1B63331  27.842  32.822   6.192
 4917POPC   C2B63332  27.979  32.929   6.587
 4917POPC   C3B63333  27.887  32.848   7.034
 4917POPC   C4B63334  27.957  33.212   7.303
 4918POPC   NC363335  31.101   7.542   5.148
 4918POPC   PO463336  30.634   7.101   5.287
 4918POPC   GL163337  30.685   7.126   5.782
 4918POPC   GL263338  30.758   7.498   5.970
 4918POPC   C1A63339  30.485   7.166   6.207
 4918POPC   D2A63340  30.634   7.482   6.507
 4918POPC   C3A63341  30.764   7.368   6.929
 4918POPC   C4A63342  30.639   7.462   7.322
 4918POPC   C1B63343  31.053   7.700   6.299
 4918POPC   C2B63344  31.090   7.667   6.693
 4918POPC   C3B63345  31.287   7.745   7.037
 4918POPC   C4B63346  31.078   7.700   7.374
 4919POPC   NC363347  42.715  15.814   5.433
 4919POPC   PO463348  42.839  16.447   5.495
 4919POPC   GL163349  42.952  16.069   5.792
 4919POPC   GL263350  43.157  15.755   5.771
 4919POPC   C1A63351  43.043  16.026   6.233
 4919POPC   D2A63352  43.299  15.915   6.604
 4919POPC   C3A63353  43.110  16.005   7.018
 4919POPC   C4A63354  43.286  16.151   7.422
 4919POPC   C1B63355  43.331  15.571   6.172
 4919POPC   C2B63356  43.465  15.330   6.531
 4919POPC   C3B63357  43.462  15.520   6.937
 4919POPC   C4B63358  43.189  15.550   7.258
 4920POPC   NC363359   2.134  32.766   5.570
 4920POPC   PO463360   1.906  33.323   5.283
 4920POPC   GL163361   1.832  33.179   5.734
 4920POPC   GL263362   1.634  32.871   5.792
 4920POPC   C1A63363   2.000  33.058   6.168
 4920POPC   D2A63364   2.329  32.986   6.506
 4920POPC   C3A63365   2.133  32.918   6.913
 4920POPC   C4A63366   1.756  33.090   7.090
 4920POPC   C1B63367   1.589  32.681   6.219
 4920POPC   C2B63368   1.643  32.731   6.680
 4920POPC   C3B63369   1.458  32.672   7.082
 4920POPC   C4B63370   1.698  32.683   7.478
 4921POPC   NC363371  37.236  15.215   5.406
 4921POPC   PO463372  36.595  15.282   5.296
 4921POPC   GL163373  36.616  15.237   5.797
 4921POPC   GL263374  36.751  14.858   5.835
 4921POPC   C1A63375  36.708  15.392   6.269
 4921POPC   D2A63376  36.949  15.276   6.664
 4921POPC   C3A63377  36.910  15.449   7.095
 4921POPC   C4A63378  37.165  15.196   7.340
 4921POPC   C1B63379  36.559  14.901   6.246
 4921POPC   C2B63380  36.583  14.922   6.694
 4921POPC   C3B63381  36.690  14.988   7.089
 4921POPC   C4B63382  36.657  14.786   7.445
 4922POPC   NC363383  39.670  40.307   5.412
 4922POPC   PO463384  39.735  39.644   5.524
 4922POPC   GL163385  40.023  40.002   5.644
 4922POPC   GL263386  40.289  39.890   5.837
 4922POPC   C1A63387  40.073  40.329   5.987
 4922POPC   D2A63388  40.141  40.457   6.426
 4922POPC   C3A63389  39.927  40.342   6.817
 4922POPC   C4A63390  39.833  40.275   7.298
 4922POPC   C1B63391  39.960  39.848   6.156
 4922POPC   C2B63392  39.913  39.859   6.620
 4922POPC   C3B63393  40.120  39.940   7.054
 4922POPC   C4B63394  40.320  39.726   7.374
 4923POPC   NC363395   5.913  42.295   5.342
 4923POPC   PO463396   5.912  41.601   5.261
 4923POPC   GL163397   5.892  41.613   5.691
 4923POPC   GL263398   6.179  41.446   5.825
 4923POPC   C1A63399   5.796  41.663   6.118
 4923POPC   D2A63400   5.680  41.444   6.469
 4923POPC   C3A63401   5.573  41.682   6.818
 4923POPC   C4A63402   5.633  41.547   7.215
 4923POPC   C1B63403   6.332  41.373   6.272
 4923POPC   C2B63404   6.354  41.491   6.741
 4923POPC   C3B63405   6.264  41.399   7.199
 4923POPC   C4B63406   6.169  41.336   7.631
 4924POPC   NC363407  36.777   9.172   5.217
 4924POPC   PO463408  37.232   8.768   5.364
 4924POPC   GL163409  36.998   9.025   5.720
 4924POPC   GL263410  36.650   9.174   5.705
 4924POPC   C1A63411  36.853   8.994   6.173
 4924POPC   D2A63412  36.958   8.854   6.597
 4924POPC   C3A63413  36.781   8.949   7.009
 4924POPC   C4A63414  36.667   8.648   7.355
 4924POPC   C1B63415  36.510   9.359   6.082
 4924POPC   C2B63416  36.496   9.202   6.502
 4924POPC   C3B63417  36.488   9.381   6.903
 4924POPC   C4B63418  36.734   9.603   7.181
 4925POPC   NC363419  13.091  25.457   5.422
 4925POPC   PO463420  12.559  25.165   5.433
 4925POPC   GL163421  12.724  25.084   5.867
 4925POPC   GL263422  13.090  25.029   5.863
 4925POPC   C1A63423  12.893  25.275   6.283
 4925POPC   D2A63424  12.694  25.462   6.672
 4925POPC   C3A63425  12.892  25.320   7.037
 4925POPC   C4A63426  12.744  25.134   7.443
 4925POPC   C1B63427  13.272  24.928   6.259
 4925POPC   C2B63428  13.092  24.954   6.673
 4925POPC   C3B63429  13.314  25.011   7.064
 4925POPC   C4B63430  13.206  24.964   7.484
 4926POPC   NC363431  31.572  23.398   5.488
 4926POPC   PO463432  31.711  22.731   5.361
 4926POPC   GL163433  31.430  22.824   5.742
 4926POPC   GL263434  31.258  23.171   5.802
 4926POPC   C1A63435  31.472  22.673   6.178
 4926POPC   D2A63436  31.712  22.704   6.572
 4926POPC   C3A63437  31.589  22.825   7.011
 4926POPC   C4A63438  31.758  22.543   7.327
 4926POPC   C1B63439  31.528  23.169   6.185
 4926POPC   C2B63440  31.514  23.211   6.629
 4926POPC   C3B63441  31.400  23.397   7.018
 4926POPC   C4B63442  31.500  23.258   7.430
 4927POPC   NC363443  28.041  23.128   5.447
 4927POPC   PO463444  28.720  22.812   5.509
 4927POPC   GL163445  28.508  22.877   5.899
 4927POPC   GL263446  28.132  22.840   5.899
 4927POPC   C1A63447  28.426  22.745   6.324
 4927POPC   D2A63448  28.458  23.114   6.583
 4927POPC   C3A63449  28.329  23.041   6.997
 4927POPC   C4A63450  28.484  23.214   7.365
 4927POPC   C1B63451  28.028  23.117   6.255
 4927POPC   C2B63452  27.996  23.306   6.685
 4927POPC   C3B63453  27.840  23.121   7.086
 4927POPC   C4B63454  28.007  23.229   7.548
 4928POPC   NC363455  26.251   5.405   5.442
 4928POPC   PO463456  25.889   4.863   5.437
 4928POPC   GL163457  25.925   5.168   5.782
 4928POPC   GL263458  26.246   5.018   5.801
 4928POPC   C1A63459  25.803   5.126   6.240
 4928POPC   D2A63460  25.778   4.803   6.594
 4928POPC   C3A63461  25.976   4.867   7.009
 4928POPC   C4A63462  25.857   4.938   7.449
 4928POPC   C1B63463  26.318   5.141   6.213
 4928POPC   C2B63464  26.178   5.162   6.626
 4928POPC   C3B63465  26.412   5.161   7.000
 4928POPC   C4B63466  26.443   5.519   7.289
 4929POPC   NC363467   5.823  36.514   5.549
 4929POPC   PO463468   6.128  37.024   5.249
 4929POPC   GL163469   5.929  36.993   5.704
 4929POPC   GL263470   5.624  36.824   5.900
 4929POPC   C1A63471   5.963  37.095   6.148
 4929POPC   D2A63472   6.103  36.959   6.546
 4929POPC   C3A63473   5.810  37.167   6.834
 4929POPC   C4A63474   5.781  37.290   7.228
 4929POPC   C1B63475   5.560  36.695   6.324
 4929POPC   C2B63476   5.704  36.681   6.728
 4929POPC   C3B63477   5.836  36.769   7.175
 4929POPC   C4B63478   5.705  36.612   7.602
 4930POPC   NC363479  39.611  27.897   5.454
 4930POPC   PO463480  39.398  27.225   5.369
 4930POPC   GL163481  39.219  27.288   5.810
 4930POPC   GL263482  39.124  27.655   5.842
 4930POPC   C1A63483  39.330  27.446   6.255
 4930POPC   D2A63484  39.081  27.601   6.631
 4930POPC   C3A63485  39.144  27.468   7.096
 4930POPC   C4A63486  39.150  27.438   7.594
 4930POPC   C1B63487  38.880  27.887   6.168
 4930POPC   C2B63488  38.905  28.105   6.579
 4930POPC   C3B63489  38.956  27.948   7.008
 4930POPC   C4B63490  39.349  27.894   7.274
 4931POPC   NC363491  18.749   2.443   5.329
 4931POPC   PO463492  18.888   1.782   5.401
 4931POPC   GL163493  19.163   2.032   5.705
 4931POPC   GL263494  19.409   2.300   5.589
 4931POPC   C1A63495  19.167   1.946   6.154
 4931POPC   D2A63496  18.907   1.866   6.517
 4931POPC   C3A63497  18.985   1.930   6.938
 4931POPC   C4A63498  18.947   1.656   7.281
 4931POPC   C1B63499  19.444   2.370   6.067
 4931POPC   C2B63500  19.270   2.309   6.499
 4931POPC   C3B63501  19.400   2.226   6.904
 4931POPC   C4B63502  19.297   2.119   7.322
 4932POPC   NC363503  32.254  30.271   5.146
 4932POPC   PO463504  32.349  29.697   5.395
 4932POPC   GL163505  31.996  29.880   5.661
 4932POPC   GL263506  31.805  29.627   5.828
 4932POPC   C1A63507  31.975  30.104   6.082
 4932POPC   D2A63508  32.089  30.297   6.497
 4932POPC   C3A63509  32.157  30.010   6.876
 4932POPC   C4A63510  32.130  30.183   7.291
 4932POPC   C1B63511  32.085  29.598   6.184
 4932POPC   C2B63512  32.179  29.482   6.646
 4932POPC   C3B63513  32.485  29.610   6.970
 4932POPC   C4B63514  32.378  29.762   7.400
 4933POPC   NC363515   9.174  21.757   5.280
 4933POPC   PO463516   9.010  21.106   5.411
 4933POPC   GL163517   8.805  21.233   5.774
 4933POPC   GL263518   9.128  21.255   5.911
 4933POPC   C1A63519   8.750  21.439   6.182
 4933POPC   D2A63520   9.008  21.407   6.494
 4933POPC   C3A63521   8.776  21.383   6.852
 4933POPC   C4A63522   8.834  21.455   7.309
 4933POPC   C1B63523   9.401  21.138   6.218
 4933POPC   C2B63524   9.492  21.300   6.602
 4933POPC   C3B63525   9.266  21.330   6.965
 4933POPC   C4B63526   9.230  21.137   7.372
 4934POPC   NC363527  29.704  19.885   5.501
 4934POPC   PO463528  30.250  19.855   5.058
 4934POPC   GL163529  30.240  20.041   5.562
 4934POPC   GL263530  30.417  19.775   5.822
 4934POPC   C1A63531  30.042  20.041   6.043
 4934POPC   D2A63532  29.758  19.749   6.349
 4934POPC   C3A63533  29.846  19.653   6.807
 4934POPC   C4A63534  30.002  19.963   7.140
 4934POPC   C1B63535  30.292  19.661   6.280
 4934POPC   C2B63536  30.314  19.823   6.735
 4934POPC   C3B63537  30.416  19.670   7.193
 4934POPC   C4B63538  30.465  19.796   7.653
 4935POPC   NC363539  27.624  41.344   5.329
 4935POPC   PO463540  27.684  41.907   5.481
 4935POPC   GL163541  27.787  41.568   5.783
 4935POPC   GL263542  27.527  41.338   5.847
 4935POPC   C1A63543  27.773  41.565   6.242
 4935POPC   D2A63544  27.864  41.520   6.676
 4935POPC   C3A63545  27.790  41.675   7.114
 4935POPC   C4A63546  27.435  41.828   7.374
 4935POPC   C1B63547  27.344  41.227   6.267
 4935POPC   C2B63548  27.179  41.226   6.694
 4935POPC   C3B63549  27.355  41.419   7.029
 4935POPC   C4B63550  27.460  41.308   7.416
 4936POPC   NC363551  27.863  12.019   5.120
 4936POPC   PO463552  27.802  11.447   5.491
 4936POPC   GL163553  27.642  11.468   5.907
 4936POPC   GL263554  27.741  11.129   6.037
 4936POPC   C1A63555  27.638  11.547   6.383
 4936POPC   D2A63556  27.786  11.233   6.698
 4936POPC   C3A63557  27.620  11.330   7.093
 4936POPC   C4A63558  27.592  11.660   7.382
 4936POPC   C1B63559  27.414  11.073   6.375
 4936POPC   C2B63560  27.249  11.102   6.812
 4936POPC   C3B63561  27.283  10.984   7.262
 4936POPC   C4B63562  27.588  11.155   7.576
 4937POPC   NC363563  14.483  24.627   5.343
 4937POPC   PO463564  14.025  24.155   5.423
 4937POPC   GL163565  14.071  24.499   5.730
 4937POPC   GL263566  14.439  24.499   5.823
 4937POPC   C1A63567  14.123  24.674   6.164
 4937POPC   D2A63568  14.344  24.818   6.552
 4937POPC   C3A63569  14.188  24.657   6.954
 4937POPC   C4A63570  14.407  24.327   7.188
 4937POPC   C1B63571  14.659  24.779   6.105
 4937POPC   C2B63572  14.906  24.783   6.469
 4937POPC   C3B63573  14.886  24.910   6.897
 4937POPC   C4B63574  14.574  24.858   7.223
 4938POPC   NC363575  26.166  25.370   5.555
 4938POPC   PO463576  25.925  24.806   5.392
 4938POPC   GL163577  25.960  24.958   5.839
 4938POPC   GL263578  26.182  25.155   5.992
 4938POPC   C1A63579  25.737  25.212   6.216
 4938POPC   D2A63580  25.893  25.383   6.636
 4938POPC   C3A63581  25.696  25.286   7.043
 4938POPC   C4A63582  25.852  25.057   7.416
 4938POPC   C1B63583  26.141  25.562   6.218
 4938POPC   C2B63584  26.375  25.648   6.584
 4938POPC   C3B63585  26.267  25.510   6.987
 4938POPC   C4B63586  26.498  25.723   7.283
 4939POPC   NC363587   2.186  31.888   5.380
 4939POPC   PO463588   1.762  32.402   5.572
 4939POPC   GL163589   2.120  32.297   5.803
 4939POPC   GL263590   1.966  31.994   5.829
 4939POPC   C1A63591   2.308  32.515   6.178
 4939POPC   D2A63592   2.488  32.496   6.602
 4939POPC   C3A63593   2.181  32.401   6.899
 4939POPC   C4A63594   1.810  32.316   7.135
 4939POPC   C1B63595   1.761  32.170   6.197
 4939POPC   C2B63596   1.781  32.209   6.629
 4939POPC   C3B63597   1.774  31.856   6.909
 4939POPC   C4B63598   1.999  31.859   7.265
 4940POPC   NC363599   5.263  20.831   5.406
 4940POPC   PO463600   4.853  20.285   5.430
 4940POPC   GL163601   4.809  20.609   5.687
 4940POPC   GL263602   5.156  20.572   5.829
 4940POPC   C1A63603   4.794  20.730   6.133
 4940POPC   D2A63604   5.065  20.483   6.410
 4940POPC   C3A63605   4.984  20.470   6.833
 4940POPC   C4A63606   5.030  20.547   7.252
 4940POPC   C1B63607   5.300  20.858   6.152
 4940POPC   C2B63608   5.422  20.846   6.578
 4940POPC   C3B63609   5.274  20.901   6.984
 4940POPC   C4B63610   5.375  20.915   7.415
 4941POPC   NC363611   3.521   6.997   5.528
 4941POPC   PO463612   3.542   7.616   5.265
 4941POPC   GL163613   3.386   7.488   5.655
 4941POPC   GL263614   3.718   7.382   5.810
 4941POPC   C1A63615   3.246   7.460   6.084
 4941POPC   D2A63616   3.395   7.701   6.434
 4941POPC   C3A63617   3.192   7.618   6.825
 4941POPC   C4A63618   3.240   7.764   7.226
 4941POPC   C1B63619   3.697   7.280   6.239
 4941POPC   C2B63620   3.527   7.235   6.661
 4941POPC   C3B63621   3.605   7.397   7.066
 4941POPC   C4B63622   3.977   7.338   7.344
 4942POPC   NC363623  24.226  24.027   5.452
 4942POPC   PO463624  24.787  23.691   5.474
 4942POPC   GL163625  24.491  23.770   5.817
 4942POPC   GL263626  24.110  23.660   5.821
 4942POPC   C1A63627  24.468  23.688   6.248
 4942POPC   D2A63628  24.296  23.614   6.626
 4942POPC   C3A63629  24.569  23.534   6.909
 4942POPC   C4A63630  24.438  23.408   7.270
 4942POPC   C1B63631  24.127  24.046   6.118
 4942POPC   C2B63632  24.203  24.139   6.580
 4942POPC   C3B63633  24.270  23.956   7.008
 4942POPC   C4B63634  24.076  24.044   7.389
 4943POPC   NC363635  13.211  30.884   5.374
 4943POPC   PO463636  12.714  30.602   5.163
 4943POPC   GL163637  12.878  30.590   5.636
 4943POPC   GL263638  12.890  30.279   5.824
 4943POPC   C1A63639  12.795  30.773   6.078
 4943POPC   D2A63640  12.919  30.988   6.488
 4943POPC   C3A63641  12.786  30.897   6.926
 4943POPC   C4A63642  12.863  31.145   7.281
 4943POPC   C1B63643  13.041  30.358   6.259
 4943POPC   C2B63644  12.996  30.445   6.723
 4943POPC   C3B63645  12.973  30.304   7.157
 4943POPC   C4B63646  12.959  30.257   7.619
 4944POPC   NC363647  20.473   0.451   5.454
 4944POPC   PO463648  20.901  44.889   5.320
 4944POPC   GL163649  20.666   0.058   5.710
 4944POPC   GL263650  20.248   0.087   5.701
 4944POPC   C1A63651  20.760   0.260   6.140
 4944POPC   D2A63652  20.599   0.576   6.493
 4944POPC   C3A63653  20.771   0.571   6.954
 4944POPC   C4A63654  20.853   0.437   7.410
 4944POPC   C1B63655  20.250   0.313   6.114
 4944POPC   C2B63656  20.077   0.456   6.513
 4944POPC   C3B63657  20.251   0.514   6.888
 4944POPC   C4B63658  20.371   0.213   7.167
 4945POPC   NC363659  28.633  12.171   5.475
 4945POPC   PO463660  27.921  12.324   5.488
 4945POPC   GL163661  28.221  12.155   5.793
 4945POPC   GL263662  28.457  12.336   5.921
 4945POPC   C1A63663  28.398  11.894   6.148
 4945POPC   D2A63664  28.664  11.748   6.485
 4945POPC   C3A63665  28.475  11.877   6.860
 4945POPC   C4A63666  28.432  11.790   7.283
 4945POPC   C1B63667  28.656  12.511   6.272
 4945POPC   C2B63668  28.531  12.674   6.648
 4945POPC   C3B63669  28.388  12.412   6.947
 4945POPC   C4B63670  28.681  12.222   7.162
 4946POPC   NC363671  28.522   1.904   5.198
 4946POPC   PO463672  28.004   1.937   5.561
 4946POPC   GL163673  28.444   1.899   5.731
 4946POPC   GL263674  28.571   2.202   5.629
 4946POPC   C1A63675  28.638   1.925   6.176
 4946POPC   D2A63676  28.385   1.794   6.543
 4946POPC   C3A63677  28.455   1.706   6.979
 4946POPC   C4A63678  28.470   1.585   7.418
 4946POPC   C1B63679  28.327   2.313   6.030
 4946POPC   C2B63680  28.425   2.304   6.483
 4946POPC   C3B63681  28.657   2.181   6.840
 4946POPC   C4B63682  28.426   2.164   7.226
 4947POPC   NC363683  34.891   1.676   5.300
 4947POPC   PO463684  34.368   1.216   5.400
 4947POPC   GL163685  34.548   1.328   5.778
 4947POPC   GL263686  34.919   1.334   5.699
 4947POPC   C1A63687  34.613   1.470   6.206
 4947POPC   D2A63688  34.478   1.374   6.633
 4947POPC   C3A63689  34.583   1.446   7.085
 4947POPC   C4A63690  34.470   1.263   7.516
 4947POPC   C1B63691  34.904   1.075   6.064
 4947POPC   C2B63692  34.803   0.963   6.451
 4947POPC   C3B63693  34.852   1.068   6.832
 4947POPC   C4B63694  34.784   0.988   7.214
 4948POPC   NC363695  12.301  42.562   5.410
 4948POPC   PO463696  12.101  41.929   5.407
 4948POPC   GL163697  12.242  42.121   5.770
 4948POPC   GL263698  12.597  42.185   5.687
 4948POPC   C1A63699  12.001  42.153   6.159
 4948POPC   D2A63700  11.803  42.309   6.543
 4948POPC   C3A63701  11.864  42.204   6.970
 4948POPC   C4A63702  12.018  42.470   7.285
 4948POPC   C1B63703  12.602  42.299   6.119
 4948POPC   C2B63704  12.343  42.414   6.462
 4948POPC   C3B63705  12.338  42.408   6.885
 4948POPC   C4B63706  12.324  42.047   7.163
 4949POPC   NC363707  44.380   4.528   5.483
 4949POPC   PO463708  44.733   4.002   5.397
 4949POPC   GL163709  44.918   4.134   5.777
 4949POPC   GL263710  44.558   4.207   5.854
 4949POPC   C1A63711  44.980   4.309   6.202
 4949POPC   D2A63712  44.770   4.435   6.598
 4949POPC   C3A63713  44.938   4.423   7.009
 4949POPC   C4A63714  44.798   4.281   7.428
 4949POPC   C1B63715  44.346   4.031   6.203
 4949POPC   C2B63716  44.483   3.997   6.625
 4949POPC   C3B63717  44.497   4.151   7.025
 4949POPC   C4B63718  44.221   3.994   7.304
 4950POPC   NC363719  38.250   4.549   5.479
 4950POPC   PO463720  38.094   3.856   5.545
 4950POPC   GL163721  38.390   3.984   5.856
 4950POPC   GL263722  38.710   3.916   5.898
 4950POPC   C1A63723  38.298   4.049   6.284
 4950POPC   D2A63724  38.016   4.223   6.579
 4950POPC   C3A63725  38.187   4.319   6.973
 4950POPC   C4A63726  38.382   4.134   7.304
 4950POPC   C1B63727  38.805   4.168   6.239
 4950POPC   C2B63728  38.695   3.940   6.605
 4950POPC   C3B63729  38.782   3.949   7.029
 4950POPC   C4B63730  38.833   4.341   7.247
 4951POPC   NC363731  18.086  23.300   5.178
 4951POPC   PO463732  18.025  23.986   5.359
 4951POPC   GL163733  18.274  23.621   5.654
 4951POPC   GL263734  18.647  23.473   5.773
 4951POPC   C1A63735  18.276  23.501   6.125
 4951POPC   D2A63736  18.271  23.695   6.558
 4951POPC   C3A63737  18.319  23.431   6.937
 4951POPC   C4A63738  18.314  23.568   7.376
 4951POPC   C1B63739  18.747  23.736   6.173
 4951POPC   C2B63740  18.770  23.830   6.640
 4951POPC   C3B63741  18.557  23.862   7.049
 4951POPC   C4B63742  18.576  23.974   7.517
 4952POPC   NC363743  20.785   5.369   5.323
 4952POPC   PO463744  21.200   5.871   5.196
 4952POPC   GL163745  20.786   5.814   5.566
 4952POPC   GL263746  20.580   6.154   5.686
 4952POPC   C1A63747  20.564   5.772   6.009
 4952POPC   D2A63748  20.502   6.002   6.409
 4952POPC   C3A63749  20.604   5.872   6.839
 4952POPC   C4A63750  20.459   5.585   7.148
 4952POPC   C1B63751  20.287   6.322   6.043
 4952POPC   C2B63752  20.104   6.369   6.487
 4952POPC   C3B63753  20.274   6.380   6.919
 4952POPC   C4B63754  20.454   6.174   7.284
 4953POPC   NC363755  27.216  13.396   5.301
 4953POPC   PO463756  26.521  13.596   5.400
 4953POPC   GL163757  26.625  13.728   5.818
 4953POPC   GL263758  26.942  13.785   5.914
 4953POPC   C1A63759  26.632  13.459   6.189
 4953POPC   D2A63760  26.561  13.568   6.661
 4953POPC   C3A63761  26.642  13.284   7.051
 4953POPC   C4A63762  26.847  13.297   7.500
 4953POPC   C1B63763  26.829  13.910   6.328
 4953POPC   C2B63764  27.014  13.852   6.729
 4953POPC   C3B63765  27.027  13.623   7.117
 4953POPC   C4B63766  27.117  13.730   7.558
 4954POPC   NC363767  17.359  12.275   5.349
 4954POPC   PO463768  17.866  11.767   5.488
 4954POPC   GL163769  17.412  11.835   5.688
 4954POPC   GL263770  17.338  12.171   5.840
 4954POPC   C1A63771  17.371  11.750   6.148
 4954POPC   D2A63772  17.707  11.932   6.454
 4954POPC   C3A63773  17.658  11.979   6.906
 4954POPC   C4A63774  17.303  11.785   7.138
 4954POPC   C1B63775  17.333  12.255   6.274
 4954POPC   C2B63776  17.145  12.407   6.657
 4954POPC   C3B63777  17.295  12.332   7.073
 4954POPC   C4B63778  17.635  12.436   7.313
 4955POPC   NC363779  34.194  41.651   5.362
 4955POPC   PO463780  34.690  41.218   5.220
 4955POPC   GL163781  34.622  41.375   5.759
 4955POPC   GL263782  34.283  41.462   5.838
 4955POPC   C1A63783  34.788  41.702   6.109
 4955POPC   D2A63784  34.833  41.903   6.538
 4955POPC   C3A63785  34.911  41.739   6.963
 4955POPC   C4A63786  34.581  41.601   7.219
 4955POPC   C1B63787  34.390  41.457   6.292
 4955POPC   C2B63788  34.752  41.401   6.568
 4955POPC   C3B63789  34.870  41.213   6.962
 4955POPC   C4B63790  34.990  41.344   7.367
 4956POPC   NC363791  13.233  42.292   5.276
 4956POPC   PO463792  13.830  42.484   5.356
 4956POPC   GL163793  13.587  42.417   5.695
 4956POPC   GL263794  13.406  42.687   5.614
 4956POPC   C1A63795  13.591  42.202   6.104
 4956POPC   D2A63796  13.689  41.981   6.498
 4956POPC   C3A63797  13.492  42.150   6.848
 4956POPC   C4A63798  13.560  42.279   7.233
 4956POPC   C1B63799  13.386  42.695   6.070
 4956POPC   C2B63800  13.478  42.526   6.495
 4956POPC   C3B63801  13.538  42.682   6.909
 4956POPC   C4B63802  13.247  42.705   7.214
 4957POPC   NC363803   2.351  41.161   5.256
 4957POPC   PO463804   1.984  40.561   5.389
 4957POPC   GL163805   1.993  40.643   5.839
 4957POPC   GL263806   1.788  40.949   5.877
 4957POPC   C1A63807   1.911  40.660   6.305
 4957POPC   D2A63808   1.718  40.829   6.683
 4957POPC   C3A63809   1.832  40.720   7.126
 4957POPC   C4A63810   2.225  40.685   7.300
 4957POPC   C1B63811   2.145  41.088   6.131
 4957POPC   C2B63812   2.250  40.984   6.560
 4957POPC   C3B63813   2.105  41.121   6.944
 4957POPC   C4B63814   2.067  41.147   7.375
 4958POPC   NC363815  26.289  20.004   5.496
 4958POPC   PO463816  26.062  19.359   5.412
 4958POPC   GL163817  26.196  19.598   5.786
 4958POPC   GL263818  25.958  19.842   5.857
 4958POPC   C1A63819  26.328  19.741   6.227
 4958POPC   D2A63820  26.168  19.787   6.670
 4958POPC   C3A63821  26.370  20.042   7.037
 4958POPC   C4A63822  26.313  20.154   7.518
 4958POPC   C1B63823  25.782  19.803   6.256
 4958POPC   C2B63824  25.575  19.814   6.643
 4958POPC   C3B63825  25.779  19.634   7.003
 4958POPC   C4B63826  26.119  19.702   7.304
 4959POPC   NC363827  19.613  44.945   5.385
 4959POPC   PO463828  20.016   0.483   5.402
 4959POPC   GL163829  19.912   0.531   5.801
 4959POPC   GL263830  19.612   0.372   5.766
 4959POPC   C1A63831  19.747   0.675   6.202
 4959POPC   D2A63832  19.532   0.464   6.575
 4959POPC   C3A63833  19.533   0.684   6.996
 4959POPC   C4A63834  19.916   0.720   7.264
 4959POPC   C1B63835  19.763   0.154   6.154
 4959POPC   C2B63836  19.806   0.013   6.610
 4959POPC   C3B63837  19.816   0.265   7.009
 4959POPC   C4B63838  19.706   0.246   7.481
 4960POPC   NC363839  25.567  21.196   5.399
 4960POPC   PO463840  24.983  21.425   5.310
 4960POPC   GL163841  25.203  21.388   5.748
 4960POPC   GL263842  25.429  21.670   5.853
 4960POPC   C1A63843  25.300  21.280   6.220
 4960POPC   D2A63844  25.090  21.289   6.645
 4960POPC   C3A63845  25.232  21.085   7.039
 4960POPC   C4A63846  25.380  21.193   7.416
 4960POPC   C1B63847  25.163  21.782   6.217
 4960POPC   C2B63848  25.156  21.835   6.680
 4960POPC   C3B63849  25.233  21.612   7.073
 4960POPC   C4B63850  24.930  21.825   7.318
 4961POPC   NC363851  38.145   8.468   5.369
 4961POPC   PO463852  38.652   7.994   5.378
 4961POPC   GL163853  38.621   8.049   5.802
 4961POPC   GL263854  38.272   7.943   5.816
 4961POPC   C1A63855  38.853   8.164   6.171
 4961POPC   D2A63856  38.854   8.457   6.519
 4961POPC   C3A63857  38.771   8.245   6.898
 4961POPC   C4A63858  38.515   8.312   7.228
 4961POPC   C1B63859  38.323   8.166   6.241
 4961POPC   C2B63860  38.274   8.231   6.726
 4961POPC   C3B63861  38.038   8.470   7.037
 4961POPC   C4B63862  37.750   8.393   7.374
 4962POPC   NC363863  19.574  44.284   5.165
 4962POPC   PO463864  20.035  44.723   5.331
 4962POPC   GL163865  19.885  44.728   5.758
 4962POPC   GL263866  19.655  44.470   5.673
 4962POPC   C1A63867  19.931  44.659   6.201
 4962POPC   D2A63868  19.966  44.320   6.495
 4962POPC   C3A63869  19.903  44.472   6.909
 4962POPC   C4A63870  19.857  44.809   7.193
 4962POPC   C1B63871  19.575  44.285   6.090
 4962POPC   C2B63872  19.443  44.340   6.521
 4962POPC   C3B63873  19.475  44.177   6.924
 4962POPC   C4B63874  19.491  44.454   7.225
 4963POPC   NC363875  22.433   5.006   5.315
 4963POPC   PO463876  21.893   5.447   5.362
 4963POPC   GL163877  22.038   5.330   5.767
 4963POPC   GL263878  22.151   4.989   5.776
 4963POPC   C1A63879  21.997   5.315   6.220
 4963POPC   D2A63880  22.211   5.221   6.619
 4963POPC   C3A63881  22.003   5.272   7.065
 4963POPC   C4A63882  22.148   5.333   7.529
 4963POPC   C1B63883  22.379   4.959   6.188
 4963POPC   C2B63884  22.496   4.737   6.560
 4963POPC   C3B63885  22.391   4.897   6.981
 4963POPC   C4B63886  22.224   4.837   7.394
 4964POPC   NC363887  23.828  31.183   5.449
 4964POPC   PO463888  24.047  31.812   5.487
 4964POPC   GL163889  23.766  31.579   5.827
 4964POPC   GL263890  23.601  31.218   5.884
 4964POPC   C1A63891  23.658  31.517   6.279
 4964POPC   D2A63892  23.645  31.170   6.562
 4964POPC   C3A63893  23.598  31.306   6.985
 4964POPC   C4A63894  23.667  31.702   7.160
 4964POPC   C1B63895  23.977  31.135   6.124
 4964POPC   C2B63896  24.130  30.995   6.543
 4964POPC   C3B63897  24.190  31.113   6.978
 4964POPC   C4B63898  23.950  31.235   7.351
 4965POPC   NC363899  22.041  31.583   5.350
 4965POPC   PO463900  22.637  31.206   5.387
 4965POPC   GL163901  22.394  31.486   5.733
 4965POPC   GL263902  22.032  31.391   5.829
 4965POPC   C1A63903  22.258  31.716   6.151
 4965POPC   D2A63904  22.345  31.862   6.583
 4965POPC   C3A63905  22.090  31.659   6.931
 4965POPC   C4A63906  21.955  31.629   7.374
 4965POPC   C1B63907  22.247  31.224   6.243
 4965POPC   C2B63908  22.253  31.211   6.726
 4965POPC   C3B63909  22.137  31.163   7.179
 4965POPC   C4B63910  22.140  30.920   7.566
 4966POPC   NC363911  30.212  12.555   5.481
 4966POPC   PO463912  29.770  12.974   5.391
 4966POPC   GL163913  29.852  12.863   5.805
 4966POPC   GL263914  30.198  12.890   5.919
 4966POPC   C1A63915  29.803  12.697   6.204
 4966POPC   D2A63916  29.630  12.822   6.569
 4966POPC   C3A63917  29.889  12.703   6.874
 4966POPC   C4A63918  29.855  12.875   7.251
 4966POPC   C1B63919  30.244  12.849   6.405
 4966POPC   C2B63920  30.403  12.844   6.822
 4966POPC   C3B63921  30.349  12.819   7.264
 4966POPC   C4B63922  30.314  12.981   7.728
 4967POPC   NC363923  38.707  23.102   5.050
 4967POPC   PO463924  38.339  23.456   5.589
 4967POPC   GL163925  38.619  23.598   5.887
 4967POPC   GL263926  38.619  23.928   5.925
 4967POPC   C1A63927  38.625  23.584   6.312
 4967POPC   D2A63928  38.235  23.656   6.601
 4967POPC   C3A63929  38.347  23.693   7.024
 4967POPC   C4A63930  38.518  23.786   7.439
 4967POPC   C1B63931  38.391  24.041   6.271
 4967POPC   C2B63932  38.642  23.973   6.640
 4967POPC   C3B63933  38.744  24.050   7.047
 4967POPC   C4B63934  38.518  24.279   7.325
 4968POPC   NC363935  26.242  20.713   5.341
 4968POPC   PO463936  25.831  20.153   5.475
 4968POPC   GL163937  26.085  20.436   5.754
 4968POPC   GL263938  25.830  20.704   5.828
 4968POPC   C1A63939  26.172  20.617   6.213
 4968POPC   D2A63940  26.095  20.824   6.652
 4968POPC   C3A63941  26.081  20.560   7.047
 4968POPC   C4A63942  25.960  20.632   7.494
 4968POPC   C1B63943  25.772  20.311   6.119
 4968POPC   C2B63944  25.963  20.228   6.510
 4968POPC   C3B63945  25.864  20.124   6.923
 4968POPC   C4B63946  25.856  20.142   7.335
 4969POPC   NC363947  28.963  25.622   5.390
 4969POPC   PO463948  29.147  24.956   5.385
 4969POPC   GL163949  28.964  25.061   5.780
 4969POPC   GL263950  28.756  25.351   5.772
 4969POPC   C1A63951  28.953  25.044   6.239
 4969POPC   D2A63952  29.138  24.950   6.652
 4969POPC   C3A63953  29.327  25.290   6.879
 4969POPC   C4A63954  29.279  25.258   7.279
 4969POPC   C1B63955  28.779  25.576   6.172
 4969POPC   C2B63956  28.952  25.525   6.597
 4969POPC   C3B63957  28.841  25.367   7.015
 4969POPC   C4B63958  28.889  24.938   7.165
 4970POPC   NC363959   5.427   6.882   5.387
 4970POPC   PO463960   4.899   6.553   5.507
 4970POPC   GL163961   5.107   6.679   5.879
 4970POPC   GL263962   5.463   6.762   5.890
 4970POPC   C1A63963   5.163   6.724   6.323
 4970POPC   D2A63964   5.200   6.475   6.685
 4970POPC   C3A63965   5.153   6.750   7.015
 4970POPC   C4A63966   5.245   6.795   7.452
 4970POPC   C1B63967   5.681   6.794   6.296
 4970POPC   C2B63968   5.575   6.881   6.718
 4970POPC   C3B63969   5.632   6.641   7.093
 4970POPC   C4B63970   5.766   6.736   7.525
 4971POPC   NC363971   8.018  16.301   5.385
 4971POPC   PO463972   8.436  15.863   5.329
 4971POPC   GL163973   8.288  16.041   5.742
 4971POPC   GL263974   7.968  15.958   5.801
 4971POPC   C1A63975   8.284  15.846   6.189
 4971POPC   D2A63976   8.302  15.551   6.550
 4971POPC   C3A63977   8.235  15.800   6.958
 4971POPC   C4A63978   8.078  16.222   7.125
 4971POPC   C1B63979   7.779  15.812   6.211
 4971POPC   C2B63980   7.824  15.697   6.645
 4971POPC   C3B63981   7.707  15.923   7.028
 4971POPC   C4B63982   7.770  15.936   7.480
 4972POPC   NC363983  29.100  33.936   5.279
 4972POPC   PO463984  29.050  33.272   5.145
 4972POPC   GL163985  29.100  33.505   5.624
 4972POPC   GL263986  29.149  33.894   5.770
 4972POPC   C1A63987  29.094  33.542   6.115
 4972POPC   D2A63988  29.099  33.358   6.523
 4972POPC   C3A63989  29.136  33.660   6.874
 4972POPC   C4A63990  29.226  33.845   7.238
 4972POPC   C1B63991  29.234  34.113   6.169
 4972POPC   C2B63992  29.328  34.052   6.604
 4972POPC   C3B63993  29.033  34.183   6.890
 4972POPC   C4B63994  29.045  34.359   7.242
 4973POPC   NC363995   4.711   6.998   5.463
 4973POPC   PO463996   3.998   7.034   5.515
 4973POPC   GL163997   4.273   6.804   5.806
 4973POPC   GL263998   4.416   6.507   5.676
 4973POPC   C1A63999   4.171   6.473   6.131
 4973POPC   D2A64000   4.122   6.386   6.578
 4973POPC   C3A64001   4.178   6.581   6.964
 4973POPC   C4A64002   4.305   6.934   7.204
 4973POPC   C1B64003   4.651   6.607   6.114
 4973POPC   C2B64004   4.682   6.595   6.590
 4973POPC   C3B64005   4.678   6.568   7.069
 4973POPC   C4B64006   4.845   6.474   7.488
 4974POPC   NC364007  41.817  43.552   5.370
 4974POPC   PO464008  41.599  44.191   5.409
 4974POPC   GL164009  41.725  44.025   5.782
 4974POPC   GL264010  41.604  43.691   5.869
 4974POPC   C1A64011  41.661  44.126   6.204
 4974POPC   D2A64012  41.565  44.287   6.599
 4974POPC   C3A64013  41.592  44.030   6.965
 4974POPC   C4A64014  41.819  44.080   7.383
 4974POPC   C1B64015  41.543  43.638   6.346
 4974POPC   C2B64016  41.678  43.478   6.770
 4974POPC   C3B64017  41.732  43.585   7.210
 4974POPC   C4B64018  41.405  43.765   7.413
 4975POPC   NC364019  37.298  16.785   5.448
 4975POPC   PO464020  37.933  16.306   5.444
 4975POPC   GL164021  37.767  16.553   5.808
 4975POPC   GL264022  37.626  16.906   5.821
 4975POPC   C1A64023  37.891  16.477   6.254
 4975POPC   D2A64024  38.053  16.754   6.598
 4975POPC   C3A64025  38.106  16.566   6.997
 4975POPC   C4A64026  37.817  16.463   7.320
 4975POPC   C1B64027  37.428  16.711   6.208
 4975POPC   C2B64028  37.340  16.740   6.666
 4975POPC   C3B64029  37.624  16.866   7.007
 4975POPC   C4B64030  37.560  16.854   7.443
 4976POPC   NC364031  36.485   5.218   5.410
 4976POPC   PO464032  36.004   4.801   5.275
 4976POPC   GL164033  36.054   4.988   5.746
 4976POPC   GL264034  36.172   5.331   5.777
 4976POPC   C1A64035  36.293   5.053   6.194
 4976POPC   D2A64036  36.442   4.851   6.610
 4976POPC   C3A64037  36.326   5.024   6.981
 4976POPC   C4A64038  36.382   5.388   7.114
 4976POPC   C1B64039  36.140   5.555   6.142
 4976POPC   C2B64040  36.052   5.405   6.535
 4976POPC   C3B64041  35.870   5.238   6.871
 4976POPC   C4B64042  35.897   5.231   7.279
 4977POPC   NC364043  33.390  21.214   5.400
 4977POPC   PO464044  33.029  21.763   5.193
 4977POPC   GL164045  33.104  21.586   5.657
 4977POPC   GL264046  33.145  21.797   5.928
 4977POPC   C1A64047  33.092  21.327   6.107
 4977POPC   D2A64048  33.315  21.049   6.394
 4977POPC   C3A64049  33.207  21.144   6.846
 4977POPC   C4A64050  33.030  21.062   7.267
 4977POPC   C1B64051  32.753  21.690   6.161
 4977POPC   C2B64052  32.867  21.595   6.595
 4977POPC   C3B64053  32.756  21.727   7.010
 4977POPC   C4B64054  32.962  21.605   7.402
 4978POPC   NC364055  41.943  13.208   5.300
 4978POPC   PO464056  42.488  12.964   5.441
 4978POPC   GL164057  42.145  12.850   5.747
 4978POPC   GL264058  42.232  12.533   5.890
 4978POPC   C1A64059  42.022  12.859   6.214
 4978POPC   D2A64060  42.230  12.871   6.617
 4978POPC   C3A64061  42.261  12.599   6.960
 4978POPC   C4A64062  42.263  12.801   7.341
 4978POPC   C1B64063  42.517  12.678   6.193
 4978POPC   C2B64064  42.617  12.504   6.575
 4978POPC   C3B64065  42.760  12.611   6.960
 4978POPC   C4B64066  42.649  12.475   7.348
 4979POPC   NC364067   7.693  27.828   5.443
 4979POPC   PO464068   8.329  27.487   5.283
 4979POPC   GL164069   8.215  27.733   5.635
 4979POPC   GL264070   8.110  27.473   5.850
 4979POPC   C1A64071   8.389  27.863   6.056
 4979POPC   D2A64072   8.570  27.736   6.460
 4979POPC   C3A64073   8.320  27.781   6.849
 4979POPC   C4A64074   8.185  27.704   7.285
 4979POPC   C1B64075   8.434  27.338   6.173
 4979POPC   C2B64076   8.509  27.265   6.638
 4979POPC   C3B64077   8.260  27.266   7.036
 4979POPC   C4B64078   8.053  27.247   7.479
 4980POPC   NC364079  22.793  31.679   5.405
 4980POPC   PO464080  23.400  31.435   5.461
 4980POPC   GL164081  23.012  31.382   5.762
 4980POPC   GL264082  23.134  31.228   6.059
 4980POPC   C1A64083  22.733  31.512   6.127
 4980POPC   D2A64084  22.878  31.671   6.555
 4980POPC   C3A64085  22.612  31.545   6.899
 4980POPC   C4A64086  22.456  31.550   7.297
 4980POPC   C1B64087  23.213  31.722   6.092
 4980POPC   C2B64088  23.384  31.993   6.433
 4980POPC   C3B64089  23.288  31.932   6.877
 4980POPC   C4B64090  23.083  31.582   7.113
 4981POPC   NC364091   3.917  22.607   5.594
 4981POPC   PO464092   3.728  23.205   5.357
 4981POPC   GL164093   3.670  23.010   5.785
 4981POPC   GL264094   3.435  22.730   5.791
 4981POPC   C1A64095   3.700  22.807   6.203
 4981POPC   D2A64096   3.469  22.808   6.557
 4981POPC   C3A64097   3.699  22.880   6.951
 4981POPC   C4A64098   3.550  22.872   7.372
 4981POPC   C1B64099   3.265  22.498   6.190
 4981POPC   C2B64100   3.348  22.326   6.611
 4981POPC   C3B64101   3.301  22.574   6.989
 4981POPC   C4B64102   3.156  22.549   7.403
 4982POPC   NC364103  17.388  44.507   5.628
 4982POPC   PO464104  17.174   0.119   5.478
 4982POPC   GL164105  17.392   0.006   5.862
 4982POPC   GL264106  17.743  44.875   5.789
 4982POPC   C1A64107  17.358  44.743   6.252
 4982POPC   D2A64108  17.376  44.486   6.624
 4982POPC   C3A64109  17.263  44.736   6.965
 4982POPC   C4A64110  17.493  44.742   7.332
 4982POPC   C1B64111  18.003  44.711   6.117
 4982POPC   C2B64112  17.829  44.695   6.528
 4982POPC   C3B64113  17.822  44.829   6.922
 4982POPC   C4B64114  18.010  44.719   7.278
 4983POPC   NC364115   0.202   5.961   5.328
 4983POPC   PO464116   0.825   5.694   5.362
 4983POPC   GL164117   0.469   5.860   5.761
 4983POPC   GL264118   0.068   5.975   5.806
 4983POPC   C1A64119   0.346   5.967   6.232
 4983POPC   D2A64120   0.445   5.771   6.622
 4983POPC   C3A64121   0.405   5.910   7.043
 4983POPC   C4A64122   0.568   5.562   7.280
 4983POPC   C1B64123  44.916   5.699   6.142
 4983POPC   C2B64124  44.928   5.792   6.603
 4983POPC   C3B64125  44.967   5.648   7.040
 4983POPC   C4B64126  44.949   5.601   7.488
 4984POPC   NC364127   6.913  35.184   5.338
 4984POPC   PO464128   6.486  35.614   5.308
 4984POPC   GL164129   6.730  35.534   5.731
 4984POPC   GL264130   6.432  35.528   5.892
 4984POPC   C1A64131   6.769  35.264   6.194
 4984POPC   D2A64132   6.477  35.217   6.628
 4984POPC   C3A64133   6.530  35.200   7.128
 4984POPC   C4A64134   6.656  35.198   7.584
 4984POPC   C1B64135   6.626  35.735   6.235
 4984POPC   C2B64136   6.765  35.655   6.631
 4984POPC   C3B64137   6.591  35.702   7.016
 4984POPC   C4B64138   6.611  35.689   7.448
 4985POPC   NC364139  34.696  40.787   5.396
 4985POPC   PO464140  33.969  40.789   5.460
 4985POPC   GL164141  34.218  40.657   5.811
 4985POPC   GL264142  34.424  40.918   5.797
 4985POPC   C1A64143  34.335  40.608   6.271
 4985POPC   D2A64144  34.575  40.494   6.681
 4985POPC   C3A64145  34.520  40.613   7.154
 4985POPC   C4A64146  34.603  40.652   7.647
 4985POPC   C1B64147  34.638  41.030   6.173
 4985POPC   C2B64148  34.470  40.992   6.594
 4985POPC   C3B64149  34.359  41.216   6.948
 4985POPC   C4B64150  34.439  41.097   7.380
 4986POPC   NC364151  37.846  32.497   5.096
 4986POPC   PO464152  37.295  32.161   5.393
 4986POPC   GL164153  37.469  32.382   5.731
 4986POPC   GL264154  37.849  32.443   5.799
 4986POPC   C1A64155  37.481  32.432   6.171
 4986POPC   D2A64156  37.785  32.295   6.470
 4986POPC   C3A64157  37.712  32.002   6.805
 4986POPC   C4A64158  37.845  32.213   7.182
 4986POPC   C1B64159  37.999  32.687   6.201
 4986POPC   C2B64160  38.068  32.703   6.687
 4986POPC   C3B64161  37.879  32.742   7.139
 4986POPC   C4B64162  37.713  32.563   7.552
 4987POPC   NC364163  21.929  44.474   5.302
 4987POPC   PO464164  22.548  44.584   5.517
 4987POPC   GL164165  22.191  44.707   5.784
 4987POPC   GL264166  21.904  44.483   5.820
 4987POPC   C1A64167  22.123  44.795   6.216
 4987POPC   D2A64168  22.308  44.695   6.618
 4987POPC   C3A64169  22.119  44.746   7.039
 4987POPC   C4A64170  22.075  44.461   7.401
 4987POPC   C1B64171  21.864  44.353   6.237
 4987POPC   C2B64172  21.830  44.557   6.615
 4987POPC   C3B64173  21.755  44.390   7.005
 4987POPC   C4B64174  21.640  44.688   7.312
 4988POPC   NC364175  24.518  29.794   5.136
 4988POPC   PO464176  24.692  30.314   5.560
 4988POPC   GL164177  24.645  30.049   5.840
 4988POPC   GL264178  24.756  29.763   5.602
 4988POPC   C1A64179  24.425  30.073   6.251
 4988POPC   D2A64180  24.508  30.012   6.692
 4988POPC   C3A64181  24.330  30.084   7.077
 4988POPC   C4A64182  24.669  30.369   7.141
 4988POPC   C1B64183  24.574  29.582   5.999
 4988POPC   C2B64184  24.458  29.561   6.422
 4988POPC   C3B64185  24.301  29.569   6.846
 4988POPC   C4B64186  24.663  29.685   7.077
 4989POPC   NC364187   7.559  16.995   5.299
 4989POPC   PO464188   7.069  16.812   5.626
 4989POPC   GL164189   7.401  16.974   5.803
 4989POPC   GL264190   7.429  16.709   6.035
 4989POPC   C1A64191   7.554  17.174   6.154
 4989POPC   D2A64192   7.466  17.213   6.560
 4989POPC   C3A64193   7.512  16.894   6.855
 4989POPC   C4A64194   7.402  16.852   7.281
 4989POPC   C1B64195   7.078  16.520   6.233
 4989POPC   C2B64196   7.222  16.418   6.612
 4989POPC   C3B64197   7.112  16.558   7.008
 4989POPC   C4B64198   7.035  16.362   7.398
 4990POPC   NC364199  17.642   0.258   5.446
 4990POPC   PO464200  17.417   0.887   5.398
 4990POPC   GL164201  17.439   0.548   5.797
 4990POPC   GL264202  17.762   0.395   5.916
 4990POPC   C1A64203  17.315   0.462   6.223
 4990POPC   D2A64204  17.519   0.616   6.614
 4990POPC   C3A64205  17.287   0.644   6.987
 4990POPC   C4A64206  17.014   0.314   7.106
 4990POPC   C1B64207  17.699   0.124   6.264
 4990POPC   C2B64208  17.447   0.091   6.639
 4990POPC   C3B64209  17.503   0.192   7.079
 4990POPC   C4B64210  17.838   0.180   7.356
 4991POPC   NC364211  34.797   6.442   5.425
 4991POPC   PO464212  34.594   7.083   5.133
 4991POPC   GL164213  34.543   6.855   5.639
 4991POPC   GL264214  34.373   6.521   5.701
 4991POPC   C1A64215  34.691   6.632   6.089
 4991POPC   D2A64216  34.839   6.878   6.480
 4991POPC   C3A64217  34.606   6.992   6.846
 4991POPC   C4A64218  34.640   6.789   7.227
 4991POPC   C1B64219  34.354   6.238   6.059
 4991POPC   C2B64220  34.291   6.369   6.470
 4991POPC   C3B64221  34.488   6.483   6.840
 4991POPC   C4B64222  34.425   6.331   7.245
 4992POPC   NC364223  25.457  29.257   5.306
 4992POPC   PO464224  25.128  28.840   5.525
 4992POPC   GL164225  25.447  28.924   5.769
 4992POPC   GL264226  25.371  29.275   5.814
 4992POPC   C1A64227  25.367  28.966   6.204
 4992POPC   D2A64228  25.536  29.197   6.512
 4992POPC   C3A64229  25.387  29.003   6.872
 4992POPC   C4A64230  25.350  28.847   7.260
 4992POPC   C1B64231  25.534  29.584   6.106
 4992POPC   C2B64232  25.608  29.712   6.528
 4992POPC   C3B64233  25.515  29.510   6.927
 4992POPC   C4B64234  25.624  29.599   7.324
 4993POPC   NC364235  29.556   6.818   5.424
 4993POPC   PO464236  28.906   6.809   5.484
 4993POPC   GL164237  29.214   6.674   5.774
 4993POPC   GL264238  29.270   7.020   5.857
 4993POPC   C1A64239  29.214   6.455   6.173
 4993POPC   D2A64240  29.380   6.472   6.593
 4993POPC   C3A64241  29.131   6.467   6.981
 4993POPC   C4A64242  29.495   6.552   7.260
 4993POPC   C1B64243  28.921   6.865   6.141
 4993POPC   C2B64244  29.081   6.893   6.542
 4993POPC   C3B64245  29.333   6.922   6.888
 4993POPC   C4B64246  29.192   6.947   7.310
 4994POPC   NC364247  42.166  27.217   5.007
 4994POPC   PO464248  42.035  26.779   5.489
 4994POPC   GL164249  42.205  26.780   5.855
 4994POPC   GL264250  42.444  27.040   5.764
 4994POPC   C1A64251  42.145  26.855   6.289
 4994POPC   D2A64252  42.270  26.922   6.717
 4994POPC   C3A64253  42.008  26.894   7.036
 4994POPC   C4A64254  42.044  26.480   7.167
 4994POPC   C1B64255  42.691  26.797   6.041
 4994POPC   C2B64256  42.765  26.591   6.439
 4994POPC   C3B64257  42.745  26.724   6.847
 4994POPC   C4B64258  42.481  26.759   7.179
 4995POPC   NC364259   9.624  13.090   5.233
 4995POPC   PO464260  10.044  12.678   5.409
 4995POPC   GL164261   9.831  12.959   5.710
 4995POPC   GL264262   9.495  13.136   5.732
 4995POPC   C1A64263   9.814  12.930   6.162
 4995POPC   D2A64264   9.432  12.878   6.426
 4995POPC   C3A64265   9.530  12.799   6.854
 4995POPC   C4A64266   9.768  12.625   7.217
 4995POPC   C1B64267   9.504  13.326   6.157
 4995POPC   C2B64268   9.706  13.278   6.580
 4995POPC   C3B64269   9.515  13.302   6.977
 4995POPC   C4B64270   9.635  13.147   7.375
 4996POPC   NC364271  25.452  17.896   5.618
 4996POPC   PO464272  24.944  17.498   5.320
 4996POPC   GL164273  25.082  17.507   5.814
 4996POPC   GL264274  25.448  17.511   5.953
 4996POPC   C1A64275  25.146  17.483   6.322
 4996POPC   D2A64276  25.350  17.400   6.725
 4996POPC   C3A64277  25.321  17.642   7.101
 4996POPC   C4A64278  25.070  17.703   7.511
 4996POPC   C1B64279  25.645  17.224   6.262
 4996POPC   C2B64280  25.771  17.081   6.687
 4996POPC   C3B64281  25.582  17.111   7.110
 4996POPC   C4B64282  25.358  17.288   7.469
 4997POPC   NC364283  10.707  36.510   5.229
 4997POPC   PO464284  10.250  36.873   5.575
 4997POPC   GL164285  10.563  36.683   5.823
 4997POPC   GL264286  10.767  36.988   5.749
 4997POPC   C1A64287  10.595  36.580   6.286
 4997POPC   D2A64288  10.370  36.810   6.632
 4997POPC   C3A64289  10.428  36.688   7.084
 4997POPC   C4A64290  10.484  36.770   7.559
 4997POPC   C1B64291  10.678  37.087   6.197
 4997POPC   C2B64292  10.909  36.943   6.580
 4997POPC   C3B64293  10.934  36.884   7.031
 4997POPC   C4B64294  10.799  37.119   7.396
 4998POPC   NC364295  23.529  31.923   5.450
 4998POPC   PO464296  23.815  32.590   5.438
 4998POPC   GL164297  23.573  32.448   5.833
 4998POPC   GL264298  23.582  32.071   5.932
 4998POPC   C1A64299  23.691  32.419   6.286
 4998POPC   D2A64300  24.054  32.513   6.539
 4998POPC   C3A64301  23.887  32.538   6.960
 4998POPC   C4A64302  23.545  32.279   7.155
 4998POPC   C1B64303  23.887  31.963   6.274
 4998POPC   C2B64304  23.846  32.024   6.753
 4998POPC   C3B64305  23.996  32.066   7.202
 4998POPC   C4B64306  23.777  31.964   7.616
 4999POPC   NC364307  39.416  20.519   5.312
 4999POPC   PO464308  39.059  20.486   5.854
 4999POPC   GL164309  39.170  20.670   6.169
 4999POPC   GL264310  39.298  20.971   5.948
 4999POPC   C1A64311  38.918  20.481   6.487
 4999POPC   D2A64312  39.195  20.322   6.697
 4999POPC   C3A64313  39.201  20.570   7.034
 4999POPC   C4A64314  39.007  20.530   7.429
 4999POPC   C1B64315  39.292  21.116   6.356
 4999POPC   C2B64316  39.419  20.827   6.611
 4999POPC   C3B64317  39.559  20.951   6.980
 4999POPC   C4B64318  39.382  20.878   7.385
 5000POPC   NC364319  27.175  29.255   5.396
 5000POPC   PO464320  26.555  28.855   5.287
 5000POPC   GL164321  26.724  29.000   5.658
 5000POPC   GL264322  26.707  29.341   5.668
 5000POPC   C1A64323  26.804  28.902   6.096
 5000POPC   D2A64324  26.721  29.135   6.479
 5000POPC   C3A64325  26.955  29.057   6.831
 5000POPC   C4A64326  26.840  28.845   7.200
 5000POPC   C1B64327  27.029  29.355   6.041
 5000POPC   C2B64328  27.138  29.430   6.483
 5000POPC   C3B64329  27.060  29.558   6.907
 5000POPC   C4B64330  26.803  29.391   7.199
 5001POPC   NC364331  12.478  16.050   5.401
 5001POPC   PO464332  11.916  15.744   5.480
 5001POPC   GL164333  11.856  15.931   5.842
 5001POPC   GL264334  12.199  16.031   5.822
 5001POPC   C1A64335  12.004  15.879   6.272
 5001POPC   D2A64336  12.084  15.921   6.687
 5001POPC   C3A64337  12.344  15.619   6.853
 5001POPC   C4A64338  12.077  15.691   7.188
 5001POPC   C1B64339  12.435  16.156   6.152
 5001POPC   C2B64340  12.558  16.118   6.557
 5001POPC   C3B64341  12.370  16.334   6.880
 5001POPC   C4B64342  12.115  16.198   7.209
 5002POPC   NC364343  40.770  32.644   5.093
 5002POPC   PO464344  40.724  33.244   5.392
 5002POPC   GL164345  40.814  32.982   5.781
 5002POPC   GL264346  40.533  32.736   5.881
 5002POPC   C1A64347  40.961  33.027   6.243
 5002POPC   D2A64348  40.763  33.124   6.668
 5002POPC   C3A64349  40.953  33.396   6.988
 5002POPC   C4A64350  41.034  33.341   7.433
 5002POPC   C1B64351  40.602  32.657   6.346
 5002POPC   C2B64352  40.972  32.639   6.639
 5002POPC   C3B64353  40.879  32.789   7.070
 5002POPC   C4B64354  40.473  32.853   7.282
 5003POPC   NC364355  39.146   6.156   5.467
 5003POPC   PO464356  39.360   5.422   5.477
 5003POPC   GL164357  39.223   5.741   5.776
 5003POPC   GL264358  39.476   6.013   5.875
 5003POPC   C1A64359  39.036   5.953   6.144
 5003POPC   D2A64360  39.260   6.091   6.517
 5003POPC   C3A64361  39.051   6.199   6.903
 5003POPC   C4A64362  39.211   5.979   7.186
 5003POPC   C1B64363  39.490   5.697   6.241
 5003POPC   C2B64364  39.553   5.594   6.699
 5003POPC   C3B64365  39.544   5.574   7.172
 5003POPC   C4B64366  39.534   5.522   7.661
 5004POPC   NC364367  35.375   8.151   5.368
 5004POPC   PO464368  35.093   8.656   5.600
 5004POPC   GL164369  35.470   8.457   5.769
 5004POPC   GL264370  35.439   8.042   5.854
 5004POPC   C1A64371  35.461   8.385   6.202
 5004POPC   D2A64372  35.558   8.085   6.473
 5004POPC   C3A64373  35.389   8.194   6.860
 5004POPC   C4A64374  35.536   8.480   7.147
 5004POPC   C1B64375  35.112   7.937   6.208
 5004POPC   C2B64376  34.969   7.948   6.666
 5004POPC   C3B64377  34.953   7.785   7.110
 5004POPC   C4B64378  35.033   7.753   7.595
 5005POPC   NC364379   0.067  43.855   5.295
 5005POPC   PO464380   0.541  44.318   5.323
 5005POPC   GL164381   0.482  44.023   5.680
 5005POPC   GL264382   0.149  44.125   5.791
 5005POPC   C1A64383   0.648  43.793   6.094
 5005POPC   D2A64384   0.800  43.954   6.513
 5005POPC   C3A64385   0.871  43.829   6.954
 5005POPC   C4A64386   0.535  43.799   7.265
 5005POPC   C1B64387   0.121  43.821   6.126
 5005POPC   C2B64388  44.969  43.733   6.537
 5005POPC   C3B64389   0.154  43.887   6.921
 5005POPC   C4B64390   0.154  44.261   7.210
 5006POPC   NC364391  17.042  13.537   5.449
 5006POPC   PO464392  16.493  13.274   5.178
 5006POPC   GL164393  16.609  13.571   5.719
 5006POPC   GL264394  16.935  13.377   5.905
 5006POPC   C1A64395  16.561  13.357   6.234
 5006POPC   D2A64396  16.871  13.377   6.572
 5006POPC   C3A64397  16.714  13.256   6.980
 5006POPC   C4A64398  16.814  13.547   7.334
 5006POPC   C1B64399  16.858  13.735   6.139
 5006POPC   C2B64400  16.565  13.790   6.511
 5006POPC   C3B64401  16.672  13.806   6.925
 5006POPC   C4B64402  16.990  14.027   7.197
 5007POPC   NC364403  44.307  16.028   5.425
 5007POPC   PO464404  44.671  15.564   5.488
 5007POPC   GL164405  44.858  15.744   5.834
 5007POPC   GL264406  44.569  15.976   5.874
 5007POPC   C1A64407  44.821  15.629   6.260
 5007POPC   D2A64408  44.678  15.802   6.639
 5007POPC   C3A64409  44.672  15.619   7.016
 5007POPC   C4A64410  44.352  15.686   7.304
 5007POPC   C1B64411  44.686  16.165   6.260
 5007POPC   C2B64412  44.552  16.328   6.672
 5007POPC   C3B64413  44.684  16.140   7.089
 5007POPC   C4B64414  44.951  16.248   7.458
 5008POPC   NC364415  36.387  21.596   5.413
 5008POPC   PO464416  35.832  21.304   5.661
 5008POPC   GL164417  36.213  21.377   5.844
 5008POPC   GL264418  36.121  21.731   5.834
 5008POPC   C1A64419  36.279  21.488   6.264
 5008POPC   D2A64420  36.156  21.291   6.632
 5008POPC   C3A64421  36.036  21.565   6.929
 5008POPC   C4A64422  36.102  21.365   7.301
 5008POPC   C1B64423  36.485  21.918   6.045
 5008POPC   C2B64424  36.544  21.888   6.478
 5008POPC   C3B64425  36.329  21.993   6.846
 5008POPC   C4B64426  36.311  21.819   7.270
 5009POPC   NC364427  35.563   0.981   5.337
 5009POPC   PO464428  35.348   1.632   5.158
 5009POPC   GL164429  35.438   1.455   5.633
 5009POPC   GL264430  35.636   1.148   5.795
 5009POPC   C1A64431  35.312   1.418   6.102
 5009POPC   D2A64432  35.034   1.413   6.485
 5009POPC   C3A64433  35.209   1.431   6.915
 5009POPC   C4A64434  35.411   1.381   7.297
 5009POPC   C1B64435  35.811   1.084   6.198
 5009POPC   C2B64436  35.561   1.227   6.543
 5009POPC   C3B64437  35.574   1.038   6.957
 5009POPC   C4B64438  35.832   1.016   7.334
 5010POPC   NC364439  34.883  18.488   5.576
 5010POPC   PO464440  34.402  18.040   5.389
 5010POPC   GL164441  34.625  18.082   5.766
 5010POPC   GL264442  34.417  18.373   5.808
 5010POPC   C1A64443  34.789  18.270   6.179
 5010POPC   D2A64444  34.726  18.164   6.591
 5010POPC   C3A64445  34.679  18.313   6.983
 5010POPC   C4A64446  34.646  18.062   7.339
 5010POPC   C1B64447  34.273  18.228   6.200
 5010POPC   C2B64448  34.245  18.343   6.620
 5010POPC   C3B64449  34.244  18.071   6.972
 5010POPC   C4B64450  34.191  18.352   7.279
 5011POPC   NC364451  29.263   8.939   5.238
 5011POPC   PO464452  28.888   8.434   5.307
 5011POPC   GL164453  29.022   8.718   5.704
 5011POPC   GL264454  29.009   9.062   5.711
 5011POPC   C1A64455  29.283   8.799   6.132
 5011POPC   D2A64456  29.466   8.578   6.501
 5011POPC   C3A64457  29.316   8.675   6.910
 5011POPC   C4A64458  28.997   8.779   7.192
 5011POPC   C1B64459  29.017   9.225   6.133
 5011POPC   C2B64460  29.129   9.064   6.571
 5011POPC   C3B64461  29.110   9.245   7.007
 5011POPC   C4B64462  28.790   9.494   7.259
 5012POPC   NC364463  39.888  21.938   5.273
 5012POPC   PO464464  40.151  22.578   5.205
 5012POPC   GL164465  40.074  22.344   5.651
 5012POPC   GL264466  39.858  22.063   5.771
 5012POPC   C1A64467  40.054  22.354   6.148
 5012POPC   D2A64468  40.110  22.454   6.618
 5012POPC   C3A64469  40.047  22.196   7.021
 5012POPC   C4A64470  40.119  21.764   7.195
 5012POPC   C1B64471  39.744  21.932   6.196
 5012POPC   C2B64472  39.676  22.085   6.626
 5012POPC   C3B64473  39.604  21.937   7.055
 5012POPC   C4B64474  39.621  22.176   7.454
 5013POPC   NC364475  40.719   0.807   5.640
 5013POPC   PO464476  41.055   0.284   5.318
 5013POPC   GL164477  40.905   0.295   5.752
 5013POPC   GL264478  40.532   0.270   5.739
 5013POPC   C1A64479  40.808   0.424   6.198
 5013POPC   D2A64480  40.564   0.341   6.581
 5013POPC   C3A64481  40.759   0.419   6.978
 5013POPC   C4A64482  40.823   0.811   7.206
 5013POPC   C1B64483  40.312   0.175   6.144
 5013POPC   C2B64484  40.152   0.042   6.579
 5013POPC   C3B64485  40.286   0.148   7.033
 5013POPC   C4B64486  40.549   0.250   7.428
 5014POPC   NC364487  22.996   5.749   5.475
 5014POPC   PO464488  23.092   6.360   5.489
 5014POPC   GL164489  23.025   6.052   5.895
 5014POPC   GL264490  22.820   5.727   5.948
 5014POPC   C1A64491  23.037   5.897   6.346
 5014POPC   D2A64492  23.079   5.566   6.617
 5014POPC   C3A64493  22.931   5.748   6.960
 5014POPC   C4A64494  23.069   5.910   7.334
 5014POPC   C1B64495  22.528   5.489   6.176
 5014POPC   C2B64496  22.551   5.628   6.588
 5014POPC   C3B64497  22.460   5.479   6.983
 5014POPC   C4B64498  22.593   5.678   7.331
 5015POPC   NC364499  22.036  25.701   5.444
 5015POPC   PO464500  22.415  25.118   5.474
 5015POPC   GL164501  22.083  25.203   5.750
 5015POPC   GL264502  22.246  25.421   5.927
 5015POPC   C1A64503  21.969  25.046   6.213
 5015POPC   D2A64504  21.727  24.956   6.634
 5015POPC   C3A64505  21.920  25.120   7.020
 5015POPC   C4A64506  21.828  25.136   7.467
 5015POPC   C1B64507  22.466  25.165   6.256
 5015POPC   C2B64508  22.659  25.329   6.620
 5015POPC   C3B64509  22.467  25.257   6.998
 5015POPC   C4B64510  22.273  25.402   7.381
 5016POPC   NC364511  27.748  23.955   5.365
 5016POPC   PO464512  27.318  23.423   5.400
 5016POPC   GL164513  27.437  23.727   5.714
 5016POPC   GL264514  27.800  23.614   5.764
 5016POPC   C1A64515  27.516  23.765   6.156
 5016POPC   D2A64516  27.549  23.439   6.483
 5016POPC   C3A64517  27.621  23.579   6.914
 5016POPC   C4A64518  27.595  23.458   7.351
 5016POPC   C1B64519  28.036  23.860   6.074
 5016POPC   C2B64520  27.898  23.981   6.484
 5016POPC   C3B64521  28.046  23.958   6.884
 5016POPC   C4B64522  27.788  23.947   7.219
 5017POPC   NC364523   0.645  32.362   5.218
 5017POPC   PO464524   0.268  31.861   5.362
 5017POPC   GL164525   0.541  32.109   5.676
 5017POPC   GL264526   0.374  31.999   5.990
 5017POPC   C1A64527   0.747  32.317   6.063
 5017POPC   D2A64528   0.571  32.274   6.478
 5017POPC   C3A64529   0.490  32.393   6.879
 5017POPC   C4A64530   0.465  32.140   7.256
 5017POPC   C1B64531   0.120  32.311   6.237
 5017POPC   C2B64532  44.990  32.318   6.690
 5017POPC   C3B64533   0.035  32.400   7.109
 5017POPC   C4B64534  44.937  32.184   7.475
 5018POPC   NC364535  10.663  31.017   5.425
 5018POPC   PO464536  10.361  30.395   5.478
 5018POPC   GL164537  10.576  30.558   5.833
 5018POPC   GL264538  10.404  30.882   5.892
 5018POPC   C1A64539  10.610  30.597   6.303
 5018POPC   D2A64540  10.443  30.971   6.518
 5018POPC   C3A64541  10.342  30.930   6.952
 5018POPC   C4A64542  10.571  30.629   7.175
 5018POPC   C1B64543  10.803  31.005   6.075
 5018POPC   C2B64544  10.991  30.915   6.473
 5018POPC   C3B64545  11.100  31.133   6.829
 5018POPC   C4B64546  10.818  31.097   7.191
 5019POPC   NC364547  27.355   4.622   5.431
 5019POPC   PO464548  27.560   5.247   5.340
 5019POPC   GL164549  27.545   5.045   5.749
 5019POPC   GL264550  27.735   4.794   5.812
 5019POPC   C1A64551  27.449   4.947   6.207
 5019POPC   D2A64552  27.236   5.140   6.570
 5019POPC   C3A64553  27.452   5.078   6.947
 5019POPC   C4A64554  27.446   5.384   7.237
 5019POPC   C1B64555  27.927   5.115   6.117
 5019POPC   C2B64556  27.749   5.248   6.535
 5019POPC   C3B64557  27.916   5.337   6.953
 5019POPC   C4B64558  28.093   4.993   7.179
 5020POPC   NC364559  23.878  22.584   5.621
 5020POPC   PO464560  23.499  23.136   5.422
 5020POPC   GL164561  23.675  23.035   5.841
 5020POPC   GL264562  24.029  22.999   5.874
 5020POPC   C1A64563  23.738  22.934   6.286
 5020POPC   D2A64564  23.673  22.673   6.614
 5020POPC   C3A64565  23.498  22.861   6.943
 5020POPC   C4A64566  23.584  22.856   7.347
 5020POPC   C1B64567  24.259  22.831   6.232
 5020POPC   C2B64568  24.159  22.847   6.676
 5020POPC   C3B64569  23.973  22.616   7.050
 5020POPC   C4B64570  24.037  22.621   7.489
 5021POPC   NC364571  33.672  37.167   5.521
 5021POPC   PO464572  33.498  36.574   5.662
 5021POPC   GL164573  33.779  36.841   5.920
 5021POPC   GL264574  34.135  36.711   5.976
 5021POPC   C1A64575  33.858  37.170   6.233
 5021POPC   D2A64576  33.990  37.341   6.628
 5021POPC   C3A64577  33.849  37.200   7.056
 5021POPC   C4A64578  33.755  36.969   7.457
 5021POPC   C1B64579  34.168  36.803   6.388
 5021POPC   C2B64580  33.849  36.848   6.678
 5021POPC   C3B64581  33.886  36.683   7.066
 5021POPC   C4B64582  33.598  36.466   7.347
 5022POPC   NC364583  17.225  35.516   5.268
 5022POPC   PO464584  17.839  35.293   5.231
 5022POPC   GL164585  17.742  35.288   5.712
 5022POPC   GL264586  17.452  35.481   5.788
 5022POPC   C1A64587  17.671  35.027   6.119
 5022POPC   D2A64588  17.410  34.954   6.518
 5022POPC   C3A64589  17.567  35.128   6.895
 5022POPC   C4A64590  17.885  35.124   7.169
 5022POPC   C1B64591  17.272  35.336   6.181
 5022POPC   C2B64592  17.273  35.461   6.604
 5022POPC   C3B64593  17.202  35.467   7.011
 5022POPC   C4B64594  17.133  35.055   7.170
 5023POPC   NC364595  11.532  31.394   5.447
 5023POPC   PO464596  10.891  31.423   5.375
 5023POPC   GL164597  11.093  31.336   5.776
 5023POPC   GL264598  11.299  31.648   5.844
 5023POPC   C1A64599  11.170  31.331   6.240
 5023POPC   D2A64600  11.192  31.657   6.595
 5023POPC   C3A64601  11.003  31.598   7.021
 5023POPC   C4A64602  11.160  31.461   7.423
 5023POPC   C1B64603  11.577  31.610   6.227
 5023POPC   C2B64604  11.582  31.328   6.602
 5023POPC   C3B64605  11.497  31.430   7.025
 5023POPC   C4B64606  11.581  31.751   7.326
 5024POPC   NC364607  32.941  13.923   5.123
 5024POPC   PO464608  32.815  14.591   5.395
 5024POPC   GL164609  32.744  14.476   5.817
 5024POPC   GL264610  32.804  14.136   5.725
 5024POPC   C1A64611  32.835  14.589   6.265
 5024POPC   D2A64612  33.114  14.580   6.644
 5024POPC   C3A64613  32.925  14.608   7.054
 5024POPC   C4A64614  32.480  14.667   7.181
 5024POPC   C1B64615  33.092  14.137   6.123
 5024POPC   C2B64616  33.041  14.086   6.572
 5024POPC   C3B64617  33.249  14.198   6.971
 5024POPC   C4B64618  33.178  14.187   7.381
 5025POPC   NC364619  16.144  31.483   4.977
 5025POPC   PO464620  15.805  31.123   5.375
 5025POPC   GL164621  15.994  31.449   5.633
 5025POPC   GL264622  16.086  31.157   5.856
 5025POPC   C1A64623  16.165  31.601   6.041
 5025POPC   D2A64624  16.370  31.252   6.292
 5025POPC   C3A64625  16.413  31.174   6.736
 5025POPC   C4A64626  16.219  31.410   7.058
 5025POPC   C1B64627  15.850  31.293   6.285
 5025POPC   C2B64628  15.742  31.267   6.747
 5025POPC   C3B64629  15.745  31.574   7.100
 5025POPC   C4B64630  15.435  31.829   7.266
 5026POPC   NC364631  19.749   5.752   5.371
 5026POPC   PO464632  20.393   5.840   5.231
 5026POPC   GL164633  20.126   5.891   5.718
 5026POPC   GL264634  19.730   5.836   5.858
 5026POPC   C1A64635  20.051   5.882   6.225
 5026POPC   D2A64636  20.106   5.890   6.695
 5026POPC   C3A64637  19.842   5.865   7.030
 5026POPC   C4A64638  20.068   5.831   7.390
 5026POPC   C1B64639  19.542   5.495   6.121
 5026POPC   C2B64640  19.367   5.409   6.540
 5026POPC   C3B64641  19.482   5.488   6.983
 5026POPC   C4B64642  19.474   5.700   7.410
 5027POPC   NC364643  34.725  43.478   5.422
 5027POPC   PO464644  34.461  43.041   4.950
 5027POPC   GL164645  34.528  42.999   5.476
 5027POPC   GL264646  34.300  42.865   5.724
 5027POPC   C1A64647  34.731  43.048   5.964
 5027POPC   D2A64648  34.785  43.351   6.362
 5027POPC   C3A64649  34.762  43.183   6.819
 5027POPC   C4A64650  34.645  43.098   7.256
 5027POPC   C1B64651  34.197  42.960   6.196
 5027POPC   C2B64652  34.306  43.193   6.547
 5027POPC   C3B64653  34.243  43.040   6.954
 5027POPC   C4B64654  34.130  43.165   7.369
 5028POPC   NC364655  33.194  35.503   5.440
 5028POPC   PO464656  32.759  35.124   5.176
 5028POPC   GL164657  32.841  35.167   5.665
 5028POPC   GL264658  32.924  35.478   5.859
 5028POPC   C1A64659  32.629  35.151   6.090
 5028POPC   D2A64660  32.727  35.087   6.533
 5028POPC   C3A64661  33.050  35.301   6.794
 5028POPC   C4A64662  32.898  35.310   7.218
 5028POPC   C1B64663  33.120  35.488   6.270
 5028POPC   C2B64664  33.139  35.793   6.640
 5028POPC   C3B64665  33.033  35.769   7.073
 5028POPC   C4B64666  33.234  35.591   7.471
 5029POPC   NC364667  29.037  27.278   5.699
 5029POPC   PO464668  29.341  26.768   5.381
 5029POPC   GL164669  29.394  26.896   5.815
 5029POPC   GL264670  29.099  26.822   5.889
 5029POPC   C1A64671  29.398  26.965   6.278
 5029POPC   D2A64672  29.115  26.985   6.634
 5029POPC   C3A64673  29.322  27.151   6.957
 5029POPC   C4A64674  29.382  26.860   7.220
 5029POPC   C1B64675  28.924  26.676   6.277
 5029POPC   C2B64676  28.846  26.504   6.687
 5029POPC   C3B64677  28.930  26.655   7.103
 5029POPC   C4B64678  28.810  26.455   7.471
 5030POPC   NC364679   3.954  25.269   5.531
 5030POPC   PO464680   3.302  25.019   5.431
 5030POPC   GL164681   3.380  25.103   5.834
 5030POPC   GL264682   3.363  25.441   5.792
 5030POPC   C1A64683   3.569  25.209   6.233
 5030POPC   D2A64684   3.724  25.405   6.628
 5030POPC   C3A64685   3.752  25.191   7.051
 5030POPC   C4A64686   3.962  25.230   7.467
 5030POPC   C1B64687   3.156  25.508   6.209
 5030POPC   C2B64688   3.221  25.494   6.639
 5030POPC   C3B64689   3.442  25.612   6.999
 5030POPC   C4B64690   3.573  25.556   7.408
 5031POPC   NC364691  20.458  44.875   5.248
 5031POPC   PO464692  20.775  44.264   5.348
 5031POPC   GL164693  20.738  44.540   5.673
 5031POPC   GL264694  20.398  44.596   5.688
 5031POPC   C1A64695  20.849  44.548   6.113
 5031POPC   D2A64696  20.912  44.347   6.520
 5031POPC   C3A64697  20.761  44.537   6.920
 5031POPC   C4A64698  20.849  44.670   7.362
 5031POPC   C1B64699  20.418  44.805   6.078
 5031POPC   C2B64700  20.428  44.645   6.475
 5031POPC   C3B64701  20.269  44.838   6.823
 5031POPC   C4B64702  20.354  44.699   7.214
 5032POPC   NC364703  37.391  40.195   5.527
 5032POPC   PO464704  38.014  39.847   5.583
 5032POPC   GL164705  37.787  40.073   5.898
 5032POPC   GL264706  37.430  39.939   5.945
 5032POPC   C1A64707  37.690  40.120   6.343
 5032POPC   D2A64708  37.566  40.317   6.756
 5032POPC   C3A64709  37.697  40.113   7.098
 5032POPC   C4A64710  38.027  39.967   7.317
 5032POPC   C1B64711  37.406  39.663   6.292
 5032POPC   C2B64712  37.552  39.784   6.699
 5032POPC   C3B64713  37.430  39.665   7.088
 5032POPC   C4B64714  37.271  39.628   7.486
 5033POPC   NC364715  28.121  21.591   5.626
 5033POPC   PO464716  28.515  21.211   5.248
 5033POPC   GL164717  28.508  21.262   5.721
 5033POPC   GL264718  28.179  21.128   5.841
 5033POPC   C1A64719  28.431  21.442   6.178
 5033POPC   D2A64720  28.608  21.527   6.586
 5033POPC   C3A64721  28.381  21.528   7.010
 5033POPC   C4A64722  28.671  21.502   7.363
 5033POPC   C1B64723  28.123  21.053   6.249
 5033POPC   C2B64724  28.178  21.233   6.623
 5033POPC   C3B64725  28.126  21.052   6.999
 5033POPC   C4B64726  28.098  21.075   7.439
 5034POPC   NC364727  29.546   8.116   5.562
 5034POPC   PO464728  30.107   8.065   5.285
 5034POPC   GL164729  30.075   8.130   5.763
 5034POPC   GL264730  29.856   8.421   5.850
 5034POPC   C1A64731  30.185   8.264   6.217
 5034POPC   D2A64732  29.966   8.419   6.624
 5034POPC   C3A64733  30.166   8.254   7.018
 5034POPC   C4A64734  30.327   7.891   7.302
 5034POPC   C1B64735  29.681   8.212   6.215
 5034POPC   C2B64736  29.527   7.871   6.463
 5034POPC   C3B64737  29.526   7.805   6.911
 5034POPC   C4B64738  29.727   7.989   7.245
 5035POPC   NC364739  32.584  23.571   5.511
 5035POPC   PO464740  31.980  23.468   5.293
 5035POPC   GL164741  31.985  23.683   5.712
 5035POPC   GL264742  31.953  24.065   5.730
 5035POPC   C1A64743  32.217  23.566   6.097
 5035POPC   D2A64744  32.162  23.355   6.485
 5035POPC   C3A64745  32.317  23.526   6.861
 5035POPC   C4A64746  32.411  23.746   7.255
 5035POPC   C1B64747  32.051  24.030   6.168
 5035POPC   C2B64748  32.171  23.953   6.617
 5035POPC   C3B64749  32.004  23.964   7.049
 5035POPC   C4B64750  32.062  24.009   7.520
 5036POPC   NC364751  15.529  25.258   5.558
 5036POPC   PO464752  14.983  25.200   5.128
 5036POPC   GL164753  15.060  25.010   5.590
 5036POPC   GL264754  15.040  25.338   5.748
 5036POPC   C1A64755  15.191  25.023   6.103
 5036POPC   D2A64756  15.152  25.245   6.519
 5036POPC   C3A64757  15.350  25.157   6.927
 5036POPC   C4A64758  15.068  25.203   7.280
 5036POPC   C1B64759  15.302  25.543   6.123
 5036POPC   C2B64760  15.387  25.728   6.553
 5036POPC   C3B64761  15.527  25.639   7.006
 5036POPC   C4B64762  15.405  25.528   7.464
 5037POPC   NC364763  18.499  34.673   5.540
 5037POPC   PO464764  17.839  34.365   5.509
 5037POPC   GL164765  18.180  34.364   5.771
 5037POPC   GL264766  18.120  34.617   5.964
 5037POPC   C1A64767  18.463  34.311   6.166
 5037POPC   D2A64768  18.260  34.359   6.560
 5037POPC   C3A64769  18.472  34.300   6.952
 5037POPC   C4A64770  18.308  34.471   7.293
 5037POPC   C1B64771  18.347  34.821   6.295
 5037POPC   C2B64772  18.528  34.771   6.696
 5037POPC   C3B64773  18.351  34.987   7.026
 5037POPC   C4B64774  18.277  34.951   7.462
 5038POPC   NC364775  29.767  10.732   5.607
 5038POPC   PO464776  29.736  11.377   5.471
 5038POPC   GL164777  29.951  11.375   5.850
 5038POPC   GL264778  30.272  11.523   5.866
 5038POPC   C1A64779  29.813  11.283   6.257
 5038POPC   D2A64780  29.704  11.513   6.613
 5038POPC   C3A64781  29.666  11.237   6.988
 5038POPC   C4A64782  29.802  11.324   7.414
 5038POPC   C1B64783  30.300  11.444   6.301
 5038POPC   C2B64784  30.164  11.288   6.670
 5038POPC   C3B64785  30.190  11.178   7.064
 5038POPC   C4B64786  30.422  11.498   7.204
 5039POPC   NC364787  21.716   5.005   5.365
 5039POPC   PO464788  21.140   5.362   5.645
 5039POPC   GL164789  21.525   5.208   5.821
 5039POPC   GL264790  21.655   4.860   5.844
 5039POPC   C1A64791  21.513   5.129   6.276
 5039POPC   D2A64792  21.267   5.176   6.663
 5039POPC   C3A64793  21.429   5.202   7.069
 5039POPC   C4A64794  21.164   5.483   7.267
 5039POPC   C1B64795  21.543   4.627   6.213
 5039POPC   C2B64796  21.665   4.606   6.651
 5039POPC   C3B64797  21.574   4.648   7.104
 5039POPC   C4B64798  21.407   4.641   7.547
 5040POPC   NC364799  12.094  23.397   5.462
 5040POPC   PO464800  12.308  22.726   5.310
 5040POPC   GL164801  12.168  22.917   5.696
 5040POPC   GL264802  12.408  23.169   5.790
 5040POPC   C1A64803  11.979  22.728   6.094
 5040POPC   D2A64804  12.142  22.847   6.493
 5040POPC   C3A64805  11.947  22.942   6.885
 5040POPC   C4A64806  11.734  22.771   7.241
 5040POPC   C1B64807  12.477  23.245   6.234
 5040POPC   C2B64808  12.290  23.317   6.621
 5040POPC   C3B64809  12.441  23.214   7.010
 5040POPC   C4B64810  12.255  22.934   7.281
 5041POPC   NC364811   5.069  10.149   5.342
 5041POPC   PO464812   5.350   9.545   5.489
 5041POPC   GL164813   5.124   9.856   5.768
 5041POPC   GL264814   4.739   9.924   5.687
 5041POPC   C1A64815   5.264   9.808   6.198
 5041POPC   D2A64816   5.424   9.537   6.548
 5041POPC   C3A64817   5.414   9.698   6.975
 5041POPC   C4A64818   5.237   9.559   7.360
 5041POPC   C1B64819   4.740   9.670   6.086
 5041POPC   C2B64820   4.897   9.659   6.512
 5041POPC   C3B64821   4.907   9.645   6.942
 5041POPC   C4B64822   4.996   9.989   7.238
 5042POPC   NC364823  10.307   1.127   5.446
 5042POPC   PO464824  10.779   1.584   5.271
 5042POPC   GL164825  10.659   1.512   5.721
 5042POPC   GL264826  10.567   1.205   5.877
 5042POPC   C1A64827  10.620   1.612   6.170
 5042POPC   D2A64828  10.366   1.400   6.478
 5042POPC   C3A64829  10.540   1.191   6.795
 5042POPC   C4A64830  10.435   1.285   7.172
 5042POPC   C1B64831  10.210   1.069   6.122
 5042POPC   C2B64832  10.192   0.893   6.526
 5042POPC   C3B64833  10.055   1.026   6.917
 5042POPC   C4B64834  10.161   0.853   7.283
 5043POPC   NC364835  35.312  17.013   5.256
 5043POPC   PO464836  35.293  17.713   5.321
 5043POPC   GL164837  35.362  17.443   5.676
 5043POPC   GL264838  35.055  17.526   5.779
 5043POPC   C1A64839  35.451  17.591   6.128
 5043POPC   D2A64840  35.464  17.420   6.546
 5043POPC   C3A64841  35.387  17.646   6.936
 5043POPC   C4A64842  35.486  17.545   7.364
 5043POPC   C1B64843  34.959  17.787   6.104
 5043POPC   C2B64844  35.087  17.820   6.523
 5043POPC   C3B64845  34.884  17.789   6.948
 5043POPC   C4B64846  35.145  17.943   7.314
 5044POPC   NC364847  38.763  44.102   5.423
 5044POPC   PO464848  38.255  43.705   5.251
 5044POPC   GL164849  38.405  43.827   5.662
 5044POPC   GL264850  38.717  43.670   5.750
 5044POPC   C1A64851  38.495  44.066   6.081
 5044POPC   D2A64852  38.236  44.108   6.478
 5044POPC   C3A64853  38.394  44.055   6.928
 5044POPC   C4A64854  38.741  43.962   7.208
 5044POPC   C1B64855  38.428  43.568   6.094
 5044POPC   C2B64856  38.484  43.650   6.536
 5044POPC   C3B64857  38.464  43.421   6.910
 5044POPC   C4B64858  38.349  43.632   7.249
 5045POPC   NC364859  12.850  24.790   5.452
 5045POPC   PO464860  13.029  24.081   5.461
 5045POPC   GL164861  12.961  24.425   5.798
 5045POPC   GL264862  12.631  24.346   5.913
 5045POPC   C1A64863  12.831  24.690   6.200
 5045POPC   D2A64864  12.881  24.485   6.592
 5045POPC   C3A64865  13.103  24.537   6.991
 5045POPC   C4A64866  12.948  24.505   7.416
 5045POPC   C1B64867  12.343  24.307   6.247
 5045POPC   C2B64868  12.364  24.487   6.654
 5045POPC   C3B64869  12.575  24.525   7.014
 5045POPC   C4B64870  12.511  24.200   7.309
 5046POPC   NC364871  36.487   6.746   5.031
 5046POPC   PO464872  35.977   6.428   5.454
 5046POPC   GL164873  36.175   6.654   5.732
 5046POPC   GL264874  36.502   6.633   5.615
 5046POPC   C1A64875  36.053   6.753   6.144
 5046POPC   D2A64876  35.852   6.748   6.542
 5046POPC   C3A64877  36.065   6.946   6.880
 5046POPC   C4A64878  35.913   6.824   7.270
 5046POPC   C1B64879  36.567   6.663   6.088
 5046POPC   C2B64880  36.395   6.770   6.528
 5046POPC   C3B64881  36.212   6.478   6.829
 5046POPC   C4B64882  36.208   6.332   7.239
 5047POPC   NC364883  35.989   3.623   5.194
 5047POPC   PO464884  35.352   3.433   5.457
 5047POPC   GL164885  35.444   3.206   5.778
 5047POPC   GL264886  35.232   3.446   5.962
 5047POPC   C1A64887  35.540   3.146   6.208
 5047POPC   D2A64888  35.355   3.411   6.509
 5047POPC   C3A64889  35.479   3.265   6.897
 5047POPC   C4A64890  35.213   3.298   7.240
 5047POPC   C1B64891  35.465   3.793   6.168
 5047POPC   C2B64892  35.760   3.748   6.509
 5047POPC   C3B64893  35.634   3.836   6.898
 5047POPC   C4B64894  35.609   3.621   7.246
 5048POPC   NC364895  28.782   5.290   5.429
 5048POPC   PO464896  29.401   4.994   5.141
 5048POPC   GL164897  29.223   5.033   5.616
 5048POPC   GL264898  29.311   5.366   5.613
 5048POPC   C1A64899  28.909   5.055   6.031
 5048POPC   D2A64900  28.762   5.140   6.466
 5048POPC   C3A64901  28.879   4.832   6.775
 5048POPC   C4A64902  29.017   4.720   7.197
 5048POPC   C1B64903  29.277   5.395   6.078
 5048POPC   C2B64904  29.316   5.145   6.472
 5048POPC   C3B64905  29.296   5.141   6.933
 5048POPC   C4B64906  29.284   5.153   7.392
 5049POPC   NC364907  11.911   0.652   5.375
 5049POPC   PO464908  12.472   0.196   5.254
 5049POPC   GL164909  12.260   0.327   5.646
 5049POPC   GL264910  12.451   0.571   5.824
 5049POPC   C1A64911  12.099   0.257   6.095
 5049POPC   D2A64912  11.896   0.076   6.486
 5049POPC   C3A64913  11.851   0.323   6.876
 5049POPC   C4A64914  11.677   0.731   7.015
 5049POPC   C1B64915  12.283   0.742   6.188
 5049POPC   C2B64916  12.234   0.543   6.577
 5049POPC   C3B64917  12.289   0.554   7.017
 5049POPC   C4B64918  12.405   0.351   7.439
 5050POPC   NC364919  36.865   3.937   5.142
 5050POPC   PO464920  37.215   3.413   5.371
 5050POPC   GL164921  36.976   3.313   5.787
 5050POPC   GL264922  36.906   3.609   5.877
 5050POPC   C1A64923  36.751   3.310   6.235
 5050POPC   D2A64924  36.518   3.365   6.631
 5050POPC   C3A64925  36.809   3.442   6.971
 5050POPC   C4A64926  36.944   3.442   7.403
 5050POPC   C1B64927  36.805   3.828   6.276
 5050POPC   C2B64928  36.884   3.932   6.701
 5050POPC   C3B64929  36.915   3.916   7.132
 5050POPC   C4B64930  36.491   3.825   7.251
 5051POPC   NC364931  37.771  32.061   5.428
 5051POPC   PO464932  37.358  31.440   5.295
 5051POPC   GL164933  37.593  31.525   5.696
 5051POPC   GL264934  37.492  31.856   5.809
 5051POPC   C1A64935  37.712  31.370   6.115
 5051POPC   D2A64936  37.528  31.245   6.491
 5051POPC   C3A64937  37.613  31.443   6.869
 5051POPC   C4A64938  37.710  31.201   7.267
 5051POPC   C1B64939  37.661  31.858   6.238
 5051POPC   C2B64940  38.068  31.825   6.459
 5051POPC   C3B64941  38.144  31.726   6.914
 5051POPC   C4B64942  37.823  31.709   7.239
 5052POPC   NC364943  23.752  14.219   5.406
 5052POPC   PO464944  23.463  13.748   5.741
 5052POPC   GL164945  23.420  14.266   5.803
 5052POPC   GL264946  23.680  14.601   5.776
 5052POPC   C1A64947  23.401  14.538   6.196
 5052POPC   D2A64948  23.538  14.722   6.612
 5052POPC   C3A64949  23.482  14.492   7.010
 5052POPC   C4A64950  23.387  14.059   7.169
 5052POPC   C1B64951  24.005  14.723   6.145
 5052POPC   C2B64952  23.988  14.945   6.555
 5052POPC   C3B64953  23.942  14.745   6.994
 5052POPC   C4B64954  23.691  14.749   7.397
 5053POPC   NC364955  32.027   4.909   5.526
 5053POPC   PO464956  32.035   5.566   5.793
 5053POPC   GL164957  32.013   5.170   5.971
 5053POPC   GL264958  32.322   5.095   5.937
 5053POPC   C1A64959  32.063   5.128   6.415
 5053POPC   D2A64960  31.960   5.481   6.694
 5053POPC   C3A64961  32.222   5.440   7.024
 5053POPC   C4A64962  32.307   5.063   7.185
 5053POPC   C1B64963  32.469   4.839   6.269
 5053POPC   C2B64964  32.424   4.827   6.730
 5053POPC   C3B64965  32.744   4.846   7.038
 5053POPC   C4B64966  32.693   4.889   7.488
 5054POPC   NC364967   4.178  23.339   5.280
 5054POPC   PO464968   4.315  22.728   5.392
 5054POPC   GL164969   4.181  23.039   5.709
 5054POPC   GL264970   4.251  22.769   5.947
 5054POPC   C1A64971   4.029  23.196   6.133
 5054POPC   D2A64972   4.022  22.994   6.558
 5054POPC   C3A64973   4.163  23.137   6.978
 5054POPC   C4A64974   4.508  22.997   7.269
 5054POPC   C1B64975   4.107  22.499   6.260
 5054POPC   C2B64976   3.871  22.508   6.623
 5054POPC   C3B64977   4.041  22.480   6.981
 5054POPC   C4B64978   4.048  22.735   7.303
 5055POPC   NC364979  29.750  37.968   5.569
 5055POPC   PO464980  30.194  37.385   5.523
 5055POPC   GL164981  29.912  37.476   5.844
 5055POPC   GL264982  30.112  37.770   5.934
 5055POPC   C1A64983  29.747  37.588   6.255
 5055POPC   D2A64984  29.976  37.793   6.601
 5055POPC   C3A64985  29.870  37.628   6.983
 5055POPC   C4A64986  30.139  37.461   7.255
 5055POPC   C1B64987  29.891  38.085   6.180
 5055POPC   C2B64988  29.635  38.170   6.487
 5055POPC   C3B64989  29.643  38.254   6.893
 5055POPC   C4B64990  29.731  38.034   7.273
 5056POPC   NC364991  39.922   2.448   5.427
 5056POPC   PO464992  39.789   1.756   5.459
 5056POPC   GL164993  39.878   2.090   5.784
 5056POPC   GL264994  40.229   2.194   5.769
 5056POPC   C1A64995  39.663   2.255   6.175
 5056POPC   D2A64996  39.700   2.083   6.617
 5056POPC   C3A64997  39.676   2.287   7.047
 5056POPC   C4A64998  39.634   2.292   7.569
 5056POPC   C1B64999  40.166   2.161   6.207
 5056POPC   C2B65000  40.220   1.886   6.532
 5056POPC   C3B65001  40.099   1.923   6.938
 5056POPC   C4B65002  40.282   2.011   7.335
 5057POPC   NC365003  22.365  23.145   5.491
 5057POPC   PO465004  21.925  22.725   5.491
 5057POPC   GL165005  22.222  22.774   5.819
 5057POPC   GL265006  22.048  23.080   5.871
 5057POPC   C1A65007  22.319  22.708   6.254
 5057POPC   D2A65008  22.204  22.923   6.610
 5057POPC   C3A65009  22.318  22.772   6.994
 5057POPC   C4A65010  22.274  22.586   7.368
 5057POPC   C1B65011  22.333  23.207   6.184
 5057POPC   C2B65012  22.388  23.406   6.577
 5057POPC   C3B65013  22.258  23.284   6.981
 5057POPC   C4B65014  22.369  23.129   7.362
 5058POPC   NC365015  34.180  30.319   5.079
 5058POPC   PO465016  34.442  30.889   5.119
 5058POPC   GL165017  34.426  30.937   5.678
 5058POPC   GL265018  34.393  30.591   5.925
 5058POPC   C1A65019  34.668  30.946   6.129
 5058POPC   D2A65020  34.524  30.636   6.470
 5058POPC   C3A65021  34.629  30.693   6.913
 5058POPC   C4A65022  34.743  31.051   7.149
 5058POPC   C1B65023  34.196  30.321   6.249
 5058POPC   C2B65024  34.192  30.303   6.709
 5058POPC   C3B65025  34.253  30.416   7.158
 5058POPC   C4B65026  34.494  30.644   7.474
 5059POPC   NC365027   5.093  35.935   5.187
 5059POPC   PO465028   4.653  36.281   5.367
 5059POPC   GL165029   4.981  36.205   5.719
 5059POPC   GL265030   5.273  36.456   5.759
 5059POPC   C1A65031   4.866  36.036   6.153
 5059POPC   D2A65032   4.726  35.706   6.471
 5059POPC   C3A65033   4.764  35.834   6.907
 5059POPC   C4A65034   5.030  36.129   7.126
 5059POPC   C1B65035   5.345  36.255   6.175
 5059POPC   C2B65036   5.276  36.342   6.644
 5059POPC   C3B65037   5.462  36.395   7.074
 5059POPC   C4B65038   5.251  36.452   7.463
 5060POPC   NC365039  33.597  41.024   5.324
 5060POPC   PO465040  33.221  41.524   5.402
 5060POPC   GL165041  33.412  41.231   5.757
 5060POPC   GL265042  33.813  41.228   5.747
 5060POPC   C1A65043  33.578  40.876   6.060
 5060POPC   D2A65044  33.575  40.564   6.423
 5060POPC   C3A65045  33.555  40.744   6.843
 5060POPC   C4A65046  33.635  40.555   7.241
 5060POPC   C1B65047  34.068  41.081   6.114
 5060POPC   C2B65048  33.964  40.902   6.499
 5060POPC   C3B65049  34.086  40.748   6.894
 5060POPC   C4B65050  33.919  41.055   7.146
 5061POPC   NC365051  23.289  21.209   5.280
 5061POPC   PO465052  22.690  21.413   5.139
 5061POPC   GL165053  22.744  21.251   5.630
 5061POPC   GL265054  23.049  21.335   5.819
 5061POPC   C1A65055  22.654  21.381   6.130
 5061POPC   D2A65056  22.890  21.434   6.527
 5061POPC   C3A65057  22.678  21.419   6.931
 5061POPC   C4A65058  22.520  21.740   7.181
 5061POPC   C1B65059  23.021  21.031   6.212
 5061POPC   C2B65060  22.838  20.922   6.638
 5061POPC   C3B65061  22.717  20.924   7.081
 5061POPC   C4B65062  23.050  21.034   7.342
 5062POPC   NC365063  26.610  32.345   5.272
 5062POPC   PO465064  27.221  32.437   5.225
 5062POPC   GL165065  26.975  32.345   5.683
 5062POPC   GL265066  26.648  32.504   5.755
 5062POPC   C1A65067  27.050  32.246   6.176
 5062POPC   D2A65068  27.196  32.300   6.659
 5062POPC   C3A65069  27.113  32.062   7.082
 5062POPC   C4A65070  26.953  32.006   7.572
 5062POPC   C1B65071  26.385  32.548   6.144
 5062POPC   C2B65072  26.527  32.504   6.582
 5062POPC   C3B65073  26.367  32.500   7.012
 5062POPC   C4B65074  26.588  32.310   7.363
 5063POPC   NC365075  11.098   8.134   5.381
 5063POPC   PO465076  11.417   8.693   5.394
 5063POPC   GL165077  11.212   8.491   5.785
 5063POPC   GL265078  11.345   8.121   5.818
 5063POPC   C1A65079  11.181   8.355   6.253
 5063POPC   D2A65080  11.357   8.275   6.684
 5063POPC   C3A65081  11.295   8.027   7.083
 5063POPC   C4A65082  11.476   8.258   7.409
 5063POPC   C1B65083  11.012   7.932   6.016
 5063POPC   C2B65084  11.009   7.901   6.463
 5063POPC   C3B65085  10.878   8.106   6.798
 5063POPC   C4B65086  10.760   7.920   7.154
 5064POPC   NC365087  11.006   4.822   5.446
 5064POPC   PO465088  11.318   5.360   5.402
 5064POPC   GL165089  11.123   5.170   5.843
 5064POPC   GL265090  11.089   4.804   5.942
 5064POPC   C1A65091  11.020   5.335   6.318
 5064POPC   D2A65092  11.241   5.238   6.728
 5064POPC   C3A65093  11.127   4.871   6.974
 5064POPC   C4A65094  10.827   5.132   7.178
 5064POPC   C1B65095  11.456   4.676   6.196
 5064POPC   C2B65096  11.533   4.815   6.597
 5064POPC   C3B65097  11.622   4.904   7.026
 5064POPC   C4B65098  11.440   4.702   7.386
 5065POPC   NC365099  36.160  14.187   5.359
 5065POPC   PO465100  35.621  13.766   5.406
 5065POPC   GL165101  35.802  14.107   5.789
 5065POPC   GL265102  36.037  14.415   5.789
 5065POPC   C1A65103  35.834  14.379   6.239
 5065POPC   D2A65104  35.948  14.276   6.694
 5065POPC   C3A65105  35.872  14.570   7.026
 5065POPC   C4A65106  36.092  14.719   7.371
 5065POPC   C1B65107  36.360  14.451   6.121
 5065POPC   C2B65108  36.509  14.452   6.533
 5065POPC   C3B65109  36.392  14.514   6.954
 5065POPC   C4B65110  36.559  14.316   7.276
 5066POPC   NC365111  29.465  39.477   5.653
 5066POPC   PO465112  30.039  39.115   5.409
 5066POPC   GL165113  29.901  39.289   5.820
 5066POPC   GL265114  30.198  39.371   6.002
 5066POPC   C1A65115  29.752  39.449   6.251
 5066POPC   D2A65116  29.800  39.217   6.665
 5066POPC   C3A65117  29.783  39.321   7.097
 5066POPC   C4A65118  29.609  39.128   7.447
 5066POPC   C1B65119  30.226  39.346   6.414
 5066POPC   C2B65120  30.295  39.029   6.699
 5066POPC   C3B65121  30.159  38.871   7.092
 5066POPC   C4B65122  30.101  39.078   7.471
 5067POPC   NC365123  29.364  16.917   5.548
 5067POPC   PO465124  28.781  16.582   5.340
 5067POPC   GL165125  28.994  16.553   5.767
 5067POPC   GL265126  29.314  16.643   5.969
 5067POPC   C1A65127  28.830  16.658   6.184
 5067POPC   D2A65128  29.069  16.777   6.554
 5067POPC   C3A65129  28.902  16.622   6.940
 5067POPC   C4A65130  28.888  16.769   7.367
 5067POPC   C1B65131  29.546  16.682   6.383
 5067POPC   C2B65132  29.532  16.744   6.833
 5067POPC   C3B65133  29.359  16.624   7.217
 5067POPC   C4B65134  29.564  16.515   7.597
 5068POPC   NC365135  10.578  43.386   5.501
 5068POPC   PO465136  10.585  44.007   5.309
 5068POPC   GL165137  10.415  43.896   5.706
 5068POPC   GL265138  10.158  43.647   5.727
 5068POPC   C1A65139  10.576  43.894   6.142
 5068POPC   D2A65140  10.837  43.828   6.535
 5068POPC   C3A65141  10.657  43.665   6.949
 5068POPC   C4A65142  10.570  43.790   7.389
 5068POPC   C1B65143  10.078  43.752   6.162
 5068POPC   C2B65144  10.287  43.825   6.568
 5068POPC   C3B65145  10.206  43.939   6.989
 5068POPC   C4B65146  10.148  43.585   7.213
 5069POPC   NC365147  11.144  22.665   5.593
 5069POPC   PO465148  11.717  23.125   5.504
 5069POPC   GL165149  11.520  23.082   5.886
 5069POPC   GL265150  11.157  23.122   5.846
 5069POPC   C1A65151  11.470  22.791   6.234
 5069POPC   D2A65152  11.567  22.655   6.658
 5069POPC   C3A65153  11.396  22.975   6.931
 5069POPC   C4A65154  11.446  23.202   7.321
 5069POPC   C1B65155  10.956  22.866   6.171
 5069POPC   C2B65156  11.045  22.784   6.575
 5069POPC   C3B65157  10.871  22.811   6.930
 5069POPC   C4B65158  11.058  22.832   7.295
 5070POPC   NC365159  31.738   6.347   5.012
 5070POPC   PO465160  31.485   6.912   5.386
 5070POPC   GL165161  31.505   6.830   5.819
 5070POPC   GL265162  31.261   6.585   5.759
 5070POPC   C1A65163  31.541   6.937   6.244
 5070POPC   D2A65164  31.675   6.679   6.555
 5070POPC   C3A65165  31.605   6.862   6.932
 5070POPC   C4A65166  31.705   6.562   7.218
 5070POPC   C1B65167  31.103   6.720   6.117
 5070POPC   C2B65168  31.165   6.694   6.529
 5070POPC   C3B65169  31.221   6.521   6.909
 5070POPC   C4B65170  31.195   6.675   7.261
 5071POPC   NC365171   5.397   0.715   5.461
 5071POPC   PO465172   5.284   0.089   5.138
 5071POPC   GL165173   5.206   0.245   5.638
 5071POPC   GL265174   4.989   0.520   5.779
 5071POPC   C1A65175   5.241   0.237   6.103
 5071POPC   D2A65176   5.262   0.482   6.491
 5071POPC   C3A65177   5.420   0.274   6.873
 5071POPC   C4A65178   5.186   0.145   7.253
 5071POPC   C1B65179   4.747   0.388   6.159
 5071POPC   C2B65180   4.777   0.303   6.601
 5071POPC   C3B65181   4.825   0.439   7.050
 5071POPC   C4B65182   4.796   0.319   7.531
 5072POPC   NC365183  10.666  21.613   5.357
 5072POPC   PO465184  10.621  20.936   5.351
 5072POPC   GL165185  10.442  21.229   5.653
 5072POPC   GL265186  10.733  21.374   5.831
 5072POPC   C1A65187  10.357  21.208   6.118
 5072POPC   D2A65188  10.589  21.230   6.528
 5072POPC   C3A65189  10.440  21.471   6.845
 5072POPC   C4A65190  10.262  21.507   7.253
 5072POPC   C1B65191  10.825  21.585   6.245
 5072POPC   C2B65192  10.952  21.678   6.711
 5072POPC   C3B65193  10.820  21.558   7.162
 5072POPC   C4B65194  10.789  21.723   7.623
 5073POPC   NC365195  11.575  25.978   5.589
 5073POPC   PO465196  12.171  26.241   5.303
 5073POPC   GL165197  12.024  26.201   5.744
 5073POPC   GL265198  12.047  25.817   5.806
 5073POPC   C1A65199  11.865  26.097   6.183
 5073POPC   D2A65200  12.088  26.047   6.544
 5073POPC   C3A65201  11.936  25.988   6.948
 5073POPC   C4A65202  11.809  26.243   7.254
 5073POPC   C1B65203  12.020  25.597   6.232
 5073POPC   C2B65204  12.186  25.565   6.669
 5073POPC   C3B65205  12.445  25.908   6.896
 5073POPC   C4B65206  12.333  25.978   7.334
 5074POPC   NC365207  19.163  14.699   5.484
 5074POPC   PO465208  18.777  14.085   5.329
 5074POPC   GL165209  18.935  14.259   5.747
 5074POPC   GL265210  19.273  14.423   5.903
 5074POPC   C1A65211  18.893  14.264   6.193
 5074POPC   D2A65212  18.772  14.246   6.614
 5074POPC   C3A65213  18.921  14.316   7.027
 5074POPC   C4A65214  18.662  14.632   7.142
 5074POPC   C1B65215  19.397  14.186   6.297
 5074POPC   C2B65216  19.329  14.187   6.744
 5074POPC   C3B65217  19.431  14.476   7.066
 5074POPC   C4B65218  19.388  14.567   7.500
 5075POPC   NC365219  29.766   5.111   5.430
 5075POPC   PO465220  30.165   5.631   5.622
 5075POPC   GL165221  30.019   5.238   5.900
 5075POPC   GL265222  29.662   5.102   5.920
 5075POPC   C1A65223  29.922   5.098   6.346
 5075POPC   D2A65224  29.738   4.967   6.717
 5075POPC   C3A65225  29.886   5.165   7.080
 5075POPC   C4A65226  30.088   4.882   7.356
 5075POPC   C1B65227  29.354   4.808   6.067
 5075POPC   C2B65228  29.207   4.619   6.444
 5075POPC   C3B65229  29.373   4.634   6.852
 5075POPC   C4B65230  29.586   4.785   7.227
 5076POPC   NC365231   1.790   9.349   5.394
 5076POPC   PO465232   1.652   8.693   5.395
 5076POPC   GL165233   1.911   8.961   5.745
 5076POPC   GL265234   2.272   9.128   5.798
 5076POPC   C1A65235   2.083   8.884   6.192
 5076POPC   D2A65236   1.903   9.070   6.567
 5076POPC   C3A65237   1.924   8.925   6.990
 5076POPC   C4A65238   1.685   9.095   7.329
 5076POPC   C1B65239   2.219   9.364   6.238
 5076POPC   C2B65240   2.085   9.530   6.646
 5076POPC   C3B65241   2.189   9.364   7.018
 5076POPC   C4B65242   2.195   9.214   7.409
 5077POPC   NC365243  30.941  26.026   5.164
 5077POPC   PO465244  30.361  26.293   5.359
 5077POPC   GL165245  30.454  26.070   5.768
 5077POPC   GL265246  30.823  26.023   5.761
 5077POPC   C1A65247  30.657  26.230   6.193
 5077POPC   D2A65248  30.849  26.103   6.569
 5077POPC   C3A65249  30.626  26.115   6.926
 5077POPC   C4A65250  30.626  26.346   7.314
 5077POPC   C1B65251  30.785  25.736   6.164
 5077POPC   C2B65252  30.545  25.707   6.559
 5077POPC   C3B65253  30.351  25.662   6.956
 5077POPC   C4B65254  30.407  25.868   7.321
 5078POPC   NC365255  44.258   7.499   5.325
 5078POPC   PO465256  44.915   7.193   5.272
 5078POPC   GL165257  44.558   7.135   5.629
 5078POPC   GL265258  44.485   7.487   5.793
 5078POPC   C1A65259  44.506   7.087   6.109
 5078POPC   D2A65260  44.542   7.425   6.440
 5078POPC   C3A65261  44.637   7.406   6.900
 5078POPC   C4A65262  44.617   7.052   7.187
 5078POPC   C1B65263  44.784   7.725   6.065
 5078POPC   C2B65264  44.826   7.863   6.505
 5078POPC   C3B65265  44.775   7.951   6.935
 5078POPC   C4B65266  44.586   7.759   7.300
 5079POPC   NC365267  29.432  20.754   5.478
 5079POPC   PO465268  28.808  20.510   5.325
 5079POPC   GL165269  28.971  20.582   5.751
 5079POPC   GL265270  28.954  20.952   5.696
 5079POPC   C1A65271  29.278  20.442   6.130
 5079POPC   D2A65272  29.600  20.455   6.486
 5079POPC   C3A65273  29.435  20.547   6.888
 5079POPC   C4A65274  29.344  20.672   7.292
 5079POPC   C1B65275  29.078  20.909   6.135
 5079POPC   C2B65276  29.054  20.697   6.540
 5079POPC   C3B65277  28.988  20.793   6.960
 5079POPC   C4B65278  29.040  21.104   7.319
 5080POPC   NC365279  34.475  44.181   5.347
 5080POPC   PO465280  34.259  43.567   5.239
 5080POPC   GL165281  34.250  43.883   5.665
 5080POPC   GL265282  34.597  43.853   5.745
 5080POPC   C1A65283  34.316  44.019   6.126
 5080POPC   D2A65284  34.469  43.783   6.521
 5080POPC   C3A65285  34.463  44.018   6.918
 5080POPC   C4A65286  34.441  43.853   7.342
 5080POPC   C1B65287  34.833  43.910   6.152
 5080POPC   C2B65288  35.005  43.950   6.569
 5080POPC   C3B65289  34.856  43.699   6.917
 5080POPC   C4B65290  34.880  43.560   7.313
 5081POPC   NC365291  27.946   5.836   5.490
 5081POPC   PO465292  27.286   5.851   5.312
 5081POPC   GL165293  27.309   6.025   5.756
 5081POPC   GL265294  27.634   5.918   5.921
 5081POPC   C1A65295  27.183   5.999   6.207
 5081POPC   D2A65296  27.191   5.687   6.570
 5081POPC   C3A65297  27.393   5.819   6.956
 5081POPC   C4A65298  27.740   5.797   7.255
 5081POPC   C1B65299  27.672   5.840   6.393
 5081POPC   C2B65300  27.903   6.009   6.756
 5081POPC   C3B65301  28.139   6.064   7.129
 5081POPC   C4B65302  28.197   5.831   7.501
 5082POPC   NC365303  23.856  28.691   5.442
 5082POPC   PO465304  23.846  28.061   5.494
 5082POPC   GL165305  23.667  28.299   5.817
 5082POPC   GL265306  23.467  28.588   5.751
 5082POPC   C1A65307  23.820  28.365   6.225
 5082POPC   D2A65308  23.697  28.191   6.619
 5082POPC   C3A65309  24.006  28.103   6.932
 5082POPC   C4A65310  23.920  28.289   7.309
 5082POPC   C1B65311  23.484  28.783   6.154
 5082POPC   C2B65312  23.325  28.793   6.575
 5082POPC   C3B65313  23.513  28.719   6.978
 5082POPC   C4B65314  23.404  28.364   7.241
 5083POPC   NC365315  30.449   3.491   5.446
 5083POPC   PO465316  29.792   3.521   5.416
 5083POPC   GL165317  30.022   3.462   5.803
 5083POPC   GL265318  30.213   3.172   5.773
 5083POPC   C1A65319  30.130   3.564   6.246
 5083POPC   D2A65320  30.019   3.615   6.673
 5083POPC   C3A65321  29.913   3.438   7.056
 5083POPC   C4A65322  30.056   3.557   7.429
 5083POPC   C1B65323  30.218   3.074   6.169
 5083POPC   C2B65324  30.214   3.139   6.614
 5083POPC   C3B65325  30.200   3.005   7.040
 5083POPC   C4B65326  30.036   3.055   7.433
 5084POPC   NC365327  29.320  17.561   5.297
 5084POPC   PO465328  29.300  17.935   5.812
 5084POPC   GL165329  29.251  17.565   5.984
 5084POPC   GL265330  29.448  17.345   5.798
 5084POPC   C1A65331  29.097  17.561   6.383
 5084POPC   D2A65332  28.889  17.419   6.735
 5084POPC   C3A65333  29.095  17.621   7.040
 5084POPC   C4A65334  29.367  17.684   7.360
 5084POPC   C1B65335  29.356  17.127   6.207
 5084POPC   C2B65336  29.389  17.202   6.654
 5084POPC   C3B65337  29.146  17.073   7.015
 5084POPC   C4B65338  29.035  17.266   7.413
 5085POPC   NC365339   8.550  19.348   5.372
 5085POPC   PO465340   8.160  19.920   5.227
 5085POPC   GL165341   8.191  19.823   5.683
 5085POPC   GL265342   8.528  19.687   5.754
 5085POPC   C1A65343   8.198  19.947   6.122
 5085POPC   D2A65344   8.106  19.777   6.519
 5085POPC   C3A65345   8.149  20.020   6.901
 5085POPC   C4A65346   7.892  19.813   7.202
 5085POPC   C1B65347   8.585  19.547   6.166
 5085POPC   C2B65348   8.450  19.349   6.545
 5085POPC   C3B65349   8.315  19.523   6.923
 5085POPC   C4B65350   8.465  19.747   7.285
 5086POPC   NC365351   3.612  23.670   5.362
 5086POPC   PO465352   3.310  24.209   5.650
 5086POPC   GL165353   3.247  23.790   5.751
 5086POPC   GL265354   3.440  23.470   5.801
 5086POPC   C1A65355   3.212  23.759   6.169
 5086POPC   D2A65356   3.380  23.700   6.527
 5086POPC   C3A65357   3.177  23.796   6.870
 5086POPC   C4A65358   3.092  23.640   7.261
 5086POPC   C1B65359   3.437  23.261   6.211
 5086POPC   C2B65360   3.596  23.276   6.639
 5086POPC   C3B65361   3.435  23.315   7.055
 5086POPC   C4B65362   3.654  23.354   7.454
 5087POPC   NC365363  42.281   0.926   5.394
 5087POPC   PO465364  42.590   1.526   5.515
 5087POPC   GL165365  42.578   1.152   5.728
 5087POPC   GL265366  42.281   1.290   5.877
 5087POPC   C1A65367  42.534   0.940   6.148
 5087POPC   D2A65368  42.493   1.195   6.507
 5087POPC   C3A65369  42.328   1.049   6.899
 5087POPC   C4A65370  42.495   0.946   7.282
 5087POPC   C1B65371  42.140   1.540   6.249
 5087POPC   C2B65372  41.757   1.568   6.510
 5087POPC   C3B65373  41.764   1.617   6.944
 5087POPC   C4B65374  41.951   1.313   7.202
 5088POPC   NC365375  39.683  18.997   5.294
 5088POPC   PO465376  40.325  19.247   5.426
 5088POPC   GL165377  39.989  19.122   5.705
 5088POPC   GL265378  39.843  18.764   5.718
 5088POPC   C1A65379  39.922  19.230   6.120
 5088POPC   D2A65380  39.955  18.950   6.474
 5088POPC   C3A65381  39.961  18.892   6.894
 5088POPC   C4A65382  39.974  19.258   7.095
 5088POPC   C1B65383  40.126  18.715   6.053
 5088POPC   C2B65384  40.452  18.901   6.323
 5088POPC   C3B65385  40.466  18.920   6.769
 5088POPC   C4B65386  40.400  18.885   7.219
 5089POPC   NC365387  35.756  42.426   5.060
 5089POPC   PO465388  35.198  42.436   5.251
 5089POPC   GL165389  35.218  42.392   5.699
 5089POPC   GL265390  34.904  42.578   5.708
 5089POPC   C1A65391  35.413  42.336   6.140
 5089POPC   D2A65392  35.346  42.131   6.572
 5089POPC   C3A65393  35.475  42.338   6.948
 5089POPC   C4A65394  35.750  42.603   7.118
 5089POPC   C1B65395  34.903  42.238   6.062
 5089POPC   C2B65396  34.885  42.392   6.488
 5089POPC   C3B65397  34.967  42.266   6.893
 5089POPC   C4B65398  34.972  42.256   7.309
 5090POPC   NC365399  10.541   7.017   5.157
 5090POPC   PO465400  10.097   6.539   5.305
 5090POPC   GL165401  10.375   6.490   5.722
 5090POPC   GL265402  10.715   6.596   5.782
 5090POPC   C1A65403  10.382   6.545   6.215
 5090POPC   D2A65404  10.306   6.360   6.646
 5090POPC   C3A65405  10.412   6.560   7.035
 5090POPC   C4A65406  10.492   6.374   7.432
 5090POPC   C1B65407  10.884   6.618   6.225
 5090POPC   C2B65408  10.758   6.578   6.638
 5090POPC   C3B65409  10.921   6.617   7.048
 5090POPC   C4B65410  10.691   6.880   7.342
 5091POPC   NC365411   2.959  25.319   5.452
 5091POPC   PO465412   2.358  25.418   5.343
 5091POPC   GL165413   2.555  25.405   5.813
 5091POPC   GL265414   2.879  25.222   5.926
 5091POPC   C1A65415   2.580  25.295   6.303
 5091POPC   D2A65416   2.835  25.175   6.689
 5091POPC   C3A65417   2.594  25.184   7.080
 5091POPC   C4A65418   2.510  25.597   7.236
 5091POPC   C1B65419   3.057  24.987   6.250
 5091POPC   C2B65420   3.316  24.973   6.616
 5091POPC   C3B65421   3.246  25.122   7.006
 5091POPC   C4B65422   3.011  25.442   7.210
 5092POPC   NC365423   8.550  20.086   5.411
 5092POPC   PO465424   9.020  19.616   5.445
 5092POPC   GL165425   8.985  19.936   5.732
 5092POPC   GL265426   9.098  19.724   5.952
 5092POPC   C1A65427   8.717  20.058   6.099
 5092POPC   D2A65428   8.572  19.937   6.544
 5092POPC   C3A65429   8.884  19.871   6.885
 5092POPC   C4A65430   8.926  20.045   7.297
 5092POPC   C1B65431   9.010  19.745   6.375
 5092POPC   C2B65432   9.195  19.520   6.626
 5092POPC   C3B65433   9.455  19.555   6.917
 5092POPC   C4B65434   9.434  19.584   7.305
 5093POPC   NC365435  15.429  22.591   5.439
 5093POPC   PO465436  15.319  21.950   5.447
 5093POPC   GL165437  15.235  22.138   5.819
 5093POPC   GL265438  15.001  22.368   5.793
 5093POPC   C1A65439  15.097  22.047   6.226
 5093POPC   D2A65440  14.987  21.879   6.597
 5093POPC   C3A65441  15.076  22.091   6.949
 5093POPC   C4A65442  14.958  21.802   7.244
 5093POPC   C1B65443  15.194  22.549   6.141
 5093POPC   C2B65444  15.294  22.410   6.570
 5093POPC   C3B65445  15.466  22.636   6.934
 5093POPC   C4B65446  15.231  22.465   7.297
 5094POPC   NC365447  39.766  25.392   5.587
 5094POPC   PO465448  40.431  25.228   5.325
 5094POPC   GL165449  40.214  25.190   5.710
 5094POPC   GL265450  40.207  25.486   5.908
 5094POPC   C1A65451  40.025  25.013   6.083
 5094POPC   D2A65452  39.940  25.082   6.520
 5094POPC   C3A65453  40.269  25.034   6.826
 5094POPC   C4A65454  40.204  25.098   7.242
 5094POPC   C1B65455  39.880  25.507   6.223
 5094POPC   C2B65456  39.635  25.494   6.597
 5094POPC   C3B65457  39.848  25.360   6.953
 5094POPC   C4B65458  39.988  25.572   7.279
 5095POPC   NC365459  20.768  23.552   5.382
 5095POPC   PO465460  20.590  24.197   5.396
 5095POPC   GL165461  20.595  23.872   5.738
 5095POPC   GL265462  20.887  23.686   5.856
 5095POPC   C1A65463  20.478  23.626   6.148
 5095POPC   D2A65464  20.500  23.370   6.536
 5095POPC   C3A65465  20.520  23.537   6.959
 5095POPC   C4A65466  20.223  23.716   7.241
 5095POPC   C1B65467  21.027  23.659   6.261
 5095POPC   C2B65468  20.968  23.540   6.674
 5095POPC   C3B65469  20.951  23.837   6.986
 5095POPC   C4B65470  20.723  23.770   7.376
 5096POPC   NC365471   1.039  30.916   5.592
 5096POPC   PO465472   1.715  30.744   5.396
 5096POPC   GL165473   1.470  30.571   5.804
 5096POPC   GL265474   1.391  30.850   5.944
 5096POPC   C1A65475   1.159  30.539   6.257
 5096POPC   D2A65476   0.936  30.372   6.669
 5096POPC   C3A65477   1.162  30.454   7.069
 5096POPC   C4A65478   1.050  30.577   7.516
 5096POPC   C1B65479   1.608  30.835   6.343
 5096POPC   C2B65480   1.387  30.917   6.739
 5096POPC   C3B65481   1.277  30.950   7.164
 5096POPC   C4B65482   1.523  30.760   7.462
 5097POPC   NC365483  32.853  38.760   5.370
 5097POPC   PO465484  32.866  38.011   5.401
 5097POPC   GL165485  33.012  38.312   5.773
 5097POPC   GL265486  33.156  38.668   5.767
 5097POPC   C1A65487  33.156  38.282   6.214
 5097POPC   D2A65488  32.908  38.130   6.575
 5097POPC   C3A65489  32.933  38.247   7.012
 5097POPC   C4A65490  33.362  38.328   7.235
 5097POPC   C1B65491  33.017  38.785   6.186
 5097POPC   C2B65492  33.223  38.764   6.576
 5097POPC   C3B65493  33.101  38.733   7.015
 5097POPC   C4B65494  32.850  38.964   7.272
 5098POPC   NC365495  14.596  44.584   5.518
 5098POPC   PO465496  13.987  44.700   5.320
 5098POPC   GL165497  14.188  44.623   5.790
 5098POPC   GL265498  14.305  44.275   5.829
 5098POPC   C1A65499  14.383  44.816   6.189
 5098POPC   D2A65500  14.277  44.945   6.619
 5098POPC   C3A65501  14.299  44.694   7.020
 5098POPC   C4A65502  14.156  44.264   7.059
 5098POPC   C1B65503  14.640  44.383   6.141
 5098POPC   C2B65504  14.576  44.505   6.557
 5098POPC   C3B65505  14.755  44.775   6.794
 5098POPC   C4B65506  14.779  44.649   7.216
 5099POPC   NC365507  32.116  34.889   5.419
 5099POPC   PO465508  32.674  34.554   5.474
 5099POPC   GL165509  32.630  34.618   5.897
 5099POPC   GL265510  32.627  34.223   5.975
 5099POPC   C1A65511  32.251  34.765   6.125
 5099POPC   D2A65512  32.015  34.458   6.377
 5099POPC   C3A65513  32.162  34.456   6.801
 5099POPC   C4A65514  32.120  34.517   7.248
 5099POPC   C1B65515  32.527  34.403   6.359
 5099POPC   C2B65516  32.705  34.582   6.691
 5099POPC   C3B65517  32.611  34.462   7.079
 5099POPC   C4B65518  32.580  34.567   7.507
 5100POPC   NC365519  43.775   9.492   5.243
 5100POPC   PO465520  43.857   8.823   5.443
 5100POPC   GL165521  43.846   8.939   5.842
 5100POPC   GL265522  44.130   8.780   5.891
 5100POPC   C1A65523  43.666   9.110   6.224
 5100POPC   D2A65524  43.504   9.163   6.638
 5100POPC   C3A65525  43.767   9.276   6.994
 5100POPC   C4A65526  43.948   8.984   7.272
 5100POPC   C1B65527  44.168   9.138   6.190
 5100POPC   C2B65528  44.069   9.064   6.611
 5100POPC   C3B65529  44.356   8.913   6.953
 5100POPC   C4B65530  44.406   8.771   7.375
 5101POPC   NC365531  33.251  17.894   5.447
 5101POPC   PO465532  32.996  18.503   5.291
 5101POPC   GL165533  32.922  18.446   5.732
 5101POPC   GL265534  32.969  18.079   5.833
 5101POPC   C1A65535  32.901  18.481   6.177
 5101POPC   D2A65536  32.791  18.292   6.564
 5101POPC   C3A65537  32.706  18.548   6.944
 5101POPC   C4A65538  32.655  18.384   7.365
 5101POPC   C1B65539  33.277  18.035   6.163
 5101POPC   C2B65540  33.338  18.177   6.586
 5101POPC   C3B65541  33.080  18.136   6.960
 5101POPC   C4B65542  33.282  18.179   7.336
 5102POPC   NC365543  14.324  32.207   5.261
 5102POPC   PO465544  14.854  32.460   5.512
 5102POPC   GL165545  14.474  32.344   5.743
 5102POPC   GL265546  14.373  32.005   5.763
 5102POPC   C1A65547  14.262  32.449   6.115
 5102POPC   D2A65548  14.388  32.361   6.521
 5102POPC   C3A65549  14.157  32.479   6.892
 5102POPC   C4A65550  14.269  32.506   7.291
 5102POPC   C1B65551  14.548  31.958   6.154
 5102POPC   C2B65552  14.405  31.846   6.541
 5102POPC   C3B65553  14.453  32.061   6.929
 5102POPC   C4B65554  14.712  32.266   7.200
 5103POPC   NC365555  16.578  21.807   5.186
 5103POPC   PO465556  16.612  21.133   5.155
 5103POPC   GL165557  16.699  21.434   5.589
 5103POPC   GL265558  16.971  21.419   5.797
 5103POPC   C1A65559  16.578  21.448   6.114
 5103POPC   D2A65560  16.508  21.267   6.569
 5103POPC   C3A65561  16.588  21.465   6.971
 5103POPC   C4A65562  16.886  21.727   7.141
 5103POPC   C1B65563  17.110  21.419   6.241
 5103POPC   C2B65564  17.015  21.435   6.683
 5103POPC   C3B65565  17.092  21.259   7.071
 5103POPC   C4B65566  17.174  20.919   7.298
 5104POPC   NC365567  11.371   3.091   5.305
 5104POPC   PO465568  10.954   3.641   5.303
 5104POPC   GL165569  11.094   3.421   5.681
 5104POPC   GL265570  11.442   3.408   5.764
 5104POPC   C1A65571  11.045   3.545   6.133
 5104POPC   D2A65572  11.103   3.859   6.486
 5104POPC   C3A65573  11.119   3.683   6.928
 5104POPC   C4A65574  11.396   3.357   7.130
 5104POPC   C1B65575  11.559   3.618   6.162
 5104POPC   C2B65576  11.592   3.707   6.623
 5104POPC   C3B65577  11.569   3.907   7.027
 5104POPC   C4B65578  11.347   3.832   7.408
 5105POPC   NC365579  41.807  21.066   5.370
 5105POPC   PO465580  41.417  20.454   5.432
 5105POPC   GL165581  41.523  20.605   5.839
 5105POPC   GL265582  41.465  20.937   5.828
 5105POPC   C1A65583  41.565  20.698   6.312
 5105POPC   D2A65584  41.689  20.770   6.757
 5105POPC   C3A65585  41.607  20.481   7.075
 5105POPC   C4A65586  41.512  20.448   7.516
 5105POPC   C1B65587  41.120  20.813   6.111
 5105POPC   C2B65588  41.061  20.721   6.514
 5105POPC   C3B65589  41.039  20.927   6.884
 5105POPC   C4B65590  41.287  20.826   7.229
 5106POPC   NC365591  36.464   1.413   5.386
 5106POPC   PO465592  36.015   0.906   5.325
 5106POPC   GL165593  36.147   1.167   5.696
 5106POPC   GL265594  35.989   1.506   5.651
 5106POPC   C1A65595  36.394   0.974   6.034
 5106POPC   D2A65596  36.240   0.853   6.438
 5106POPC   C3A65597  36.039   1.149   6.719
 5106POPC   C4A65598  36.264   1.233   7.093
 5106POPC   C1B65599  35.817   1.579   6.071
 5106POPC   C2B65600  35.899   1.654   6.504
 5106POPC   C3B65601  35.734   1.555   6.901
 5106POPC   C4B65602  35.887   1.526   7.266
 5107POPC   NC365603  30.253   6.922   5.489
 5107POPC   PO465604  29.733   6.399   5.370
 5107POPC   GL165605  29.862   6.560   5.765
 5107POPC   GL265606  29.779   6.904   5.887
 5107POPC   C1A65607  29.729   6.467   6.186
 5107POPC   D2A65608  29.957   6.387   6.550
 5107POPC   C3A65609  29.813   6.663   6.879
 5107POPC   C4A65610  29.995   6.695   7.300
 5107POPC   C1B65611  30.131   6.781   6.162
 5107POPC   C2B65612  30.229   6.849   6.593
 5107POPC   C3B65613  30.132   7.072   6.966
 5107POPC   C4B65614  30.263   7.111   7.383
 5108POPC   NC365615  29.355  13.141   5.264
 5108POPC   PO465616  28.842  12.691   5.158
 5108POPC   GL165617  28.970  13.006   5.549
 5108POPC   GL265618  29.299  12.822   5.674
 5108POPC   C1A65619  28.968  13.113   6.014
 5108POPC   D2A65620  28.961  12.908   6.447
 5108POPC   C3A65621  29.227  13.065   6.783
 5108POPC   C4A65622  29.138  13.126   7.237
 5108POPC   C1B65623  29.309  12.694   6.123
 5108POPC   C2B65624  29.241  12.462   6.508
 5108POPC   C3B65625  29.043  12.607   6.892
 5108POPC   C4B65626  29.400  12.714   7.116
 5109POPC   NC365627  22.303  42.744   5.468
 5109POPC   PO465628  21.911  43.246   5.375
 5109POPC   GL165629  22.066  43.116   5.754
 5109POPC   GL265630  22.143  43.498   5.780
 5109POPC   C1A65631  22.208  42.938   6.161
 5109POPC   D2A65632  22.413  43.105   6.551
 5109POPC   C3A65633  22.223  42.958   6.930
 5109POPC   C4A65634  22.366  42.833   7.344
 5109POPC   C1B65635  21.995  43.405   6.170
 5109POPC   C2B65636  21.905  43.206   6.543
 5109POPC   C3B65637  21.854  43.332   6.966
 5109POPC   C4B65638  22.145  43.481   7.243
 5110POPC   NC365639  27.653   3.874   5.352
 5110POPC   PO465640  27.857   4.531   5.407
 5110POPC   GL165641  27.591   4.297   5.723
 5110POPC   GL265642  27.723   4.022   5.820
 5110POPC   C1A65643  27.423   4.410   6.129
 5110POPC   D2A65644  27.388   4.163   6.523
 5110POPC   C3A65645  27.476   4.289   6.924
 5110POPC   C4A65646  27.593   4.619   7.143
 5110POPC   C1B65647  27.827   4.123   6.240
 5110POPC   C2B65648  27.893   4.123   6.671
 5110POPC   C3B65649  27.942   4.063   7.130
 5110POPC   C4B65650  27.879   4.039   7.596
 5111POPC   NC365651  39.176   9.747   5.414
 5111POPC   PO465652  38.680  10.039   5.825
 5111POPC   GL165653  39.037   9.675   5.887
 5111POPC   GL265654  39.438   9.618   5.823
 5111POPC   C1A65655  39.209   9.489   6.255
 5111POPC   D2A65656  39.000   9.555   6.618
 5111POPC   C3A65657  39.091   9.848   6.951
 5111POPC   C4A65658  39.020   9.693   7.387
 5111POPC   C1B65659  39.617   9.828   6.187
 5111POPC   C2B65660  39.502   9.864   6.631
 5111POPC   C3B65661  39.494   9.557   6.983
 5111POPC   C4B65662  39.534   9.726   7.398
 5112POPC   NC365663  23.402  33.664   5.442
 5112POPC   PO465664  24.054  33.505   5.238
 5112POPC   GL165665  23.873  33.587   5.740
 5112POPC   GL265666  23.632  33.843   5.857
 5112POPC   C1A65667  24.090  33.581   6.191
 5112POPC   D2A65668  23.948  33.654   6.615
 5112POPC   C3A65669  24.178  33.573   6.981
 5112POPC   C4A65670  23.908  33.615   7.278
 5112POPC   C1B65671  23.715  33.964   6.263
 5112POPC   C2B65672  23.548  33.976   6.642
 5112POPC   C3B65673  23.721  34.035   7.025
 5112POPC   C4B65674  23.433  34.119   7.326
 5113POPC   NC365675  13.364  13.037   5.441
 5113POPC   PO465676  13.992  12.956   5.125
 5113POPC   GL165677  13.866  12.804   5.571
 5113POPC   GL265678  13.544  12.635   5.690
 5113POPC   C1A65679  13.847  12.839   6.053
 5113POPC   D2A65680  13.798  12.628   6.466
 5113POPC   C3A65681  13.977  12.808   6.822
 5113POPC   C4A65682  13.833  12.747   7.211
 5113POPC   C1B65683  13.382  12.636   6.126
 5113POPC   C2B65684  13.315  12.822   6.537
 5113POPC   C3B65685  13.466  12.613   6.892
 5113POPC   C4B65686  13.347  12.530   7.301
 5114POPC   NC365687  38.898   5.363   5.454
 5114POPC   PO465688  39.313   4.800   5.232
 5114POPC   GL165689  39.419   4.959   5.706
 5114POPC   GL265690  39.127   5.087   5.805
 5114POPC   C1A65691  39.393   5.071   6.220
 5114POPC   D2A65692  39.508   4.903   6.650
 5114POPC   C3A65693  39.323   5.146   6.976
 5114POPC   C4A65694  38.850   5.124   7.002
 5114POPC   C1B65695  39.005   5.416   6.118
 5114POPC   C2B65696  38.960   5.368   6.551
 5114POPC   C3B65697  39.088   5.577   6.915
 5114POPC   C4B65698  39.062   5.450   7.354
 5115POPC   NC365699   6.980  20.108   5.522
 5115POPC   PO465700   6.589  19.578   5.378
 5115POPC   GL165701   6.573  19.725   5.756
 5115POPC   GL265702   6.867  19.556   5.806
 5115POPC   C1A65703   6.544  20.021   6.075
 5115POPC   D2A65704   6.545  19.997   6.520
 5115POPC   C3A65705   6.389  20.044   6.941
 5115POPC   C4A65706   6.580  20.231   7.290
 5115POPC   C1B65707   6.693  19.539   6.227
 5115POPC   C2B65708   6.842  19.618   6.625
 5115POPC   C3B65709   6.692  19.600   7.043
 5115POPC   C4B65710   6.994  19.468   7.325
 5116POPC   NC365711  36.118  27.096   5.326
 5116POPC   PO465712  36.154  26.509   5.615
 5116POPC   GL165713  36.190  26.862   5.840
 5116POPC   GL265714  36.475  27.023   5.724
 5116POPC   C1A65715  35.961  27.007   6.210
 5116POPC   D2A65716  36.021  26.861   6.654
 5116POPC   C3A65717  35.770  26.837   7.015
 5116POPC   C4A65718  35.827  26.867   7.465
 5116POPC   C1B65719  36.437  27.143   6.227
 5116POPC   C2B65720  36.494  27.004   6.718
 5116POPC   C3B65721  36.278  27.000   7.175
 5116POPC   C4B65722  36.225  27.111   7.655
 5117POPC   NC365723  35.995   7.373   5.409
 5117POPC   PO465724  36.495   7.797   5.496
 5117POPC   GL165725  36.390   7.494   5.809
 5117POPC   GL265726  36.182   7.167   5.835
 5117POPC   C1A65727  36.214   7.579   6.207
 5117POPC   D2A65728  35.949   7.750   6.521
 5117POPC   C3A65729  36.110   7.651   6.911
 5117POPC   C4A65730  36.272   7.321   7.202
 5117POPC   C1B65731  35.848   7.220   6.162
 5117POPC   C2B65732  35.758   7.276   6.618
 5117POPC   C3B65733  35.787   7.293   7.088
 5117POPC   C4B65734  35.844   7.207   7.590
 5118POPC   NC365735  22.361  40.089   5.306
 5118POPC   PO465736  21.740  40.220   5.448
 5118POPC   GL165737  22.108  40.269   5.737
 5118POPC   GL265738  22.118  39.911   5.817
 5118POPC   C1A65739  22.428  40.187   6.113
 5118POPC   D2A65740  22.376  39.894   6.489
 5118POPC   C3A65741  22.359  40.048   6.927
 5118POPC   C4A65742  21.966  40.180   7.141
 5118POPC   C1B65743  21.937  39.736   6.219
 5118POPC   C2B65744  21.828  39.671   6.695
 5118POPC   C3B65745  22.068  39.662   7.125
 5118POPC   C4B65746  21.951  39.653   7.575
 5119POPC   NC365747  38.296  28.870   5.557
 5119POPC   PO465748  38.576  29.552   5.371
 5119POPC   GL165749  38.491  29.305   5.767
 5119POPC   GL265750  38.796  29.129   5.889
 5119POPC   C1A65751  38.276  29.163   6.174
 5119POPC   D2A65752  38.491  28.964   6.550
 5119POPC   C3A65753  38.360  29.093   6.982
 5119POPC   C4A65754  38.178  29.091   7.359
 5119POPC   C1B65755  38.699  29.433   6.244
 5119POPC   C2B65756  38.566  29.461   6.680
 5119POPC   C3B65757  38.850  29.174   6.950
 5119POPC   C4B65758  38.791  28.983   7.367
 5120POPC   NC365759  42.926   1.744   5.274
 5120POPC   PO465760  43.370   2.237   5.517
 5120POPC   GL165761  43.218   1.867   5.726
 5120POPC   GL265762  42.869   1.952   5.763
 5120POPC   C1A65763  43.148   1.752   6.164
 5120POPC   D2A65764  43.162   1.986   6.541
 5120POPC   C3A65765  43.073   1.838   6.937
 5120POPC   C4A65766  43.318   1.995   7.307
 5120POPC   C1B65767  42.985   2.252   6.139
 5120POPC   C2B65768  42.902   2.413   6.600
 5120POPC   C3B65769  42.984   2.341   7.051
 5120POPC   C4B65770  42.943   2.297   7.514
 5121POPC   NC365771  16.264  25.366   5.431
 5121POPC   PO465772  15.789  24.874   5.500
 5121POPC   GL165773  15.986  25.110   5.788
 5121POPC   GL265774  16.210  24.873   5.828
 5121POPC   C1A65775  15.908  25.388   6.151
 5121POPC   D2A65776  15.684  25.310   6.544
 5121POPC   C3A65777  15.895  25.276   6.942
 5121POPC   C4A65778  15.788  25.219   7.355
 5121POPC   C1B65779  16.321  25.017   6.195
 5121POPC   C2B65780  16.213  25.186   6.546
 5121POPC   C3B65781  16.295  24.956   6.914
 5121POPC   C4B65782  16.209  24.941   7.322
 5122POPC   NC365783   9.186  30.419   5.309
 5122POPC   PO465784   8.819  29.877   5.551
 5122POPC   GL165785   8.885  29.949   5.934
 5122POPC   GL265786   9.214  29.924   5.942
 5122POPC   C1A65787   8.911  30.186   6.337
 5122POPC   D2A65788   9.107  30.344   6.719
 5122POPC   C3A65789   8.909  30.127   7.059
 5122POPC   C4A65790   8.795  30.013   7.470
 5122POPC   C1B65791   9.049  29.682   6.309
 5122POPC   C2B65792   9.129  29.808   6.707
 5122POPC   C3B65793   9.299  29.818   7.099
 5122POPC   C4B65794   9.018  29.564   7.349
 5123POPC   NC365795   9.797  26.114   5.149
 5123POPC   PO465796   9.758  26.637   5.565
 5123POPC   GL165797   9.822  26.207   5.825
 5123POPC   GL265798  10.158  26.099   5.918
 5123POPC   C1A65799   9.837  25.957   6.286
 5123POPC   D2A65800   9.980  25.823   6.753
 5123POPC   C3A65801   9.733  25.896   7.149
 5123POPC   C4A65802   9.817  25.691   7.566
 5123POPC   C1B65803   9.999  26.439   6.236
 5123POPC   C2B65804   9.914  26.331   6.677
 5123POPC   C3B65805  10.012  26.356   7.115
 5123POPC   C4B65806   9.912  26.210   7.528
 5124POPC   NC365807  32.532  29.254   5.411
 5124POPC   PO465808  31.839  29.070   5.500
 5124POPC   GL165809  32.092  29.191   5.828
 5124POPC   GL265810  32.319  28.941   5.757
 5124POPC   C1A65811  32.040  29.100   6.293
 5124POPC   D2A65812  31.767  28.982   6.642
 5124POPC   C3A65813  31.810  29.270   6.977
 5124POPC   C4A65814  32.164  29.327   7.230
 5124POPC   C1B65815  32.494  28.894   6.170
 5124POPC   C2B65816  32.516  29.074   6.592
 5124POPC   C3B65817  32.227  28.945   6.905
 5124POPC   C4B65818  31.984  28.781   7.231
 5125POPC   NC365819  31.390   9.145   5.444
 5125POPC   PO465820  32.054   9.224   5.508
 5125POPC   GL165821  31.745   9.092   5.863
 5125POPC   GL265822  31.455   8.843   5.856
 5125POPC   C1A65823  31.637   8.992   6.321
 5125POPC   D2A65824  31.713   8.739   6.720
 5125POPC   C3A65825  31.790   9.007   7.090
 5125POPC   C4A65826  31.511   9.284   7.309
 5125POPC   C1B65827  31.142   8.672   6.169
 5125POPC   C2B65828  31.062   8.553   6.615
 5125POPC   C3B65829  31.122   8.722   7.038
 5125POPC   C4B65830  31.011   8.558   7.440
 5126POPC   NC365831   9.849  42.054   5.033
 5126POPC   PO465832   9.866  41.424   5.401
 5126POPC   GL165833   9.727  41.467   5.801
 5126POPC   GL265834  10.093  41.478   5.873
 5126POPC   C1A65835   9.448  41.419   6.170
 5126POPC   D2A65836   9.454  41.164   6.572
 5126POPC   C3A65837   9.524  41.297   7.008
 5126POPC   C4A65838   9.606  41.327   7.480
 5126POPC   C1B65839   9.917  41.211   6.219
 5126POPC   C2B65840   9.966  41.240   6.689
 5126POPC   C3B65841  10.033  41.385   7.110
 5126POPC   C4B65842  10.045  41.623   7.475
 5127POPC   NC365843   8.887  30.405   5.706
 5127POPC   PO465844   9.241  30.901   5.306
 5127POPC   GL165845   9.251  30.864   5.795
 5127POPC   GL265846   9.398  31.151   5.906
 5127POPC   C1A65847   9.223  30.729   6.281
 5127POPC   D2A65848   9.126  30.892   6.746
 5127POPC   C3A65849   9.028  30.641   7.139
 5127POPC   C4A65850   9.125  30.380   7.521
 5127POPC   C1B65851   9.089  31.219   6.255
 5127POPC   C2B65852   8.708  31.127   6.537
 5127POPC   C3B65853   8.607  30.890   6.934
 5127POPC   C4B65854   8.611  30.851   7.389
 5128POPC   NC365855   5.908  29.686   5.323
 5128POPC   PO465856   5.892  30.388   5.423
 5128POPC   GL165857   5.998  30.052   5.671
 5128POPC   GL265858   5.652  29.972   5.664
 5128POPC   C1A65859   5.909  29.717   6.020
 5128POPC   D2A65860   5.839  29.571   6.468
 5128POPC   C3A65861   5.871  29.815   6.852
 5128POPC   C4A65862   6.243  30.078   7.029
 5128POPC   C1B65863   5.721  30.217   6.052
 5128POPC   C2B65864   5.686  30.157   6.477
 5128POPC   C3B65865   5.682  30.300   6.889
 5128POPC   C4B65866   5.801  30.130   7.259
 5129POPC   NC365867  37.805  18.671   5.606
 5129POPC   PO465868  37.836  18.033   5.335
 5129POPC   GL165869  37.651  18.060   5.712
 5129POPC   GL265870  37.442  18.334   5.810
 5129POPC   C1A65871  37.775  18.129   6.133
 5129POPC   D2A65872  37.731  18.358   6.515
 5129POPC   C3A65873  37.589  18.150   6.884
 5129POPC   C4A65874  37.890  18.084   7.220
 5129POPC   C1B65875  37.286  18.383   6.227
 5129POPC   C2B65876  37.292  18.578   6.665
 5129POPC   C3B65877  37.446  18.587   7.117
 5129POPC   C4B65878  37.352  18.677   7.564
 5130POPC   NC365879  20.783  42.398   5.504
 5130POPC   PO465880  20.226  42.598   5.327
 5130POPC   GL165881  20.393  42.497   5.808
 5130POPC   GL265882  20.296  42.724   6.053
 5130POPC   C1A65883  20.610  42.178   6.126
 5130POPC   D2A65884  20.780  41.908   6.515
 5130POPC   C3A65885  20.659  42.138   6.928
 5130POPC   C4A65886  20.856  42.516   7.116
 5130POPC   C1B65887  20.207  42.429   6.342
 5130POPC   C2B65888  20.204  42.420   6.788
 5130POPC   C3B65889  20.347  42.505   7.188
 5130POPC   C4B65890  20.463  42.151   7.477
 5131POPC   NC365891  39.433   4.077   5.446
 5131POPC   PO465892  38.718   4.264   5.520
 5131POPC   GL165893  39.103   4.224   5.807
 5131POPC   GL265894  39.392   4.460   5.796
 5131POPC   C1A65895  39.333   4.175   6.212
 5131POPC   D2A65896  39.340   4.414   6.597
 5131POPC   C3A65897  39.270   4.202   6.988
 5131POPC   C4A65898  39.563   3.908   7.146
 5131POPC   C1B65899  39.114   4.642   6.144
 5131POPC   C2B65900  38.977   4.790   6.565
 5131POPC   C3B65901  39.114   4.688   6.990
 5131POPC   C4B65902  39.536   4.730   7.159
 5132POPC   NC365903  33.405  41.799   5.071
 5132POPC   PO465904  32.841  41.983   5.415
 5132POPC   GL165905  32.784  41.829   5.848
 5132POPC   GL265906  32.914  41.510   5.815
 5132POPC   C1A65907  32.751  41.817   6.319
 5132POPC   D2A65908  32.866  42.053   6.724
 5132POPC   C3A65909  32.987  41.818   7.071
 5132POPC   C4A65910  32.705  41.507   7.052
 5132POPC   C1B65911  33.150  41.514   6.186
 5132POPC   C2B65912  33.027  41.466   6.614
 5132POPC   C3B65913  33.118  41.220   6.950
 5132POPC   C4B65914  33.093  41.383   7.349
 5133POPC   NC365915  13.061  37.370   5.425
 5133POPC   PO465916  12.644  37.780   5.029
 5133POPC   GL165917  12.833  37.802   5.516
 5133POPC   GL265918  13.098  37.827   5.691
 5133POPC   C1A65919  12.718  37.716   6.016
 5133POPC   D2A65920  12.841  37.741   6.473
 5133POPC   C3A65921  12.627  37.653   6.854
 5133POPC   C4A65922  12.618  37.570   7.285
 5133POPC   C1B65923  13.197  37.879   6.122
 5133POPC   C2B65924  13.315  37.928   6.565
 5133POPC   C3B65925  13.094  37.840   6.944
 5133POPC   C4B65926  13.094  37.870   7.377
 5134POPC   NC365927  34.710   8.381   5.538
 5134POPC   PO465928  34.531   9.101   5.366
 5134POPC   GL165929  34.619   8.874   5.726
 5134POPC   GL265930  34.324   8.678   5.787
 5134POPC   C1A65931  34.793   8.943   6.159
 5134POPC   D2A65932  34.614   9.051   6.577
 5134POPC   C3A65933  34.821   8.910   6.958
 5134POPC   C4A65934  34.993   8.472   7.039
 5134POPC   C1B65935  34.369   8.604   6.234
 5134POPC   C2B65936  34.210   8.724   6.653
 5134POPC   C3B65937  34.377   8.691   7.093
 5134POPC   C4B65938  34.280   8.774   7.558
 5135POPC   NC365939   2.456  39.420   5.253
 5135POPC   PO465940   3.012  39.131   5.476
 5135POPC   GL165941   2.909  39.321   5.877
 5135POPC   GL265942   2.568  39.464   5.749
 5135POPC   C1A65943   2.798  39.130   6.302
 5135POPC   D2A65944   2.937  39.213   6.681
 5135POPC   C3A65945   2.731  39.110   7.021
 5135POPC   C4A65946   2.936  39.228   7.329
 5135POPC   C1B65947   2.522  39.516   6.158
 5135POPC   C2B65948   2.701  39.630   6.516
 5135POPC   C3B65949   2.734  39.624   6.937
 5135POPC   C4B65950   2.497  39.495   7.258
 5136POPC   NC365951  40.857   7.842   5.443
 5136POPC   PO465952  40.449   8.366   5.294
 5136POPC   GL165953  40.561   8.178   5.724
 5136POPC   GL265954  40.913   8.215   5.773
 5136POPC   C1A65955  40.665   8.090   6.189
 5136POPC   D2A65956  40.693   8.335   6.564
 5136POPC   C3A65957  40.852   8.209   6.940
 5136POPC   C4A65958  40.667   8.048   7.298
 5136POPC   C1B65959  41.098   8.397   6.109
 5136POPC   C2B65960  41.009   8.738   6.381
 5136POPC   C3B65961  40.964   8.709   6.814
 5136POPC   C4B65962  41.283   8.513   7.073
 5137POPC   NC365963  44.747  27.371   5.483
 5137POPC   PO465964  44.546  28.039   5.383
 5137POPC   GL165965  44.614  27.870   5.816
 5137POPC   GL265966  44.593  27.522   5.931
 5137POPC   C1A65967  44.930  27.835   6.171
 5137POPC   D2A65968   0.008  27.793   6.636
 5137POPC   C3A65969  44.704  27.774   6.964
 5137POPC   C4A65970  44.522  27.689   7.342
 5137POPC   C1B65971  44.830  27.337   6.284
 5137POPC   C2B65972  44.722  27.333   6.710
 5137POPC   C3B65973  44.823  27.285   7.130
 5137POPC   C4B65974  44.581  27.177   7.498
 5138POPC   NC365975  24.766  36.178   5.490
 5138POPC   PO465976  25.369  35.869   5.255
 5138POPC   GL165977  25.296  36.086   5.676
 5138POPC   GL265978  25.046  36.036   5.910
 5138POPC   C1A65979  25.537  36.142   6.090
 5138POPC   D2A65980  25.616  36.332   6.503
 5138POPC   C3A65981  25.399  36.166   6.852
 5138POPC   C4A65982  25.552  36.219   7.251
 5138POPC   C1B65983  24.968  36.165   6.321
 5138POPC   C2B65984  24.839  36.164   6.730
 5138POPC   C3B65985  24.960  36.303   7.147
 5138POPC   C4B65986  24.973  36.031   7.492
 5139POPC   NC365987  37.753   2.302   5.468
 5139POPC   PO465988  37.852   1.603   5.532
 5139POPC   GL165989  37.673   1.794   5.868
 5139POPC   GL265990  37.549   2.095   5.912
 5139POPC   C1A65991  37.608   1.626   6.250
 5139POPC   D2A65992  37.394   1.553   6.633
 5139POPC   C3A65993  37.596   1.710   7.016
 5139POPC   C4A65994  37.843   1.964   7.322
 5139POPC   C1B65995  37.626   2.269   6.344
 5139POPC   C2B65996  37.511   2.201   6.784
 5139POPC   C3B65997  37.620   2.408   7.184
 5139POPC   C4B65998  37.513   2.294   7.640
 5140POPC   NC365999  35.720  26.468   5.409
 5140POPC   PO466000  35.185  26.775   5.587
 5140POPC   GL166001  35.390  26.802   5.951
 5140POPC   GL266002  35.720  26.650   5.916
 5140POPC   C1A66003  35.186  26.843   6.331
 5140POPC   D2A66004  35.302  26.780   6.756
 5140POPC   C3A66005  35.166  27.090   7.036
 5140POPC   C4A66006  35.434  27.184   7.384
 5140POPC   C1B66007  35.650  26.648   6.381
 5140POPC   C2B66008  35.789  26.395   6.715
 5140POPC   C3B66009  35.493  26.382   7.023
 5140POPC   C4B66010  35.369  26.677   7.299
 5141POPC   NC366011  10.871  26.979   5.422
 5141POPC   PO466012  10.425  26.621   5.198
 5141POPC   GL166013  10.562  26.723   5.698
 5141POPC   GL266014  10.442  26.516   5.961
 5141POPC   C1A66015  10.655  26.956   6.099
 5141POPC   D2A66016  10.718  26.929   6.562
 5141POPC   C3A66017  10.452  27.096   6.872
 5141POPC   C4A66018  10.711  27.123   7.220
 5141POPC   C1B66019  10.474  26.531   6.355
 5141POPC   C2B66020  10.335  26.610   6.730
 5141POPC   C3B66021  10.490  26.642   7.121
 5141POPC   C4B66022  10.404  26.414   7.462
 5142POPC   NC366023  15.412  10.497   5.319
 5142POPC   PO466024  14.733  10.661   5.348
 5142POPC   GL166025  15.069  10.641   5.713
 5142POPC   GL266026  15.365  10.419   5.815
 5142POPC   C1A66027  15.159  10.752   6.169
 5142POPC   D2A66028  14.905  10.715   6.590
 5142POPC   C3A66029  15.052  10.853   7.005
 5142POPC   C4A66030  14.993  10.701   7.437
 5142POPC   C1B66031  15.403  10.297   6.220
 5142POPC   C2B66032  15.406  10.525   6.581
 5142POPC   C3B66033  15.362  10.443   6.994
 5142POPC   C4B66034  15.623  10.668   7.239
 5143POPC   NC366035  35.012  23.852   5.396
 5143POPC   PO466036  34.347  23.771   5.322
 5143POPC   GL166037  34.503  23.660   5.729
 5143POPC   GL266038  34.800  23.489   5.656
 5143POPC   C1A66039  34.451  23.776   6.185
 5143POPC   D2A66040  34.527  24.157   6.476
 5143POPC   C3A66041  34.761  24.085   6.884
 5143POPC   C4A66042  34.673  23.952   7.308
 5143POPC   C1B66043  34.829  23.415   6.081
 5143POPC   C2B66044  34.933  23.437   6.538
 5143POPC   C3B66045  34.735  23.536   6.944
 5143POPC   C4B66046  34.517  23.370   7.298
 5144POPC   NC366047  25.754  36.033   5.444
 5144POPC   PO466048  26.258  36.500   5.500
 5144POPC   GL166049  26.072  36.259   5.891
 5144POPC   GL266050  25.957  35.905   5.899
 5144POPC   C1A66051  26.081  36.114   6.349
 5144POPC   D2A66052  26.417  36.121   6.673
 5144POPC   C3A66053  26.356  36.408   7.005
 5144POPC   C4A66054  26.102  36.332   7.355
 5144POPC   C1B66055  25.773  35.675   6.245
 5144POPC   C2B66056  25.678  35.821   6.628
 5144POPC   C3B66057  25.926  36.030   6.962
 5144POPC   C4B66058  25.895  35.862   7.408
 5145POPC   NC366059  10.791  18.562   5.506
 5145POPC   PO466060  10.392  18.087   5.230
 5145POPC   GL166061  10.390  18.206   5.674
 5145POPC   GL266062  10.071  18.329   5.789
 5145POPC   C1A66063  10.535  18.352   6.105
 5145POPC   D2A66064  10.461  18.303   6.539
 5145POPC   C3A66065  10.380  18.582   6.889
 5145POPC   C4A66066  10.317  18.462   7.341
 5145POPC   C1B66067  10.004  18.102   6.192
 5145POPC   C2B66068  10.113  17.927   6.583
 5145POPC   C3B66069  10.207  18.125   6.981
 5145POPC   C4B66070  10.018  18.039   7.426
 5146POPC   NC366071  31.719  16.263   5.529
 5146POPC   PO466072  31.741  15.658   5.542
 5146POPC   GL166073  31.455  15.849   5.843
 5146POPC   GL266074  31.446  16.212   5.950
 5146POPC   C1A66075  31.400  15.803   6.283
 5146POPC   D2A66076  31.605  15.929   6.662
 5146POPC   C3A66077  31.525  15.702   7.023
 5146POPC   C4A66078  31.389  15.732   7.459
 5146POPC   C1B66079  31.165  16.247   6.316
 5146POPC   C2B66080  31.175  16.187   6.770
 5146POPC   C3B66081  31.387  16.184   7.171
 5146POPC   C4B66082  31.202  16.235   7.601
 5147POPC   NC366083  24.991   3.303   5.484
 5147POPC   PO466084  25.520   3.521   5.143
 5147POPC   GL166085  25.480   3.428   5.617
 5147POPC   GL266086  25.200   3.656   5.787
 5147POPC   C1A66087  25.455   3.381   6.117
 5147POPC   D2A66088  25.330   3.560   6.567
 5147POPC   C3A66089  25.572   3.540   6.972
 5147POPC   C4A66090  25.436   3.629   7.404
 5147POPC   C1B66091  24.931   3.708   6.171
 5147POPC   C2B66092  24.861   3.754   6.646
 5147POPC   C3B66093  25.059   3.616   7.061
 5147POPC   C4B66094  24.959   3.406   7.503
 5148POPC   NC366095  26.988   5.549   5.497
 5148POPC   PO466096  26.581   5.065   5.401
 5148POPC   GL166097  26.709   5.244   5.809
 5148POPC   GL266098  27.031   5.075   5.821
 5148POPC   C1A66099  26.817   5.229   6.271
 5148POPC   D2A66100  26.756   4.966   6.647
 5148POPC   C3A66101  26.926   5.152   7.036
 5148POPC   C4A66102  26.699   5.089   7.412
 5148POPC   C1B66103  26.982   4.750   6.159
 5148POPC   C2B66104  27.209   4.636   6.553
 5148POPC   C3B66105  27.119   4.690   6.972
 5148POPC   C4B66106  27.178   4.880   7.399
 5149POPC   NC366107  20.196   1.402   5.304
 5149POPC   PO466108  20.831   1.431   5.119
 5149POPC   GL166109  20.713   1.293   5.601
 5149POPC   GL266110  20.352   1.246   5.762
 5149POPC   C1A66111  20.738   1.016   6.004
 5149POPC   D2A66112  20.767   1.109   6.460
 5149POPC   C3A66113  20.513   1.008   6.818
 5149POPC   C4A66114  20.645   1.129   7.219
 5149POPC   C1B66115  20.474   1.424   6.153
 5149POPC   C2B66116  20.403   1.473   6.585
 5149POPC   C3B66117  20.531   1.569   6.991
 5149POPC   C4B66118  20.403   1.522   7.443
 5150POPC   NC366119  35.103  20.553   5.545
 5150POPC   PO466120  34.428  20.668   5.369
 5150POPC   GL166121  34.288  20.796   5.798
 5150POPC   GL266122  34.646  20.741   5.887
 5150POPC   C1A66123  34.296  20.679   6.283
 5150POPC   D2A66124  34.465  20.365   6.586
 5150POPC   C3A66125  34.427  20.339   7.038
 5150POPC   C4A66126  34.780  20.441   7.298
 5150POPC   C1B66127  34.803  20.935   6.263
 5150POPC   C2B66128  34.559  20.964   6.637
 5150POPC   C3B66129  34.532  20.878   7.077
 5150POPC   C4B66130  34.816  21.134   7.319
 5151POPC   NC366131  33.208   1.422   5.471
 5151POPC   PO466132  32.768   0.882   5.298
 5151POPC   GL166133  32.820   1.055   5.744
 5151POPC   GL266134  33.172   1.105   5.863
 5151POPC   C1A66135  32.831   1.254   6.186
 5151POPC   D2A66136  32.971   1.347   6.577
 5151POPC   C3A66137  33.061   1.082   6.888
 5151POPC   C4A66138  32.969   1.207   7.265
 5151POPC   C1B66139  33.316   1.474   6.157
 5151POPC   C2B66140  33.327   1.697   6.586
 5151POPC   C3B66141  33.268   1.553   7.030
 5151POPC   C4B66142  33.179   1.624   7.502
 5152POPC   NC366143  42.545  40.873   5.509
 5152POPC   PO466144  43.048  40.918   5.051
 5152POPC   GL166145  43.236  40.962   5.504
 5152POPC   GL266146  42.993  40.764   5.710
 5152POPC   C1A66147  43.302  40.998   6.014
 5152POPC   D2A66148  43.042  41.212   6.373
 5152POPC   C3A66149  43.031  41.122   6.838
 5152POPC   C4A66150  42.984  40.910   7.272
 5152POPC   C1B66151  42.836  40.783   6.157
 5152POPC   C2B66152  42.947  40.679   6.605
 5152POPC   C3B66153  43.189  40.542   6.993
 5152POPC   C4B66154  43.149  40.465   7.455
 5153POPC   NC366155  30.922  31.095   5.485
 5153POPC   PO466156  31.584  31.413   5.231
 5153POPC   GL166157  31.674  31.285   5.680
 5153POPC   GL266158  31.331  31.262   5.743
 5153POPC   C1A66159  31.572  31.456   6.141
 5153POPC   D2A66160  31.387  31.569   6.553
 5153POPC   C3A66161  31.517  31.395   6.960
 5153POPC   C4A66162  31.423  31.563   7.377
 5153POPC   C1B66163  31.114  31.222   6.148
 5153POPC   C2B66164  31.053  31.170   6.576
 5153POPC   C3B66165  31.182  31.013   6.952
 5153POPC   C4B66166  31.118  31.161   7.333
 5154POPC   NC366167   2.062  26.803   5.469
 5154POPC   PO466168   1.394  26.608   5.326
 5154POPC   GL166169   1.626  26.664   5.753
 5154POPC   GL266170   1.869  26.943   5.919
 5154POPC   C1A66171   1.676  26.564   6.188
 5154POPC   D2A66172   1.804  26.853   6.490
 5154POPC   C3A66173   1.872  26.681   6.884
 5154POPC   C4A66174   1.862  26.842   7.302
 5154POPC   C1B66175   2.200  26.736   6.166
 5154POPC   C2B66176   2.278  26.577   6.593
 5154POPC   C3B66177   2.338  26.806   7.002
 5154POPC   C4B66178   2.479  26.632   7.378
 5155POPC   NC366179   6.440  16.923   5.298
 5155POPC   PO466180   6.869  16.537   5.194
 5155POPC   GL166181   6.614  16.593   5.649
 5155POPC   GL266182   6.610  16.963   5.811
 5155POPC   C1A66183   6.563  16.580   6.121
 5155POPC   D2A66184   6.554  16.855   6.520
 5155POPC   C3A66185   6.571  16.723   6.954
 5155POPC   C4A66186   6.394  16.936   7.328
 5155POPC   C1B66187   6.919  17.006   6.197
 5155POPC   C2B66188   7.054  16.912   6.604
 5155POPC   C3B66189   6.972  17.052   7.003
 5155POPC   C4B66190   6.882  16.843   7.365
 5156POPC   NC366191  18.572  21.844   5.481
 5156POPC   PO466192  17.944  22.171   5.414
 5156POPC   GL166193  18.228  22.242   5.762
 5156POPC   GL266194  18.584  22.295   5.706
 5156POPC   C1A66195  18.261  22.044   6.165
 5156POPC   D2A66196  18.146  21.782   6.521
 5156POPC   C3A66197  18.205  21.886   6.959
 5156POPC   C4A66198  18.048  22.244   7.223
 5156POPC   C1B66199  18.758  22.079   6.064
 5156POPC   C2B66200  18.656  22.133   6.496
 5156POPC   C3B66201  18.411  22.319   6.845
 5156POPC   C4B66202  18.565  22.133   7.251
 5157POPC   NC366203  34.585  19.934   5.370
 5157POPC   PO466204  34.769  19.275   5.349
 5157POPC   GL166205  34.643  19.563   5.717
 5157POPC   GL266206  34.943  19.813   5.733
 5157POPC   C1A66207  34.421  19.682   6.137
 5157POPC   D2A66208  34.274  19.882   6.568
 5157POPC   C3A66209  34.447  19.664   6.951
 5157POPC   C4A66210  34.528  19.905   7.315
 5157POPC   C1B66211  34.935  19.641   6.144
 5157POPC   C2B66212  34.755  19.686   6.542
 5157POPC   C3B66213  34.803  20.016   6.856
 5157POPC   C4B66214  35.025  19.977   7.241
 5158POPC   NC366215  13.122  44.471   5.564
 5158POPC   PO466216  12.685   0.055   5.785
 5158POPC   GL166217  12.909  44.725   5.958
 5158POPC   GL266218  13.237  44.824   5.876
 5158POPC   C1A66219  12.994  44.448   6.324
 5158POPC   D2A66220  12.993  44.198   6.712
 5158POPC   C3A66221  12.750  44.449   7.026
 5158POPC   C4A66222  12.681  44.490   7.476
 5158POPC   C1B66223  13.433  44.643   6.169
 5158POPC   C2B66224  13.450  44.683   6.575
 5158POPC   C3B66225  13.249  44.612   6.926
 5158POPC   C4B66226  13.038  44.825   7.232
 5159POPC   NC366227   4.644  43.390   4.956
 5159POPC   PO466228   4.072  43.211   5.310
 5159POPC   GL166229   4.197  43.157   5.764
 5159POPC   GL266230   4.485  42.943   5.769
 5159POPC   C1A66231   4.225  43.021   6.202
 5159POPC   D2A66232   4.482  42.878   6.526
 5159POPC   C3A66233   4.256  42.953   6.863
 5159POPC   C4A66234   4.218  43.114   7.257
 5159POPC   C1B66235   4.618  43.301   6.066
 5159POPC   C2B66236   4.659  43.393   6.492
 5159POPC   C3B66237   4.465  43.422   6.896
 5159POPC   C4B66238   4.596  43.561   7.268
 5160POPC   NC366239   6.859  19.200   5.312
 5160POPC   PO466240   6.140  19.089   5.458
 5160POPC   GL166241   6.470  19.190   5.775
 5160POPC   GL266242   6.799  19.012   5.762
 5160POPC   C1A66243   6.600  19.038   6.207
 5160POPC   D2A66244   6.600  19.155   6.605
 5160POPC   C3A66245   6.710  18.856   6.900
 5160POPC   C4A66246   6.622  19.116   7.241
 5160POPC   C1B66247   7.067  19.200   6.084
 5160POPC   C2B66248   7.142  19.193   6.487
 5160POPC   C3B66249   7.042  19.238   6.875
 5160POPC   C4B66250   7.195  19.027   7.167
 5161POPC   NC366251  28.112  41.931   5.611
 5161POPC   PO466252  28.402  41.349   5.417
 5161POPC   GL166253  28.297  41.353   5.844
 5161POPC   GL266254  28.618  41.170   5.881
 5161POPC   C1A66255  28.162  41.223   6.275
 5161POPC   D2A66256  28.279  41.209   6.709
 5161POPC   C3A66257  28.290  41.614   6.963
 5161POPC   C4A66258  28.228  41.862   7.372
 5161POPC   C1B66259  28.655  41.405   6.255
 5161POPC   C2B66260  28.729  41.461   6.681
 5161POPC   C3B66261  28.642  41.262   7.075
 5161POPC   C4B66262  28.686  41.212   7.547
 5162POPC   NC366263  25.938  33.645   5.399
 5162POPC   PO466264  25.971  34.329   5.473
 5162POPC   GL166265  25.956  34.080   5.843
 5162POPC   GL266266  26.149  33.752   5.844
 5162POPC   C1A66267  25.804  33.924   6.256
 5162POPC   D2A66268  25.905  33.653   6.641
 5162POPC   C3A66269  25.985  33.881   7.049
 5162POPC   C4A66270  25.883  33.997   7.509
 5162POPC   C1B66271  26.480  33.565   6.116
 5162POPC   C2B66272  26.443  33.514   6.550
 5162POPC   C3B66273  26.428  33.664   6.935
 5162POPC   C4B66274  26.370  33.786   7.370
 5163POPC   NC366275   0.812  44.775   5.343
 5163POPC   PO466276   0.190  44.982   5.518
 5163POPC   GL166277   0.465  44.810   5.851
 5163POPC   GL266278   0.654  44.520   5.766
 5163POPC   C1A66279   0.463  44.751   6.323
 5163POPC   D2A66280   0.497  44.715   6.795
 5163POPC   C3A66281   0.353   0.010   7.111
 5163POPC   C4A66282   0.279   0.124   7.559
 5163POPC   C1B66283   0.528  44.284   6.124
 5163POPC   C2B66284   0.349  44.226   6.524
 5163POPC   C3B66285   0.553  44.216   6.903
 5163POPC   C4B66286   0.682  44.330   7.295
 5164POPC   NC366287  11.850  15.286   5.545
 5164POPC   PO466288  12.390  14.934   5.735
 5164POPC   GL166289  12.066  15.139   5.980
 5164POPC   GL266290  12.156  15.508   5.922
 5164POPC   C1A66291  11.873  15.077   6.388
 5164POPC   D2A66292  11.912  15.378   6.744
 5164POPC   C3A66293  11.920  15.214   7.155
 5164POPC   C4A66294  11.850  15.432   7.557
 5164POPC   C1B66295  12.288  15.410   6.367
 5164POPC   C2B66296  12.299  15.046   6.698
 5164POPC   C3B66297  12.290  14.846   7.154
 5164POPC   C4B66298  12.335  14.928   7.632
 5165POPC   NC366299  35.676   6.806   5.533
 5165POPC   PO466300  35.019   6.947   5.527
 5165POPC   GL166301  35.178   6.602   5.790
 5165POPC   GL266302  35.489   6.379   5.781
 5165POPC   C1A66303  35.173   6.448   6.223
 5165POPC   D2A66304  34.959   6.413   6.626
 5165POPC   C3A66305  35.082   6.623   6.990
 5165POPC   C4A66306  35.523   6.589   7.040
 5165POPC   C1B66307  35.683   6.375   6.184
 5165POPC   C2B66308  35.536   6.301   6.599
 5165POPC   C3B66309  35.801   6.169   6.922
 5165POPC   C4B66310  35.740   6.154   7.350
 5166POPC   NC366311  30.946  16.745   5.450
 5166POPC   PO466312  30.290  16.920   5.694
 5166POPC   GL166313  30.595  16.534   5.824
 5166POPC   GL266314  30.985  16.465   5.871
 5166POPC   C1A66315  30.651  16.289   6.203
 5166POPC   D2A66316  30.804  16.487   6.586
 5166POPC   C3A66317  30.556  16.499   6.932
 5166POPC   C4A66318  30.354  16.839   7.133
 5166POPC   C1B66319  30.959  16.829   6.142
 5166POPC   C2B66320  30.988  17.070   6.525
 5166POPC   C3B66321  30.876  16.920   6.922
 5166POPC   C4B66322  31.119  16.618   7.105
 5167POPC   NC366323   0.823  26.173   5.314
 5167POPC   PO466324   0.163  25.995   5.467
 5167POPC   GL166325   0.351  26.050   5.873
 5167POPC   GL266326   0.683  26.177   5.816
 5167POPC   C1A66327   0.546  25.816   6.224
 5167POPC   D2A66328   0.776  25.922   6.606
 5167POPC   C3A66329   0.492  25.927   6.956
 5167POPC   C4A66330   0.256  26.049   7.318
 5167POPC   C1B66331   0.706  26.297   6.243
 5167POPC   C2B66332   0.483  26.360   6.651
 5167POPC   C3B66333   0.552  26.431   7.107
 5167POPC   C4B66334   0.669  26.448   7.554
 5168POPC   NC366335  25.669  40.484   5.333
 5168POPC   PO466336  26.077  41.016   5.510
 5168POPC   GL166337  26.186  40.920   5.929
 5168POPC   GL266338  26.281  40.600   5.886
 5168POPC   C1A66339  25.997  40.971   6.342
 5168POPC   D2A66340  26.015  40.732   6.739
 5168POPC   C3A66341  25.996  41.004   7.108
 5168POPC   C4A66342  25.977  41.286   7.473
 5168POPC   C1B66343  26.070  40.344   6.206
 5168POPC   C2B66344  25.858  40.232   6.596
 5168POPC   C3B66345  25.980  40.279   7.029
 5168POPC   C4B66346  26.008  40.568   7.372
 5169POPC   NC366347   7.594  43.515   5.586
 5169POPC   PO466348   7.100  42.905   5.442
 5169POPC   GL166349   7.199  43.202   5.689
 5169POPC   GL266350   7.514  43.064   5.801
 5169POPC   C1A66351   7.189  43.309   6.105
 5169POPC   D2A66352   7.485  43.275   6.456
 5169POPC   C3A66353   7.413  43.407   6.881
 5169POPC   C4A66354   7.380  43.219   7.304
 5169POPC   C1B66355   7.458  42.849   6.169
 5169POPC   C2B66356   7.345  42.768   6.579
 5169POPC   C3B66357   7.563  42.902   6.947
 5169POPC   C4B66358   7.854  42.672   7.178
 5170POPC   NC366359   7.763  41.143   5.551
 5170POPC   PO466360   7.602  40.527   5.361
 5170POPC   GL166361   7.367  40.596   5.772
 5170POPC   GL266362   7.665  40.762   5.879
 5170POPC   C1A66363   7.376  40.587   6.245
 5170POPC   D2A66364   7.704  40.588   6.571
 5170POPC   C3A66365   7.547  40.635   6.989
 5170POPC   C4A66366   7.251  40.944   7.027
 5170POPC   C1B66367   7.648  41.075   6.249
 5170POPC   C2B66368   7.663  41.267   6.667
 5170POPC   C3B66369   7.729  41.142   7.088
 5170POPC   C4B66370   7.697  40.886   7.456
 5171POPC   NC366371   1.996  34.840   5.510
 5171POPC   PO466372   2.030  35.461   5.356
 5171POPC   GL166373   2.073  35.313   5.780
 5171POPC   GL266374   1.746  35.158   5.851
 5171POPC   C1A66375   2.042  35.454   6.227
 5171POPC   D2A66376   1.737  35.550   6.590
 5171POPC   C3A66377   1.955  35.580   6.957
 5171POPC   C4A66378   1.867  35.558   7.361
 5171POPC   C1B66379   1.825  34.993   6.266
 5171POPC   C2B66380   2.024  35.138   6.652
 5171POPC   C3B66381   1.794  35.093   6.975
 5171POPC   C4B66382   1.725  34.701   7.180
 5172POPC   NC366383  29.147  35.733   5.414
 5172POPC   PO466384  29.331  35.063   5.382
 5172POPC   GL166385  29.285  35.338   5.759
 5172POPC   GL266386  28.946  35.449   5.901
 5172POPC   C1A66387  29.284  35.155   6.176
 5172POPC   D2A66388  29.442  35.028   6.586
 5172POPC   C3A66389  29.108  35.148   6.867
 5172POPC   C4A66390  29.089  35.353   7.274
 5172POPC   C1B66391  29.051  35.623   6.350
 5172POPC   C2B66392  29.029  35.697   6.844
 5172POPC   C3B66393  28.750  35.721   7.214
 5172POPC   C4B66394  28.731  35.461   7.613
 5173POPC   NC366395   4.379  38.556   5.330
 5173POPC   PO466396   3.671  38.722   5.363
 5173POPC   GL166397   4.042  38.653   5.717
 5173POPC   GL266398   4.179  38.290   5.777
 5173POPC   C1A66399   4.211  38.576   6.208
 5173POPC   D2A66400   4.414  38.287   6.580
 5173POPC   C3A66401   4.468  38.455   7.032
 5173POPC   C4A66402   4.465  38.887   7.217
 5173POPC   C1B66403   4.040  38.082   6.184
 5173POPC   C2B66404   3.928  38.129   6.626
 5173POPC   C3B66405   4.162  38.036   7.033
 5173POPC   C4B66406   4.399  38.115   7.449
 5174POPC   NC366407  11.531  42.333   5.377
 5174POPC   PO466408  10.942  42.619   5.313
 5174POPC   GL166409  11.118  42.471   5.724
 5174POPC   GL266410  10.990  42.174   5.928
 5174POPC   C1A66411  11.280  42.525   6.151
 5174POPC   D2A66412  11.298  42.201   6.452
 5174POPC   C3A66413  11.365  42.331   6.863
 5174POPC   C4A66414  11.063  42.429   7.152
 5174POPC   C1B66415  10.802  42.090   6.334
 5174POPC   C2B66416  10.825  41.900   6.753
 5174POPC   C3B66417  10.982  41.942   7.178
 5174POPC   C4B66418  11.202  42.122   7.547
 5175POPC   NC366419   2.435  16.372   5.514
 5175POPC   PO466420   1.975  16.849   5.410
 5175POPC   GL166421   1.913  16.647   5.774
 5175POPC   GL266422   2.255  16.754   5.869
 5175POPC   C1A66423   1.956  16.517   6.195
 5175POPC   D2A66424   2.146  16.777   6.497
 5175POPC   C3A66425   1.953  16.669   6.864
 5175POPC   C4A66426   1.980  16.692   7.301
 5175POPC   C1B66427   2.311  17.136   6.131
 5175POPC   C2B66428   2.349  17.268   6.553
 5175POPC   C3B66429   2.187  17.127   6.949
 5175POPC   C4B66430   2.262  17.108   7.403
 5176POPC   NC366431  10.055  22.333   5.539
 5176POPC   PO466432   9.581  21.927   5.393
 5176POPC   GL166433   9.663  21.999   5.801
 5176POPC   GL266434   9.573  22.347   5.814
 5176POPC   C1A66435   9.935  22.011   6.165
 5176POPC   D2A66436  10.136  22.243   6.521
 5176POPC   C3A66437  10.021  22.372   6.950
 5176POPC   C4A66438  10.022  22.122   7.356
 5176POPC   C1B66439   9.450  22.183   6.242
 5176POPC   C2B66440   9.590  22.234   6.674
 5176POPC   C3B66441   9.547  22.267   7.117
 5176POPC   C4B66442   9.362  22.517   7.453
 5177POPC   NC366443  36.954  41.588   5.137
 5177POPC   PO466444  37.259  41.627   5.639
 5177POPC   GL166445  36.817  41.600   5.821
 5177POPC   GL266446  36.811  41.232   5.891
 5177POPC   C1A66447  36.537  41.492   6.224
 5177POPC   D2A66448  36.702  41.428   6.655
 5177POPC   C3A66449  36.890  41.745   6.910
 5177POPC   C4A66450  36.659  41.676   7.260
 5177POPC   C1B66451  37.044  41.425   6.246
 5177POPC   C2B66452  37.247  41.448   6.640
 5177POPC   C3B66453  37.291  41.119   6.912
 5177POPC   C4B66454  37.046  41.316   7.219
 5178POPC   NC366455  16.099  34.322   5.193
 5178POPC   PO466456  15.543  34.612   5.443
 5178POPC   GL166457  15.714  34.644   5.834
 5178POPC   GL266458  16.082  34.576   5.778
 5178POPC   C1A66459  15.733  34.581   6.269
 5178POPC   D2A66460  15.935  34.748   6.624
 5178POPC   C3A66461  15.753  34.484   6.880
 5178POPC   C4A66462  15.461  34.412   7.144
 5178POPC   C1B66463  16.276  34.648   6.225
 5178POPC   C2B66464  16.414  34.513   6.656
 5178POPC   C3B66465  16.222  34.602   7.071
 5178POPC   C4B66466  16.172  34.869   7.455
 5179POPC   NC366467  14.061  31.087   5.319
 5179POPC   PO466468  14.439  30.573   5.529
 5179POPC   GL166469  14.356  30.724   5.888
 5179POPC   GL266470  14.219  31.021   5.793
 5179POPC   C1A66471  14.581  30.674   6.269
 5179POPC   D2A66472  14.624  30.387   6.610
 5179POPC   C3A66473  14.614  30.601   6.992
 5179POPC   C4A66474  14.241  30.537   7.212
 5179POPC   C1B66475  14.234  31.066   6.229
 5179POPC   C2B66476  14.285  30.861   6.648
 5179POPC   C3B66477  14.117  31.015   7.028
 5179POPC   C4B66478  14.298  31.269   7.355
 5180POPC   NC366479  14.687  19.556   5.401
 5180POPC   PO466480  14.268  18.928   5.474
 5180POPC   GL166481  14.381  19.098   5.874
 5180POPC   GL266482  14.685  19.247   5.847
 5180POPC   C1A66483  14.422  19.159   6.343
 5180POPC   D2A66484  14.312  19.483   6.672
 5180POPC   C3A66485  14.444  19.314   7.066
 5180POPC   C4A66486  14.492  18.937   7.309
 5180POPC   C1B66487  14.731  18.825   6.111
 5180POPC   C2B66488  14.632  18.709   6.554
 5180POPC   C3B66489  14.789  18.656   7.003
 5180POPC   C4B66490  14.995  18.712   7.404
 5181POPC   NC366491  12.144  43.504   5.398
 5181POPC   PO466492  11.873  42.800   5.385
 5181POPC   GL166493  11.975  43.091   5.676
 5181POPC   GL266494  12.319  43.007   5.754
 5181POPC   C1A66495  11.994  43.278   6.071
 5181POPC   D2A66496  12.202  43.281   6.475
 5181POPC   C3A66497  12.009  43.315   6.881
 5181POPC   C4A66498  11.791  43.606   7.141
 5181POPC   C1B66499  12.201  42.821   6.179
 5181POPC   C2B66500  12.056  42.812   6.634
 5181POPC   C3B66501  12.213  42.883   7.060
 5181POPC   C4B66502  12.312  42.825   7.495
 5182POPC   NC366503  13.704  41.300   5.452
 5182POPC   PO466504  13.369  41.937   5.523
 5182POPC   GL166505  13.613  41.738   5.845
 5182POPC   GL266506  13.491  41.405   5.921
 5182POPC   C1A66507  13.857  41.580   6.204
 5182POPC   D2A66508  13.646  41.339   6.520
 5182POPC   C3A66509  13.632  41.578   6.899
 5182POPC   C4A66510  13.645  41.450   7.346
 5182POPC   C1B66511  13.315  41.684   6.288
 5182POPC   C2B66512  13.169  41.765   6.744
 5182POPC   C3B66513  13.314  41.817   7.203
 5182POPC   C4B66514  13.368  41.957   7.626
 5183POPC   NC366515  14.959  32.918   5.544
 5183POPC   PO466516  15.422  33.325   5.361
 5183POPC   GL166517  15.455  33.091   5.783
 5183POPC   GL266518  15.363  32.725   5.832
 5183POPC   C1A66519  15.366  33.061   6.244
 5183POPC   D2A66520  15.221  32.963   6.678
 5183POPC   C3A66521  15.435  33.123   7.070
 5183POPC   C4A66522  15.246  33.233   7.478
 5183POPC   C1B66523  15.021  32.686   6.186
 5183POPC   C2B66524  14.800  32.684   6.602
 5183POPC   C3B66525  14.991  32.643   7.011
 5183POPC   C4B66526  15.116  32.724   7.436
 5184POPC   NC366527  28.596  39.934   5.622
 5184POPC   PO466528  29.206  40.056   5.272
 5184POPC   GL166529  29.081  40.151   5.692
 5184POPC   GL266530  29.189  39.840   5.867
 5184POPC   C1A66531  29.019  40.205   6.153
 5184POPC   D2A66532  29.217  39.998   6.501
 5184POPC   C3A66533  29.322  40.169   6.891
 5184POPC   C4A66534  29.226  40.056   7.290
 5184POPC   C1B66535  28.888  39.680   6.219
 5184POPC   C2B66536  28.840  39.721   6.687
 5184POPC   C3B66537  29.207  39.662   6.962
 5184POPC   C4B66538  29.345  39.565   7.397
 5185POPC   NC366539  21.726   6.724   5.394
 5185POPC   PO466540  21.076   6.621   5.140
 5185POPC   GL166541  21.290   6.758   5.642
 5185POPC   GL266542  21.520   6.575   5.846
 5185POPC   C1A66543  21.273   6.838   6.165
 5185POPC   D2A66544  21.155   6.628   6.582
 5185POPC   C3A66545  21.104   6.752   6.999
 5185POPC   C4A66546  21.376   7.020   7.176
 5185POPC   C1B66547  21.342   6.317   6.203
 5185POPC   C2B66548  21.444   6.152   6.619
 5185POPC   C3B66549  21.405   6.346   7.037
 5185POPC   C4B66550  21.436   6.457   7.493
 5186POPC   NC366551   2.405  10.842   5.337
 5186POPC   PO466552   2.191  10.241   5.507
 5186POPC   GL166553   2.035  10.359   5.908
 5186POPC   GL266554   1.763  10.585   5.840
 5186POPC   C1A66555   1.965  10.381   6.355
 5186POPC   D2A66556   1.935  10.686   6.677
 5186POPC   C3A66557   2.185  10.516   6.998
 5186POPC   C4A66558   2.241  10.274   7.324
 5186POPC   C1B66559   1.534  10.258   6.116
 5186POPC   C2B66560   1.496  10.366   6.572
 5186POPC   C3B66561   1.710  10.319   6.934
 5186POPC   C4B66562   1.760  10.161   7.304
 5187POPC   NC366563  39.929  34.429   5.185
 5187POPC   PO466564  40.350  34.760   5.585
 5187POPC   GL166565  40.090  34.745   5.946
 5187POPC   GL266566  39.767  34.687   5.826
 5187POPC   C1A66567  39.824  34.969   6.260
 5187POPC   D2A66568  39.795  34.973   6.724
 5187POPC   C3A66569  40.136  34.827   6.910
 5187POPC   C4A66570  40.194  34.693   7.272
 5187POPC   C1B66571  39.655  34.481   6.250
 5187POPC   C2B66572  39.931  34.468   6.581
 5187POPC   C3B66573  40.087  34.301   6.974
 5187POPC   C4B66574  39.893  34.293   7.365
 5188POPC   NC366575   6.584  42.776   5.469
 5188POPC   PO466576   6.363  42.173   5.432
 5188POPC   GL166577   6.611  42.118   5.804
 5188POPC   GL266578   6.735  42.455   5.839
 5188POPC   C1A66579   6.718  42.058   6.247
 5188POPC   D2A66580   6.510  42.039   6.657
 5188POPC   C3A66581   6.837  42.172   6.995
 5188POPC   C4A66582   6.806  42.144   7.442
 5188POPC   C1B66583   6.556  42.530   6.232
 5188POPC   C2B66584   6.716  42.506   6.637
 5188POPC   C3B66585   6.466  42.492   7.023
 5188POPC   C4B66586   6.486  42.662   7.472
 5189POPC   NC366587  34.717  29.866   5.291
 5189POPC   PO466588  34.437  30.465   5.449
 5189POPC   GL166589  34.668  30.154   5.750
 5189POPC   GL266590  34.890  29.822   5.753
 5189POPC   C1A66591  34.585  29.953   6.173
 5189POPC   D2A66592  34.391  29.826   6.591
 5189POPC   C3A66593  34.574  30.047   6.964
 5189POPC   C4A66594  34.731  30.227   7.357
 5189POPC   C1B66595  34.863  29.518   6.097
 5189POPC   C2B66596  34.841  29.563   6.532
 5189POPC   C3B66597  34.725  29.545   6.937
 5189POPC   C4B66598  34.486  29.654   7.289
 5190POPC   NC366599  26.839   3.886   5.418
 5190POPC   PO466600  26.699   3.309   5.632
 5190POPC   GL166601  26.573   3.442   6.001
 5190POPC   GL266602  26.543   3.782   5.830
 5190POPC   C1A66603  26.887   3.344   6.336
 5190POPC   D2A66604  27.114   3.344   6.711
 5190POPC   C3A66605  26.814   3.481   7.007
 5190POPC   C4A66606  26.652   3.294   7.373
 5190POPC   C1B66607  26.909   3.791   6.097
 5190POPC   C2B66608  27.007   3.810   6.521
 5190POPC   C3B66609  27.141   3.896   6.913
 5190POPC   C4B66610  26.965   3.896   7.316
 5191POPC   NC366611  22.233  37.240   5.596
 5191POPC   PO466612  22.515  37.852   5.373
 5191POPC   GL166613  22.292  37.714   5.776
 5191POPC   GL266614  21.978  37.865   5.888
 5191POPC   C1A66615  22.271  37.591   6.241
 5191POPC   D2A66616  22.434  37.420   6.640
 5191POPC   C3A66617  22.324  37.528   7.052
 5191POPC   C4A66618  22.163  37.926   7.169
 5191POPC   C1B66619  21.765  37.706   6.253
 5191POPC   C2B66620  21.952  37.698   6.665
 5191POPC   C3B66621  21.826  37.535   7.018
 5191POPC   C4B66622  21.525  37.479   7.293
 5192POPC   NC366623  40.189   3.736   5.562
 5192POPC   PO466624  39.869   3.233   5.223
 5192POPC   GL166625  39.849   3.194   5.730
 5192POPC   GL266626  39.942   3.510   5.929
 5192POPC   C1A66627  40.165   3.112   6.101
 5192POPC   D2A66628  40.075   3.329   6.467
 5192POPC   C3A66629  40.153   3.219   6.901
 5192POPC   C4A66630  39.980   3.147   7.312
 5192POPC   C1B66631  40.055   3.818   6.251
 5192POPC   C2B66632  40.177   3.776   6.662
 5192POPC   C3B66633  40.027   3.703   7.030
 5192POPC   C4B66634  40.262   3.565   7.399
 5193POPC   NC366635  40.925   3.058   5.551
 5193POPC   PO466636  40.394   2.552   5.447
 5193POPC   GL166637  40.643   2.692   5.782
 5193POPC   GL266638  40.763   2.409   5.963
 5193POPC   C1A66639  40.818   2.880   6.182
 5193POPC   D2A66640  40.840   2.714   6.611
 5193POPC   C3A66641  40.641   2.997   6.884
 5193POPC   C4A66642  40.380   2.866   7.210
 5193POPC   C1B66643  41.146   2.479   6.235
 5193POPC   C2B66644  41.354   2.650   6.614
 5193POPC   C3B66645  41.213   2.600   7.030
 5193POPC   C4B66646  40.906   2.791   7.270
 5194POPC   NC366647   0.026   3.646   5.459
 5194POPC   PO466648   0.538   3.227   5.334
 5194POPC   GL166649   0.423   3.406   5.772
 5194POPC   GL266650   0.186   3.687   5.929
 5194POPC   C1A66651   0.465   3.400   6.227
 5194POPC   D2A66652   0.524   3.246   6.630
 5194POPC   C3A66653   0.811   3.492   6.858
 5194POPC   C4A66654   0.749   3.397   7.265
 5194POPC   C1B66655   0.336   3.921   6.254
 5194POPC   C2B66656   0.439   3.768   6.636
 5194POPC   C3B66657   0.349   3.621   7.036
 5194POPC   C4B66658   0.027   3.331   7.183
 5195POPC   NC366659  26.569  38.539   5.265
 5195POPC   PO466660  27.214  38.401   5.237
 5195POPC   GL166661  26.892  38.418   5.649
 5195POPC   GL266662  26.588  38.185   5.631
 5195POPC   C1A66663  26.820  38.675   6.070
 5195POPC   D2A66664  26.775  38.474   6.489
 5195POPC   C3A66665  26.850  38.667   6.895
 5195POPC   C4A66666  26.660  38.520   7.287
 5195POPC   C1B66667  26.440  38.322   6.031
 5195POPC   C2B66668  26.272  38.393   6.444
 5195POPC   C3B66669  26.449  38.245   6.851
 5195POPC   C4B66670  26.238  38.174   7.241
 5196POPC   NC366671  10.165  28.241   5.373
 5196POPC   PO466672  10.408  28.855   5.377
 5196POPC   GL166673  10.400  28.547   5.731
 5196POPC   GL266674  10.736  28.452   5.858
 5196POPC   C1A66675  10.359  28.505   6.189
 5196POPC   D2A66676  10.428  28.710   6.566
 5196POPC   C3A66677  10.430  28.449   6.903
 5196POPC   C4A66678  10.404  28.607   7.276
 5196POPC   C1B66679  10.721  28.131   6.169
 5196POPC   C2B66680  10.488  28.006   6.533
 5196POPC   C3B66681  10.644  27.976   6.948
 5196POPC   C4B66682  10.395  28.077   7.299
 5197POPC   NC366683  39.076  14.113   5.400
 5197POPC   PO466684  39.404  13.533   5.377
 5197POPC   GL166685  39.334  13.629   5.765
 5197POPC   GL266686  38.983  13.684   5.666
 5197POPC   C1A66687  39.458  13.767   6.173
 5197POPC   D2A66688  39.236  13.868   6.554
 5197POPC   C3A66689  39.431  13.825   6.975
 5197POPC   C4A66690  39.479  13.531   7.320
 5197POPC   C1B66691  38.964  13.617   6.129
 5197POPC   C2B66692  38.947  13.392   6.519
 5197POPC   C3B66693  38.984  13.521   6.949
 5197POPC   C4B66694  38.942  13.312   7.324
 5198POPC   NC366695  30.766  27.819   5.136
 5198POPC   PO466696  30.794  28.464   5.270
 5198POPC   GL166697  30.735  28.468   5.739
 5198POPC   GL266698  30.567  28.149   5.761
 5198POPC   C1A66699  30.686  28.440   6.191
 5198POPC   D2A66700  30.723  28.221   6.580
 5198POPC   C3A66701  30.888  28.510   6.874
 5198POPC   C4A66702  30.683  28.681   7.222
 5198POPC   C1B66703  30.477  27.943   6.163
 5198POPC   C2B66704  30.419  27.734   6.547
 5198POPC   C3B66705  30.470  27.916   6.912
 5198POPC   C4B66706  30.751  28.129   7.169
 5199POPC   NC366707  33.048  40.264   5.353
 5199POPC   PO466708  33.015  39.610   5.242
 5199POPC   GL166709  32.801  39.693   5.665
 5199POPC   GL266710  32.692  40.054   5.758
 5199POPC   C1A66711  32.822  39.706   6.144
 5199POPC   D2A66712  33.103  39.928   6.455
 5199POPC   C3A66713  33.126  39.853   6.908
 5199POPC   C4A66714  33.355  39.684   7.276
 5199POPC   C1B66715  32.693  40.203   6.227
 5199POPC   C2B66716  32.692  40.122   6.704
 5199POPC   C3B66717  32.809  40.231   7.121
 5199POPC   C4B66718  33.220  40.206   7.253
 5200POPC   NC366719  26.797  28.446   5.268
 5200POPC   PO466720  27.389  28.321   5.420
 5200POPC   GL166721  27.072  28.547   5.704
 5200POPC   GL266722  26.672  28.496   5.755
 5200POPC   C1A66723  27.026  28.427   6.119
 5200POPC   D2A66724  26.843  28.273   6.464
 5200POPC   C3A66725  26.895  28.541   6.799
 5200POPC   C4A66726  27.080  28.364   7.168
 5200POPC   C1B66727  26.449  28.293   6.113
 5200POPC   C2B66728  26.363  28.137   6.536
 5200POPC   C3B66729  26.629  28.135   6.938
 5200POPC   C4B66730  26.536  28.403   7.261
 5201POPC   NC366731  37.929  36.090   5.438
 5201POPC   PO466732  37.270  36.120   5.192
 5201POPC   GL166733  37.494  36.240   5.660
 5201POPC   GL266734  37.425  35.956   5.946
 5201POPC   C1A66735  37.686  36.305   6.136
 5201POPC   D2A66736  37.625  36.071   6.565
 5201POPC   C3A66737  37.631  36.328   6.975
 5201POPC   C4A66738  37.689  36.334   7.466
 5201POPC   C1B66739  37.331  35.681   6.280
 5201POPC   C2B66740  37.193  35.668   6.696
 5201POPC   C3B66741  37.450  35.844   7.030
 5201POPC   C4B66742  37.850  35.889   7.183
 5202POPC   NC366743  15.545  35.079   5.540
 5202POPC   PO466744  16.154  35.376   5.450
 5202POPC   GL166745  15.908  35.381   5.781
 5202POPC   GL266746  16.026  35.068   5.840
 5202POPC   C1A66747  15.882  35.553   6.179
 5202POPC   D2A66748  16.032  35.445   6.585
 5202POPC   C3A66749  15.862  35.644   6.940
 5202POPC   C4A66750  15.872  35.422   7.311
 5202POPC   C1B66751  15.829  35.066   6.218
 5202POPC   C2B66752  15.549  35.277   6.494
 5202POPC   C3B66753  15.698  35.151   6.887
 5202POPC   C4B66754  15.732  34.862   7.203
 5203POPC   NC366755  44.172   6.742   5.346
 5203POPC   PO466756  43.579   6.494   5.400
 5203POPC   GL166757  43.732   6.721   5.748
 5203POPC   GL266758  44.099   6.718   5.843
 5203POPC   C1A66759  43.704   6.544   6.158
 5203POPC   D2A66760  43.853   6.635   6.558
 5203POPC   C3A66761  43.646   6.464   6.896
 5203POPC   C4A66762  43.797   6.324   7.264
 5203POPC   C1B66763  44.023   6.952   6.195
 5203POPC   C2B66764  44.230   7.003   6.586
 5203POPC   C3B66765  44.094   6.848   6.986
 5203POPC   C4B66766  44.162   7.069   7.342
 5204POPC   NC366767  27.393  17.072   5.353
 5204POPC   PO466768  27.974  16.692   5.358
 5204POPC   GL166769  27.801  16.803   5.749
 5204POPC   GL266770  27.471  16.931   5.846
 5204POPC   C1A66771  27.848  16.689   6.160
 5204POPC   D2A66772  27.848  16.562   6.567
 5204POPC   C3A66773  27.558  16.583   6.849
 5204POPC   C4A66774  27.696  16.617   7.210
 5204POPC   C1B66775  27.187  17.195   6.099
 5204POPC   C2B66776  27.191  17.306   6.529
 5204POPC   C3B66777  27.218  17.299   6.964
 5204POPC   C4B66778  27.264  16.914   7.174
 5205POPC   NC366779  18.163  42.709   5.078
 5205POPC   PO466780  18.507  42.526   5.556
 5205POPC   GL166781  18.483  42.475   5.952
 5205POPC   GL266782  18.336  42.799   5.992
 5205POPC   C1A66783  18.248  42.398   6.311
 5205POPC   D2A66784  18.243  42.107   6.627
 5205POPC   C3A66785  18.102  42.231   7.012
 5205POPC   C4A66786  18.277  42.085   7.387
 5205POPC   C1B66787  18.056  42.871   6.325
 5205POPC   C2B66788  18.032  42.701   6.720
 5205POPC   C3B66789  18.322  42.714   7.049
 5205POPC   C4B66790  18.492  42.538   7.415
 5206POPC   NC366791  31.588  32.713   5.428
 5206POPC   PO466792  31.282  33.298   5.351
 5206POPC   GL166793  31.427  33.140   5.736
 5206POPC   GL266794  31.123  33.073   5.957
 5206POPC   C1A66795  31.609  33.175   6.148
 5206POPC   D2A66796  31.587  33.498   6.457
 5206POPC   C3A66797  31.397  33.353   6.818
 5206POPC   C4A66798  31.313  33.495   7.224
 5206POPC   C1B66799  31.184  33.022   6.413
 5206POPC   C2B66800  31.461  32.723   6.625
 5206POPC   C3B66801  31.554  32.655   7.044
 5206POPC   C4B66802  31.410  33.005   7.234
 5207POPC   NC366803   9.746   3.707   5.478
 5207POPC   PO466804  10.060   3.195   5.260
 5207POPC   GL166805   9.865   3.296   5.759
 5207POPC   GL266806   9.879   3.652   5.960
 5207POPC   C1A66807  10.002   3.219   6.216
 5207POPC   D2A66808  10.026   3.501   6.585
 5207POPC   C3A66809   9.901   3.622   7.017
 5207POPC   C4A66810   9.867   3.921   7.404
 5207POPC   C1B66811   9.601   3.500   6.293
 5207POPC   C2B66812   9.484   3.511   6.746
 5207POPC   C3B66813   9.441   3.830   7.107
 5207POPC   C4B66814   9.207   4.190   7.324
 5208POPC   NC366815  13.757  11.772   5.562
 5208POPC   PO466816  14.283  12.204   5.335
 5208POPC   GL166817  14.432  12.156   5.780
 5208POPC   GL266818  14.433  11.782   5.777
 5208POPC   C1A66819  14.540  12.305   6.185
 5208POPC   D2A66820  14.662  12.119   6.569
 5208POPC   C3A66821  14.809  12.281   6.978
 5208POPC   C4A66822  14.566  12.243   7.356
 5208POPC   C1B66823  14.315  11.828   6.209
 5208POPC   C2B66824  14.353  11.718   6.641
 5208POPC   C3B66825  14.404  11.903   7.006
 5208POPC   C4B66826  14.159  11.865   7.346
 5209POPC   NC366827  12.669  15.288   5.598
 5209POPC   PO466828  13.214  14.975   5.418
 5209POPC   GL166829  13.087  15.071   5.830
 5209POPC   GL266830  13.099  15.420   5.863
 5209POPC   C1A66831  12.823  15.182   6.224
 5209POPC   D2A66832  12.741  15.357   6.630
 5209POPC   C3A66833  12.722  15.063   6.973
 5209POPC   C4A66834  12.772  14.828   7.373
 5209POPC   C1B66835  13.365  15.222   6.226
 5209POPC   C2B66836  13.511  15.176   6.657
 5209POPC   C3B66837  13.194  15.355   6.894
 5209POPC   C4B66838  13.034  15.279   7.291
 5210POPC   NC366839  36.433  42.396   5.359
 5210POPC   PO466840  35.792  42.366   5.516
 5210POPC   GL166841  36.149  42.284   5.786
 5210POPC   GL266842  36.373  42.565   5.827
 5210POPC   C1A66843  36.087  42.268   6.220
 5210POPC   D2A66844  35.860  42.431   6.574
 5210POPC   C3A66845  36.050  42.249   6.928
 5210POPC   C4A66846  36.165  42.434   7.353
 5210POPC   C1B66847  36.520  42.535   6.222
 5210POPC   C2B66848  36.393  42.440   6.605
 5210POPC   C3B66849  36.436  42.632   6.969
 5210POPC   C4B66850  36.592  42.680   7.371
 5211POPC   NC366851  35.743  38.538   5.385
 5211POPC   PO466852  35.107  38.550   5.467
 5211POPC   GL166853  35.349  38.440   5.818
 5211POPC   GL266854  35.573  38.163   5.718
 5211POPC   C1A66855  35.398  38.549   6.272
 5211POPC   D2A66856  35.407  38.632   6.725
 5211POPC   C3A66857  35.279  38.384   7.106
 5211POPC   C4A66858  35.172  38.478   7.564
 5211POPC   C1B66859  35.655  38.148   6.155
 5211POPC   C2B66860  35.666  38.169   6.605
 5211POPC   C3B66861  35.778  38.360   7.004
 5211POPC   C4B66862  35.649  38.297   7.460
 5212POPC   NC366863  25.628  34.518   5.723
 5212POPC   PO466864  26.108  34.859   5.338
 5212POPC   GL166865  26.147  34.645   5.817
 5212POPC   GL266866  26.382  34.374   5.888
 5212POPC   C1A66867  26.023  34.471   6.242
 5212POPC   D2A66868  25.726  34.369   6.576
 5212POPC   C3A66869  25.882  34.580   6.945
 5212POPC   C4A66870  25.704  34.477   7.311
 5212POPC   C1B66871  26.302  34.045   6.216
 5212POPC   C2B66872  26.173  34.074   6.602
 5212POPC   C3B66873  26.315  34.267   6.932
 5212POPC   C4B66874  26.195  34.329   7.298
 5213POPC   NC366875   5.208   7.688   5.578
 5213POPC   PO466876   5.096   7.131   5.202
 5213POPC   GL166877   5.148   7.158   5.714
 5213POPC   GL266878   5.246   7.406   5.994
 5213POPC   C1A66879   4.861   7.102   6.111
 5213POPC   D2A66880   4.771   7.373   6.484
 5213POPC   C3A66881   4.950   7.218   6.879
 5213POPC   C4A66882   4.816   7.021   7.263
 5213POPC   C1B66883   5.048   7.769   6.219
 5213POPC   C2B66884   5.053   7.946   6.629
 5213POPC   C3B66885   5.006   7.733   7.024
 5213POPC   C4B66886   5.182   7.406   7.307
 5214POPC   NC366887  37.115  43.684   5.287
 5214POPC   PO466888  36.453  43.582   5.601
 5214POPC   GL166889  36.736  43.786   5.862
 5214POPC   GL266890  37.081  43.812   5.794
 5214POPC   C1A66891  36.888  43.736   6.277
 5214POPC   D2A66892  37.145  43.810   6.604
 5214POPC   C3A66893  36.864  43.729   6.919
 5214POPC   C4A66894  36.786  43.955   7.252
 5214POPC   C1B66895  37.034  44.179   6.096
 5214POPC   C2B66896  37.152  44.337   6.525
 5214POPC   C3B66897  37.130  44.213   6.937
 5214POPC   C4B66898  37.417  44.265   7.292
 5215POPC   NC366899  21.572   4.189   5.348
 5215POPC   PO466900  21.306   4.811   5.418
 5215POPC   GL166901  21.323   4.488   5.744
 5215POPC   GL266902  21.584   4.262   5.865
 5215POPC   C1A66903  21.129   4.319   6.119
 5215POPC   D2A66904  21.303   4.254   6.502
 5215POPC   C3A66905  21.171   4.079   6.860
 5215POPC   C4A66906  21.238   4.278   7.223
 5215POPC   C1B66907  21.758   4.162   6.299
 5215POPC   C2B66908  21.722   4.105   6.770
 5215POPC   C3B66909  21.743   4.157   7.218
 5215POPC   C4B66910  21.877   4.486   7.547
 5216POPC   NC366911  35.682   1.927   5.034
 5216POPC   PO466912  35.183   1.924   5.575
 5216POPC   GL166913  35.208   2.062   5.926
 5216POPC   GL266914  35.028   2.350   5.986
 5216POPC   C1A66915  35.457   1.925   6.218
 5216POPC   D2A66916  35.402   1.744   6.565
 5216POPC   C3A66917  35.401   1.961   6.945
 5216POPC   C4A66918  35.529   1.882   7.307
 5216POPC   C1B66919  35.137   2.291   6.388
 5216POPC   C2B66920  35.000   2.064   6.682
 5216POPC   C3B66921  35.021   2.319   7.045
 5216POPC   C4B66922  35.170   2.214   7.437
 5217POPC   NC366923  11.493  16.195   5.493
 5217POPC   PO466924  10.987  15.704   5.503
 5217POPC   GL166925  11.336  15.810   5.791
 5217POPC   GL266926  11.113  16.059   5.879
 5217POPC   C1A66927  11.498  15.980   6.206
 5217POPC   D2A66928  11.566  16.158   6.609
 5217POPC   C3A66929  11.466  16.013   7.026
 5217POPC   C4A66930  11.398  15.703   7.353
 5217POPC   C1B66931  10.990  16.109   6.299
 5217POPC   C2B66932  11.067  16.235   6.744
 5217POPC   C3B66933  10.928  16.203   7.184
 5217POPC   C4B66934  10.867  16.331   7.648
 5218POPC   NC366935  29.981  18.060   4.941
 5218POPC   PO466936  30.098  18.429   5.498
 5218POPC   GL166937  30.015  18.304   5.923
 5218POPC   GL266938  29.715  18.087   6.058
 5218POPC   C1A66939  29.998  18.436   6.308
 5218POPC   D2A66940  30.219  18.261   6.641
 5218POPC   C3A66941  30.178  18.465   7.009
 5218POPC   C4A66942  30.069  18.364   7.449
 5218POPC   C1B66943  29.707  18.062   6.512
 5218POPC   C2B66944  29.721  18.460   6.730
 5218POPC   C3B66945  29.676  18.492   7.094
 5218POPC   C4B66946  29.685  18.080   7.245
 5219POPC   NC366947  42.553  30.548   5.608
 5219POPC   PO466948  43.114  30.867   5.299
 5219POPC   GL166949  42.994  30.785   5.703
 5219POPC   GL266950  42.907  31.128   5.761
 5219POPC   C1A66951  43.100  30.490   6.071
 5219POPC   D2A66952  42.902  30.423   6.492
 5219POPC   C3A66953  43.003  30.328   6.949
 5219POPC   C4A66954  43.275  30.482   7.298
 5219POPC   C1B66955  43.275  31.033   6.041
 5219POPC   C2B66956  43.301  30.806   6.424
 5219POPC   C3B66957  43.307  30.741   6.856
 5219POPC   C4B66958  43.368  30.967   7.240
 5220POPC   NC366959  20.543  38.646   5.384
 5220POPC   PO466960  20.728  38.026   5.375
 5220POPC   GL166961  20.812  38.342   5.699
 5220POPC   GL266962  21.007  38.154   5.902
 5220POPC   C1A66963  20.746  38.620   6.089
 5220POPC   D2A66964  20.645  38.524   6.545
 5220POPC   C3A66965  20.705  38.673   6.961
 5220POPC   C4A66966  20.421  38.849   7.255
 5220POPC   C1B66967  21.178  37.963   6.263
 5220POPC   C2B66968  21.076  37.845   6.670
 5220POPC   C3B66969  20.986  37.935   7.073
 5220POPC   C4B66970  20.923  38.296   7.232
 5221POPC   NC366971  43.931  24.249   5.462
 5221POPC   PO466972  43.402  24.609   5.469
 5221POPC   GL166973  43.599  24.469   5.812
 5221POPC   GL266974  43.559  24.115   5.827
 5221POPC   C1A66975  43.901  24.608   6.144
 5221POPC   D2A66976  44.004  24.858   6.548
 5221POPC   C3A66977  43.962  24.635   6.964
 5221POPC   C4A66978  43.642  24.684   7.257
 5221POPC   C1B66979  43.514  24.213   6.232
 5221POPC   C2B66980  43.699  24.406   6.578
 5221POPC   C3B66981  43.569  24.259   6.952
 5221POPC   C4B66982  43.748  24.181   7.325
 5222POPC   NC366983   0.256   7.566   5.328
 5222POPC   PO466984   0.887   7.503   5.506
 5222POPC   GL166985   0.514   7.395   5.795
 5222POPC   GL266986   0.144   7.261   5.749
 5222POPC   C1A66987   0.394   7.560   6.203
 5222POPC   D2A66988   0.608   7.592   6.591
 5222POPC   C3A66989   0.527   7.266   6.884
 5222POPC   C4A66990   0.410   7.387   7.291
 5222POPC   C1B66991  44.984   7.253   6.193
 5222POPC   C2B66992   0.076   7.423   6.609
 5222POPC   C3B66993   0.208   7.691   6.932
 5222POPC   C4B66994   0.086   7.798   7.364
 5223POPC   NC366995  39.796  41.930   5.306
 5223POPC   PO466996  40.417  41.504   5.324
 5223POPC   GL166997  40.242  41.588   5.747
 5223POPC   GL266998  39.924  41.774   5.773
 5223POPC   C1A66999  39.984  41.370   6.083
 5223POPC   D2A67000  39.711  41.401   6.479
 5223POPC   C3A67001  39.735  41.596   6.901
 5223POPC   C4A67002  39.979  41.538   7.268
 5223POPC   C1B67003  39.786  41.823   6.200
 5223POPC   C2B67004  39.896  41.978   6.605
 5223POPC   C3B67005  39.973  42.053   7.015
 5223POPC   C4B67006  39.698  41.932   7.318
 5224POPC   NC367007  30.168  30.512   5.787
 5224POPC   PO467008  30.473  31.049   5.608
 5224POPC   GL167009  30.592  30.751   5.904
 5224POPC   GL267010  30.712  30.385   5.829
 5224POPC   C1A67011  30.715  30.861   6.295
 5224POPC   D2A67012  30.820  30.711   6.685
 5224POPC   C3A67013  30.667  30.971   6.949
 5224POPC   C4A67014  30.579  31.004   7.355
 5224POPC   C1B67015  30.621  30.326   6.301
 5224POPC   C2B67016  30.834  30.206   6.704
 5224POPC   C3B67017  30.762  30.214   7.157
 5224POPC   C4B67018  30.739  30.167   7.613
 5225POPC   NC367019  16.531  35.115   5.379
 5225POPC   PO467020  17.196  35.131   5.521
 5225POPC   GL167021  16.870  35.278   5.856
 5225POPC   GL267022  16.503  35.373   5.836
 5225POPC   C1A67023  16.789  35.435   6.311
 5225POPC   D2A67024  16.830  35.229   6.719
 5225POPC   C3A67025  16.718  35.384   7.135
 5225POPC   C4A67026  16.975  35.432   7.510
 5225POPC   C1B67027  16.324  35.208   6.217
 5225POPC   C2B67028  16.363  35.034   6.630
 5225POPC   C3B67029  16.238  35.179   7.045
 5225POPC   C4B67030  16.348  35.338   7.487
 5226POPC   NC367031  38.726   2.503   5.583
 5226POPC   PO467032  38.961   2.847   5.058
 5226POPC   GL167033  39.091   2.828   5.597
 5226POPC   GL267034  39.147   3.165   5.729
 5226POPC   C1A67035  39.235   2.745   6.053
 5226POPC   D2A67036  39.346   2.560   6.479
 5226POPC   C3A67037  39.067   2.631   6.853
 5226POPC   C4A67038  39.276   2.559   7.246
 5226POPC   C1B67039  39.394   3.241   6.086
 5226POPC   C2B67040  39.262   3.091   6.478
 5226POPC   C3B67041  39.256   3.091   6.912
 5226POPC   C4B67042  39.305   3.106   7.337
 5227POPC   NC367043  13.087   3.448   5.430
 5227POPC   PO467044  12.448   3.398   5.465
 5227POPC   GL167045  12.689   3.217   5.786
 5227POPC   GL267046  12.915   3.451   5.913
 5227POPC   C1A67047  12.629   3.126   6.230
 5227POPC   D2A67048  12.715   3.183   6.664
 5227POPC   C3A67049  12.674   3.554   6.904
 5227POPC   C4A67050  12.686   3.395   7.324
 5227POPC   C1B67051  12.915   3.563   6.341
 5227POPC   C2B67052  13.153   3.476   6.676
 5227POPC   C3B67053  13.166   3.607   7.094
 5227POPC   C4B67054  13.420   3.933   7.202
 5228POPC   NC367055  31.801  18.723   5.117
 5228POPC   PO467056  31.448  18.671   5.689
 5228POPC   GL167057  31.489  19.076   5.785
 5228POPC   GL267058  31.235  19.336   5.639
 5228POPC   C1A67059  31.679  19.202   6.174
 5228POPC   D2A67060  31.577  19.038   6.577
 5228POPC   C3A67061  31.670  19.238   6.955
 5228POPC   C4A67062  31.819  18.986   7.306
 5228POPC   C1B67063  31.155  19.254   6.108
 5228POPC   C2B67064  31.135  19.281   6.584
 5228POPC   C3B67065  31.179  19.163   7.051
 5228POPC   C4B67066  31.411  19.357   7.402
 5229POPC   NC367067  44.758   0.937   5.342
 5229POPC   PO467068  44.992   1.572   5.260
 5229POPC   GL167069  44.767   1.407   5.667
 5229POPC   GL267070  44.830   1.066   5.813
 5229POPC   C1A67071  44.688   1.417   6.147
 5229POPC   D2A67072  44.401   1.226   6.481
 5229POPC   C3A67073  44.584   1.243   6.882
 5229POPC   C4A67074  44.702   1.469   7.246
 5229POPC   C1B67075  44.671   0.886   6.180
 5229POPC   C2B67076  44.637   0.763   6.591
 5229POPC   C3B67077  44.768   0.725   6.988
 5229POPC   C4B67078  44.607   0.957   7.317
 5230POPC   NC367079  34.872  22.045   5.533
 5230POPC   PO467080  34.480  22.592   5.397
 5230POPC   GL167081  34.476  22.309   5.799
 5230POPC   GL267082  34.565  21.939   5.927
 5230POPC   C1A67083  34.603  22.328   6.260
 5230POPC   D2A67084  34.632  21.920   6.481
 5230POPC   C3A67085  34.447  21.886   6.878
 5230POPC   C4A67086  34.610  22.157   7.161
 5230POPC   C1B67087  34.194  22.028   6.176
 5230POPC   C2B67088  34.206  22.235   6.577
 5230POPC   C3B67089  34.165  22.337   7.007
 5230POPC   C4B67090  34.183  22.001   7.345
 5231POPC   NC367091   3.900  36.930   5.007
 5231POPC   PO467092   3.417  36.587   5.390
 5231POPC   GL167093   3.485  36.830   5.781
 5231POPC   GL267094   3.800  37.028   5.804
 5231POPC   C1A67095   3.284  36.945   6.179
 5231POPC   D2A67096   3.359  36.806   6.586
 5231POPC   C3A67097   3.340  36.999   6.956
 5231POPC   C4A67098   3.605  36.728   7.224
 5231POPC   C1B67099   3.692  37.267   6.110
 5231POPC   C2B67100   3.750  37.135   6.499
 5231POPC   C3B67101   3.840  37.061   6.898
 5231POPC   C4B67102   3.732  37.236   7.256
 5232POPC   NC367103  28.907  17.724   5.661
 5232POPC   PO467104  28.272  17.434   5.460
 5232POPC   GL167105  28.342  17.489   5.883
 5232POPC   GL267106  28.690  17.448   6.004
 5232POPC   C1A67107  28.305  17.447   6.324
 5232POPC   D2A67108  27.984  17.467   6.583
 5232POPC   C3A67109  28.256  17.584   6.887
 5232POPC   C4A67110  28.151  17.412   7.212
 5232POPC   C1B67111  28.810  17.151   6.292
 5232POPC   C2B67112  28.612  16.982   6.659
 5232POPC   C3B67113  28.625  17.147   7.070
 5232POPC   C4B67114  28.639  17.548   7.270
 5233POPC   NC367115  44.922  30.086   5.236
 5233POPC   PO467116  44.349  29.647   5.293
 5233POPC   GL167117  44.600  29.790   5.658
 5233POPC   GL267118  44.821  29.513   5.782
 5233POPC   C1A67119  44.605  29.899   6.123
 5233POPC   D2A67120  44.555  30.195   6.487
 5233POPC   C3A67121  44.553  29.963   6.872
 5233POPC   C4A67122  44.597  29.959   7.275
 5233POPC   C1B67123   0.037  29.603   6.190
 5233POPC   C2B67124  44.939  29.780   6.604
 5233POPC   C3B67125   0.045  29.689   7.057
 5233POPC   C4B67126  44.895  29.621   7.524
 5234POPC   NC367127  40.587  42.033   5.356
 5234POPC   PO467128  41.112  42.534   5.334
 5234POPC   GL167129  40.965  42.528   5.754
 5234POPC   GL267130  40.824  42.210   5.780
 5234POPC   C1A67131  41.135  42.344   6.152
 5234POPC   D2A67132  40.943  42.174   6.513
 5234POPC   C3A67133  41.001  42.372   6.923
 5234POPC   C4A67134  40.949  42.119   7.290
 5234POPC   C1B67135  40.624  42.410   6.155
 5234POPC   C2B67136  40.602  42.579   6.579
 5234POPC   C3B67137  40.494  42.479   7.011
 5234POPC   C4B67138  40.505  42.325   7.437
 5235POPC   NC367139  17.464   2.945   5.344
 5235POPC   PO467140  17.894   2.440   5.538
 5235POPC   GL167141  17.713   2.629   5.934
 5235POPC   GL267142  17.476   2.933   5.871
 5235POPC   C1A67143  17.681   2.498   6.397
 5235POPC   D2A67144  17.325   2.343   6.673
 5235POPC   C3A67145  17.327   2.424   7.143
 5235POPC   C4A67146  17.447   2.654   7.561
 5235POPC   C1B67147  17.318   2.843   6.301
 5235POPC   C2B67148  17.426   2.847   6.754
 5235POPC   C3B67149  17.231   2.921   7.177
 5235POPC   C4B67150  17.151   3.059   7.641
 5236POPC   NC367151   2.775  27.116   5.358
 5236POPC   PO467152   2.581  26.548   5.371
 5236POPC   GL167153   2.854  26.756   5.726
 5236POPC   GL267154   2.996  27.112   5.811
 5236POPC   C1A67155   3.014  26.754   6.162
 5236POPC   D2A67156   2.729  26.783   6.506
 5236POPC   C3A67157   2.833  26.888   6.906
 5236POPC   C4A67158   2.980  26.761   7.298
 5236POPC   C1B67159   2.589  27.091   6.101
 5236POPC   C2B67160   2.326  27.103   6.527
 5236POPC   C3B67161   2.464  27.293   6.928
 5236POPC   C4B67162   2.685  27.174   7.306
 5237POPC   NC367163  23.942  16.527   5.495
 5237POPC   PO467164  23.593  17.153   5.521
 5237POPC   GL167165  23.698  16.860   5.858
 5237POPC   GL267166  23.396  16.632   5.885
 5237POPC   C1A67167  24.019  16.847   6.214
 5237POPC   D2A67168  24.038  16.662   6.643
 5237POPC   C3A67169  23.971  16.954   7.017
 5237POPC   C4A67170  23.906  16.838   7.471
 5237POPC   C1B67171  23.574  16.608   6.310
 5237POPC   C2B67172  23.534  16.699   6.751
 5237POPC   C3B67173  23.714  16.510   7.112
 5237POPC   C4B67174  23.475  16.541   7.484
 5238POPC   NC367175   4.486  31.912   5.378
 5238POPC   PO467176   3.920  31.604   5.136
 5238POPC   GL167177   4.068  31.659   5.578
 5238POPC   GL267178   4.131  31.305   5.697
 5238POPC   C1A67179   4.107  31.695   6.041
 5238POPC   D2A67180   4.030  31.493   6.432
 5238POPC   C3A67181   4.165  31.602   6.864
 5238POPC   C4A67182   4.470  31.785   7.134
 5238POPC   C1B67183   4.215  31.107   6.133
 5238POPC   C2B67184   4.406  31.187   6.569
 5238POPC   C3B67185   4.309  31.091   7.001
 5238POPC   C4B67186   4.665  30.955   7.200
 5239POPC   NC367187  33.905  35.579   5.430
 5239POPC   PO467188  33.444  35.044   5.486
 5239POPC   GL167189  33.436  35.279   5.872
 5239POPC   GL267190  33.803  35.335   5.888
 5239POPC   C1A67191  33.567  35.210   6.322
 5239POPC   D2A67192  33.819  35.377   6.656
 5239POPC   C3A67193  33.780  35.196   7.081
 5239POPC   C4A67194  33.367  35.133   7.284
 5239POPC   C1B67195  34.031  35.570   6.207
 5239POPC   C2B67196  34.181  35.794   6.567
 5239POPC   C3B67197  34.071  35.712   6.986
 5239POPC   C4B67198  34.157  35.495   7.336
 5240POPC   NC367199  16.218  32.379   5.416
 5240POPC   PO467200  15.727  31.979   5.441
 5240POPC   GL167201  15.938  32.049   5.806
 5240POPC   GL267202  15.910  32.398   5.831
 5240POPC   C1A67203  15.856  31.985   6.240
 5240POPC   D2A67204  15.850  31.783   6.633
 5240POPC   C3A67205  15.711  32.094   6.935
 5240POPC   C4A67206  15.845  32.109   7.365
 5240POPC   C1B67207  16.069  32.465   6.230
 5240POPC   C2B67208  15.916  32.473   6.649
 5240POPC   C3B67209  16.028  32.494   7.091
 5240POPC   C4B67210  15.985  32.568   7.598
 5241POPC   NC367211  28.240  38.211   5.422
 5241POPC   PO467212  28.569  38.780   5.339
 5241POPC   GL167213  28.491  38.545   5.727
 5241POPC   GL267214  28.145  38.459   5.854
 5241POPC   C1A67215  28.652  38.365   6.102
 5241POPC   D2A67216  28.752  38.206   6.490
 5241POPC   C3A67217  28.461  38.354   6.773
 5241POPC   C4A67218  28.543  38.461   7.171
 5241POPC   C1B67219  28.106  38.200   6.243
 5241POPC   C2B67220  28.078  37.989   6.662
 5241POPC   C3B67221  28.007  38.266   7.014
 5241POPC   C4B67222  28.078  38.678   7.166
 5242POPC   NC367223   1.365  29.426   5.279
 5242POPC   PO467224   0.969  28.853   5.246
 5242POPC   GL167225   1.214  28.966   5.626
 5242POPC   GL267226   1.517  29.155   5.701
 5242POPC   C1A67227   1.236  28.845   6.079
 5242POPC   D2A67228   1.038  29.048   6.420
 5242POPC   C3A67229   1.076  28.896   6.850
 5242POPC   C4A67230   0.925  29.051   7.214
 5242POPC   C1B67231   1.422  29.313   6.125
 5242POPC   C2B67232   1.513  29.143   6.521
 5242POPC   C3B67233   1.482  29.187   6.946
 5242POPC   C4B67234   1.479  29.490   7.238
 5243POPC   NC367235  17.204  42.189   5.501
 5243POPC   PO467236  17.756  42.576   5.275
 5243POPC   GL167237  17.604  42.544   5.690
 5243POPC   GL267238  17.294  42.675   5.817
 5243POPC   C1A67239  17.719  42.544   6.138
 5243POPC   D2A67240  17.495  42.598   6.542
 5243POPC   C3A67241  17.631  42.506   6.972
 5243POPC   C4A67242  17.910  42.596   7.305
 5243POPC   C1B67243  17.238  42.361   6.171
 5243POPC   C2B67244  17.160  42.232   6.647
 5243POPC   C3B67245  17.353  42.099   7.072
 5243POPC   C4B67246  17.254  41.992   7.514
 5244POPC   NC367247  10.775  26.312   5.090
 5244POPC   PO467248  10.255  25.959   5.405
 5244POPC   GL167249  10.611  25.968   5.693
 5244POPC   GL267250  10.765  26.266   5.676
 5244POPC   C1A67251  10.623  26.050   6.137
 5244POPC   D2A67252  10.313  26.071   6.456
 5244POPC   C3A67253  10.408  26.118   6.892
 5244POPC   C4A67254  10.231  25.903   7.261
 5244POPC   C1B67255  10.920  26.444   6.152
 5244POPC   C2B67256  10.830  26.381   6.670
 5244POPC   C3B67257  10.829  26.245   7.151
 5244POPC   C4B67258  10.673  25.991   7.478
 5245POPC   NC367259  12.261  25.777   5.245
 5245POPC   PO467260  12.946  25.947   5.238
 5245POPC   GL167261  12.909  26.043   5.733
 5245POPC   GL267262  12.577  26.294   5.788
 5245POPC   C1A67263  13.007  25.798   6.153
 5245POPC   D2A67264  13.155  25.639   6.581
 5245POPC   C3A67265  13.147  25.850   6.952
 5245POPC   C4A67266  12.822  25.820   7.236
 5245POPC   C1B67267  12.786  26.298   6.188
 5245POPC   C2B67268  12.864  26.085   6.559
 5245POPC   C3B67269  12.857  26.265   6.916
 5245POPC   C4B67270  12.667  26.330   7.236
 5246POPC   NC367271  30.301  42.082   5.542
 5246POPC   PO467272  30.933  42.200   5.457
 5246POPC   GL167273  30.673  42.308   5.806
 5246POPC   GL267274  30.599  42.029   5.937
 5246POPC   C1A67275  30.438  42.442   6.177
 5246POPC   D2A67276  30.341  42.380   6.612
 5246POPC   C3A67277  30.479  42.142   6.997
 5246POPC   C4A67278  30.488  42.351   7.417
 5246POPC   C1B67279  30.624  41.994   6.355
 5246POPC   C2B67280  30.847  42.222   6.614
 5246POPC   C3B67281  30.931  42.389   6.983
 5246POPC   C4B67282  30.985  42.271   7.380
 5247POPC   NC367283   0.449  22.618   5.359
 5247POPC   PO467284   0.822  23.234   5.393
 5247POPC   GL167285   0.693  23.097   5.783
 5247POPC   GL267286   0.641  22.731   5.830
 5247POPC   C1A67287   0.595  23.121   6.206
 5247POPC   D2A67288   0.515  22.852   6.568
 5247POPC   C3A67289   0.281  22.966   6.924
 5247POPC   C4A67290   0.253  22.622   7.171
 5247POPC   C1B67291   0.753  22.518   6.225
 5247POPC   C2B67292   0.934  22.532   6.635
 5247POPC   C3B67293   0.741  22.700   7.016
 5247POPC   C4B67294   0.651  22.680   7.503
 5248POPC   NC367295  16.843  31.787   5.477
 5248POPC   PO467296  16.449  31.302   5.293
 5248POPC   GL167297  16.550  31.388   5.740
 5248POPC   GL267298  16.890  31.260   5.826
 5248POPC   C1A67299  16.680  31.620   6.132
 5248POPC   D2A67300  16.807  31.489   6.548
 5248POPC   C3A67301  16.671  31.580   6.941
 5248POPC   C4A67302  16.599  31.838   7.270
 5248POPC   C1B67303  17.174  31.428   6.172
 5248POPC   C2B67304  17.290  31.660   6.559
 5248POPC   C3B67305  17.190  31.488   6.938
 5248POPC   C4B67306  17.018  31.546   7.337
 5249POPC   NC367307  10.259  20.795   5.093
 5249POPC   PO467308  10.638  20.397   5.512
 5249POPC   GL167309  10.584  20.471   5.915
 5249POPC   GL267310  10.716  20.828   5.871
 5249POPC   C1A67311  10.150  20.481   6.181
 5249POPC   D2A67312   9.984  20.460   6.579
 5249POPC   C3A67313  10.207  20.718   6.913
 5249POPC   C4A67314  10.506  20.567   7.214
 5249POPC   C1B67315  10.552  20.778   6.291
 5249POPC   C2B67316  10.651  20.621   6.640
 5249POPC   C3B67317  10.734  20.905   6.910
 5249POPC   C4B67318  10.559  21.098   7.229
 5250POPC   NC367319  32.542  18.597   5.386
 5250POPC   PO467320  32.037  18.252   5.070
 5250POPC   GL167321  32.165  18.132   5.548
 5250POPC   GL267322  32.477  18.167   5.700
 5250POPC   C1A67323  32.111  18.278   6.049
 5250POPC   D2A67324  32.289  18.331   6.487
 5250POPC   C3A67325  32.087  18.342   6.880
 5250POPC   C4A67326  32.189  18.223   7.294
 5250POPC   C1B67327  32.564  18.028   6.146
 5250POPC   C2B67328  32.458  17.856   6.558
 5250POPC   C3B67329  32.544  18.049   6.966
 5250POPC   C4B67330  32.501  17.805   7.359
 5251POPC   NC367331  28.813  29.685   5.656
 5251POPC   PO467332  29.208  30.079   5.300
 5251POPC   GL167333  29.264  29.948   5.784
 5251POPC   GL267334  29.365  29.637   5.750
 5251POPC   C1A67335  29.154  29.975   6.259
 5251POPC   D2A67336  29.298  30.106   6.689
 5251POPC   C3A67337  29.052  29.961   7.039
 5251POPC   C4A67338  28.998  30.199   7.435
 5251POPC   C1B67339  29.504  29.573   6.198
 5251POPC   C2B67340  29.280  29.549   6.612
 5251POPC   C3B67341  29.431  29.584   7.054
 5251POPC   C4B67342  29.330  29.793   7.464
 5252POPC   NC367343  25.374   6.801   5.347
 5252POPC   PO467344  25.023   6.220   5.534
 5252POPC   GL167345  25.187   6.628   5.781
 5252POPC   GL267346  25.567   6.727   5.818
 5252POPC   C1A67347  25.235   6.858   6.187
 5252POPC   D2A67348  24.991   6.917   6.576
 5252POPC   C3A67349  25.086   6.616   6.881
 5252POPC   C4A67350  25.375   6.621   7.221
 5252POPC   C1B67351  25.486   6.373   6.098
 5252POPC   C2B67352  25.265   6.325   6.489
 5252POPC   C3B67353  25.438   6.244   6.896
 5252POPC   C4B67354  25.760   6.295   7.230
 5253POPC   NC367355   4.644  18.608   5.204
 5253POPC   PO467356   4.120  18.244   5.529
 5253POPC   GL167357   4.234  18.152   5.917
 5253POPC   GL267358   3.984  18.063   6.058
 5253POPC   C1A67359   4.397  18.335   6.290
 5253POPC   D2A67360   4.482  18.171   6.668
 5253POPC   C3A67361   4.171  18.275   6.965
 5253POPC   C4A67362   4.333  18.213   7.383
 5253POPC   C1B67363   3.953  18.121   6.477
 5253POPC   C2B67364   4.093  17.809   6.749
 5253POPC   C3B67365   4.296  17.773   7.145
 5253POPC   C4B67366   4.148  17.822   7.632
 5254POPC   NC367367   8.654   9.077   5.419
 5254POPC   PO467368   9.247   8.761   5.361
 5254POPC   GL167369   9.199   9.034   5.724
 5254POPC   GL267370   9.254   8.711   5.882
 5254POPC   C1A67371   9.051   9.057   6.200
 5254POPC   D2A67372   9.085   8.981   6.668
 5254POPC   C3A67373   8.715   9.002   6.959
 5254POPC   C4A67374   8.641   8.878   7.366
 5254POPC   C1B67375   9.534   8.525   6.213
 5254POPC   C2B67376   9.413   8.415   6.637
 5254POPC   C3B67377   9.361   8.687   6.983
 5254POPC   C4B67378   9.141   8.976   7.235
 5255POPC   NC367379  33.714   8.077   5.049
 5255POPC   PO467380  34.241   8.380   5.348
 5255POPC   GL167381  33.901   8.418   5.627
 5255POPC   GL267382  33.786   8.086   5.640
 5255POPC   C1A67383  33.622   8.479   5.977
 5255POPC   D2A67384  33.618   8.326   6.421
 5255POPC   C3A67385  33.580   8.226   6.874
 5255POPC   C4A67386  33.619   8.415   7.305
 5255POPC   C1B67387  33.570   7.952   6.048
 5255POPC   C2B67388  33.534   7.814   6.506
 5255POPC   C3B67389  33.476   7.682   6.946
 5255POPC   C4B67390  33.578   7.903   7.318
 5256POPC   NC367391  10.968  15.247   5.396
 5256POPC   PO467392  11.551  14.926   5.545
 5256POPC   GL167393  11.457  15.289   5.835
 5256POPC   GL267394  11.142  15.345   5.867
 5256POPC   C1A67395  11.663  15.496   6.161
 5256POPC   D2A67396  11.469  15.352   6.523
 5256POPC   C3A67397  11.437  15.377   6.976
 5256POPC   C4A67398  11.440  15.169   7.414
 5256POPC   C1B67399  11.153  15.605   6.225
 5256POPC   C2B67400  11.187  15.758   6.642
 5256POPC   C3B67401  10.974  15.696   7.030
 5256POPC   C4B67402  10.982  15.385   7.356
 5257POPC   NC367403  42.958  22.689   5.506
 5257POPC   PO467404  43.228  23.214   5.154
 5257POPC   GL167405  43.234  23.145   5.657
 5257POPC   GL267406  42.974  22.990   5.917
 5257POPC   C1A67407  43.375  23.203   6.113
 5257POPC   D2A67408  43.087  23.125   6.494
 5257POPC   C3A67409  43.211  22.844   6.823
 5257POPC   C4A67410  43.325  22.949   7.229
 5257POPC   C1B67411  42.852  22.688   6.239
 5257POPC   C2B67412  42.666  22.837   6.612
 5257POPC   C3B67413  42.759  23.064   6.953
 5257POPC   C4B67414  42.875  22.711   7.185
 5258POPC   NC367415   5.751   0.068   4.967
 5258POPC   PO467416   5.697   0.365   5.540
 5258POPC   GL167417   5.724   0.221   5.898
 5258POPC   GL267418   6.107   0.305   5.965
 5258POPC   C1A67419   5.725   0.322   6.312
 5258POPC   D2A67420   6.102   0.219   6.567
 5258POPC   C3A67421   5.967   0.328   6.968
 5258POPC   C4A67422   5.688   0.244   7.312
 5258POPC   C1B67423   6.114   0.645   6.269
 5258POPC   C2B67424   6.174   0.756   6.707
 5258POPC   C3B67425   6.031   0.793   7.151
 5258POPC   C4B67426   6.068   0.871   7.626
 5259POPC   NC367427  11.274  38.768   5.570
 5259POPC   PO467428  10.983  38.281   5.233
 5259POPC   GL167429  11.129  38.296   5.708
 5259POPC   GL267430  11.452  38.308   5.731
 5259POPC   C1A67431  11.175  38.537   6.157
 5259POPC   D2A67432  11.254  38.775   6.568
 5259POPC   C3A67433  11.131  38.546   6.938
 5259POPC   C4A67434  11.035  38.242   7.252
 5259POPC   C1B67435  11.665  38.438   6.101
 5259POPC   C2B67436  11.565  38.353   6.512
 5259POPC   C3B67437  11.636  38.481   6.920
 5259POPC   C4B67438  11.497  38.487   7.341
 5260POPC   NC367439  33.085  20.182   5.039
 5260POPC   PO467440  33.193  19.623   5.414
 5260POPC   GL167441  33.063  19.803   5.785
 5260POPC   GL267442  32.890  20.027   5.623
 5260POPC   C1A67443  32.987  19.685   6.217
 5260POPC   D2A67444  33.288  19.681   6.546
 5260POPC   C3A67445  33.033  19.760   6.891
 5260POPC   C4A67446  33.041  19.497   7.228
 5260POPC   C1B67447  32.781  20.165   6.067
 5260POPC   C2B67448  32.608  20.064   6.479
 5260POPC   C3B67449  32.733  20.180   6.910
 5260POPC   C4B67450  32.717  19.994   7.330
 5261POPC   NC367451  34.041  22.602   5.537
 5261POPC   PO467452  33.696  23.193   5.557
 5261POPC   GL167453  33.947  23.075   5.876
 5261POPC   GL267454  33.757  22.794   5.917
 5261POPC   C1A67455  34.003  22.928   6.319
 5261POPC   D2A67456  33.920  23.088   6.707
 5261POPC   C3A67457  33.839  22.773   7.013
 5261POPC   C4A67458  33.961  22.832   7.428
 5261POPC   C1B67459  33.535  23.153   6.183
 5261POPC   C2B67460  33.283  23.214   6.556
 5261POPC   C3B67461  33.485  23.222   6.933
 5261POPC   C4B67462  33.494  23.034   7.285
 5262POPC   NC367463  37.803  12.608   5.490
 5262POPC   PO467464  37.614  11.915   5.303
 5262POPC   GL167465  37.619  12.117   5.718
 5262POPC   GL267466  37.952  12.116   5.818
 5262POPC   C1A67467  37.508  11.998   6.164
 5262POPC   D2A67468  37.662  11.789   6.556
 5262POPC   C3A67469  37.498  11.886   6.980
 5262POPC   C4A67470  37.889  11.968   7.162
 5262POPC   C1B67471  37.841  12.409   6.165
 5262POPC   C2B67472  38.071  12.478   6.562
 5262POPC   C3B67473  37.932  12.468   6.961
 5262POPC   C4B67474  37.610  12.393   7.216
 5263POPC   NC367475   8.825   6.936   5.325
 5263POPC   PO467476   9.066   6.332   5.483
 5263POPC   GL167477   8.954   6.680   5.740
 5263POPC   GL267478   8.632   6.817   5.776
 5263POPC   C1A67479   9.018   6.785   6.163
 5263POPC   D2A67480   9.063   6.549   6.560
 5263POPC   C3A67481   9.123   6.697   6.973
 5263POPC   C4A67482   9.057   6.343   7.281
 5263POPC   C1B67483   8.636   6.475   6.070
 5263POPC   C2B67484   8.588   6.671   6.451
 5263POPC   C3B67485   8.582   6.753   6.879
 5263POPC   C4B67486   8.726   6.744   7.291
 5264POPC   NC367487  35.165  24.727   5.479
 5264POPC   PO467488  35.530  25.253   5.332
 5264POPC   GL167489  35.291  25.187   5.786
 5264POPC   GL267490  34.955  25.378   5.915
 5264POPC   C1A67491  35.368  25.336   6.215
 5264POPC   D2A67492  35.556  25.230   6.615
 5264POPC   C3A67493  35.562  25.428   7.011
 5264POPC   C4A67494  35.443  25.248   7.395
 5264POPC   C1B67495  35.009  24.979   6.158
 5264POPC   C2B67496  35.144  24.901   6.571
 5264POPC   C3B67497  35.171  25.039   6.982
 5264POPC   C4B67498  35.014  24.921   7.369
 5265POPC   NC367499  12.192  26.719   5.327
 5265POPC   PO467500  11.573  26.601   5.470
 5265POPC   GL167501  11.905  26.894   5.719
 5265POPC   GL267502  12.227  26.718   5.843
 5265POPC   C1A67503  11.964  27.055   6.145
 5265POPC   D2A67504  12.184  26.857   6.492
 5265POPC   C3A67505  12.018  27.009   6.860
 5265POPC   C4A67506  12.067  26.845   7.231
 5265POPC   C1B67507  12.270  26.424   6.197
 5265POPC   C2B67508  12.431  26.402   6.627
 5265POPC   C3B67509  12.227  26.403   7.035
 5265POPC   C4B67510  12.288  26.477   7.530
 5266POPC   NC367511  28.782  10.569   5.551
 5266POPC   PO467512  29.504  10.306   5.534
 5266POPC   GL167513  29.199  10.356   5.832
 5266POPC   GL267514  28.941  10.128   5.810
 5266POPC   C1A67515  29.185  10.601   6.209
 5266POPC   D2A67516  29.447  10.797   6.527
 5266POPC   C3A67517  29.149  10.816   6.859
 5266POPC   C4A67518  29.094  10.543   7.212
 5266POPC   C1B67519  28.755  10.300   6.189
 5266POPC   C2B67520  28.743  10.512   6.592
 5266POPC   C3B67521  28.628  10.392   7.014
 5266POPC   C4B67522  28.690  10.352   7.464
 5267POPC   NC367523  44.816  42.977   5.427
 5267POPC   PO467524  44.122  43.229   5.433
 5267POPC   GL167525  44.356  43.067   5.761
 5267POPC   GL267526  44.623  43.319   5.762
 5267POPC   C1A67527  44.433  42.956   6.210
 5267POPC   D2A67528  44.632  43.241   6.534
 5267POPC   C3A67529  44.481  43.282   6.954
 5267POPC   C4A67530  44.529  43.487   7.363
 5267POPC   C1B67531  44.893  43.169   6.099
 5267POPC   C2B67532   0.126  43.174   6.481
 5267POPC   C3B67533   0.046  43.359   6.873
 5267POPC   C4B67534  44.906  43.160   7.209
 5268POPC   NC367535   7.360  18.769   5.314
 5268POPC   PO467536   7.296  18.085   5.530
 5268POPC   GL167537   7.461  18.306   5.872
 5268POPC   GL267538   7.789  18.424   5.802
 5268POPC   C1A67539   7.383  18.232   6.315
 5268POPC   D2A67540   7.172  18.435   6.656
 5268POPC   C3A67541   7.424  18.329   7.001
 5268POPC   C4A67542   7.480  18.163   7.442
 5268POPC   C1B67543   7.883  18.158   6.197
 5268POPC   C2B67544   7.790  18.126   6.673
 5268POPC   C3B67545   7.890  18.209   7.129
 5268POPC   C4B67546   7.966  18.001   7.541
 5269POPC   NC367547   9.938  29.031   5.519
 5269POPC   PO467548   9.265  29.232   5.437
 5269POPC   GL167549   9.501  29.100   5.784
 5269POPC   GL267550   9.510  28.784   5.827
 5269POPC   C1A67551   9.729  29.070   6.213
 5269POPC   D2A67552   9.748  29.161   6.676
 5269POPC   C3A67553   9.734  29.073   7.123
 5269POPC   C4A67554   9.995  28.901   7.426
 5269POPC   C1B67555   9.427  28.649   6.211
 5269POPC   C2B67556   9.569  28.652   6.594
 5269POPC   C3B67557   9.367  28.810   6.914
 5269POPC   C4B67558   9.502  28.658   7.333
 5270POPC   NC367559  11.407   6.462   5.443
 5270POPC   PO467560  10.950   6.887   5.373
 5270POPC   GL167561  11.164   6.840   5.788
 5270POPC   GL267562  11.219   6.490   5.895
 5270POPC   C1A67563  11.239   7.013   6.196
 5270POPC   D2A67564  11.167   6.874   6.655
 5270POPC   C3A67565  11.139   7.083   7.085
 5270POPC   C4A67566  11.194   6.792   7.461
 5270POPC   C1B67567  11.406   6.561   6.302
 5270POPC   C2B67568  11.579   6.595   6.729
 5270POPC   C3B67569  11.549   6.508   7.172
 5270POPC   C4B67570  11.503   6.340   7.591
 5271POPC   NC367571  13.574  29.631   5.239
 5271POPC   PO467572  13.282  30.190   5.393
 5271POPC   GL167573  13.332  30.017   5.774
 5271POPC   GL267574  13.380  29.664   5.760
 5271POPC   C1A67575  13.491  30.037   6.182
 5271POPC   D2A67576  13.678  30.102   6.593
 5271POPC   C3A67577  13.456  30.259   6.947
 5271POPC   C4A67578  13.781  30.152   7.220
 5271POPC   C1B67579  13.633  29.521   6.142
 5271POPC   C2B67580  13.782  29.587   6.582
 5271POPC   C3B67581  13.654  29.671   7.013
 5271POPC   C4B67582  13.558  29.368   7.369
 5272POPC   NC367583  43.004   5.277   5.323
 5272POPC   PO467584  43.255   4.777   5.729
 5272POPC   GL167585  43.028   5.120   5.802
 5272POPC   GL267586  43.280   5.362   5.788
 5272POPC   C1A67587  42.818   5.274   6.146
 5272POPC   D2A67588  42.796   5.024   6.540
 5272POPC   C3A67589  42.841   5.169   6.977
 5272POPC   C4A67590  42.759   4.895   7.326
 5272POPC   C1B67591  43.307   5.214   6.234
 5272POPC   C2B67592  43.232   5.276   6.649
 5272POPC   C3B67593  43.388   5.170   7.056
 5272POPC   C4B67594  43.586   5.255   7.474
 5273POPC   NC367595  35.260  29.510   5.455
 5273POPC   PO467596  35.741  29.085   5.406
 5273POPC   GL167597  35.551  29.136   5.775
 5273POPC   GL267598  35.716  28.824   5.874
 5273POPC   C1A67599  35.344  29.344   6.137
 5273POPC   D2A67600  35.199  29.162   6.564
 5273POPC   C3A67601  35.224  29.426   6.907
 5273POPC   C4A67602  35.446  29.614   7.234
 5273POPC   C1B67603  35.465  28.842   6.220
 5273POPC   C2B67604  35.643  28.859   6.600
 5273POPC   C3B67605  35.601  29.060   6.965
 5273POPC   C4B67606  35.208  28.977   7.153
 5274POPC   NC367607  32.375  11.142   5.452
 5274POPC   PO467608  31.803  10.943   5.464
 5274POPC   GL167609  31.995  11.264   5.787
 5274POPC   GL267610  32.265  11.531   5.805
 5274POPC   C1A67611  32.108  11.238   6.206
 5274POPC   D2A67612  32.173  10.927   6.491
 5274POPC   C3A67613  32.306  11.117   6.850
 5274POPC   C4A67614  32.157  10.926   7.227
 5274POPC   C1B67615  32.525  11.523   6.197
 5274POPC   C2B67616  32.395  11.645   6.600
 5274POPC   C3B67617  32.534  11.581   6.998
 5274POPC   C4B67618  32.587  11.252   7.260
 5275POPC   NC367619  39.497  44.595   5.449
 5275POPC   PO467620  38.961  44.862   5.187
 5275POPC   GL167621  38.975  44.812   5.666
 5275POPC   GL267622  38.912   0.104   5.829
 5275POPC   C1A67623  39.164  44.653   6.098
 5275POPC   D2A67624  39.167  44.275   6.387
 5275POPC   C3A67625  39.299  44.305   6.826
 5275POPC   C4A67626  39.123  44.312   7.247
 5275POPC   C1B67627  38.761  44.951   6.217
 5275POPC   C2B67628  38.966  44.763   6.576
 5275POPC   C3B67629  39.060  44.763   7.017
 5275POPC   C4B67630  39.321  44.764   7.405
 5276POPC   NC367631   0.483  20.976   5.433
 5276POPC   PO467632   0.731  20.378   5.459
 5276POPC   GL167633   0.374  20.526   5.698
 5276POPC   GL267634   0.545  20.766   5.897
 5276POPC   C1A67635   0.107  20.557   6.069
 5276POPC   D2A67636   0.248  20.548   6.490
 5276POPC   C3A67637   0.158  20.628   6.897
 5276POPC   C4A67638   0.321  20.553   7.303
 5276POPC   C1B67639   0.593  20.382   6.155
 5276POPC   C2B67640   0.643  20.246   6.599
 5276POPC   C3B67641   0.722  20.363   7.030
 5276POPC   C4B67642   0.803  20.624   7.420
 5277POPC   NC367643  39.371  35.543   5.404
 5277POPC   PO467644  38.944  35.031   5.360
 5277POPC   GL167645  39.056  35.201   5.757
 5277POPC   GL267646  38.985  35.547   5.808
 5277POPC   C1A67647  38.956  35.197   6.195
 5277POPC   D2A67648  38.838  35.356   6.575
 5277POPC   C3A67649  39.099  35.263   6.911
 5277POPC   C4A67650  39.388  34.982   7.114
 5277POPC   C1B67651  39.075  35.725   6.209
 5277POPC   C2B67652  39.247  35.670   6.588
 5277POPC   C3B67653  39.357  35.892   6.958
 5277POPC   C4B67654  39.323  35.645   7.277
 5278POPC   NC367655   9.669  30.924   5.488
 5278POPC   PO467656   9.392  30.356   5.722
 5278POPC   GL167657   9.682  30.636   5.932
 5278POPC   GL267658  10.008  30.542   5.820
 5278POPC   C1A67659   9.710  30.955   6.262
 5278POPC   D2A67660   9.838  30.920   6.691
 5278POPC   C3A67661   9.574  30.650   6.956
 5278POPC   C4A67662   9.499  30.691   7.384
 5278POPC   C1B67663  10.083  30.551   6.276
 5278POPC   C2B67664  10.162  30.505   6.727
 5278POPC   C3B67665  10.039  30.522   7.181
 5278POPC   C4B67666  10.053  30.301   7.586
 5279POPC   NC367667   9.942  21.659   5.484
 5279POPC   PO467668  10.006  21.025   5.399
 5279POPC   GL167669   9.783  21.272   5.762
 5279POPC   GL267670   9.486  21.509   5.675
 5279POPC   C1A67671   9.883  21.432   6.168
 5279POPC   D2A67672  10.067  21.303   6.532
 5279POPC   C3A67673   9.910  21.442   6.891
 5279POPC   C4A67674   9.704  21.259   7.218
 5279POPC   C1B67675   9.445  21.652   6.120
 5279POPC   C2B67676   9.678  21.756   6.526
 5279POPC   C3B67677   9.543  21.777   6.980
 5279POPC   C4B67678   9.349  21.626   7.375
 5280POPC   NC367679  24.145   3.827   5.585
 5280POPC   PO467680  24.559   3.369   5.331
 5280POPC   GL167681  24.620   3.499   5.787
 5280POPC   GL267682  24.656   3.858   5.754
 5280POPC   C1A67683  24.525   3.428   6.262
 5280POPC   D2A67684  24.389   3.511   6.709
 5280POPC   C3A67685  24.674   3.277   7.040
 5280POPC   C4A67686  24.545   3.126   7.460
 5280POPC   C1B67687  24.444   3.940   6.148
 5280POPC   C2B67688  24.210   4.079   6.506
 5280POPC   C3B67689  24.450   3.994   6.859
 5280POPC   C4B67690  24.615   3.812   7.216
 5281POPC   NC367691  15.917  44.931   5.432
 5281POPC   PO467692  16.303  44.474   5.497
 5281POPC   GL167693  16.024  44.394   5.822
 5281POPC   GL267694  16.017  44.743   5.903
 5281POPC   C1A67695  15.970  44.371   6.279
 5281POPC   D2A67696  16.106  44.631   6.634
 5281POPC   C3A67697  16.172  44.818   7.060
 5281POPC   C4A67698  16.067  44.551   7.427
 5281POPC   C1B67699  15.769  44.853   6.260
 5281POPC   C2B67700  15.752  44.990   6.683
 5281POPC   C3B67701  15.525   0.090   7.031
 5281POPC   C4B67702  15.756  44.965   7.347
 5282POPC   NC367703  24.022   3.715   5.054
 5282POPC   PO467704  23.755   3.294   5.498
 5282POPC   GL167705  23.796   3.548   5.844
 5282POPC   GL267706  24.131   3.386   5.884
 5282POPC   C1A67707  23.534   3.578   6.231
 5282POPC   D2A67708  23.491   3.345   6.610
 5282POPC   C3A67709  23.449   3.621   6.942
 5282POPC   C4A67710  23.634   3.715   7.364
 5282POPC   C1B67711  24.052   3.603   6.279
 5282POPC   C2B67712  23.880   3.709   6.657
 5282POPC   C3B67713  24.028   3.794   7.043
 5282POPC   C4B67714  24.258   3.481   7.216
 5283POPC   NC367715  28.520  14.795   5.652
 5283POPC   PO467716  28.421  14.098   5.347
 5283POPC   GL167717  28.259  14.388   5.716
 5283POPC   GL267718  28.529  14.299   5.911
 5283POPC   C1A67719  28.155  14.476   6.206
 5283POPC   D2A67720  28.374  14.249   6.565
 5283POPC   C3A67721  28.242  14.310   7.005
 5283POPC   C4A67722  28.069  14.004   7.291
 5283POPC   C1B67723  28.815  14.046   6.153
 5283POPC   C2B67724  28.922  14.210   6.553
 5283POPC   C3B67725  28.726  14.410   6.902
 5283POPC   C4B67726  28.621  14.654   7.264
 5284POPC   NC367727  23.437  27.049   5.539
 5284POPC   PO467728  23.973  26.794   5.423
 5284POPC   GL167729  23.952  26.959   5.849
 5284POPC   GL267730  23.625  26.792   5.936
 5284POPC   C1A67731  23.896  26.935   6.324
 5284POPC   D2A67732  23.611  26.830   6.635
 5284POPC   C3A67733  23.873  26.944   6.981
 5284POPC   C4A67734  24.074  26.780   7.317
 5284POPC   C1B67735  23.441  27.130   6.211
 5284POPC   C2B67736  23.463  27.312   6.669
 5284POPC   C3B67737  23.387  27.046   7.061
 5284POPC   C4B67738  23.540  26.589   7.101
 5285POPC   NC367739  30.666  21.109   5.511
 5285POPC   PO467740  30.870  21.674   5.274
 5285POPC   GL167741  30.599  21.599   5.686
 5285POPC   GL267742  30.822  21.417   5.908
 5285POPC   C1A67743  30.404  21.585   6.140
 5285POPC   D2A67744  30.233  21.528   6.546
 5285POPC   C3A67745  30.530  21.481   6.850
 5285POPC   C4A67746  30.708  21.549   7.250
 5285POPC   C1B67747  30.794  21.288   6.360
 5285POPC   C2B67748  31.019  21.385   6.742
 5285POPC   C3B67749  31.219  21.428   7.125
 5285POPC   C4B67750  31.080  21.396   7.553
 5286POPC   NC367751   6.877   8.165   5.425
 5286POPC   PO467752   7.528   8.132   5.473
 5286POPC   GL167753   7.289   8.168   5.843
 5286POPC   GL267754   7.085   7.856   5.829
 5286POPC   C1A67755   7.386   8.384   6.257
 5286POPC   D2A67756   7.233   8.625   6.626
 5286POPC   C3A67757   7.395   8.414   6.976
 5286POPC   C4A67758   7.480   8.421   7.397
 5286POPC   C1B67759   7.274   7.878   6.263
 5286POPC   C2B67760   7.190   8.080   6.635
 5286POPC   C3B67761   7.138   7.964   7.051
 5286POPC   C4B67762   7.360   7.913   7.425
 5287POPC   NC367763  25.015  40.165   5.336
 5287POPC   PO467764  25.669  40.010   5.386
 5287POPC   GL167765  25.517  40.135   5.775
 5287POPC   GL267766  25.223  39.988   5.795
 5287POPC   C1A67767  25.414  40.192   6.226
 5287POPC   D2A67768  25.334  40.344   6.643
 5287POPC   C3A67769  25.479  40.119   6.992
 5287POPC   C4A67770  25.603  40.268   7.395
 5287POPC   C1B67771  25.169  39.755   6.193
 5287POPC   C2B67772  25.079  39.903   6.599
 5287POPC   C3B67773  25.122  39.732   6.995
 5287POPC   C4B67774  24.907  39.597   7.384
 5288POPC   NC367775  16.411  30.885   5.479
 5288POPC   PO467776  17.028  30.575   5.360
 5288POPC   GL167777  16.887  30.730   5.800
 5288POPC   GL267778  16.553  30.879   5.961
 5288POPC   C1A67779  16.825  30.552   6.239
 5288POPC   D2A67780  16.519  30.696   6.551
 5288POPC   C3A67781  16.717  30.634   6.965
 5288POPC   C4A67782  17.088  30.412   7.162
 5288POPC   C1B67783  16.832  31.052   6.289
 5288POPC   C2B67784  16.980  31.039   6.712
 5288POPC   C3B67785  16.821  31.122   7.104
 5288POPC   C4B67786  16.462  30.972   7.253
 5289POPC   NC367787  24.016  40.198   5.355
 5289POPC   PO467788  24.592  40.016   5.116
 5289POPC   GL167789  24.464  39.978   5.561
 5289POPC   GL267790  24.736  40.109   5.745
 5289POPC   C1A67791  24.362  39.957   6.031
 5289POPC   D2A67792  24.568  39.930   6.451
 5289POPC   C3A67793  24.352  40.085   6.806
 5289POPC   C4A67794  24.161  39.778   7.105
 5289POPC   C1B67795  24.891  40.196   6.155
 5289POPC   C2B67796  24.812  40.352   6.561
 5289POPC   C3B67797  24.936  40.274   6.983
 5289POPC   C4B67798  24.684  39.957   7.144
 5290POPC   NC367799  12.696   9.161   5.192
 5290POPC   PO467800  12.995   8.569   5.364
 5290POPC   GL167801  12.803   8.922   5.696
 5290POPC   GL267802  12.807   9.308   5.723
 5290POPC   C1A67803  12.725   9.001   6.189
 5290POPC   D2A67804  12.757   9.208   6.651
 5290POPC   C3A67805  12.773   8.949   7.083
 5290POPC   C4A67806  12.686   8.743   7.526
 5290POPC   C1B67807  13.115   9.321   6.094
 5290POPC   C2B67808  13.253   9.228   6.530
 5290POPC   C3B67809  13.215   9.281   6.981
 5290POPC   C4B67810  12.847   9.443   7.203
 5291POPC   NC367811  31.989  17.801   5.142
 5291POPC   PO467812  32.222  17.184   5.231
 5291POPC   GL167813  32.395  17.497   5.594
 5291POPC   GL267814  32.122  17.682   5.745
 5291POPC   C1A67815  32.451  17.520   6.091
 5291POPC   D2A67816  32.254  17.256   6.410
 5291POPC   C3A67817  32.348  17.313   6.846
 5291POPC   C4A67818  32.241  17.377   7.265
 5291POPC   C1B67819  32.013  17.782   6.172
 5291POPC   C2B67820  31.972  17.662   6.613
 5291POPC   C3B67821  32.101  17.794   6.998
 5291POPC   C4B67822  31.965  17.785   7.419
 5292POPC   NC367823  33.463  39.535   5.148
 5292POPC   PO467824  33.001  39.168   5.559
 5292POPC   GL167825  32.992  39.250   5.943
 5292POPC   GL267826  33.346  39.117   5.968
 5292POPC   C1A67827  32.742  39.234   6.333
 5292POPC   D2A67828  32.857  39.111   6.764
 5292POPC   C3A67829  32.942  39.418   7.132
 5292POPC   C4A67830  32.778  39.401   7.572
 5292POPC   C1B67831  33.240  39.275   6.382
 5292POPC   C2B67832  33.315  39.371   6.787
 5292POPC   C3B67833  33.409  39.153   7.161
 5292POPC   C4B67834  33.260  39.249   7.566
 5293POPC   NC367835  36.533  23.356   5.528
 5293POPC   PO467836  37.007  22.731   5.362
 5293POPC   GL167837  36.792  22.877   5.741
 5293POPC   GL267838  36.931  23.196   5.801
 5293POPC   C1A67839  36.951  22.801   6.194
 5293POPC   D2A67840  36.951  22.728   6.665
 5293POPC   C3A67841  37.170  22.983   6.991
 5293POPC   C4A67842  37.055  22.857   7.431
 5293POPC   C1B67843  36.687  23.232   6.187
 5293POPC   C2B67844  36.842  23.236   6.618
 5293POPC   C3B67845  36.730  23.232   7.069
 5293POPC   C4B67846  36.791  23.327   7.512
 5294POPC   NC367847  23.412  27.861   5.505
 5294POPC   PO467848  24.033  27.488   5.527
 5294POPC   GL167849  23.723  27.433   5.828
 5294POPC   GL267850  23.731  27.776   5.906
 5294POPC   C1A67851  23.838  27.437   6.271
 5294POPC   D2A67852  23.832  27.687   6.625
 5294POPC   C3A67853  23.875  27.491   7.002
 5294POPC   C4A67854  24.002  27.750   7.337
 5294POPC   C1B67855  23.482  27.845   6.261
 5294POPC   C2B67856  23.326  27.804   6.670
 5294POPC   C3B67857  23.543  27.888   7.052
 5294POPC   C4B67858  23.575  27.963   7.503
 5295POPC   NC367859  39.008  16.520   5.411
 5295POPC   PO467860  39.123  17.200   5.420
 5295POPC   GL167861  39.284  16.849   5.714
 5295POPC   GL267862  39.474  16.529   5.733
 5295POPC   C1A67863  39.248  16.734   6.178
 5295POPC   D2A67864  39.046  16.840   6.561
 5295POPC   C3A67865  39.206  16.731   6.958
 5295POPC   C4A67866  39.215  16.524   7.348
 5295POPC   C1B67867  39.690  16.499   6.155
 5295POPC   C2B67868  39.523  16.390   6.570
 5295POPC   C3B67869  39.656  16.408   7.006
 5295POPC   C4B67870  39.575  16.160   7.361
 5296POPC   NC367871  36.315  15.593   5.499
 5296POPC   PO467872  35.796  15.970   5.575
 5296POPC   GL167873  36.137  15.922   5.889
 5296POPC   GL267874  36.477  16.107   5.877
 5296POPC   C1A67875  36.027  15.921   6.324
 5296POPC   D2A67876  35.946  15.613   6.640
 5296POPC   C3A67877  35.998  15.746   7.074
 5296POPC   C4A67878  36.098  15.743   7.516
 5296POPC   C1B67879  36.532  15.885   6.277
 5296POPC   C2B67880  36.360  15.899   6.717
 5296POPC   C3B67881  36.516  15.852   7.131
 5296POPC   C4B67882  36.746  15.743   7.493
 5297POPC   NC367883  44.859   8.270   5.534
 5297POPC   PO467884  44.280   7.931   5.497
 5297POPC   GL167885  44.455   8.166   5.826
 5297POPC   GL267886  44.210   8.287   6.033
 5297POPC   C1A67887  44.712   8.266   6.188
 5297POPC   D2A67888  44.517   8.283   6.606
 5297POPC   C3A67889  44.650   8.479   6.996
 5297POPC   C4A67890  44.916   8.276   7.296
 5297POPC   C1B67891  44.344   7.900   6.278
 5297POPC   C2B67892  44.329   7.797   6.724
 5297POPC   C3B67893  44.284   8.080   7.055
 5297POPC   C4B67894  44.426   8.270   7.445
 5298POPC   NC367895   1.416  18.667   5.348
 5298POPC   PO467896   0.934  18.225   5.350
 5298POPC   GL167897   1.188  18.225   5.696
 5298POPC   GL267898   1.025  18.477   5.804
 5298POPC   C1A67899   1.219  18.099   6.137
 5298POPC   D2A67900   1.386  18.238   6.554
 5298POPC   C3A67901   1.178  17.977   6.845
 5298POPC   C4A67902   1.068  18.023   7.267
 5298POPC   C1B67903   1.308  18.607   6.134
 5298POPC   C2B67904   1.428  18.763   6.568
 5298POPC   C3B67905   1.317  18.644   7.012
 5298POPC   C4B67906   1.534  18.628   7.433
 5299POPC   NC367907  44.693  39.359   5.426
 5299POPC   PO467908   0.302  39.361   5.465
 5299POPC   GL167909   0.403  39.227   5.903
 5299POPC   GL267910   0.521  38.868   5.954
 5299POPC   C1A67911   0.503  39.234   6.341
 5299POPC   D2A67912   0.676  39.153   6.744
 5299POPC   C3A67913   0.393  39.153   7.104
 5299POPC   C4A67914   0.382  39.024   7.539
 5299POPC   C1B67915   0.703  38.765   6.373
 5299POPC   C2B67916   0.488  38.647   6.783
 5299POPC   C3B67917   0.552  38.646   7.219
 5299POPC   C4B67918   0.851  38.920   7.174
 5300POPC   NC367919  43.664  23.311   4.994
 5300POPC   PO467920  44.176  23.187   5.470
 5300POPC   GL167921  44.176  22.938   5.869
 5300POPC   GL267922  44.106  22.579   5.957
 5300POPC   C1A67923  43.921  22.931   6.263
 5300POPC   D2A67924  43.604  22.979   6.530
 5300POPC   C3A67925  43.753  23.032   6.920
 5300POPC   C4A67926  43.781  23.178   7.309
 5300POPC   C1B67927  44.231  22.552   6.384
 5300POPC   C2B67928  43.947  22.602   6.705
 5300POPC   C3B67929  43.619  22.549   6.973
 5300POPC   C4B67930  43.730  22.673   7.362
 5301POPC   NC367931  40.902  34.459   5.413
 5301POPC   PO467932  40.242  34.119   5.355
 5301POPC   GL167933  40.529  34.239   5.753
 5301POPC   GL267934  40.740  34.545   5.870
 5301POPC   C1A67935  40.456  34.330   6.218
 5301POPC   D2A67936  40.421  34.540   6.603
 5301POPC   C3A67937  40.592  34.526   7.010
 5301POPC   C4A67938  40.611  34.975   7.143
 5301POPC   C1B67939  40.963  34.527   6.259
 5301POPC   C2B67940  40.928  34.669   6.674
 5301POPC   C3B67941  41.077  34.720   7.098
 5301POPC   C4B67942  41.114  35.010   7.481
 5302POPC   NC367943  11.251  41.266   5.301
 5302POPC   PO467944  11.358  41.970   5.600
 5302POPC   GL167945  11.096  41.691   5.815
 5302POPC   GL267946  11.255  41.388   5.856
 5302POPC   C1A67947  10.879  41.546   6.195
 5302POPC   D2A67948  10.913  41.247   6.538
 5302POPC   C3A67949  11.068  41.452   6.928
 5302POPC   C4A67950  10.963  41.476   7.364
 5302POPC   C1B67951  11.376  41.684   6.256
 5302POPC   C2B67952  11.564  41.828   6.692
 5302POPC   C3B67953  11.490  41.898   7.139
 5302POPC   C4B67954  11.429  41.664   7.512
 5303POPC   NC367955  35.793  35.220   5.470
 5303POPC   PO467956  35.187  35.219   5.542
 5303POPC   GL167957  35.477  35.483   5.786
 5303POPC   GL267958  35.619  35.185   5.964
 5303POPC   C1A67959  35.540  35.635   6.211
 5303POPC   D2A67960  35.633  35.397   6.589
 5303POPC   C3A67961  35.744  35.611   6.982
 5303POPC   C4A67962  35.692  35.426   7.370
 5303POPC   C1B67963  35.241  35.198   6.247
 5303POPC   C2B67964  35.088  35.287   6.677
 5303POPC   C3B67965  35.255  35.213   7.102
 5303POPC   C4B67966  35.164  35.286   7.549
 5304POPC   NC367967  24.278  15.563   5.247
 5304POPC   PO467968  24.726  15.052   5.166
 5304POPC   GL167969  24.611  15.097   5.638
 5304POPC   GL267970  24.559  15.438   5.721
 5304POPC   C1A67971  24.551  15.072   6.106
 5304POPC   D2A67972  24.732  15.065   6.544
 5304POPC   C3A67973  24.526  15.009   6.960
 5304POPC   C4A67974  24.650  14.931   7.399
 5304POPC   C1B67975  24.731  15.571   6.144
 5304POPC   C2B67976  24.750  15.745   6.594
 5304POPC   C3B67977  24.788  15.461   6.968
 5304POPC   C4B67978  24.437  15.415   7.284
 5305POPC   NC367979  10.340  41.420   5.284
 5305POPC   PO467980  11.020  41.658   5.303
 5305POPC   GL167981  10.782  41.358   5.576
 5305POPC   GL267982  10.591  41.644   5.679
 5305POPC   C1A67983  10.546  41.216   5.988
 5305POPC   D2A67984  10.355  41.424   6.382
 5305POPC   C3A67985  10.532  41.448   6.808
 5305POPC   C4A67986  10.524  41.258   7.207
 5305POPC   C1B67987  10.445  41.803   6.074
 5305POPC   C2B67988  10.345  41.922   6.521
 5305POPC   C3B67989  10.246  41.840   6.949
 5305POPC   C4B67990  10.512  41.780   7.267
 5306POPC   NC367991  40.246  43.611   5.570
 5306POPC   PO467992  39.769  43.179   5.255
 5306POPC   GL167993  39.908  43.282   5.706
 5306POPC   GL267994  39.774  43.642   5.774
 5306POPC   C1A67995  40.193  43.180   6.079
 5306POPC   D2A67996  40.224  42.967   6.474
 5306POPC   C3A67997  40.279  43.131   6.891
 5306POPC   C4A67998  40.247  42.861   7.267
 5306POPC   C1B67999  39.864  43.547   6.186
 5306POPC   C2B68000  39.811  43.332   6.571
 5306POPC   C3B68001  39.865  43.482   6.977
 5306POPC   C4B68002  39.901  43.335   7.378
 5307POPC   NC368003  13.035  21.614   5.222
 5307POPC   PO468004  12.475  21.198   5.491
 5307POPC   GL168005  12.672  21.454   5.795
 5307POPC   GL268006  12.822  21.196   6.000
 5307POPC   C1A68007  12.473  21.541   6.182
 5307POPC   D2A68008  12.486  21.250   6.491
 5307POPC   C3A68009  12.697  21.346   6.875
 5307POPC   C4A68010  12.715  21.274   7.319
 5307POPC   C1B68011  12.967  21.528   6.310
 5307POPC   C2B68012  13.140  21.622   6.708
 5307POPC   C3B68013  13.026  21.633   7.143
 5307POPC   C4B68014  13.169  21.362   7.503
 5308POPC   NC368015  11.656  10.312   5.420
 5308POPC   PO468016  11.209  10.779   5.295
 5308POPC   GL168017  11.287  10.515   5.714
 5308POPC   GL268018  11.619  10.537   5.887
 5308POPC   C1A68019  11.236  10.254   6.118
 5308POPC   D2A68020  11.462  10.328   6.509
 5308POPC   C3A68021  11.287  10.363   6.914
 5308POPC   C4A68022  10.996  10.150   7.196
 5308POPC   C1B68023  11.389  10.737   6.203
 5308POPC   C2B68024  11.449  10.877   6.604
 5308POPC   C3B68025  11.529  10.838   7.003
 5308POPC   C4B68026  11.260  10.710   7.330
 5309POPC   NC368027   9.504   6.251   5.591
 5309POPC   PO468028   9.815   5.667   5.413
 5309POPC   GL168029   9.947   5.796   5.857
 5309POPC   GL268030   9.913   5.462   5.921
 5309POPC   C1A68031   9.777   5.956   6.289
 5309POPC   D2A68032   9.849   6.180   6.667
 5309POPC   C3A68033   9.817   6.063   7.102
 5309POPC   C4A68034   9.483   5.993   7.399
 5309POPC   C1B68035   9.931   5.488   6.380
 5309POPC   C2B68036   9.751   5.657   6.784
 5309POPC   C3B68037   9.772   5.573   7.263
 5309POPC   C4B68038  10.040   5.509   7.672
 5310POPC   NC368039  14.676  33.816   5.447
 5310POPC   PO468040  14.119  33.616   5.058
 5310POPC   GL168041  14.153  33.786   5.544
 5310POPC   GL268042  14.332  33.558   5.801
 5310POPC   C1A68043  14.239  34.016   5.984
 5310POPC   D2A68044  14.353  33.877   6.423
 5310POPC   C3A68045  14.267  34.041   6.834
 5310POPC   C4A68046  14.387  33.902   7.252
 5310POPC   C1B68047  14.694  33.617   6.126
 5310POPC   C2B68048  14.896  33.810   6.514
 5310POPC   C3B68049  14.720  33.780   6.908
 5310POPC   C4B68050  14.523  33.413   7.152
 5311POPC   NC368051  38.019   5.179   5.437
 5311POPC   PO468052  37.488   4.851   5.671
 5311POPC   GL168053  37.799   5.001   5.893
 5311POPC   GL268054  37.669   5.330   5.815
 5311POPC   C1A68055  37.704   4.993   6.320
 5311POPC   D2A68056  37.299   4.997   6.562
 5311POPC   C3A68057  37.371   4.886   7.005
 5311POPC   C4A68058  37.593   5.021   7.377
 5311POPC   C1B68059  37.943   5.446   6.143
 5311POPC   C2B68060  37.957   5.354   6.573
 5311POPC   C3B68061  37.801   5.233   6.953
 5311POPC   C4B68062  38.023   5.291   7.338
 5312POPC   NC368063  12.405  44.789   5.534
 5312POPC   PO468064  11.732  44.609   5.581
 5312POPC   GL168065  12.014  44.712   5.967
 5312POPC   GL268066  12.388  44.619   6.024
 5312POPC   C1A68067  12.021  44.567   6.413
 5312POPC   D2A68068  12.275  44.553   6.814
 5312POPC   C3A68069  12.022  44.594   7.201
 5312POPC   C4A68070  11.615  44.784   7.266
 5312POPC   C1B68071  12.411  44.937   6.380
 5312POPC   C2B68072  12.342   0.083   6.805
 5312POPC   C3B68073  12.465  44.881   7.187
 5312POPC   C4B68074  12.299  44.812   7.600
 5313POPC   NC368075  35.045  24.622   4.942
 5313POPC   PO468076  35.534  24.387   5.365
 5313POPC   GL168077  35.577  24.445   5.798
 5313POPC   GL268078  35.578  24.775   5.790
 5313POPC   C1A68079  35.318  24.553   6.191
 5313POPC   D2A68080  35.104  24.388   6.560
 5313POPC   C3A68081  35.309  24.526   6.925
 5313POPC   C4A68082  35.196  24.348   7.298
 5313POPC   C1B68083  35.691  24.910   6.211
 5313POPC   C2B68084  35.705  24.749   6.645
 5313POPC   C3B68085  35.633  24.890   7.069
 5313POPC   C4B68086  35.483  24.726   7.466
 5314POPC   NC368087  37.863   7.649   5.599
 5314POPC   PO468088  37.319   7.232   5.449
 5314POPC   GL168089  37.561   7.284   5.813
 5314POPC   GL268090  37.397   7.587   5.865
 5314POPC   C1A68091  37.785   7.339   6.246
 5314POPC   D2A68092  37.857   7.026   6.604
 5314POPC   C3A68093  37.933   7.264   6.972
 5314POPC   C4A68094  37.957   7.727   6.928
 5314POPC   C1B68095  37.260   7.369   6.261
 5314POPC   C2B68096  37.415   7.298   6.698
 5314POPC   C3B68097  37.490   7.496   7.117
 5314POPC   C4B68098  37.238   7.508   7.511
 5315POPC   NC368099  41.786  34.213   5.452
 5315POPC   PO468100  41.324  34.648   5.391
 5315POPC   GL168101  41.317  34.433   5.828
 5315POPC   GL268102  41.521  34.132   5.885
 5315POPC   C1A68103  41.517  34.469   6.284
 5315POPC   D2A68104  41.437  34.710   6.695
 5315POPC   C3A68105  41.634  34.728   7.111
 5315POPC   C4A68106  41.654  34.966   7.511
 5315POPC   C1B68107  41.188  34.078   6.190
 5315POPC   C2B68108  41.219  34.245   6.628
 5315POPC   C3B68109  41.401  34.278   7.041
 5315POPC   C4B68110  41.807  34.110   7.161
 5316POPC   NC368111   8.538  41.386   5.488
 5316POPC   PO468112   7.924  41.568   5.410
 5316POPC   GL168113   8.132  41.399   5.786
 5316POPC   GL268114   8.254  41.702   5.898
 5316POPC   C1A68115   8.153  41.297   6.219
 5316POPC   D2A68116   8.200  41.622   6.531
 5316POPC   C3A68117   8.147  41.515   6.954
 5316POPC   C4A68118   8.028  41.437   7.392
 5316POPC   C1B68119   8.497  41.930   6.210
 5316POPC   C2B68120   8.669  41.829   6.596
 5316POPC   C3B68121   8.591  41.903   7.028
 5316POPC   C4B68122   8.453  41.713   7.402
 5317POPC   NC368123   0.200  26.860   5.568
 5317POPC   PO468124   0.859  26.639   5.442
 5317POPC   GL168125   0.647  26.929   5.790
 5317POPC   GL268126   0.513  26.649   5.934
 5317POPC   C1A68127   0.338  27.035   6.205
 5317POPC   D2A68128   0.216  26.803   6.602
 5317POPC   C3A68129   0.247  26.908   7.045
 5317POPC   C4A68130   0.557  26.903   7.365
 5317POPC   C1B68131   0.203  26.431   6.199
 5317POPC   C2B68132  44.956  26.371   6.573
 5317POPC   C3B68133   0.066  26.415   6.994
 5317POPC   C4B68134   0.167  26.540   7.438
 5318POPC   NC368135  37.293  38.613   5.428
 5318POPC   PO468136  37.795  38.225   5.444
 5318POPC   GL168137  37.775  38.420   5.831
 5318POPC   GL268138  37.582  38.729   5.860
 5318POPC   C1A68139  37.732  38.278   6.249
 5318POPC   D2A68140  37.568  38.254   6.661
 5318POPC   C3A68141  37.864  38.318   7.029
 5318POPC   C4A68142  37.813  38.281   7.489
 5318POPC   C1B68143  37.476  38.676   6.319
 5318POPC   C2B68144  37.590  38.773   6.747
 5318POPC   C3B68145  37.490  38.658   7.168
 5318POPC   C4B68146  37.528  38.670   7.608
 5319POPC   NC368147  37.806  31.258   5.312
 5319POPC   PO468148  37.502  30.637   5.340
 5319POPC   GL168149  37.620  30.913   5.659
 5319POPC   GL268150  37.769  30.660   5.804
 5319POPC   C1A68151  37.440  30.924   6.096
 5319POPC   D2A68152  37.244  30.799   6.515
 5319POPC   C3A68153  37.471  30.907   6.893
 5319POPC   C4A68154  37.659  30.671   7.192
 5319POPC   C1B68155  37.972  30.842   6.146
 5319POPC   C2B68156  37.884  30.870   6.580
 5319POPC   C3B68157  38.087  30.721   6.950
 5319POPC   C4B68158  38.098  30.852   7.384
 5320POPC   NC368159  26.379  35.286   5.305
 5320POPC   PO468160  25.839  35.592   5.511
 5320POPC   GL168161  26.099  35.416   5.828
 5320POPC   GL268162  26.276  35.128   5.768
 5320POPC   C1A68163  26.251  35.517   6.234
 5320POPC   D2A68164  26.164  35.680   6.650
 5320POPC   C3A68165  25.891  35.509   6.990
 5320POPC   C4A68166  26.254  35.537   7.246
 5320POPC   C1B68167  26.100  35.013   6.167
 5320POPC   C2B68168  25.962  35.216   6.547
 5320POPC   C3B68169  26.280  35.192   6.863
 5320POPC   C4B68170  26.358  34.814   7.097
 5321POPC   NC368171  22.519  30.111   5.141
 5321POPC   PO468172  23.150  29.872   5.314
 5321POPC   GL168173  22.968  30.082   5.694
 5321POPC   GL268174  22.607  30.204   5.665
 5321POPC   C1A68175  23.048  29.950   6.117
 5321POPC   D2A68176  22.994  30.141   6.495
 5321POPC   C3A68177  23.086  29.954   6.887
 5321POPC   C4A68178  23.201  29.583   7.147
 5321POPC   C1B68179  22.560  30.085   6.114
 5321POPC   C2B68180  22.554  29.899   6.535
 5321POPC   C3B68181  22.570  29.879   6.967
 5321POPC   C4B68182  22.751  30.136   7.256
 5322POPC   NC368183  11.895  38.980   5.379
 5322POPC   PO468184  12.377  39.440   5.321
 5322POPC   GL168185  12.288  39.323   5.737
 5322POPC   GL268186  12.572  39.177   5.886
 5322POPC   C1A68187  12.160  39.419   6.168
 5322POPC   D2A68188  12.063  39.245   6.564
 5322POPC   C3A68189  12.315  39.235   6.899
 5322POPC   C4A68190  12.187  39.238   7.304
 5322POPC   C1B68191  12.370  38.941   6.269
 5322POPC   C2B68192  12.341  38.745   6.707
 5322POPC   C3B68193  12.415  38.803   7.181
 5322POPC   C4B68194  12.395  38.896   7.675
 5323POPC   NC368195  27.271  22.849   5.355
 5323POPC   PO468196  27.907  22.647   5.405
 5323POPC   GL168197  27.629  22.782   5.766
 5323POPC   GL268198  27.582  23.142   5.751
 5323POPC   C1A68199  27.544  22.927   6.231
 5323POPC   D2A68200  27.768  22.839   6.635
 5323POPC   C3A68201  27.574  22.688   7.030
 5323POPC   C4A68202  27.779  22.774   7.454
 5323POPC   C1B68203  27.250  23.293   6.053
 5323POPC   C2B68204  27.100  23.153   6.473
 5323POPC   C3B68205  27.295  23.173   6.903
 5323POPC   C4B68206  27.315  23.012   7.325
 5324POPC   NC368207   6.833  21.036   5.234
 5324POPC   PO468208   6.603  20.398   5.420
 5324POPC   GL168209   6.553  20.557   5.845
 5324POPC   GL268210   6.786  20.811   5.741
 5324POPC   C1A68211   6.647  20.469   6.313
 5324POPC   D2A68212   6.739  20.416   6.757
 5324POPC   C3A68213   6.418  20.573   6.966
 5324POPC   C4A68214   6.323  20.695   7.384
 5324POPC   C1B68215   6.745  20.946   6.161
 5324POPC   C2B68216   6.916  20.851   6.563
 5324POPC   C3B68217   6.796  20.890   6.990
 5324POPC   C4B68218   6.847  20.667   7.330
 5325POPC   NC368219  38.769  41.636   5.671
 5325POPC   PO468220  39.338  41.762   5.326
 5325POPC   GL168221  39.393  41.633   5.785
 5325POPC   GL268222  39.194  41.315   5.881
 5325POPC   C1A68223  39.274  41.679   6.244
 5325POPC   D2A68224  39.261  41.555   6.697
 5325POPC   C3A68225  39.035  41.735   7.084
 5325POPC   C4A68226  39.265  41.745   7.494
 5325POPC   C1B68227  39.059  41.210   6.347
 5325POPC   C2B68228  38.965  41.172   6.860
 5325POPC   C3B68229  38.986  41.288   7.330
 5325POPC   C4B68230  38.935  41.171   7.783
 5326POPC   NC368231  21.827  19.335   5.094
 5326POPC   PO468232  21.333  19.174   5.498
 5326POPC   GL168233  21.478  19.049   5.884
 5326POPC   GL268234  21.297  18.734   5.851
 5326POPC   C1A68235  21.447  19.219   6.327
 5326POPC   D2A68236  21.207  19.227   6.693
 5326POPC   C3A68237  21.416  19.255   7.084
 5326POPC   C4A68238  21.205  19.316   7.458
 5326POPC   C1B68239  21.539  18.684   6.236
 5326POPC   C2B68240  21.297  18.733   6.581
 5326POPC   C3B68241  21.218  18.766   6.996
 5326POPC   C4B68242  21.600  18.756   7.147
 5327POPC   NC368243  39.668  17.237   5.448
 5327POPC   PO468244  39.779  16.562   5.321
 5327POPC   GL168245  39.981  16.783   5.704
 5327POPC   GL268246  39.771  16.971   5.857
 5327POPC   C1A68247  40.304  16.871   6.052
 5327POPC   D2A68248  40.301  16.881   6.507
 5327POPC   C3A68249  40.127  16.606   6.810
 5327POPC   C4A68250  40.121  16.724   7.233
 5327POPC   C1B68251  39.851  16.961   6.240
 5327POPC   C2B68252  39.705  16.847   6.595
 5327POPC   C3B68253  39.691  16.903   6.991
 5327POPC   C4B68254  39.631  16.835   7.413
 5328POPC   NC368255  44.267   9.075   5.494
 5328POPC   PO468256  44.852   8.724   5.446
 5328POPC   GL168257  44.624   8.673   5.829
 5328POPC   GL268258  44.576   9.049   5.912
 5328POPC   C1A68259  44.451   8.702   6.275
 5328POPC   D2A68260  44.592   9.050   6.511
 5328POPC   C3A68261  44.902   8.961   6.828
 5328POPC   C4A68262  44.808   9.038   7.253
 5328POPC   C1B68263  44.864   9.345   6.149
 5328POPC   C2B68264  44.901   9.488   6.574
 5328POPC   C3B68265  44.970   9.481   7.010
 5328POPC   C4B68266   0.270   9.276   7.274
 5329POPC   NC368267  43.974   5.379   5.263
 5329POPC   PO468268  43.353   4.962   5.219
 5329POPC   GL168269  43.684   5.065   5.625
 5329POPC   GL268270  44.001   4.930   5.833
 5329POPC   C1A68271  43.767   5.320   6.043
 5329POPC   D2A68272  43.728   5.255   6.528
 5329POPC   C3A68273  43.850   5.400   6.967
 5329POPC   C4A68274  44.141   5.157   7.250
 5329POPC   C1B68275  44.257   5.163   6.172
 5329POPC   C2B68276  44.219   5.229   6.639
 5329POPC   C3B68277  43.991   4.888   6.830
 5329POPC   C4B68278  44.109   4.546   7.139
 5330POPC   NC368279   3.137   2.015   5.338
 5330POPC   PO468280   2.579   1.656   5.472
 5330POPC   GL168281   2.794   1.937   5.757
 5330POPC   GL268282   2.944   1.697   5.902
 5330POPC   C1A68283   2.843   2.085   6.223
 5330POPC   D2A68284   2.682   2.256   6.630
 5330POPC   C3A68285   2.932   2.228   6.994
 5330POPC   C4A68286   2.772   2.220   7.379
 5330POPC   C1B68287   2.546   1.668   6.179
 5330POPC   C2B68288   2.436   1.794   6.619
 5330POPC   C3B68289   2.689   1.788   7.025
 5330POPC   C4B68290   3.059   1.537   7.221
 5331POPC   NC368291   9.863  17.181   5.419
 5331POPC   PO468292   9.517  17.730   5.333
 5331POPC   GL168293   9.620  17.536   5.730
 5331POPC   GL268294   9.388  17.233   5.665
 5331POPC   C1A68295   9.713  17.638   6.192
 5331POPC   D2A68296   9.732  17.589   6.659
 5331POPC   C3A68297   9.811  17.291   7.005
 5331POPC   C4A68298   9.870  17.485   7.425
 5331POPC   C1B68299   9.628  17.109   6.036
 5331POPC   C2B68300   9.618  17.137   6.469
 5331POPC   C3B68301   9.347  17.272   6.796
 5331POPC   C4B68302   9.279  17.134   7.187
 5332POPC   NC368303   1.458  36.113   5.398
 5332POPC   PO468304   0.856  36.076   5.076
 5332POPC   GL168305   0.924  36.159   5.613
 5332POPC   GL268306   1.217  36.371   5.770
 5332POPC   C1A68307   1.083  35.991   6.071
 5332POPC   D2A68308   1.207  36.267   6.440
 5332POPC   C3A68309   1.009  36.207   6.828
 5332POPC   C4A68310   1.046  35.998   7.203
 5332POPC   C1B68311   1.567  36.181   6.057
 5332POPC   C2B68312   1.672  36.075   6.503
 5332POPC   C3B68313   1.503  35.981   6.949
 5332POPC   C4B68314   1.490  35.996   7.431
 5333POPC   NC368315  34.275   7.844   5.403
 5333POPC   PO468316  34.951   7.944   5.496
 5333POPC   GL168317  34.609   7.901   5.835
 5333POPC   GL268318  34.332   8.155   5.804
 5333POPC   C1A68319  34.542   8.080   6.274
 5333POPC   D2A68320  34.571   8.344   6.666
 5333POPC   C3A68321  34.542   8.151   7.071
 5333POPC   C4A68322  34.796   8.154   7.423
 5333POPC   C1B68323  34.042   8.194   6.121
 5333POPC   C2B68324  34.093   8.151   6.562
 5333POPC   C3B68325  34.064   8.324   6.942
 5333POPC   C4B68326  34.115   8.333   7.366
 5334POPC   NC368327  19.668  32.419   5.259
 5334POPC   PO468328  19.984  32.047   5.708
 5334POPC   GL168329  19.656  32.276   5.830
 5334POPC   GL268330  19.521  31.951   5.981
 5334POPC   C1A68331  19.541  32.380   6.255
 5334POPC   D2A68332  19.728  32.189   6.623
 5334POPC   C3A68333  19.891  32.331   7.018
 5334POPC   C4A68334  19.647  32.521   7.307
 5334POPC   C1B68335  19.613  31.749   6.369
 5334POPC   C2B68336  19.525  31.757   6.794
 5334POPC   C3B68337  19.442  32.076   7.101
 5334POPC   C4B68338  19.548  32.045   7.541
 5335POPC   NC368339   8.907   1.373   5.451
 5335POPC   PO468340   9.277   0.876   5.449
 5335POPC   GL168341   9.008   0.956   5.784
 5335POPC   GL268342   9.218   1.210   5.854
 5335POPC   C1A68343   8.994   0.854   6.242
 5335POPC   D2A68344   9.246   0.846   6.648
 5335POPC   C3A68345   9.098   0.960   7.062
 5335POPC   C4A68346   9.250   1.317   7.297
 5335POPC   C1B68347   8.901   1.342   6.166
 5335POPC   C2B68348   8.819   1.191   6.596
 5335POPC   C3B68349   8.825   1.373   6.995
 5335POPC   C4B68350   8.783   1.492   7.403
 5336POPC   NC368351  21.396   2.461   5.469
 5336POPC   PO468352  21.188   3.172   5.489
 5336POPC   GL168353  21.382   2.925   5.819
 5336POPC   GL268354  21.711   2.801   5.889
 5336POPC   C1A68355  21.378   2.859   6.271
 5336POPC   D2A68356  21.241   2.546   6.542
 5336POPC   C3A68357  21.316   2.661   6.949
 5336POPC   C4A68358  21.085   2.774   7.294
 5336POPC   C1B68359  21.596   2.423   6.142
 5336POPC   C2B68360  21.708   2.299   6.579
 5336POPC   C3B68361  21.528   2.203   7.011
 5336POPC   C4B68362  21.448   2.462   7.431
 5337POPC   NC368363  34.917   7.409   5.648
 5337POPC   PO468364  35.548   7.251   5.383
 5337POPC   GL168365  35.451   7.437   5.768
 5337POPC   GL268366  35.355   7.128   5.871
 5337POPC   C1A68367  35.543   7.633   6.180
 5337POPC   D2A68368  35.380   7.634   6.591
 5337POPC   C3A68369  35.597   7.739   6.936
 5337POPC   C4A68370  35.369   7.525   7.249
 5337POPC   C1B68371  35.479   6.854   6.175
 5337POPC   C2B68372  35.342   6.801   6.575
 5337POPC   C3B68373  35.353   7.082   6.897
 5337POPC   C4B68374  35.442   7.028   7.315
 5338POPC   NC368375  40.610   4.749   5.003
 5338POPC   PO468376  40.831   4.247   5.432
 5338POPC   GL168377  40.898   4.498   5.771
 5338POPC   GL268378  41.047   4.233   5.940
 5338POPC   C1A68379  40.932   4.693   6.176
 5338POPC   D2A68380  40.647   4.633   6.509
 5338POPC   C3A68381  40.719   4.338   6.842
 5338POPC   C4A68382  40.569   4.391   7.274
 5338POPC   C1B68383  41.033   4.248   6.411
 5338POPC   C2B68384  41.191   4.523   6.722
 5338POPC   C3B68385  41.106   4.437   7.165
 5338POPC   C4B68386  40.933   4.024   7.250
 5339POPC   NC368387  32.207   0.537   5.391
 5339POPC   PO468388  32.694   0.177   5.721
 5339POPC   GL168389  32.462   0.540   5.925
 5339POPC   GL268390  32.084   0.562   5.892
 5339POPC   C1A68391  32.333   0.573   6.388
 5339POPC   D2A68392  32.251   0.267   6.735
 5339POPC   C3A68393  32.240   0.195   7.194
 5339POPC   C4A68394  32.269   0.061   7.661
 5339POPC   C1B68395  31.930   0.844   6.184
 5339POPC   C2B68396  32.090   0.968   6.652
 5339POPC   C3B68397  32.077   0.850   7.115
 5339POPC   C4B68398  32.202   0.586   7.518
 5340POPC   NC368399  12.449  33.271   5.630
 5340POPC   PO468400  12.881  32.783   5.461
 5340POPC   GL168401  12.845  33.017   5.869
 5340POPC   GL268402  12.869  33.386   5.908
 5340POPC   C1A68403  12.834  32.909   6.304
 5340POPC   D2A68404  12.993  32.722   6.691
 5340POPC   C3A68405  13.200  32.982   7.030
 5340POPC   C4A68406  13.037  32.964   7.462
 5340POPC   C1B68407  12.518  33.301   6.280
 5340POPC   C2B68408  12.467  33.015   6.651
 5340POPC   C3B68409  12.665  33.047   7.048
 5340POPC   C4B68410  12.533  33.454   7.220
 5341POPC   NC368411   4.375  10.760   5.296
 5341POPC   PO468412   3.938  10.245   5.447
 5341POPC   GL168413   4.286  10.235   5.755
 5341POPC   GL268414   4.481  10.569   5.781
 5341POPC   C1A68415   4.333  10.329   6.222
 5341POPC   D2A68416   4.488  10.297   6.633
 5341POPC   C3A68417   4.370  10.500   7.006
 5341POPC   C4A68418   4.484  10.254   7.320
 5341POPC   C1B68419   4.579  10.774   6.209
 5341POPC   C2B68420   4.427  10.872   6.650
 5341POPC   C3B68421   4.585  10.940   7.104
 5341POPC   C4B68422   4.645  10.715   7.526
 5342POPC   NC368423  13.457  32.399   5.498
 5342POPC   PO468424  14.007  31.927   5.431
 5342POPC   GL168425  13.864  32.148   5.785
 5342POPC   GL268426  13.802  32.515   5.865
 5342POPC   C1A68427  13.927  32.085   6.213
 5342POPC   D2A68428  13.842  32.380   6.500
 5342POPC   C3A68429  13.746  32.163   6.854
 5342POPC   C4A68430  13.981  32.040   7.195
 5342POPC   C1B68431  13.472  32.325   6.138
 5342POPC   C2B68432  13.329  32.360   6.561
 5342POPC   C3B68433  13.396  32.508   6.961
 5342POPC   C4B68434  13.430  32.214   7.269
 5343POPC   NC368435  22.364   3.880   5.297
 5343POPC   PO468436  22.512   3.245   5.497
 5343POPC   GL168437  22.292   3.562   5.708
 5343POPC   GL268438  21.983   3.464   5.722
 5343POPC   C1A68439  22.329   3.532   6.159
 5343POPC   D2A68440  22.077   3.354   6.497
 5343POPC   C3A68441  22.299   3.404   6.895
 5343POPC   C4A68442  22.296   3.153   7.272
 5343POPC   C1B68443  21.869   3.720   6.073
 5343POPC   C2B68444  21.671   3.683   6.487
 5343POPC   C3B68445  21.813   3.591   6.897
 5343POPC   C4B68446  22.016   3.608   7.301
 5344POPC   NC368447  30.016  33.314   5.301
 5344POPC   PO468448  29.879  32.704   5.472
 5344POPC   GL168449  30.030  33.051   5.749
 5344POPC   GL268450  29.721  33.112   5.799
 5344POPC   C1A68451  30.074  33.179   6.209
 5344POPC   D2A68452  30.193  33.301   6.642
 5344POPC   C3A68453  29.969  33.089   6.989
 5344POPC   C4A68454  29.972  33.115   7.432
 5344POPC   C1B68455  29.722  32.802   6.131
 5344POPC   C2B68456  29.801  32.856   6.561
 5344POPC   C3B68457  29.578  32.761   6.930
 5344POPC   C4B68458  29.508  32.931   7.320
 5345POPC   NC368459  26.059   7.486   5.026
 5345POPC   PO468460  26.265   7.380   5.607
 5345POPC   GL168461  26.125   7.467   5.963
 5345POPC   GL268462  25.785   7.411   5.908
 5345POPC   C1A68463  26.110   7.482   6.373
 5345POPC   D2A68464  25.911   7.739   6.625
 5345POPC   C3A68465  25.944   7.480   6.943
 5345POPC   C4A68466  26.196   7.352   7.293
 5345POPC   C1B68467  25.770   7.093   6.250
 5345POPC   C2B68468  25.940   7.051   6.693
 5345POPC   C3B68469  25.765   7.031   7.160
 5345POPC   C4B68470  25.814   7.172   7.613
 5346POPC   NC368471  23.099   0.440   5.336
 5346POPC   PO468472  22.628   0.093   5.158
 5346POPC   GL168473  22.713   0.260   5.635
 5346POPC   GL268474  22.828   0.631   5.730
 5346POPC   C1A68475  22.834   0.295   6.131
 5346POPC   D2A68476  23.083   0.356   6.564
 5346POPC   C3A68477  22.892   0.279   7.009
 5346POPC   C4A68478  22.529   0.258   7.319
 5346POPC   C1B68479  22.705   0.795   6.177
 5346POPC   C2B68480  22.856   0.811   6.627
 5346POPC   C3B68481  22.999   0.778   7.062
 5346POPC   C4B68482  23.169   0.958   7.440
 5347POPC   NC368483  38.343  41.131   5.230
 5347POPC   PO468484  38.335  41.759   5.591
 5347POPC   GL168485  38.395  41.617   5.984
 5347POPC   GL268486  38.346  41.264   5.794
 5347POPC   C1A68487  38.589  41.858   6.289
 5347POPC   D2A68488  38.875  41.883   6.605
 5347POPC   C3A68489  38.552  41.919   6.893
 5347POPC   C4A68490  38.439  41.805   7.291
 5347POPC   C1B68491  38.550  41.162   6.162
 5347POPC   C2B68492  38.624  41.392   6.536
 5347POPC   C3B68493  38.487  41.403   6.956
 5347POPC   C4B68494  38.467  41.291   7.361
 5348POPC   NC368495   0.808   5.214   5.306
 5348POPC   PO468496   0.222   4.872   5.470
 5348POPC   GL168497   0.572   5.025   5.757
 5348POPC   GL268498   0.916   4.898   5.725
 5348POPC   C1A68499   0.545   5.266   6.148
 5348POPC   D2A68500   0.202   5.350   6.437
 5348POPC   C3A68501   0.325   5.322   6.859
 5348POPC   C4A68502   0.192   5.193   7.260
 5348POPC   C1B68503   0.853   4.832   6.193
 5348POPC   C2B68504   0.615   4.949   6.584
 5348POPC   C3B68505   0.736   5.069   7.027
 5348POPC   C4B68506   0.676   5.081   7.487
 5349POPC   NC368507  18.713   5.741   5.352
 5349POPC   PO468508  19.377   6.005   5.496
 5349POPC   GL168509  19.196   5.763   5.841
 5349POPC   GL268510  18.899   5.563   5.779
 5349POPC   C1A68511  19.206   5.866   6.284
 5349POPC   D2A68512  19.146   5.880   6.718
 5349POPC   C3A68513  19.353   6.025   7.036
 5349POPC   C4A68514  19.084   6.047   7.372
 5349POPC   C1B68515  18.971   5.401   6.172
 5349POPC   C2B68516  18.806   5.567   6.527
 5349POPC   C3B68517  18.746   5.643   6.950
 5349POPC   C4B68518  19.024   5.550   7.242
 5350POPC   NC368519   2.127   0.332   5.354
 5350POPC   PO468520   2.005   0.949   5.059
 5350POPC   GL168521   2.052   0.759   5.611
 5350POPC   GL268522   2.088   0.380   5.851
 5350POPC   C1A68523   2.196   0.786   6.106
 5350POPC   D2A68524   2.055   0.499   6.428
 5350POPC   C3A68525   2.079   0.543   6.873
 5350POPC   C4A68526   1.995   0.426   7.289
 5350POPC   C1B68527   2.296   0.111   6.178
 5350POPC   C2B68528   2.387   0.152   6.641
 5350POPC   C3B68529   2.247   0.041   7.078
 5350POPC   C4B68530   2.062  44.984   7.524
 5351POPC   NC368531  15.416  20.831   5.525
 5351POPC   PO468532  14.991  20.316   5.277
 5351POPC   GL168533  15.102  20.456   5.693
 5351POPC   GL268534  14.819  20.455   5.935
 5351POPC   C1A68535  15.296  20.486   6.106
 5351POPC   D2A68536  15.049  20.424   6.514
 5351POPC   C3A68537  15.216  20.484   6.936
 5351POPC   C4A68538  15.140  20.154   7.212
 5351POPC   C1B68539  14.948  20.836   6.216
 5351POPC   C2B68540  15.073  20.925   6.652
 5351POPC   C3B68541  14.846  20.844   7.030
 5351POPC   C4B68542  14.589  20.926   7.399
 5352POPC   NC368543  35.814   4.420   5.467
 5352POPC   PO468544  35.108   4.399   5.371
 5352POPC   GL168545  35.090   4.452   5.798
 5352POPC   GL268546  35.124   4.093   5.865
 5352POPC   C1A68547  35.317   4.453   6.207
 5352POPC   D2A68548  35.481   4.197   6.549
 5352POPC   C3A68549  35.598   4.349   7.002
 5352POPC   C4A68550  35.751   4.474   7.413
 5352POPC   C1B68551  34.848   4.249   6.196
 5352POPC   C2B68552  34.950   4.394   6.583
 5352POPC   C3B68553  35.128   4.226   6.915
 5352POPC   C4B68554  35.276   4.017   7.260
 5353POPC   NC368555  39.821   5.364   5.333
 5353POPC   PO468556  40.349   5.896   5.389
 5353POPC   GL168557  40.026   5.905   5.761
 5353POPC   GL268558  39.772   5.599   5.790
 5353POPC   C1A68559  39.900   6.049   6.199
 5353POPC   D2A68560  39.730   6.261   6.595
 5353POPC   C3A68561  39.700   6.029   6.951
 5353POPC   C4A68562  40.071   6.017   7.167
 5353POPC   C1B68563  39.993   5.525   6.177
 5353POPC   C2B68564  40.094   5.704   6.600
 5353POPC   C3B68565  40.071   5.512   7.019
 5353POPC   C4B68566  39.994   5.621   7.458
 5354POPC   NC368567  38.871  32.355   5.535
 5354POPC   PO468568  38.194  32.356   5.388
 5354POPC   GL168569  38.326  32.200   5.820
 5354POPC   GL268570  38.583  31.934   5.772
 5354POPC   C1A68571  38.285  32.262   6.302
 5354POPC   D2A68572  38.191  32.207   6.776
 5354POPC   C3A68573  38.311  32.465   7.133
 5354POPC   C4A68574  38.265  32.708   7.512
 5354POPC   C1B68575  38.564  31.826   6.218
 5354POPC   C2B68576  38.730  31.985   6.603
 5354POPC   C3B68577  38.623  32.067   7.022
 5354POPC   C4B68578  38.360  31.905   7.342
 5355POPC   NC368579  43.551   4.601   5.423
 5355POPC   PO468580  44.050   4.203   5.535
 5355POPC   GL168581  44.058   4.426   5.887
 5355POPC   GL268582  43.701   4.515   5.904
 5355POPC   C1A68583  44.094   4.580   6.296
 5355POPC   D2A68584  44.254   4.447   6.663
 5355POPC   C3A68585  44.000   4.118   6.860
 5355POPC   C4A68586  43.750   4.167   7.238
 5355POPC   C1B68587  43.668   4.842   6.224
 5355POPC   C2B68588  43.474   4.809   6.619
 5355POPC   C3B68589  43.604   4.554   6.943
 5355POPC   C4B68590  43.700   4.812   7.251
 5356POPC   NC368591  31.668   8.239   5.126
 5356POPC   PO468592  31.102   7.984   5.332
 5356POPC   GL168593  31.355   8.145   5.698
 5356POPC   GL268594  31.631   7.899   5.716
 5356POPC   C1A68595  31.276   8.167   6.187
 5356POPC   D2A68596  31.353   8.097   6.648
 5356POPC   C3A68597  31.450   8.321   7.050
 5356POPC   C4A68598  31.366   8.124   7.467
 5356POPC   C1B68599  31.730   7.889   6.191
 5356POPC   C2B68600  31.869   8.041   6.640
 5356POPC   C3B68601  31.767   7.921   7.101
 5356POPC   C4B68602  31.788   7.878   7.574
 5357POPC   NC368603  20.442  37.652   5.378
 5357POPC   PO468604  21.034  37.389   5.458
 5357POPC   GL168605  20.815  37.651   5.789
 5357POPC   GL268606  20.534  37.911   5.826
 5357POPC   C1A68607  20.775  37.662   6.226
 5357POPC   D2A68608  20.858  37.416   6.560
 5357POPC   C3A68609  20.672  37.538   6.978
 5357POPC   C4A68610  20.518  37.455   7.436
 5357POPC   C1B68611  20.603  38.134   6.228
 5357POPC   C2B68612  20.608  38.033   6.703
 5357POPC   C3B68613  20.473  38.000   7.148
 5357POPC   C4B68614  20.232  37.905   7.543
 5358POPC   NC368615  25.735  38.557   5.277
 5358POPC   PO468616  26.251  38.132   5.210
 5358POPC   GL168617  26.083  38.350   5.604
 5358POPC   GL268618  26.162  38.703   5.582
 5358POPC   C1A68619  25.943  38.513   6.039
 5358POPC   D2A68620  25.732  38.389   6.437
 5358POPC   C3A68621  25.942  38.427   6.850
 5358POPC   C4A68622  25.715  38.420   7.236
 5358POPC   C1B68623  26.345  38.832   5.986
 5358POPC   C2B68624  26.429  38.864   6.428
 5358POPC   C3B68625  26.349  38.758   6.847
 5358POPC   C4B68626  26.166  38.686   7.253
 5359POPC   NC368627  23.169  22.011   5.389
 5359POPC   PO468628  22.630  21.755   5.621
 5359POPC   GL168629  22.821  22.120   5.825
 5359POPC   GL268630  22.580  22.386   5.887
 5359POPC   C1A68631  23.099  22.432   6.025
 5359POPC   D2A68632  23.132  22.543   6.474
 5359POPC   C3A68633  22.959  22.207   6.768
 5359POPC   C4A68634  23.028  21.961   7.177
 5359POPC   C1B68635  22.669  22.326   6.309
 5359POPC   C2B68636  22.492  22.418   6.685
 5359POPC   C3B68637  22.648  22.330   7.155
 5359POPC   C4B68638  22.721  22.463   7.606
 5360POPC   NC368639  40.765  40.265   5.189
 5360POPC   PO468640  40.680  40.886   5.355
 5360POPC   GL168641  40.683  40.866   5.811
 5360POPC   GL268642  41.035  40.962   5.761
 5360POPC   C1A68643  40.569  40.869   6.281
 5360POPC   D2A68644  40.625  41.145   6.699
 5360POPC   C3A68645  40.633  40.935   7.145
 5360POPC   C4A68646  40.429  40.982   7.570
 5360POPC   C1B68647  41.151  40.966   6.187
 5360POPC   C2B68648  40.984  40.787   6.556
 5360POPC   C3B68649  41.110  40.911   6.941
 5360POPC   C4B68650  41.284  40.729   7.273
 5361POPC   NC368651   9.462  14.649   5.398
 5361POPC   PO468652   9.974  14.227   5.250
 5361POPC   GL168653   9.904  14.458   5.673
 5361POPC   GL268654  10.044  14.764   5.823
 5361POPC   C1A68655   9.838  14.317   6.123
 5361POPC   D2A68656   9.750  14.159   6.557
 5361POPC   C3A68657  10.064  14.336   6.839
 5361POPC   C4A68658  10.002  14.570   7.225
 5361POPC   C1B68659   9.645  14.789   6.063
 5361POPC   C2B68660   9.500  14.602   6.441
 5361POPC   C3B68661   9.617  14.630   6.861
 5361POPC   C4B68662   9.435  14.586   7.237
 5362POPC   NC368663  33.269  41.917   5.634
 5362POPC   PO468664  33.744  41.542   5.239
 5362POPC   GL168665  33.811  41.741   5.689
 5362POPC   GL268666  33.577  41.678   5.944
 5362POPC   C1A68667  34.026  41.799   6.123
 5362POPC   D2A68668  33.979  41.610   6.542
 5362POPC   C3A68669  34.143  41.803   6.906
 5362POPC   C4A68670  34.064  41.551   7.249
 5362POPC   C1B68671  33.650  41.355   6.239
 5362POPC   C2B68672  33.604  41.272   6.686
 5362POPC   C3B68673  33.564  41.414   7.114
 5362POPC   C4B68674  33.438  41.016   7.285
 5363POPC   NC368675  24.425  40.826   5.419
 5363POPC   PO468676  24.953  40.665   5.674
 5363POPC   GL168677  24.631  40.600   5.936
 5363POPC   GL268678  24.344  40.438   5.779
 5363POPC   C1A68679  24.621  40.780   6.341
 5363POPC   D2A68680  24.409  40.893   6.710
 5363POPC   C3A68681  24.512  40.578   6.999
 5363POPC   C4A68682  24.762  40.770   7.280
 5363POPC   C1B68683  24.238  40.433   6.243
 5363POPC   C2B68684  24.068  40.498   6.681
 5363POPC   C3B68685  24.023  40.713   7.086
 5363POPC   C4B68686  24.311  41.041   7.226
 5364POPC   NC368687  17.329  11.002   5.213
 5364POPC   PO468688  17.480  10.298   5.263
 5364POPC   GL168689  17.569  10.299   5.737
 5364POPC   GL268690  17.273  10.411   5.900
 5364POPC   C1A68691  17.748  10.488   6.146
 5364POPC   D2A68692  17.579  10.390   6.569
 5364POPC   C3A68693  17.642  10.600   6.964
 5364POPC   C4A68694  17.628  10.436   7.383
 5364POPC   C1B68695  17.103  10.392   6.327
 5364POPC   C2B68696  17.037  10.568   6.752
 5364POPC   C3B68697  17.161  10.575   7.190
 5364POPC   C4B68698  17.271  10.795   7.567
 5365POPC   NC368699  36.419  19.988   5.072
 5365POPC   PO468700  35.842  19.887   5.103
 5365POPC   GL168701  36.042  19.900   5.570
 5365POPC   GL268702  36.151  19.613   5.845
 5365POPC   C1A68703  35.926  20.007   6.045
 5365POPC   D2A68704  35.737  19.946   6.490
 5365POPC   C3A68705  35.925  19.914   6.908
 5365POPC   C4A68706  36.113  20.152   7.264
 5365POPC   C1B68707  36.365  19.826   6.200
 5365POPC   C2B68708  36.278  19.684   6.618
 5365POPC   C3B68709  36.431  19.818   7.020
 5365POPC   C4B68710  36.356  19.752   7.458
 5366POPC   NC368711  26.422  40.834   5.290
 5366POPC   PO468712  26.928  40.499   5.593
 5366POPC   GL168713  26.774  40.509   6.006
 5366POPC   GL268714  26.705  40.860   6.079
 5366POPC   C1A68715  26.842  40.485   6.455
 5366POPC   D2A68716  26.893  40.385   6.878
 5366POPC   C3A68717  26.995  40.693   7.128
 5366POPC   C4A68718  27.007  41.109   7.238
 5366POPC   C1B68719  26.404  40.686   6.371
 5366POPC   C2B68720  26.387  40.366   6.692
 5366POPC   C3B68721  26.454  40.528   7.107
 5366POPC   C4B68722  26.501  40.969   7.228
 5367POPC   NC368723  24.215   6.963   5.433
 5367POPC   PO468724  24.901   6.851   5.368
 5367POPC   GL168725  24.681   6.671   5.720
 5367POPC   GL268726  24.337   6.610   5.846
 5367POPC   C1A68727  24.724   6.717   6.163
 5367POPC   D2A68728  24.378   6.677   6.452
 5367POPC   C3A68729  24.565   6.738   6.861
 5367POPC   C4A68730  24.756   6.706   7.252
 5367POPC   C1B68731  24.107   6.341   6.157
 5367POPC   C2B68732  24.092   6.279   6.627
 5367POPC   C3B68733  24.175   6.449   7.049
 5367POPC   C4B68734  24.269   6.125   7.343
 5368POPC   NC368735  30.288  17.410   5.096
 5368POPC   PO468736  30.807  17.176   5.334
 5368POPC   GL168737  30.746  17.311   5.742
 5368POPC   GL268738  30.761  17.644   5.815
 5368POPC   C1A68739  30.646  17.236   6.162
 5368POPC   D2A68740  30.309  17.345   6.419
 5368POPC   C3A68741  30.396  17.259   6.851
 5368POPC   C4A68742  30.422  17.514   7.204
 5368POPC   C1B68743  30.572  17.740   6.189
 5368POPC   C2B68744  30.672  18.005   6.560
 5368POPC   C3B68745  30.702  17.907   7.005
 5368POPC   C4B68746  30.703  17.853   7.462
 5369POPC   NC368747  32.498  26.723   5.421
 5369POPC   PO468748  31.845  26.916   5.526
 5369POPC   GL168749  32.174  26.700   5.801
 5369POPC   GL268750  32.386  27.022   5.812
 5369POPC   C1A68751  32.465  26.717   6.213
 5369POPC   D2A68752  32.498  26.545   6.633
 5369POPC   C3A68753  32.421  26.724   7.051
 5369POPC   C4A68754  32.043  26.552   7.259
 5369POPC   C1B68755  32.041  27.008   6.155
 5369POPC   C2B68756  32.141  27.077   6.547
 5369POPC   C3B68757  31.969  26.971   6.920
 5369POPC   C4B68758  32.043  27.050   7.289
 5370POPC   NC368759  44.634  17.803   5.445
 5370POPC   PO468760  44.964  18.381   5.431
 5370POPC   GL168761  44.720  18.333   5.825
 5370POPC   GL268762  44.484  18.072   5.922
 5370POPC   C1A68763  44.584  18.529   6.212
 5370POPC   D2A68764  44.300  18.535   6.570
 5370POPC   C3A68765  44.464  18.502   6.955
 5370POPC   C4A68766  44.407  18.124   7.148
 5370POPC   C1B68767  44.743  18.031   6.287
 5370POPC   C2B68768  44.690  18.041   6.722
 5370POPC   C3B68769  44.909  18.179   7.070
 5370POPC   C4B68770   0.183  18.015   7.392
 5371POPC   NC368771  32.530  25.790   5.494
 5371POPC   PO468772  31.963  26.218   5.528
 5371POPC   GL168773  32.154  25.962   5.807
 5371POPC   GL268774  32.425  26.221   5.792
 5371POPC   C1A68775  32.154  25.736   6.199
 5371POPC   D2A68776  32.417  25.733   6.571
 5371POPC   C3A68777  32.220  25.727   6.992
 5371POPC   C4A68778  32.078  26.045   7.282
 5371POPC   C1B68779  32.516  26.160   6.220
 5371POPC   C2B68780  32.754  26.123   6.605
 5371POPC   C3B68781  32.492  26.169   7.005
 5371POPC   C4B68782  32.498  26.345   7.443
 5372POPC   NC368783  41.102  20.792   5.479
 5372POPC   PO468784  40.499  21.018   5.535
 5372POPC   GL168785  40.706  20.675   5.813
 5372POPC   GL268786  41.006  20.403   5.786
 5372POPC   C1A68787  40.619  20.639   6.249
 5372POPC   D2A68788  40.572  20.878   6.621
 5372POPC   C3A68789  40.633  20.640   6.996
 5372POPC   C4A68790  40.793  20.844   7.360
 5372POPC   C1B68791  40.937  20.246   6.201
 5372POPC   C2B68792  40.818  20.301   6.618
 5372POPC   C3B68793  41.089  20.406   6.962
 5372POPC   C4B68794  41.028  20.401   7.399
 5373POPC   NC368795  42.509  25.024   5.059
 5373POPC   PO468796  43.000  25.311   5.456
 5373POPC   GL168797  43.049  25.267   5.869
 5373POPC   GL268798  43.159  25.596   5.865
 5373POPC   C1A68799  42.987  25.142   6.314
 5373POPC   D2A68800  43.341  24.979   6.565
 5373POPC   C3A68801  43.396  25.140   6.948
 5373POPC   C4A68802  43.231  24.971   7.323
 5373POPC   C1B68803  43.037  25.652   6.267
 5373POPC   C2B68804  43.121  25.859   6.599
 5373POPC   C3B68805  43.272  25.663   6.936
 5373POPC   C4B68806  43.155  25.459   7.282
 5374POPC   NC368807  27.126  35.511   5.416
 5374POPC   PO468808  26.556  35.751   5.281
 5374POPC   GL168809  26.686  35.440   5.700
 5374POPC   GL268810  27.017  35.198   5.803
 5374POPC   C1A68811  26.638  35.211   6.120
 5374POPC   D2A68812  26.913  35.214   6.468
 5374POPC   C3A68813  26.805  35.015   6.836
 5374POPC   C4A68814  26.705  35.277   7.157
 5374POPC   C1B68815  27.025  35.566   6.091
 5374POPC   C2B68816  27.171  35.661   6.499
 5374POPC   C3B68817  27.151  35.426   6.891
 5374POPC   C4B68818  27.091  35.583   7.312
 5375POPC   NC368819  16.789  25.555   5.095
 5375POPC   PO468820  16.571  24.993   5.417
 5375POPC   GL168821  16.608  25.221   5.823
 5375POPC   GL268822  16.356  25.460   5.915
 5375POPC   C1A68823  16.732  25.320   6.281
 5375POPC   D2A68824  16.716  25.162   6.711
 5375POPC   C3A68825  16.986  25.291   7.072
 5375POPC   C4A68826  16.833  25.399   7.489
 5375POPC   C1B68827  16.341  25.655   6.313
 5375POPC   C2B68828  16.439  25.592   6.742
 5375POPC   C3B68829  16.398  25.401   7.153
 5375POPC   C4B68830  16.322  25.474   7.593
 5376POPC   NC368831  22.893  44.737   5.260
 5376POPC   PO468832  23.164  44.252   5.307
 5376POPC   GL168833  22.995  44.416   5.750
 5376POPC   GL268834  22.903  44.781   5.815
 5376POPC   C1A68835  22.878  44.368   6.212
 5376POPC   D2A68836  22.764  44.502   6.640
 5376POPC   C3A68837  22.932  44.384   7.076
 5376POPC   C4A68838  23.283  44.626   7.317
 5376POPC   C1B68839  22.631  44.828   6.191
 5376POPC   C2B68840  22.678   0.029   6.608
 5376POPC   C3B68841  22.638  44.826   7.029
 5376POPC   C4B68842  22.493  44.720   7.435
 5377POPC   NC368843   8.049  37.933   5.325
 5377POPC   PO468844   8.449  38.418   5.361
 5377POPC   GL168845   8.154  38.584   5.661
 5377POPC   GL268846   7.929  38.296   5.691
 5377POPC   C1A68847   8.201  38.665   6.115
 5377POPC   D2A68848   8.320  38.366   6.447
 5377POPC   C3A68849   8.197  38.503   6.863
 5377POPC   C4A68850   8.443  38.360   7.203
 5377POPC   C1B68851   7.960  38.180   6.128
 5377POPC   C2B68852   7.828  38.259   6.575
 5377POPC   C3B68853   7.879  38.064   6.993
 5377POPC   C4B68854   7.964  38.287   7.393
 5378POPC   NC368855   9.661   2.062   5.372
 5378POPC   PO468856  10.034   1.530   5.471
 5378POPC   GL168857   9.732   1.786   5.787
 5378POPC   GL268858   9.415   2.056   5.814
 5378POPC   C1A68859   9.632   1.850   6.215
 5378POPC   D2A68860   9.696   1.704   6.609
 5378POPC   C3A68861   9.780   2.052   6.868
 5378POPC   C4A68862   9.833   2.025   7.287
 5378POPC   C1B68863   9.443   2.319   6.232
 5378POPC   C2B68864   9.515   2.458   6.697
 5378POPC   C3B68865   9.357   2.243   7.129
 5378POPC   C4B68866   9.478   2.212   7.596
 5379POPC   NC368867  13.330  15.527   5.389
 5379POPC   PO468868  13.646  16.121   5.451
 5379POPC   GL168869  13.614  15.896   5.793
 5379POPC   GL268870  13.261  15.892   5.768
 5379POPC   C1A68871  13.754  16.019   6.201
 5379POPC   D2A68872  13.897  15.912   6.618
 5379POPC   C3A68873  13.880  16.129   6.977
 5379POPC   C4A68874  13.709  16.006   7.358
 5379POPC   C1B68875  13.300  15.751   6.185
 5379POPC   C2B68876  13.464  15.674   6.577
 5379POPC   C3B68877  13.378  15.828   6.981
 5379POPC   C4B68878  13.308  15.704   7.398
 5380POPC   NC368879   7.361  30.448   5.408
 5380POPC   PO468880   7.299  31.087   5.314
 5380POPC   GL168881   7.354  30.905   5.750
 5380POPC   GL268882   7.677  30.709   5.842
 5380POPC   C1A68883   7.394  30.919   6.226
 5380POPC   D2A68884   7.448  30.740   6.636
 5380POPC   C3A68885   7.290  30.945   6.991
 5380POPC   C4A68886   6.963  30.776   7.164
 5380POPC   C1B68887   7.825  30.633   6.308
 5380POPC   C2B68888   7.773  30.353   6.697
 5380POPC   C3B68889   7.652  30.591   7.082
 5380POPC   C4B68890   7.772  30.561   7.510
 5381POPC   NC368891  38.190  38.470   5.507
 5381POPC   PO468892  38.783  38.122   5.672
 5381POPC   GL168893  38.513  38.381   5.901
 5381POPC   GL268894  38.390  38.742   5.892
 5381POPC   C1A68895  38.375  38.376   6.304
 5381POPC   D2A68896  38.540  38.249   6.687
 5381POPC   C3A68897  38.501  38.449   7.036
 5381POPC   C4A68898  38.705  38.613   7.401
 5381POPC   C1B68899  38.008  38.712   6.171
 5381POPC   C2B68900  38.028  38.591   6.600
 5381POPC   C3B68901  38.129  38.795   6.986
 5381POPC   C4B68902  38.185  38.614   7.410
 5382POPC   NC368903  15.485  18.955   5.349
 5382POPC   PO468904  15.149  19.438   5.405
 5382POPC   GL168905  15.173  19.378   5.881
 5382POPC   GL268906  15.178  19.015   5.901
 5382POPC   C1A68907  14.943  19.250   6.301
 5382POPC   D2A68908  14.826  19.409   6.717
 5382POPC   C3A68909  14.946  19.157   7.100
 5382POPC   C4A68910  15.171  19.198   7.513
 5382POPC   C1B68911  15.406  19.046   6.320
 5382POPC   C2B68912  15.351  19.185   6.770
 5382POPC   C3B68913  15.399  18.916   7.144
 5382POPC   C4B68914  15.483  18.791   7.587
 5383POPC   NC368915  27.193  34.748   5.414
 5383POPC   PO468916  27.715  34.315   5.480
 5383POPC   GL168917  27.420  34.458   5.782
 5383POPC   GL268918  27.445  34.845   5.836
 5383POPC   C1A68919  27.441  34.477   6.211
 5383POPC   D2A68920  27.672  34.234   6.503
 5383POPC   C3A68921  27.524  34.404   6.860
 5383POPC   C4A68922  27.590  34.241   7.254
 5383POPC   C1B68923  27.767  34.909   6.121
 5383POPC   C2B68924  27.760  34.747   6.517
 5383POPC   C3B68925  27.909  34.735   6.902
 5383POPC   C4B68926  27.685  34.753   7.247
 5384POPC   NC368927   1.521  30.413   5.061
 5384POPC   PO468928   2.216  30.489   5.423
 5384POPC   GL168929   2.019  30.664   5.811
 5384POPC   GL268930   1.876  30.985   5.852
 5384POPC   C1A68931   2.089  30.627   6.256
 5384POPC   D2A68932   2.269  30.415   6.630
 5384POPC   C3A68933   2.194  30.558   7.030
 5384POPC   C4A68934   1.807  30.415   7.202
 5384POPC   C1B68935   2.042  31.138   6.251
 5384POPC   C2B68936   2.049  30.957   6.662
 5384POPC   C3B68937   1.840  30.929   7.072
 5384POPC   C4B68938   2.037  30.811   7.481
 5385POPC   NC368939  41.954   7.102   5.509
 5385POPC   PO468940  41.342   7.239   5.439
 5385POPC   GL168941  41.554   7.383   5.793
 5385POPC   GL268942  41.809   7.632   5.710
 5385POPC   C1A68943  41.450   7.313   6.217
 5385POPC   D2A68944  41.553   7.168   6.632
 5385POPC   C3A68945  41.263   7.310   6.947
 5385POPC   C4A68946  41.389   7.583   7.287
 5385POPC   C1B68947  41.905   7.625   6.134
 5385POPC   C2B68948  41.656   7.685   6.503
 5385POPC   C3B68949  41.712   7.594   6.903
 5385POPC   C4B68950  41.916   7.758   7.239
 5386POPC   NC368951  13.764  24.504   5.280
 5386POPC   PO468952  13.319  25.036   5.412
 5386POPC   GL168953  13.527  24.728   5.722
 5386POPC   GL268954  13.493  24.339   5.695
 5386POPC   C1A68955  13.609  24.561   6.155
 5386POPC   D2A68956  13.418  24.529   6.567
 5386POPC   C3A68957  13.634  24.622   6.946
 5386POPC   C4A68958  13.492  24.583   7.365
 5386POPC   C1B68959  13.794  24.116   6.011
 5386POPC   C2B68960  13.917  24.013   6.427
 5386POPC   C3B68961  13.945  24.223   6.824
 5386POPC   C4B68962  13.902  24.308   7.277
 5387POPC   NC368963  32.033  31.720   5.297
 5387POPC   PO468964  32.578  31.341   5.312
 5387POPC   GL168965  32.411  31.308   5.737
 5387POPC   GL268966  32.496  31.661   5.859
 5387POPC   C1A68967  32.438  31.282   6.234
 5387POPC   D2A68968  32.499  31.585   6.617
 5387POPC   C3A68969  32.426  31.551   7.090
 5387POPC   C4A68970  32.173  31.231   7.350
 5387POPC   C1B68971  32.064  31.563   6.030
 5387POPC   C2B68972  31.964  31.336   6.439
 5387POPC   C3B68973  31.998  31.522   6.837
 5387POPC   C4B68974  31.901  31.647   7.246
 5388POPC   NC368975  26.734  16.513   5.086
 5388POPC   PO468976  26.163  16.850   5.387
 5388POPC   GL168977  25.931  16.674   5.735
 5388POPC   GL268978  26.216  16.615   5.914
 5388POPC   C1A68979  25.790  16.740   6.168
 5388POPC   D2A68980  26.111  16.727   6.484
 5388POPC   C3A68981  26.020  16.666   6.942
 5388POPC   C4A68982  25.798  16.684   7.353
 5388POPC   C1B68983  26.147  17.090   6.038
 5388POPC   C2B68984  26.222  17.298   6.434
 5388POPC   C3B68985  26.296  17.092   6.811
 5388POPC   C4B68986  26.074  17.088   7.239
 5389POPC   NC368987  31.142  20.639   5.457
 5389POPC   PO468988  31.755  20.404   5.247
 5389POPC   GL168989  31.666  20.437   5.716
 5389POPC   GL268990  31.316  20.316   5.843
 5389POPC   C1A68991  31.877  20.607   6.102
 5389POPC   D2A68992  31.742  20.785   6.498
 5389POPC   C3A68993  31.735  20.610   6.883
 5389POPC   C4A68994  31.558  20.597   7.305
 5389POPC   C1B68995  31.343  20.656   6.184
 5389POPC   C2B68996  31.096  20.843   6.559
 5389POPC   C3B68997  31.281  20.925   6.992
 5389POPC   C4B68998  31.456  21.068   7.420
 5390POPC   NC368999  19.077  43.030   5.325
 5390POPC   PO469000  19.510  42.769   5.602
 5390POPC   GL169001  19.159  42.980   5.848
 5390POPC   GL269002  18.823  42.868   5.778
 5390POPC   C1A69003  19.004  43.209   6.242
 5390POPC   D2A69004  18.863  43.330   6.673
 5390POPC   C3A69005  19.069  43.199   7.072
 5390POPC   C4A69006  19.277  43.008   7.476
 5390POPC   C1B69007  18.786  42.758   6.224
 5390POPC   C2B69008  18.998  42.810   6.607
 5390POPC   C3B69009  18.826  42.759   7.015
 5390POPC   C4B69010  18.770  42.967   7.408
 5391POPC   NC369011  25.355  31.546   5.348
 5391POPC   PO469012  25.478  30.887   5.450
 5391POPC   GL169013  25.389  31.296   5.781
 5391POPC   GL269014  25.070  31.539   5.779
 5391POPC   C1A69015  25.349  31.601   6.176
 5391POPC   D2A69016  25.089  31.577   6.525
 5391POPC   C3A69017  25.369  31.622   6.864
 5391POPC   C4A69018  25.404  31.457   7.276
 5391POPC   C1B69019  25.002  31.219   6.118
 5391POPC   C2B69020  25.035  31.040   6.525
 5391POPC   C3B69021  25.002  31.259   6.926
 5391POPC   C4B69022  24.966  31.190   7.349
 5392POPC   NC369023   2.202  25.032   5.576
 5392POPC   PO469024   2.074  24.369   5.401
 5392POPC   GL169025   2.075  24.583   5.824
 5392POPC   GL269026   1.828  24.827   5.896
 5392POPC   C1A69027   2.060  24.462   6.281
 5392POPC   D2A69028   2.274  24.391   6.679
 5392POPC   C3A69029   2.022  24.263   6.996
 5392POPC   C4A69030   2.094  24.438   7.386
 5392POPC   C1B69031   1.650  24.771   6.293
 5392POPC   C2B69032   1.682  24.513   6.667
 5392POPC   C3B69033   1.665  24.611   7.119
 5392POPC   C4B69034   1.497  24.640   7.544
 5393POPC   NC369035  41.267   4.560   5.411
 5393POPC   PO469036  41.578   3.929   5.352
 5393POPC   GL169037  41.527   4.103   5.764
 5393POPC   GL269038  41.540   4.436   5.838
 5393POPC   C1A69039  41.428   4.013   6.204
 5393POPC   D2A69040  41.572   4.089   6.661
 5393POPC   C3A69041  41.436   4.050   7.117
 5393POPC   C4A69042  41.293   4.052   7.590
 5393POPC   C1B69043  41.748   4.394   6.224
 5393POPC   C2B69044  41.718   4.595   6.622
 5393POPC   C3B69045  41.737   4.446   7.023
 5393POPC   C4B69046  41.575   4.449   7.438
 5394POPC   NC369047  16.123  26.069   5.596
 5394POPC   PO469048  15.665  25.667   5.409
 5394POPC   GL169049  15.654  25.911   5.799
 5394POPC   GL269050  15.659  26.292   5.746
 5394POPC   C1A69051  15.854  25.903   6.225
 5394POPC   D2A69052  16.116  26.039   6.602
 5394POPC   C3A69053  16.042  25.783   6.981
 5394POPC   C4A69054  15.881  25.718   7.383
 5394POPC   C1B69055  15.693  26.396   6.193
 5394POPC   C2B69056  15.612  26.189   6.580
 5394POPC   C3B69057  15.755  26.204   6.984
 5394POPC   C4B69058  15.933  26.526   7.183
 5395POPC   NC369059  12.048  21.000   5.505
 5395POPC   PO469060  12.288  20.451   5.416
 5395POPC   GL169061  12.284  20.627   5.818
 5395POPC   GL269062  11.914  20.630   5.831
 5395POPC   C1A69063  12.334  20.751   6.267
 5395POPC   D2A69064  12.181  20.891   6.671
 5395POPC   C3A69065  12.397  20.739   7.013
 5395POPC   C4A69066  12.214  20.631   7.382
 5395POPC   C1B69067  11.984  20.378   6.176
 5395POPC   C2B69068  11.907  20.470   6.579
 5395POPC   C3B69069  12.043  20.342   6.972
 5395POPC   C4B69070  11.792  20.350   7.317
 5396POPC   NC369071  10.816  37.891   5.420
 5396POPC   PO469072  10.149  37.734   5.297
 5396POPC   GL169073  10.399  37.779   5.712
 5396POPC   GL269074  10.596  37.498   5.857
 5396POPC   C1A69075  10.374  37.929   6.168
 5396POPC   D2A69076  10.219  38.204   6.528
 5396POPC   C3A69077  10.227  37.974   6.930
 5396POPC   C4A69078  10.571  37.984   7.232
 5396POPC   C1B69079  10.762  37.614   6.283
 5396POPC   C2B69080  10.665  37.728   6.720
 5396POPC   C3B69081  10.560  37.489   7.101
 5396POPC   C4B69082  10.581  37.573   7.548
 5397POPC   NC369083  31.433  31.730   5.543
 5397POPC   PO469084  31.375  32.303   5.348
 5397POPC   GL169085  31.447  32.303   5.794
 5397POPC   GL269086  31.487  32.662   5.946
 5397POPC   C1A69087  31.542  31.993   6.152
 5397POPC   D2A69088  31.820  31.852   6.481
 5397POPC   C3A69089  31.612  31.904   6.898
 5397POPC   C4A69090  31.659  32.175   7.258
 5397POPC   C1B69091  31.254  32.410   6.251
 5397POPC   C2B69092  31.202  32.102   6.579
 5397POPC   C3B69093  31.220  32.251   7.013
 5397POPC   C4B69094  31.226  32.509   7.408
 5398POPC   NC369095  43.160  14.838   5.336
 5398POPC   PO469096  43.038  15.481   5.333
 5398POPC   GL169097  43.226  15.238   5.668
 5398POPC   GL269098  42.890  15.076   5.698
 5398POPC   C1A69099  43.231  15.049   6.098
 5398POPC   D2A69100  43.104  14.911   6.516
 5398POPC   C3A69101  43.131  15.130   6.906
 5398POPC   C4A69102  43.444  15.096   7.231
 5398POPC   C1B69103  42.857  15.405   6.033
 5398POPC   C2B69104  42.801  15.344   6.491
 5398POPC   C3B69105  42.750  15.522   6.914
 5398POPC   C4B69106  42.736  15.341   7.312
 5399POPC   NC369107  32.393  32.628   5.511
 5399POPC   PO469108  32.381  31.982   5.436
 5399POPC   GL169109  32.256  32.149   5.811
 5399POPC   GL269110  32.198  32.497   5.965
 5399POPC   C1A69111  32.258  32.019   6.210
 5399POPC   D2A69112  32.233  32.273   6.551
 5399POPC   C3A69113  32.332  32.027   6.880
 5399POPC   C4A69114  32.163  32.070   7.250
 5399POPC   C1B69115  32.506  32.653   6.282
 5399POPC   C2B69116  32.636  32.564   6.741
 5399POPC   C3B69117  32.501  32.479   7.192
 5399POPC   C4B69118  32.406  32.655   7.614
 5400POPC   NC369119   0.131  39.783   5.410
 5400POPC   PO469120   0.579  40.165   5.475
 5400POPC   GL169121   0.668  40.001   5.891
 5400POPC   GL269122   0.502  39.718   5.790
 5400POPC   C1A69123   0.590  40.038   6.348
 5400POPC   D2A69124   0.368  40.111   6.728
 5400POPC   C3A69125   0.576  40.078   7.149
 5400POPC   C4A69126   0.437  40.142   7.590
 5400POPC   C1B69127   0.281  39.685   6.188
 5400POPC   C2B69128   0.321  39.606   6.639
 5400POPC   C3B69129   0.167  39.748   7.047
 5400POPC   C4B69130   0.335  39.635   7.441
 5401POPC   NC369131   9.528   4.531   5.360
 5401POPC   PO469132  10.051   4.051   5.430
 5401POPC   GL169133   9.918   4.168   5.784
 5401POPC   GL269134   9.881   4.510   5.741
 5401POPC   C1A69135   9.740   4.144   6.186
 5401POPC   D2A69136   9.714   3.922   6.565
 5401POPC   C3A69137   9.833   4.120   6.921
 5401POPC   C4A69138   9.675   4.364   7.211
 5401POPC   C1B69139  10.061   4.578   6.142
 5401POPC   C2B69140   9.952   4.505   6.578
 5401POPC   C3B69141   9.972   4.718   6.989
 5401POPC   C4B69142   9.957   4.707   7.463
 5402POPC   NC369143  18.701  13.435   5.102
 5402POPC   PO469144  18.381  13.790   5.601
 5402POPC   GL169145  18.160  13.433   5.774
 5402POPC   GL269146  18.465  13.312   5.830
 5402POPC   C1A69147  17.997  13.351   6.217
 5402POPC   D2A69148  18.151  13.447   6.665
 5402POPC   C3A69149  18.051  13.732   7.025
 5402POPC   C4A69150  17.973  13.471   7.434
 5402POPC   C1B69151  18.510  13.465   6.256
 5402POPC   C2B69152  18.731  13.403   6.639
 5402POPC   C3B69153  18.588  13.515   7.029
 5402POPC   C4B69154  18.410  13.708   7.369
 5403POPC   NC369155  21.014  17.840   5.310
 5403POPC   PO469156  21.554  17.437   5.339
 5403POPC   GL169157  21.650  17.441   5.772
 5403POPC   GL269158  21.312  17.417   5.839
 5403POPC   C1A69159  21.681  17.254   6.217
 5403POPC   D2A69160  21.716  17.147   6.668
 5403POPC   C3A69161  21.533  17.445   6.957
 5403POPC   C4A69162  21.161  17.460   7.152
 5403POPC   C1B69163  21.247  17.573   6.255
 5403POPC   C2B69164  21.117  17.697   6.659
 5403POPC   C3B69165  21.265  17.918   6.989
 5403POPC   C4B69166  21.455  17.840   7.373
 5404POPC   NC369167   2.435  34.054   5.504
 5404POPC   PO469168   2.800  33.613   5.191
 5404POPC   GL169169   2.768  33.693   5.699
 5404POPC   GL269170   2.448  33.690   5.857
 5404POPC   C1A69171   2.814  33.909   6.141
 5404POPC   D2A69172   2.675  33.770   6.573
 5404POPC   C3A69173   2.851  33.983   6.956
 5404POPC   C4A69174   3.075  34.087   7.333
 5404POPC   C1B69175   2.322  34.026   6.190
 5404POPC   C2B69176   2.128  33.974   6.594
 5404POPC   C3B69177   2.303  33.969   7.006
 5404POPC   C4B69178   2.536  33.703   7.243
 5405POPC   NC369179  25.757  18.983   5.416
 5405POPC   PO469180  26.257  18.659   5.245
 5405POPC   GL169181  26.172  18.804   5.716
 5405POPC   GL269182  25.977  19.109   5.837
 5405POPC   C1A69183  26.136  18.822   6.205
 5405POPC   D2A69184  25.901  18.815   6.580
 5405POPC   C3A69185  26.165  18.870   6.938
 5405POPC   C4A69186  25.982  18.763   7.338
 5405POPC   C1B69187  25.992  19.349   6.184
 5405POPC   C2B69188  26.142  19.279   6.565
 5405POPC   C3B69189  26.238  19.367   6.944
 5405POPC   C4B69190  26.225  19.207   7.315
 5406POPC   NC369191  27.263  26.950   5.572
 5406POPC   PO469192  27.842  26.675   5.415
 5406POPC   GL169193  27.694  26.532   5.807
 5406POPC   GL269194  27.353  26.478   5.753
 5406POPC   C1A69195  27.570  26.805   6.166
 5406POPC   D2A69196  27.433  27.094   6.494
 5406POPC   C3A69197  27.511  27.002   6.927
 5406POPC   C4A69198  27.607  27.077   7.361
 5406POPC   C1B69199  27.414  26.321   6.173
 5406POPC   C2B69200  27.338  26.550   6.562
 5406POPC   C3B69201  27.435  26.497   6.986
 5406POPC   C4B69202  27.514  26.595   7.419
 5407POPC   NC369203  23.639  12.834   5.065
 5407POPC   PO469204  24.030  12.819   5.324
 5407POPC   GL169205  23.680  12.785   5.650
 5407POPC   GL269206  23.483  13.088   5.815
 5407POPC   C1A69207  23.583  12.691   6.124
 5407POPC   D2A69208  23.618  12.576   6.585
 5407POPC   C3A69209  23.593  12.835   6.969
 5407POPC   C4A69210  23.922  12.951   7.271
 5407POPC   C1B69211  23.407  13.138   6.304
 5407POPC   C2B69212  23.199  12.880   6.650
 5407POPC   C3B69213  23.125  12.755   7.111
 5407POPC   C4B69214  23.443  12.832   7.458
 5408POPC   NC369215  26.937  31.267   5.453
 5408POPC   PO469216  26.727  31.911   5.410
 5408POPC   GL169217  26.942  31.732   5.750
 5408POPC   GL269218  26.679  31.502   5.826
 5408POPC   C1A69219  26.934  31.731   6.214
 5408POPC   D2A69220  26.867  31.874   6.645
 5408POPC   C3A69221  27.016  31.566   6.930
 5408POPC   C4A69222  27.166  31.608   7.341
 5408POPC   C1B69223  26.641  31.281   6.238
 5408POPC   C2B69224  26.669  31.235   6.692
 5408POPC   C3B69225  26.638  31.306   7.143
 5408POPC   C4B69226  26.272  31.480   7.377
 5409POPC   NC369227  37.640  17.615   5.208
 5409POPC   PO469228  36.948  17.834   5.213
 5409POPC   GL169229  36.830  17.534   5.580
 5409POPC   GL269230  37.055  17.242   5.600
 5409POPC   C1A69231  36.852  17.513   6.050
 5409POPC   D2A69232  37.019  17.633   6.460
 5409POPC   C3A69233  36.910  17.587   6.905
 5409POPC   C4A69234  36.827  17.450   7.294
 5409POPC   C1B69235  37.188  17.136   6.018
 5409POPC   C2B69236  37.196  17.175   6.476
 5409POPC   C3B69237  37.166  17.146   6.946
 5409POPC   C4B69238  37.325  17.277   7.356
 5410POPC   NC369239  24.559  39.566   5.278
 5410POPC   PO469240  25.012  38.990   5.442
 5410POPC   GL169241  24.735  39.276   5.731
 5410POPC   GL269242  24.398  39.202   5.925
 5410POPC   C1A69243  24.701  39.559   6.101
 5410POPC   D2A69244  24.379  39.468   6.431
 5410POPC   C3A69245  24.541  39.545   6.840
 5410POPC   C4A69246  24.462  39.391   7.239
 5410POPC   C1B69247  24.668  39.070   6.266
 5410POPC   C2B69248  24.621  39.013   6.714
 5410POPC   C3B69249  24.315  38.936   7.049
 5410POPC   C4B69250  24.266  38.973   7.495
 5411POPC   NC369251  25.584   2.475   5.550
 5411POPC   PO469252  25.079   2.882   5.321
 5411POPC   GL169253  25.301   2.923   5.724
 5411POPC   GL269254  25.144   2.624   5.852
 5411POPC   C1A69255  25.523   2.870   6.160
 5411POPC   D2A69256  25.661   2.709   6.611
 5411POPC   C3A69257  25.491   2.827   7.007
 5411POPC   C4A69258  25.205   3.120   7.185
 5411POPC   C1B69259  25.135   2.522   6.288
 5411POPC   C2B69260  24.847   2.661   6.611
 5411POPC   C3B69261  24.865   2.765   7.024
 5411POPC   C4B69262  25.142   2.495   7.229
 5412POPC   NC369263   0.076  41.302   5.326
 5412POPC   PO469264   0.495  41.792   5.477
 5412POPC   GL169265   0.323  41.632   5.859
 5412POPC   GL269266   0.241  41.263   5.806
 5412POPC   C1A69267   0.166  41.761   6.287
 5412POPC   D2A69268   0.055  41.782   6.732
 5412POPC   C3A69269   0.365  41.683   7.049
 5412POPC   C4A69270   0.834  41.676   7.093
 5412POPC   C1B69271   0.529  41.261   6.154
 5412POPC   C2B69272   0.509  41.440   6.552
 5412POPC   C3B69273   0.436  41.201   6.881
 5412POPC   C4B69274   0.647  41.199   7.232
 5413POPC   NC369275  39.983  36.082   5.281
 5413POPC   PO469276  39.653  36.627   5.456
 5413POPC   GL169277  39.741  36.357   5.847
 5413POPC   GL269278  39.837  36.001   5.786
 5413POPC   C1A69279  39.935  36.245   6.268
 5413POPC   D2A69280  40.086  36.211   6.716
 5413POPC   C3A69281  39.897  36.431   7.089
 5413POPC   C4A69282  39.766  36.511   7.527
 5413POPC   C1B69283  39.670  35.800   6.156
 5413POPC   C2B69284  39.717  35.879   6.586
 5413POPC   C3B69285  39.881  35.814   6.996
 5413POPC   C4B69286  39.743  35.997   7.343
 5414POPC   NC369287  43.591  12.194   5.490
 5414POPC   PO469288  44.223  11.975   5.395
 5414POPC   GL169289  44.022  12.065   5.755
 5414POPC   GL269290  43.744  11.849   5.873
 5414POPC   C1A69291  44.096  12.199   6.149
 5414POPC   D2A69292  44.101  12.114   6.568
 5414POPC   C3A69293  44.012  12.404   6.896
 5414POPC   C4A69294  44.053  12.238   7.339
 5414POPC   C1B69295  43.583  12.179   6.156
 5414POPC   C2B69296  43.606  12.357   6.565
 5414POPC   C3B69297  43.528  12.273   7.001
 5414POPC   C4B69298  43.565  12.134   7.456
 5415POPC   NC369299  42.606  24.265   5.284
 5415POPC   PO469300  42.234  24.834   5.410
 5415POPC   GL169301  42.447  24.521   5.712
 5415POPC   GL269302  42.270  24.183   5.670
 5415POPC   C1A69303  42.652  24.490   6.159
 5415POPC   D2A69304  42.709  24.584   6.633
 5415POPC   C3A69305  42.376  24.614   6.969
 5415POPC   C4A69306  42.348  24.321   7.318
 5415POPC   C1B69307  42.170  24.260   6.124
 5415POPC   C2B69308  42.134  24.309   6.600
 5415POPC   C3B69309  41.974  24.165   7.012
 5415POPC   C4B69310  41.901  24.233   7.512
 5416POPC   NC369311  28.024   2.500   5.023
 5416POPC   PO469312  28.356   2.958   5.497
 5416POPC   GL169313  28.312   2.820   5.874
 5416POPC   GL269314  28.622   2.667   5.840
 5416POPC   C1A69315  28.421   2.762   6.286
 5416POPC   D2A69316  28.330   2.837   6.667
 5416POPC   C3A69317  28.434   2.635   7.025
 5416POPC   C4A69318  28.249   2.799   7.403
 5416POPC   C1B69319  28.727   3.092   6.046
 5416POPC   C2B69320  28.764   3.145   6.495
 5416POPC   C3B69321  28.677   3.107   6.936
 5416POPC   C4B69322  28.743   2.882   7.342
 5417POPC   NC369323   8.724  38.046   5.417
 5417POPC   PO469324   9.176  38.540   5.569
 5417POPC   GL169325   9.126  38.272   5.932
 5417POPC   GL269326   9.207  38.541   6.142
 5417POPC   C1A69327   8.833  38.241   6.330
 5417POPC   D2A69328   8.942  38.594   6.627
 5417POPC   C3A69329   9.159  38.589   7.027
 5417POPC   C4A69330   8.940  38.346   7.307
 5417POPC   C1B69331   8.742  38.727   6.163
 5417POPC   C2B69332   8.478  38.839   6.553
 5417POPC   C3B69333   8.617  38.811   6.981
 5417POPC   C4B69334   8.707  38.773   7.403
 5418POPC   NC369335   7.223  34.329   5.316
 5418POPC   PO469336   7.842  34.682   5.236
 5418POPC   GL169337   7.575  34.614   5.590
 5418POPC   GL269338   7.630  34.306   5.711
 5418POPC   C1A69339   7.597  34.772   6.017
 5418POPC   D2A69340   7.629  34.628   6.446
 5418POPC   C3A69341   7.527  34.929   6.746
 5418POPC   C4A69342   7.426  34.863   7.158
 5418POPC   C1B69343   7.348  34.330   6.030
 5418POPC   C2B69344   7.262  34.254   6.456
 5418POPC   C3B69345   7.373  34.418   6.873
 5418POPC   C4B69346   7.574  34.359   7.266
 5419POPC   NC369347  32.645   4.485   5.412
 5419POPC   PO469348  31.995   4.169   5.364
 5419POPC   GL169349  32.165   4.281   5.761
 5419POPC   GL269350  32.331   4.591   5.821
 5419POPC   C1A69351  32.274   4.143   6.176
 5419POPC   D2A69352  32.053   3.990   6.520
 5419POPC   C3A69353  32.213   4.141   6.916
 5419POPC   C4A69354  32.445   4.062   7.305
 5419POPC   C1B69355  32.014   4.662   6.146
 5419POPC   C2B69356  32.075   4.512   6.543
 5419POPC   C3B69357  31.998   4.616   6.963
 5419POPC   C4B69358  32.345   4.560   7.221
 5420POPC   NC369359  37.249  18.246   5.345
 5420POPC   PO469360  36.627  18.480   5.464
 5420POPC   GL169361  36.926  18.414   5.760
 5420POPC   GL269362  36.942  18.048   5.726
 5420POPC   C1A69363  36.781  18.497   6.181
 5420POPC   D2A69364  36.571  18.288   6.545
 5420POPC   C3A69365  36.725  18.373   6.954
 5420POPC   C4A69366  36.960  18.429   7.353
 5420POPC   C1B69367  36.859  18.015   6.184
 5420POPC   C2B69368  37.061  18.117   6.607
 5420POPC   C3B69369  37.090  18.026   7.041
 5420POPC   C4B69370  36.712  17.969   7.314
 5421POPC   NC369371   3.117   7.701   5.082
 5421POPC   PO469372   2.693   7.366   5.512
 5421POPC   GL169373   2.735   7.397   5.912
 5421POPC   GL269374   2.829   7.725   5.979
 5421POPC   C1A69375   2.684   7.182   6.272
 5421POPC   D2A69376   2.993   7.182   6.589
 5421POPC   C3A69377   2.842   7.215   6.998
 5421POPC   C4A69378   3.135   7.274   7.306
 5421POPC   C1B69379   2.873   7.652   6.410
 5421POPC   C2B69380   2.682   7.683   6.820
 5421POPC   C3B69381   2.597   7.838   7.225
 5421POPC   C4B69382   2.505   7.852   7.651
 5422POPC   NC369383  27.267  32.018   5.437
 5422POPC   PO469384  27.400  31.261   5.480
 5422POPC   GL169385  27.583  31.546   5.769
 5422POPC   GL269386  27.862  31.275   5.810
 5422POPC   C1A69387  27.464  31.816   6.149
 5422POPC   D2A69388  27.343  31.637   6.543
 5422POPC   C3A69389  27.508  31.726   6.954
 5422POPC   C4A69390  27.679  31.705   7.334
 5422POPC   C1B69391  27.749  31.404   6.238
 5422POPC   C2B69392  27.900  31.527   6.666
 5422POPC   C3B69393  27.886  31.315   7.071
 5422POPC   C4B69394  27.528  31.071   7.232
 5423POPC   NC369395  42.017   4.101   5.422
 5423POPC   PO469396  42.616   4.303   5.370
 5423POPC   GL169397  42.385   4.310   5.738
 5423POPC   GL269398  42.115   4.559   5.714
 5423POPC   C1A69399  42.257   4.320   6.174
 5423POPC   D2A69400  42.071   4.203   6.573
 5423POPC   C3A69401  42.254   4.238   6.970
 5423POPC   C4A69402  42.026   4.195   7.359
 5423POPC   C1B69403  42.020   4.799   6.106
 5423POPC   C2B69404  42.202   4.711   6.509
 5423POPC   C3B69405  42.131   4.744   6.927
 5423POPC   C4B69406  42.312   4.635   7.321
 5424POPC   NC369407  36.916   7.033   5.317
 5424POPC   PO469408  36.963   6.304   5.338
 5424POPC   GL169409  37.006   6.646   5.648
 5424POPC   GL269410  36.963   6.390   5.837
 5424POPC   C1A69411  37.074   6.798   6.106
 5424POPC   D2A69412  36.891   6.909   6.526
 5424POPC   C3A69413  36.762   6.618   6.893
 5424POPC   C4A69414  36.871   6.644   7.355
 5424POPC   C1B69415  36.749   6.183   6.119
 5424POPC   C2B69416  36.577   6.306   6.501
 5424POPC   C3B69417  36.567   6.126   6.897
 5424POPC   C4B69418  36.736   6.154   7.273
 5425POPC   NC369419   2.537  26.097   5.258
 5425POPC   PO469420   1.948  26.347   5.519
 5425POPC   GL169421   1.923  25.981   5.816
 5425POPC   GL269422   2.109  25.709   5.684
 5425POPC   C1A69423   1.807  25.784   6.230
 5425POPC   D2A69424   1.783  25.739   6.707
 5425POPC   C3A69425   1.893  26.135   6.953
 5425POPC   C4A69426   1.603  26.404   7.197
 5425POPC   C1B69427   2.286  25.713   6.116
 5425POPC   C2B69428   2.253  25.914   6.504
 5425POPC   C3B69429   2.379  25.952   6.903
 5425POPC   C4B69430   2.345  26.100   7.317
 5426POPC   NC369431  27.597  27.921   5.523
 5426POPC   PO469432  27.174  27.395   5.619
 5426POPC   GL169433  27.527  27.403   5.943
 5426POPC   GL269434  27.817  27.655   5.907
 5426POPC   C1A69435  27.609  27.570   6.376
 5426POPC   D2A69436  27.351  27.872   6.630
 5426POPC   C3A69437  27.268  27.822   7.086
 5426POPC   C4A69438  27.540  27.572   7.357
 5426POPC   C1B69439  27.996  27.923   6.266
 5426POPC   C2B69440  27.889  28.088   6.686
 5426POPC   C3B69441  27.777  27.958   7.119
 5426POPC   C4B69442  27.792  27.894   7.626
 5427POPC   NC369443   2.484  20.070   5.124
 5427POPC   PO469444   3.026  19.797   5.407
 5427POPC   GL169445   2.876  19.943   5.799
 5427POPC   GL269446   2.732  19.635   5.878
 5427POPC   C1A69447   3.052  19.867   6.221
 5427POPC   D2A69448   2.838  19.605   6.548
 5427POPC   C3A69449   2.811  19.812   6.959
 5427POPC   C4A69450   2.996  20.087   7.275
 5427POPC   C1B69451   2.535  19.880   6.216
 5427POPC   C2B69452   2.281  19.692   6.481
 5427POPC   C3B69453   2.408  19.484   6.820
 5427POPC   C4B69454   2.412  19.605   7.218
 5428POPC   NC369455  31.672  29.474   5.361
 5428POPC   PO469456  31.438  28.846   5.195
 5428POPC   GL169457  31.355  29.094   5.647
 5428POPC   GL269458  31.244  29.443   5.678
 5428POPC   C1A69459  31.562  29.262   6.083
 5428POPC   D2A69460  31.477  29.433   6.531
 5428POPC   C3A69461  31.310  29.127   6.827
 5428POPC   C4A69462  31.499  28.906   7.157
 5428POPC   C1B69463  31.129  29.517   6.135
 5428POPC   C2B69464  30.918  29.406   6.519
 5428POPC   C3B69465  31.019  29.514   6.940
 5428POPC   C4B69466  31.377  29.437   7.246
 5429POPC   NC369467  31.171  39.171   5.292
 5429POPC   PO469468  31.640  39.534   5.475
 5429POPC   GL169469  31.545  39.213   5.769
 5429POPC   GL269470  31.184  39.062   5.771
 5429POPC   C1A69471  31.710  39.230   6.202
 5429POPC   D2A69472  31.938  39.350   6.593
 5429POPC   C3A69473  31.667  39.227   6.909
 5429POPC   C4A69474  31.555  39.474   7.207
 5429POPC   C1B69475  31.098  39.229   6.151
 5429POPC   C2B69476  31.288  39.311   6.531
 5429POPC   C3B69477  31.149  39.332   6.927
 5429POPC   C4B69478  31.256  39.044   7.230
 5430POPC   NC369479  43.644  19.233   5.301
 5430POPC   PO469480  44.080  18.839   5.530
 5430POPC   GL169481  43.962  19.253   5.725
 5430POPC   GL269482  43.623  19.417   5.770
 5430POPC   C1A69483  43.940  19.265   6.158
 5430POPC   D2A69484  44.061  18.986   6.492
 5430POPC   C3A69485  44.014  18.817   6.917
 5430POPC   C4A69486  44.135  19.081   7.238
 5430POPC   C1B69487  43.421  19.266   6.144
 5430POPC   C2B69488  43.617  19.246   6.556
 5430POPC   C3B69489  43.817  19.308   6.918
 5430POPC   C4B69490  43.701  19.329   7.332
 5431POPC   NC369491  35.847  18.747   5.436
 5431POPC   PO469492  36.199  19.353   5.401
 5431POPC   GL169493  36.023  19.110   5.751
 5431POPC   GL269494  36.223  18.781   5.783
 5431POPC   C1A69495  35.907  18.970   6.165
 5431POPC   D2A69496  36.031  19.148   6.517
 5431POPC   C3A69497  36.013  19.058   6.912
 5431POPC   C4A69498  36.072  19.440   7.087
 5431POPC   C1B69499  36.399  18.828   6.197
 5431POPC   C2B69500  36.310  18.733   6.614
 5431POPC   C3B69501  36.468  18.812   7.015
 5431POPC   C4B69502  36.226  18.911   7.363
 5432POPC   NC369503  16.606  28.323   5.314
 5432POPC   PO469504  15.894  28.275   5.384
 5432POPC   GL169505  15.951  28.367   5.797
 5432POPC   GL269506  15.849  28.710   5.834
 5432POPC   C1A69507  16.190  28.508   6.170
 5432POPC   D2A69508  16.043  28.610   6.585
 5432POPC   C3A69509  16.110  28.240   6.820
 5432POPC   C4A69510  16.156  28.171   7.259
 5432POPC   C1B69511  15.684  28.478   6.222
 5432POPC   C2B69512  15.596  28.379   6.678
 5432POPC   C3B69513  15.748  28.481   7.095
 5432POPC   C4B69514  16.014  28.652   7.395
 5433POPC   NC369515  40.179   6.970   5.601
 5433POPC   PO469516  40.514   7.534   5.587
 5433POPC   GL169517  40.302   7.378   5.939
 5433POPC   GL269518  40.465   7.550   6.217
 5433POPC   C1A69519  40.132   7.074   6.255
 5433POPC   D2A69520  40.149   7.178   6.679
 5433POPC   C3A69521  39.790   7.165   6.944
 5433POPC   C4A69522  39.959   7.050   7.312
 5433POPC   C1B69523  40.007   7.567   6.333
 5433POPC   C2B69524  39.921   7.635   6.740
 5433POPC   C3B69525  40.292   7.643   6.948
 5433POPC   C4B69526  40.423   7.420   7.276
 5434POPC   NC369527  19.608  38.538   5.282
 5434POPC   PO469528  20.117  38.817   5.419
 5434POPC   GL169529  20.162  38.628   5.821
 5434POPC   GL269530  19.831  38.511   5.759
 5434POPC   C1A69531  20.235  38.716   6.306
 5434POPC   D2A69532  20.198  38.733   6.808
 5434POPC   C3A69533  20.146  38.416   7.145
 5434POPC   C4A69534  19.828  38.190   7.403
 5434POPC   C1B69535  19.763  38.797   6.126
 5434POPC   C2B69536  19.730  38.732   6.590
 5434POPC   C3B69537  19.672  38.515   7.007
 5434POPC   C4B69538  19.760  38.684   7.432
 5435POPC   NC369539  10.693  35.604   5.347
 5435POPC   PO469540  10.340  36.187   5.071
 5435POPC   GL169541  10.342  36.067   5.589
 5435POPC   GL269542  10.659  35.896   5.757
 5435POPC   C1A69543  10.320  36.039   6.105
 5435POPC   D2A69544  10.522  35.921   6.551
 5435POPC   C3A69545  10.447  36.085   6.991
 5435POPC   C4A69546  10.458  36.300   7.411
 5435POPC   C1B69547  10.841  36.141   6.104
 5435POPC   C2B69548  11.030  36.040   6.509
 5435POPC   C3B69549  10.953  35.882   6.899
 5435POPC   C4B69550  10.905  36.084   7.276
 5436POPC   NC369551  36.341  43.257   5.296
 5436POPC   PO469552  36.153  42.633   5.090
 5436POPC   GL169553  36.023  42.833   5.569
 5436POPC   GL269554  36.146  43.147   5.793
 5436POPC   C1A69555  36.001  42.757   6.078
 5436POPC   D2A69556  36.237  42.905   6.445
 5436POPC   C3A69557  36.030  42.932   6.843
 5436POPC   C4A69558  36.144  42.974   7.282
 5436POPC   C1B69559  35.899  43.273   6.207
 5436POPC   C2B69560  35.743  43.365   6.673
 5436POPC   C3B69561  35.992  43.429   7.066
 5436POPC   C4B69562  36.438  43.517   7.188
 5437POPC   NC369563  25.421  28.507   5.421
 5437POPC   PO469564  24.790  28.392   5.138
 5437POPC   GL169565  24.946  28.389   5.649
 5437POPC   GL269566  25.228  28.184   5.801
 5437POPC   C1A69567  24.991  28.538   6.128
 5437POPC   D2A69568  24.989  28.804   6.542
 5437POPC   C3A69569  24.974  28.623   6.991
 5437POPC   C4A69570  25.170  28.384   7.361
 5437POPC   C1B69571  25.358  28.206   6.271
 5437POPC   C2B69572  25.331  28.331   6.730
 5437POPC   C3B69573  25.364  28.037   7.057
 5437POPC   C4B69574  25.745  27.890   7.194
 5438POPC   NC369575  33.199   5.326   5.487
 5438POPC   PO469576  32.497   4.946   5.483
 5438POPC   GL169577  32.815   5.087   5.779
 5438POPC   GL269578  32.750   5.402   5.878
 5438POPC   C1A69579  33.090   5.057   6.161
 5438POPC   D2A69580  33.306   5.245   6.519
 5438POPC   C3A69581  33.209   5.094   6.911
 5438POPC   C4A69582  33.178   5.292   7.308
 5438POPC   C1B69583  32.648   5.320   6.272
 5438POPC   C2B69584  32.810   5.124   6.593
 5438POPC   C3B69585  32.757   5.340   6.946
 5438POPC   C4B69586  32.668   5.491   7.304
 5439POPC   NC369587  16.429  20.414   5.493
 5439POPC   PO469588  15.827  20.604   5.478
 5439POPC   GL169589  15.867  20.890   5.779
 5439POPC   GL269590  16.173  20.766   5.835
 5439POPC   C1A69591  15.736  20.825   6.221
 5439POPC   D2A69592  15.568  20.514   6.538
 5439POPC   C3A69593  15.754  20.476   6.948
 5439POPC   C4A69594  15.805  20.797   7.208
 5439POPC   C1B69595  16.187  21.087   6.150
 5439POPC   C2B69596  16.052  21.066   6.581
 5439POPC   C3B69597  16.179  21.081   7.019
 5439POPC   C4B69598  16.284  20.679   7.261
 5440POPC   NC369599  36.835  18.888   5.491
 5440POPC   PO469600  36.958  19.541   5.497
 5440POPC   GL169601  36.964  19.214   5.847
 5440POPC   GL269602  36.571  19.200   5.834
 5440POPC   C1A69603  37.054  18.924   6.232
 5440POPC   D2A69604  36.815  18.777   6.605
 5440POPC   C3A69605  36.992  18.833   7.006
 5440POPC   C4A69606  37.038  19.192   7.235
 5440POPC   C1B69607  36.407  19.328   6.241
 5440POPC   C2B69608  36.509  19.232   6.717
 5440POPC   C3B69609  36.531  19.292   7.211
 5440POPC   C4B69610  36.605  19.357   7.675
 5441POPC   NC369611  33.185  26.474   5.507
 5441POPC   PO469612  32.825  27.098   5.448
 5441POPC   GL169613  33.013  26.884   5.790
 5441POPC   GL269614  32.786  26.613   5.834
 5441POPC   C1A69615  32.993  26.944   6.250
 5441POPC   D2A69616  32.735  26.980   6.663
 5441POPC   C3A69617  32.971  26.950   7.070
 5441POPC   C4A69618  33.335  26.940   7.352
 5441POPC   C1B69619  32.960  26.423   6.189
 5441POPC   C2B69620  33.045  26.560   6.605
 5441POPC   C3B69621  32.894  26.459   6.989
 5441POPC   C4B69622  32.988  26.544   7.396
 5442POPC   NC369623  36.897  32.581   5.398
 5442POPC   PO469624  36.553  32.030   5.238
 5442POPC   GL169625  36.707  32.135   5.690
 5442POPC   GL269626  37.017  32.063   5.797
 5442POPC   C1A69627  36.723  32.254   6.168
 5442POPC   D2A69628  36.630  32.104   6.593
 5442POPC   C3A69629  36.838  32.278   6.941
 5442POPC   C4A69630  36.824  32.117   7.318
 5442POPC   C1B69631  37.176  32.019   6.211
 5442POPC   C2B69632  37.222  32.082   6.658
 5442POPC   C3B69633  37.282  31.903   7.098
 5442POPC   C4B69634  37.172  31.840   7.558
 5443POPC   NC369635  31.907  38.507   5.165
 5443POPC   PO469636  32.387  38.874   5.394
 5443POPC   GL169637  32.199  38.482   5.656
 5443POPC   GL269638  32.494  38.262   5.793
 5443POPC   C1A69639  32.096  38.302   6.106
 5443POPC   D2A69640  32.215  38.496   6.530
 5443POPC   C3A69641  32.052  38.400   6.938
 5443POPC   C4A69642  32.036  38.544   7.349
 5443POPC   C1B69643  32.632  38.397   6.226
 5443POPC   C2B69644  32.704  38.607   6.662
 5443POPC   C3B69645  32.495  38.671   7.084
 5443POPC   C4B69646  32.461  38.705   7.579
 5444POPC   NC369647  35.642  23.117   5.175
 5444POPC   PO469648  36.280  22.983   5.471
 5444POPC   GL169649  36.182  23.090   5.855
 5444POPC   GL269650  35.833  23.148   5.743
 5444POPC   C1A69651  36.239  22.918   6.281
 5444POPC   D2A69652  36.361  23.035   6.698
 5444POPC   C3A69653  36.211  22.842   7.079
 5444POPC   C4A69654  36.541  22.809   7.353
 5444POPC   C1B69655  35.740  23.023   6.157
 5444POPC   C2B69656  35.840  23.086   6.581
 5444POPC   C3B69657  35.700  22.904   6.948
 5444POPC   C4B69658  35.754  22.664   7.307
 5445POPC   NC369659  17.753  43.803   5.437
 5445POPC   PO469660  17.749  44.583   5.344
 5445POPC   GL169661  17.807  44.261   5.732
 5445POPC   GL269662  17.540  43.987   5.869
 5445POPC   C1A69663  17.669  44.318   6.206
 5445POPC   D2A69664  17.407  44.013   6.408
 5445POPC   C3A69665  17.513  43.997   6.819
 5445POPC   C4A69666  17.447  44.281   7.115
 5445POPC   C1B69667  17.805  43.818   6.135
 5445POPC   C2B69668  17.954  43.773   6.541
 5445POPC   C3B69669  17.874  43.638   6.947
 5445POPC   C4B69670  17.804  43.934   7.247
 5446POPC   NC369671  22.665   6.481   5.636
 5446POPC   PO469672  22.943   6.868   5.168
 5446POPC   GL169673  23.024   6.847   5.702
 5446POPC   GL269674  23.073   6.554   5.948
 5446POPC   C1A69675  22.851   6.905   6.198
 5446POPC   D2A69676  22.949   6.721   6.637
 5446POPC   C3A69677  22.687   6.788   7.017
 5446POPC   C4A69678  22.851   6.948   7.433
 5446POPC   C1B69679  22.811   6.364   6.273
 5446POPC   C2B69680  22.701   6.147   6.658
 5446POPC   C3B69681  22.774   6.254   7.073
 5446POPC   C4B69682  23.092   6.555   7.167
 5447POPC   NC369683   7.094  39.243   5.590
 5447POPC   PO469684   7.596  39.264   5.127
 5447POPC   GL169685   7.577  39.170   5.719
 5447POPC   GL269686   7.483  39.438   5.987
 5447POPC   C1A69687   7.346  38.999   6.174
 5447POPC   D2A69688   7.075  38.953   6.597
 5447POPC   C3A69689   7.340  38.953   7.017
 5447POPC   C4A69690   7.534  39.217   7.375
 5447POPC   C1B69691   7.053  39.583   6.197
 5447POPC   C2B69692   6.945  39.742   6.645
 5447POPC   C3B69693   7.129  39.701   7.081
 5447POPC   C4B69694   7.287  39.665   7.525
 5448POPC   NC369695  30.082  40.222   5.401
 5448POPC   PO469696  29.806  39.621   5.351
 5448POPC   GL169697  29.903  39.835   5.754
 5448POPC   GL269698  29.679  40.153   5.768
 5448POPC   C1A69699  30.132  39.850   6.170
 5448POPC   D2A69700  30.034  40.056   6.579
 5448POPC   C3A69701  30.301  40.247   6.883
 5448POPC   C4A69702  30.368  40.530   7.259
 5448POPC   C1B69703  29.637  39.986   6.222
 5448POPC   C2B69704  29.643  39.748   6.672
 5448POPC   C3B69705  29.692  39.841   7.143
 5448POPC   C4B69706  29.596  39.975   7.620
 5449POPC   NC369707   7.719  17.898   5.589
 5449POPC   PO469708   7.350  17.388   5.405
 5449POPC   GL169709   7.330  17.498   5.840
 5449POPC   GL269710   7.346  17.824   5.966
 5449POPC   C1A69711   7.123  17.480   6.256
 5449POPC   D2A69712   7.213  17.627   6.683
 5449POPC   C3A69713   7.350  17.369   7.042
 5449POPC   C4A69714   7.085  17.639   7.267
 5449POPC   C1B69715   7.638  17.672   6.284
 5449POPC   C2B69716   7.739  17.616   6.720
 5449POPC   C3B69717   7.555  17.816   7.086
 5449POPC   C4B69718   7.529  17.663   7.534
 5450POPC   NC369719  23.965  23.221   5.415
 5450POPC   PO469720  23.820  23.859   5.284
 5450POPC   GL169721  23.610  23.839   5.723
 5450POPC   GL269722  23.500  23.513   5.821
 5450POPC   C1A69723  23.632  23.931   6.170
 5450POPC   D2A69724  23.848  23.783   6.495
 5450POPC   C3A69725  23.779  23.826   6.925
 5450POPC   C4A69726  23.947  23.577   7.276
 5450POPC   C1B69727  23.594  23.420   6.228
 5450POPC   C2B69728  23.422  23.511   6.619
 5450POPC   C3B69729  23.518  23.399   7.024
 5450POPC   C4B69730  23.463  23.703   7.317
 5451POPC   NC369731  35.516   9.987   5.398
 5451POPC   PO469732  35.067   9.569   5.427
 5451POPC   GL169733  35.281   9.756   5.804
 5451POPC   GL269734  35.656   9.844   5.857
 5451POPC   C1A69735  35.290   9.765   6.241
 5451POPC   D2A69736  35.526   9.711   6.601
 5451POPC   C3A69737  35.320   9.877   6.970
 5451POPC   C4A69738  35.149   9.833   7.412
 5451POPC   C1B69739  35.645  10.135   6.200
 5451POPC   C2B69740  35.779  10.215   6.597
 5451POPC   C3B69741  35.844   9.926   6.945
 5451POPC   C4B69742  35.669   9.757   7.319
 5452POPC   NC369743  38.863   0.909   5.449
 5452POPC   PO469744  38.248   1.236   5.313
 5452POPC   GL169745  38.351   1.313   5.757
 5452POPC   GL269746  38.497   1.007   5.795
 5452POPC   C1A69747  38.525   1.451   6.188
 5452POPC   D2A69748  38.777   1.470   6.601
 5452POPC   C3A69749  38.523   1.464   7.000
 5452POPC   C4A69750  38.373   1.690   7.386
 5452POPC   C1B69751  38.386   0.953   6.219
 5452POPC   C2B69752  38.350   1.140   6.606
 5452POPC   C3B69753  38.459   0.951   6.998
 5452POPC   C4B69754  38.715   0.827   7.346
 5453POPC   NC369755  32.682   1.322   5.183
 5453POPC   PO469756  32.047   1.055   5.372
 5453POPC   GL169757  32.297   1.052   5.761
 5453POPC   GL269758  32.388   1.416   5.888
 5453POPC   C1A69759  32.376   1.059   6.226
 5453POPC   D2A69760  32.442   1.356   6.584
 5453POPC   C3A69761  32.530   1.110   6.972
 5453POPC   C4A69762  32.508   1.032   7.443
 5453POPC   C1B69763  31.969   1.345   6.056
 5453POPC   C2B69764  31.874   1.429   6.457
 5453POPC   C3B69765  31.993   1.466   6.864
 5453POPC   C4B69766  32.189   1.385   7.231
 5454POPC   NC369767  38.186   3.020   5.471
 5454POPC   PO469768  37.598   2.748   5.515
 5454POPC   GL169769  37.606   2.608   5.917
 5454POPC   GL269770  37.932   2.416   5.930
 5454POPC   C1A69771  37.467   2.810   6.309
 5454POPC   D2A69772  37.557   2.713   6.757
 5454POPC   C3A69773  37.434   2.927   7.141
 5454POPC   C4A69774  37.594   2.800   7.545
 5454POPC   C1B69775  37.976   2.757   6.237
 5454POPC   C2B69776  38.009   2.915   6.654
 5454POPC   C3B69777  37.948   2.838   7.111
 5454POPC   C4B69778  37.911   3.170   7.380
 5455POPC   NC369779  41.358  10.411   5.339
 5455POPC   PO469780  41.982  10.406   5.484
 5455POPC   GL169781  41.809  10.679   5.788
 5455POPC   GL269782  41.460  10.822   5.708
 5455POPC   C1A69783  41.882  10.729   6.224
 5455POPC   D2A69784  41.902  10.916   6.627
 5455POPC   C3A69785  41.846  10.527   6.869
 5455POPC   C4A69786  41.739  10.384   7.299
 5455POPC   C1B69787  41.390  10.609   6.124
 5455POPC   C2B69788  41.436  10.742   6.568
 5455POPC   C3B69789  41.365  10.621   7.001
 5455POPC   C4B69790  41.224  10.259   7.163
 5456POPC   NC369791  33.638  24.790   5.668
 5456POPC   PO469792  33.858  25.338   5.341
 5456POPC   GL169793  33.705  25.312   5.745
 5456POPC   GL269794  33.990  25.114   5.831
 5456POPC   C1A69795  33.583  25.237   6.192
 5456POPC   D2A69796  33.821  25.340   6.587
 5456POPC   C3A69797  33.667  25.188   7.019
 5456POPC   C4A69798  33.611  25.425   7.416
 5456POPC   C1B69799  34.010  24.960   6.235
 5456POPC   C2B69800  34.237  25.025   6.599
 5456POPC   C3B69801  34.175  25.239   6.957
 5456POPC   C4B69802  34.064  25.201   7.368
 5457POPC   NC369803  10.119  12.219   5.460
 5457POPC   PO469804   9.438  11.987   5.551
 5457POPC   GL169805   9.809  12.126   5.863
 5457POPC   GL269806   9.936  12.484   5.879
 5457POPC   C1A69807  10.043  12.207   6.285
 5457POPC   D2A69808   9.950  12.272   6.727
 5457POPC   C3A69809   9.852  11.864   6.868
 5457POPC   C4A69810  10.051  11.631   7.237
 5457POPC   C1B69811   9.522  12.480   6.110
 5457POPC   C2B69812   9.372  12.388   6.547
 5457POPC   C3B69813   9.487  12.258   6.970
 5457POPC   C4B69814   9.783  12.077   7.300
 5458POPC   NC369815  35.415  21.378   5.498
 5458POPC   PO469816  35.069  21.813   5.185
 5458POPC   GL169817  35.130  21.675   5.763
 5458POPC   GL269818  35.505  21.724   5.885
 5458POPC   C1A69819  35.271  21.379   6.189
 5458POPC   D2A69820  35.196  21.077   6.591
 5458POPC   C3A69821  35.216  21.287   6.988
 5458POPC   C4A69822  35.442  21.716   7.064
 5458POPC   C1B69823  35.753  21.611   6.253
 5458POPC   C2B69824  35.600  21.451   6.636
 5458POPC   C3B69825  35.704  21.186   6.979
 5458POPC   C4B69826  35.587  21.320   7.374
 5459POPC   NC369827   4.040   0.374   5.413
 5459POPC   PO469828   4.738   0.323   5.386
 5459POPC   GL169829   4.460   0.493   5.737
 5459POPC   GL269830   4.262   0.770   5.677
 5459POPC   C1A69831   4.131   0.482   6.098
 5459POPC   D2A69832   3.935   0.399   6.524
 5459POPC   C3A69833   4.120   0.439   6.933
 5459POPC   C4A69834   3.987   0.287   7.349
 5459POPC   C1B69835   4.450   0.872   6.104
 5459POPC   C2B69836   4.377   0.694   6.527
 5459POPC   C3B69837   4.448   0.830   6.956
 5459POPC   C4B69838   4.641   0.803   7.364
 5460POPC   NC369839  41.199  19.938   5.441
 5460POPC   PO469840  40.514  20.023   5.432
 5460POPC   GL169841  40.748  19.935   5.822
 5460POPC   GL269842  40.836  19.599   5.882
 5460POPC   C1A69843  40.593  19.853   6.269
 5460POPC   D2A69844  40.434  19.965   6.681
 5460POPC   C3A69845  40.688  20.058   7.054
 5460POPC   C4A69846  40.719  19.721   7.337
 5460POPC   C1B69847  41.105  19.751   6.199
 5460POPC   C2B69848  41.044  19.833   6.638
 5460POPC   C3B69849  41.054  19.538   6.983
 5460POPC   C4B69850  41.156  19.494   7.434
 5461POPC   NC369851  14.268  29.483   5.258
 5461POPC   PO469852  13.558  29.174   5.340
 5461POPC   GL169853  13.452  29.159   5.814
 5461POPC   GL269854  13.663  28.955   5.928
 5461POPC   C1A69855  13.152  29.366   6.136
 5461POPC   D2A69856  13.277  29.480   6.576
 5461POPC   C3A69857  13.478  29.205   6.875
 5461POPC   C4A69858  13.344  28.875   7.161
 5461POPC   C1B69859  13.496  29.033   6.333
 5461POPC   C2B69860  13.674  28.806   6.631
 5461POPC   C3B69861  13.872  28.862   6.987
 5461POPC   C4B69862  13.786  28.888   7.403
 5462POPC   NC369863  31.294  40.916   5.572
 5462POPC   PO469864  30.782  40.733   5.215
 5462POPC   GL169865  30.619  40.644   5.659
 5462POPC   GL269866  30.848  40.857   5.825
 5462POPC   C1A69867  30.448  40.696   6.104
 5462POPC   D2A69868  30.302  40.573   6.485
 5462POPC   C3A69869  30.505  40.732   6.825
 5462POPC   C4A69870  30.429  41.071   7.087
 5462POPC   C1B69871  30.988  40.984   6.243
 5462POPC   C2B69872  30.911  41.027   6.681
 5462POPC   C3B69873  30.971  40.786   7.020
 5462POPC   C4B69874  31.146  40.929   7.346
 5463POPC   NC369875  18.223  30.981   5.180
 5463POPC   PO469876  18.871  30.839   5.270
 5463POPC   GL169877  18.653  30.756   5.665
 5463POPC   GL269878  18.289  30.700   5.662
 5463POPC   C1A69879  18.510  30.812   6.106
 5463POPC   D2A69880  18.498  30.878   6.544
 5463POPC   C3A69881  18.344  30.568   6.829
 5463POPC   C4A69882  18.447  30.670   7.230
 5463POPC   C1B69883  17.993  30.743   6.075
 5463POPC   C2B69884  17.947  30.941   6.516
 5463POPC   C3B69885  17.926  30.817   6.966
 5463POPC   C4B69886  17.974  30.466   7.240
 5464POPC   NC369887  22.062  32.480   5.638
 5464POPC   PO469888  22.408  31.932   5.413
 5464POPC   GL169889  22.250  32.027   5.766
 5464POPC   GL269890  21.911  31.941   5.702
 5464POPC   C1A69891  22.249  32.224   6.181
 5464POPC   D2A69892  22.466  32.403   6.491
 5464POPC   C3A69893  22.319  32.293   6.864
 5464POPC   C4A69894  22.337  32.030   7.188
 5464POPC   C1B69895  21.787  31.978   6.126
 5464POPC   C2B69896  21.769  31.904   6.582
 5464POPC   C3B69897  21.851  32.120   6.983
 5464POPC   C4B69898  21.932  32.154   7.435
 5465POPC   NC369899  23.217   5.039   5.447
 5465POPC   PO469900  22.745   5.411   5.256
 5465POPC   GL169901  22.885   5.303   5.695
 5465POPC   GL269902  22.663   5.108   5.814
 5465POPC   C1A69903  23.031   5.320   6.153
 5465POPC   D2A69904  22.765   5.168   6.527
 5465POPC   C3A69905  22.885   5.221   6.969
 5465POPC   C4A69906  22.617   5.163   7.356
 5465POPC   C1B69907  22.886   4.838   6.139
 5465POPC   C2B69908  23.076   4.752   6.540
 5465POPC   C3B69909  22.856   4.714   6.922
 5465POPC   C4B69910  22.715   4.665   7.346
 5466POPC   NC369911   7.089  39.610   5.180
 5466POPC   PO469912   6.652  39.019   5.242
 5466POPC   GL169913   6.615  39.093   5.708
 5466POPC   GL269914   6.672  39.462   5.797
 5466POPC   C1A69915   6.745  39.102   6.170
 5466POPC   D2A69916   6.628  39.331   6.540
 5466POPC   C3A69917   6.810  39.267   6.923
 5466POPC   C4A69918   7.040  39.255   7.320
 5466POPC   C1B69919   6.467  39.645   6.153
 5466POPC   C2B69920   6.426  39.818   6.574
 5466POPC   C3B69921   6.309  39.743   7.000
 5466POPC   C4B69922   6.646  39.596   7.260
 5467POPC   NC369923  39.867  38.020   5.235
 5467POPC   PO469924  39.429  37.516   5.457
 5467POPC   GL169925  39.774  37.718   5.711
 5467POPC   GL269926  39.756  38.057   5.827
 5467POPC   C1A69927  39.952  37.556   6.126
 5467POPC   D2A69928  39.890  37.283   6.535
 5467POPC   C3A69929  39.984  37.460   6.957
 5467POPC   C4A69930  39.716  37.735   7.163
 5467POPC   C1B69931  39.829  38.018   6.318
 5467POPC   C2B69932  39.975  37.988   6.783
 5467POPC   C3B69933  39.993  38.148   7.222
 5467POPC   C4B69934  40.167  38.480   7.500
 5468POPC   NC369935   2.238  40.171   5.338
 5468POPC   PO469936   2.879  40.115   5.361
 5468POPC   GL169937   2.609  39.986   5.709
 5468POPC   GL269938   2.889  39.841   5.917
 5468POPC   C1A69939   2.471  40.019   6.142
 5468POPC   D2A69940   2.757  40.120   6.465
 5468POPC   C3A69941   2.492  40.062   6.806
 5468POPC   C4A69942   2.571  40.027   7.228
 5468POPC   C1B69943   3.132  39.591   6.250
 5468POPC   C2B69944   3.188  39.743   6.674
 5468POPC   C3B69945   3.204  39.673   7.113
 5468POPC   C4B69946   2.929  39.724   7.443
 5469POPC   NC369947  40.014  15.694   5.355
 5469POPC   PO469948  40.161  15.034   5.357
 5469POPC   GL169949  39.944  15.042   5.750
 5469POPC   GL269950  39.704  15.331   5.720
 5469POPC   C1A69951  40.094  15.156   6.143
 5469POPC   D2A69952  39.984  15.456   6.454
 5469POPC   C3A69953  40.049  15.269   6.852
 5469POPC   C4A69954  40.227  15.437   7.215
 5469POPC   C1B69955  39.586  15.198   6.150
 5469POPC   C2B69956  39.510  15.202   6.605
 5469POPC   C3B69957  39.592  15.286   7.046
 5469POPC   C4B69958  39.422  15.283   7.462
 5470POPC   NC369959  31.765  12.145   5.388
 5470POPC   PO469960  31.185  12.008   5.581
 5470POPC   GL169961  31.520  12.079   5.893
 5470POPC   GL269962  31.778  11.811   5.810
 5470POPC   C1A69963  31.487  12.038   6.367
 5470POPC   D2A69964  31.603  12.169   6.786
 5470POPC   C3A69965  31.306  12.033   7.105
 5470POPC   C4A69966  31.327  12.145   7.507
 5470POPC   C1B69967  31.760  11.624   6.212
 5470POPC   C2B69968  31.863  11.707   6.649
 5470POPC   C3B69969  31.702  11.721   7.076
 5470POPC   C4B69970  31.858  11.730   7.516
 5471POPC   NC369971   1.177  32.826   5.287
 5471POPC   PO469972   1.127  33.525   5.396
 5471POPC   GL169973   1.317  33.310   5.762
 5471POPC   GL269974   1.116  33.003   5.786
 5471POPC   C1A69975   1.493  33.221   6.195
 5471POPC   D2A69976   1.362  33.393   6.629
 5471POPC   C3A69977   1.224  33.128   6.978
 5471POPC   C4A69978   1.358  33.049   7.420
 5471POPC   C1B69979   1.035  32.775   6.165
 5471POPC   C2B69980   1.055  32.812   6.602
 5471POPC   C3B69981   0.967  32.576   6.979
 5471POPC   C4B69982   0.909  32.855   7.319
 5472POPC   NC369983  16.294  33.630   5.501
 5472POPC   PO469984  16.950  33.651   5.490
 5472POPC   GL169985  16.791  33.890   5.815
 5472POPC   GL269986  16.519  33.722   5.973
 5472POPC   C1A69987  16.962  33.900   6.225
 5472POPC   D2A69988  16.851  33.681   6.587
 5472POPC   C3A69989  16.869  33.843   6.969
 5472POPC   C4A69990  17.138  33.705   7.244
 5472POPC   C1B69991  16.483  34.059   6.280
 5472POPC   C2B69992  16.439  33.991   6.709
 5472POPC   C3B69993  16.428  34.080   7.148
 5472POPC   C4B69994  16.360  34.010   7.590
 5473POPC   NC369995   1.639  40.221   5.453
 5473POPC   PO469996   2.126  39.746   5.209
 5473POPC   GL169997   2.138  39.752   5.673
 5473POPC   GL269998   2.057  40.097   5.819
 5473POPC   C1A69999   2.048  39.659   6.118
 5473POPC   D2A70000   2.203  39.731   6.527
 5473POPC   C3A70001   1.919  39.850   6.854
 5473POPC   C4A70002   2.048  39.770   7.277
 5473POPC   C1B70003   1.990  40.158   6.286
 5473POPC   C2B70004   2.040  40.359   6.707
 5473POPC   C3B70005   2.100  40.250   7.112
 5473POPC   C4B70006   1.844  40.239   7.474
 5474POPC   NC370007  35.486  12.443   5.495
 5474POPC   PO470008  35.149  11.837   5.435
 5474POPC   GL170009  35.196  12.134   5.798
 5474POPC   GL270010  34.915  12.304   5.914
 5474POPC   C1A70011  35.403  12.285   6.173
 5474POPC   D2A70012  35.652  12.272   6.540
 5474POPC   C3A70013  35.694  11.848   6.731
 5474POPC   C4A70014  35.574  11.834   7.171
 5474POPC   C1B70015  34.914  12.191   6.350
 5474POPC   C2B70016  35.188  12.071   6.695
 5474POPC   C3B70017  35.440  12.293   7.024
 5474POPC   C4B70018  35.347  12.213   7.477
 5475POPC   NC370019   9.369  15.402   5.483
 5475POPC   PO470020   9.809  14.945   5.419
 5475POPC   GL170021   9.765  15.214   5.765
 5475POPC   GL270022  10.045  15.388   5.831
 5475POPC   C1A70023   9.761  15.264   6.224
 5475POPC   D2A70024   9.822  15.003   6.552
 5475POPC   C3A70025   9.667  15.149   6.931
 5475POPC   C4A70026   9.745  14.997   7.282
 5475POPC   C1B70027  10.249  15.439   6.231
 5475POPC   C2B70028  10.054  15.477   6.621
 5475POPC   C3B70029  10.125  15.311   7.037
 5475POPC   C4B70030   9.999  15.465   7.411
 5476POPC   NC370031  31.269  37.557   5.425
 5476POPC   PO470032  31.835  38.091   5.378
 5476POPC   GL170033  31.598  37.863   5.716
 5476POPC   GL270034  31.682  37.494   5.720
 5476POPC   C1A70035  31.523  37.740   6.166
 5476POPC   D2A70036  31.316  37.611   6.560
 5476POPC   C3A70037  31.552  37.858   6.896
 5476POPC   C4A70038  31.686  37.741   7.316
 5476POPC   C1B70039  31.709  37.272   6.124
 5476POPC   C2B70040  31.727  37.327   6.572
 5476POPC   C3B70041  31.536  37.347   6.973
 5476POPC   C4B70042  31.761  37.241   7.326
 5477POPC   NC370043  41.850  30.495   5.469
 5477POPC   PO470044  41.371  30.956   5.355
 5477POPC   GL170045  41.283  30.795   5.760
 5477POPC   GL270046  41.612  30.687   5.920
 5477POPC   C1A70047  41.208  30.831   6.200
 5477POPC   D2A70048  41.512  30.606   6.459
 5477POPC   C3A70049  41.526  30.459   6.882
 5477POPC   C4A70050  41.662  30.443   7.302
 5477POPC   C1B70051  41.728  31.035   6.231
 5477POPC   C2B70052  41.935  31.139   6.631
 5477POPC   C3B70053  41.813  30.911   7.006
 5477POPC   C4B70054  41.852  30.865   7.468
 5478POPC   NC370055  37.338  20.154   5.369
 5478POPC   PO470056  37.849  19.743   5.145
 5478POPC   GL170057  37.620  19.662   5.642
 5478POPC   GL270058  37.331  19.897   5.808
 5478POPC   C1A70059  37.719  19.768   6.108
 5478POPC   D2A70060  37.643  20.062   6.481
 5478POPC   C3A70061  37.714  19.926   6.913
 5478POPC   C4A70062  38.031  20.060   7.179
 5478POPC   C1B70063  37.228  19.803   6.258
 5478POPC   C2B70064  37.262  19.762   6.708
 5478POPC   C3B70065  37.356  19.571   7.119
 5478POPC   C4B70066  37.511  19.694   7.529
 5479POPC   NC370067  43.534  13.647   5.348
 5479POPC   PO470068  42.893  13.761   5.437
 5479POPC   GL170069  43.050  13.572   5.781
 5479POPC   GL270070  43.344  13.733   5.831
 5479POPC   C1A70071  42.967  13.718   6.199
 5479POPC   D2A70072  43.141  13.843   6.583
 5479POPC   C3A70073  43.156  13.450   6.817
 5479POPC   C4A70074  43.022  13.409   7.227
 5479POPC   C1B70075  43.458  13.540   6.253
 5479POPC   C2B70076  43.614  13.643   6.689
 5479POPC   C3B70077  43.505  13.615   7.147
 5479POPC   C4B70078  43.472  13.413   7.565
 5480POPC   NC370079   9.177  24.333   5.389
 5480POPC   PO470080   8.897  24.843   5.352
 5480POPC   GL170081   9.138  24.694   5.750
 5480POPC   GL270082   9.031  24.321   5.870
 5480POPC   C1A70083   9.145  24.646   6.218
 5480POPC   D2A70084   8.819  24.359   6.378
 5480POPC   C3A70085   8.925  24.183   6.766
 5480POPC   C4A70086   9.167  24.404   7.067
 5480POPC   C1B70087   9.265  24.131   6.240
 5480POPC   C2B70088   9.422  24.074   6.669
 5480POPC   C3B70089   9.599  24.166   7.066
 5480POPC   C4B70090   9.362  24.109   7.466
 5481POPC   NC370091  44.094  34.029   5.489
 5481POPC   PO470092  43.627  33.652   5.192
 5481POPC   GL170093  43.711  33.693   5.656
 5481POPC   GL270094  43.502  33.466   5.829
 5481POPC   C1A70095  43.970  33.547   6.051
 5481POPC   D2A70096  43.934  33.550   6.551
 5481POPC   C3A70097  44.059  33.727   6.974
 5481POPC   C4A70098  44.054  34.106   7.232
 5481POPC   C1B70099  43.521  33.702   6.232
 5481POPC   C2B70100  43.621  33.954   6.615
 5481POPC   C3B70101  43.564  33.877   7.061
 5481POPC   C4B70102  43.614  33.993   7.490
 5482POPC   NC370103  40.285  11.902   5.452
 5482POPC   PO470104  39.643  11.862   5.444
 5482POPC   GL170105  39.829  12.093   5.802
 5482POPC   GL270106  40.077  12.343   5.689
 5482POPC   C1A70107  39.958  11.986   6.226
 5482POPC   D2A70108  40.025  11.754   6.606
 5482POPC   C3A70109  39.963  11.871   7.032
 5482POPC   C4A70110  39.999  11.978   7.469
 5482POPC   C1B70111  40.184  12.439   6.108
 5482POPC   C2B70112  40.345  12.218   6.472
 5482POPC   C3B70113  40.438  12.077   6.851
 5482POPC   C4B70114  40.400  12.233   7.227
 5483POPC   NC370115   1.875  28.572   5.388
 5483POPC   PO470116   1.963  27.916   5.188
 5483POPC   GL170117   2.144  28.187   5.558
 5483POPC   GL270118   2.334  28.513   5.651
 5483POPC   C1A70119   2.047  28.266   6.020
 5483POPC   D2A70120   2.151  28.070   6.424
 5483POPC   C3A70121   1.947  28.243   6.779
 5483POPC   C4A70122   2.184  28.186   7.112
 5483POPC   C1B70123   2.340  28.703   6.102
 5483POPC   C2B70124   2.210  28.585   6.519
 5483POPC   C3B70125   2.276  28.671   6.982
 5483POPC   C4B70126   2.254  28.586   7.441
 5484POPC   NC370127  29.510   0.432   5.100
 5484POPC   PO470128  29.287   0.237   5.713
 5484POPC   GL170129  29.201   0.572   6.032
 5484POPC   GL270130  29.530   0.536   6.112
 5484POPC   C1A70131  29.224   0.706   6.496
 5484POPC   D2A70132  29.524   0.734   6.831
 5484POPC   C3A70133  29.346   0.524   7.217
 5484POPC   C4A70134  28.917   0.514   7.407
 5484POPC   C1B70135  29.310   0.217   6.386
 5484POPC   C2B70136  29.151   0.267   6.815
 5484POPC   C3B70137  29.038   0.061   7.211
 5484POPC   C4B70138  29.264  44.794   7.479
 5485POPC   NC370139  44.945   6.804   5.538
 5485POPC   PO470140   0.446   6.357   5.412
 5485POPC   GL170141   0.392   6.630   5.755
 5485POPC   GL270142   0.491   6.358   5.934
 5485POPC   C1A70143   0.393   6.950   6.077
 5485POPC   D2A70144   0.322   6.989   6.509
 5485POPC   C3A70145   0.450   6.726   6.855
 5485POPC   C4A70146   0.501   6.881   7.276
 5485POPC   C1B70147   0.363   6.488   6.326
 5485POPC   C2B70148   0.227   6.267   6.681
 5485POPC   C3B70149   0.045   6.463   7.032
 5485POPC   C4B70150   0.344   6.372   7.317
 5486POPC   NC370151  32.654   7.096   5.402
 5486POPC   PO470152  32.940   6.474   5.344
 5486POPC   GL170153  32.784   6.658   5.710
 5486POPC   GL270154  32.422   6.573   5.632
 5486POPC   C1A70155  32.912   6.654   6.184
 5486POPC   D2A70156  32.918   6.607   6.651
 5486POPC   C3A70157  33.124   6.717   7.045
 5486POPC   C4A70158  33.335   6.974   7.341
 5486POPC   C1B70159  32.541   6.335   6.010
 5486POPC   C2B70160  32.618   6.236   6.443
 5486POPC   C3B70161  32.515   6.345   6.833
 5486POPC   C4B70162  32.695   6.498   7.223
 5487POPC   NC370163  37.931  26.314   5.225
 5487POPC   PO470164  37.697  26.942   5.324
 5487POPC   GL170165  37.560  26.762   5.694
 5487POPC   GL270166  37.824  26.513   5.698
 5487POPC   C1A70167  37.639  26.856   6.134
 5487POPC   D2A70168  37.814  26.849   6.567
 5487POPC   C3A70169  37.492  27.011   6.845
 5487POPC   C4A70170  37.323  26.973   7.264
 5487POPC   C1B70171  37.972  26.473   6.133
 5487POPC   C2B70172  38.094  26.399   6.539
 5487POPC   C3B70173  38.122  26.592   6.937
 5487POPC   C4B70174  37.827  26.813   7.169
 5488POPC   NC370175  24.209  32.294   5.474
 5488POPC   PO470176  24.747  31.985   5.264
 5488POPC   GL170177  24.670  32.104   5.676
 5488POPC   GL270178  24.769  32.437   5.619
 5488POPC   C1A70179  24.452  32.055   6.108
 5488POPC   D2A70180  24.313  31.960   6.539
 5488POPC   C3A70181  24.328  32.230   6.861
 5488POPC   C4A70182  24.513  32.092   7.199
 5488POPC   C1B70183  24.769  32.467   6.066
 5488POPC   C2B70184  24.594  32.472   6.496
 5488POPC   C3B70185  24.790  32.444   6.927
 5488POPC   C4B70186  24.704  32.576   7.377
 5489POPC   NC370187   3.397   9.218   5.298
 5489POPC   PO470188   3.814   8.709   5.338
 5489POPC   GL170189   3.681   8.993   5.678
 5489POPC   GL270190   3.318   8.950   5.746
 5489POPC   C1A70191   3.626   9.181   6.106
 5489POPC   D2A70192   3.487   9.156   6.561
 5489POPC   C3A70193   3.745   8.979   6.900
 5489POPC   C4A70194   3.821   8.774   7.292
 5489POPC   C1B70195   3.150   8.953   6.173
 5489POPC   C2B70196   2.989   9.079   6.593
 5489POPC   C3B70197   3.125   9.136   7.027
 5489POPC   C4B70198   3.333   8.764   7.150
 5490POPC   NC370199   2.271   4.557   5.661
 5490POPC   PO470200   2.654   4.126   5.176
 5490POPC   GL170201   2.605   4.120   5.628
 5490POPC   GL270202   2.409   3.877   5.775
 5490POPC   C1A70203   2.670   4.268   6.067
 5490POPC   D2A70204   2.553   4.411   6.483
 5490POPC   C3A70205   2.777   4.328   6.869
 5490POPC   C4A70206   2.738   4.565   7.246
 5490POPC   C1B70207   2.330   3.966   6.244
 5490POPC   C2B70208   2.501   3.917   6.652
 5490POPC   C3B70209   2.513   3.972   7.117
 5490POPC   C4B70210   2.427   4.266   7.504
 5491POPC   NC370211  16.233  24.595   5.415
 5491POPC   PO470212  15.685  24.123   5.478
 5491POPC   GL170213  15.925  24.403   5.768
 5491POPC   GL270214  15.712  24.634   5.924
 5491POPC   C1A70215  16.120  24.476   6.187
 5491POPC   D2A70216  16.131  24.207   6.560
 5491POPC   C3A70217  16.226  24.437   6.937
 5491POPC   C4A70218  16.068  24.382   7.361
 5491POPC   C1B70219  15.815  24.898   6.236
 5491POPC   C2B70220  15.924  24.765   6.627
 5491POPC   C3B70221  15.814  24.757   7.059
 5491POPC   C4B70222  15.774  24.735   7.527
 5492POPC   NC370223  10.577  29.294   5.349
 5492POPC   PO470224  10.028  29.469   5.660
 5492POPC   GL170225  10.385  29.216   5.840
 5492POPC   GL270226  10.682  28.990   5.781
 5492POPC   C1A70227  10.456  29.164   6.283
 5492POPC   D2A70228  10.572  29.177   6.719
 5492POPC   C3A70229  10.208  29.066   6.936
 5492POPC   C4A70230  10.107  29.383   7.258
 5492POPC   C1B70231  10.852  28.890   6.177
 5492POPC   C2B70232  10.983  28.887   6.613
 5492POPC   C3B70233  10.864  28.914   7.061
 5492POPC   C4B70234  10.547  29.090   7.297
 5493POPC   NC370235  10.410  12.966   5.418
 5493POPC   PO470236  10.529  12.311   5.654
 5493POPC   GL170237  10.629  12.737   5.850
 5493POPC   GL270238  10.301  12.868   5.900
 5493POPC   C1A70239  10.714  12.947   6.273
 5493POPC   D2A70240  10.606  12.803   6.669
 5493POPC   C3A70241  10.547  13.027   7.009
 5493POPC   C4A70242  10.839  13.184   7.277
 5493POPC   C1B70243  10.263  12.673   6.294
 5493POPC   C2B70244  10.000  12.777   6.641
 5493POPC   C3B70245   9.984  13.061   6.983
 5493POPC   C4B70246  10.183  13.179   7.351
 5494POPC   NC370247   9.975  18.934   5.500
 5494POPC   PO470248   9.530  19.347   5.286
 5494POPC   GL170249   9.657  19.275   5.726
 5494POPC   GL270250   9.337  19.295   5.797
 5494POPC   C1A70251   9.840  19.046   6.123
 5494POPC   D2A70252  10.050  18.914   6.524
 5494POPC   C3A70253  10.073  19.289   6.759
 5494POPC   C4A70254   9.901  19.418   7.136
 5494POPC   C1B70255   9.501  19.456   6.194
 5494POPC   C2B70256   9.578  19.196   6.562
 5494POPC   C3B70257   9.313  19.082   6.922
 5494POPC   C4B70258   9.421  18.755   7.152
 5495POPC   NC370259   0.375   4.441   5.433
 5495POPC   PO470260   0.445   3.865   5.543
 5495POPC   GL170261   0.703   4.143   5.846
 5495POPC   GL270262   0.595   4.515   5.878
 5495POPC   C1A70263   0.695   4.286   6.301
 5495POPC   D2A70264   0.343   4.395   6.566
 5495POPC   C3A70265   0.394   4.188   6.938
 5495POPC   C4A70266   0.325   4.198   7.346
 5495POPC   C1B70267   0.289   4.767   6.155
 5495POPC   C2B70268   0.083   4.854   6.564
 5495POPC   C3B70269   0.295   4.781   6.971
 5495POPC   C4B70270   0.627   4.606   7.255
 5496POPC   NC370271   9.340  43.037   5.314
 5496POPC   PO470272   8.761  43.247   5.225
 5496POPC   GL170273   8.955  43.198   5.635
 5496POPC   GL270274   8.772  43.462   5.780
 5496POPC   C1A70275   9.020  43.136   6.115
 5496POPC   D2A70276   9.163  42.947   6.524
 5496POPC   C3A70277   9.090  43.128   6.926
 5496POPC   C4A70278   8.794  42.989   7.220
 5496POPC   C1B70279   8.537  43.356   6.174
 5496POPC   C2B70280   8.716  43.310   6.597
 5496POPC   C3B70281   8.685  43.454   7.047
 5496POPC   C4B70282   8.761  43.398   7.515
 5497POPC   NC370283  37.697  19.327   5.267
 5497POPC   PO470284  37.345  18.712   5.472
 5497POPC   GL170285  37.406  18.884   5.859
 5497POPC   GL270286  37.647  19.151   5.780
 5497POPC   C1A70287  37.615  18.796   6.251
 5497POPC   D2A70288  37.734  18.857   6.681
 5497POPC   C3A70289  37.489  19.083   6.985
 5497POPC   C4A70290  37.485  19.154   7.445
 5497POPC   C1B70291  37.849  19.270   6.173
 5497POPC   C2B70292  38.022  19.312   6.600
 5497POPC   C3B70293  38.141  19.049   6.925
 5497POPC   C4B70294  37.989  19.076   7.334
 5498POPC   NC370295  38.132  29.726   5.212
 5498POPC   PO470296  38.445  30.309   5.388
 5498POPC   GL170297  38.453  29.989   5.753
 5498POPC   GL270298  38.224  29.742   5.710
 5498POPC   C1A70299  38.450  29.898   6.186
 5498POPC   D2A70300  38.212  30.036   6.534
 5498POPC   C3A70301  38.461  29.939   6.898
 5498POPC   C4A70302  38.511  30.058   7.336
 5498POPC   C1B70303  37.982  29.789   6.062
 5498POPC   C2B70304  38.040  29.570   6.437
 5498POPC   C3B70305  37.979  29.730   6.856
 5498POPC   C4B70306  38.220  29.583   7.202
 5499POPC   NC370307  10.184  26.444   5.540
 5499POPC   PO470308  10.308  27.160   5.562
 5499POPC   GL170309  10.115  26.894   5.878
 5499POPC   GL270310   9.775  26.876   6.009
 5499POPC   C1A70311  10.181  26.938   6.321
 5499POPC   D2A70312   9.883  26.840   6.610
 5499POPC   C3A70313  10.001  26.865   7.043
 5499POPC   C4A70314   9.829  26.740   7.440
 5499POPC   C1B70315   9.455  26.977   6.329
 5499POPC   C2B70316   9.522  27.184   6.748
 5499POPC   C3B70317   9.467  27.255   7.196
 5499POPC   C4B70318   9.453  27.032   7.623
 5500POPC   NC370319  23.539  29.597   5.185
 5500POPC   PO470320  23.471  28.950   5.373
 5500POPC   GL170321  23.713  29.060   5.781
 5500POPC   GL270322  24.108  28.995   5.764
 5500POPC   C1A70323  23.560  29.287   6.179
 5500POPC   D2A70324  23.285  29.305   6.549
 5500POPC   C3A70325  23.524  29.277   6.909
 5500POPC   C4A70326  23.582  29.107   7.327
 5500POPC   C1B70327  24.004  28.844   6.177
 5500POPC   C2B70328  23.803  28.990   6.560
 5500POPC   C3B70329  24.001  29.108   6.950
 5500POPC   C4B70330  24.086  28.858   7.286
 5501POPC   NC370331   2.125  36.710   5.348
 5501POPC   PO470332   1.807  37.309   5.447
 5501POPC   GL170333   2.016  37.046   5.811
 5501POPC   GL270334   1.783  36.762   5.817
 5501POPC   C1A70335   2.300  36.877   6.240
 5501POPC   D2A70336   2.479  36.787   6.674
 5501POPC   C3A70337   2.265  37.034   7.051
 5501POPC   C4A70338   2.372  37.080   7.516
 5501POPC   C1B70339   1.811  37.012   6.267
 5501POPC   C2B70340   1.848  37.094   6.724
 5501POPC   C3B70341   1.764  36.872   7.113
 5501POPC   C4B70342   1.454  36.850   7.444
 5502POPC   NC370343   1.985  23.920   5.396
 5502POPC   PO470344   2.197  23.301   5.359
 5502POPC   GL170345   2.050  23.303   5.785
 5502POPC   GL270346   1.821  23.585   5.766
 5502POPC   C1A70347   2.174  23.560   6.167
 5502POPC   D2A70348   2.218  23.948   6.414
 5502POPC   C3A70349   2.282  23.840   6.840
 5502POPC   C4A70350   2.177  23.458   7.087
 5502POPC   C1B70351   1.643  23.640   6.174
 5502POPC   C2B70352   1.796  23.689   6.592
 5502POPC   C3B70353   1.784  23.786   6.998
 5502POPC   C4B70354   1.714  23.546   7.330
 5503POPC   NC370355  39.062  22.486   5.407
 5503POPC   PO470356  39.466  21.894   5.456
 5503POPC   GL170357  39.337  21.988   5.872
 5503POPC   GL270358  38.997  21.896   5.870
 5503POPC   C1A70359  39.216  22.018   6.345
 5503POPC   D2A70360  39.223  22.333   6.673
 5503POPC   C3A70361  39.194  22.237   7.108
 5503POPC   C4A70362  39.136  22.244   7.546
 5503POPC   C1B70363  38.992  22.340   6.032
 5503POPC   C2B70364  38.791  22.432   6.412
 5503POPC   C3B70365  38.834  22.646   6.823
 5503POPC   C4B70366  38.790  22.510   7.245
 5504POPC   NC370367  16.705  11.782   5.256
 5504POPC   PO470368  16.924  12.386   5.188
 5504POPC   GL170369  16.853  12.202   5.618
 5504POPC   GL270370  16.489  12.258   5.692
 5504POPC   C1A70371  16.862  12.133   6.092
 5504POPC   D2A70372  17.006  11.925   6.508
 5504POPC   C3A70373  16.868  12.080   6.937
 5504POPC   C4A70374  16.770  12.335   7.315
 5504POPC   C1B70375  16.339  12.131   6.098
 5504POPC   C2B70376  16.347  12.041   6.528
 5504POPC   C3B70377  16.368  12.200   6.934
 5504POPC   C4B70378  16.350  12.023   7.319
 5505POPC   NC370379  18.405  32.095   5.367
 5505POPC   PO470380  18.254  31.415   5.367
 5505POPC   GL170381  18.389  31.463   5.805
 5505POPC   GL270382  18.208  31.169   5.869
 5505POPC   C1A70383  18.439  31.585   6.274
 5505POPC   D2A70384  18.526  31.844   6.674
 5505POPC   C3A70385  18.535  31.623   7.088
 5505POPC   C4A70386  18.331  31.190   7.191
 5505POPC   C1B70387  17.970  31.522   6.059
 5505POPC   C2B70388  17.847  31.512   6.484
 5505POPC   C3B70389  18.094  31.556   6.848
 5505POPC   C4B70390  18.061  31.615   7.300
 5506POPC   NC370391   9.855  43.893   5.380
 5506POPC   PO470392  10.261  44.391   5.684
 5506POPC   GL170393   9.900  44.135   5.829
 5506POPC   GL270394   9.539  43.982   5.764
 5506POPC   C1A70395   9.732  44.132   6.228
 5506POPC   D2A70396   9.963  44.217   6.555
 5506POPC   C3A70397   9.751  44.149   6.895
 5506POPC   C4A70398   9.698  43.798   7.158
 5506POPC   C1B70399   9.548  43.683   6.104
 5506POPC   C2B70400   9.690  43.718   6.544
 5506POPC   C3B70401   9.395  43.551   6.836
 5506POPC   C4B70402   9.499  43.322   7.208
 5507POPC   NC370403  30.470  21.897   5.269
 5507POPC   PO470404  30.844  22.506   5.317
 5507POPC   GL170405  30.541  22.440   5.698
 5507POPC   GL270406  30.402  22.099   5.736
 5507POPC   C1A70407  30.475  22.474   6.181
 5507POPC   D2A70408  30.704  22.451   6.605
 5507POPC   C3A70409  30.816  22.150   6.929
 5507POPC   C4A70410  30.797  22.349   7.318
 5507POPC   C1B70411  30.676  22.012   6.081
 5507POPC   C2B70412  30.550  21.939   6.526
 5507POPC   C3B70413  30.326  21.960   6.948
 5507POPC   C4B70414  30.455  21.954   7.409
 5508POPC   NC370415  27.918   3.081   5.648
 5508POPC   PO470416  27.579   2.733   5.161
 5508POPC   GL170417  27.517   2.755   5.628
 5508POPC   GL270418  27.821   2.633   5.869
 5508POPC   C1A70419  27.390   2.824   6.062
 5508POPC   D2A70420  27.358   2.931   6.517
 5508POPC   C3A70421  27.341   2.666   6.856
 5508POPC   C4A70422  27.541   2.756   7.223
 5508POPC   C1B70423  27.898   2.797   6.315
 5508POPC   C2B70424  27.852   2.773   6.803
 5508POPC   C3B70425  27.957   2.459   7.170
 5508POPC   C4B70426  28.083   2.327   7.611
 5509POPC   NC370427   3.072  18.604   5.343
 5509POPC   PO470428   2.660  18.181   5.147
 5509POPC   GL170429   2.521  18.379   5.611
 5509POPC   GL270430   2.860  18.444   5.782
 5509POPC   C1A70431   2.521  18.239   6.115
 5509POPC   D2A70432   2.461  18.009   6.547
 5509POPC   C3A70433   2.417  18.095   6.986
 5509POPC   C4A70434   2.706  18.273   7.240
 5509POPC   C1B70435   3.060  18.290   6.193
 5509POPC   C2B70436   2.962  18.158   6.643
 5509POPC   C3B70437   3.153  18.108   7.060
 5509POPC   C4B70438   3.222  18.129   7.559
 5510POPC   NC370439  11.400  34.256   5.541
 5510POPC   PO470440  11.142  33.718   5.186
 5510POPC   GL170441  11.280  33.659   5.672
 5510POPC   GL270442  11.291  33.935   5.919
 5510POPC   C1A70443  11.255  33.512   6.168
 5510POPC   D2A70444  11.189  33.761   6.578
 5510POPC   C3A70445  11.372  33.603   6.979
 5510POPC   C4A70446  11.172  33.360   7.302
 5510POPC   C1B70447  11.575  34.041   6.255
 5510POPC   C2B70448  11.446  34.218   6.643
 5510POPC   C3B70449  11.293  34.132   7.060
 5510POPC   C4B70450  11.676  34.122   7.279
 5511POPC   NC370451  31.437  14.630   5.476
 5511POPC   PO470452  31.101  14.032   5.560
 5511POPC   GL170453  31.201  14.388   5.884
 5511POPC   GL270454  31.057  14.695   5.826
 5511POPC   C1A70455  31.510  14.533   6.232
 5511POPC   D2A70456  31.680  14.830   6.545
 5511POPC   C3A70457  31.621  14.577   6.897
 5511POPC   C4A70458  31.616  14.232   7.165
 5511POPC   C1B70459  31.108  14.850   6.210
 5511POPC   C2B70460  31.164  14.644   6.585
 5511POPC   C3B70461  31.115  14.499   6.958
 5511POPC   C4B70462  31.195  14.513   7.360
 5512POPC   NC370463  19.931  33.237   5.363
 5512POPC   PO470464  20.005  32.694   5.123
 5512POPC   GL170465  19.841  32.771   5.614
 5512POPC   GL270466  19.913  33.101   5.833
 5512POPC   C1A70467  19.926  32.686   6.099
 5512POPC   D2A70468  19.709  32.779   6.532
 5512POPC   C3A70469  19.911  32.837   6.956
 5512POPC   C4A70470  19.803  33.008   7.392
 5512POPC   C1B70471  19.777  33.213   6.234
 5512POPC   C2B70472  19.896  33.286   6.656
 5512POPC   C3B70473  19.633  33.275   6.998
 5512POPC   C4B70474  19.573  33.476   7.365
 5513POPC   NC370475  18.874  42.265   5.623
 5513POPC   PO470476  19.411  42.256   5.225
 5513POPC   GL170477  19.371  42.326   5.763
 5513POPC   GL270478  19.335  42.076   6.058
 5513POPC   C1A70479  19.244  42.572   6.146
 5513POPC   D2A70480  19.368  42.444   6.560
 5513POPC   C3A70481  19.125  42.350   6.899
 5513POPC   C4A70482  19.217  42.552   7.284
 5513POPC   C1B70483  18.937  42.228   6.307
 5513POPC   C2B70484  18.663  42.426   6.612
 5513POPC   C3B70485  18.615  42.284   7.007
 5513POPC   C4B70486  18.893  42.163   7.339
 5514POPC   NC370487  32.107  40.643   5.439
 5514POPC   PO470488  32.385  41.253   5.386
 5514POPC   GL170489  32.414  40.957   5.721
 5514POPC   GL270490  32.089  41.031   5.808
 5514POPC   C1A70491  32.504  40.698   6.115
 5514POPC   D2A70492  32.363  40.797   6.550
 5514POPC   C3A70493  32.504  40.571   6.895
 5514POPC   C4A70494  32.329  40.527   7.296
 5514POPC   C1B70495  32.002  40.828   6.196
 5514POPC   C2B70496  31.869  40.982   6.612
 5514POPC   C3B70497  32.041  40.817   6.976
 5514POPC   C4B70498  32.205  41.003   7.351
 5515POPC   NC370499  28.596  28.866   5.586
 5515POPC   PO470500  28.391  29.514   5.411
 5515POPC   GL170501  28.272  29.242   5.769
 5515POPC   GL270502  28.504  29.404   5.926
 5515POPC   C1A70503  28.398  29.039   6.230
 5515POPC   D2A70504  28.459  29.230   6.655
 5515POPC   C3A70505  28.384  28.966   6.993
 5515POPC   C4A70506  28.189  28.935   7.394
 5515POPC   C1B70507  28.549  29.579   6.278
 5515POPC   C2B70508  28.782  29.656   6.614
 5515POPC   C3B70509  28.544  29.655   6.951
 5515POPC   C4B70510  28.433  29.394   7.290
 5516POPC   NC370511  13.732   0.100   5.289
 5516POPC   PO470512  14.079   0.744   5.460
 5516POPC   GL170513  13.736   0.654   5.785
 5516POPC   GL270514  13.643   0.320   5.740
 5516POPC   C1A70515  13.575   0.732   6.190
 5516POPC   D2A70516  13.776   0.778   6.602
 5516POPC   C3A70517  13.622   0.497   6.914
 5516POPC   C4A70518  13.567   0.475   7.354
 5516POPC   C1B70519  13.550   0.217   6.174
 5516POPC   C2B70520  13.303   0.405   6.507
 5516POPC   C3B70521  13.254   0.139   6.848
 5516POPC   C4B70522  13.526   0.010   7.155
 5517POPC   NC370523  24.010  21.607   5.618
 5517POPC   PO470524  23.622  21.636   5.166
 5517POPC   GL170525  23.519  21.548   5.714
 5517POPC   GL270526  23.786  21.317   5.949
 5517POPC   C1A70527  23.396  21.444   6.225
 5517POPC   D2A70528  23.753  21.337   6.580
 5517POPC   C3A70529  23.754  21.229   7.041
 5517POPC   C4A70530  23.528  21.118   7.446
 5517POPC   C1B70531  23.839  21.698   6.229
 5517POPC   C2B70532  23.817  21.859   6.626
 5517POPC   C3B70533  23.612  21.756   6.985
 5517POPC   C4B70534  23.886  21.652   7.285
 5518POPC   NC370535  35.697  20.257   5.322
 5518POPC   PO470536  35.399  20.897   5.428
 5518POPC   GL170537  35.555  20.817   5.817
 5518POPC   GL270538  35.806  20.541   5.750
 5518POPC   C1A70539  35.291  20.761   6.205
 5518POPC   D2A70540  34.999  20.503   6.502
 5518POPC   C3A70541  35.141  20.409   6.934
 5518POPC   C4A70542  35.181  20.782   7.215
 5518POPC   C1B70543  35.569  20.351   6.104
 5518POPC   C2B70544  35.513  20.401   6.562
 5518POPC   C3B70545  35.582  20.670   6.921
 5518POPC   C4B70546  35.762  20.541   7.312
 5519POPC   NC370547  43.425   6.948   5.369
 5519POPC   PO470548  43.008   6.351   5.398
 5519POPC   GL170549  43.137   6.644   5.693
 5519POPC   GL270550  42.922   6.949   5.745
 5519POPC   C1A70551  43.148   6.643   6.133
 5519POPC   D2A70552  43.352   6.720   6.533
 5519POPC   C3A70553  43.166   6.703   6.929
 5519POPC   C4A70554  43.309   6.557   7.303
 5519POPC   C1B70555  43.010   7.134   6.187
 5519POPC   C2B70556  43.192   7.220   6.574
 5519POPC   C3B70557  43.079   7.235   6.984
 5519POPC   C4B70558  42.953   6.970   7.320
 5520POPC   NC370559  10.829  30.257   5.439
 5520POPC   PO470560  10.400  29.739   5.238
 5520POPC   GL170561  10.524  29.700   5.668
 5520POPC   GL270562  10.529  30.013   5.771
 5520POPC   C1A70563  10.501  29.653   6.128
 5520POPC   D2A70564  10.352  29.630   6.539
 5520POPC   C3A70565  10.636  29.678   6.870
 5520POPC   C4A70566  10.517  29.716   7.281
 5520POPC   C1B70567  10.416  30.153   6.163
 5520POPC   C2B70568  10.532  30.140   6.612
 5520POPC   C3B70569  10.386  30.151   7.037
 5520POPC   C4B70570  10.562  30.203   7.451
 5521POPC   NC370571  22.491  18.606   5.261
 5521POPC   PO470572  22.269  18.032   5.525
 5521POPC   GL170573  22.140  18.165   5.896
 5521POPC   GL270574  22.172  18.521   5.719
 5521POPC   C1A70575  21.956  18.147   6.320
 5521POPC   D2A70576  21.982  18.421   6.677
 5521POPC   C3A70577  22.326  18.260   6.905
 5521POPC   C4A70578  22.274  18.014   7.272
 5521POPC   C1B70579  22.068  18.615   6.130
 5521POPC   C2B70580  22.281  18.797   6.457
 5521POPC   C3B70581  22.293  18.807   6.874
 5521POPC   C4B70582  22.079  18.609   7.189
 5522POPC   NC370583  16.894  30.228   5.655
 5522POPC   PO470584  16.666  29.771   5.170
 5522POPC   GL170585  16.653  29.727   5.646
 5522POPC   GL270586  16.391  29.954   5.818
 5522POPC   C1A70587  16.740  29.716   6.110
 5522POPC   D2A70588  16.490  29.743   6.514
 5522POPC   C3A70589  16.786  29.708   6.861
 5522POPC   C4A70590  16.797  29.699   7.314
 5522POPC   C1B70591  16.499  30.162   6.227
 5522POPC   C2B70592  16.666  30.212   6.655
 5522POPC   C3B70593  16.643  30.141   7.098
 5522POPC   C4B70594  16.750  30.159   7.528
 5523POPC   NC370595  42.328  29.632   5.306
 5523POPC   PO470596  42.252  30.360   5.285
 5523POPC   GL170597  42.332  30.059   5.687
 5523POPC   GL270598  42.478  29.695   5.768
 5523POPC   C1A70599  42.457  30.074   6.132
 5523POPC   D2A70600  42.414  30.308   6.498
 5523POPC   C3A70601  42.406  30.127   6.881
 5523POPC   C4A70602  42.553  30.316   7.253
 5523POPC   C1B70603  42.230  29.604   6.137
 5523POPC   C2B70604  42.379  29.582   6.560
 5523POPC   C3B70605  42.207  29.592   6.957
 5523POPC   C4B70606  42.309  29.825   7.297
 5524POPC   NC370607  30.706  36.900   5.210
 5524POPC   PO470608  30.239  36.490   5.593
 5524POPC   GL170609  30.553  36.644   5.949
 5524POPC   GL270610  30.832  36.879   5.846
 5524POPC   C1A70611  30.575  36.971   6.275
 5524POPC   D2A70612  30.587  36.753   6.642
 5524POPC   C3A70613  30.573  36.977   6.984
 5524POPC   C4A70614  30.376  37.021   7.358
 5524POPC   C1B70615  31.006  36.672   6.253
 5524POPC   C2B70616  31.077  36.632   6.730
 5524POPC   C3B70617  30.871  36.578   7.146
 5524POPC   C4B70618  31.008  36.625   7.581
 5525POPC   NC370619  39.322  40.938   5.285
 5525POPC   PO470620  38.741  41.238   5.446
 5525POPC   GL170621  38.990  40.868   5.714
 5525POPC   GL270622  39.368  40.797   5.756
 5525POPC   C1A70623  39.101  40.702   6.158
 5525POPC   D2A70624  39.204  40.779   6.573
 5525POPC   C3A70625  38.977  40.637   6.932
 5525POPC   C4A70626  39.173  40.825   7.244
 5525POPC   C1B70627  39.616  40.557   6.067
 5525POPC   C2B70628  39.527  40.339   6.439
 5525POPC   C3B70629  39.449  40.445   6.867
 5525POPC   C4B70630  39.673  40.720   7.161
 5526POPC   NC370631   5.913   5.805   5.071
 5526POPC   PO470632   6.283   5.847   5.375
 5526POPC   GL170633   6.073   5.896   5.827
 5526POPC   GL270634   5.880   6.225   5.864
 5526POPC   C1A70635   5.927   5.936   6.323
 5526POPC   D2A70636   5.631   5.881   6.737
 5526POPC   C3A70637   5.779   5.780   7.200
 5526POPC   C4A70638   6.098   5.530   7.415
 5526POPC   C1B70639   5.567   6.301   6.212
 5526POPC   C2B70640   5.704   6.379   6.633
 5526POPC   C3B70641   5.912   6.241   7.019
 5526POPC   C4B70642   5.707   6.246   7.403
 5527POPC   NC370643  31.066  12.458   5.532
 5527POPC   PO470644  30.537  12.908   5.473
 5527POPC   GL170645  30.626  12.616   5.797
 5527POPC   GL270646  30.948  12.725   5.958
 5527POPC   C1A70647  30.580  12.516   6.242
 5527POPC   D2A70648  30.843  12.768   6.543
 5527POPC   C3A70649  30.908  12.782   7.016
 5527POPC   C4A70650  30.795  12.764   7.471
 5527POPC   C1B70651  30.643  13.028   6.137
 5527POPC   C2B70652  30.608  13.261   6.534
 5527POPC   C3B70653  30.691  13.240   6.987
 5527POPC   C4B70654  30.613  13.240   7.417
 5528POPC   NC370655   0.137  25.531   5.399
 5528POPC   PO470656   0.640  25.116   5.499
 5528POPC   GL170657   0.471  25.020   5.898
 5528POPC   GL270658   0.651  24.723   5.992
 5528POPC   C1A70659   0.340  25.334   6.239
 5528POPC   D2A70660   0.466  25.495   6.654
 5528POPC   C3A70661   0.356  25.207   6.988
 5528POPC   C4A70662   0.287  25.162   7.439
 5528POPC   C1B70663   0.730  25.023   6.355
 5528POPC   C2B70664   0.863  25.071   6.793
 5528POPC   C3B70665   0.816  25.415   7.071
 5528POPC   C4B70666   0.545  25.594   7.348
 5529POPC   NC370667  10.102  24.581   5.537
 5529POPC   PO470668   9.559  24.132   5.516
 5529POPC   GL170669   9.551  24.401   5.916
 5529POPC   GL270670   9.885  24.478   5.987
 5529POPC   C1A70671   9.614  24.484   6.422
 5529POPC   D2A70672   9.891  24.525   6.833
 5529POPC   C3A70673   9.815  24.905   7.117
 5529POPC   C4A70674   9.843  25.137   7.516
 5529POPC   C1B70675   9.843  24.078   6.220
 5529POPC   C2B70676   9.935  24.039   6.666
 5529POPC   C3B70677  10.095  24.058   7.094
 5529POPC   C4B70678   9.897  24.109   7.491
 5530POPC   NC370679  33.525  16.586   5.382
 5530POPC   PO470680  34.226  16.446   5.493
 5530POPC   GL170681  33.895  16.670   5.723
 5530POPC   GL270682  33.560  16.871   5.789
 5530POPC   C1A70683  33.762  16.507   6.112
 5530POPC   D2A70684  33.843  16.342   6.523
 5530POPC   C3A70685  33.809  16.639   6.834
 5530POPC   C4A70686  34.012  16.622   7.188
 5530POPC   C1B70687  33.853  17.010   6.121
 5530POPC   C2B70688  34.087  16.977   6.520
 5530POPC   C3B70689  34.019  17.133   6.929
 5530POPC   C4B70690  33.691  17.047   7.200
 5531POPC   NC370691  14.402  12.957   5.411
 5531POPC   PO470692  14.821  12.469   5.400
 5531POPC   GL170693  14.622  12.663   5.768
 5531POPC   GL270694  14.286  12.657   5.838
 5531POPC   C1A70695  14.678  12.785   6.201
 5531POPC   D2A70696  14.343  12.687   6.491
 5531POPC   C3A70697  14.467  12.694   6.939
 5531POPC   C4A70698  14.745  12.807   7.266
 5531POPC   C1B70699  14.301  13.077   6.056
 5531POPC   C2B70700  14.261  13.207   6.481
 5531POPC   C3B70701  14.384  13.215   6.887
 5531POPC   C4B70702  14.202  13.104   7.238
 5532POPC   NC370703  22.513  17.067   5.348
 5532POPC   PO470704  21.930  16.789   5.267
 5532POPC   GL170705  22.167  16.848   5.661
 5532POPC   GL270706  22.315  16.519   5.650
 5532POPC   C1A70707  22.235  17.042   6.088
 5532POPC   D2A70708  22.221  16.837   6.527
 5532POPC   C3A70709  22.096  16.950   6.982
 5532POPC   C4A70710  21.677  16.870   7.209
 5532POPC   C1B70711  22.360  16.531   6.099
 5532POPC   C2B70712  22.595  16.467   6.497
 5532POPC   C3B70713  22.562  16.660   6.903
 5532POPC   C4B70714  22.317  16.465   7.199
 5533POPC   NC370715  31.446  35.080   5.362
 5533POPC   PO470716  30.957  35.520   5.498
 5533POPC   GL170717  31.033  35.381   5.918
 5533POPC   GL270718  31.189  35.078   5.806
 5533POPC   C1A70719  31.132  35.357   6.397
 5533POPC   D2A70720  31.266  35.596   6.814
 5533POPC   C3A70721  31.646  35.483   7.095
 5533POPC   C4A70722  31.620  35.256   7.498
 5533POPC   C1B70723  31.547  35.309   6.051
 5533POPC   C2B70724  31.651  35.374   6.506
 5533POPC   C3B70725  31.508  35.095   6.840
 5533POPC   C4B70726  31.844  34.957   7.154
 5534POPC   NC370727  41.471  16.792   5.423
 5534POPC   PO470728  41.987  16.404   5.534
 5534POPC   GL170729  41.657  16.530   5.849
 5534POPC   GL270730  41.347  16.788   5.915
 5534POPC   C1A70731  41.602  16.576   6.292
 5534POPC   D2A70732  41.417  16.515   6.676
 5534POPC   C3A70733  41.556  16.743   7.034
 5534POPC   C4A70734  41.778  16.493   7.322
 5534POPC   C1B70735  41.281  17.012   6.327
 5534POPC   C2B70736  41.132  16.925   6.764
 5534POPC   C3B70737  41.079  16.837   7.204
 5534POPC   C4B70738  41.315  16.676   7.560
 5535POPC   NC370739  29.393  24.638   5.165
 5535POPC   PO470740  28.919  24.285   5.465
 5535POPC   GL170741  29.036  24.552   5.772
 5535POPC   GL270742  29.357  24.669   5.793
 5535POPC   C1A70743  29.006  24.487   6.200
 5535POPC   D2A70744  29.178  24.432   6.601
 5535POPC   C3A70745  29.164  24.078   6.860
 5535POPC   C4A70746  29.031  24.042   7.256
 5535POPC   C1B70747  29.462  24.758   6.253
 5535POPC   C2B70748  29.630  24.588   6.695
 5535POPC   C3B70749  29.347  24.581   7.109
 5535POPC   C4B70750  29.530  24.601   7.559
 5536POPC   NC370751   3.437  24.596   5.462
 5536POPC   PO470752   4.121  24.757   5.445
 5536POPC   GL170753   3.782  24.766   5.794
 5536POPC   GL270754   3.729  24.395   5.873
 5536POPC   C1A70755   3.490  24.693   6.195
 5536POPC   D2A70756   3.396  24.467   6.627
 5536POPC   C3A70757   3.556  24.695   7.009
 5536POPC   C4A70758   3.838  24.742   7.361
 5536POPC   C1B70759   3.586  24.134   6.268
 5536POPC   C2B70760   3.674  24.040   6.740
 5536POPC   C3B70761   3.828  24.254   7.110
 5536POPC   C4B70762   3.843  24.263   7.547
 5537POPC   NC370763  40.432  16.935   5.347
 5537POPC   PO470764  41.035  16.710   5.509
 5537POPC   GL170765  40.760  16.754   5.848
 5537POPC   GL270766  40.469  16.540   5.689
 5537POPC   C1A70767  40.788  16.838   6.323
 5537POPC   D2A70768  40.688  17.149   6.694
 5537POPC   C3A70769  40.560  16.897   7.036
 5537POPC   C4A70770  40.613  16.838   7.498
 5537POPC   C1B70771  40.515  16.385   6.106
 5537POPC   C2B70772  40.611  16.389   6.517
 5537POPC   C3B70773  40.919  16.424   6.806
 5537POPC   C4B70774  40.769  16.447   7.200
 5538POPC   NC370775  25.113  27.598   5.224
 5538POPC   PO470776  24.748  27.923   5.643
 5538POPC   GL170777  25.061  27.647   5.818
 5538POPC   GL270778  25.295  27.384   5.673
 5538POPC   C1A70779  25.235  27.691   6.222
 5538POPC   D2A70780  25.181  27.855   6.630
 5538POPC   C3A70781  25.045  27.628   7.030
 5538POPC   C4A70782  25.314  27.672   7.407
 5538POPC   C1B70783  25.597  27.364   6.049
 5538POPC   C2B70784  25.668  27.413   6.497
 5538POPC   C3B70785  25.537  27.537   6.898
 5538POPC   C4B70786  25.718  27.398   7.291
 5539POPC   NC370787  34.306  24.214   5.478
 5539POPC   PO470788  34.965  24.318   5.293
 5539POPC   GL170789  34.773  24.414   5.707
 5539POPC   GL270790  34.479  24.647   5.766
 5539POPC   C1A70791  34.795  24.509   6.160
 5539POPC   D2A70792  34.644  24.699   6.549
 5539POPC   C3A70793  34.810  24.603   6.979
 5539POPC   C4A70794  34.704  24.465   7.407
 5539POPC   C1B70795  34.278  24.530   6.176
 5539POPC   C2B70796  34.154  24.502   6.626
 5539POPC   C3B70797  34.297  24.702   7.021
 5539POPC   C4B70798  34.169  24.707   7.463
 5540POPC   NC370799  17.925   3.462   5.037
 5540POPC   PO470800  18.542   3.501   5.288
 5540POPC   GL170801  18.543   3.329   5.715
 5540POPC   GL270802  18.294   3.569   5.892
 5540POPC   C1A70803  18.496   3.203   6.150
 5540POPC   D2A70804  18.237   3.390   6.469
 5540POPC   C3A70805  18.348   3.318   6.894
 5540POPC   C4A70806  18.017   3.179   7.149
 5540POPC   C1B70807  18.567   3.740   6.240
 5540POPC   C2B70808  18.444   3.838   6.663
 5540POPC   C3B70809  18.042   3.754   6.863
 5540POPC   C4B70810  18.205   3.691   7.246
 5541POPC   NC370811  38.679  33.760   5.449
 5541POPC   PO470812  38.034  33.468   5.547
 5541POPC   GL170813  38.345  33.645   5.827
 5541POPC   GL270814  38.679  33.463   5.854
 5541POPC   C1A70815  38.421  33.693   6.250
 5541POPC   D2A70816  38.413  33.504   6.628
 5541POPC   C3A70817  38.197  33.747   6.882
 5541POPC   C4A70818  38.233  33.905   7.267
 5541POPC   C1B70819  38.916  33.748   6.148
 5541POPC   C2B70820  38.787  33.884   6.571
 5541POPC   C3B70821  38.753  33.708   6.955
 5541POPC   C4B70822  38.758  33.870   7.312
 5542POPC   NC370823  37.325  41.190   5.459
 5542POPC   PO470824  37.677  40.614   5.563
 5542POPC   GL170825  37.717  40.687   5.966
 5542POPC   GL270826  37.677  41.041   6.051
 5542POPC   C1A70827  37.677  40.628   6.373
 5542POPC   D2A70828  37.737  40.842   6.732
 5542POPC   C3A70829  37.973  40.571   7.009
 5542POPC   C4A70830  37.919  40.438   7.464
 5542POPC   C1B70831  37.372  41.030   6.386
 5542POPC   C2B70832  37.192  40.674   6.625
 5542POPC   C3B70833  37.236  40.592   7.062
 5542POPC   C4B70834  37.590  40.805   7.220
 5543POPC   NC370835  21.688  32.702   5.163
 5543POPC   PO470836  21.306  33.185   5.398
 5543POPC   GL170837  21.425  33.078   5.797
 5543POPC   GL270838  21.647  32.779   5.816
 5543POPC   C1A70839  21.388  33.305   6.176
 5543POPC   D2A70840  21.461  33.164   6.592
 5543POPC   C3A70841  21.271  33.354   6.935
 5543POPC   C4A70842  21.535  33.235   7.260
 5543POPC   C1B70843  21.385  32.781   6.237
 5543POPC   C2B70844  21.154  32.763   6.674
 5543POPC   C3B70845  21.167  32.867   7.128
 5543POPC   C4B70846  21.426  32.803   7.493
 5544POPC   NC370847  44.747   0.088   5.464
 5544POPC   PO470848  44.934   0.574   5.105
 5544POPC   GL170849  44.868   0.542   5.636
 5544POPC   GL270850   0.191   0.516   5.856
 5544POPC   C1A70851  44.725   0.383   6.065
 5544POPC   D2A70852  44.415   0.355   6.390
 5544POPC   C3A70853  44.434   0.335   6.843
 5544POPC   C4A70854  44.342   0.524   7.260
 5544POPC   C1B70855   0.121   0.607   6.315
 5544POPC   C2B70856  44.893   0.317   6.599
 5544POPC   C3B70857  44.892   0.212   7.045
 5544POPC   C4B70858  44.814   0.436   7.433
 5545POPC   NC370859  40.307  43.608   5.030
 5545POPC   PO470860  39.940  44.069   5.432
 5545POPC   GL170861  39.684  44.156   5.783
 5545POPC   GL270862  40.033  44.159   5.944
 5545POPC   C1A70863  39.615  44.012   6.223
 5545POPC   D2A70864  39.890  43.862   6.586
 5545POPC   C3A70865  39.950  44.093   6.962
 5545POPC   C4A70866  40.304  44.274   7.214
 5545POPC   C1B70867  40.280  43.850   6.193
 5545POPC   C2B70868  40.282  43.521   6.523
 5545POPC   C3B70869  40.322  43.676   6.920
 5545POPC   C4B70870  40.149  43.787   7.314
 5546POPC   NC370871  11.004  32.732   5.507
 5546POPC   PO470872  10.482  32.239   5.373
 5546POPC   GL170873  10.538  32.136   5.775
 5546POPC   GL270874  10.684  32.402   5.847
 5546POPC   C1A70875  10.353  32.198   6.186
 5546POPC   D2A70876  10.336  32.497   6.510
 5546POPC   C3A70877  10.331  32.280   6.884
 5546POPC   C4A70878  10.014  32.150   7.177
 5546POPC   C1B70879  10.828  32.402   6.286
 5546POPC   C2B70880  10.964  32.633   6.662
 5546POPC   C3B70881  10.850  32.446   7.067
 5546POPC   C4B70882  10.472  32.524   7.311
 5547POPC   NC370883  23.265  18.719   5.556
 5547POPC   PO470884  22.954  19.320   5.488
 5547POPC   GL170885  22.877  19.080   5.827
 5547POPC   GL270886  22.730  18.782   5.681
 5547POPC   C1A70887  23.170  18.951   6.176
 5547POPC   D2A70888  23.345  18.822   6.582
 5547POPC   C3A70889  23.169  19.029   6.937
 5547POPC   C4A70890  22.942  19.187   7.287
 5547POPC   C1B70891  22.694  18.738   6.145
 5547POPC   C2B70892  22.785  19.017   6.510
 5547POPC   C3B70893  22.643  19.220   6.872
 5547POPC   C4B70894  22.459  19.084   7.268
 5548POPC   NC370895  19.649   2.701   5.321
 5548POPC   PO470896  20.246   2.850   5.395
 5548POPC   GL170897  19.968   2.769   5.723
 5548POPC   GL270898  19.876   2.458   5.784
 5548POPC   C1A70899  19.885   2.801   6.167
 5548POPC   D2A70900  20.086   3.014   6.543
 5548POPC   C3A70901  19.863   3.004   6.922
 5548POPC   C4A70902  20.009   2.875   7.302
 5548POPC   C1B70903  19.967   2.273   6.155
 5548POPC   C2B70904  19.822   2.195   6.568
 5548POPC   C3B70905  19.846   2.495   6.892
 5548POPC   C4B70906  19.625   2.528   7.287
 5549POPC   NC370907  21.657  22.360   5.403
 5549POPC   PO470908  21.211  21.886   5.377
 5549POPC   GL170909  21.262  22.172   5.686
 5549POPC   GL270910  21.601  22.136   5.847
 5549POPC   C1A70911  21.199  22.345   6.067
 5549POPC   D2A70912  21.509  22.263   6.370
 5549POPC   C3A70913  21.315  22.188   6.718
 5549POPC   C4A70914  21.329  22.435   7.053
 5549POPC   C1B70915  21.803  21.872   6.142
 5549POPC   C2B70916  21.935  21.988   6.574
 5549POPC   C3B70917  21.757  22.127   6.958
 5549POPC   C4B70918  21.567  22.077   7.325
 5550POPC   NC370919  17.789   7.227   5.403
 5550POPC   PO470920  17.362   6.848   5.272
 5550POPC   GL170921  17.617   6.793   5.699
 5550POPC   GL270922  17.982   6.707   5.761
 5550POPC   C1A70923  17.596   6.665   6.182
 5550POPC   D2A70924  17.767   6.580   6.652
 5550POPC   C3A70925  17.648   6.431   7.104
 5550POPC   C4A70926  17.550   6.168   7.499
 5550POPC   C1B70927  18.095   6.761   6.221
 5550POPC   C2B70928  18.192   6.849   6.686
 5550POPC   C3B70929  17.972   6.840   7.112
 5550POPC   C4B70930  17.786   7.043   7.496
 5551POPC   NC370931  23.427  43.888   5.307
 5551POPC   PO470932  23.707  43.427   5.469
 5551POPC   GL170933  23.469  43.650   5.810
 5551POPC   GL270934  23.288  43.981   5.772
 5551POPC   C1A70935  23.562  43.743   6.266
 5551POPC   D2A70936  23.481  43.866   6.712
 5551POPC   C3A70937  23.777  43.952   7.099
 5551POPC   C4A70938  23.796  43.934   7.568
 5551POPC   C1B70939  23.343  44.192   6.139
 5551POPC   C2B70940  23.250  44.303   6.567
 5551POPC   C3B70941  23.420  44.291   6.972
 5551POPC   C4B70942  23.357  44.125   7.376
 5552POPC   NC370943  33.186  36.269   5.515
 5552POPC   PO470944  32.776  35.739   5.422
 5552POPC   GL170945  32.828  35.995   5.814
 5552POPC   GL270946  32.706  36.333   5.924
 5552POPC   C1A70947  33.099  36.032   6.187
 5552POPC   D2A70948  33.421  36.245   6.485
 5552POPC   C3A70949  33.356  36.172   6.965
 5552POPC   C4A70950  33.219  36.104   7.425
 5552POPC   C1B70951  32.571  36.134   6.326
 5552POPC   C2B70952  32.582  36.014   6.786
 5552POPC   C3B70953  32.796  36.210   7.135
 5552POPC   C4B70954  33.075  36.556   7.224
 5553POPC   NC370955  42.494  21.198   5.271
 5553POPC   PO470956  42.745  21.814   5.450
 5553POPC   GL170957  42.478  21.485   5.704
 5553POPC   GL270958  42.261  21.151   5.721
 5553POPC   C1A70959  42.594  21.269   6.091
 5553POPC   D2A70960  42.777  21.467   6.440
 5553POPC   C3A70961  42.704  21.392   6.906
 5553POPC   C4A70962  42.330  21.323   7.209
 5553POPC   C1B70963  41.952  21.061   6.034
 5553POPC   C2B70964  41.961  21.109   6.462
 5553POPC   C3B70965  41.966  21.196   6.884
 5553POPC   C4B70966  41.842  20.949   7.231
 5554POPC   NC370967  44.913  10.891   5.331
 5554POPC   PO470968   0.349  11.432   5.501
 5554POPC   GL170969   0.388  11.263   5.889
 5554POPC   GL270970   0.124  11.066   5.804
 5554POPC   C1A70971   0.499  11.173   6.303
 5554POPC   D2A70972   0.756  11.125   6.650
 5554POPC   C3A70973   0.502  11.245   6.993
 5554POPC   C4A70974   0.649  11.315   7.392
 5554POPC   C1B70975   0.004  11.071   6.224
 5554POPC   C2B70976   0.180  10.966   6.621
 5554POPC   C3B70977   0.045  10.998   7.032
 5554POPC   C4B70978   0.166  11.152   7.410
 5555POPC   NC370979   4.542  22.315   5.351
 5555POPC   PO470980   3.922  22.168   5.472
 5555POPC   GL170981   4.196  22.203   5.818
 5555POPC   GL270982   4.554  22.280   5.877
 5555POPC   C1A70983   4.231  21.996   6.201
 5555POPC   D2A70984   4.194  22.105   6.619
 5555POPC   C3A70985   4.433  21.961   6.958
 5555POPC   C4A70986   4.123  22.031   7.239
 5555POPC   C1B70987   4.591  22.331   6.339
 5555POPC   C2B70988   4.518  22.467   6.791
 5555POPC   C3B70989   4.468  22.439   7.257
 5555POPC   C4B70990   4.736  22.448   7.607
 5556POPC   NC370991   4.394  26.880   5.545
 5556POPC   PO470992   3.792  26.844   5.493
 5556POPC   GL170993   4.065  27.038   5.920
 5556POPC   GL270994   4.358  26.883   6.052
 5556POPC   C1A70995   4.127  27.114   6.434
 5556POPC   D2A70996   3.950  26.940   6.859
 5556POPC   C3A70997   4.124  26.934   7.286
 5556POPC   C4A70998   4.323  27.044   7.686
 5556POPC   C1B70999   4.012  26.641   6.279
 5556POPC   C2B71000   4.006  26.450   6.713
 5556POPC   C3B71001   4.338  26.526   7.051
 5556POPC   C4B71002   4.627  26.819   7.310
 5557POPC   NC371003  21.047  35.248   5.358
 5557POPC   PO471004  21.430  35.708   5.422
 5557POPC   GL171005  21.239  35.468   5.775
 5557POPC   GL271006  21.364  35.094   5.736
 5557POPC   C1A71007  21.362  35.487   6.190
 5557POPC   D2A71008  21.543  35.720   6.520
 5557POPC   C3A71009  21.484  35.492   6.896
 5557POPC   C4A71010  21.636  35.585   7.304
 5557POPC   C1B71011  21.262  34.944   6.145
 5557POPC   C2B71012  21.272  35.095   6.554
 5557POPC   C3B71013  21.420  34.963   6.927
 5557POPC   C4B71014  21.408  35.148   7.301
 5558POPC   NC371015  36.684  17.472   5.059
 5558POPC   PO471016  36.750  16.858   5.359
 5558POPC   GL171017  36.881  16.782   5.797
 5558POPC   GL271018  36.682  17.032   5.866
 5558POPC   C1A71019  36.926  16.781   6.281
 5558POPC   D2A71020  36.652  16.728   6.640
 5558POPC   C3A71021  36.921  16.694   7.010
 5558POPC   C4A71022  37.260  16.465   7.116
 5558POPC   C1B71023  36.552  17.124   6.245
 5558POPC   C2B71024  36.695  17.242   6.615
 5558POPC   C3B71025  36.620  17.095   7.019
 5558POPC   C4B71026  36.605  17.019   7.479
 5559POPC   NC371027  41.834   8.044   5.377
 5559POPC   PO471028  41.218   8.366   5.408
 5559POPC   GL171029  41.443   8.140   5.718
 5559POPC   GL271030  41.337   7.820   5.622
 5559POPC   C1A71031  41.789   8.113   6.041
 5559POPC   D2A71032  41.974   8.090   6.452
 5559POPC   C3A71033  41.738   8.320   6.768
 5559POPC   C4A71034  41.663   8.197   7.180
 5559POPC   C1B71035  41.385   7.808   6.076
 5559POPC   C2B71036  41.365   8.096   6.444
 5559POPC   C3B71037  41.312   7.955   6.878
 5559POPC   C4B71038  41.187   8.057   7.303
 5560POPC   NC371039   8.333  11.791   5.146
 5560POPC   PO471040   8.048  11.176   5.284
 5560POPC   GL171041   8.230  11.192   5.720
 5560POPC   GL271042   8.209  10.917   5.978
 5560POPC   C1A71043   8.460  11.323   6.111
 5560POPC   D2A71044   8.359  11.422   6.523
 5560POPC   C3A71045   8.463  11.173   6.864
 5560POPC   C4A71046   8.506  11.265   7.252
 5560POPC   C1B71047   7.967  11.235   6.189
 5560POPC   C2B71048   7.855  11.388   6.574
 5560POPC   C3B71049   8.058  11.523   6.925
 5560POPC   C4B71050   8.001  11.305   7.267
 5561POPC   NC371051  20.990   6.241   5.400
 5561POPC   PO471052  20.566   6.778   5.532
 5561POPC   GL171053  20.823   6.797   5.856
 5561POPC   GL271054  20.968   6.467   5.856
 5561POPC   C1A71055  20.794   6.839   6.280
 5561POPC   D2A71056  20.546   6.633   6.539
 5561POPC   C3A71057  20.569   6.849   6.892
 5561POPC   C4A71058  20.626   6.715   7.259
 5561POPC   C1B71059  20.813   6.328   6.186
 5561POPC   C2B71060  20.927   6.192   6.574
 5561POPC   C3B71061  20.795   6.354   6.926
 5561POPC   C4B71062  20.971   6.341   7.310
 5562POPC   NC371063  27.403  14.281   5.424
 5562POPC   PO471064  27.880  14.084   5.774
 5562POPC   GL171065  27.548  14.319   5.929
 5562POPC   GL271066  27.681  14.663   5.907
 5562POPC   C1A71067  27.529  14.267   6.367
 5562POPC   D2A71068  27.857  14.322   6.663
 5562POPC   C3A71069  27.751  14.349   7.097
 5562POPC   C4A71070  27.722  14.406   7.556
 5562POPC   C1B71071  27.418  14.734   6.279
 5562POPC   C2B71072  27.434  14.622   6.750
 5562POPC   C3B71073  27.573  14.821   7.142
 5562POPC   C4B71074  27.388  14.809   7.574
 5563POPC   NC371075  11.566  21.773   5.434
 5563POPC   PO471076  11.017  21.601   5.042
 5563POPC   GL171077  11.178  21.417   5.556
 5563POPC   GL271078  11.157  21.089   5.801
 5563POPC   C1A71079  11.356  21.440   6.071
 5563POPC   D2A71080  11.489  21.532   6.529
 5563POPC   C3A71081  11.538  21.348   6.947
 5563POPC   C4A71082  11.774  21.559   7.246
 5563POPC   C1B71083  10.993  21.094   6.239
 5563POPC   C2B71084  11.107  21.192   6.679
 5563POPC   C3B71085  11.109  21.143   7.137
 5563POPC   C4B71086  10.918  21.223   7.549
 5564POPC   NC371087  31.777  25.849   5.300
 5564POPC   PO471088  31.607  25.198   5.153
 5564POPC   GL171089  31.580  24.984   5.594
 5564POPC   GL271090  31.386  25.222   5.823
 5564POPC   C1A71091  31.601  24.833   6.059
 5564POPC   D2A71092  31.398  24.988   6.439
 5564POPC   C3A71093  31.458  24.861   6.879
 5564POPC   C4A71094  31.394  25.143   7.219
 5564POPC   C1B71095  31.209  25.427   6.217
 5564POPC   C2B71096  31.096  25.611   6.619
 5564POPC   C3B71097  31.291  25.614   7.041
 5564POPC   C4B71098  31.642  25.806   7.209
 5565POPC   NC371099  32.706  34.085   5.489
 5565POPC   PO471100  33.125  33.517   5.386
 5565POPC   GL171101  33.065  33.789   5.721
 5565POPC   GL271102  32.751  33.715   5.846
 5565POPC   C1A71103  33.161  33.945   6.126
 5565POPC   D2A71104  33.315  33.772   6.530
 5565POPC   C3A71105  33.038  33.758   6.889
 5565POPC   C4A71106  33.210  33.895   7.262
 5565POPC   C1B71107  32.692  33.747   6.271
 5565POPC   C2B71108  32.585  33.559   6.646
 5565POPC   C3B71109  32.529  33.676   7.097
 5565POPC   C4B71110  32.680  34.018   7.307
 5566POPC   NC371111  16.711  23.417   5.406
 5566POPC   PO471112  16.819  22.776   5.544
 5566POPC   GL171113  16.662  23.002   5.891
 5566POPC   GL271114  16.311  22.931   5.968
 5566POPC   C1A71115  16.662  22.945   6.333
 5566POPC   D2A71116  16.882  23.171   6.627
 5566POPC   C3A71117  17.029  23.000   6.998
 5566POPC   C4A71118  16.799  22.740   7.297
 5566POPC   C1B71119  16.261  23.274   6.256
 5566POPC   C2B71120  16.377  23.210   6.675
 5566POPC   C3B71121  16.523  22.858   6.876
 5566POPC   C4B71122  16.278  22.968   7.219
 5567POPC   NC371123  44.955   6.743   4.848
 5567POPC   PO471124  44.577   6.528   5.452
 5567POPC   GL171125  44.610   6.619   5.885
 5567POPC   GL271126  44.947   6.469   5.934
 5567POPC   C1A71127  44.398   6.600   6.294
 5567POPC   D2A71128  44.286   6.443   6.711
 5567POPC   C3A71129  44.544   6.585   7.022
 5567POPC   C4A71130  44.666   6.504   7.447
 5567POPC   C1B71131  44.904   6.744   6.286
 5567POPC   C2B71132  44.800   6.972   6.655
 5567POPC   C3B71133   0.079   7.054   7.016
 5567POPC   C4B71134   0.030   6.850   7.445
 5568POPC   NC371135  37.017  36.486   5.352
 5568POPC   PO471136  36.701  35.864   5.397
 5568POPC   GL171137  36.737  36.223   5.732
 5568POPC   GL271138  37.051  36.341   5.870
 5568POPC   C1A71139  36.669  36.334   6.218
 5568POPC   D2A71140  36.656  36.143   6.658
 5568POPC   C3A71141  36.686  36.386   7.046
 5568POPC   C4A71142  36.758  36.272   7.499
 5568POPC   C1B71143  37.171  36.218   6.317
 5568POPC   C2B71144  37.165  36.183   6.779
 5568POPC   C3B71145  36.944  35.947   7.086
 5568POPC   C4B71146  36.945  35.806   7.507
 5569POPC   NC371147   0.551  42.989   5.424
 5569POPC   PO471148   0.020  43.393   5.346
 5569POPC   GL171149   0.204  43.217   5.720
 5569POPC   GL271150   0.211  42.844   5.798
 5569POPC   C1A71151   0.441  43.315   6.115
 5569POPC   D2A71152   0.454  43.572   6.521
 5569POPC   C3A71153   0.563  43.414   6.923
 5569POPC   C4A71154   0.383  43.305   7.325
 5569POPC   C1B71155   0.504  42.803   6.183
 5569POPC   C2B71156   0.581  42.999   6.605
 5569POPC   C3B71157   0.344  42.939   6.971
 5569POPC   C4B71158   0.380  42.606   7.228
 5570POPC   NC371159  32.028  19.262   5.476
 5570POPC   PO471160  32.057  18.604   5.474
 5570POPC   GL171161  32.316  18.845   5.787
 5570POPC   GL271162  32.380  19.228   5.856
 5570POPC   C1A71163  32.391  18.738   6.196
 5570POPC   D2A71164  31.986  18.745   6.424
 5570POPC   C3A71165  32.000  18.851   6.839
 5570POPC   C4A71166  32.283  18.764   7.162
 5570POPC   C1B71167  32.187  19.202   6.240
 5570POPC   C2B71168  32.066  19.337   6.615
 5570POPC   C3B71169  32.160  19.308   7.038
 5570POPC   C4B71170  31.927  19.476   7.347
 5571POPC   NC371171  33.011  20.487   5.502
 5571POPC   PO471172  32.945  21.110   5.525
 5571POPC   GL171173  33.144  20.862   5.881
 5571POPC   GL271174  33.282  20.509   5.909
 5571POPC   C1A71175  32.945  20.660   6.250
 5571POPC   D2A71176  32.649  20.572   6.556
 5571POPC   C3A71177  32.795  20.703   6.940
 5571POPC   C4A71178  32.829  20.526   7.334
 5571POPC   C1B71179  33.442  20.541   6.305
 5571POPC   C2B71180  33.271  20.645   6.699
 5571POPC   C3B71181  33.269  20.528   7.105
 5571POPC   C4B71182  33.185  20.127   7.265
 5572POPC   NC371183  39.481  37.058   5.412
 5572POPC   PO471184  38.871  36.686   5.587
 5572POPC   GL171185  39.163  36.952   5.854
 5572POPC   GL271186  39.533  36.901   5.884
 5572POPC   C1A71187  39.161  36.905   6.316
 5572POPC   D2A71188  38.874  37.051   6.642
 5572POPC   C3A71189  38.990  37.130   7.058
 5572POPC   C4A71190  38.987  36.715   7.294
 5572POPC   C1B71191  39.646  36.695   6.247
 5572POPC   C2B71192  39.581  36.856   6.640
 5572POPC   C3B71193  39.383  36.812   7.011
 5572POPC   C4B71194  39.490  36.916   7.452
 5573POPC   NC371195   4.134  29.158   4.971
 5573POPC   PO471196   4.474  29.381   5.522
 5573POPC   GL171197   4.306  29.231   5.881
 5573POPC   GL271198   4.070  28.964   5.863
 5573POPC   C1A71199   4.486  29.085   6.238
 5573POPC   D2A71200   4.332  29.261   6.593
 5573POPC   C3A71201   4.596  29.317   6.922
 5573POPC   C4A71202   4.642  29.149   7.296
 5573POPC   C1B71203   3.959  29.075   6.264
 5573POPC   C2B71204   3.919  28.987   6.690
 5573POPC   C3B71205   4.133  29.123   7.074
 5573POPC   C4B71206   3.979  28.876   7.395
 5574POPC   NC371207  19.389  31.979   5.503
 5574POPC   PO471208  19.245  32.663   5.437
 5574POPC   GL171209  19.176  32.444   5.868
 5574POPC   GL271210  19.034  32.106   5.885
 5574POPC   C1A71211  19.061  32.568   6.317
 5574POPC   D2A71212  19.275  32.450   6.714
 5574POPC   C3A71213  19.048  32.396   7.095
 5574POPC   C4A71214  19.181  32.371   7.509
 5574POPC   C1B71215  19.150  32.050   6.348
 5574POPC   C2B71216  19.044  31.939   6.782
 5574POPC   C3B71217  18.977  31.888   7.223
 5574POPC   C4B71218  19.073  31.874   7.638
 5575POPC   NC371219  41.857  20.185   5.232
 5575POPC   PO471220  41.397  19.704   5.086
 5575POPC   GL171221  41.695  19.776   5.512
 5575POPC   GL271222  41.650  20.081   5.698
 5575POPC   C1A71223  41.713  19.692   6.016
 5575POPC   D2A71224  41.559  19.803   6.441
 5575POPC   C3A71225  41.676  19.567   6.812
 5575POPC   C4A71226  41.617  19.606   7.252
 5575POPC   C1B71227  41.435  20.172   6.089
 5575POPC   C2B71228  41.359  20.271   6.531
 5575POPC   C3B71229  41.459  20.028   6.901
 5575POPC   C4B71230  41.191  19.960   7.221
 5576POPC   NC371231  37.305   8.472   5.700
 5576POPC   PO471232  36.922   8.118   5.230
 5576POPC   GL171233  36.851   8.187   5.678
 5576POPC   GL271234  36.975   7.897   5.820
 5576POPC   C1A71235  36.774   8.440   6.085
 5576POPC   D2A71236  36.587   8.472   6.513
 5576POPC   C3A71237  36.807   8.420   6.924
 5576POPC   C4A71238  36.734   8.153   7.321
 5576POPC   C1B71239  37.049   7.992   6.284
 5576POPC   C2B71240  36.962   7.967   6.747
 5576POPC   C3B71241  37.107   7.852   7.168
 5576POPC   C4B71242  37.071   7.970   7.657
 5577POPC   NC371243  38.561  39.399   5.494
 5577POPC   PO471244  38.026  38.981   5.528
 5577POPC   GL171245  38.095  39.178   5.940
 5577POPC   GL271246  38.247  39.495   5.910
 5577POPC   C1A71247  38.260  39.096   6.380
 5577POPC   D2A71248  38.529  38.777   6.601
 5577POPC   C3A71249  38.671  38.918   6.987
 5577POPC   C4A71250  38.853  39.288   7.154
 5577POPC   C1B71251  38.584  39.483   6.238
 5577POPC   C2B71252  38.648  39.360   6.673
 5577POPC   C3B71253  38.354  39.314   7.009
 5577POPC   C4B71254  38.293  39.542   7.386
 5578POPC   NC371255  11.738   5.519   5.427
 5578POPC   PO471256  12.200   5.055   5.434
 5578POPC   GL171257  11.955   5.145   5.815
 5578POPC   GL271258  11.619   5.116   5.767
 5578POPC   C1A71259  11.921   4.947   6.248
 5578POPC   D2A71260  12.036   4.868   6.696
 5578POPC   C3A71261  12.034   5.184   7.049
 5578POPC   C4A71262  11.796   5.108   7.465
 5578POPC   C1B71263  11.500   5.212   6.213
 5578POPC   C2B71264  11.724   5.302   6.634
 5578POPC   C3B71265  11.603   5.467   7.074
 5578POPC   C4B71266  11.605   5.561   7.560
 5579POPC   NC371267  26.782  33.591   5.512
 5579POPC   PO471268  26.968  34.260   5.444
 5579POPC   GL171269  26.997  33.994   5.803
 5579POPC   GL271270  26.652  33.953   5.837
 5579POPC   C1A71271  27.003  33.705   6.166
 5579POPC   D2A71272  26.957  33.624   6.609
 5579POPC   C3A71273  27.186  33.521   6.974
 5579POPC   C4A71274  26.839  33.530   7.230
 5579POPC   C1B71275  26.771  34.187   6.205
 5579POPC   C2B71276  26.690  34.054   6.648
 5579POPC   C3B71277  26.736  34.024   7.113
 5579POPC   C4B71278  26.873  34.287   7.431
 5580POPC   NC371279  30.329  36.948   5.644
 5580POPC   PO471280  29.685  36.730   5.382
 5580POPC   GL171281  29.857  36.877   5.798
 5580POPC   GL271282  29.830  36.575   5.915
 5580POPC   C1A71283  29.986  37.087   6.196
 5580POPC   D2A71284  29.936  37.263   6.611
 5580POPC   C3A71285  30.030  37.043   6.977
 5580POPC   C4A71286  29.839  37.087   7.375
 5580POPC   C1B71287  29.626  36.714   6.299
 5580POPC   C2B71288  29.640  36.788   6.763
 5580POPC   C3B71289  29.512  36.706   7.215
 5580POPC   C4B71290  29.601  36.758   7.702
 5581POPC   NC371291  41.387  42.129   5.344
 5581POPC   PO471292  41.981  42.470   5.450
 5581POPC   GL171293  41.746  42.202   5.743
 5581POPC   GL271294  41.465  42.411   5.752
 5581POPC   C1A71295  41.578  42.095   6.178
 5581POPC   D2A71296  41.462  42.325   6.562
 5581POPC   C3A71297  41.556  42.228   6.985
 5581POPC   C4A71298  41.389  42.358   7.426
 5581POPC   C1B71299  41.624  42.605   6.106
 5581POPC   C2B71300  41.939  42.486   6.396
 5581POPC   C3B71301  42.005  42.534   6.829
 5581POPC   C4B71302  41.792  42.595   7.218
 5582POPC   NC371303   1.476  43.361   5.573
 5582POPC   PO471304   1.001  42.951   5.422
 5582POPC   GL171305   0.918  42.901   5.855
 5582POPC   GL271306   1.253  43.041   5.902
 5582POPC   C1A71307   0.934  43.142   6.269
 5582POPC   D2A71308   0.981  43.482   6.570
 5582POPC   C3A71309   1.090  43.349   6.968
 5582POPC   C4A71310   0.848  43.026   7.121
 5582POPC   C1B71311   1.549  43.096   6.233
 5582POPC   C2B71312   1.588  42.880   6.649
 5582POPC   C3B71313   1.473  43.019   7.070
 5582POPC   C4B71314   1.643  43.434   7.208
 5583POPC   NC371315  10.281  20.728   5.618
 5583POPC   PO471316   9.743  20.306   5.425
 5583POPC   GL171317   9.806  20.554   5.802
 5583POPC   GL271318   9.562  20.822   5.846
 5583POPC   C1A71319   9.619  20.473   6.217
 5583POPC   D2A71320   9.443  20.511   6.624
 5583POPC   C3A71321   9.717  20.409   7.000
 5583POPC   C4A71322  10.006  20.472   7.370
 5583POPC   C1B71323   9.866  20.919   6.226
 5583POPC   C2B71324   9.775  20.905   6.698
 5583POPC   C3B71325   9.463  20.842   7.032
 5583POPC   C4B71326   9.618  20.791   7.478
 5584POPC   NC371327  22.858  14.366   4.984
 5584POPC   PO471328  22.855  13.696   5.179
 5584POPC   GL171329  22.881  13.980   5.633
 5584POPC   GL271330  22.929  14.342   5.619
 5584POPC   C1A71331  22.819  14.153   6.097
 5584POPC   D2A71332  22.889  14.457   6.474
 5584POPC   C3A71333  23.037  14.298   6.870
 5584POPC   C4A71334  22.909  14.171   7.278
 5584POPC   C1B71335  22.931  14.659   5.995
 5584POPC   C2B71336  23.113  14.910   6.386
 5584POPC   C3B71337  23.081  14.820   6.839
 5584POPC   C4B71338  22.843  14.660   7.201
 5585POPC   NC371339  41.336  14.957   5.402
 5585POPC   PO471340  41.929  15.175   5.135
 5585POPC   GL171341  41.883  15.026   5.635
 5585POPC   GL271342  41.564  14.888   5.843
 5585POPC   C1A71343  41.926  15.064   6.127
 5585POPC   D2A71344  41.864  15.324   6.538
 5585POPC   C3A71345  41.760  15.227   6.996
 5585POPC   C4A71346  41.849  15.512   7.351
 5585POPC   C1B71347  41.420  15.082   6.233
 5585POPC   C2B71348  41.520  14.946   6.640
 5585POPC   C3B71349  41.292  14.924   7.007
 5585POPC   C4B71350  41.367  14.874   7.400
 5586POPC   NC371351   4.576  21.320   5.444
 5586POPC   PO471352   4.014  21.548   5.491
 5586POPC   GL171353   4.265  21.592   5.830
 5586POPC   GL271354   4.516  21.804   5.685
 5586POPC   C1A71355   4.239  21.475   6.264
 5586POPC   D2A71356   4.477  21.337   6.627
 5586POPC   C3A71357   4.380  21.426   6.991
 5586POPC   C4A71358   4.380  21.129   7.272
 5586POPC   C1B71359   4.666  21.760   6.130
 5586POPC   C2B71360   4.896  21.639   6.509
 5586POPC   C3B71361   4.898  21.693   6.952
 5586POPC   C4B71362   4.715  21.553   7.333
 5587POPC   NC371363   4.936  29.469   5.410
 5587POPC   PO471364   4.759  28.863   5.224
 5587POPC   GL171365   4.986  28.992   5.621
 5587POPC   GL271366   4.832  29.247   5.864
 5587POPC   C1A71367   5.195  28.956   6.053
 5587POPC   D2A71368   5.021  28.886   6.475
 5587POPC   C3A71369   5.283  28.888   6.867
 5587POPC   C4A71370   5.141  29.004   7.272
 5587POPC   C1B71371   4.991  29.424   6.266
 5587POPC   C2B71372   4.968  29.579   6.724
 5587POPC   C3B71373   5.022  29.489   7.196
 5587POPC   C4B71374   5.242  29.400   7.612
 5588POPC   NC371375  43.847   2.109   5.412
 5588POPC   PO471376  43.820   1.552   5.177
 5588POPC   GL171377  43.725   1.686   5.693
 5588POPC   GL271378  43.694   2.070   5.888
 5588POPC   C1A71379  43.726   1.684   6.195
 5588POPC   D2A71380  43.705   1.971   6.566
 5588POPC   C3A71381  44.037   1.991   6.886
 5588POPC   C4A71382  43.860   1.888   7.271
 5588POPC   C1B71383  43.531   2.359   6.252
 5588POPC   C2B71384  43.432   2.402   6.717
 5588POPC   C3B71385  43.668   2.342   7.121
 5588POPC   C4B71386  44.123   2.337   7.268
 5589POPC   NC371387   3.395  10.946   5.228
 5589POPC   PO471388   3.167  10.441   5.596
 5589POPC   GL171389   3.342  10.369   5.971
 5589POPC   GL271390   3.690  10.354   5.887
 5589POPC   C1A71391   3.329  10.627   6.329
 5589POPC   D2A71392   3.525  10.787   6.690
 5589POPC   C3A71393   3.309  10.597   7.005
 5589POPC   C4A71394   3.148  10.224   7.034
 5589POPC   C1B71395   3.822  10.485   6.271
 5589POPC   C2B71396   4.011  10.557   6.636
 5589POPC   C3B71397   3.820  10.496   7.003
 5589POPC   C4B71398   3.874  10.330   7.366
 5590POPC   NC371399   1.121  12.465   5.343
 5590POPC   PO471400   1.490  11.934   5.252
 5590POPC   GL171401   1.147  11.998   5.660
 5590POPC   GL271402   1.145  12.315   5.832
 5590POPC   C1A71403   0.925  11.986   6.145
 5590POPC   D2A71404   1.094  12.099   6.588
 5590POPC   C3A71405   0.956  12.058   7.056
 5590POPC   C4A71406   1.129  12.187   7.480
 5590POPC   C1B71407   1.342  12.441   6.231
 5590POPC   C2B71408   1.412  12.500   6.682
 5590POPC   C3B71409   1.437  12.394   7.119
 5590POPC   C4B71410   1.499  12.559   7.545
 5591POPC   NC371411  24.254  33.926   5.221
 5591POPC   PO471412  24.697  33.446   5.541
 5591POPC   GL171413  24.672  33.770   5.815
 5591POPC   GL271414  24.338  33.791   5.726
 5591POPC   C1A71415  24.670  33.970   6.212
 5591POPC   D2A71416  24.720  34.106   6.665
 5591POPC   C3A71417  24.649  33.786   6.977
 5591POPC   C4A71418  24.581  33.632   7.364
 5591POPC   C1B71419  24.152  34.036   6.021
 5591POPC   C2B71420  24.223  34.035   6.455
 5591POPC   C3B71421  24.241  34.072   6.886
 5591POPC   C4B71422  24.192  34.031   7.305
 5592POPC   NC371423  33.398  25.164   5.244
 5592POPC   PO471424  32.890  25.509   5.523
 5592POPC   GL171425  33.141  25.424   5.882
 5592POPC   GL271426  33.239  25.088   5.799
 5592POPC   C1A71427  32.947  25.222   6.245
 5592POPC   D2A71428  32.774  25.177   6.659
 5592POPC   C3A71429  33.148  25.327   6.877
 5592POPC   C4A71430  33.148  25.586   7.235
 5592POPC   C1B71431  33.252  24.818   6.178
 5592POPC   C2B71432  33.207  24.888   6.598
 5592POPC   C3B71433  33.280  24.821   7.014
 5592POPC   C4B71434  33.251  25.100   7.322
 5593POPC   NC371435  10.937  12.092   5.525
 5593POPC   PO471436  10.337  11.844   5.262
 5593POPC   GL171437  10.414  11.810   5.731
 5593POPC   GL271438  10.721  11.890   5.919
 5593POPC   C1A71439  10.351  11.635   6.161
 5593POPC   D2A71440  10.424  11.754   6.602
 5593POPC   C3A71441  10.334  11.996   6.998
 5593POPC   C4A71442  10.661  12.237   7.213
 5593POPC   C1B71443  10.584  12.125   6.282
 5593POPC   C2B71444  10.473  12.328   6.652
 5593POPC   C3B71445  10.293  12.555   7.015
 5593POPC   C4B71446  10.190  12.375   7.404
 5594POPC   NC371447  36.297  40.237   5.440
 5594POPC   PO471448  35.885  39.747   5.553
 5594POPC   GL171449  36.038  40.043   5.873
 5594POPC   GL271450  36.242  40.339   5.921
 5594POPC   C1A71451  35.999  40.020   6.308
 5594POPC   D2A71452  36.192  39.743   6.618
 5594POPC   C3A71453  36.043  39.900   6.994
 5594POPC   C4A71454  35.961  39.941   7.446
 5594POPC   C1B71455  36.295  40.488   6.306
 5594POPC   C2B71456  36.317  40.256   6.666
 5594POPC   C3B71457  36.318  40.307   7.073
 5594POPC   C4B71458  36.313  40.306   7.467
 5595POPC   NC371459  17.918   8.970   5.375
 5595POPC   PO471460  17.354   9.206   5.351
 5595POPC   GL171461  17.414   9.084   5.784
 5595POPC   GL271462  17.760   8.991   5.860
 5595POPC   C1A71463  17.417   8.963   6.243
 5595POPC   D2A71464  17.413   9.221   6.613
 5595POPC   C3A71465  17.423   9.040   7.048
 5595POPC   C4A71466  17.352   8.968   7.505
 5595POPC   C1B71467  17.956   8.939   6.279
 5595POPC   C2B71468  17.848   8.957   6.728
 5595POPC   C3B71469  17.894   8.746   7.144
 5595POPC   C4B71470  17.914   8.732   7.607
 5596POPC   NC371471  15.524  14.251   5.421
 5596POPC   PO471472  16.193  14.201   5.326
 5596POPC   GL171473  16.051  14.445   5.722
 5596POPC   GL271474  15.738  14.338   5.898
 5596POPC   C1A71475  16.161  14.412   6.185
 5596POPC   D2A71476  15.972  14.434   6.627
 5596POPC   C3A71477  16.181  14.358   7.029
 5596POPC   C4A71478  16.292  13.952   7.234
 5596POPC   C1B71479  15.710  14.660   6.231
 5596POPC   C2B71480  15.667  14.826   6.649
 5596POPC   C3B71481  15.679  14.563   7.051
 5596POPC   C4B71482  15.623  14.561   7.538
 5597POPC   NC371483  10.143   5.326   5.407
 5597POPC   PO471484  10.551   4.877   5.539
 5597POPC   GL171485  10.608   5.141   5.850
 5597POPC   GL271486  10.736   5.493   5.807
 5597POPC   C1A71487  10.693   4.980   6.235
 5597POPC   D2A71488  10.779   5.026   6.648
 5597POPC   C3A71489  10.446   4.992   6.898
 5597POPC   C4A71490  10.417   4.772   7.234
 5597POPC   C1B71491  10.384   5.527   6.088
 5597POPC   C2B71492  10.461   5.395   6.498
 5597POPC   C3B71493  10.626   5.525   6.890
 5597POPC   C4B71494  10.472   5.478   7.313
 5598POPC   NC371495  35.525  43.671   5.493
 5598POPC   PO471496  34.936  43.871   5.243
 5598POPC   GL171497  35.107  43.843   5.729
 5598POPC   GL271498  35.244  44.157   5.892
 5598POPC   C1A71499  35.327  43.736   6.168
 5598POPC   D2A71500  35.551  43.874   6.566
 5598POPC   C3A71501  35.372  43.861   6.964
 5598POPC   C4A71502  35.569  43.644   7.292
 5598POPC   C1B71503  35.355  44.273   6.293
 5598POPC   C2B71504  35.415  44.380   6.714
 5598POPC   C3B71505  35.424  44.374   7.142
 5598POPC   C4B71506  35.255  44.060   7.430
 5599POPC   NC371507  14.801  14.215   5.268
 5599POPC   PO471508  15.264  14.541   5.165
 5599POPC   GL171509  15.095  14.470   5.639
 5599POPC   GL271510  14.888  14.182   5.783
 5599POPC   C1A71511  15.243  14.382   6.098
 5599POPC   D2A71512  15.266  14.495   6.545
 5599POPC   C3A71513  15.243  14.263   6.901
 5599POPC   C4A71514  15.214  14.466   7.257
 5599POPC   C1B71515  14.746  14.028   6.157
 5599POPC   C2B71516  14.903  14.040   6.566
 5599POPC   C3B71517  14.720  14.193   6.924
 5599POPC   C4B71518  14.788  14.060   7.323
 5600POPC   NC371519  30.219  15.867   5.399
 5600POPC   PO471520  29.624  16.223   5.428
 5600POPC   GL171521  29.884  16.115   5.729
 5600POPC   GL271522  29.759  15.767   5.814
 5600POPC   C1A71523  30.102  16.039   6.089
 5600POPC   D2A71524  29.986  15.679   6.382
 5600POPC   C3A71525  30.061  15.772   6.840
 5600POPC   C4A71526  30.209  16.143   7.031
 5600POPC   C1B71527  29.613  16.036   6.204
 5600POPC   C2B71528  29.797  16.195   6.597
 5600POPC   C3B71529  29.670  16.236   7.053
 5600POPC   C4B71530  29.634  16.007   7.441
 5601POPC   NC371531  38.653   2.487   5.075
 5601POPC   PO471532  38.609   2.956   5.622
 5601POPC   GL171533  38.375   2.667   5.883
 5601POPC   GL271534  38.707   2.619   6.072
 5601POPC   C1A71535  38.308   2.376   6.259
 5601POPC   D2A71536  38.071   2.384   6.643
 5601POPC   C3A71537  38.365   2.628   6.910
 5601POPC   C4A71538  38.430   2.584   7.337
 5601POPC   C1B71539  38.462   2.948   6.278
 5601POPC   C2B71540  38.464   3.156   6.621
 5601POPC   C3B71541  38.249   3.255   6.963
 5601POPC   C4B71542  38.403   3.081   7.296
 5602POPC   NC371543  31.928  16.805   5.269
 5602POPC   PO471544  32.393  17.004   5.722
 5602POPC   GL171545  32.166  16.680   5.934
 5602POPC   GL271546  31.841  16.633   5.858
 5602POPC   C1A71547  32.264  16.676   6.342
 5602POPC   D2A71548  32.455  16.802   6.692
 5602POPC   C3A71549  32.467  16.565   7.062
 5602POPC   C4A71550  32.509  16.943   7.271
 5602POPC   C1B71551  31.851  16.959   6.221
 5602POPC   C2B71552  31.944  16.947   6.682
 5602POPC   C3B71553  32.039  16.835   7.092
 5602POPC   C4B71554  31.992  16.525   7.428
 5603POPC   NC371555  42.938   4.615   5.447
 5603POPC   PO471556  43.172   3.979   5.269
 5603POPC   GL171557  43.239   4.233   5.634
 5603POPC   GL271558  42.942   4.094   5.730
 5603POPC   C1A71559  43.282   4.168   6.105
 5603POPC   D2A71560  43.029   4.045   6.493
 5603POPC   C3A71561  43.134   4.287   6.882
 5603POPC   C4A71562  43.131   4.726   7.028
 5603POPC   C1B71563  42.766   4.260   6.093
 5603POPC   C2B71564  42.671   4.528   6.436
 5603POPC   C3B71565  42.631   4.641   6.875
 5603POPC   C4B71566  42.745   4.364   7.222
 5604POPC   NC371567  32.798  15.100   5.362
 5604POPC   PO471568  33.364  14.924   5.626
 5604POPC   GL171569  32.935  15.118   5.846
 5604POPC   GL271570  32.615  15.375   5.741
 5604POPC   C1A71571  32.676  15.089   6.217
 5604POPC   D2A71572  32.756  14.965   6.641
 5604POPC   C3A71573  33.140  15.065   6.823
 5604POPC   C4A71574  33.077  15.048   7.246
 5604POPC   C1B71575  32.782  15.566   6.082
 5604POPC   C2B71576  32.925  15.486   6.519
 5604POPC   C3B71577  32.863  15.468   6.978
 5604POPC   C4B71578  33.306  15.481   7.141
 5605POPC   NC371579  34.241  37.371   5.429
 5605POPC   PO471580  34.828  37.716   5.425
 5605POPC   GL171581  34.630  37.819   5.813
 5605POPC   GL271582  34.277  37.695   5.835
 5605POPC   C1A71583  34.648  37.679   6.233
 5605POPC   D2A71584  34.872  37.699   6.614
 5605POPC   C3A71585  34.856  37.382   6.927
 5605POPC   C4A71586  34.652  37.399   7.338
 5605POPC   C1B71587  34.123  37.682   6.267
 5605POPC   C2B71588  34.353  37.732   6.657
 5605POPC   C3B71589  34.429  37.786   7.073
 5605POPC   C4B71590  34.097  37.571   7.302
 5606POPC   NC371591  41.571   8.608   5.585
 5606POPC   PO471592  41.694   9.261   5.561
 5606POPC   GL171593  41.473   9.211   5.949
 5606POPC   GL271594  41.335   8.860   5.977
 5606POPC   C1A71595  41.647   9.062   6.354
 5606POPC   D2A71596  41.483   8.775   6.662
 5606POPC   C3A71597  41.336   9.030   6.958
 5606POPC   C4A71598  41.615   9.198   7.224
 5606POPC   C1B71599  41.590   8.550   6.221
 5606POPC   C2B71600  41.983   8.627   6.409
 5606POPC   C3B71601  42.021   8.827   6.811
 5606POPC   C4B71602  41.770   8.700   7.168
 5607POPC   NC371603   9.353  41.316   5.403
 5607POPC   PO471604   9.470  41.979   5.296
 5607POPC   GL171605   9.132  41.767   5.639
 5607POPC   GL271606   8.992  41.442   5.774
 5607POPC   C1A71607   9.047  41.773   6.131
 5607POPC   D2A71608   9.042  41.478   6.492
 5607POPC   C3A71609   9.060  41.665   6.908
 5607POPC   C4A71610   9.149  41.506   7.302
 5607POPC   C1B71611   8.659  41.418   6.147
 5607POPC   C2B71612   8.574  41.284   6.602
 5607POPC   C3B71613   8.633  41.376   7.052
 5607POPC   C4B71614   8.577  41.233   7.478
 5608POPC   NC371615  22.888  38.660   5.337
 5608POPC   PO471616  23.269  38.071   5.334
 5608POPC   GL171617  23.026  38.277   5.675
 5608POPC   GL271618  22.645  38.342   5.707
 5608POPC   C1A71619  22.996  38.240   6.121
 5608POPC   D2A71620  22.961  38.513   6.485
 5608POPC   C3A71621  22.943  38.339   6.895
 5608POPC   C4A71622  22.905  38.542   7.314
 5608POPC   C1B71623  22.576  38.544   6.142
 5608POPC   C2B71624  22.483  38.525   6.635
 5608POPC   C3B71625  22.460  38.350   7.091
 5608POPC   C4B71626  22.458  38.511   7.541
 5609POPC   NC371627  35.045   9.105   5.437
 5609POPC   PO471628  35.628   9.060   5.186
 5609POPC   GL171629  35.508   9.001   5.625
 5609POPC   GL271630  35.602   9.319   5.793
 5609POPC   C1A71631  35.528   8.897   6.074
 5609POPC   D2A71632  35.574   9.087   6.475
 5609POPC   C3A71633  35.312   8.865   6.763
 5609POPC   C4A71634  35.277   8.906   7.186
 5609POPC   C1B71635  35.207   9.292   6.070
 5609POPC   C2B71636  35.110   9.331   6.519
 5609POPC   C3B71637  35.292   9.364   6.923
 5609POPC   C4B71638  35.051   9.358   7.278
 5610POPC   NC371639   5.982  17.804   5.420
 5610POPC   PO471640   6.242  17.227   5.556
 5610POPC   GL171641   5.974  17.434   5.814
 5610POPC   GL271642   5.718  17.701   5.844
 5610POPC   C1A71643   6.076  17.525   6.200
 5610POPC   D2A71644   6.149  17.280   6.538
 5610POPC   C3A71645   5.977  17.456   6.851
 5610POPC   C4A71646   6.181  17.491   7.212
 5610POPC   C1B71647   5.570  17.575   6.236
 5610POPC   C2B71648   5.459  17.625   6.659
 5610POPC   C3B71649   5.527  17.565   7.096
 5610POPC   C4B71650   5.755  17.239   7.278
 5611POPC   NC371651  25.183   1.567   5.671
 5611POPC   PO471652  25.213   2.180   5.611
 5611POPC   GL171653  25.035   2.058   5.938
 5611POPC   GL271654  24.726   1.881   5.867
 5611POPC   C1A71655  25.252   2.014   6.302
 5611POPC   D2A71656  25.295   1.768   6.653
 5611POPC   C3A71657  25.298   2.034   7.003
 5611POPC   C4A71658  25.143   2.005   7.389
 5611POPC   C1B71659  24.831   1.736   6.288
 5611POPC   C2B71660  24.807   1.640   6.732
 5611POPC   C3B71661  25.093   1.559   7.095
 5611POPC   C4B71662  25.080   1.508   7.565
 5612POPC   NC371663  33.247   9.347   5.151
 5612POPC   PO471664  32.712   9.103   5.407
 5612POPC   GL171665  32.948   9.119   5.798
 5612POPC   GL271666  33.313   9.038   5.855
 5612POPC   C1A71667  32.828   9.019   6.202
 5612POPC   D2A71668  32.480   8.966   6.454
 5612POPC   C3A71669  32.642   9.057   6.830
 5612POPC   C4A71670  32.874   9.000   7.174
 5612POPC   C1B71671  33.334   8.916   6.257
 5612POPC   C2B71672  33.141   8.925   6.658
 5612POPC   C3B71673  33.307   8.738   7.014
 5612POPC   C4B71674  33.289   8.866   7.406
 5613POPC   NC371675   3.834  28.204   5.068
 5613POPC   PO471676   3.248  28.444   5.290
 5613POPC   GL171677   3.481  28.436   5.696
 5613POPC   GL271678   3.409  28.128   5.860
 5613POPC   C1A71679   3.699  28.457   6.127
 5613POPC   D2A71680   3.611  28.142   6.465
 5613POPC   C3A71681   3.693  28.300   6.890
 5613POPC   C4A71682   3.610  28.443   7.304
 5613POPC   C1B71683   3.189  28.462   6.131
 5613POPC   C2B71684   3.309  28.566   6.552
 5613POPC   C3B71685   3.197  28.433   6.964
 5613POPC   C4B71686   3.093  28.681   7.303
 5614POPC   NC371687  39.122  37.886   5.451
 5614POPC   PO471688  38.884  37.257   5.195
 5614POPC   GL171689  39.039  37.464   5.737
 5614POPC   GL271690  39.285  37.789   5.900
 5614POPC   C1A71691  39.261  37.369   6.144
 5614POPC   D2A71692  39.166  37.469   6.573
 5614POPC   C3A71693  39.462  37.329   6.876
 5614POPC   C4A71694  39.383  37.380   7.289
 5614POPC   C1B71695  38.981  37.842   6.241
 5614POPC   C2B71696  38.965  37.968   6.662
 5614POPC   C3B71697  39.215  37.831   7.010
 5614POPC   C4B71698  39.397  38.098   7.343
 5615POPC   NC371699  39.669  10.729   5.603
 5615POPC   PO471700  39.430  10.161   5.385
 5615POPC   GL171701  39.274  10.118   5.810
 5615POPC   GL271702  39.262  10.457   5.894
 5615POPC   C1A71703  39.158  10.048   6.268
 5615POPC   D2A71704  39.221  10.346   6.611
 5615POPC   C3A71705  39.103  10.352   7.049
 5615POPC   C4A71706  39.468  10.241   7.277
 5615POPC   C1B71707  39.305  10.816   6.174
 5615POPC   C2B71708  39.034  11.049   6.417
 5615POPC   C3B71709  39.122  10.827   6.788
 5615POPC   C4B71710  39.446  10.734   7.122
 5616POPC   NC371711   9.934  16.229   5.123
 5616POPC   PO471712   9.420  15.866   5.408
 5616POPC   GL171713   9.641  15.750   5.774
 5616POPC   GL271714   9.509  16.057   5.973
 5616POPC   C1A71715   9.881  15.782   6.152
 5616POPC   D2A71716   9.697  16.005   6.484
 5616POPC   C3A71717   9.901  15.913   6.868
 5616POPC   C4A71718   9.640  15.778   7.161
 5616POPC   C1B71719   9.440  16.423   6.266
 5616POPC   C2B71720   9.415  16.381   6.721
 5616POPC   C3B71721   9.617  16.291   7.099
 5616POPC   C4B71722   9.443  16.170   7.502
 5617POPC   NC371723  40.417  12.724   5.499
 5617POPC   PO471724  41.039  13.017   5.326
 5617POPC   GL171725  40.821  12.963   5.713
 5617POPC   GL271726  40.868  12.591   5.742
 5617POPC   C1A71727  40.597  13.108   6.093
 5617POPC   D2A71728  40.401  13.152   6.488
 5617POPC   C3A71729  40.630  13.073   6.861
 5617POPC   C4A71730  40.509  12.826   7.232
 5617POPC   C1B71731  41.132  12.523   6.134
 5617POPC   C2B71732  41.129  12.674   6.555
 5617POPC   C3B71733  41.281  12.480   6.912
 5617POPC   C4B71734  41.443  12.628   7.260
 5618POPC   NC371735  26.180  28.567   5.348
 5618POPC   PO471736  25.706  28.104   5.420
 5618POPC   GL171737  25.818  28.406   5.750
 5618POPC   GL271738  25.949  28.748   5.759
 5618POPC   C1A71739  25.684  28.586   6.137
 5618POPC   D2A71740  25.642  28.683   6.550
 5618POPC   C3A71741  25.912  28.457   6.812
 5618POPC   C4A71742  25.686  28.401   7.178
 5618POPC   C1B71743  26.315  28.776   6.013
 5618POPC   C2B71744  26.486  28.673   6.453
 5618POPC   C3B71745  26.386  28.712   6.891
 5618POPC   C4B71746  26.090  28.704   7.252
 5619POPC   NC371747  32.315   8.843   5.366
 5619POPC   PO471748  32.806   8.400   5.537
 5619POPC   GL171749  32.580   8.712   5.805
 5619POPC   GL271750  32.431   9.061   5.845
 5619POPC   C1A71751  32.217   8.689   6.104
 5619POPC   D2A71752  32.174   8.518   6.525
 5619POPC   C3A71753  32.206   8.801   6.861
 5619POPC   C4A71754  32.367   8.917   7.246
 5619POPC   C1B71755  32.134   9.221   6.171
 5619POPC   C2B71756  32.021   9.226   6.601
 5619POPC   C3B71757  32.217   9.325   6.982
 5619POPC   C4B71758  32.069   9.361   7.391
 5620POPC   NC371759  44.320  20.594   5.472
 5620POPC   PO471760   0.040  20.740   5.375
 5620POPC   GL171761  44.784  20.640   5.686
 5620POPC   GL271762  44.619  20.991   5.661
 5620POPC   C1A71763  44.616  20.385   6.062
 5620POPC   D2A71764  44.453  20.545   6.476
 5620POPC   C3A71765  44.547  20.393   6.911
 5620POPC   C4A71766  44.823  20.489   7.267
 5620POPC   C1B71767  44.708  20.888   6.120
 5620POPC   C2B71768  44.853  20.876   6.549
 5620POPC   C3B71769  44.727  20.907   6.976
 5620POPC   C4B71770   0.038  20.974   7.274
 5621POPC   NC371771  43.390  44.028   5.102
 5621POPC   PO471772  43.974  43.920   5.410
 5621POPC   GL171773  43.990  43.623   5.789
 5621POPC   GL271774  43.737  43.805   5.874
 5621POPC   C1A71775  44.105  43.684   6.203
 5621POPC   D2A71776  43.926  43.793   6.588
 5621POPC   C3A71777  44.131  43.959   6.948
 5621POPC   C4A71778  43.914  43.953   7.319
 5621POPC   C1B71779  43.580  43.640   6.236
 5621POPC   C2B71780  43.624  43.365   6.570
 5621POPC   C3B71781  43.760  43.489   6.990
 5621POPC   C4B71782  43.644  43.535   7.423
 5622POPC   NC371783  38.039  37.844   5.326
 5622POPC   PO471784  37.380  37.463   5.453
 5622POPC   GL171785  37.551  37.639   5.807
 5622POPC   GL271786  37.755  37.339   5.911
 5622POPC   C1A71787  37.591  37.784   6.235
 5622POPC   D2A71788  37.375  37.741   6.637
 5622POPC   C3A71789  37.622  37.854   6.985
 5622POPC   C4A71790  37.876  37.810   7.320
 5622POPC   C1B71791  38.029  37.477   6.244
 5622POPC   C2B71792  37.978  37.563   6.675
 5622POPC   C3B71793  38.124  37.451   7.075
 5622POPC   C4B71794  38.193  37.470   7.550
 5623POPC   NC371795  33.941  36.431   5.589
 5623POPC   PO471796  33.515  35.851   5.461
 5623POPC   GL171797  33.654  35.818   5.857
 5623POPC   GL271798  34.001  35.892   5.823
 5623POPC   C1A71799  33.556  35.746   6.279
 5623POPC   D2A71800  33.683  35.863   6.666
 5623POPC   C3A71801  33.529  35.653   7.008
 5623POPC   C4A71802  33.670  35.859   7.342
 5623POPC   C1B71803  33.939  36.107   6.219
 5623POPC   C2B71804  33.950  36.321   6.612
 5623POPC   C3B71805  33.892  36.185   7.020
 5623POPC   C4B71806  34.139  36.097   7.378
 5624POPC   NC371807  22.661  41.008   5.564
 5624POPC   PO471808  23.292  40.716   5.446
 5624POPC   GL171809  23.039  40.680   5.837
 5624POPC   GL271810  23.209  40.847   6.087
 5624POPC   C1A71811  22.955  40.353   6.200
 5624POPC   D2A71812  23.110  40.536   6.587
 5624POPC   C3A71813  22.804  40.773   6.853
 5624POPC   C4A71814  22.732  40.700   7.293
 5624POPC   C1B71815  22.753  40.808   6.247
 5624POPC   C2B71816  22.476  41.032   6.512
 5624POPC   C3B71817  22.359  41.077   6.937
 5624POPC   C4B71818  22.475  41.124   7.378
 5625POPC   NC371819  34.667  13.736   5.433
 5625POPC   PO471820  34.077  13.585   5.421
 5625POPC   GL171821  34.356  13.697   5.822
 5625POPC   GL271822  34.689  13.507   5.917
 5625POPC   C1A71823  34.457  13.854   6.238
 5625POPC   D2A71824  34.524  13.690   6.635
 5625POPC   C3A71825  34.634  13.801   7.057
 5625POPC   C4A71826  34.449  13.573   7.419
 5625POPC   C1B71827  34.874  13.332   6.321
 5625POPC   C2B71828  34.915  13.384   6.762
 5625POPC   C3B71829  34.926  13.417   7.186
 5625POPC   C4B71830  34.888  13.407   7.625
 5626POPC   NC371831  31.016  17.606   5.364
 5626POPC   PO471832  31.680  17.648   5.460
 5626POPC   GL171833  31.608  17.568   5.885
 5626POPC   GL271834  31.267  17.649   5.876
 5626POPC   C1A71835  31.540  17.630   6.339
 5626POPC   D2A71836  31.307  17.645   6.726
 5626POPC   C3A71837  31.608  17.557   7.051
 5626POPC   C4A71838  31.770  17.227   7.274
 5626POPC   C1B71839  31.043  17.536   6.266
 5626POPC   C2B71840  30.773  17.517   6.619
 5626POPC   C3B71841  30.902  17.426   7.013
 5626POPC   C4B71842  31.145  17.697   7.228
 5627POPC   NC371843   5.497  22.139   5.572
 5627POPC   PO471844   4.902  21.992   5.375
 5627POPC   GL171845   5.052  21.938   5.801
 5627POPC   GL271846   5.345  21.712   5.824
 5627POPC   C1A71847   5.051  22.065   6.246
 5627POPC   D2A71848   4.932  22.169   6.680
 5627POPC   C3A71849   4.889  22.186   7.123
 5627POPC   C4A71850   5.184  22.351   7.412
 5627POPC   C1B71851   5.489  21.788   6.226
 5627POPC   C2B71852   5.350  21.865   6.631
 5627POPC   C3B71853   5.364  21.983   7.050
 5627POPC   C4B71854   5.143  21.846   7.416
 5628POPC   NC371855  22.940  16.229   5.363
 5628POPC   PO471856  22.899  15.570   5.550
 5628POPC   GL171857  22.815  15.954   5.766
 5628POPC   GL271858  23.148  16.160   5.827
 5628POPC   C1A71859  22.719  16.123   6.125
 5628POPC   D2A71860  22.849  15.973   6.498
 5628POPC   C3A71861  22.769  16.122   6.880
 5628POPC   C4A71862  22.886  15.832   7.210
 5628POPC   C1B71863  23.186  15.857   6.123
 5628POPC   C2B71864  23.375  15.744   6.483
 5628POPC   C3B71865  23.224  15.806   6.843
 5628POPC   C4B71866  23.385  15.649   7.207
 5629POPC   NC371867   9.345  22.701   5.344
 5629POPC   PO471868   8.882  22.117   5.263
 5629POPC   GL171869   9.087  22.076   5.679
 5629POPC   GL271870   8.970  21.734   5.766
 5629POPC   C1A71871   8.990  22.346   6.037
 5629POPC   D2A71872   8.834  22.265   6.465
 5629POPC   C3A71873   9.066  22.324   6.857
 5629POPC   C4A71874   8.821  22.457   7.236
 5629POPC   C1B71875   9.010  21.871   6.186
 5629POPC   C2B71876   9.184  21.879   6.583
 5629POPC   C3B71877   9.033  21.813   6.978
 5629POPC   C4B71878   9.121  22.068   7.299
 5630POPC   NC371879  33.672  24.212   5.110
 5630POPC   PO471880  34.036  24.622   5.507
 5630POPC   GL171881  33.894  24.399   5.838
 5630POPC   GL271882  33.626  24.258   5.629
 5630POPC   C1A71883  33.747  24.525   6.289
 5630POPC   D2A71884  33.724  24.827   6.651
 5630POPC   C3A71885  33.789  24.616   7.047
 5630POPC   C4A71886  33.931  24.160   7.033
 5630POPC   C1B71887  33.453  24.199   6.039
 5630POPC   C2B71888  33.587  24.034   6.426
 5630POPC   C3B71889  33.476  24.067   6.827
 5630POPC   C4B71890  33.364  24.336   7.143
 5631POPC   NC371891  42.232  21.894   5.402
 5631POPC   PO471892  42.597  22.454   5.304
 5631POPC   GL171893  42.304  22.300   5.694
 5631POPC   GL271894  42.410  21.977   5.859
 5631POPC   C1A71895  42.122  22.251   6.172
 5631POPC   D2A71896  42.213  22.028   6.589
 5631POPC   C3A71897  42.049  22.192   6.988
 5631POPC   C4A71898  42.276  22.208   7.367
 5631POPC   C1B71899  42.354  21.700   6.205
 5631POPC   C2B71900  42.301  21.535   6.637
 5631POPC   C3B71901  42.396  21.787   7.058
 5631POPC   C4B71902  42.336  21.695   7.560
 5632POPC   NC371903  25.769  16.098   5.387
 5632POPC   PO471904  26.474  16.044   5.409
 5632POPC   GL171905  26.141  15.832   5.663
 5632POPC   GL271906  26.026  16.146   5.817
 5632POPC   C1A71907  26.172  15.750   6.126
 5632POPC   D2A71908  26.350  15.885   6.538
 5632POPC   C3A71909  26.123  15.748   6.912
 5632POPC   C4A71910  26.062  15.739   7.355
 5632POPC   C1B71911  25.954  16.254   6.242
 5632POPC   C2B71912  25.943  16.206   6.673
 5632POPC   C3B71913  25.734  16.249   7.055
 5632POPC   C4B71914  26.060  16.238   7.325
 5633POPC   NC371915  36.176  31.108   5.388
 5633POPC   PO471916  36.112  30.464   5.427
 5633POPC   GL171917  36.370  30.624   5.724
 5633POPC   GL271918  36.408  30.337   5.903
 5633POPC   C1A71919  36.274  30.790   6.143
 5633POPC   D2A71920  36.151  30.748   6.582
 5633POPC   C3A71921  36.393  30.989   6.894
 5633POPC   C4A71922  36.215  31.063   7.311
 5633POPC   C1B71923  36.138  30.286   6.271
 5633POPC   C2B71924  36.184  30.245   6.720
 5633POPC   C3B71925  36.342  30.513   7.049
 5633POPC   C4B71926  36.285  30.611   7.533
 5634POPC   NC371927  41.719  28.891   5.590
 5634POPC   PO471928  41.439  29.347   5.349
 5634POPC   GL171929  41.412  29.246   5.813
 5634POPC   GL271930  41.752  29.236   5.988
 5634POPC   C1A71931  41.264  29.044   6.208
 5634POPC   D2A71932  41.207  29.252   6.597
 5634POPC   C3A71933  41.237  29.053   6.955
 5634POPC   C4A71934  41.506  29.186   7.262
 5634POPC   C1B71935  41.720  29.164   6.443
 5634POPC   C2B71936  41.700  28.828   6.757
 5634POPC   C3B71937  41.788  28.758   7.204
 5634POPC   C4B71938  41.811  29.016   7.627
 5635POPC   NC371939   2.371  27.752   5.320
 5635POPC   PO471940   3.072  27.475   5.411
 5635POPC   GL171941   2.951  27.645   5.766
 5635POPC   GL271942   2.596  27.521   5.770
 5635POPC   C1A71943   2.930  27.477   6.171
 5635POPC   D2A71944   2.773  27.351   6.546
 5635POPC   C3A71945   2.967  27.472   6.968
 5635POPC   C4A71946   2.871  27.654   7.393
 5635POPC   C1B71947   2.492  27.732   6.185
 5635POPC   C2B71948   2.562  27.804   6.649
 5635POPC   C3B71949   2.487  27.776   7.099
 5635POPC   C4B71950   2.468  28.032   7.483
 5636POPC   NC371951  25.418  35.430   5.372
 5636POPC   PO471952  24.862  35.728   5.556
 5636POPC   GL171953  25.094  35.511   5.855
 5636POPC   GL271954  25.441  35.636   5.860
 5636POPC   C1A71955  25.099  35.269   6.247
 5636POPC   D2A71956  25.443  35.345   6.557
 5636POPC   C3A71957  25.304  35.236   6.974
 5636POPC   C4A71958  25.553  35.039   7.261
 5636POPC   C1B71959  25.266  35.754   6.282
 5636POPC   C2B71960  25.164  35.742   6.714
 5636POPC   C3B71961  25.390  35.725   7.117
 5636POPC   C4B71962  25.038  35.543   7.304
 5637POPC   NC371963   4.638  32.613   5.531
 5637POPC   PO471964   4.097  32.177   5.434
 5637POPC   GL171965   4.282  32.116   5.816
 5637POPC   GL271966   4.596  32.251   5.934
 5637POPC   C1A71967   4.210  32.185   6.246
 5637POPC   D2A71968   4.011  32.029   6.579
 5637POPC   C3A71969   4.200  32.166   6.932
 5637POPC   C4A71970   4.064  32.223   7.367
 5637POPC   C1B71971   4.713  32.534   6.209
 5637POPC   C2B71972   4.574  32.415   6.580
 5637POPC   C3B71973   4.598  32.580   6.931
 5637POPC   C4B71974   4.564  32.322   7.248
 5638POPC   NC371975   2.996   5.223   5.497
 5638POPC   PO471976   2.724   4.591   5.473
 5638POPC   GL171977   2.635   4.903   5.813
 5638POPC   GL271978   2.447   5.193   5.678
 5638POPC   C1A71979   2.677   4.894   6.309
 5638POPC   D2A71980   2.632   4.842   6.793
 5638POPC   C3A71981   2.968   4.981   7.078
 5638POPC   C4A71982   3.025   4.967   7.523
 5638POPC   C1B71983   2.295   5.186   6.115
 5638POPC   C2B71984   2.386   5.264   6.561
 5638POPC   C3B71985   2.568   5.326   6.969
 5638POPC   C4B71986   2.529   5.071   7.323
 5639POPC   NC371987   5.568   8.481   5.652
 5639POPC   PO471988   5.604   7.926   5.423
 5639POPC   GL171989   5.860   8.080   5.780
 5639POPC   GL271990   6.143   7.916   5.711
 5639POPC   C1A71991   5.863   8.243   6.215
 5639POPC   D2A71992   5.654   8.144   6.581
 5639POPC   C3A71993   5.783   8.349   6.901
 5639POPC   C4A71994   5.765   8.186   7.314
 5639POPC   C1B71995   6.152   7.812   6.170
 5639POPC   C2B71996   6.154   7.964   6.605
 5639POPC   C3B71997   6.203   7.748   7.010
 5639POPC   C4B71998   6.086   7.830   7.438
 5640POPC   NC371999   1.316   5.841   5.269
 5640POPC   PO472000   1.279   6.181   5.792
 5640POPC   GL172001   1.275   5.777   5.935
 5640POPC   GL272002   0.967   5.729   5.831
 5640POPC   C1A72003   1.348   5.744   6.373
 5640POPC   D2A72004   1.417   6.158   6.618
 5640POPC   C3A72005   1.311   6.125   7.006
 5640POPC   C4A72006   1.410   5.717   7.078
 5640POPC   C1B72007   0.811   5.743   6.216
 5640POPC   C2B72008   0.923   5.955   6.579
 5640POPC   C3B72009   0.908   5.791   6.965
 5640POPC   C4B72010   1.022   5.919   7.373
 5641POPC   NC372011  12.226  10.364   5.221
 5641POPC   PO472012  11.768  10.769   5.433
 5641POPC   GL172013  12.111  10.613   5.692
 5641POPC   GL272014  12.078  10.332   5.849
 5641POPC   C1A72015  12.225  10.715   6.160
 5641POPC   D2A72016  12.395  10.522   6.544
 5641POPC   C3A72017  12.269  10.588   6.970
 5641POPC   C4A72018  12.444  10.233   7.213
 5641POPC   C1B72019  11.974  10.288   6.294
 5641POPC   C2B72020  11.881  10.556   6.643
 5641POPC   C3B72021  11.792  10.412   7.058
 5641POPC   C4B72022  11.509  10.262   7.362
 5642POPC   NC372023   1.183   0.641   5.241
 5642POPC   PO472024   1.688   0.388   5.552
 5642POPC   GL172025   1.239   0.431   5.718
 5642POPC   GL272026   1.141   0.089   5.681
 5642POPC   C1A72027   1.033   0.550   6.128
 5642POPC   D2A72028   1.138   0.709   6.579
 5642POPC   C3A72029   1.444   0.492   6.865
 5642POPC   C4A72030   1.540   0.605   7.293
 5642POPC   C1B72031   1.152   0.046   6.137
 5642POPC   C2B72032   0.875  44.996   6.510
 5642POPC   C3B72033   0.868   0.068   6.953
 5642POPC   C4B72034   1.210   0.204   7.223
 5643POPC   NC372035  20.518  11.893   5.197
 5643POPC   PO472036  20.722  12.430   5.424
 5643POPC   GL172037  20.447  12.326   5.804
 5643POPC   GL272038  20.412  11.945   5.902
 5643POPC   C1A72039  20.535  12.320   6.277
 5643POPC   D2A72040  20.777  12.458   6.674
 5643POPC   C3A72041  20.680  12.378   7.150
 5643POPC   C4A72042  20.982  12.336   7.509
 5643POPC   C1B72043  20.286  11.879   6.353
 5643POPC   C2B72044  20.463  12.053   6.733
 5643POPC   C3B72045  20.668  11.883   7.098
 5643POPC   C4B72046  20.315  12.022   7.319
 5644POPC   NC372047  17.933  13.860   5.581
 5644POPC   PO472048  17.483  13.376   5.457
 5644POPC   GL172049  17.393  13.645   5.834
 5644POPC   GL272050  17.249  13.956   5.724
 5644POPC   C1A72051  17.391  13.699   6.302
 5644POPC   D2A72052  17.665  13.758   6.679
 5644POPC   C3A72053  17.659  13.417   7.017
 5644POPC   C4A72054  17.459  13.418   7.468
 5644POPC   C1B72055  17.159  14.127   6.138
 5644POPC   C2B72056  17.036  13.967   6.566
 5644POPC   C3B72057  17.192  13.693   6.877
 5644POPC   C4B72058  17.474  13.844   7.206
 5645POPC   NC372059   8.420  36.460   5.398
 5645POPC   PO472060   8.139  37.102   5.443
 5645POPC   GL172061   8.397  36.877   5.735
 5645POPC   GL272062   8.203  36.595   5.864
 5645POPC   C1A72063   8.500  36.952   6.158
 5645POPC   D2A72064   8.176  37.044   6.462
 5645POPC   C3A72065   8.350  37.112   6.863
 5645POPC   C4A72066   8.347  36.931   7.276
 5645POPC   C1B72067   8.251  36.498   6.314
 5645POPC   C2B72068   8.329  36.450   6.782
 5645POPC   C3B72069   8.081  36.512   7.160
 5645POPC   C4B72070   8.162  36.567   7.606
 5646POPC   NC372071  27.490   8.092   5.263
 5646POPC   PO472072  28.192   8.014   5.279
 5646POPC   GL172073  27.839   8.010   5.654
 5646POPC   GL272074  27.462   8.147   5.783
 5646POPC   C1A72075  27.863   8.172   6.096
 5646POPC   D2A72076  27.740   8.139   6.519
 5646POPC   C3A72077  27.761   8.271   6.909
 5646POPC   C4A72078  27.551   8.026   7.165
 5646POPC   C1B72079  27.392   8.360   6.200
 5646POPC   C2B72080  27.325   8.405   6.657
 5646POPC   C3B72081  27.285   8.441   7.109
 5646POPC   C4B72082  27.456   8.563   7.511
 5647POPC   NC372083  33.988  17.642   5.380
 5647POPC   PO472084  33.778  16.969   5.286
 5647POPC   GL172085  33.932  17.208   5.642
 5647POPC   GL272086  33.601  17.390   5.656
 5647POPC   C1A72087  33.986  17.495   6.029
 5647POPC   D2A72088  33.977  17.472   6.492
 5647POPC   C3A72089  33.959  17.656   6.906
 5647POPC   C4A72090  33.949  17.501   7.309
 5647POPC   C1B72091  33.456  17.510   6.086
 5647POPC   C2B72092  33.483  17.684   6.518
 5647POPC   C3B72093  33.441  17.761   6.972
 5647POPC   C4B72094  33.435  17.475   7.334
 5648POPC   NC372095  23.380  30.361   5.584
 5648POPC   PO472096  23.790  29.983   5.169
 5648POPC   GL172097  23.640  29.929   5.593
 5648POPC   GL272098  23.824  30.201   5.762
 5648POPC   C1A72099  23.562  29.874   6.065
 5648POPC   D2A72100  23.445  29.791   6.514
 5648POPC   C3A72101  23.603  29.847   6.950
 5648POPC   C4A72102  23.815  29.568   7.233
 5648POPC   C1B72103  23.915  30.240   6.211
 5648POPC   C2B72104  23.988  30.097   6.638
 5648POPC   C3B72105  23.859  30.285   7.017
 5648POPC   C4B72106  23.751  30.162   7.395
 5649POPC   NC372107   8.210  13.215   5.580
 5649POPC   PO472108   7.996  12.638   5.554
 5649POPC   GL172109   8.191  12.553   5.937
 5649POPC   GL272110   8.529  12.731   5.910
 5649POPC   C1A72111   8.078  12.664   6.348
 5649POPC   D2A72112   8.066  12.591   6.791
 5649POPC   C3A72113   7.965  12.884   7.073
 5649POPC   C4A72114   7.995  12.737   7.503
 5649POPC   C1B72115   8.529  12.933   6.309
 5649POPC   C2B72116   8.469  12.932   6.767
 5649POPC   C3B72117   8.448  12.794   7.179
 5649POPC   C4B72118   8.343  13.113   7.466
 5650POPC   NC372119  24.754  35.286   5.546
 5650POPC   PO472120  24.095  35.088   5.507
 5650POPC   GL172121  24.325  35.242   5.848
 5650POPC   GL272122  24.462  35.597   5.856
 5650POPC   C1A72123  24.540  35.246   6.225
 5650POPC   D2A72124  24.459  35.212   6.645
 5650POPC   C3A72125  24.767  35.193   6.963
 5650POPC   C4A72126  24.624  35.238   7.390
 5650POPC   C1B72127  24.742  35.706   6.230
 5650POPC   C2B72128  24.633  35.689   6.681
 5650POPC   C3B72129  24.402  35.563   7.060
 5650POPC   C4B72130  24.583  35.722   7.449
 5651POPC   NC372131  38.989  27.461   5.363
 5651POPC   PO472132  38.295  27.666   5.341
 5651POPC   GL172133  38.573  27.750   5.698
 5651POPC   GL272134  38.672  27.408   5.760
 5651POPC   C1A72135  38.410  27.683   6.148
 5651POPC   D2A72136  38.485  27.826   6.585
 5651POPC   C3A72137  38.173  27.730   6.919
 5651POPC   C4A72138  38.214  27.469   7.280
 5651POPC   C1B72139  38.832  27.386   6.165
 5651POPC   C2B72140  38.636  27.345   6.546
 5651POPC   C3B72141  38.648  27.482   6.976
 5651POPC   C4B72142  38.754  27.186   7.336
 5652POPC   NC372143  35.597  35.932   5.405
 5652POPC   PO472144  34.994  36.135   5.300
 5652POPC   GL172145  35.262  36.268   5.652
 5652POPC   GL272146  35.338  35.993   5.862
 5652POPC   C1A72147  35.392  36.491   6.019
 5652POPC   D2A72148  35.495  36.581   6.439
 5652POPC   C3A72149  35.386  36.308   6.765
 5652POPC   C4A72150  35.425  36.401   7.188
 5652POPC   C1B72151  35.224  36.057   6.307
 5652POPC   C2B72152  35.216  35.787   6.656
 5652POPC   C3B72153  35.246  35.726   7.079
 5652POPC   C4B72154  35.495  35.919   7.355
 5653POPC   NC372155   7.958  15.593   5.344
 5653POPC   PO472156   8.337  15.018   5.419
 5653POPC   GL172157   8.131  15.281   5.709
 5653POPC   GL272158   8.324  15.541   5.790
 5653POPC   C1A72159   7.996  15.342   6.148
 5653POPC   D2A72160   8.118  14.969   6.399
 5653POPC   C3A72161   8.208  14.923   6.848
 5653POPC   C4A72162   7.996  15.006   7.224
 5653POPC   C1B72163   8.488  15.252   6.129
 5653POPC   C2B72164   8.628  15.131   6.539
 5653POPC   C3B72165   8.563  15.298   6.946
 5653POPC   C4B72166   8.379  15.400   7.343
 5654POPC   NC372167  16.982  24.678   5.534
 5654POPC   PO472168  16.547  24.229   5.396
 5654POPC   GL172169  16.477  24.390   5.827
 5654POPC   GL272170  16.667  24.684   5.965
 5654POPC   C1A72171  16.572  24.215   6.252
 5654POPC   D2A72172  16.615  24.095   6.696
 5654POPC   C3A72173  16.770  24.411   6.924
 5654POPC   C4A72174  17.011  24.463   7.295
 5654POPC   C1B72175  16.911  24.785   6.374
 5654POPC   C2B72176  17.069  24.811   6.831
 5654POPC   C3B72177  16.734  24.872   7.156
 5654POPC   C4B72178  16.526  24.560   7.349
 5655POPC   NC372179  40.567  29.499   5.383
 5655POPC   PO472180  40.590  28.848   5.231
 5655POPC   GL172181  40.453  28.933   5.705
 5655POPC   GL272182  40.578  29.263   5.835
 5655POPC   C1A72183  40.615  28.796   6.135
 5655POPC   D2A72184  40.796  28.983   6.498
 5655POPC   C3A72185  40.720  28.940   6.942
 5655POPC   C4A72186  40.913  29.054   7.350
 5655POPC   C1B72187  40.865  29.395   6.196
 5655POPC   C2B72188  40.835  29.599   6.616
 5655POPC   C3B72189  40.785  29.447   7.046
 5655POPC   C4B72190  40.479  29.334   7.371
 5656POPC   NC372191  23.015  28.775   5.407
 5656POPC   PO472192  22.960  28.095   5.457
 5656POPC   GL172193  23.146  28.198   5.845
 5656POPC   GL272194  22.983  28.539   5.901
 5656POPC   C1A72195  23.318  28.323   6.250
 5656POPC   D2A72196  23.209  28.295   6.691
 5656POPC   C3A72197  23.012  28.559   6.953
 5656POPC   C4A72198  22.879  28.368   7.325
 5656POPC   C1B72199  22.886  28.552   6.361
 5656POPC   C2B72200  22.613  28.403   6.690
 5656POPC   C3B72201  22.461  28.512   7.092
 5656POPC   C4B72202  22.375  28.343   7.499
 5657POPC   NC372203  24.942  13.696   5.465
 5657POPC   PO472204  25.479  13.917   5.357
 5657POPC   GL172205  25.434  13.872   5.794
 5657POPC   GL272206  25.162  14.067   5.887
 5657POPC   C1A72207  25.370  13.676   6.224
 5657POPC   D2A72208  25.459  13.799   6.675
 5657POPC   C3A72209  25.171  13.650   7.059
 5657POPC   C4A72210  24.920  13.400   7.350
 5657POPC   C1B72211  25.334  14.163   6.314
 5657POPC   C2B72212  25.177  14.225   6.736
 5657POPC   C3B72213  25.387  14.103   7.094
 5657POPC   C4B72214  25.674  13.706   7.121
 5658POPC   NC372215  41.442  21.667   5.415
 5658POPC   PO472216  42.103  21.441   5.333
 5658POPC   GL172217  41.963  21.567   5.752
 5658POPC   GL272218  41.656  21.406   5.779
 5658POPC   C1A72219  41.861  21.572   6.209
 5658POPC   D2A72220  41.658  21.525   6.592
 5658POPC   C3A72221  41.898  21.706   6.880
 5658POPC   C4A72222  41.946  21.707   7.271
 5658POPC   C1B72223  41.400  21.327   6.155
 5658POPC   C2B72224  41.380  21.111   6.535
 5658POPC   C3B72225  41.460  21.216   6.952
 5658POPC   C4B72226  41.479  21.580   7.165
 5659POPC   NC372227  37.348   4.440   5.504
 5659POPC   PO472228  37.878   4.752   5.280
 5659POPC   GL172229  37.820   4.496   5.741
 5659POPC   GL272230  37.942   4.209   5.913
 5659POPC   C1A72231  37.597   4.472   6.186
 5659POPC   D2A72232  37.605   4.588   6.635
 5659POPC   C3A72233  37.662   4.278   6.944
 5659POPC   C4A72234  37.445   3.956   7.158
 5659POPC   C1B72235  38.092   4.561   6.204
 5659POPC   C2B72236  38.086   4.752   6.657
 5659POPC   C3B72237  37.950   4.759   7.099
 5659POPC   C4B72238  37.980   4.735   7.564
 5660POPC   NC372239  14.346   1.089   5.272
 5660POPC   PO472240  14.543   1.687   5.458
 5660POPC   GL172241  14.492   1.400   5.846
 5660POPC   GL272242  14.342   1.084   5.793
 5660POPC   C1A72243  14.341   1.443   6.275
 5660POPC   D2A72244  14.094   1.499   6.658
 5660POPC   C3A72245  14.297   1.500   7.076
 5660POPC   C4A72246  14.632   1.248   7.231
 5660POPC   C1B72247  14.586   0.972   6.173
 5660POPC   C2B72248  14.716   1.108   6.610
 5660POPC   C3B72249  14.838   0.869   6.981
 5660POPC   C4B72250  14.572   0.630   7.226
 5661POPC   NC372251  26.300  22.918   5.420
 5661POPC   PO472252  26.893  22.665   5.147
 5661POPC   GL172253  26.800  22.850   5.567
 5661POPC   GL272254  26.894  23.222   5.650
 5661POPC   C1A72255  26.791  22.764   6.010
 5661POPC   D2A72256  26.647  22.834   6.444
 5661POPC   C3A72257  26.836  22.857   6.868
 5661POPC   C4A72258  26.551  22.819   7.245
 5661POPC   C1B72259  26.720  23.251   6.087
 5661POPC   C2B72260  26.588  23.368   6.487
 5661POPC   C3B72261  26.838  23.435   6.828
 5661POPC   C4B72262  26.861  23.228   7.220
 5662POPC   NC372263   1.166  38.190   5.499
 5662POPC   PO472264   0.696  38.595   5.531
 5662POPC   GL172265   1.030  38.638   5.861
 5662POPC   GL272266   1.399  38.514   5.834
 5662POPC   C1A72267   1.214  38.669   6.288
 5662POPC   D2A72268   1.491  38.605   6.635
 5662POPC   C3A72269   1.325  38.689   7.053
 5662POPC   C4A72270   1.085  38.575   7.445
 5662POPC   C1B72271   1.670  38.371   6.194
 5662POPC   C2B72272   1.833  38.204   6.582
 5662POPC   C3B72273   1.583  38.194   6.942
 5662POPC   C4B72274   1.437  38.237   7.342
 5663POPC   NC372275  10.857  40.457   5.307
 5663POPC   PO472276  10.391  40.945   5.316
 5663POPC   GL172277  10.366  40.712   5.722
 5663POPC   GL272278  10.631  40.456   5.758
 5663POPC   C1A72279  10.413  40.718   6.186
 5663POPC   D2A72280  10.477  40.970   6.561
 5663POPC   C3A72281  10.730  40.892   6.922
 5663POPC   C4A72282  10.309  40.794   7.114
 5663POPC   C1B72283  10.867  40.479   6.142
 5663POPC   C2B72284  10.712  40.478   6.588
 5663POPC   C3B72285  10.682  40.396   7.050
 5663POPC   C4B72286  10.928  40.598   7.346
 5664POPC   NC372287  34.188  27.608   5.615
 5664POPC   PO472288  34.897  27.733   5.566
 5664POPC   GL172289  34.609  27.696   5.921
 5664POPC   GL272290  34.514  27.331   5.916
 5664POPC   C1A72291  34.501  27.631   6.373
 5664POPC   D2A72292  34.152  27.570   6.670
 5664POPC   C3A72293  34.335  27.736   7.051
 5664POPC   C4A72294  34.806  27.715   7.073
 5664POPC   C1B72295  34.829  27.230   6.223
 5664POPC   C2B72296  34.934  27.358   6.640
 5664POPC   C3B72297  34.575  27.295   6.910
 5664POPC   C4B72298  34.530  27.285   7.359
 5665POPC   NC372299   1.849   9.945   5.605
 5665POPC   PO472300   2.240   9.493   5.440
 5665POPC   GL172301   2.218   9.671   5.840
 5665POPC   GL272302   1.904   9.488   5.897
 5665POPC   C1A72303   2.056   9.879   6.228
 5665POPC   D2A72304   1.811   9.947   6.598
 5665POPC   C3A72305   2.071   9.953   6.955
 5665POPC   C4A72306   2.172   9.754   7.345
 5665POPC   C1B72307   1.697   9.486   6.310
 5665POPC   C2B72308   1.550   9.455   6.738
 5665POPC   C3B72309   1.738   9.580   7.125
 5665POPC   C4B72310   1.605   9.738   7.524
 5666POPC   NC372311  11.985  28.435   5.187
 5666POPC   PO472312  12.377  27.942   5.191
 5666POPC   GL172313  12.316  28.011   5.662
 5666POPC   GL272314  12.307  28.364   5.667
 5666POPC   C1A72315  12.039  28.039   6.056
 5666POPC   D2A72316  11.972  28.271   6.471
 5666POPC   C3A72317  12.097  28.133   6.883
 5666POPC   C4A72318  12.097  28.315   7.281
 5666POPC   C1B72319  12.155  28.563   6.068
 5666POPC   C2B72320  12.085  28.797   6.478
 5666POPC   C3B72321  12.180  28.660   6.903
 5666POPC   C4B72322  12.507  28.644   7.216
 5667POPC   NC372323  34.412  11.523   5.349
 5667POPC   PO472324  34.927  11.101   5.318
 5667POPC   GL172325  34.626  11.223   5.710
 5667POPC   GL272326  34.367  11.512   5.855
 5667POPC   C1A72327  34.620  11.202   6.175
 5667POPC   D2A72328  34.952  11.205   6.487
 5667POPC   C3A72329  34.810  11.322   6.886
 5667POPC   C4A72330  34.907  11.157   7.272
 5667POPC   C1B72331  34.261  11.585   6.298
 5667POPC   C2B72332  34.309  11.411   6.723
 5667POPC   C3B72333  34.394  11.430   7.172
 5667POPC   C4B72334  34.525  11.694   7.549
 5668POPC   NC372335  34.252  16.895   5.352
 5668POPC   PO472336  34.902  16.793   5.315
 5668POPC   GL172337  34.627  16.751   5.720
 5668POPC   GL272338  34.317  16.897   5.879
 5668POPC   C1A72339  34.753  16.778   6.164
 5668POPC   D2A72340  34.709  16.888   6.610
 5668POPC   C3A72341  34.879  16.646   6.975
 5668POPC   C4A72342  34.883  16.778   7.426
 5668POPC   C1B72343  34.271  16.593   6.249
 5668POPC   C2B72344  34.329  16.570   6.740
 5668POPC   C3B72345  34.435  16.900   7.085
 5668POPC   C4B72346  34.134  17.014   7.466
 5669POPC   NC372347  43.196  44.953   5.489
 5669POPC   PO472348  43.190  44.304   5.387
 5669POPC   GL172349  43.240  44.536   5.777
 5669POPC   GL272350  42.894  44.534   5.887
 5669POPC   C1A72351  43.325  44.630   6.222
 5669POPC   D2A72352  43.312  44.409   6.620
 5669POPC   C3A72353  43.200  44.543   7.017
 5669POPC   C4A72354  43.092  44.870   7.268
 5669POPC   C1B72355  42.606  44.451   6.244
 5669POPC   C2B72356  42.750  44.499   6.696
 5669POPC   C3B72357  42.659  44.587   7.131
 5669POPC   C4B72358  42.726  44.680   7.579
 5670POPC   NC372359  16.372  13.735   5.295
 5670POPC   PO472360  15.781  13.444   5.402
 5670POPC   GL172361  16.078  13.567   5.709
 5670POPC   GL272362  15.956  13.308   5.918
 5670POPC   C1A72363  16.230  13.726   6.102
 5670POPC   D2A72364  16.095  13.962   6.462
 5670POPC   C3A72365  16.093  13.693   6.821
 5670POPC   C4A72366  15.820  13.546   7.168
 5670POPC   C1B72367  15.663  13.412   6.274
 5670POPC   C2B72368  15.673  13.331   6.720
 5670POPC   C3B72369  15.402  13.266   7.075
 5670POPC   C4B72370  15.481  13.205   7.524
 5671POPC   NC372371  35.746  23.960   5.207
 5671POPC   PO472372  35.282  23.420   5.380
 5671POPC   GL172373  35.354  23.623   5.766
 5671POPC   GL272374  35.440  23.960   5.645
 5671POPC   C1A72375  35.596  23.598   6.170
 5671POPC   D2A72376  35.508  23.484   6.598
 5671POPC   C3A72377  35.475  23.555   7.047
 5671POPC   C4A72378  35.126  23.802   7.191
 5671POPC   C1B72379  35.347  24.054   6.077
 5671POPC   C2B72380  35.511  24.038   6.498
 5671POPC   C3B72381  35.509  24.060   6.946
 5671POPC   C4B72382  35.562  23.987   7.380
 5672POPC   NC372383  12.347  37.381   5.537
 5672POPC   PO472384  12.075  36.961   5.101
 5672POPC   GL172385  11.972  36.940   5.614
 5672POPC   GL272386  12.299  36.938   5.771
 5672POPC   C1A72387  11.956  36.888   6.126
 5672POPC   D2A72388  12.003  37.105   6.532
 5672POPC   C3A72389  12.038  36.858   6.924
 5672POPC   C4A72390  11.878  36.657   7.285
 5672POPC   C1B72391  12.420  37.146   6.146
 5672POPC   C2B72392  12.459  37.379   6.460
 5672POPC   C3B72393  12.394  37.209   6.848
 5672POPC   C4B72394  12.221  37.256   7.228
 5673POPC   NC372395  20.960   9.533   5.247
 5673POPC   PO472396  20.815  10.245   5.364
 5673POPC   GL172397  20.753   9.888   5.659
 5673POPC   GL272398  20.436   9.667   5.690
 5673POPC   C1A72399  20.700   9.797   6.113
 5673POPC   D2A72400  20.789   9.769   6.560
 5673POPC   C3A72401  20.736   9.796   6.983
 5673POPC   C4A72402  20.881   9.821   7.387
 5673POPC   C1B72403  20.380   9.420   6.119
 5673POPC   C2B72404  20.366   9.487   6.579
 5673POPC   C3B72405  20.385   9.439   7.066
 5673POPC   C4B72406  20.472   9.573   7.517
 5674POPC   NC372407  34.330  14.405   5.269
 5674POPC   PO472408  34.919  14.111   5.323
 5674POPC   GL172409  34.586  14.178   5.672
 5674POPC   GL272410  34.810  14.010   5.885
 5674POPC   C1A72411  34.391  14.343   6.082
 5674POPC   D2A72412  34.512  14.590   6.471
 5674POPC   C3A72413  34.391  14.330   6.857
 5674POPC   C4A72414  34.401  14.177   7.292
 5674POPC   C1B72415  34.906  14.328   6.230
 5674POPC   C2B72416  35.004  14.448   6.680
 5674POPC   C3B72417  34.880  14.304   7.117
 5674POPC   C4B72418  34.778  14.308   7.587
 5675POPC   NC372419  36.500  28.459   5.411
 5675POPC   PO472420  35.795  28.160   5.456
 5675POPC   GL172421  35.980  28.301   5.844
 5675POPC   GL272422  36.171  28.606   5.823
 5675POPC   C1A72423  36.010  28.089   6.268
 5675POPC   D2A72424  36.160  27.913   6.681
 5675POPC   C3A72425  36.058  28.199   7.036
 5675POPC   C4A72426  36.376  28.429   7.250
 5675POPC   C1B72427  36.012  28.693   6.283
 5675POPC   C2B72428  36.089  28.662   6.775
 5675POPC   C3B72429  36.029  28.860   7.204
 5675POPC   C4B72430  35.977  28.904   7.656
 5676POPC   NC372431  11.738  18.460   5.321
 5676POPC   PO472432  11.183  18.055   5.428
 5676POPC   GL172433  11.487  18.175   5.756
 5676POPC   GL272434  11.436  18.532   5.752
 5676POPC   C1A72435  11.423  18.076   6.207
 5676POPC   D2A72436  11.098  18.018   6.530
 5676POPC   C3A72437  11.307  18.089   6.929
 5676POPC   C4A72438  11.634  18.150   7.225
 5676POPC   C1B72439  11.153  18.510   6.102
 5676POPC   C2B72440  11.159  18.538   6.556
 5676POPC   C3B72441  10.869  18.360   6.847
 5676POPC   C4B72442  10.896  18.167   7.246
 5677POPC   NC372443  13.863  22.131   5.434
 5677POPC   PO472444  13.167  21.911   5.563
 5677POPC   GL172445  13.466  22.177   5.775
 5677POPC   GL272446  13.247  22.101   6.043
 5677POPC   C1A72447  13.716  22.335   6.117
 5677POPC   D2A72448  13.532  22.363   6.514
 5677POPC   C3A72449  13.683  22.347   6.939
 5677POPC   C4A72450  13.417  22.413   7.296
 5677POPC   C1B72451  13.489  21.876   6.328
 5677POPC   C2B72452  13.569  21.907   6.728
 5677POPC   C3B72453  13.420  21.945   7.123
 5677POPC   C4B72454  13.299  21.865   7.530
 5678POPC   NC372455  32.563  39.699   5.181
 5678POPC   PO472456  32.319  40.256   5.341
 5678POPC   GL172457  32.155  40.185   5.721
 5678POPC   GL272458  32.220  39.852   5.709
 5678POPC   C1A72459  32.089  40.331   6.121
 5678POPC   D2A72460  32.270  40.295   6.503
 5678POPC   C3A72461  32.098  40.268   6.912
 5678POPC   C4A72462  32.194  40.048   7.276
 5678POPC   C1B72463  32.305  39.857   6.127
 5678POPC   C2B72464  32.389  39.652   6.481
 5678POPC   C3B72465  32.734  39.614   6.702
 5678POPC   C4B72466  32.585  39.763   7.110
 5679POPC   NC372467  22.795  15.165   5.389
 5679POPC   PO472468  23.257  14.654   5.371
 5679POPC   GL172469  23.185  15.025   5.735
 5679POPC   GL272470  22.820  15.146   5.882
 5679POPC   C1A72471  23.204  15.341   6.122
 5679POPC   D2A72472  22.940  15.445   6.494
 5679POPC   C3A72473  23.083  15.326   6.926
 5679POPC   C4A72474  23.136  15.055   7.299
 5679POPC   C1B72475  22.644  15.028   6.281
 5679POPC   C2B72476  22.562  14.839   6.699
 5679POPC   C3B72477  22.630  15.117   7.064
 5679POPC   C4B72478  22.563  15.442   7.379
 5680POPC   NC372479  29.214   9.921   5.420
 5680POPC   PO472480  28.900   9.358   5.313
 5680POPC   GL172481  28.915   9.601   5.727
 5680POPC   GL272482  29.257   9.719   5.903
 5680POPC   C1A72483  28.828   9.716   6.168
 5680POPC   D2A72484  29.177   9.589   6.463
 5680POPC   C3A72485  29.126   9.752   6.878
 5680POPC   C4A72486  28.927  10.004   7.188
 5680POPC   C1B72487  29.218  10.063   6.250
 5680POPC   C2B72488  29.233  10.308   6.656
 5680POPC   C3B72489  29.398  10.154   7.047
 5680POPC   C4B72490  29.552   9.960   7.389
 5681POPC   NC372491  10.968   5.643   5.349
 5681POPC   PO472492  11.620   6.046   5.339
 5681POPC   GL172493  11.308   5.942   5.642
 5681POPC   GL272494  11.471   6.051   5.937
 5681POPC   C1A72495  11.209   5.653   5.988
 5681POPC   D2A72496  11.390   5.687   6.408
 5681POPC   C3A72497  11.085   5.746   6.711
 5681POPC   C4A72498  11.093   5.605   7.121
 5681POPC   C1B72499  11.159   6.129   6.265
 5681POPC   C2B72500  11.165   6.281   6.688
 5681POPC   C3B72501  11.248   6.107   7.077
 5681POPC   C4B72502  11.618   5.960   7.259
 5682POPC   NC372503   6.037  10.791   5.488
 5682POPC   PO472504   5.473  10.314   5.508
 5682POPC   GL172505   5.793  10.443   5.798
 5682POPC   GL272506   5.733  10.786   5.880
 5682POPC   C1A72507   5.977  10.470   6.222
 5682POPC   D2A72508   5.839  10.345   6.636
 5682POPC   C3A72509   6.052  10.486   7.018
 5682POPC   C4A72510   5.801  10.597   7.367
 5682POPC   C1B72511   5.565  10.779   6.269
 5682POPC   C2B72512   5.396  10.606   6.616
 5682POPC   C3B72513   5.545  10.784   6.983
 5682POPC   C4B72514   5.524  11.078   7.334
 5683POPC   NC372515  18.624  10.422   5.415
 5683POPC   PO472516  19.332  10.504   5.435
 5683POPC   GL172517  19.007  10.370   5.778
 5683POPC   GL272518  19.121  10.082   5.975
 5683POPC   C1A72519  18.774  10.534   6.181
 5683POPC   D2A72520  18.620  10.873   6.509
 5683POPC   C3A72521  18.814  10.856   6.925
 5683POPC   C4A72522  19.208  10.686   7.128
 5683POPC   C1B72523  19.048  10.159   6.417
 5683POPC   C2B72524  18.774  10.376   6.708
 5683POPC   C3B72525  18.791  10.367   7.163
 5683POPC   C4B72526  19.183  10.246   7.373
 5684POPC   NC372527  28.093   7.546   5.331
 5684POPC   PO472528  28.757   7.541   5.224
 5684POPC   GL172529  28.587   7.373   5.680
 5684POPC   GL272530  28.228   7.269   5.740
 5684POPC   C1A72531  28.456   7.501   6.159
 5684POPC   D2A72532  28.269   7.375   6.607
 5684POPC   C3A72533  28.384   7.536   7.059
 5684POPC   C4A72534  28.647   7.712   7.453
 5684POPC   C1B72535  28.102   7.133   6.156
 5684POPC   C2B72536  27.950   6.951   6.549
 5684POPC   C3B72537  28.167   7.007   6.952
 5684POPC   C4B72538  28.155   7.028   7.390
 5685POPC   NC372539  33.071  43.393   5.338
 5685POPC   PO472540  33.637  43.084   5.397
 5685POPC   GL172541  33.364  43.257   5.748
 5685POPC   GL272542  33.030  43.051   5.761
 5685POPC   C1A72543  33.161  43.287   6.180
 5685POPC   D2A72544  33.244  43.048   6.584
 5685POPC   C3A72545  33.193  43.230   6.988
 5685POPC   C4A72546  32.938  43.302   7.363
 5685POPC   C1B72547  33.115  42.757   6.183
 5685POPC   C2B72548  33.028  42.585   6.659
 5685POPC   C3B72549  33.025  42.743   7.123
 5685POPC   C4B72550  32.971  42.784   7.583
 5686POPC   NC372551  18.644   0.330   5.480
 5686POPC   PO472552  17.984   0.576   5.483
 5686POPC   GL172553  18.287   0.525   5.822
 5686POPC   GL272554  18.240   0.168   5.882
 5686POPC   C1A72555  18.615   0.519   6.173
 5686POPC   D2A72556  18.548   0.753   6.597
 5686POPC   C3A72557  18.555   0.481   6.964
 5686POPC   C4A72558  18.278   0.125   7.061
 5686POPC   C1B72559  18.139   0.374   6.297
 5686POPC   C2B72560  17.920   0.296   6.707
 5686POPC   C3B72561  17.843   0.580   7.041
 5686POPC   C4B72562  18.166   0.769   7.259
 5687POPC   NC372563  35.687  40.937   5.408
 5687POPC   PO472564  35.066  41.015   5.601
 5687POPC   GL172565  35.388  40.785   5.853
 5687POPC   GL272566  35.668  41.039   5.901
 5687POPC   C1A72567  35.265  40.564   6.259
 5687POPC   D2A72568  34.984  40.832   6.520
 5687POPC   C3A72569  34.978  40.706   6.933
 5687POPC   C4A72570  34.925  40.860   7.333
 5687POPC   C1B72571  35.512  40.991   6.311
 5687POPC   C2B72572  35.453  40.826   6.750
 5687POPC   C3B72573  35.416  40.946   7.192
 5687POPC   C4B72574  35.595  40.703   7.536
 5688POPC   NC372575  31.054  24.147   5.568
 5688POPC   PO472576  30.749  24.762   5.424
 5688POPC   GL172577  30.593  24.830   5.835
 5688POPC   GL272578  30.719  24.496   5.920
 5688POPC   C1A72579  30.505  24.785   6.293
 5688POPC   D2A72580  30.548  24.450   6.626
 5688POPC   C3A72581  30.656  24.632   7.020
 5688POPC   C4A72582  30.487  24.696   7.455
 5688POPC   C1B72583  30.787  24.132   6.214
 5688POPC   C2B72584  30.989  24.129   6.621
 5688POPC   C3B72585  30.813  24.108   7.015
 5688POPC   C4B72586  30.825  24.335   7.386
 5689POPC   NC372587  33.039  34.817   5.357
 5689POPC   PO472588  33.288  34.204   5.476
 5689POPC   GL172589  33.092  34.424   5.785
 5689POPC   GL272590  33.176  34.771   5.840
 5689POPC   C1A72591  33.022  34.447   6.229
 5689POPC   D2A72592  32.934  34.142   6.553
 5689POPC   C3A72593  33.148  34.301   6.909
 5689POPC   C4A72594  33.060  34.376   7.323
 5689POPC   C1B72595  33.114  34.967   6.222
 5689POPC   C2B72596  33.169  34.814   6.671
 5689POPC   C3B72597  32.987  34.822   7.090
 5689POPC   C4B72598  32.946  34.917   7.555
 5690POPC   NC372599   2.332  19.870   5.622
 5690POPC   PO472600   1.635  20.052   5.399
 5690POPC   GL172601   1.846  19.996   5.771
 5690POPC   GL272602   1.768  19.685   5.843
 5690POPC   C1A72603   2.044  20.067   6.198
 5690POPC   D2A72604   2.278  20.205   6.583
 5690POPC   C3A72605   2.151  19.961   6.927
 5690POPC   C4A72606   1.993  20.003   7.325
 5690POPC   C1B72607   1.706  19.700   6.284
 5690POPC   C2B72608   1.828  19.602   6.707
 5690POPC   C3B72609   1.637  19.673   7.086
 5690POPC   C4B72610   1.593  19.530   7.492
 5691POPC   NC372611  37.880  39.421   5.484
 5691POPC   PO472612  37.250  39.713   5.498
 5691POPC   GL172613  37.435  39.393   5.818
 5691POPC   GL272614  37.732  39.548   5.927
 5691POPC   C1A72615  37.649  39.151   6.203
 5691POPC   D2A72616  37.699  39.301   6.624
 5691POPC   C3A72617  37.615  39.174   7.056
 5691POPC   C4A72618  37.900  39.021   7.383
 5691POPC   C1B72619  37.916  39.645   6.278
 5691POPC   C2B72620  38.150  39.550   6.604
 5691POPC   C3B72621  37.929  39.588   7.000
 5691POPC   C4B72622  37.779  39.526   7.433
 5692POPC   NC372623  10.030  15.332   5.320
 5692POPC   PO472624  10.608  14.975   5.252
 5692POPC   GL172625  10.404  15.085   5.641
 5692POPC   GL272626  10.683  15.158   5.821
 5692POPC   C1A72627  10.378  14.953   6.146
 5692POPC   D2A72628  10.343  15.049   6.607
 5692POPC   C3A72629  10.612  15.175   6.968
 5692POPC   C4A72630  10.564  15.091   7.397
 5692POPC   C1B72631  10.839  15.171   6.267
 5692POPC   C2B72632  11.008  15.257   6.680
 5692POPC   C3B72633  11.091  14.994   7.047
 5692POPC   C4B72634  11.007  14.880   7.501
 5693POPC   NC372635  31.576  21.521   5.545
 5693POPC   PO472636  31.117  21.039   5.682
 5693POPC   GL172637  31.280  21.179   6.082
 5693POPC   GL272638  31.519  21.485   6.052
 5693POPC   C1A72639  31.440  21.224   6.507
 5693POPC   D2A72640  31.594  21.612   6.697
 5693POPC   C3A72641  31.709  21.609   7.116
 5693POPC   C4A72642  31.546  21.556   7.516
 5693POPC   C1B72643  31.827  21.172   6.151
 5693POPC   C2B72644  31.941  21.239   6.566
 5693POPC   C3B72645  31.780  21.122   6.967
 5693POPC   C4B72646  31.942  21.238   7.378
 5694POPC   NC372647  14.516   2.701   5.206
 5694POPC   PO472648  14.042   2.998   5.464
 5694POPC   GL172649  14.244   2.660   5.764
 5694POPC   GL272650  13.941   2.583   5.953
 5694POPC   C1A72651  14.371   2.509   6.187
 5694POPC   D2A72652  14.544   2.788   6.496
 5694POPC   C3A72653  14.465   2.681   6.925
 5694POPC   C4A72654  14.088   2.629   7.166
 5694POPC   C1B72655  14.045   2.973   6.185
 5694POPC   C2B72656  14.132   3.085   6.643
 5694POPC   C3B72657  14.041   3.191   7.082
 5694POPC   C4B72658  13.977   3.150   7.529
 5695POPC   NC372659  33.323  27.236   5.492
 5695POPC   PO472660  33.024  27.867   5.389
 5695POPC   GL172661  33.084  27.606   5.786
 5695POPC   GL272662  32.830  27.369   5.874
 5695POPC   C1A72663  33.212  27.459   6.222
 5695POPC   D2A72664  33.144  27.269   6.647
 5695POPC   C3A72665  32.881  27.436   6.996
 5695POPC   C4A72666  33.005  27.446   7.473
 5695POPC   C1B72667  32.589  27.249   6.212
 5695POPC   C2B72668  32.531  27.439   6.570
 5695POPC   C3B72669  32.402  27.268   6.941
 5695POPC   C4B72670  32.558  27.162   7.322
 5696POPC   NC372671  36.592  25.406   5.468
 5696POPC   PO472672  37.234  25.391   5.282
 5696POPC   GL172673  37.160  25.362   5.752
 5696POPC   GL272674  36.864  25.449   5.929
 5696POPC   C1A72675  37.255  25.203   6.187
 5696POPC   D2A72676  37.037  25.250   6.585
 5696POPC   C3A72677  37.113  25.094   6.979
 5696POPC   C4A72678  37.031  25.085   7.397
 5696POPC   C1B72679  36.758  25.058   6.155
 5696POPC   C2B72680  36.748  24.813   6.533
 5696POPC   C3B72681  36.623  25.000   6.906
 5696POPC   C4B72682  36.453  25.067   7.293
 5697POPC   NC372683  19.332  24.073   5.178
 5697POPC   PO472684  19.402  23.402   5.219
 5697POPC   GL172685  19.680  23.529   5.674
 5697POPC   GL272686  19.708  23.217   5.859
 5697POPC   C1A72687  19.904  23.651   6.165
 5697POPC   D2A72688  20.123  23.744   6.644
 5697POPC   C3A72689  19.908  24.031   6.992
 5697POPC   C4A72690  19.571  24.227   7.281
 5697POPC   C1B72691  19.543  23.318   6.285
 5697POPC   C2B72692  19.654  23.514   6.685
 5697POPC   C3B72693  19.757  23.556   7.127
 5697POPC   C4B72694  19.909  23.491   7.568
 5698POPC   NC372695  10.342  38.858   5.501
 5698POPC   PO472696  10.795  39.246   5.062
 5698POPC   GL172697  10.653  39.285   5.539
 5698POPC   GL272698  10.946  39.160   5.734
 5698POPC   C1A72699  10.586  39.387   6.038
 5698POPC   D2A72700  10.263  39.354   6.429
 5698POPC   C3A72701  10.411  39.279   6.878
 5698POPC   C4A72702  10.780  39.355   7.157
 5698POPC   C1B72703  10.758  38.897   6.101
 5698POPC   C2B72704  10.649  39.005   6.484
 5698POPC   C3B72705  10.760  38.882   6.863
 5698POPC   C4B72706  10.553  38.858   7.176
 5699POPC   NC372707  21.671  30.472   5.208
 5699POPC   PO472708  21.275  29.962   5.476
 5699POPC   GL172709  21.327  29.887   5.897
 5699POPC   GL272710  21.655  29.864   6.031
 5699POPC   C1A72711  21.246  30.109   6.270
 5699POPC   D2A72712  21.356  30.200   6.667
 5699POPC   C3A72713  21.213  30.079   7.042
 5699POPC   C4A72714  21.288  29.793   7.387
 5699POPC   C1B72715  21.703  29.916   6.454
 5699POPC   C2B72716  21.613  29.762   6.878
 5699POPC   C3B72717  21.779  29.657   7.292
 5699POPC   C4B72718  21.611  29.585   7.729
 5700POPC   NC372719  19.239  34.610   5.367
 5700POPC   PO472720  18.697  34.190   5.485
 5700POPC   GL172721  18.927  34.519   5.784
 5700POPC   GL272722  19.196  34.806   5.830
 5700POPC   C1A72723  18.902  34.596   6.222
 5700POPC   D2A72724  18.848  34.373   6.599
 5700POPC   C3A72725  18.954  34.546   6.985
 5700POPC   C4A72726  18.730  34.748   7.295
 5700POPC   C1B72727  19.472  34.804   6.173
 5700POPC   C2B72728  19.506  34.624   6.583
 5700POPC   C3B72729  19.544  34.847   6.973
 5700POPC   C4B72730  19.204  34.934   7.229
 5701POPC   NC372731  22.442  23.830   5.042
 5701POPC   PO472732  22.006  23.468   5.474
 5701POPC   GL172733  22.198  23.586   5.855
 5701POPC   GL272734  22.343  23.900   5.811
 5701POPC   C1A72735  22.119  23.732   6.282
 5701POPC   D2A72736  21.846  23.892   6.607
 5701POPC   C3A72737  21.907  23.684   6.999
 5701POPC   C4A72738  22.292  23.732   7.208
 5701POPC   C1B72739  22.521  24.047   6.179
 5701POPC   C2B72740  22.631  23.868   6.586
 5701POPC   C3B72741  22.610  24.052   6.993
 5701POPC   C4B72742  22.475  24.446   7.150
 5702POPC   NC372743  17.554  11.448   5.379
 5702POPC   PO472744  17.493  10.813   5.594
 5702POPC   GL172745  17.414  11.204   5.804
 5702POPC   GL272746  17.685  11.431   5.858
 5702POPC   C1A72747  17.371  11.210   6.240
 5702POPC   D2A72748  17.480  10.914   6.582
 5702POPC   C3A72749  17.299  11.019   6.991
 5702POPC   C4A72750  17.364  11.296   7.340
 5702POPC   C1B72751  17.822  11.483   6.239
 5702POPC   C2B72752  17.636  11.413   6.622
 5702POPC   C3B72753  17.790  11.208   6.951
 5702POPC   C4B72754  17.788  11.560   7.190
 5703POPC   NC372755  11.506  36.260   5.373
 5703POPC   PO472756  11.149  35.683   5.373
 5703POPC   GL172757  11.268  35.911   5.757
 5703POPC   GL272758  11.632  35.935   5.791
 5703POPC   C1A72759  11.377  36.149   6.160
 5703POPC   D2A72760  11.541  36.158   6.596
 5703POPC   C3A72761  11.247  36.302   6.949
 5703POPC   C4A72762  11.385  36.273   7.399
 5703POPC   C1B72763  11.521  35.659   6.174
 5703POPC   C2B72764  11.401  35.673   6.633
 5703POPC   C3B72765  11.447  35.857   7.078
 5703POPC   C4B72766  11.610  35.826   7.531
 5704POPC   NC372767  25.937  30.054   5.394
 5704POPC   PO472768  26.531  29.684   5.301
 5704POPC   GL172769  26.280  29.741   5.714
 5704POPC   GL272770  25.910  29.706   5.779
 5704POPC   C1A72771  26.233  29.771   6.196
 5704POPC   D2A72772  26.094  29.862   6.632
 5704POPC   C3A72773  26.022  29.566   6.957
 5704POPC   C4A72774  26.376  29.659   7.168
 5704POPC   C1B72775  25.863  30.087   6.073
 5704POPC   C2B72776  25.775  30.262   6.502
 5704POPC   C3B72777  25.705  30.062   6.900
 5704POPC   C4B72778  26.009  30.023   7.204
 5705POPC   NC372779  17.846  10.563   5.425
 5705POPC   PO472780  18.481  10.865   5.447
 5705POPC   GL172781  18.276  10.561   5.764
 5705POPC   GL272782  18.473  10.215   5.847
 5705POPC   C1A72783  18.258  10.645   6.207
 5705POPC   D2A72784  18.045  10.670   6.590
 5705POPC   C3A72785  18.354  10.613   6.910
 5705POPC   C4A72786  18.091  10.711   7.188
 5705POPC   C1B72787  18.179  10.153   6.153
 5705POPC   C2B72788  18.274  10.219   6.586
 5705POPC   C3B72789  18.032  10.219   6.970
 5705POPC   C4B72790  17.963  10.054   7.375
 5706POPC   NC372791  17.545   3.308   4.612
 5706POPC   PO472792  17.539   3.407   5.290
 5706POPC   GL172793  17.544   3.470   5.748
 5706POPC   GL272794  17.805   3.754   5.823
 5706POPC   C1A72795  17.482   3.352   6.201
 5706POPC   D2A72796  17.732   3.363   6.595
 5706POPC   C3A72797  17.514   3.296   6.962
 5706POPC   C4A72798  17.187   3.434   7.234
 5706POPC   C1B72799  17.602   3.929   6.187
 5706POPC   C2B72800  17.601   4.072   6.619
 5706POPC   C3B72801  17.478   3.818   6.971
 5706POPC   C4B72802  17.710   3.619   7.293
 5707POPC   NC372803  41.256   9.504   5.500
 5707POPC   PO472804  41.559   9.998   5.186
 5707POPC   GL172805  41.562  10.045   5.655
 5707POPC   GL272806  41.590   9.721   5.805
 5707POPC   C1A72807  41.592  10.113   6.141
 5707POPC   D2A72808  41.506  10.231   6.600
 5707POPC   C3A72809  41.632   9.989   6.980
 5707POPC   C4A72810  41.444   9.830   7.395
 5707POPC   C1B72811  41.287   9.670   6.148
 5707POPC   C2B72812  41.226   9.784   6.574
 5707POPC   C3B72813  41.345   9.570   6.949
 5707POPC   C4B72814  41.154   9.380   7.300
 5708POPC   NC372815  36.812  33.935   5.285
 5708POPC   PO472816  37.040  33.390   5.467
 5708POPC   GL172817  36.818  33.707   5.748
 5708POPC   GL272818  36.949  34.087   5.745
 5708POPC   C1A72819  37.007  33.794   6.157
 5708POPC   D2A72820  36.916  33.582   6.520
 5708POPC   C3A72821  37.109  33.742   6.855
 5708POPC   C4A72822  36.980  33.842   7.247
 5708POPC   C1B72823  36.778  34.248   6.129
 5708POPC   C2B72824  36.779  34.076   6.529
 5708POPC   C3B72825  36.841  34.204   6.926
 5708POPC   C4B72826  36.523  34.234   7.240
 5709POPC   NC372827   0.491  29.387   5.669
 5709POPC   PO472828   0.401  30.011   5.412
 5709POPC   GL172829   0.395  29.997   5.822
 5709POPC   GL272830   0.040  30.003   5.810
 5709POPC   C1A72831   0.522  29.817   6.203
 5709POPC   D2A72832   0.430  29.670   6.597
 5709POPC   C3A72833   0.689  29.896   6.890
 5709POPC   C4A72834   0.497  29.885   7.266
 5709POPC   C1B72835   0.083  30.145   6.220
 5709POPC   C2B72836   0.285  30.184   6.609
 5709POPC   C3B72837   0.039  30.186   6.972
 5709POPC   C4B72838   0.061  30.087   7.414
 5710POPC   NC372839   9.477  39.192   5.254
 5710POPC   PO472840  10.032  39.171   5.679
 5710POPC   GL172841   9.657  39.263   5.841
 5710POPC   GL272842   9.495  38.934   5.774
 5710POPC   C1A72843   9.685  39.358   6.279
 5710POPC   D2A72844   9.830  39.129   6.636
 5710POPC   C3A72845   9.899  39.412   6.929
 5710POPC   C4A72846   9.817  39.420   7.329
 5710POPC   C1B72847   9.335  39.015   6.201
 5710POPC   C2B72848   9.365  38.910   6.654
 5710POPC   C3B72849   9.533  39.051   7.066
 5710POPC   C4B72850   9.616  38.804   7.421
 5711POPC   NC372851  34.388  33.439   5.419
 5711POPC   PO472852  34.725  32.910   5.286
 5711POPC   GL172853  34.600  33.021   5.705
 5711POPC   GL272854  34.358  32.735   5.773
 5711POPC   C1A72855  34.584  33.260   6.113
 5711POPC   D2A72856  34.764  33.108   6.497
 5711POPC   C3A72857  34.642  33.237   6.894
 5711POPC   C4A72858  34.592  33.265   7.325
 5711POPC   C1B72859  34.631  32.730   6.177
 5711POPC   C2B72860  34.745  32.610   6.622
 5711POPC   C3B72861  34.668  32.742   7.061
 5711POPC   C4B72862  34.511  32.759   7.486
 5712POPC   NC372863  33.376  31.344   5.327
 5712POPC   PO472864  33.997  31.618   5.282
 5712POPC   GL172865  33.743  31.576   5.642
 5712POPC   GL272866  33.639  31.225   5.749
 5712POPC   C1A72867  33.896  31.567   6.061
 5712POPC   D2A72868  33.975  31.409   6.475
 5712POPC   C3A72869  33.741  31.578   6.786
 5712POPC   C4A72870  33.750  31.575   7.199
 5712POPC   C1B72871  33.674  31.103   6.178
 5712POPC   C2B72872  33.613  31.097   6.630
 5712POPC   C3B72873  33.762  31.094   7.043
 5712POPC   C4B72874  33.702  31.153   7.490
 5713POPC   NC372875  31.786   6.570   5.511
 5713POPC   PO472876  32.232   6.922   5.293
 5713POPC   GL172877  32.076   6.985   5.689
 5713POPC   GL272878  32.360   7.199   5.796
 5713POPC   C1A72879  31.982   6.741   6.091
 5713POPC   D2A72880  32.182   6.531   6.420
 5713POPC   C3A72881  32.084   6.613   6.850
 5713POPC   C4A72882  32.193   6.354   7.208
 5713POPC   C1B72883  32.466   6.880   6.061
 5713POPC   C2B72884  32.532   6.881   6.483
 5713POPC   C3B72885  32.570   6.882   6.910
 5713POPC   C4B72886  32.315   6.833   7.252
 5714POPC   NC372887  21.021   4.917   5.749
 5714POPC   PO472888  20.494   4.841   5.337
 5714POPC   GL172889  20.508   4.937   5.810
 5714POPC   GL272890  20.677   5.284   5.872
 5714POPC   C1A72891  20.339   5.144   6.226
 5714POPC   D2A72892  20.462   5.423   6.599
 5714POPC   C3A72893  20.782   5.253   6.911
 5714POPC   C4A72894  20.672   5.133   7.346
 5714POPC   C1B72895  20.856   5.161   6.313
 5714POPC   C2B72896  21.087   4.761   6.434
 5714POPC   C3B72897  21.102   4.608   6.852
 5714POPC   C4B72898  21.067   4.841   7.241
 5715POPC   NC372899  21.380  40.332   5.171
 5715POPC   PO472900  21.343  40.967   5.476
 5715POPC   GL172901  21.155  40.779   5.788
 5715POPC   GL272902  21.054  40.471   5.590
 5715POPC   C1A72903  21.170  41.016   6.168
 5715POPC   D2A72904  21.380  41.073   6.575
 5715POPC   C3A72905  21.159  41.008   6.943
 5715POPC   C4A72906  21.444  40.940   7.270
 5715POPC   C1B72907  21.125  40.352   6.028
 5715POPC   C2B72908  21.298  40.559   6.406
 5715POPC   C3B72909  21.412  40.576   6.850
 5715POPC   C4B72910  21.105  40.520   7.158
 5716POPC   NC372911   5.344   7.679   5.097
 5716POPC   PO472912   5.744   7.236   5.379
 5716POPC   GL172913   5.671   7.231   5.770
 5716POPC   GL272914   5.708   7.582   5.786
 5716POPC   C1A72915   5.735   7.292   6.214
 5716POPC   D2A72916   6.027   7.202   6.555
 5716POPC   C3A72917   5.889   7.298   6.966
 5716POPC   C4A72918   5.565   7.115   7.195
 5716POPC   C1B72919   5.614   7.788   6.173
 5716POPC   C2B72920   5.743   7.651   6.596
 5716POPC   C3B72921   5.685   7.774   7.024
 5716POPC   C4B72922   5.669   7.553   7.429
 5717POPC   NC372923  13.974  19.356   5.280
 5717POPC   PO472924  13.453  18.963   5.445
 5717POPC   GL172925  13.557  19.187   5.800
 5717POPC   GL272926  13.888  19.177   5.744
 5717POPC   C1A72927  13.535  19.236   6.257
 5717POPC   D2A72928  13.505  19.307   6.683
 5717POPC   C3A72929  13.560  18.892   6.852
 5717POPC   C4A72930  13.528  19.044   7.251
 5717POPC   C1B72931  13.953  18.998   6.135
 5717POPC   C2B72932  13.955  19.132   6.548
 5717POPC   C3B72933  13.945  19.241   6.958
 5717POPC   C4B72934  14.023  19.174   7.378
 5718POPC   NC372935  14.325  26.183   5.350
 5718POPC   PO472936  14.198  25.504   5.504
 5718POPC   GL172937  14.498  25.661   5.820
 5718POPC   GL272938  14.617  26.039   5.751
 5718POPC   C1A72939  14.394  25.700   6.282
 5718POPC   D2A72940  14.094  25.972   6.528
 5718POPC   C3A72941  14.215  26.096   6.943
 5718POPC   C4A72942  14.441  25.807   7.215
 5718POPC   C1B72943  14.682  26.292   6.131
 5718POPC   C2B72944  14.586  26.130   6.526
 5718POPC   C3B72945  14.746  26.045   6.895
 5718POPC   C4B72946  14.626  26.290   7.218
 5719POPC   NC372947  13.724  27.841   5.333
 5719POPC   PO472948  13.554  27.185   5.368
 5719POPC   GL172949  13.483  27.516   5.710
 5719POPC   GL272950  13.797  27.484   5.867
 5719POPC   C1A72951  13.453  27.593   6.205
 5719POPC   D2A72952  13.778  27.726   6.544
 5719POPC   C3A72953  13.628  27.858   6.970
 5719POPC   C4A72954  13.600  27.626   7.387
 5719POPC   C1B72955  14.026  27.375   6.222
 5719POPC   C2B72956  13.950  27.234   6.627
 5719POPC   C3B72957  13.680  27.322   6.956
 5719POPC   C4B72958  13.956  27.205   7.277
 5720POPC   NC372959  34.548  15.401   5.220
 5720POPC   PO472960  34.239  14.845   5.309
 5720POPC   GL172961  34.531  15.077   5.628
 5720POPC   GL272962  34.775  15.375   5.674
 5720POPC   C1A72963  34.542  15.035   6.093
 5720POPC   D2A72964  34.659  15.175   6.514
 5720POPC   C3A72965  34.755  14.878   6.846
 5720POPC   C4A72966  34.518  14.727   7.162
 5720POPC   C1B72967  34.590  15.557   6.043
 5720POPC   C2B72968  34.516  15.665   6.463
 5720POPC   C3B72969  34.323  15.483   6.816
 5720POPC   C4B72970  34.475  15.658   7.167
 5721POPC   NC372971   4.017  33.553   5.475
 5721POPC   PO472972   4.641  33.826   5.348
 5721POPC   GL172973   4.483  33.733   5.781
 5721POPC   GL272974   4.142  33.894   5.860
 5721POPC   C1A72975   4.452  33.724   6.250
 5721POPC   D2A72976   4.116  33.888   6.528
 5721POPC   C3A72977   4.231  34.038   6.949
 5721POPC   C4A72978   4.517  33.818   7.234
 5721POPC   C1B72979   3.986  33.549   6.129
 5721POPC   C2B72980   4.145  33.359   6.483
 5721POPC   C3B72981   4.191  33.522   6.888
 5721POPC   C4B72982   3.992  33.271   7.205
 5722POPC   NC372983  17.055   0.576   5.479
 5722POPC   PO472984  16.404   0.653   5.421
 5722POPC   GL172985  16.609   0.570   5.791
 5722POPC   GL272986  16.768   0.247   5.770
 5722POPC   C1A72987  16.757   0.551   6.216
 5722POPC   D2A72988  16.992   0.673   6.565
 5722POPC   C3A72989  16.743   0.740   6.903
 5722POPC   C4A72990  16.684   0.613   7.306
 5722POPC   C1B72991  16.922   0.057   6.164
 5722POPC   C2B72992  16.931   0.133   6.622
 5722POPC   C3B72993  16.774  44.875   6.999
 5722POPC   C4B72994  16.992  44.929   7.438
 5723POPC   NC372995  27.114   8.655   5.542
 5723POPC   PO472996  26.769   8.144   5.240
 5723POPC   GL172997  26.884   8.123   5.657
 5723POPC   GL272998  26.981   7.767   5.724
 5723POPC   C1A72999  26.618   8.181   6.038
 5723POPC   D2A73000  26.641   8.264   6.499
 5723POPC   C3A73001  26.608   8.164   6.960
 5723POPC   C4A73002  26.784   8.489   7.264
 5723POPC   C1B73003  27.071   7.968   6.097
 5723POPC   C2B73004  27.064   7.978   6.513
 5723POPC   C3B73005  26.964   7.780   6.890
 5723POPC   C4B73006  27.020   8.018   7.242
 5724POPC   NC373007  12.372  12.915   5.476
 5724POPC   PO473008  13.071  12.677   5.432
 5724POPC   GL173009  13.055  12.874   5.831
 5724POPC   GL273010  12.763  13.027   5.790
 5724POPC   C1A73011  12.859  12.813   6.258
 5724POPC   D2A73012  12.442  12.822   6.506
 5724POPC   C3A73013  12.578  12.808   6.938
 5724POPC   C4A73014  13.018  12.868   7.043
 5724POPC   C1B73015  12.585  13.239   6.157
 5724POPC   C2B73016  12.712  13.268   6.592
 5724POPC   C3B73017  12.547  13.315   6.993
 5724POPC   C4B73018  12.724  13.232   7.356
 5725POPC   NC373019  30.658  10.905   5.188
 5725POPC   PO473020  30.484  11.478   5.339
 5725POPC   GL173021  30.616  11.207   5.626
 5725POPC   GL273022  30.293  11.051   5.595
 5725POPC   C1A73023  30.723  11.280   6.047
 5725POPC   D2A73024  30.778  11.554   6.415
 5725POPC   C3A73025  30.715  11.336   6.794
 5725POPC   C4A73026  30.942  11.469   7.147
 5725POPC   C1B73027  30.289  11.007   6.045
 5725POPC   C2B73028  30.535  10.969   6.437
 5725POPC   C3B73029  30.552  10.837   6.871
 5725POPC   C4B73030  30.674  11.061   7.253
 5726POPC   NC373031  34.327  39.083   5.369
 5726POPC   PO473032  34.873  39.461   5.431
 5726POPC   GL173033  34.655  39.192   5.790
 5726POPC   GL273034  34.307  39.255   5.842
 5726POPC   C1A73035  34.579  38.981   6.204
 5726POPC   D2A73036  34.747  39.026   6.598
 5726POPC   C3A73037  34.582  38.972   7.012
 5726POPC   C4A73038  34.634  39.241   7.362
 5726POPC   C1B73039  34.141  39.217   6.242
 5726POPC   C2B73040  34.284  39.226   6.631
 5726POPC   C3B73041  34.297  39.428   7.025
 5726POPC   C4B73042  34.461  39.799   7.190
 5727POPC   NC373043  38.508  12.686   5.260
 5727POPC   PO473044  38.087  13.210   5.361
 5727POPC   GL173045  38.270  12.892   5.685
 5727POPC   GL273046  38.646  12.789   5.744
 5727POPC   C1A73047  38.283  12.690   6.111
 5727POPC   D2A73048  38.395  12.880   6.521
 5727POPC   C3A73049  38.319  12.817   6.967
 5727POPC   C4A73050  38.506  12.896   7.379
 5727POPC   C1B73051  38.776  12.546   6.130
 5727POPC   C2B73052  38.636  12.403   6.555
 5727POPC   C3B73053  38.745  12.475   6.996
 5727POPC   C4B73054  38.771  12.477   7.480
 5728POPC   NC373055  29.045   7.259   5.441
 5728POPC   PO473056  29.153   7.899   5.534
 5728POPC   GL173057  29.364   7.545   5.769
 5728POPC   GL273058  29.042   7.495   5.903
 5728POPC   C1A73059  29.425   7.396   6.234
 5728POPC   D2A73060  29.198   7.514   6.647
 5728POPC   C3A73061  29.269   7.397   7.074
 5728POPC   C4A73062  29.510   7.545   7.426
 5728POPC   C1B73063  28.902   7.333   6.297
 5728POPC   C2B73064  28.753   7.252   6.721
 5728POPC   C3B73065  28.794   7.234   7.153
 5728POPC   C4B73066  29.025   7.401   7.524
 5729POPC   NC373067  33.826  14.950   5.513
 5729POPC   PO473068  34.184  15.487   5.526
 5729POPC   GL173069  34.097  15.249   5.862
 5729POPC   GL273070  33.742  15.283   5.891
 5729POPC   C1A73071  34.138  15.326   6.291
 5729POPC   D2A73072  34.025  15.083   6.631
 5729POPC   C3A73073  33.844  15.226   7.004
 5729POPC   C4A73074  34.201  15.212   7.273
 5729POPC   C1B73075  33.641  15.084   6.281
 5729POPC   C2B73076  33.569  14.801   6.629
 5729POPC   C3B73077  33.463  14.717   7.050
 5729POPC   C4B73078  33.690  14.903   7.389
 5730POPC   NC373079  32.937  22.626   5.441
 5730POPC   PO473080  32.907  23.260   5.458
 5730POPC   GL173081  33.178  23.177   5.796
 5730POPC   GL273082  33.275  22.826   5.786
 5730POPC   C1A73083  33.009  23.037   6.174
 5730POPC   D2A73084  32.926  22.802   6.548
 5730POPC   C3A73085  33.027  22.977   6.964
 5730POPC   C4A73086  32.790  22.729   7.241
 5730POPC   C1B73087  33.372  22.676   6.251
 5730POPC   C2B73088  33.394  22.729   6.731
 5730POPC   C3B73089  33.291  22.584   7.160
 5730POPC   C4B73090  33.463  22.638   7.574
 5731POPC   NC373091  43.832  27.703   5.253
 5731POPC   PO473092  43.905  27.109   5.401
 5731POPC   GL173093  43.833  27.525   5.717
 5731POPC   GL273094  44.098  27.809   5.693
 5731POPC   C1A73095  43.669  27.799   6.065
 5731POPC   D2A73096  43.475  27.699   6.468
 5731POPC   C3A73097  43.430  27.907   6.845
 5731POPC   C4A73098  43.645  27.676   7.159
 5731POPC   C1B73099  44.191  27.767   6.130
 5731POPC   C2B73100  44.395  27.708   6.532
 5731POPC   C3B73101  44.198  27.723   6.934
 5731POPC   C4B73102  44.085  27.433   7.220
 5732POPC   NC373103  42.795   9.393   5.420
 5732POPC   PO473104  43.401   9.713   5.424
 5732POPC   GL173105  43.157   9.616   5.763
 5732POPC   GL273106  42.882   9.835   5.732
 5732POPC   C1A73107  42.965   9.567   6.177
 5732POPC   D2A73108  43.100   9.473   6.605
 5732POPC   C3A73109  43.133   9.749   6.955
 5732POPC   C4A73110  42.898   9.684   7.343
 5732POPC   C1B73111  42.927  10.074   6.136
 5732POPC   C2B73112  42.877  10.034   6.606
 5732POPC   C3B73113  42.769  10.103   7.060
 5732POPC   C4B73114  42.565  10.052   7.485
 5733POPC   NC373115  24.674  16.161   5.464
 5733POPC   PO473116  24.043  15.932   5.412
 5733POPC   GL173117  24.338  15.905   5.755
 5733POPC   GL273118  24.205  16.210   5.828
 5733POPC   C1A73119  24.562  16.067   6.167
 5733POPC   D2A73120  24.862  16.261   6.487
 5733POPC   C3A73121  24.736  16.242   6.930
 5733POPC   C4A73122  24.567  15.892   7.139
 5733POPC   C1B73123  24.100  16.336   6.223
 5733POPC   C2B73124  24.294  16.192   6.603
 5733POPC   C3B73125  24.144  16.234   6.996
 5733POPC   C4B73126  24.130  16.056   7.361
 5734POPC   NC373127  25.143  33.654   5.590
 5734POPC   PO473128  25.337  34.284   5.449
 5734POPC   GL173129  25.444  34.022   5.822
 5734POPC   GL273130  25.615  33.680   5.844
 5734POPC   C1A73131  25.261  33.959   6.227
 5734POPC   D2A73132  25.443  33.876   6.625
 5734POPC   C3A73133  25.140  33.775   6.913
 5734POPC   C4A73134  25.075  33.391   7.122
 5734POPC   C1B73135  25.514  33.476   6.244
 5734POPC   C2B73136  25.389  33.350   6.675
 5734POPC   C3B73137  25.576  33.570   7.030
 5734POPC   C4B73138  25.520  34.046   7.122
 5735POPC   NC373139  32.507   2.348   5.002
 5735POPC   PO473140  32.056   2.782   5.426
 5735POPC   GL173141  32.195   2.891   5.831
 5735POPC   GL273142  31.996   2.657   6.022
 5735POPC   C1A73143  32.390   3.039   6.217
 5735POPC   D2A73144  32.257   2.805   6.541
 5735POPC   C3A73145  32.533   2.751   6.872
 5735POPC   C4A73146  32.607   2.804   7.297
 5735POPC   C1B73147  32.036   2.337   6.358
 5735POPC   C2B73148  32.147   2.390   6.803
 5735POPC   C3B73149  32.103   2.678   7.145
 5735POPC   C4B73150  31.777   2.659   7.424
 5736POPC   NC373151   3.501  22.749   5.264
 5736POPC   PO473152   2.796  22.844   5.347
 5736POPC   GL173153   2.685  22.975   5.766
 5736POPC   GL273154   2.942  22.783   5.877
 5736POPC   C1A73155   2.537  23.107   6.210
 5736POPC   D2A73156   2.470  22.861   6.617
 5736POPC   C3A73157   2.311  22.954   7.025
 5736POPC   C4A73158   2.536  23.155   7.347
 5736POPC   C1B73159   3.037  22.950   6.293
 5736POPC   C2B73160   3.055  23.020   6.762
 5736POPC   C3B73161   2.834  22.819   7.091
 5736POPC   C4B73162   2.658  22.461   7.295
 5737POPC   NC373163   7.435  44.826   5.482
 5737POPC   PO473164   7.225  44.193   5.526
 5737POPC   GL173165   7.333  44.490   5.864
 5737POPC   GL273166   7.119  44.800   5.868
 5737POPC   C1A73167   7.464  44.703   6.249
 5737POPC   D2A73168   7.619  44.575   6.653
 5737POPC   C3A73169   7.343  44.768   6.949
 5737POPC   C4A73170   7.500   0.002   7.200
 5737POPC   C1B73171   6.930  44.624   6.202
 5737POPC   C2B73172   7.116  44.476   6.591
 5737POPC   C3B73173   7.203  44.299   7.023
 5737POPC   C4B73174   7.179  44.520   7.423
 5738POPC   NC373175  39.331  12.201   5.481
 5738POPC   PO473176  38.900  11.618   5.430
 5738POPC   GL173177  39.040  11.904   5.788
 5738POPC   GL273178  39.372  11.827   5.863
 5738POPC   C1A73179  39.217  12.259   6.099
 5738POPC   D2A73180  39.254  12.530   6.468
 5738POPC   C3A73181  39.389  12.347   6.861
 5738POPC   C4A73182  39.186  12.322   7.230
 5738POPC   C1B73183  39.476  11.834   6.272
 5738POPC   C2B73184  39.535  11.880   6.683
 5738POPC   C3B73185  39.488  11.657   7.018
 5738POPC   C4B73186  39.471  11.907   7.317
 5739POPC   NC373187  21.752  39.721   5.457
 5739POPC   PO473188  21.148  39.945   5.237
 5739POPC   GL173189  21.318  40.013   5.647
 5739POPC   GL273190  21.064  39.861   5.792
 5739POPC   C1A73191  21.451  39.968   6.117
 5739POPC   D2A73192  21.296  39.832   6.539
 5739POPC   C3A73193  21.296  40.077   6.925
 5739POPC   C4A73194  21.454  40.202   7.345
 5739POPC   C1B73195  21.027  39.560   6.143
 5739POPC   C2B73196  21.096  39.365   6.561
 5739POPC   C3B73197  21.074  39.579   6.972
 5739POPC   C4B73198  21.084  39.834   7.346
 5740POPC   NC373199  37.478  22.782   5.288
 5740POPC   PO473200  37.835  22.184   5.240
 5740POPC   GL173201  37.694  22.059   5.706
 5740POPC   GL273202  37.528  22.340   5.823
 5740POPC   C1A73203  37.525  21.922   6.159
 5740POPC   D2A73204  37.559  21.721   6.589
 5740POPC   C3A73205  37.399  21.976   6.941
 5740POPC   C4A73206  37.515  22.041   7.376
 5740POPC   C1B73207  37.858  22.302   6.171
 5740POPC   C2B73208  37.797  22.196   6.612
 5740POPC   C3B73209  37.890  22.162   7.044
 5740POPC   C4B73210  37.724  22.491   7.301
 5741POPC   NC373211  35.642   1.950   5.573
 5741POPC   PO473212  36.291   1.865   5.398
 5741POPC   GL173213  36.247   1.929   5.842
 5741POPC   GL273214  36.459   1.657   5.850
 5741POPC   C1A73215  35.960   2.090   6.198
 5741POPC   D2A73216  35.681   2.202   6.577
 5741POPC   C3A73217  35.878   2.111   6.977
 5741POPC   C4A73218  36.251   2.234   7.168
 5741POPC   C1B73219  36.297   1.449   6.194
 5741POPC   C2B73220  36.381   1.500   6.612
 5741POPC   C3B73221  36.223   1.725   6.945
 5741POPC   C4B73222  36.353   1.674   7.360
 5742POPC   NC373223  34.190   7.108   5.366
 5742POPC   PO473224  33.819   7.698   5.281
 5742POPC   GL173225  33.784   7.579   5.725
 5742POPC   GL273226  34.090   7.704   5.869
 5742POPC   C1A73227  33.700   7.453   6.188
 5742POPC   D2A73228  33.498   7.259   6.597
 5742POPC   C3A73229  33.683   7.182   7.006
 5742POPC   C4A73230  33.841   7.455   7.315
 5742POPC   C1B73231  34.153   7.703   6.311
 5742POPC   C2B73232  33.978   7.671   6.750
 5742POPC   C3B73233  34.101   7.858   7.146
 5742POPC   C4B73234  34.066   7.877   7.608
 5743POPC   NC373235  43.737  32.451   5.488
 5743POPC   PO473236  44.297  32.075   5.454
 5743POPC   GL173237  44.027  32.067   5.801
 5743POPC   GL273238  43.760  31.821   5.852
 5743POPC   C1A73239  44.119  31.944   6.235
 5743POPC   D2A73240  44.232  32.093   6.652
 5743POPC   C3A73241  44.100  32.004   7.064
 5743POPC   C4A73242  44.036  32.391   7.291
 5743POPC   C1B73243  43.668  32.190   6.133
 5743POPC   C2B73244  43.605  32.300   6.559
 5743POPC   C3B73245  43.570  32.414   6.982
 5743POPC   C4B73246  43.619  32.072   7.241
 5744POPC   NC373247  37.066  34.832   5.376
 5744POPC   PO473248  36.617  34.344   5.380
 5744POPC   GL173249  36.797  34.605   5.762
 5744POPC   GL273250  37.167  34.564   5.809
 5744POPC   C1A73251  36.916  34.757   6.213
 5744POPC   D2A73252  37.290  34.753   6.526
 5744POPC   C3A73253  37.208  34.657   6.979
 5744POPC   C4A73254  36.789  34.659   7.151
 5744POPC   C1B73255  37.284  34.330   6.178
 5744POPC   C2B73256  37.289  34.142   6.587
 5744POPC   C3B73257  37.365  34.147   7.050
 5744POPC   C4B73258  37.165  34.294   7.428
 5745POPC   NC373259  13.452  20.368   5.347
 5745POPC   PO473260  13.614  19.675   5.364
 5745POPC   GL173261  13.618  20.032   5.693
 5745POPC   GL273262  13.314  20.217   5.802
 5745POPC   C1A73263  13.665  20.080   6.149
 5745POPC   D2A73264  13.805  19.767   6.468
 5745POPC   C3A73265  13.700  19.832   6.901
 5745POPC   C4A73266  13.640  19.538   7.225
 5745POPC   C1B73267  13.127  20.148   6.178
 5745POPC   C2B73268  13.140  20.292   6.592
 5745POPC   C3B73269  13.105  20.123   7.002
 5745POPC   C4B73270  13.387  19.966   7.316
 5746POPC   NC373271  29.600  41.443   5.306
 5746POPC   PO473272  29.980  41.787   5.664
 5746POPC   GL173273  30.006  41.382   5.793
 5746POPC   GL273274  29.706  41.177   5.733
 5746POPC   C1A73275  30.163  41.165   6.180
 5746POPC   D2A73276  30.217  41.084   6.602
 5746POPC   C3A73277  30.159  41.443   6.849
 5746POPC   C4A73278  30.207  41.652   7.227
 5746POPC   C1B73279  29.664  41.342   6.179
 5746POPC   C2B73280  29.769  41.566   6.567
 5746POPC   C3B73281  29.598  41.537   7.007
 5746POPC   C4B73282  29.556  41.452   7.434
 5747POPC   NC373283  39.669  30.547   5.644
 5747POPC   PO473284  39.035  30.420   5.563
 5747POPC   GL173285  39.234  30.766   5.818
 5747POPC   GL273286  38.982  30.995   5.884
 5747POPC   C1A73287  39.506  30.735   6.211
 5747POPC   D2A73288  39.566  30.865   6.602
 5747POPC   C3A73289  39.465  30.569   6.930
 5747POPC   C4A73290  39.338  30.649   7.358
 5747POPC   C1B73291  39.008  30.803   6.294
 5747POPC   C2B73292  38.907  30.789   6.730
 5747POPC   C3B73293  38.972  30.463   7.043
 5747POPC   C4B73294  38.906  30.416   7.484
 5748POPC   NC373295  44.928  40.613   5.122
 5748POPC   PO473296  44.798  41.029   5.577
 5748POPC   GL173297  44.704  40.860   5.929
 5748POPC   GL273298  44.810  40.531   5.896
 5748POPC   C1A73299  44.762  40.818   6.355
 5748POPC   D2A73300  44.452  40.793   6.679
 5748POPC   C3A73301  44.632  40.873   7.048
 5748POPC   C4A73302  44.702  40.788   7.467
 5748POPC   C1B73303  44.555  40.358   6.244
 5748POPC   C2B73304  44.366  40.307   6.640
 5748POPC   C3B73305  44.440  40.417   7.046
 5748POPC   C4B73306  44.230  40.673   7.316
 5749POPC   NC373307  31.574  30.383   5.490
 5749POPC   PO473308  31.361  29.827   5.313
 5749POPC   GL173309  31.430  29.965   5.753
 5749POPC   GL273310  31.232  30.259   5.849
 5749POPC   C1A73311  31.521  29.859   6.191
 5749POPC   D2A73312  31.809  29.837   6.536
 5749POPC   C3A73313  31.671  29.771   6.950
 5749POPC   C4A73314  31.823  29.672   7.375
 5749POPC   C1B73315  31.556  30.388   6.139
 5749POPC   C2B73316  31.581  30.282   6.546
 5749POPC   C3B73317  31.758  30.338   6.933
 5749POPC   C4B73318  31.637  30.142   7.315
 5750POPC   NC373319  31.588   0.879   5.440
 5750POPC   PO473320  31.292   1.442   5.522
 5750POPC   GL173321  31.386   1.207   5.822
 5750POPC   GL273322  31.258   0.900   5.829
 5750POPC   C1A73323  31.493   1.149   6.205
 5750POPC   D2A73324  31.611   0.994   6.537
 5750POPC   C3A73325  31.572   1.153   6.865
 5750POPC   C4A73326  31.702   1.204   7.244
 5750POPC   C1B73327  31.032   0.912   6.144
 5750POPC   C2B73328  31.101   0.977   6.551
 5750POPC   C3B73329  31.325   0.689   6.807
 5750POPC   C4B73330  31.314   0.858   7.196
 5751POPC   NC373331  29.639  18.285   5.599
 5751POPC   PO473332  29.085  18.000   5.324
 5751POPC   GL173333  29.008  18.313   5.794
 5751POPC   GL273334  29.319  18.425   5.950
 5751POPC   C1A73335  28.900  18.234   6.262
 5751POPC   D2A73336  28.939  18.522   6.655
 5751POPC   C3A73337  28.737  18.444   7.081
 5751POPC   C4A73338  28.787  18.142   7.427
 5751POPC   C1B73339  29.365  18.423   6.366
 5751POPC   C2B73340  29.207  18.065   6.647
 5751POPC   C3B73341  29.174  18.134   7.069
 5751POPC   C4B73342  29.202  18.534   7.275
 5752POPC   NC373343  24.917  19.474   5.426
 5752POPC   PO473344  24.540  18.828   5.442
 5752POPC   GL173345  24.503  18.957   5.840
 5752POPC   GL273346  24.760  19.179   5.823
 5752POPC   C1A73347  24.225  19.014   6.195
 5752POPC   D2A73348  24.094  19.338   6.487
 5752POPC   C3A73349  24.200  19.150   6.856
 5752POPC   C4A73350  24.421  19.074   7.249
 5752POPC   C1B73351  24.633  19.325   6.228
 5752POPC   C2B73352  24.683  19.252   6.664
 5752POPC   C3B73353  24.779  19.378   7.069
 5752POPC   C4B73354  24.787  19.417   7.524
 5753POPC   NC373355  33.602   4.471   5.473
 5753POPC   PO473356  32.984   4.157   5.355
 5753POPC   GL173357  32.951   4.257   5.776
 5753POPC   GL273358  33.018   4.615   5.753
 5753POPC   C1A73359  32.731   4.392   6.141
 5753POPC   D2A73360  32.832   4.593   6.521
 5753POPC   C3A73361  32.685   4.358   6.862
 5753POPC   C4A73362  32.832   4.404   7.268
 5753POPC   C1B73363  33.239   4.534   6.138
 5753POPC   C2B73364  33.331   4.706   6.527
 5753POPC   C3B73365  33.177   4.575   6.914
 5753POPC   C4B73366  33.182   4.777   7.301
 5754POPC   NC373367   9.935  18.069   5.349
 5754POPC   PO473368   9.591  18.681   5.418
 5754POPC   GL173369   9.572  18.461   5.819
 5754POPC   GL273370   9.584  18.081   5.734
 5754POPC   C1A73371   9.699  18.515   6.268
 5754POPC   D2A73372   9.954  18.422   6.647
 5754POPC   C3A73373   9.833  18.459   7.098
 5754POPC   C4A73374   9.723  18.599   7.530
 5754POPC   C1B73375   9.420  18.075   6.137
 5754POPC   C2B73376   9.608  18.067   6.545
 5754POPC   C3B73377   9.725  17.976   6.980
 5754POPC   C4B73378   9.518  18.112   7.361
 5755POPC   NC373379  30.617  35.108   5.422
 5755POPC   PO473380  30.351  35.746   5.321
 5755POPC   GL173381  30.507  35.570   5.723
 5755POPC   GL273382  30.315  35.320   5.787
 5755POPC   C1A73383  30.648  35.612   6.169
 5755POPC   D2A73384  30.864  35.789   6.509
 5755POPC   C3A73385  30.754  35.542   6.852
 5755POPC   C4A73386  30.422  35.497   7.114
 5755POPC   C1B73387  30.614  35.104   6.069
 5755POPC   C2B73388  30.648  35.159   6.489
 5755POPC   C3B73389  30.432  35.053   6.851
 5755POPC   C4B73390  30.539  34.985   7.232
 5756POPC   NC373391  24.915   4.161   5.387
 5756POPC   PO473392  25.489   4.020   5.578
 5756POPC   GL173393  25.357   4.304   5.899
 5756POPC   GL273394  25.061   4.142   5.902
 5756POPC   C1A73395  25.444   4.496   6.311
 5756POPC   D2A73396  25.129   4.432   6.631
 5756POPC   C3A73397  25.142   4.604   7.005
 5756POPC   C4A73398  25.537   4.585   7.072
 5756POPC   C1B73399  25.284   4.024   6.313
 5756POPC   C2B73400  25.564   4.120   6.666
 5756POPC   C3B73401  25.397   4.055   7.055
 5756POPC   C4B73402  24.948   4.127   7.023
 5757POPC   NC373403   7.053  16.327   5.565
 5757POPC   PO473404   7.640  15.939   5.412
 5757POPC   GL173405   7.438  16.017   5.778
 5757POPC   GL273406   7.580  16.331   5.745
 5757POPC   C1A73407   7.333  16.086   6.193
 5757POPC   D2A73408   7.383  15.926   6.598
 5757POPC   C3A73409   7.224  16.066   6.992
 5757POPC   C4A73410   7.143  15.812   7.307
 5757POPC   C1B73411   7.811  16.309   6.135
 5757POPC   C2B73412   7.803  16.238   6.588
 5757POPC   C3B73413   7.611  16.408   6.958
 5757POPC   C4B73414   7.535  16.369   7.398
 5758POPC   NC373415  35.488  15.622   5.469
 5758POPC   PO473416  35.199  16.237   5.599
 5758POPC   GL173417  35.368  15.927   5.897
 5758POPC   GL273418  35.213  15.591   5.933
 5758POPC   C1A73419  35.506  15.877   6.341
 5758POPC   D2A73420  35.695  16.064   6.733
 5758POPC   C3A73421  35.360  16.063   7.029
 5758POPC   C4A73422  35.239  16.015   7.471
 5758POPC   C1B73423  35.216  15.443   6.378
 5758POPC   C2B73424  35.463  15.553   6.768
 5758POPC   C3B73425  35.517  15.591   7.214
 5758POPC   C4B73426  35.206  15.527   7.504
 5759POPC   NC373427  16.823  32.973   5.252
 5759POPC   PO473428  16.753  32.253   5.354
 5759POPC   GL173429  16.670  32.204   5.795
 5759POPC   GL273430  16.436  31.932   5.755
 5759POPC   C1A73431  16.657  32.431   6.226
 5759POPC   D2A73432  16.413  32.361   6.631
 5759POPC   C3A73433  16.624  32.373   7.036
 5759POPC   C4A73434  17.058  32.432   7.173
 5759POPC   C1B73435  16.369  32.029   6.198
 5759POPC   C2B73436  16.366  31.831   6.603
 5759POPC   C3B73437  16.213  32.006   7.008
 5759POPC   C4B73438  16.334  32.237   7.431
 5760POPC   NC373439  10.860  31.889   5.367
 5760POPC   PO473440  10.329  31.375   5.389
 5760POPC   GL173441  10.524  31.372   5.761
 5760POPC   GL273442  10.664  31.655   5.789
 5760POPC   C1A73443  10.461  31.384   6.183
 5760POPC   D2A73444  10.749  31.404   6.509
 5760POPC   C3A73445  10.557  31.390   6.863
 5760POPC   C4A73446  10.515  31.514   7.281
 5760POPC   C1B73447  10.753  31.841   6.208
 5760POPC   C2B73448  10.747  31.927   6.685
 5760POPC   C3B73449  10.677  31.979   7.146
 5760POPC   C4B73450  10.365  31.984   7.484
 5761POPC   NC373451   2.832  20.614   5.371
 5761POPC   PO473452   2.257  20.478   5.158
 5761POPC   GL173453   2.441  20.761   5.657
 5761POPC   GL273454   2.832  20.801   5.826
 5761POPC   C1A73455   2.476  20.956   6.124
 5761POPC   D2A73456   2.539  20.695   6.530
 5761POPC   C3A73457   2.470  20.843   6.924
 5761POPC   C4A73458   2.767  20.740   7.207
 5761POPC   C1B73459   3.004  20.473   6.119
 5761POPC   C2B73460   2.797  20.240   6.471
 5761POPC   C3B73461   2.763  20.339   6.889
 5761POPC   C4B73462   3.188  20.495   7.013
 5762POPC   NC373463   4.898   9.213   5.529
 5762POPC   PO473464   5.467   8.914   5.568
 5762POPC   GL173465   5.177   8.947   5.880
 5762POPC   GL273466   4.993   8.656   5.822
 5762POPC   C1A73467   5.060   9.237   6.224
 5762POPC   D2A73468   5.007   9.188   6.675
 5762POPC   C3A73469   5.145   8.868   6.935
 5762POPC   C4A73470   5.326   9.072   7.286
 5762POPC   C1B73471   4.768   8.785   6.203
 5762POPC   C2B73472   4.608   8.777   6.638
 5762POPC   C3B73473   4.675   8.783   7.106
 5762POPC   C4B73474   5.000   8.667   7.402
 5763POPC   NC373475  12.424  22.290   5.186
 5763POPC   PO473476  11.954  22.051   5.449
 5763POPC   GL173477  11.976  21.903   5.834
 5763POPC   GL273478  11.633  21.832   5.924
 5763POPC   C1A73479  12.206  21.963   6.196
 5763POPC   D2A73480  12.326  22.267   6.478
 5763POPC   C3A73481  12.040  22.423   6.776
 5763POPC   C4A73482  12.123  22.446   7.209
 5763POPC   C1B73483  11.717  22.094   6.252
 5763POPC   C2B73484  11.923  21.907   6.611
 5763POPC   C3B73485  11.985  21.973   7.026
 5763POPC   C4B73486  11.678  22.249   7.101
 5764POPC   NC373487   1.549  22.266   5.485
 5764POPC   PO473488   1.103  21.813   5.265
 5764POPC   GL173489   1.167  22.018   5.699
 5764POPC   GL273490   1.038  22.350   5.815
 5764POPC   C1A73491   1.098  21.928   6.147
 5764POPC   D2A73492   1.254  21.841   6.574
 5764POPC   C3A73493   1.063  22.080   6.887
 5764POPC   C4A73494   1.161  22.093   7.274
 5764POPC   C1B73495   1.272  22.416   6.217
 5764POPC   C2B73496   1.464  22.323   6.610
 5764POPC   C3B73497   1.339  22.509   6.954
 5764POPC   C4B73498   1.142  22.600   7.302
 5765POPC   NC373499  18.685  12.647   5.040
 5765POPC   PO473500  18.323  13.199   5.248
 5765POPC   GL173501  18.324  12.879   5.625
 5765POPC   GL273502  18.020  12.922   5.843
 5765POPC   C1A73503  18.431  12.828   6.111
 5765POPC   D2A73504  18.280  12.714   6.552
 5765POPC   C3A73505  18.397  13.028   6.820
 5765POPC   C4A73506  18.774  13.020   7.005
 5765POPC   C1B73507  17.894  12.841   6.250
 5765POPC   C2B73508  17.855  13.023   6.659
 5765POPC   C3B73509  17.965  13.022   7.095
 5765POPC   C4B73510  18.015  12.884   7.500
 5766POPC   NC373511  41.057   3.822   5.455
 5766POPC   PO473512  40.490   3.357   5.443
 5766POPC   GL173513  40.535   3.495   5.867
 5766POPC   GL273514  40.799   3.770   5.901
 5766POPC   C1A73515  40.510   3.615   6.292
 5766POPC   D2A73516  40.701   3.856   6.606
 5766POPC   C3A73517  40.744   3.538   6.918
 5766POPC   C4A73518  40.756   3.563   7.359
 5766POPC   C1B73519  40.989   3.426   6.164
 5766POPC   C2B73520  41.110   3.170   6.556
 5766POPC   C3B73521  41.106   3.194   7.028
 5766POPC   C4B73522  41.055   3.196   7.508
 5767POPC   NC373523  34.806  38.196   5.464
 5767POPC   PO473524  34.307  38.636   5.427
 5767POPC   GL173525  34.523  38.685   5.799
 5767POPC   GL273526  34.889  38.706   5.903
 5767POPC   C1A73527  34.525  38.396   6.142
 5767POPC   D2A73528  34.620  38.157   6.513
 5767POPC   C3A73529  34.435  38.291   6.904
 5767POPC   C4A73530  34.293  38.572   7.233
 5767POPC   C1B73531  34.912  38.606   6.365
 5767POPC   C2B73532  34.886  38.584   6.810
 5767POPC   C3B73533  34.795  38.505   7.220
 5767POPC   C4B73534  34.781  38.143   7.475
 5768POPC   NC373535  27.904  25.145   5.603
 5768POPC   PO473536  27.337  25.010   5.398
 5768POPC   GL173537  27.447  25.108   5.851
 5768POPC   GL273538  27.513  25.450   5.880
 5768POPC   C1A73539  27.532  24.972   6.310
 5768POPC   D2A73540  27.497  24.886   6.779
 5768POPC   C3A73541  27.407  25.299   7.003
 5768POPC   C4A73542  27.610  25.589   7.244
 5768POPC   C1B73543  27.858  25.403   6.184
 5768POPC   C2B73544  27.937  25.208   6.548
 5768POPC   C3B73545  27.926  25.347   6.907
 5768POPC   C4B73546  28.107  25.398   7.278
 5769POPC   NC373547  13.479   9.773   5.308
 5769POPC   PO473548  14.204   9.814   5.389
 5769POPC   GL173549  13.802   9.905   5.694
 5769POPC   GL273550  13.506   9.636   5.794
 5769POPC   C1A73551  13.645   9.967   6.135
 5769POPC   D2A73552  13.834   9.806   6.539
 5769POPC   C3A73553  13.559   9.789   6.911
 5769POPC   C4A73554  13.302   9.697   7.263
 5769POPC   C1B73555  13.629   9.424   6.210
 5769POPC   C2B73556  13.727   9.330   6.667
 5769POPC   C3B73557  13.934   9.454   7.055
 5769POPC   C4B73558  14.091   9.356   7.492
 5770POPC   NC373559   9.345  40.092   5.395
 5770POPC   PO473560   9.715  39.583   5.336
 5770POPC   GL173561   9.664  39.815   5.723
 5770POPC   GL273562   9.747  40.182   5.709
 5770POPC   C1A73563   9.777  39.864   6.148
 5770POPC   D2A73564   9.598  39.786   6.544
 5770POPC   C3A73565   9.879  39.921   6.827
 5770POPC   C4A73566   9.786  39.928   7.233
 5770POPC   C1B73567   9.480  40.277   6.074
 5770POPC   C2B73568   9.682  40.291   6.485
 5770POPC   C3B73569   9.493  40.242   6.914
 5770POPC   C4B73570   9.601  40.408   7.302
 5771POPC   NC373571  21.349  20.054   5.151
 5771POPC   PO473572  20.901  19.757   5.485
 5771POPC   GL173573  20.579  19.761   5.789
 5771POPC   GL273574  20.486  19.407   5.796
 5771POPC   C1A73575  20.531  19.873   6.239
 5771POPC   D2A73576  20.685  19.930   6.669
 5771POPC   C3A73577  20.800  19.733   7.087
 5771POPC   C4A73578  20.482  19.801   7.448
 5771POPC   C1B73579  20.728  19.408   6.189
 5771POPC   C2B73580  20.693  19.406   6.666
 5771POPC   C3B73581  20.456  19.371   7.106
 5771POPC   C4B73582  20.698  19.358   7.528
 5772POPC   NC373583  10.446  14.507   5.295
 5772POPC   PO473584  10.656  14.114   5.758
 5772POPC   GL173585  10.414  14.430   5.972
 5772POPC   GL273586  10.603  14.647   5.791
 5772POPC   C1A73587  10.402  14.512   6.437
 5772POPC   D2A73588  10.699  14.277   6.723
 5772POPC   C3A73589  10.457  13.983   6.930
 5772POPC   C4A73590  10.277  14.151   7.282
 5772POPC   C1B73591  10.844  14.658   6.206
 5772POPC   C2B73592  10.791  14.781   6.664
 5772POPC   C3B73593  10.468  14.686   7.021
 5772POPC   C4B73594  10.557  14.580   7.483
 5773POPC   NC373595  25.532   5.213   5.416
 5773POPC   PO473596  25.140   4.583   5.472
 5773POPC   GL173597  25.129   4.824   5.855
 5773POPC   GL273598  25.197   5.202   5.818
 5773POPC   C1A73599  25.300   4.965   6.249
 5773POPC   D2A73600  25.284   4.947   6.666
 5773POPC   C3A73601  25.521   5.093   6.969
 5773POPC   C4A73602  25.353   4.971   7.342
 5773POPC   C1B73603  25.198   5.450   6.221
 5773POPC   C2B73604  25.018   5.399   6.642
 5773POPC   C3B73605  25.057   5.351   7.104
 5773POPC   C4B73606  25.279   5.453   7.475
 5774POPC   NC373607  38.934  29.247   5.402
 5774POPC   PO473608  39.381  28.884   5.146
 5774POPC   GL173609  39.327  28.987   5.641
 5774POPC   GL273610  39.439  29.247   5.893
 5774POPC   C1A73611  39.190  28.853   6.072
 5774POPC   D2A73612  39.004  29.054   6.442
 5774POPC   C3A73613  39.317  29.060   6.769
 5774POPC   C4A73614  39.259  28.847   7.169
 5774POPC   C1B73615  39.264  29.449   6.245
 5774POPC   C2B73616  39.059  29.550   6.628
 5774POPC   C3B73617  39.222  29.539   7.025
 5774POPC   C4B73618  39.516  29.291   7.202
 5775POPC   NC373619  34.941   3.239   5.560
 5775POPC   PO473620  34.424   3.669   5.377
 5775POPC   GL173621  34.542   3.537   5.778
 5775POPC   GL273622  34.830   3.685   5.756
 5775POPC   C1A73623  34.454   3.480   6.235
 5775POPC   D2A73624  34.663   3.619   6.622
 5775POPC   C3A73625  34.379   3.620   6.934
 5775POPC   C4A73626  34.342   3.483   7.371
 5775POPC   C1B73627  34.891   3.744   6.174
 5775POPC   C2B73628  35.088   3.885   6.520
 5775POPC   C3B73629  35.128   3.690   6.900
 5775POPC   C4B73630  34.828   3.636   7.213
 5776POPC   NC373631  25.635  22.514   5.423
 5776POPC   PO473632  26.299  22.417   5.526
 5776POPC   GL173633  26.211  22.318   5.909
 5776POPC   GL273634  25.883  22.270   5.890
 5776POPC   C1A73635  26.252  22.025   6.221
 5776POPC   D2A73636  26.056  21.935   6.574
 5776POPC   C3A73637  26.213  22.125   6.932
 5776POPC   C4A73638  26.083  22.361   7.276
 5776POPC   C1B73639  25.654  22.023   6.203
 5776POPC   C2B73640  25.598  21.662   6.482
 5776POPC   C3B73641  25.649  21.836   6.865
 5776POPC   C4B73642  25.773  21.951   7.279
 5777POPC   NC373643   1.677  16.122   5.125
 5777POPC   PO473644   2.215  15.988   5.384
 5777POPC   GL173645   2.016  16.133   5.804
 5777POPC   GL273646   1.637  16.181   5.688
 5777POPC   C1A73647   2.079  16.004   6.284
 5777POPC   D2A73648   2.045  15.879   6.760
 5777POPC   C3A73649   2.051  16.214   7.092
 5777POPC   C4A73650   2.113  16.248   7.550
 5777POPC   C1B73651   1.610  16.137   6.147
 5777POPC   C2B73652   1.739  16.247   6.586
 5777POPC   C3B73653   1.583  16.058   6.965
 5777POPC   C4B73654   1.623  16.134   7.406
 5778POPC   NC373655  29.063  42.286   5.337
 5778POPC   PO473656  29.611  42.554   5.366
 5778POPC   GL173657  29.438  42.444   5.763
 5778POPC   GL273658  29.308  42.111   5.806
 5778POPC   C1A73659  29.472  42.370   6.228
 5778POPC   D2A73660  29.194  42.417   6.581
 5778POPC   C3A73661  29.309  42.567   6.980
 5778POPC   C4A73662  29.196  42.469   7.421
 5778POPC   C1B73663  29.091  41.986   6.219
 5778POPC   C2B73664  28.928  41.977   6.653
 5778POPC   C3B73665  28.918  42.126   7.108
 5778POPC   C4B73666  28.837  42.126   7.582
 5779POPC   NC373667   4.271  44.201   5.403
 5779POPC   PO473668   4.519  44.803   5.175
 5779POPC   GL173669   4.466  44.703   5.626
 5779POPC   GL273670   4.592   0.001   5.790
 5779POPC   C1A73671   4.512  44.497   6.064
 5779POPC   D2A73672   4.552  44.327   6.502
 5779POPC   C3A73673   4.424  44.554   6.877
 5779POPC   C4A73674   4.224  44.684   7.255
 5779POPC   C1B73675   4.378   0.028   6.220
 5779POPC   C2B73676   4.338   0.051   6.707
 5779POPC   C3B73677   4.438   0.138   7.172
 5779POPC   C4B73678   4.381   0.006   7.620
 5780POPC   NC373679  27.938   4.978   5.348
 5780POPC   PO473680  28.169   5.551   5.195
 5780POPC   GL173681  28.288   5.274   5.613
 5780POPC   GL273682  28.236   4.904   5.759
 5780POPC   C1A73683  28.431   5.303   6.074
 5780POPC   D2A73684  28.254   5.319   6.515
 5780POPC   C3A73685  28.474   5.219   6.910
 5780POPC   C4A73686  28.821   5.185   7.155
 5780POPC   C1B73687  28.415   4.787   6.178
 5780POPC   C2B73688  28.340   4.816   6.638
 5780POPC   C3B73689  28.505   4.703   7.096
 5780POPC   C4B73690  28.499   4.631   7.562
 5781POPC   NC373691   2.870  24.293   5.525
 5781POPC   PO473692   2.665  24.967   5.561
 5781POPC   GL173693   2.743  24.715   5.876
 5781POPC   GL273694   3.090  24.677   5.822
 5781POPC   C1A73695   2.550  24.655   6.283
 5781POPC   D2A73696   2.451  24.867   6.680
 5781POPC   C3A73697   2.554  24.673   7.082
 5781POPC   C4A73698   2.468  24.796   7.528
 5781POPC   C1B73699   3.034  24.470   6.233
 5781POPC   C2B73700   2.908  24.641   6.645
 5781POPC   C3B73701   3.063  24.592   7.028
 5781POPC   C4B73702   3.302  24.234   7.118
 5782POPC   NC373703   7.814  32.827   5.516
 5782POPC   PO473704   8.089  32.181   5.397
 5782POPC   GL173705   8.200  32.178   5.807
 5782POPC   GL273706   8.100  32.512   5.810
 5782POPC   C1A73707   7.968  32.260   6.222
 5782POPC   D2A73708   7.771  32.166   6.622
 5782POPC   C3A73709   8.094  32.141   6.923
 5782POPC   C4A73710   8.190  32.286   7.326
 5782POPC   C1B73711   8.424  32.523   6.113
 5782POPC   C2B73712   8.362  32.407   6.549
 5782POPC   C3B73713   8.568  32.392   6.946
 5782POPC   C4B73714   8.634  32.539   7.372
 5783POPC   NC373715  30.916   1.175   5.517
 5783POPC   PO473716  30.307   0.916   5.538
 5783POPC   GL173717  30.518   1.042   5.910
 5783POPC   GL273718  30.625   1.356   5.909
 5783POPC   C1A73719  30.616   1.104   6.348
 5783POPC   D2A73720  30.613   0.854   6.699
 5783POPC   C3A73721  30.621   1.149   7.001
 5783POPC   C4A73722  30.751   1.408   7.339
 5783POPC   C1B73723  30.994   1.427   6.161
 5783POPC   C2B73724  30.880   1.479   6.583
 5783POPC   C3B73725  31.092   1.340   6.956
 5783POPC   C4B73726  31.263   1.404   7.372
 5784POPC   NC373727   8.533  21.008   5.395
 5784POPC   PO473728   8.165  21.586   5.230
 5784POPC   GL173729   8.111  21.680   5.667
 5784POPC   GL273730   8.423  21.565   5.790
 5784POPC   C1A73731   8.064  21.627   6.144
 5784POPC   D2A73732   8.280  21.477   6.535
 5784POPC   C3A73733   8.104  21.491   6.975
 5784POPC   C4A73734   8.292  21.477   7.406
 5784POPC   C1B73735   8.342  21.179   6.087
 5784POPC   C2B73736   8.517  21.024   6.527
 5784POPC   C3B73737   8.429  21.051   7.002
 5784POPC   C4B73738   8.334  20.969   7.436
 5785POPC   NC373739  40.179  19.694   5.487
 5785POPC   PO473740  39.798  20.201   5.278
 5785POPC   GL173741  39.929  20.125   5.756
 5785POPC   GL273742  40.267  20.117   5.859
 5785POPC   C1A73743  39.959  19.845   6.178
 5785POPC   D2A73744  40.135  19.560   6.528
 5785POPC   C3A73745  40.087  19.732   6.974
 5785POPC   C4A73746  39.666  19.688   7.149
 5785POPC   C1B73747  40.162  20.347   6.229
 5785POPC   C2B73748  40.299  20.452   6.640
 5785POPC   C3B73749  40.214  20.335   7.054
 5785POPC   C4B73750  39.851  20.142   7.199
 5786POPC   NC373751   7.005   1.141   5.365
 5786POPC   PO473752   7.585   1.095   5.240
 5786POPC   GL173753   7.544   1.078   5.722
 5786POPC   GL273754   7.190   1.031   5.855
 5786POPC   C1A73755   7.669   1.143   6.200
 5786POPC   D2A73756   7.817   1.209   6.649
 5786POPC   C3A73757   7.543   1.335   7.016
 5786POPC   C4A73758   7.275   1.349   7.428
 5786POPC   C1B73759   7.109   0.695   6.175
 5786POPC   C2B73760   7.143   0.725   6.643
 5786POPC   C3B73761   7.162   0.987   7.043
 5786POPC   C4B73762   6.807   1.185   7.276
 5787POPC   NC373763  31.139   7.686   5.685
 5787POPC   PO473764  31.563   7.566   5.233
 5787POPC   GL173765  31.521   7.346   5.697
 5787POPC   GL273766  31.188   7.213   5.848
 5787POPC   C1A73767  31.491   7.437   6.190
 5787POPC   D2A73768  31.583   7.612   6.604
 5787POPC   C3A73769  31.645   7.388   6.971
 5787POPC   C4A73770  31.536   7.459   7.401
 5787POPC   C1B73771  31.047   7.193   6.284
 5787POPC   C2B73772  31.239   7.176   6.699
 5787POPC   C3B73773  31.195   7.193   7.157
 5787POPC   C4B73774  31.070   7.263   7.628
 5788POPC   NC373775  31.118   3.287   5.525
 5788POPC   PO473776  30.740   3.684   5.141
 5788POPC   GL173777  30.830   3.646   5.725
 5788POPC   GL273778  30.535   3.569   5.925
 5788POPC   C1A73779  30.956   3.741   6.172
 5788POPC   D2A73780  31.076   3.566   6.585
 5788POPC   C3A73781  30.943   3.787   6.950
 5788POPC   C4A73782  30.808   3.665   7.310
 5788POPC   C1B73783  30.638   3.353   6.294
 5788POPC   C2B73784  30.548   3.573   6.653
 5788POPC   C3B73785  30.410   3.504   7.043
 5788POPC   C4B73786  30.502   3.276   7.423
 5789POPC   NC373787  11.641  32.215   5.661
 5789POPC   PO473788  12.236  32.033   5.320
 5789POPC   GL173789  12.157  32.019   5.752
 5789POPC   GL273790  12.159  32.342   5.742
 5789POPC   C1A73791  11.964  31.930   6.180
 5789POPC   D2A73792  11.673  32.030   6.520
 5789POPC   C3A73793  11.831  31.858   6.890
 5789POPC   C4A73794  12.007  32.108   7.229
 5789POPC   C1B73795  12.029  32.449   6.158
 5789POPC   C2B73796  11.999  32.680   6.533
 5789POPC   C3B73797  12.042  32.598   6.954
 5789POPC   C4B73798  11.800  32.668   7.304
 5790POPC   NC373799  11.572  19.235   5.538
 5790POPC   PO473800  10.904  19.014   5.479
 5790POPC   GL173801  11.201  19.004   5.836
 5790POPC   GL273802  11.275  19.362   5.945
 5790POPC   C1A73803  11.358  18.951   6.270
 5790POPC   D2A73804  11.409  19.164   6.675
 5790POPC   C3A73805  11.510  18.891   7.014
 5790POPC   C4A73806  11.274  18.542   7.144
 5790POPC   C1B73807  11.669  19.370   6.223
 5790POPC   C2B73808  11.829  19.475   6.649
 5790POPC   C3B73809  11.689  19.390   7.063
 5790POPC   C4B73810  11.759  19.416   7.502
 5791POPC   NC373811  34.820  30.858   5.366
 5791POPC   PO473812  35.403  30.719   5.400
 5791POPC   GL173813  35.551  30.678   5.815
 5791POPC   GL273814  35.874  30.523   5.878
 5791POPC   C1A73815  35.308  30.750   6.201
 5791POPC   D2A73816  35.012  30.723   6.533
 5791POPC   C3A73817  35.170  30.849   6.918
 5791POPC   C4A73818  35.478  30.764   7.239
 5791POPC   C1B73819  35.563  30.293   6.149
 5791POPC   C2B73820  35.370  30.322   6.532
 5791POPC   C3B73821  35.617  30.419   6.883
 5791POPC   C4B73822  35.874  30.442   7.275
 5792POPC   NC373823  34.122  23.400   5.502
 5792POPC   PO473824  33.711  23.756   5.130
 5792POPC   GL173825  33.764  23.716   5.635
 5792POPC   GL273826  34.027  23.894   5.749
 5792POPC   C1A73827  33.891  23.567   6.117
 5792POPC   D2A73828  33.674  23.537   6.535
 5792POPC   C3A73829  33.781  23.645   6.956
 5792POPC   C4A73830  33.980  23.310   7.183
 5792POPC   C1B73831  34.029  24.069   6.173
 5792POPC   C2B73832  34.067  23.878   6.555
 5792POPC   C3B73833  34.235  23.520   6.740
 5792POPC   C4B73834  34.270  23.754   7.102
 5793POPC   NC373835  32.611   6.148   5.321
 5793POPC   PO473836  32.805   5.563   5.406
 5793POPC   GL173837  33.067   5.773   5.741
 5793POPC   GL273838  32.970   6.139   5.723
 5793POPC   C1A73839  33.132   5.630   6.180
 5793POPC   D2A73840  32.924   5.686   6.590
 5793POPC   C3A73841  33.124   5.714   7.037
 5793POPC   C4A73842  33.071   5.758   7.527
 5793POPC   C1B73843  33.015   6.135   6.131
 5793POPC   C2B73844  33.153   6.165   6.526
 5793POPC   C3B73845  32.985   6.177   6.909
 5793POPC   C4B73846  33.106   6.213   7.302
 5794POPC   NC373847  23.457  18.306   5.256
 5794POPC   PO473848  24.080  18.002   5.320
 5794POPC   GL173849  23.821  18.249   5.675
 5794POPC   GL273850  23.454  18.183   5.759
 5794POPC   C1A73851  23.709  18.444   6.107
 5794POPC   D2A73852  23.658  18.290   6.541
 5794POPC   C3A73853  24.044  18.313   6.770
 5794POPC   C4A73854  24.164  18.666   7.036
 5794POPC   C1B73855  23.438  17.956   6.186
 5794POPC   C2B73856  23.310  17.913   6.618
 5794POPC   C3B73857  23.300  18.132   7.012
 5794POPC   C4B73858  23.416  17.924   7.385
 5795POPC   NC373859  38.610  34.802   5.124
 5795POPC   PO473860  38.668  34.223   5.380
 5795POPC   GL173861  38.512  34.241   5.775
 5795POPC   GL273862  38.553  34.603   5.787
 5795POPC   C1A73863  38.601  34.182   6.202
 5795POPC   D2A73864  38.651  34.385   6.595
 5795POPC   C3A73865  38.549  34.191   6.964
 5795POPC   C4A73866  38.329  34.393   7.342
 5795POPC   C1B73867  38.273  34.568   6.147
 5795POPC   C2B73868  38.200  34.646   6.578
 5795POPC   C3B73869  38.425  34.713   6.947
 5795POPC   C4B73870  38.242  34.896   7.300
 5796POPC   NC373871  26.453  14.042   5.325
 5796POPC   PO473872  26.867  14.525   5.267
 5796POPC   GL173873  26.841  14.595   5.727
 5796POPC   GL273874  26.868  14.251   5.744
 5796POPC   C1A73875  26.591  14.569   6.167
 5796POPC   D2A73876  26.540  14.773   6.608
 5796POPC   C3A73877  26.586  14.549   7.037
 5796POPC   C4A73878  26.453  14.516   7.529
 5796POPC   C1B73879  27.062  14.348   6.142
 5796POPC   C2B73880  26.900  14.378   6.568
 5796POPC   C3B73881  27.030  14.297   6.974
 5796POPC   C4B73882  27.288  14.402   7.272
 5797POPC   NC373883  26.364   4.650   5.383
 5797POPC   PO473884  27.037   4.300   5.504
 5797POPC   GL173885  26.869   4.216   5.843
 5797POPC   GL273886  26.544   4.282   5.707
 5797POPC   C1A73887  26.943   4.260   6.277
 5797POPC   D2A73888  26.748   4.443   6.612
 5797POPC   C3A73889  26.824   4.289   7.008
 5797POPC   C4A73890  26.780   4.579   7.344
 5797POPC   C1B73891  26.432   4.253   6.125
 5797POPC   C2B73892  26.536   4.005   6.486
 5797POPC   C3B73893  26.378   4.060   6.889
 5797POPC   C4B73894  26.406   4.247   7.302
 5798POPC   NC373895  21.514  19.604   5.478
 5798POPC   PO473896  21.777  20.197   5.274
 5798POPC   GL173897  21.610  20.037   5.727
 5798POPC   GL273898  21.698  19.732   5.950
 5798POPC   C1A73899  21.205  19.905   6.025
 5798POPC   D2A73900  21.111  19.661   6.422
 5798POPC   C3A73901  21.409  19.696   6.770
 5798POPC   C4A73902  21.351  19.792   7.216
 5798POPC   C1B73903  21.598  20.070   6.265
 5798POPC   C2B73904  21.567  20.194   6.659
 5798POPC   C3B73905  21.551  20.285   7.068
 5798POPC   C4B73906  21.740  20.098   7.372
 5799POPC   NC373907  39.029  15.525   5.397
 5799POPC   PO473908  39.260  14.893   5.284
 5799POPC   GL173909  39.339  14.930   5.736
 5799POPC   GL273910  39.182  15.241   5.794
 5799POPC   C1A73911  39.186  14.878   6.177
 5799POPC   D2A73912  39.043  14.993   6.579
 5799POPC   C3A73913  39.264  14.867   6.954
 5799POPC   C4A73914  39.068  14.954   7.326
 5799POPC   C1B73915  39.016  15.363   6.176
 5799POPC   C2B73916  39.089  15.514   6.570
 5799POPC   C3B73917  39.106  15.356   6.973
 5799POPC   C4B73918  38.963  15.502   7.331
 5800POPC   NC373919  13.790  25.259   5.461
 5800POPC   PO473920  13.360  25.782   5.589
 5800POPC   GL173921  13.472  25.430   5.812
 5800POPC   GL273922  13.851  25.468   5.924
 5800POPC   C1A73923  13.419  25.416   6.220
 5800POPC   D2A73924  13.491  25.251   6.610
 5800POPC   C3A73925  13.522  25.479   6.967
 5800POPC   C4A73926  13.618  25.313   7.372
 5800POPC   C1B73927  13.760  25.052   6.099
 5800POPC   C2B73928  13.823  24.887   6.522
 5800POPC   C3B73929  13.866  25.078   6.936
 5800POPC   C4B73930  13.913  24.879   7.343
 5801POPC   NC373931  25.151  26.599   5.261
 5801POPC   PO473932  25.572  27.129   5.235
 5801POPC   GL173933  25.399  26.868   5.634
 5801POPC   GL273934  25.053  26.928   5.751
 5801POPC   C1A73935  25.512  26.844   6.094
 5801POPC   D2A73936  25.392  26.920   6.517
 5801POPC   C3A73937  25.394  26.658   6.885
 5801POPC   C4A73938  25.088  26.634   7.236
 5801POPC   C1B73939  25.113  27.183   6.143
 5801POPC   C2B73940  25.132  27.349   6.582
 5801POPC   C3B73941  25.210  27.133   6.972
 5801POPC   C4B73942  25.254  27.161   7.399
 5802POPC   NC373943  31.736  42.343   5.359
 5802POPC   PO473944  32.370  42.747   5.361
 5802POPC   GL173945  32.326  42.363   5.686
 5802POPC   GL273946  31.982  42.307   5.811
 5802POPC   C1A73947  32.377  42.116   6.107
 5802POPC   D2A73948  32.078  42.134   6.505
 5802POPC   C3A73949  32.166  42.258   6.972
 5802POPC   C4A73950  32.433  42.002   7.276
 5802POPC   C1B73951  32.149  42.566   6.143
 5802POPC   C2B73952  32.093  42.650   6.583
 5802POPC   C3B73953  32.284  42.767   6.981
 5802POPC   C4B73954  32.104  42.750   7.423
 5803POPC   NC373955  33.527  33.809   5.395
 5803POPC   PO473956  33.993  34.375   5.345
 5803POPC   GL173957  33.929  34.057   5.709
 5803POPC   GL273958  33.917  33.677   5.741
 5803POPC   C1A73959  33.710  33.932   6.115
 5803POPC   D2A73960  33.838  33.811   6.547
 5803POPC   C3A73961  33.655  34.125   6.811
 5803POPC   C4A73962  33.628  34.201   7.239
 5803POPC   C1B73963  34.035  33.504   6.175
 5803POPC   C2B73964  34.299  33.462   6.552
 5803POPC   C3B73965  34.063  33.413   6.945
 5803POPC   C4B73966  33.645  33.664   7.023
 5804POPC   NC373967  40.364  24.342   5.032
 5804POPC   PO473968  39.999  23.761   5.347
 5804POPC   GL173969  40.001  23.525   5.710
 5804POPC   GL273970  40.034  23.798   5.895
 5804POPC   C1A73971  40.078  23.343   6.140
 5804POPC   D2A73972  40.020  23.568   6.526
 5804POPC   C3A73973  40.053  23.503   6.975
 5804POPC   C4A73974  39.812  23.565   7.351
 5804POPC   C1B73975  39.914  24.012   6.252
 5804POPC   C2B73976  39.897  24.207   6.631
 5804POPC   C3B73977  39.795  23.987   6.978
 5804POPC   C4B73978  40.143  23.960   7.245
 5805POPC   NC373979  23.120  13.560   5.515
 5805POPC   PO473980  22.611  13.232   5.652
 5805POPC   GL173981  22.775  13.540   5.900
 5805POPC   GL273982  23.108  13.434   5.997
 5805POPC   C1A73983  22.661  13.698   6.282
 5805POPC   D2A73984  22.765  13.958   6.613
 5805POPC   C3A73985  22.889  13.756   6.995
 5805POPC   C4A73986  23.117  13.668   7.375
 5805POPC   C1B73987  23.161  13.608   6.403
 5805POPC   C2B73988  23.132  13.364   6.773
 5805POPC   C3B73989  23.318  13.244   7.157
 5805POPC   C4B73990  23.095  13.190   7.567
 5806POPC   NC373991  37.036  16.147   5.104
 5806POPC   PO473992  36.742  15.739   5.607
 5806POPC   GL173993  37.024  15.925   5.860
 5806POPC   GL273994  36.964  16.276   5.742
 5806POPC   C1A73995  37.052  15.810   6.303
 5806POPC   D2A73996  36.845  15.775   6.686
 5806POPC   C3A73997  37.036  15.954   7.013
 5806POPC   C4A73998  37.202  15.946   7.390
 5806POPC   C1B73999  36.891  16.279   6.189
 5806POPC   C2B74000  36.985  16.307   6.600
 5806POPC   C3B74001  36.675  16.273   6.892
 5806POPC   C4B74002  36.772  16.272   7.320
 5807POPC   NC374003  13.717  38.909   5.331
 5807POPC   PO474004  13.924  39.549   5.531
 5807POPC   GL174005  13.740  39.345   5.911
 5807POPC   GL274006  13.752  38.962   5.871
 5807POPC   C1A74007  13.736  39.308   6.390
 5807POPC   D2A74008  13.594  39.175   6.827
 5807POPC   C3A74009  13.825  39.015   7.236
 5807POPC   C4A74010  13.999  38.974   7.698
 5807POPC   C1B74011  13.393  39.026   6.124
 5807POPC   C2B74012  13.229  38.963   6.514
 5807POPC   C3B74013  13.206  38.830   6.904
 5807POPC   C4B74014  13.284  39.072   7.217
 5808POPC   NC374015  15.586   2.693   5.416
 5808POPC   PO474016  14.935   2.571   5.323
 5808POPC   GL174017  15.168   2.686   5.709
 5808POPC   GL274018  15.389   2.986   5.786
 5808POPC   C1A74019  15.324   2.528   6.108
 5808POPC   D2A74020  15.060   2.659   6.443
 5808POPC   C3A74021  15.232   2.605   6.810
 5808POPC   C4A74022  15.295   2.431   7.184
 5808POPC   C1B74023  15.417   3.013   6.267
 5808POPC   C2B74024  15.484   3.068   6.733
 5808POPC   C3B74025  15.286   2.983   7.171
 5808POPC   C4B74026  14.988   3.130   7.525
 5809POPC   NC374027  13.249  23.826   5.144
 5809POPC   PO474028  12.620  23.572   5.437
 5809POPC   GL174029  12.690  23.607   5.899
 5809POPC   GL274030  12.887  23.906   5.934
 5809POPC   C1A74031  12.918  23.526   6.291
 5809POPC   D2A74032  12.743  23.596   6.686
 5809POPC   C3A74033  12.988  23.427   6.985
 5809POPC   C4A74034  12.857  23.195   7.325
 5809POPC   C1B74035  12.756  24.025   6.357
 5809POPC   C2B74036  12.662  24.074   6.804
 5809POPC   C3B74037  12.965  24.052   7.128
 5809POPC   C4B74038  12.929  23.995   7.553
 5810POPC   NC374039   0.416  13.882   5.374
 5810POPC   PO474040   0.049  14.390   5.536
 5810POPC   GL174041   0.376  14.346   5.802
 5810POPC   GL274042   0.188  14.108   5.945
 5810POPC   C1A74043   0.414  14.458   6.241
 5810POPC   D2A74044   0.250  14.733   6.526
 5810POPC   C3A74045   0.435  14.657   6.915
 5810POPC   C4A74046   0.802  14.598   7.137
 5810POPC   C1B74047   0.055  14.120   6.342
 5810POPC   C2B74048   0.195  14.259   6.712
 5810POPC   C3B74049   0.420  14.157   7.082
 5810POPC   C4B74050   0.274  14.070   7.535
 5811POPC   NC374051  16.132  27.877   5.379
 5811POPC   PO474052  15.710  27.420   5.479
 5811POPC   GL174053  15.958  27.608   5.800
 5811POPC   GL274054  16.114  27.276   5.824
 5811POPC   C1A74055  15.940  27.891   6.189
 5811POPC   D2A74056  15.806  27.740   6.610
 5811POPC   C3A74057  15.770  27.912   7.029
 5811POPC   C4A74058  15.904  27.769   7.427
 5811POPC   C1B74059  15.921  27.347   6.253
 5811POPC   C2B74060  16.106  27.319   6.678
 5811POPC   C3B74061  16.092  27.392   7.135
 5811POPC   C4B74062  16.218  27.427   7.626
 5812POPC   NC374063  38.605   3.804   5.418
 5812POPC   PO474064  38.136   3.396   5.210
 5812POPC   GL174065  38.365   3.444   5.680
 5812POPC   GL274066  38.716   3.431   5.764
 5812POPC   C1A74067  38.421   3.548   6.148
 5812POPC   D2A74068  38.178   3.565   6.514
 5812POPC   C3A74069  38.272   3.796   6.880
 5812POPC   C4A74070  38.397   3.623   7.273
 5812POPC   C1B74071  38.864   3.262   6.170
 5812POPC   C2B74072  38.889   3.436   6.600
 5812POPC   C3B74073  38.781   3.279   7.005
 5812POPC   C4B74074  38.809   3.375   7.409
 5813POPC   NC374075  40.586  24.864   5.599
 5813POPC   PO474076  40.673  24.259   5.362
 5813POPC   GL174077  40.862  24.188   5.758
 5813POPC   GL274078  40.784  24.505   5.885
 5813POPC   C1A74079  40.826  24.129   6.215
 5813POPC   D2A74080  40.815  24.333   6.615
 5813POPC   C3A74081  40.696  24.175   7.010
 5813POPC   C4A74082  41.009  24.129   7.312
 5813POPC   C1B74083  40.694  24.716   6.282
 5813POPC   C2B74084  40.724  24.826   6.723
 5813POPC   C3B74085  40.906  24.639   7.078
 5813POPC   C4B74086  40.870  24.566   7.534
 5814POPC   NC374087  40.222  20.367   5.308
 5814POPC   PO474088  39.762  20.877   5.261
 5814POPC   GL174089  39.840  20.636   5.632
 5814POPC   GL274090  40.183  20.625   5.751
 5814POPC   C1A74091  39.709  20.613   6.079
 5814POPC   D2A74092  39.651  20.318   6.431
 5814POPC   C3A74093  39.700  20.470   6.854
 5814POPC   C4A74094  39.811  20.640   7.268
 5814POPC   C1B74095  40.160  20.858   6.132
 5814POPC   C2B74096  39.948  20.807   6.521
 5814POPC   C3B74097  40.122  20.855   6.927
 5814POPC   C4B74098  40.294  20.745   7.360
 5815POPC   NC374099  36.692   3.975   5.639
 5815POPC   PO474100  36.926   4.449   5.255
 5815POPC   GL174101  36.977   4.660   5.714
 5815POPC   GL274102  36.787   4.438   5.836
 5815POPC   C1A74103  37.098   4.649   6.207
 5815POPC   D2A74104  36.914   4.488   6.640
 5815POPC   C3A74105  37.138   4.401   7.056
 5815POPC   C4A74106  37.170   4.259   7.499
 5815POPC   C1B74107  36.595   4.586   6.205
 5815POPC   C2B74108  36.426   4.341   6.523
 5815POPC   C3B74109  36.531   4.241   6.944
 5815POPC   C4B74110  36.661   4.290   7.382
 5816POPC   NC374111  35.985   9.334   5.184
 5816POPC   PO474112  35.982   9.971   5.395
 5816POPC   GL174113  36.144   9.704   5.741
 5816POPC   GL274114  36.128   9.330   5.732
 5816POPC   C1A74115  36.151   9.713   6.205
 5816POPC   D2A74116  36.237  10.004   6.552
 5816POPC   C3A74117  36.381   9.912   6.969
 5816POPC   C4A74118  36.171   9.884   7.342
 5816POPC   C1B74119  36.020   9.190   6.193
 5816POPC   C2B74120  35.997   9.343   6.656
 5816POPC   C3B74121  36.025   9.428   7.125
 5816POPC   C4B74122  36.350   9.439   7.479
 5817POPC   NC374123  14.408  38.347   5.313
 5817POPC   PO474124  14.839  38.640   5.510
 5817POPC   GL174125  14.395  38.617   5.762
 5817POPC   GL274126  14.183  38.301   5.811
 5817POPC   C1A74127  14.213  38.677   6.213
 5817POPC   D2A74128  14.141  38.531   6.678
 5817POPC   C3A74129  14.506  38.420   6.985
 5817POPC   C4A74130  14.783  38.670   7.275
 5817POPC   C1B74131  14.162  38.168   6.288
 5817POPC   C2B74132  14.218  38.025   6.755
 5817POPC   C3B74133  14.209  38.068   7.212
 5817POPC   C4B74134  14.144  38.124   7.645
 5818POPC   NC374135   6.001  36.340   5.080
 5818POPC   PO474136   5.548  35.855   5.155
 5818POPC   GL174137   5.515  36.005   5.699
 5818POPC   GL274138   5.803  36.206   5.928
 5818POPC   C1A74139   5.603  35.819   6.142
 5818POPC   D2A74140   5.712  36.067   6.541
 5818POPC   C3A74141   5.776  35.872   6.963
 5818POPC   C4A74142   6.151  35.901   7.196
 5818POPC   C1B74143   6.032  36.556   6.159
 5818POPC   C2B74144   6.119  36.428   6.563
 5818POPC   C3B74145   5.982  36.325   6.952
 5818POPC   C4B74146   6.162  36.400   7.319
 5819POPC   NC374147  19.327  41.548   5.099
 5819POPC   PO474148  19.169  41.891   5.607
 5819POPC   GL174149  18.960  41.725   5.901
 5819POPC   GL274150  18.628  41.769   5.766
 5819POPC   C1A74151  19.017  41.698   6.319
 5819POPC   D2A74152  19.237  41.934   6.607
 5819POPC   C3A74153  19.133  41.815   7.027
 5819POPC   C4A74154  18.968  41.437   7.258
 5819POPC   C1B74155  18.552  41.923   6.218
 5819POPC   C2B74156  18.719  41.909   6.679
 5819POPC   C3B74157  18.614  41.786   7.122
 5819POPC   C4B74158  18.454  41.629   7.534
 5820POPC   NC374159  42.256  10.790   5.508
 5820POPC   PO474160  42.764  10.435   5.556
 5820POPC   GL174161  42.382  10.395   5.810
 5820POPC   GL274162  42.333  10.712   5.995
 5820POPC   C1A74163  42.125  10.227   6.125
 5820POPC   D2A74164  42.373  10.098   6.461
 5820POPC   C3A74165  42.318  10.300   6.828
 5820POPC   C4A74166  42.395  10.442   7.205
 5820POPC   C1B74167  42.667  10.993   6.151
 5820POPC   C2B74168  42.682  11.004   6.601
 5820POPC   C3B74169  42.351  10.827   6.870
 5820POPC   C4B74170  42.040  10.808   7.227
 5821POPC   NC374171   2.898  32.577   5.516
 5821POPC   PO474172   2.487  33.091   5.569
 5821POPC   GL174173   2.806  32.984   5.848
 5821POPC   GL274174   3.031  33.258   5.838
 5821POPC   C1A74175   2.765  32.781   6.240
 5821POPC   D2A74176   2.954  32.727   6.631
 5821POPC   C3A74177   2.663  32.864   6.938
 5821POPC   C4A74178   2.481  33.202   7.173
 5821POPC   C1B74179   2.744  33.379   6.173
 5821POPC   C2B74180   2.756  33.262   6.601
 5821POPC   C3B74181   2.897  33.428   6.992
 5821POPC   C4B74182   2.959  33.200   7.385
 5822POPC   NC374183  35.038  32.560   5.306
 5822POPC   PO474184  35.570  32.099   5.255
 5822POPC   GL174185  35.441  32.257   5.687
 5822POPC   GL274186  35.080  32.267   5.778
 5822POPC   C1A74187  35.479  32.270   6.178
 5822POPC   D2A74188  35.715  32.266   6.612
 5822POPC   C3A74189  35.509  32.192   7.029
 5822POPC   C4A74190  35.514  32.522   7.375
 5822POPC   C1B74191  34.958  32.333   6.210
 5822POPC   C2B74192  35.163  32.290   6.618
 5822POPC   C3B74193  35.105  32.481   7.031
 5822POPC   C4B74194  35.107  32.227   7.381
 5823POPC   NC374195   2.996  41.492   5.473
 5823POPC   PO474196   2.379  41.834   5.468
 5823POPC   GL174197   2.649  41.729   5.785
 5823POPC   GL274198   2.688  41.361   5.843
 5823POPC   C1A74199   2.729  41.858   6.197
 5823POPC   D2A74200   2.796  41.648   6.578
 5823POPC   C3A74201   2.960  41.818   6.910
 5823POPC   C4A74202   2.773  41.800   7.279
 5823POPC   C1B74203   2.599  41.290   6.267
 5823POPC   C2B74204   2.724  41.149   6.673
 5823POPC   C3B74205   2.940  41.322   7.036
 5823POPC   C4B74206   3.087  41.412   7.429
 5824POPC   NC374207  40.847  19.366   5.445
 5824POPC   PO474208  41.006  18.793   5.213
 5824POPC   GL174209  40.853  18.901   5.670
 5824POPC   GL274210  40.509  18.956   5.803
 5824POPC   C1A74211  40.885  19.142   6.116
 5824POPC   D2A74212  40.967  18.974   6.545
 5824POPC   C3A74213  40.912  19.031   6.987
 5824POPC   C4A74214  40.881  18.752   7.330
 5824POPC   C1B74215  40.427  19.354   6.104
 5824POPC   C2B74216  40.625  19.393   6.550
 5824POPC   C3B74217  40.514  19.374   7.016
 5824POPC   C4B74218  40.718  19.228   7.434
 5825W        W74219  35.401  43.815   4.407
 5826W        W74220  29.388  33.374  14.478
 5827W        W74221  27.320  21.749   2.171
 5828W        W74222   6.672  13.113   3.699
 5829W        W74223   2.006  39.834  14.912
 5830W        W74224  12.191  38.615  10.503
 5831W        W74225  28.658  28.857   1.229
 5832W        W74226  16.256  42.384   3.091
 5833W        W74227  28.267  26.649   4.641
 5834W        W74228  34.789  14.651  13.016
 5835W        W74229  32.518   0.683  10.999
 5836W        W74230   2.879  18.491   3.641
 5837W        W74231  23.554  31.861   4.572
 5838W        W74232  13.622  18.057   3.661
 5839W        W74233   5.289  27.523  10.604
 5840W        W74234   2.030  31.904  13.967
 5841W        W74235   5.446   3.341   1.810
 5842W        W74236  15.112  19.033  13.895
 5843W        W74237   5.613  31.202   3.662
 5844W        W74238   6.870  40.077   0.256
 5845W        W74239  36.484   0.876   2.922
 5846W        W74240  13.182  44.429  10.597
 5847W        W74241  26.529  11.224  14.363
 5848W        W74242  41.098  38.850   2.310
 5849W        W74243  44.852  43.492  12.238
 5850W        W74244  29.895   8.250   4.875
 5851W        W74245  28.238  42.928   4.973
 5852W        W74246  19.142  42.243  12.514
 5853W        W74247   7.486  33.944   0.591
 5854W        W74248  43.351  17.534   1.692
 5855W        W74249  11.378  16.761   4.458
 5856W        W74250  41.948  41.789  12.113
 5857W        W74251  31.475  37.969  14.075
 5858W        W74252  25.183  32.886  11.150
 5859W        W74253  16.735  41.291  12.479
 5860W        W74254  13.527  30.951  14.970
 5861W        W74255  30.814  44.800   1.358
 5862W        W74256   5.142  16.871   9.897
 5863W        W74257  31.503   6.194   1.874
 5864W        W74258  17.329  44.303  11.065
 5865W        W74259   7.684  13.297   4.531
 5866W        W74260   0.413  38.464  14.227
 5867W        W74261   9.142   5.732  14.811
 5868W        W74262   7.468  17.866  11.144
 5869W        W74263  38.949  17.148  12.409
 5870W        W74264  15.619   5.935  11.613
 5871W        W74265  17.759  10.747   0.366
 5872W        W74266  28.445  35.099  12.574
 5873W        W74267  34.206  35.978  11.570
 5874W        W74268  12.054  39.925   4.533
 5875W        W74269   6.365   5.324   2.827
 5876W        W74270  32.529  14.064   2.576
 5877W        W74271  38.307  42.076  13.870
 5878W        W74272  10.406  10.288  11.526
 5879W        W74273  15.360   6.906  11.224
 5880W        W74274   5.455  38.602  13.017
 5881W        W74275  30.461  15.332   4.257
 5882W        W74276  28.531   6.199   3.097
 5883W        W74277  43.573  32.700  11.087
 5884W        W74278  30.843  25.973  12.969
 5885W        W74279  17.096   0.866   3.669
 5886W        W74280   1.070   8.599   2.429
 5887W        W74281  27.115  16.299   2.045
 5888W        W74282  31.598  43.024  10.665
 5889W        W74283  20.280  40.265  14.617
 5890W        W74284  16.515   3.868   2.251
 5891W        W74285  35.410  11.457   2.705
 5892W        W74286  26.637  36.149  10.725
 5893W        W74287  35.015  31.080   2.098
 5894W        W74288   6.654  42.264  13.439
 5895W        W74289  40.757  44.325  11.666
 5896W        W74290  42.631  32.522   3.252
 5897W        W74291  35.566  34.349  13.465
 5898W        W74292  18.999  11.219  14.062
 5899W        W74293  35.707  10.758   0.556
 5900W        W74294  21.498  10.223   0.184
 5901W        W74295  35.321  28.326   2.869
 5902W        W74296  35.872  41.246  11.585
 5903W        W74297   7.623  40.297  14.411
 5904W        W74298   1.205  21.044  12.476
 5905W        W74299   9.779  13.322   4.338
 5906W        W74300  20.793  23.611   3.678
 5907W        W74301  32.949   0.845   0.928
 5908W        W74302  30.530   4.222  12.838
 5909W        W74303   0.217  15.829   3.604
 5910W        W74304  10.755  27.851  10.654
 5911W        W74305  17.240   3.496  11.094
 5912W        W74306  14.178  43.550   5.018
 5913W        W74307  20.665  17.387   1.902
 5914W        W74308  37.046  38.603  12.981
 5915W        W74309  14.767  37.291   0.821
 5916W        W74310  35.626  23.124  13.386
 5917W        W74311  19.909   4.644   1.216
 5918W        W74312  39.045  14.271  11.546
 5919W        W74313   0.902   8.802  12.975
 5920W        W74314  40.363  28.529   4.152
 5921W        W74315   9.388  38.902  14.479
 5922W        W74316  40.028  17.290   3.726
 5923W        W74317  32.522  23.626   4.680
 5924W        W74318  27.329   8.651  12.504
 5925W        W74319  30.183  28.746   3.335
 5926W        W74320  27.675  17.555   0.383
 5927W        W74321  30.939  10.699  12.955
 5928W        W74322   2.947   2.956  10.675
 5929W        W74323   2.843  23.219   3.261
 5930W        W74324  10.542  44.739  13.862
 5931W        W74325   8.901  18.016  14.399
 5932W        W74326  27.025  18.281   2.820
 5933W        W74327   1.704  16.477  13.820
 5934W        W74328  20.751  25.391  13.661
 5935W        W74329   0.730  37.756   0.399
 5936W        W74330   3.919   7.339  10.864
 5937W        W74331   0.562  33.485  10.968
 5938W        W74332  25.123  20.699   1.214
 5939W        W74333  18.324   7.721   3.201
 5940W        W74334  13.743   2.022  13.627
 5941W        W74335  30.678  25.551   0.650
 5942W        W74336  42.568  10.896  13.851
 5943W        W74337  29.631  19.294   0.285
 5944W        W74338  41.512  15.375  12.195
 5945W        W74339   5.095  20.100  14.262
 5946W        W74340  22.106  43.724   0.414
 5947W        W74341  22.093  21.241   5.020
 5948W        W74342  33.058  20.562  11.192
 5949W        W74343  22.254  37.010  14.211
 5950W        W74344  19.541  34.463  12.537
 5951W        W74345  43.504  35.858  12.144
 5952W        W74346  41.373   8.659   4.035
 5953W        W74347  34.538  13.567  14.442
 5954W        W74348  30.450  17.761   3.630
 5955W        W74349  17.061   8.735   2.104
 5956W        W74350  40.830  25.746   0.032
 5957W        W74351  18.752  35.822   2.837
 5958W        W74352  39.531  40.158   1.680
 5959W        W74353  38.437  37.398   4.613
 5960W        W74354  42.632  21.500   0.399
 5961W        W74355  24.122  31.461   3.667
 5962W        W74356   1.140  12.313  11.798
 5963W        W74357  23.256  41.578  14.321
 5964W        W74358  24.682   9.624   3.712
 5965W        W74359   8.655  17.278   0.361
 5966W        W74360  44.722   4.252   0.004
 5967W        W74361   0.357  28.495   2.334
 5968W        W74362  31.348   5.337   0.304
 5969W        W74363  38.047   8.650  11.266
 5970W        W74364  27.906  38.153  14.880
 5971W        W74365   6.875  23.284   2.792
 5972W        W74366  42.356  26.004   0.140
 5973W        W74367  32.605  44.655  12.966
 5974W        W74368  40.832   5.711   2.923
 5975W        W74369   1.052  11.403   4.909
 5976W        W74370  44.889  31.854   2.715
 5977W        W74371   9.159  34.352  14.977
 5978W        W74372  22.168  34.882  10.430
 5979W        W74373   6.430  13.536  10.985
 5980W        W74374   0.886   6.785  10.942
 5981W        W74375  26.992  30.090   3.160
 5982W        W74376   3.146   7.287  12.411
 5983W        W74377   4.942  39.853   4.416
 5984W        W74378  13.669  22.543   1.288
 5985W        W74379   1.902  41.804  11.681
 5986W        W74380  30.064  15.533  10.271
 5987W        W74381  40.889  23.624   4.473
 5988W        W74382  31.318   5.543   3.617
 5989W        W74383  43.029  25.580   2.277
 5990W        W74384  27.187  10.200   4.524
 5991W        W74385  11.045  31.786  12.141
 5992W        W74386   8.820  40.037  10.749
 5993W        W74387  16.140  11.822   0.476
 5994W        W74388  36.456  40.480   2.277
 5995W        W74389  33.967   7.305  12.444
 5996W        W74390  10.817  32.485   0.128
 5997W        W74391  40.905   2.506  14.918
 5998W        W74392   1.884  15.589   1.078
 5999W        W74393  13.948  18.324   0.757
 6000W        W74394  19.603  28.438  14.385
 6001W        W74395   7.172  37.436  12.929
 6002W        W74396  24.918  36.408  11.745
 6003W        W74397  26.541   0.210   0.904
 6004W        W74398  17.184  19.874   2.466
 6005W        W74399  20.427  20.295   2.030
 6006W        W74400   2.203   9.817   0.219
 6007W        W74401  14.587  35.228   0.850
 6008W        W74402  19.822  21.408  14.921
 6009W        W74403  40.151  41.358   0.894
 6010W        W74404  38.355  27.973   0.827
 6011W        W74405  33.510  12.614  12.627
 6012W        W74406  42.024  44.897   3.169
 6013W        W74407   7.621   1.203   4.680
 6014W        W74408   5.897   6.769   5.584
 6015W        W74409   5.900  22.843   0.263
 6016W        W74410  36.440   3.402   2.258
 6017W        W74411   8.866   8.092   2.762
 6018W        W74412  35.656  12.877   3.772
 6019W        W74413  12.066  29.166  14.858
 6020W        W74414  10.517  23.498   5.057
 6021W        W74415  43.677  14.167   4.347
 6022W        W74416  18.520  38.421  13.726
 6023W        W74417  30.541  37.144  11.937
 6024W        W74418   0.336  14.300   0.686
 6025W        W74419  16.910  39.641   4.929
 6026W        W74420  14.815  25.046  11.435
 6027W        W74421  33.383  18.660   4.052
 6028W        W74422  30.595  26.472   1.836
 6029W        W74423  19.049  23.484  13.090
 6030W        W74424  43.246  14.793   2.804
 6031W        W74425   5.459  36.978  13.295
 6032W        W74426  11.124  22.515  11.106
 6033W        W74427  28.482  30.425  13.312
 6034W        W74428  44.028   2.654  14.402
 6035W        W74429   8.073   8.795   2.523
 6036W        W74430  14.738   7.411   1.638
 6037W        W74431  40.979  14.657   1.543
 6038W        W74432  34.557  43.361   2.483
 6039W        W74433  26.704   6.002  12.027
 6040W        W74434   6.422  15.821   1.618
 6041W        W74435   4.150   6.190  11.657
 6042W        W74436  13.745  28.400  10.689
 6043W        W74437  26.267  33.860   3.638
 6044W        W74438  29.492   3.406   4.027
 6045W        W74439  22.578  44.508   0.386
 6046W        W74440  16.360  24.194   3.331
 6047W        W74441   3.344   8.315  13.660
 6048W        W74442   0.043  18.854  11.317
 6049W        W74443  40.459  20.057   1.205
 6050W        W74444  39.613  38.499  10.964
 6051W        W74445  12.819  10.117  12.793
 6052W        W74446  20.718   5.248   3.816
 6053W        W74447   7.394  10.323   3.154
 6054W        W74448  29.531  37.807   0.998
 6055W        W74449  29.730  44.638  11.535
 6056W        W74450  24.775  20.117  12.959
 6057W        W74451   0.338   3.352  10.503
 6058W        W74452  19.240  36.362  14.813
 6059W        W74453   9.352  43.413  12.391
 6060W        W74454  10.139  19.677  11.458
 6061W        W74455  24.689  29.122   1.235
 6062W        W74456   8.361  44.829   0.000
 6063W        W74457   0.892  22.562  12.790
 6064W        W74458  13.582   7.987   3.081
 6065W        W74459  15.314  33.585   3.153
 6066W        W74460  12.402  13.311   1.832
 6067W        W74461  24.506  43.738   9.986
 6068W        W74462   0.895  21.784  13.861
 6069W        W74463   6.783   0.435   2.367
 6070W        W74464  41.998   9.342   4.540
 6071W        W74465  34.423  30.009   0.003
 6072W        W74466  18.269  18.338   4.752
 6073W        W74467  35.207  26.911  14.855
 6074W        W74468  22.010  43.268   1.725
 6075W        W74469   0.914  41.920   0.759
 6076W        W74470  12.766  26.158   3.119
 6077W        W74471  34.195  15.675   4.276
 6078W        W74472  43.500  33.891  12.552
 6079W        W74473   3.894  37.033   1.878
 6080W        W74474  16.109  34.085   0.737
 6081W        W74475  41.901  13.225  13.698
 6082W        W74476  21.385  11.894  14.873
 6083W        W74477  35.466  33.886   0.070
 6084W        W74478  36.694   0.353   3.647
 6085W        W74479  31.162  38.123   1.303
 6086W        W74480  26.056  22.575  10.605
 6087W        W74481  21.547  27.286   0.353
 6088W        W74482  39.559  11.615   3.810
 6089W        W74483  35.951  22.264  13.884
 6090W        W74484  15.808   2.858   4.946
 6091W        W74485  37.221   7.676   1.103
 6092W        W74486   1.645  16.190   2.402
 6093W        W74487  40.559  27.000  11.863
 6094W        W74488  21.952  35.858  10.700
 6095W        W74489   6.617  26.963   3.213
 6096W        W74490   3.292  26.549  14.378
 6097W        W74491   3.307  28.043   1.282
 6098W        W74492  18.015  21.814  14.955
 6099W        W74493  38.463  35.046   0.729
 6100W        W74494  25.004  44.204  13.578
 6101W        W74495  44.427  29.443   3.640
 6102W        W74496  14.806  19.555   4.570
 6103W        W74497  41.444   1.754   0.181
 6104W        W74498  39.685  44.327   3.065
 6105W        W74499  30.074  11.168  14.467
 6106W        W74500   5.697   8.238  12.371
 6107W        W74501  42.274  42.389   3.731
 6108W        W74502  28.282  31.418  10.845
 6109W        W74503   5.974  14.057   1.951
 6110W        W74504  39.294  19.252   3.647
 6111W        W74505  39.846   8.561   2.742
 6112W        W74506  41.895  15.076  10.435
 6113W        W74507   0.831  43.704   2.012
 6114W        W74508  44.114  15.840  11.927
 6115W        W74509   2.204  10.927  11.607
 6116W        W74510  19.806  32.092  11.600
 6117W        W74511   4.259  15.788  14.429
 6118W        W74512  28.259  11.544  13.813
 6119W        W74513   4.508  40.863   4.756
 6120W        W74514  30.256  41.576   3.184
 6121W        W74515  17.748  25.211  12.853
 6122W        W74516  17.373   7.448  11.593
 6123W        W74517   4.544  26.574  10.270
 6124W        W74518   5.348  18.449   4.050
 6125W        W74519   4.482  32.974   1.515
 6126W        W74520   8.714   1.001   1.171
 6127W        W74521  44.092  28.050   2.756
 6128W        W74522  10.664  10.332  12.998
 6129W        W74523   0.204  29.196  10.713
 6130W        W74524  18.733  20.645  10.349
 6131W        W74525  11.954   1.041   2.498
 6132W        W74526  13.688  25.774   2.334
 6133W        W74527  19.320  43.069   3.131
 6134W        W74528  16.020  41.531   2.810
 6135W        W74529   6.305   5.646  11.157
 6136W        W74530  40.583   7.201   3.366
 6137W        W74531  30.352  39.491  14.867
 6138W        W74532  37.280  17.637   4.290
 6139W        W74533  44.774  24.912   2.090
 6140W        W74534  12.047   8.099   3.565
 6141W        W74535   9.349  15.817   3.854
 6142W        W74536  20.057  22.659   3.202
 6143W        W74537   2.928  22.821  14.516
 6144W        W74538  43.209  39.461  12.729
 6145W        W74539  13.985   6.994  14.807
 6146W        W74540   4.225  12.088  14.785
 6147W        W74541  15.418  17.217   4.008
 6148W        W74542  35.103  36.836  11.062
 6149W        W74543  13.154  12.843  12.826
 6150W        W74544  26.081  20.338   3.595
 6151W        W74545   5.000   6.463   0.994
 6152W        W74546   4.425   1.743   4.799
 6153W        W74547  33.887  44.767   3.682
 6154W        W74548   6.677  27.241  12.002
 6155W        W74549  21.526  11.892  12.000
 6156W        W74550  16.919  35.038   0.117
 6157W        W74551  44.476   1.949  10.267
 6158W        W74552  24.648  24.584  12.852
 6159W        W74553   4.939   3.171  13.748
 6160W        W74554  10.876  14.323  12.670
 6161W        W74555  10.871  15.454  11.546
 6162W        W74556   9.228   1.199  10.952
 6163W        W74557   7.352  28.080   0.432
 6164W        W74558  37.242  33.668   1.704
 6165W        W74559   3.947  12.112  12.073
 6166W        W74560  35.473  20.550   1.255
 6167W        W74561  21.623  21.135   4.343
 6168W        W74562  16.755  32.981   1.301
 6169W        W74563   3.970  10.748  14.338
 6170W        W74564  30.273  43.390  12.625
 6171W        W74565  38.520  34.854   4.406
 6172W        W74566  30.785  41.043  12.061
 6173W        W74567   9.420   3.924  13.580
 6174W        W74568  10.299   7.709   1.166
 6175W        W74569  18.084  17.840   2.286
 6176W        W74570   1.430  33.082  13.861
 6177W        W74571   4.168  22.704   4.134
 6178W        W74572   9.212  10.083   0.007
 6179W        W74573  35.139   6.753   2.865
 6180W        W74574   9.891  24.142   1.896
 6181W        W74575  37.769   5.782   9.969
 6182W        W74576  31.179   5.389  13.354
 6183W        W74577  42.147  29.071   4.738
 6184W        W74578  31.160  26.016  11.747
 6185W        W74579   9.765   6.731   2.653
 6186W        W74580  10.077   3.230   3.130
 6187W        W74581  23.014  27.555  12.793
 6188W        W74582   2.180   2.286   1.741
 6189W        W74583  20.753   1.181  13.546
 6190W        W74584  22.271  22.104  13.048
 6191W        W74585  19.738  32.768   3.390
 6192W        W74586   5.426   0.232   2.765
 6193W        W74587   9.647   3.391   3.351
 6194W        W74588  30.630  20.161   4.093
 6195W        W74589  42.938  41.027  14.519
 6196W        W74590  34.374  32.366  12.597
 6197W        W74591   7.419  30.443   0.061
 6198W        W74592   9.796  19.075   3.967
 6199W        W74593   8.247  24.020  11.609
 6200W        W74594  31.373  23.526   0.477
 6201W        W74595   7.667   9.270  13.108
 6202W        W74596  20.504  34.624  12.735
 6203W        W74597  41.983  17.821   2.748
 6204W        W74598  39.073  25.709  11.236
 6205W        W74599   3.257  20.818   2.719
 6206W        W74600   2.783  19.265   2.340
 6207W        W74601  28.429  13.344   3.992
 6208W        W74602  11.251  33.066   0.689
 6209W        W74603  18.614   5.421  14.453
 6210W        W74604   8.821  37.966  11.600
 6211W        W74605  43.392  36.398  10.941
 6212W        W74606  43.919  14.217   0.047
 6213W        W74607  32.140  12.597  13.829
 6214W        W74608  11.644  28.496  12.577
 6215W        W74609   1.484  22.279  12.095
 6216W        W74610   2.958  13.504  11.793
 6217W        W74611  38.831  24.120   1.950
 6218W        W74612  23.289  33.415  11.679
 6219W        W74613  28.158  18.951   1.493
 6220W        W74614  10.408   3.179   4.476
 6221W        W74615  17.126  24.673  12.763
 6222W        W74616   9.694  34.000   0.380
 6223W        W74617  38.160   0.705  14.120
 6224W        W74618  25.176  41.534   1.781
 6225W        W74619  26.483  15.288   2.238
 6226W        W74620   9.729   8.531   0.169
 6227W        W74621  39.982  19.748   1.264
 6228W        W74622  11.216  11.824   0.264
 6229W        W74623  11.816  27.390  13.835
 6230W        W74624  40.034  29.418   1.264
 6231W        W74625  16.834  26.061  13.055
 6232W        W74626   6.730  11.300  13.923
 6233W        W74627  11.594  42.712   2.520
 6234W        W74628  39.580  16.138   4.209
 6235W        W74629  34.964  34.417   0.629
 6236W        W74630  17.548  10.234  10.514
 6237W        W74631  44.172  31.936   1.221
 6238W        W74632  14.820   4.372   5.117
 6239W        W74633  33.434  42.460   4.234
 6240W        W74634   1.303  12.576   3.268
 6241W        W74635  26.553  31.969  11.562
 6242W        W74636  21.698  18.169  11.407
 6243W        W74637  35.070  24.536  12.485
 6244W        W74638  30.338  12.881   0.874
 6245W        W74639   9.912  25.693  10.103
 6246W        W74640  18.204  40.015  14.106
 6247W        W74641  43.017  43.345   3.166
 6248W        W74642  12.760   3.680   0.404
 6249W        W74643  19.073   7.819   4.605
 6250W        W74644  10.441  18.379  10.305
 6251W        W74645   9.724  15.336   0.759
 6252W        W74646  14.877  13.079   4.494
 6253W        W74647  38.559  36.150  11.666
 6254W        W74648  24.261  33.158  11.078
 6255W        W74649  20.302  14.673  14.975
 6256W        W74650  16.789  27.061   4.622
 6257W        W74651  44.496   7.503  10.805
 6258W        W74652   7.829  40.405  11.848
 6259W        W74653  23.799  31.964  11.462
 6260W        W74654  44.851  16.854  12.283
 6261W        W74655  43.301  21.491  12.987
 6262W        W74656   1.967  13.652   3.616
 6263W        W74657  28.771  17.591   4.027
 6264W        W74658  40.018  31.490   1.750
 6265W        W74659  26.922  25.670  13.279
 6266W        W74660  42.522   7.438   0.474
 6267W        W74661  16.613  15.748  12.421
 6268W        W74662  15.518  25.528   0.782
 6269W        W74663  27.201  33.545   4.580
 6270W        W74664  35.521   1.214  13.756
 6271W        W74665  33.569  29.974  13.839
 6272W        W74666  30.558  16.151  10.702
 6273W        W74667  18.819  36.148  14.054
 6274W        W74668   9.876  38.688  14.486
 6275W        W74669  16.761  33.454  10.715
 6276W        W74670  44.146  31.102   4.502
 6277W        W74671  18.131  26.585  14.322
 6278W        W74672   0.781  42.543  11.044
 6279W        W74673   0.912   4.711   0.931
 6280W        W74674  37.656  29.688  11.762
 6281W        W74675  24.136  37.068  11.560
 6282W        W74676  36.689  22.442  11.588
 6283W        W74677  14.083  16.358  14.468
 6284W        W74678   4.733  19.689   1.397
 6285W        W74679   4.642  16.936   0.396
 6286W        W74680  37.338   4.820   3.709
 6287W        W74681  25.248  35.537  14.316
 6288W        W74682  36.134  38.415   2.738
 6289W        W74683  29.614   6.438  11.628
 6290W        W74684  14.090   7.224  14.293
 6291W        W74685  42.752  20.312   3.903
 6292W        W74686  12.803  12.722  11.734
 6293W        W74687  20.928  34.312  10.755
 6294W        W74688  38.487  22.634  14.472
 6295W        W74689  37.983  12.947   4.524
 6296W        W74690  43.915  27.698   0.298
 6297W        W74691  39.513   1.759  14.923
 6298W        W74692   4.644   5.712   2.839
 6299W        W74693   9.662  33.570  10.793
 6300W        W74694  40.358   5.627  14.889
 6301W        W74695  31.447  24.940   3.108
 6302W        W74696   3.044  11.318   4.926
 6303W        W74697  20.936  28.546   4.093
 6304W        W74698   1.384  17.923   2.663
 6305W        W74699  21.339  25.277  11.068
 6306W        W74700  15.284  35.496  12.182
 6307W        W74701   3.361   7.925   0.211
 6308W        W74702  28.269  39.356  12.482
 6309W        W74703   8.209  41.235  12.028
 6310W        W74704   6.393  23.002   0.447
 6311W        W74705   0.297  23.608  11.243
 6312W        W74706  27.609  23.480   1.398
 6313W        W74707  12.719  12.022  14.409
 6314W        W74708  24.943  37.862   3.285
 6315W        W74709  11.856  42.017   3.331
 6316W        W74710  27.173  17.876  11.424
 6317W        W74711  43.228  31.871  14.908
 6318W        W74712  27.387  40.455   4.126
 6319W        W74713   3.401  18.675   1.379
 6320W        W74714   9.806  39.567   2.243
 6321W        W74715  33.823  27.448  12.015
 6322W        W74716   2.981  36.310   3.159
 6323W        W74717  28.711  31.189  14.699
 6324W        W74718  37.860  15.816   2.286
 6325W        W74719  44.312  26.768   4.300
 6326W        W74720  41.020   1.823  11.874
 6327W        W74721  10.709   7.180  13.841
 6328W        W74722  37.673  36.458   4.691
 6329W        W74723  24.001   8.177  10.711
 6330W        W74724  20.278   7.159  13.947
 6331W        W74725  11.359   3.665   2.825
 6332W        W74726   5.734  44.383   2.572
 6333W        W74727  41.004   4.347   2.299
 6334W        W74728  19.616  24.120  12.742
 6335W        W74729  34.200  29.051   3.265
 6336W        W74730  25.419  38.505   1.037
 6337W        W74731  44.086  22.178  12.889
 6338W        W74732  10.805  27.210   0.392
 6339W        W74733  20.929  35.428  10.846
 6340W        W74734  44.271  38.048  12.432
 6341W        W74735  11.820  19.510  14.520
 6342W        W74736  22.745  28.180   3.308
 6343W        W74737  14.521  37.619   2.213
 6344W        W74738  35.584  22.220   3.515
 6345W        W74739  14.884  33.225   2.396
 6346W        W74740  13.904   5.328   2.410
 6347W        W74741   8.378   0.308   3.944
 6348W        W74742  33.500  28.958  11.559
 6349W        W74743  41.803  23.982  13.849
 6350W        W74744  36.062   2.258  10.752
 6351W        W74745   1.516   6.055   3.671
 6352W        W74746  29.430   7.964   1.329
 6353W        W74747  11.446  27.933   1.720
 6354W        W74748  17.735   5.654  11.680
 6355W        W74749  35.814  32.279  12.544
 6356W        W74750  26.002   2.538   2.225
 6357W        W74751  21.180  24.115   3.786
 6358W        W74752   5.867   5.281   5.127
 6359W        W74753   6.811  12.142  13.966
 6360W        W74754  23.670  26.919   1.390
 6361W        W74755  13.089  13.410  13.961
 6362W        W74756  14.334   3.251   2.938
 6363W        W74757   2.020  26.742   3.271
 6364W        W74758  10.083  44.211  13.121
 6365W        W74759  15.244  31.892   1.849
 6366W        W74760  40.296   5.467  14.369
 6367W        W74761  42.385  26.915  12.092
 6368W        W74762   3.102  40.312   4.414
 6369W        W74763  33.530  27.215   0.697
 6370W        W74764  28.845  17.013   3.590
 6371W        W74765  41.312  31.894  12.491
 6372W        W74766  33.595  33.412  11.480
 6373W        W74767  17.371   1.277   0.733
 6374W        W74768  39.393  38.454   3.853
 6375W        W74769   5.646  35.014   4.570
 6376W        W74770  34.877  19.817   2.429
 6377W        W74771  18.681   0.047   1.363
 6378W        W74772  18.352  24.222   4.184
 6379W        W74773  40.975  24.404  12.476
 6380W        W74774  36.057  27.900  10.730
 6381W        W74775  14.650  22.631   0.907
 6382W        W74776  12.400  24.164   2.858
 6383W        W74777  43.539  30.888  13.091
 6384W        W74778  11.430  11.102   4.308
 6385W        W74779  11.242   7.240  13.503
 6386W        W74780   0.711  40.415   0.035
 6387W        W74781  18.552  29.708   2.248
 6388W        W74782   9.401  35.015   1.771
 6389W        W74783  23.491   1.956  13.668
 6390W        W74784  37.120  20.256   3.210
 6391W        W74785  37.273   8.858   4.244
 6392W        W74786  12.869   4.395   2.297
 6393W        W74787  25.037  21.527  11.231
 6394W        W74788  32.590  20.365   3.665
 6395W        W74789  28.352  18.754   0.324
 6396W        W74790  13.192   4.655   1.419
 6397W        W74791   2.934   6.458   2.784
 6398W        W74792  23.228  11.390   2.940
 6399W        W74793  25.612  11.671  14.274
 6400W        W74794  30.372  34.905  12.309
 6401W        W74795  14.363  32.132   2.249
 6402W        W74796  26.459  44.894   3.107
 6403W        W74797   9.617  18.521   1.661
 6404W        W74798   3.316  23.649  13.491
 6405W        W74799  36.879   5.282   4.333
 6406W        W74800  18.206   9.353  11.739
 6407W        W74801   9.989   3.230  12.103
 6408W        W74802  16.344  39.863   0.898
 6409W        W74803  16.277  43.294  12.295
 6410W        W74804  14.229  13.378   3.599
 6411W        W74805  25.852  35.535   3.729
 6412W        W74806  40.257  21.536  13.084
 6413W        W74807   3.717  14.860   1.375
 6414W        W74808  29.441  23.439  12.962
 6415W        W74809  24.343  25.601   4.164
 6416W        W74810   1.202  11.367   0.698
 6417W        W74811  30.077  35.236  12.048
 6418W        W74812  32.516   0.964  13.119
 6419W        W74813   7.101  39.374  13.039
 6420W        W74814  16.927   5.678  10.822
 6421W        W74815  39.977  40.936  12.341
 6422W        W74816  22.397  14.369   3.215
 6423W        W74817   2.796   0.034   3.568
 6424W        W74818   9.389   0.338  10.417
 6425W        W74819  16.111   1.678   2.309
 6426W        W74820  34.553  32.522   3.326
 6427W        W74821  38.354  26.045   3.941
 6428W        W74822  33.559  12.906   1.242
 6429W        W74823  24.095  44.881   5.445
 6430W        W74824  30.990  29.050   3.214
 6431W        W74825   9.297   0.067   1.236
 6432W        W74826  15.843   9.798   0.541
 6433W        W74827  13.671  27.506  11.192
 6434W        W74828  28.546  12.366   3.221
 6435W        W74829   3.300  27.649   0.965
 6436W        W74830  22.638   1.035  13.628
 6437W        W74831   8.634  12.376  11.048
 6438W        W74832  24.299  22.600   0.855
 6439W        W74833   9.500  38.406   1.518
 6440W        W74834   5.148  28.123  14.739
 6441W        W74835   3.208   8.824   4.954
 6442W        W74836   8.167  19.970   3.115
 6443W        W74837  11.722  38.584  11.748
 6444W        W74838  17.196  14.797  13.259
 6445W        W74839  39.502  39.110   1.850
 6446W        W74840  25.211  26.084   0.071
 6447W        W74841  39.698  43.389   0.822
 6448W        W74842  22.254  20.759  13.069
 6449W        W74843  10.333   9.039  13.477
 6450W        W74844   5.203  14.401   3.079
 6451W        W74845  25.381   7.592   3.138
 6452W        W74846   6.769  24.584   4.001
 6453W        W74847  32.429  36.749  11.986
 6454W        W74848  25.435  27.677   2.289
 6455W        W74849  17.563  38.222   1.755
 6456W        W74850   9.782  41.737  12.641
 6457W        W74851  30.633  16.814   3.205
 6458W        W74852   4.167   8.200   3.733
 6459W        W74853  13.818  22.400   0.436
 6460W        W74854  12.585  19.191  14.768
 6461W        W74855  12.693  20.034  14.194
 6462W        W74856  37.298  26.140   1.742
 6463W        W74857   5.000  12.017  10.769
 6464W        W74858  23.334  37.029   3.549
 6465W        W74859   3.839  26.037   4.326
 6466W        W74860  11.546  12.645   4.598
 6467W        W74861  18.586  10.581   2.703
 6468W        W74862  44.182  15.823   3.686
 6469W        W74863  36.513  27.646   3.956
 6470W        W74864  21.166  36.839  12.140
 6471W        W74865  23.212  38.852  12.651
 6472W        W74866  14.994  43.000  11.841
 6473W        W74867  38.384  15.643  14.729
 6474W        W74868  19.707  13.574   4.863
 6475W        W74869  20.215   7.132   3.405
 6476W        W74870  39.507  10.610  12.073
 6477W        W74871  33.485  14.074  13.646
 6478W        W74872  10.627  18.680  12.825
 6479W        W74873   3.553  16.546  10.051
 6480W        W74874   7.382  12.757   1.386
 6481W        W74875   8.094  19.419  10.483
 6482W        W74876  18.767  15.681   4.667
 6483W        W74877  18.522  18.138  13.937
 6484W        W74878  37.520  30.839  12.575
 6485W        W74879  15.399  15.600   0.267
 6486W        W74880   0.859  31.475  11.335
 6487W        W74881  22.193   5.716  12.939
 6488W        W74882  21.250  16.915   2.340
 6489W        W74883   1.505  20.181  12.003
 6490W        W74884  39.956  41.068  13.930
 6491W        W74885  12.524  43.183  13.930
 6492W        W74886   0.043  28.786  12.377
 6493W        W74887  34.959  31.932  14.785
 6494W        W74888   6.648  15.961  14.435
 6495W        W74889  39.057  31.548  13.802
 6496W        W74890  36.625  29.367   4.909
 6497W        W74891  34.541  17.214  14.835
 6498W        W74892   1.476  16.282  10.831
 6499W        W74893  14.268  33.647   1.855
 6500W        W74894  18.836   3.305   2.375
 6501W        W74895   2.830  34.497  10.491
 6502W        W74896   1.860  23.785   3.187
 6503W        W74897  41.535  16.219  11.527
 6504W        W74898  40.958  34.693   2.754
 6505W        W74899  36.068  36.838  11.245
 6506W        W74900  21.018   2.596  11.615
 6507W        W74901  11.153  16.235   0.309
 6508W        W74902  19.239  14.951   0.369
 6509W        W74903   3.916  28.717   0.921
 6510W        W74904   0.301  17.260  10.713
 6511W        W74905  43.547   7.458   0.245
 6512W        W74906   7.315  21.082   1.246
 6513W        W74907   7.523  17.175   2.781
 6514W        W74908   4.418  28.013  13.430
 6515W        W74909  37.448  19.082   2.282
 6516W        W74910  27.030   7.671   1.767
 6517W        W74911  40.704   7.864   1.715
 6518W        W74912   2.728  37.337  11.987
 6519W        W74913  23.206  22.041  11.214
 6520W        W74914  37.357  21.583   0.961
 6521W        W74915   4.289  17.717   3.907
 6522W        W74916  31.668   0.845  14.920
 6523W        W74917  25.077  29.615   2.505
 6524W        W74918  16.686  26.151  10.775
 6525W        W74919  24.197  23.737  14.084
 6526W        W74920  26.588  20.326  10.799
 6527W        W74921  24.123  25.216  11.476
 6528W        W74922  26.004  17.654  11.636
 6529W        W74923  37.086  34.841   4.179
 6530W        W74924  43.182  10.855   3.292
 6531W        W74925  39.031  36.302   4.862
 6532W        W74926  15.306  14.544   0.132
 6533W        W74927   0.610  19.827   2.155
 6534W        W74928   1.950  15.585  10.772
 6535W        W74929   7.419  28.604  10.996
 6536W        W74930  25.005  42.771   4.240
 6537W        W74931  10.698  20.557  10.606
 6538W        W74932  21.072  29.223   4.859
 6539W        W74933   8.101  27.738   4.161
 6540W        W74934  35.891  38.240   4.106
 6541W        W74935  17.178  22.386  13.466
 6542W        W74936  22.137   7.376  11.530
 6543W        W74937   6.878   5.168  12.484
 6544W        W74938  31.363  42.816  14.480
 6545W        W74939  18.119  18.710  13.396
 6546W        W74940  36.123  41.132   3.321
 6547W        W74941   4.261  32.530  14.295
 6548W        W74942  27.188  39.058   1.038
 6549W        W74943  41.552  40.764   2.810
 6550W        W74944  25.573  31.072   0.806
 6551W        W74945  34.390  28.585   0.184
 6552W        W74946  17.447  17.760  13.414
 6553W        W74947  10.874  11.184  14.737
 6554W        W74948  10.196  33.799   0.434
 6555W        W74949  39.074  36.868   0.876
 6556W        W74950  41.285  43.829   0.478
 6557W        W74951  11.899  23.134   1.926
 6558W        W74952  32.471  30.628   3.236
 6559W        W74953  27.715  43.267   3.167
 6560W        W74954  40.651  25.272  12.880
 6561W        W74955  13.726  11.842  13.159
 6562W        W74956  24.460  11.582  12.880
 6563W        W74957  38.103  38.064  10.705
 6564W        W74958  22.788  39.438  11.950
 6565W        W74959  44.727   0.052  11.045
 6566W        W74960  27.624   3.170  12.402
 6567W        W74961  24.434  42.525   0.397
 6568W        W74962  41.867  32.624   1.149
 6569W        W74963  19.923  20.315   2.197
 6570W        W74964  19.397   3.107   5.052
 6571W        W74965  28.674  41.308  13.164
 6572W        W74966  28.617   1.887  14.383
 6573W        W74967   9.894  41.595   2.363
 6574W        W74968  23.136  32.103   4.739
 6575W        W74969  15.279  26.495   1.188
 6576W        W74970  32.479  16.777  12.853
 6577W        W74971  22.210  27.438  14.749
 6578W        W74972  42.456   7.180   3.297
 6579W        W74973   5.263  14.922   0.410
 6580W        W74974   5.883  11.172  10.871
 6581W        W74975  27.131  37.758  12.072
 6582W        W74976  17.047  31.451  10.419
 6583W        W74977  41.276  43.299   2.845
 6584W        W74978  42.008  16.516   0.494
 6585W        W74979   0.634  44.814   0.968
 6586W        W74980   0.006  37.265  14.917
 6587W        W74981  38.898  15.835   4.916
 6588W        W74982   7.754  37.565   0.713
 6589W        W74983   7.217  23.419   9.620
 6590W        W74984  19.290   2.383  13.867
 6591W        W74985  44.336  10.499  14.026
 6592W        W74986  40.513  14.666   2.432
 6593W        W74987  12.930  20.775  10.565
 6594W        W74988   0.913  18.867   1.851
 6595W        W74989   9.152  11.744  14.338
 6596W        W74990  10.266  42.452   0.801
 6597W        W74991  32.141  31.612   2.677
 6598W        W74992  14.767  34.610   2.790
 6599W        W74993   1.768   3.376   3.542
 6600W        W74994  16.066  27.830  10.980
 6601W        W74995  35.993  25.268   0.472
 6602W        W74996   8.047  15.076  10.622
 6603W        W74997   1.409  30.984  14.774
 6604W        W74998  37.705  20.281   3.866
 6605W        W74999  22.561  40.971  12.575
 6606W        W75000  21.225  16.296   1.740
 6607W        W75001   0.063   3.896   0.823
 6608W        W75002  39.764  15.798  10.786
 6609W        W75003  33.042  14.572   4.469
 6610W        W75004   7.797  11.903  14.633
 6611W        W75005  31.673  37.830   0.361
 6612W        W75006  16.886  23.066  11.582
 6613W        W75007  33.462  39.467  10.913
 6614W        W75008  40.284   1.815   3.212
 6615W        W75009  41.906  38.556   1.652
 6616W        W75010  17.540  20.723  11.070
 6617W        W75011   7.470   6.449  11.559
 6618W        W75012  17.355  21.587  12.023
 6619W        W75013   4.764  28.677  13.152
 6620W        W75014  11.363  30.599  11.459
 6621W        W75015  30.504  23.867   0.230
 6622W        W75016  11.307  17.112   2.903
 6623W        W75017  37.270  39.766  13.783
 6624W        W75018  17.058  40.177  12.452
 6625W        W75019  15.074  38.734   4.223
 6626W        W75020  17.068  30.563   3.845
 6627W        W75021  30.918  18.111   0.860
 6628W        W75022  11.403  44.468   1.826
 6629W        W75023  27.167  25.574   3.901
 6630W        W75024   3.204  38.951  11.540
 6631W        W75025  43.462  14.399   0.253
 6632W        W75026  34.353  44.286   2.991
 6633W        W75027   4.008  20.061   1.407
 6634W        W75028   7.352   5.268  12.643
 6635W        W75029  20.513   9.615   1.367
 6636W        W75030   9.912  10.337   4.758
 6637W        W75031   4.722   7.102  10.717
 6638W        W75032  42.921  32.889  12.801
 6639W        W75033  17.606  21.591  14.006
 6640W        W75034  27.541  43.471  12.093
 6641W        W75035   4.594  12.277   3.767
 6642W        W75036  24.156  37.457   9.942
 6643W        W75037  20.748  41.679   4.106
 6644W        W75038  25.629  14.850  13.385
 6645W        W75039  36.806  39.375   3.714
 6646W        W75040  20.556  20.018   4.750
 6647W        W75041  34.663   4.326   2.759
 6648W        W75042  20.910  24.064   4.196
 6649W        W75043  31.805  19.765   2.714
 6650W        W75044   2.268   0.513  11.101
 6651W        W75045  13.295  14.111   0.443
 6652W        W75046  14.358   7.281  11.827
 6653W        W75047   9.697  18.327   0.204
 6654W        W75048  38.096  26.150  14.880
 6655W        W75049  34.284  17.916  10.623
 6656W        W75050  13.029  38.750   5.222
 6657W        W75051   0.950   0.333   2.655
 6658W        W75052  19.090  10.674   0.368
 6659W        W75053   8.012  11.700   3.648
 6660W        W75054   0.801  33.265   0.745
 6661W        W75055  31.375  37.990  14.942
 6662W        W75056   2.694   9.254  14.941
 6663W        W75057  29.139  35.451   2.670
 6664W        W75058  41.072  35.040   4.522
 6665W        W75059   4.995  38.866   1.178
 6666W        W75060  38.468  44.316   4.904
 6667W        W75061  33.661   8.718   2.260
 6668W        W75062  22.983  17.697   3.636
 6669W        W75063   9.080   5.280   1.987
 6670W        W75064  30.600  25.117   0.279
 6671W        W75065  25.230  26.069   4.147
 6672W        W75066  26.047   8.719  11.022
 6673W        W75067  36.586   7.165  13.011
 6674W        W75068  29.394  41.516   1.366
 6675W        W75069  15.812  16.213  13.439
 6676W        W75070  28.444  25.953   1.000
 6677W        W75071  25.615  11.850   2.789
 6678W        W75072  16.519  35.350  13.513
 6679W        W75073  33.684  39.012  14.169
 6680W        W75074  25.133  29.162   0.962
 6681W        W75075   7.182  26.737  13.318
 6682W        W75076  37.606  26.037  12.908
 6683W        W75077  29.380   3.903   0.456
 6684W        W75078   2.144  30.588  14.985
 6685W        W75079  21.433  42.388   3.698
 6686W        W75080  41.305  42.075   3.148
 6687W        W75081  28.275   7.348  14.833
 6688W        W75082  29.112  26.551  13.381
 6689W        W75083  27.210  29.398  13.845
 6690W        W75084  36.584  13.342   3.657
 6691W        W75085   1.837  44.731   2.784
 6692W        W75086   5.469  10.530  12.547
 6693W        W75087  18.964  10.464  14.476
 6694W        W75088  19.043   1.850   2.299
 6695W        W75089  33.161  34.876   1.439
 6696W        W75090   3.672  22.559   9.959
 6697W        W75091  34.637  31.058   0.327
 6698W        W75092   6.834  24.728   0.758
 6699W        W75093  13.247  23.310  11.255
 6700W        W75094  32.463  34.904  10.658
 6701W        W75095  16.895  11.287   2.820
 6702W        W75096  31.902  40.855  14.907
 6703W        W75097  10.330  37.850  13.371
 6704W        W75098  32.475  40.795   4.848
 6705W        W75099  44.978  29.478   4.581
 6706W        W75100   1.244   3.873  11.445
 6707W        W75101  34.558  14.256   0.425
 6708W        W75102  13.661   9.655  12.097
 6709W        W75103  17.340  17.759  11.136
 6710W        W75104  35.211  27.392   4.242
 6711W        W75105   4.441  16.168   3.192
 6712W        W75106  23.711  34.796  11.303
 6713W        W75107  33.676  12.748  11.151
 6714W        W75108   6.479  24.966  14.011
 6715W        W75109  31.127   5.121   2.456
 6716W        W75110  41.196  37.847  11.462
 6717W        W75111  43.457  21.443   5.053
 6718W        W75112   6.838  31.213  14.436
 6719W        W75113  21.232   7.798  14.835
 6720W        W75114  10.789  40.577  10.668
 6721W        W75115   8.177  39.415   1.522
 6722W        W75116  25.483   6.788  13.390
 6723W        W75117  28.399  24.682  12.840
 6724W        W75118   4.537  12.273  10.789
 6725W        W75119  44.307  12.730  10.836
 6726W        W75120   8.908  34.073  13.423
 6727W        W75121   4.369  22.671   3.254
 6728W        W75122  14.067  39.523  12.856
 6729W        W75123  13.123  37.880  12.879
 6730W        W75124  14.066  29.919   4.663
 6731W        W75125   3.393  18.295   3.639
 6732W        W75126  24.022   5.902   0.036
 6733W        W75127  32.405  35.356   3.066
 6734W        W75128  17.196  27.780   1.186
 6735W        W75129  26.612   9.732   5.207
 6736W        W75130  10.116  42.058  10.964
 6737W        W75131  14.587  27.471  14.842
 6738W        W75132  33.393  43.317   0.749
 6739W        W75133  37.439   1.251   4.666
 6740W        W75134  19.395   9.169   2.254
 6741W        W75135  23.577  37.390   2.672
 6742W        W75136   4.340  29.913   0.334
 6743W        W75137   4.495   1.865  11.983
 6744W        W75138  27.159  27.394  12.977
 6745W        W75139  13.338  28.355   3.749
 6746W        W75140   8.081   2.335  12.570
 6747W        W75141  41.914  30.363   3.033
 6748W        W75142   9.625  19.716  11.401
 6749W        W75143  39.295  14.286  14.486
 6750W        W75144  25.502  28.385  14.953
 6751W        W75145  20.777  41.555  10.935
 6752W        W75146  39.398  41.963  13.118
 6753W        W75147   7.652  19.341  12.015
 6754W        W75148  21.337   5.782  13.328
 6755W        W75149  39.896  15.914  12.671
 6756W        W75150  36.520   9.307  12.612
 6757W        W75151  24.252  42.652  14.290
 6758W        W75152  28.508  14.785  11.268
 6759W        W75153   0.979  41.501  11.104
 6760W        W75154  41.777  41.316   3.204
 6761W        W75155  14.721  38.348  12.061
 6762W        W75156  43.284  34.514  11.998
 6763W        W75157  25.645   6.794   3.780
 6764W        W75158  11.624   7.287  10.687
 6765W        W75159  28.497  40.873  13.368
 6766W        W75160  29.780  42.659  11.036
 6767W        W75161  25.937  43.768   1.721
 6768W        W75162  12.242  40.502  10.063
 6769W        W75163  26.799  17.285   0.385
 6770W        W75164  21.093  37.910  11.555
 6771W        W75165   9.115  20.963  14.331
 6772W        W75166  32.620  25.682   0.282
 6773W        W75167  15.203   6.679  10.791
 6774W        W75168  24.524  29.645   2.707
 6775W        W75169   7.011  21.591  13.622
 6776W        W75170   9.657  16.524   2.390
 6777W        W75171  38.043  27.864  10.548
 6778W        W75172  35.028  30.654   0.314
 6779W        W75173  32.482  39.032   4.146
 6780W        W75174   4.775  40.711   1.351
 6781W        W75175  35.234  14.622   1.030
 6782W        W75176  30.455  26.457   0.874
 6783W        W75177  44.190  24.256  13.711
 6784W        W75178  14.000  27.521  13.819
 6785W        W75179   7.475  24.592   1.662
 6786W        W75180  34.636   1.999  12.487
 6787W        W75181  34.498  36.393   2.103
 6788W        W75182  10.182  27.685  13.430
 6789W        W75183  33.189  11.477   3.405
 6790W        W75184  13.391   4.363   2.372
 6791W        W75185   6.176  44.305  12.508
 6792W        W75186  10.298  31.369   1.550
 6793W        W75187  31.945  16.632  13.719
 6794W        W75188  25.455  13.169   0.774
 6795W        W75189  32.424  12.133  11.092
 6796W        W75190   4.524  30.967   1.260
 6797W        W75191  41.439  44.256   0.729
 6798W        W75192  19.791  23.578   0.834
 6799W        W75193  38.318  36.813   1.935
 6800W        W75194  34.169  21.154   3.716
 6801W        W75195  24.591   9.691   0.599
 6802W        W75196   2.739   9.382  13.366
 6803W        W75197  20.048   2.713  11.533
 6804W        W75198  17.112  42.782   0.301
 6805W        W75199  23.852   3.463  10.680
 6806W        W75200  30.499   7.783  12.949
 6807W        W75201  20.202  27.421   3.570
 6808W        W75202   9.261  41.701   3.324
 6809W        W75203  43.528  18.372   4.815
 6810W        W75204  25.655  26.552   3.761
 6811W        W75205  12.392  20.802   2.766
 6812W        W75206   0.014  23.060  13.450
 6813W        W75207  31.301  35.960  13.313
 6814W        W75208  10.394   7.856  14.286
 6815W        W75209   4.875  13.869  14.907
 6816W        W75210  37.323  24.342  11.026
 6817W        W75211   2.189  37.742  13.664
 6818W        W75212  27.166  27.148   3.199
 6819W        W75213   1.746  43.553   0.336
 6820W        W75214  43.713   9.236   3.789
 6821W        W75215  43.390  41.823  14.470
 6822W        W75216  11.425  18.002  14.780
 6823W        W75217  28.053  15.950   3.742
 6824W        W75218  37.642   5.927  11.582
 6825W        W75219  34.012  44.853  10.806
 6826W        W75220  34.931  16.816  11.153
 6827W        W75221  37.370   6.291   4.319
 6828W        W75222   4.296  17.316   2.057
 6829W        W75223  44.068  40.357  13.551
 6830W        W75224   2.187  41.295  12.000
 6831W        W75225   7.673   8.737  13.899
 6832W        W75226  18.470  19.331   9.770
 6833W        W75227   6.340  10.257   4.020
 6834W        W75228  22.891  44.662  13.262
 6835W        W75229  22.835  32.136   1.142
 6836W        W75230  10.157  28.145   4.618
 6837W        W75231  15.196  16.621  13.934
 6838W        W75232  32.589   1.335   1.809
 6839W        W75233  43.739   8.797   0.453
 6840W        W75234  15.925  37.434  14.486
 6841W        W75235  31.945  14.488   3.780
 6842W        W75236  24.578   7.071  11.950
 6843W        W75237  26.688   8.292  14.287
 6844W        W75238   7.742  28.010   3.752
 6845W        W75239   5.861   6.257  13.940
 6846W        W75240  35.874  42.395  13.854
 6847W        W75241  24.549  22.829   0.383
 6848W        W75242  28.257  13.072   0.307
 6849W        W75243   7.606  13.412  11.942
 6850W        W75244  21.399  38.471  12.738
 6851W        W75245  32.948   2.958   4.854
 6852W        W75246  10.604  38.827  14.382
 6853W        W75247   1.452  44.523  10.709
 6854W        W75248  17.792   8.309  13.874
 6855W        W75249   8.285   7.443   1.908
 6856W        W75250   0.462  19.235   0.220
 6857W        W75251  23.650  15.297  13.079
 6858W        W75252  40.572  22.310   0.933
 6859W        W75253  25.262   9.145   0.909
 6860W        W75254   5.903  19.852  13.183
 6861W        W75255  25.196   3.947   2.212
 6862W        W75256   7.639  38.817  12.400
 6863W        W75257  29.419  21.047   1.436
 6864W        W75258  25.279   3.849  13.690
 6865W        W75259  31.563  22.603  11.442
 6866W        W75260  13.199  40.528  13.408
 6867W        W75261   0.365  21.258   0.452
 6868W        W75262  24.627  16.435   3.161
 6869W        W75263  30.139  43.303  11.680
 6870W        W75264  35.293  18.676   2.805
 6871W        W75265  37.905   8.981  11.660
 6872W        W75266  43.827   5.281  13.109
 6873W        W75267  41.153   3.721  11.076
 6874W        W75268  17.512  26.023  14.386
 6875W        W75269  38.126  38.385   0.319
 6876W        W75270  29.222  24.106  11.567
 6877W        W75271  31.277  24.064  13.183
 6878W        W75272  35.969   1.520   2.659
 6879W        W75273  10.797  11.336   1.955
 6880W        W75274   6.289  37.526   5.212
 6881W        W75275   1.941  13.333  14.957
 6882W        W75276  33.010  30.715   4.429
 6883W        W75277   5.513  40.107   2.438
 6884W        W75278  10.794  11.872  11.351
 6885W        W75279   5.942  33.665   4.209
 6886W        W75280  11.170  33.028  10.896
 6887W        W75281   2.913  44.974   2.700
 6888W        W75282   1.798   4.420  13.865
 6889W        W75283  17.298  43.355   2.461
 6890W        W75284  34.390   7.675  10.776
 6891W        W75285  34.508  22.728  10.654
 6892W        W75286   8.204  29.407  14.522
 6893W        W75287  30.111  33.324   3.707
 6894W        W75288  26.650  39.534   3.080
 6895W        W75289  27.210   3.749  14.016
 6896W        W75290   8.300  24.518   3.640
 6897W        W75291  41.466  33.894  13.800
 6898W        W75292  36.977   5.945  10.800
 6899W        W75293  34.665   0.911  11.187
 6900W        W75294   0.319  23.741  13.179
 6901W        W75295  22.682  41.996   0.285
 6902W        W75296  33.938   2.845   3.770
 6903W        W75297   3.766   3.828   4.053
 6904W        W75298  23.543  40.887  12.590
 6905W        W75299  32.923  17.307   4.333
 6906W        W75300   4.168   2.296  13.322
 6907W        W75301  10.115  32.995   2.762
 6908W        W75302  24.754   3.847  13.488
 6909W        W75303  29.366   2.463   0.671
 6910W        W75304  36.419  41.391  14.916
 6911W        W75305  10.966  27.683  14.496
 6912W        W75306  10.961  32.244   0.867
 6913W        W75307   9.391  22.740  12.623
 6914W        W75308  20.928  39.433   2.725
 6915W        W75309  23.964  24.681   0.788
 6916W        W75310  20.018  10.409  12.788
 6917W        W75311  31.444  31.452  14.942
 6918W        W75312  39.029  16.713   0.302
 6919W        W75313  24.015  35.530   0.806
 6920W        W75314   8.910  26.070   1.813
 6921W        W75315   5.621  24.733  11.227
 6922W        W75316   4.900   1.093   4.633
 6923W        W75317  33.726  43.330  12.431
 6924W        W75318  32.060  14.670  12.672
 6925W        W75319   0.559   3.816  13.460
 6926W        W75320   6.927  39.589   3.280
 6927W        W75321  15.231  15.032  13.402
 6928W        W75322  43.113  42.974   2.726
 6929W        W75323  17.505   7.834  14.457
 6930W        W75324  11.509   5.372  12.194
 6931W        W75325  35.937  35.099  11.308
 6932W        W75326   1.470  39.842   1.118
 6933W        W75327  41.145  22.596   4.495
 6934W        W75328   2.390  22.208   1.547
 6935W        W75329  17.144  36.007   5.087
 6936W        W75330   8.653  35.519   0.800
 6937W        W75331  25.754  41.090  12.043
 6938W        W75332  25.763   3.687  13.650
 6939W        W75333  41.786  24.635  11.194
 6940W        W75334  42.459   2.452  12.008
 6941W        W75335   9.208   7.251   1.200
 6942W        W75336  37.259  26.410  13.128
 6943W        W75337  18.226   5.628   2.588
 6944W        W75338  35.407  15.904   0.400
 6945W        W75339   7.351  10.454   3.655
 6946W        W75340  16.222   1.309   3.678
 6947W        W75341  10.977  35.096  11.043
 6948W        W75342  22.510  26.120   1.899
 6949W        W75343   4.395   3.524   1.444
 6950W        W75344   4.924  19.221  13.047
 6951W        W75345  28.403  17.119   2.811
 6952W        W75346  29.356  10.613  12.022
 6953W        W75347  39.242  13.673   2.867
 6954W        W75348  25.466  13.934   2.332
 6955W        W75349  32.838   9.350  12.635
 6956W        W75350   7.861  23.096  12.558
 6957W        W75351  17.631  37.832   4.349
 6958W        W75352  26.533  17.094   2.707
 6959W        W75353   9.923  16.489  11.740
 6960W        W75354  24.806   7.064  12.514
 6961W        W75355  20.505  33.935  10.692
 6962W        W75356  30.579  19.622   1.619
 6963W        W75357  31.263  44.086   0.424
 6964W        W75358   8.650  28.480  12.975
 6965W        W75359  28.960  40.281  13.267
 6966W        W75360  38.707  17.978   0.377
 6967W        W75361  24.580   5.981   1.908
 6968W        W75362  38.872  22.498  11.653
 6969W        W75363  23.080   3.214  12.143
 6970W        W75364   6.313  22.712  13.421
 6971W        W75365  40.294  20.757  12.106
 6972W        W75366  29.452  27.562  12.167
 6973W        W75367  23.860  22.092  13.980
 6974W        W75368  23.728  24.918  11.568
 6975W        W75369  17.719  12.270  12.321
 6976W        W75370  30.172  36.986   3.134
 6977W        W75371  14.035   8.697   0.848
 6978W        W75372  43.321  19.545   2.197
 6979W        W75373  23.200   0.160   2.923
 6980W        W75374  22.178  38.283  10.738
 6981W        W75375  44.065  39.482   4.854
 6982W        W75376  16.249  27.614  10.511
 6983W        W75377  16.780  24.229  13.542
 6984W        W75378  43.853  27.624   4.286
 6985W        W75379  22.482  30.532   4.847
 6986W        W75380   0.991  35.817  13.543
 6987W        W75381  19.469  24.474  13.073
 6988W        W75382   9.085   9.513   4.291
 6989W        W75383  38.844   8.582  11.624
 6990W        W75384  13.930  31.838   2.232
 6991W        W75385  15.332  36.738  11.602
 6992W        W75386   3.045  36.351  12.160
 6993W        W75387  38.516  27.421  11.142
 6994W        W75388  27.409  25.236   3.128
 6995W        W75389  30.088  37.763  11.203
 6996W        W75390  28.806  38.888  13.141
 6997W        W75391   1.830  33.512   2.572
 6998W        W75392  22.460  35.192   2.668
 6999W        W75393  42.630  43.148   4.450
 7000W        W75394  15.657  18.103  12.130
 7001W        W75395  35.070  14.337  14.721
 7002W        W75396  13.101  15.141   0.896
 7003W        W75397  25.918  22.093   0.393
 7004W        W75398  38.043  40.778   2.767
 7005W        W75399  23.465  30.688  11.870
 7006W        W75400   1.713  11.387   4.138
 7007W        W75401  23.616  16.224  13.045
 7008W        W75402  34.609   6.375  11.924
 7009W        W75403  18.318  41.962   0.993
 7010W        W75404  33.388  13.701  12.085
 7011W        W75405  36.139  34.838   3.635
 7012W        W75406  24.893  28.509   2.800
 7013W        W75407  23.520   6.230  11.456
 7014W        W75408  39.470   7.378  11.164
 7015W        W75409   1.378  41.846  14.051
 7016W        W75410  43.717  44.909  14.253
 7017W        W75411  35.284  30.088  10.672
 7018W        W75412  25.631  30.257  11.249
 7019W        W75413   6.381  18.741   2.581
 7020W        W75414  35.000   9.437  10.861
 7021W        W75415  34.703   4.206  11.588
 7022W        W75416  24.710  43.780  12.013
 7023W        W75417   7.433  20.864  12.102
 7024W        W75418  41.384  31.008  10.730
 7025W        W75419  34.635  18.561  12.862
 7026W        W75420   6.648  33.143   4.556
 7027W        W75421  15.120  38.085  13.754
 7028W        W75422  29.492   5.536  11.531
 7029W        W75423  23.723  32.004   0.797
 7030W        W75424  36.083  32.845  13.579
 7031W        W75425  38.436   5.724   0.259
 7032W        W75426  43.008  25.620  13.529
 7033W        W75427   9.193   9.712  13.905
 7034W        W75428  31.651   6.225   2.378
 7035W        W75429   4.952  10.702  14.292
 7036W        W75430  28.726  29.369   1.248
 7037W        W75431  27.833  13.376  10.765
 7038W        W75432   6.665  33.675   3.824
 7039W        W75433   7.333   9.900   3.689
 7040W        W75434  11.552  39.903   3.703
 7041W        W75435  36.261  38.764  12.092
 7042W        W75436  29.362  10.107  13.937
 7043W        W75437  40.245   6.794  11.841
 7044W        W75438   3.241  25.237  11.704
 7045W        W75439  18.573  30.958  14.865
 7046W        W75440  15.644  41.255  10.787
 7047W        W75441   7.244  15.565  10.717
 7048W        W75442   5.464  17.009  10.957
 7049W        W75443  20.617  42.359   4.827
 7050W        W75444  21.816  32.682  13.617
 7051W        W75445  36.576  14.272  11.907
 7052W        W75446  23.009   4.183   4.496
 7053W        W75447  24.981  27.083   4.051
 7054W        W75448  26.698  14.824   4.898
 7055W        W75449  31.592   0.269   4.923
 7056W        W75450  14.948  13.663  13.050
 7057W        W75451  11.355  32.584   0.816
 7058W        W75452   1.918  36.074  10.772
 7059W        W75453  23.041  34.160   4.495
 7060W        W75454   9.050   4.311   5.384
 7061W        W75455  20.657  15.885   0.626
 7062W        W75456  16.211  23.143   4.780
 7063W        W75457   0.467  19.069  12.927
 7064W        W75458  31.611  32.674  14.569
 7065W        W75459  27.670   4.269   3.791
 7066W        W75460   0.343  22.284  13.303
 7067W        W75461   0.393  40.304   3.740
 7068W        W75462   5.926   8.343   1.171
 7069W        W75463  16.586   9.842  14.967
 7070W        W75464  23.725  30.095  14.928
 7071W        W75465  32.674   5.174   1.253
 7072W        W75466  36.693  34.894   2.866
 7073W        W75467  40.385  19.259   2.782
 7074W        W75468  25.004  33.905  14.071
 7075W        W75469  32.436   0.742   0.863
 7076W        W75470   3.886  20.475   3.891
 7077W        W75471   5.403  19.629  14.798
 7078W        W75472  44.223  37.007   0.629
 7079W        W75473  13.831   2.235  12.755
 7080W        W75474  43.187  22.695   1.684
 7081W        W75475  25.044  38.362  12.879
 7082W        W75476  16.938   8.438  12.876
 7083W        W75477  32.105  19.071   2.843
 7084W        W75478  31.465   9.096  11.586
 7085W        W75479  11.956  32.100   3.591
 7086W        W75480  13.683   5.283   0.760
 7087W        W75481  35.642   8.736  11.067
 7088W        W75482  23.888  16.282   2.415
 7089W        W75483  34.916   5.430  14.808
 7090W        W75484  42.421  39.976   0.194
 7091W        W75485  19.316  20.608  11.002
 7092W        W75486  41.108  24.599   1.972
 7093W        W75487  36.313  24.002   1.502
 7094W        W75488   8.938   8.973  12.423
 7095W        W75489   2.273  30.059  13.944
 7096W        W75490  25.836  37.840  10.832
 7097W        W75491   3.426   0.893  13.317
 7098W        W75492  44.811   6.267  10.359
 7099W        W75493  31.633  18.716   3.286
 7100W        W75494  41.685  21.562  12.181
 7101W        W75495  11.362  34.698   4.131
 7102W        W75496  16.856  34.628   0.494
 7103W        W75497  13.795   7.647   2.768
 7104W        W75498  26.901   1.289   4.364
 7105W        W75499  34.408  44.493   0.693
 7106W        W75500  44.519   3.620   4.685
 7107W        W75501  29.606  26.903   4.550
 7108W        W75502   0.680   1.749  13.475
 7109W        W75503   0.558  27.077  13.930
 7110W        W75504   1.312  35.592   1.664
 7111W        W75505  31.491   8.969  14.752
 7112W        W75506  43.532  28.566  13.543
 7113W        W75507  30.147  35.566   2.644
 7114W        W75508  26.503  24.863   0.363
 7115W        W75509  43.070  21.552   2.161
 7116W        W75510  11.559  44.420  12.583
 7117W        W75511  35.169  25.723  14.442
 7118W        W75512  18.352   7.585   9.928
 7119W        W75513  42.407  18.397  14.304
 7120W        W75514  10.250  37.332   1.118
 7121W        W75515  29.594  20.559  14.797
 7122W        W75516  18.714  20.976  11.791
 7123W        W75517  23.286  36.758  11.261
 7124W        W75518  25.594  29.200   1.279
 7125W        W75519  19.937   7.215   2.949
 7126W        W75520   2.669  35.982  11.542
 7127W        W75521   9.762  36.029   1.215
 7128W        W75522  44.605  15.208   1.257
 7129W        W75523  19.996   2.800   3.641
 7130W        W75524   2.949   0.534   0.799
 7131W        W75525   9.070  30.456   1.383
 7132W        W75526   1.040  38.356  11.067
 7133W        W75527   7.281  21.607   2.865
 7134W        W75528  14.407  29.520  12.070
 7135W        W75529  21.308  21.435  13.377
 7136W        W75530  12.815  42.838  10.602
 7137W        W75531  10.500   2.740  13.333
 7138W        W75532  18.396   9.149   2.461
 7139W        W75533  18.496   6.756  10.942
 7140W        W75534  23.094   2.471   4.690
 7141W        W75535   6.831  38.817  13.807
 7142W        W75536   6.270  44.912  10.785
 7143W        W75537  44.442  43.840   1.913
 7144W        W75538  19.143   1.256  11.718
 7145W        W75539  43.290   7.411   3.324
 7146W        W75540   5.417  13.202  13.360
 7147W        W75541  17.239  37.831   0.853
 7148W        W75542  11.335  20.095  14.772
 7149W        W75543  19.233   6.173  14.572
 7150W        W75544   7.158  41.037   4.850
 7151W        W75545  11.184  23.107  10.779
 7152W        W75546   2.454  13.495   0.195
 7153W        W75547  37.689   1.616  13.073
 7154W        W75548  10.760  39.990  14.012
 7155W        W75549  44.718  39.889  10.656
 7156W        W75550  14.009  34.520   3.017
 7157W        W75551   0.280  17.165   3.255
 7158W        W75552  35.108  44.336  12.087
 7159W        W75553  44.141  21.103  13.399
 7160W        W75554  36.478  11.601   0.347
 7161W        W75555  40.026  20.988   4.822
 7162W        W75556   6.968   9.748   1.192
 7163W        W75557   4.058  34.686  11.513
 7164W        W75558   5.354  15.575  11.226
 7165W        W75559  22.710   8.772   2.395
 7166W        W75560  43.128  21.130   4.748
 7167W        W75561  14.165   0.993   3.264
 7168W        W75562  18.652  41.630  11.038
 7169W        W75563  10.191  44.490  12.339
 7170W        W75564   0.313  16.759  10.943
 7171W        W75565  41.351  44.344  12.443
 7172W        W75566   1.221  21.114   3.298
 7173W        W75567  36.602  10.130  12.043
 7174W        W75568  35.587  40.585  14.952
 7175W        W75569  13.691   7.202  13.967
 7176W        W75570   1.529  26.903  11.631
 7177W        W75571  23.730  29.581  14.823
 7178W        W75572  27.382  31.600   0.045
 7179W        W75573  36.363  39.549   0.330
 7180W        W75574   2.162   4.466   2.771
 7181W        W75575  11.102  40.772   4.331
 7182W        W75576  33.032  31.957  14.542
 7183W        W75577  37.564  27.569   4.813
 7184W        W75578  36.584  14.319   1.159
 7185W        W75579  27.795  43.743  13.386
 7186W        W75580   6.432  15.804   1.117
 7187W        W75581  35.470  28.631  12.982
 7188W        W75582  32.906   3.080  13.461
 7189W        W75583  10.688  21.095  12.382
 7190W        W75584   6.851   2.373   3.197
 7191W        W75585  40.833  20.004  13.024
 7192W        W75586  43.920  35.072   2.885
 7193W        W75587  29.144  31.708   4.005
 7194W        W75588  10.459  37.173  12.892
 7195W        W75589  18.605   3.801  14.922
 7196W        W75590   1.956  34.210  13.987
 7197W        W75591   4.120  19.489  12.800
 7198W        W75592  20.018  16.960  13.248
 7199W        W75593  30.357   3.633   0.760
 7200W        W75594  42.972  33.635   3.727
 7201W        W75595  21.590   1.876  11.419
 7202W        W75596  41.340  19.850   3.676
 7203W        W75597  12.630   4.332  12.943
 7204W        W75598   5.646   5.168  14.448
 7205W        W75599   8.931  16.560  12.771
 7206W        W75600  14.543  36.371  11.698
 7207W        W75601  13.786   4.240  11.046
 7208W        W75602  40.453   5.248   0.764
 7209W        W75603  35.548  25.195   3.233
 7210W        W75604  30.581  26.000   4.196
 7211W        W75605  21.100  15.945  12.415
 7212W        W75606  10.260  25.312  10.764
 7213W        W75607  19.262   0.219   0.389
 7214W        W75608   3.082  24.763  12.095
 7215W        W75609  10.799  23.296   2.252
 7216W        W75610  35.440  39.863  14.772
 7217W        W75611  15.639   1.318  13.797
 7218W        W75612  14.023  20.168  12.520
 7219W        W75613   2.006  17.841  11.545
 7220W        W75614  25.240  19.787   4.363
 7221W        W75615  21.526  15.045  13.016
 7222W        W75616  41.255  32.074  11.599
 7223W        W75617  42.943  18.078   1.369
 7224W        W75618   8.364  34.331   3.821
 7225W        W75619  41.072  19.464  13.514
 7226W        W75620  29.595  39.477  13.419
 7227W        W75621  19.093  40.242  14.000
 7228W        W75622  12.159  14.611  12.584
 7229W        W75623  19.753  37.335  10.618
 7230W        W75624   3.335   3.513   4.154
 7231W        W75625  33.685  31.639   3.197
 7232W        W75626  30.576   7.365  11.677
 7233W        W75627  18.213  36.834  13.239
 7234W        W75628   5.007  29.525  13.654
 7235W        W75629  16.684  42.858   1.258
 7236W        W75630  37.113  13.798   1.877
 7237W        W75631  19.416  19.039   1.692
 7238W        W75632   4.092  29.409  14.020
 7239W        W75633  20.966   8.198   0.401
 7240W        W75634   4.865   4.299   1.343
 7241W        W75635   3.036  30.972  12.017
 7242W        W75636  31.723  28.562   3.407
 7243W        W75637  14.534  40.618  14.517
 7244W        W75638  44.529   5.863   3.126
 7245W        W75639  43.983   4.005   2.109
 7246W        W75640   7.940  24.914  14.045
 7247W        W75641  19.404  12.179   3.293
 7248W        W75642   4.194   2.195   4.584
 7249W        W75643   0.382  20.230   3.360
 7250W        W75644  31.424  15.547  12.562
 7251W        W75645  43.127  16.617  11.211
 7252W        W75646  18.613  43.921  11.157
 7253W        W75647  44.374  19.502  11.184
 7254W        W75648   3.153  15.981   1.798
 7255W        W75649  32.198   7.422  10.430
 7256W        W75650  21.151  41.406   1.312
 7257W        W75651   8.057  18.986   4.233
 7258W        W75652  20.555  19.639   4.357
 7259W        W75653  21.588  25.629  10.426
 7260W        W75654  14.601  30.204   2.583
 7261W        W75655  22.654  25.268  12.403
 7262W        W75656  40.824  20.751  13.417
 7263W        W75657   7.524  28.368  13.358
 7264W        W75658  36.520  17.259   0.424
 7265W        W75659   2.204  19.571   1.513
 7266W        W75660  26.144  38.907   4.557
 7267W        W75661  40.648   5.511  12.478
 7268W        W75662  27.830   8.154  11.082
 7269W        W75663  15.461  11.759   1.889
 7270W        W75664   3.720  11.307   0.882
 7271W        W75665  44.101  23.656  10.596
 7272W        W75666   7.722   2.390   0.637
 7273W        W75667   5.599   5.245   0.406
 7274W        W75668  19.148   1.997  13.473
 7275W        W75669  40.620  12.814  13.511
 7276W        W75670   9.757  28.553  11.625
 7277W        W75671  16.268  36.785  14.693
 7278W        W75672  33.337   6.953  10.364
 7279W        W75673  24.196  27.438  11.082
 7280W        W75674   6.439  31.453   0.714
 7281W        W75675  35.673  43.322  14.917
 7282W        W75676   0.053   7.915   4.521
 7283W        W75677  28.692  31.803   1.702
 7284W        W75678  10.324  29.132  12.559
 7285W        W75679  24.611  32.711  14.323
 7286W        W75680  33.080  13.514  13.396
 7287W        W75681  34.928  39.269   4.149
 7288W        W75682  35.238  10.686   1.742
 7289W        W75683  12.737   6.980   4.194
 7290W        W75684  18.296  10.652   3.289
 7291W        W75685   7.982  13.925  11.332
 7292W        W75686  22.700  31.093   1.146
 7293W        W75687  19.702  37.910   1.600
 7294W        W75688  32.037  25.307   9.954
 7295W        W75689  35.448  29.166  12.970
 7296W        W75690  21.342  13.109  13.497
 7297W        W75691  41.052   2.242   3.252
 7298W        W75692  30.122  38.060  10.790
 7299W        W75693  38.498  32.856  10.628
 7300W        W75694  31.217  15.602  11.225
 7301W        W75695   2.443   8.825   3.244
 7302W        W75696  16.567  14.240   1.721
 7303W        W75697  32.383  37.599  14.778
 7304W        W75698  27.723  19.734  10.646
 7305W        W75699  33.703  33.592   9.987
 7306W        W75700  35.920  26.542   4.622
 7307W        W75701  20.419  13.982   4.898
 7308W        W75702  31.546  37.081   2.436
 7309W        W75703  12.570  33.559  11.574
 7310W        W75704  19.567   9.867  14.016
 7311W        W75705  19.760  16.885   5.073
 7312W        W75706  36.859   3.821  12.363
 7313W        W75707  17.131  42.268   0.331
 7314W        W75708  30.352  35.624  14.448
 7315W        W75709  42.225   0.283   1.368
 7316W        W75710  15.113  14.860  12.436
 7317W        W75711  27.171  30.989  12.934
 7318W        W75712  21.030  44.607  14.022
 7319W        W75713  12.776   3.390   0.835
 7320W        W75714   6.263  42.253  10.589
 7321W        W75715  18.601  33.451  13.929
 7322W        W75716  29.557  13.001  14.772
 7323W        W75717  35.402  19.243  12.885
 7324W        W75718   1.846  24.544  10.712
 7325W        W75719   7.587  17.840   0.797
 7326W        W75720  16.960  37.859   3.791
 7327W        W75721  14.212   2.778  10.393
 7328W        W75722  24.735  39.335   3.283
 7329W        W75723  29.587  17.305  14.550
 7330W        W75724  23.588   0.814   1.738
 7331W        W75725   8.704  17.582   1.710
 7332W        W75726   7.608   5.437   0.001
 7333W        W75727  20.574   0.508   4.603
 7334W        W75728  16.118  13.284   3.726
 7335W        W75729  28.597  20.712  14.062
 7336W        W75730  32.846  37.523  11.534
 7337W        W75731  43.852  24.655   4.032
 7338W        W75732  17.157  35.580   1.289
 7339W        W75733  33.382  30.581  11.252
 7340W        W75734  32.579   8.301   3.093
 7341W        W75735  32.090  37.954   3.672
 7342W        W75736   6.842  40.755   4.535
 7343W        W75737  27.910  35.644   5.000
 7344W        W75738  29.139   4.199   2.365
 7345W        W75739  14.289  22.347   4.366
 7346W        W75740   2.362  21.679   3.517
 7347W        W75741   3.095   6.963   2.827
 7348W        W75742  29.681  24.308  14.490
 7349W        W75743  17.312  18.195  11.990
 7350W        W75744  44.879  15.131  12.923
 7351W        W75745   0.736   2.962   3.273
 7352W        W75746  23.637  20.848   4.496
 7353W        W75747  25.685  17.387   4.932
 7354W        W75748  24.623  11.240   0.371
 7355W        W75749  14.633  42.558   2.308
 7356W        W75750  12.243  40.875  13.291
 7357W        W75751  44.342  25.812   3.095
 7358W        W75752  22.787  18.093   4.428
 7359W        W75753  28.205  35.136  12.024
 7360W        W75754  25.246   6.261   2.737
 7361W        W75755  34.010  29.688  12.343
 7362W        W75756  13.650  17.947   1.009
 7363W        W75757   1.453  15.237   4.115
 7364W        W75758  31.390  18.230   2.399
 7365W        W75759  11.725  27.179  12.010
 7366W        W75760  33.457  21.624   3.813
 7367W        W75761  30.974   3.398  12.574
 7368W        W75762  11.211  37.987  14.475
 7369W        W75763  24.007  40.134   3.490
 7370W        W75764   4.282  28.697  10.899
 7371W        W75765   9.799  25.503   3.530
 7372W        W75766  44.862  32.550   1.241
 7373W        W75767  39.397   8.798   2.100
 7374W        W75768   6.968   6.918  12.085
 7375W        W75769   8.201   1.257   3.152
 7376W        W75770   1.983  19.585   3.815
 7377W        W75771  32.526  41.454  14.444
 7378W        W75772  14.649   4.679  11.963
 7379W        W75773  38.644   7.262   4.275
 7380W        W75774   5.236   6.269   1.452
 7381W        W75775  23.189  10.706   0.199
 7382W        W75776  17.484  26.433   3.314
 7383W        W75777   5.474  20.264   1.206
 7384W        W75778  18.286  16.592   2.731
 7385W        W75779  33.671  16.855   3.153
 7386W        W75780  32.855  29.106  12.639
 7387W        W75781  41.054  21.172   4.661
 7388W        W75782  28.006  41.080  11.189
 7389W        W75783   9.171  22.618  13.605
 7390W        W75784  29.027   2.899  13.062
 7391W        W75785   7.320  20.275   0.829
 7392W        W75786  31.135  40.346  10.723
 7393W        W75787  14.541  44.452   4.187
 7394W        W75788  20.715  19.641  11.367
 7395W        W75789  10.878  43.368  13.695
 7396W        W75790   0.713  42.832   3.084
 7397W        W75791  20.587  25.150  10.703
 7398W        W75792  40.426  44.811  10.558
 7399W        W75793  11.156   1.903  14.385
 7400W        W75794  35.567  17.912  11.952
 7401W        W75795  40.344   0.778  10.988
 7402W        W75796  33.879  27.851   2.687
 7403W        W75797  44.383   9.334   1.411
 7404W        W75798  27.758  22.703   3.659
 7405W        W75799  16.051  44.776  13.375
 7406W        W75800  28.196  26.692   3.730
 7407W        W75801  24.205  10.984   1.852
 7408W        W75802  11.672  23.484  10.375
 7409W        W75803  37.138  24.681   1.759
 7410W        W75804  16.812  17.234  14.771
 7411W        W75805   7.687  43.959   0.396
 7412W        W75806   0.263  22.560  12.035
 7413W        W75807   3.527   4.205   2.274
 7414W        W75808   5.616  44.495  10.827
 7415W        W75809  38.901   7.333  10.653
 7416W        W75810  37.359  22.150   1.720
 7417W        W75811   3.503  34.163   4.025
 7418W        W75812  40.064  40.851  10.564
 7419W        W75813   4.915  25.528  14.627
 7420W        W75814   2.833  32.687   1.212
 7421W        W75815  18.233  36.667  12.753
 7422W        W75816  38.928  11.624   0.319
 7423W        W75817  25.694   6.852  12.931
 7424W        W75818  39.293  42.028   4.890
 7425W        W75819   9.631  26.426   3.725
 7426W        W75820  11.638  22.606   3.702
 7427W        W75821  30.079  33.878   4.651
 7428W        W75822  27.542  35.564  13.200
 7429W        W75823   1.482  15.793  10.632
 7430W        W75824  23.653  21.787   4.070
 7431W        W75825   2.791   3.788  14.236
 7432W        W75826  27.500  10.736   3.282
 7433W        W75827   7.921   4.012  12.583
 7434W        W75828  23.164  14.711   4.780
 7435W        W75829  31.117  30.502  14.331
 7436W        W75830  15.604  22.123   4.718
 7437W        W75831  16.863   2.513   3.182
 7438W        W75832  39.211  43.371   1.021
 7439W        W75833   7.355   3.361  12.564
 7440W        W75834  34.545   3.682  12.463
 7441W        W75835  10.862  19.936   1.435
 7442W        W75836  34.869  11.324  13.970
 7443W        W75837  17.680  43.009   4.401
 7444W        W75838  33.588   3.165   0.943
 7445W        W75839  11.629  43.923  10.684
 7446W        W75840  26.781  33.510  13.761
 7447W        W75841  13.995   6.316  14.274
 7448W        W75842  17.599  36.052   4.167
 7449W        W75843  33.364   7.918  10.983
 7450W        W75844  18.372   2.351  10.864
 7451W        W75845  26.527   5.653   1.817
 7452W        W75846  19.415  32.736  12.171
 7453W        W75847  23.320  14.137   3.636
 7454W        W75848  37.144  10.596   2.194
 7455W        W75849   1.251  27.573   1.668
 7456W        W75850  24.122  11.100  10.810
 7457W        W75851  30.388   1.037  10.848
 7458W        W75852  44.581  40.493  13.599
 7459W        W75853  20.885  17.173   3.737
 7460W        W75854  26.298  15.717  12.674
 7461W        W75855   7.337  37.845   3.414
 7462W        W75856  27.154   2.791   0.730
 7463W        W75857  12.873  34.586   3.262
 7464W        W75858  16.219   7.675   3.520
 7465W        W75859  13.445  26.608  14.788
 7466W        W75860   5.666  37.824  14.371
 7467W        W75861  26.075  12.704   0.280
 7468W        W75862  16.275  36.141  13.824
 7469W        W75863  36.060  18.602   3.208
 7470W        W75864  23.153  34.165  14.023
 7471W        W75865  42.219  21.687   3.614
 7472W        W75866  41.281   3.509   1.670
 7473W        W75867  38.892   0.942   1.765
 7474W        W75868   3.277  15.198   4.036
 7475W        W75869  37.056  29.058  13.332
 7476W        W75870  22.468  17.357  12.574
 7477W        W75871  43.035  28.642  13.688
 7478W        W75872  30.998   3.827  11.003
 7479W        W75873  24.258  29.343   1.444
 7480W        W75874   9.005  35.647  14.340
 7481W        W75875   4.736   0.870  14.734
 7482W        W75876   7.805  41.585   3.720
 7483W        W75877   1.132  17.740  11.106
 7484W        W75878  42.500  23.801  13.142
 7485W        W75879  27.418  44.857  14.169
 7486W        W75880  12.790   3.966  11.155
 7487W        W75881  11.383  19.782  14.361
 7488W        W75882  43.743   7.425   3.595
 7489W        W75883  29.411  24.589  11.634
 7490W        W75884  30.072   7.701   2.249
 7491W        W75885  28.115   2.268  12.382
 7492W        W75886   9.823  39.038  13.533
 7493W        W75887   2.281  43.288  12.091
 7494W        W75888   3.683   9.688   4.244
 7495W        W75889  42.612  35.238   4.970
 7496W        W75890  17.001   4.849  11.179
 7497W        W75891  25.878  35.616  13.062
 7498W        W75892  33.148  23.221  11.679
 7499W        W75893  22.463  16.565  11.575
 7500W        W75894  31.669  33.193  11.529
 7501W        W75895  30.348  13.565  14.300
 7502W        W75896  29.275   8.232  13.046
 7503W        W75897   1.887  20.789   1.660
 7504W        W75898   1.982  33.143   0.741
 7505W        W75899   0.885  11.442  12.053
 7506W        W75900  19.022   0.833   1.521
 7507W        W75901  17.736  19.284  14.379
 7508W        W75902   1.303  40.010   1.939
 7509W        W75903  29.878   8.729  14.543
 7510W        W75904  42.144  23.400  11.690
 7511W        W75905  29.881   5.310  10.839
 7512W        W75906  15.522  10.715   2.793
 7513W        W75907  38.792  16.044   4.023
 7514W        W75908  24.117  34.323  13.297
 7515W        W75909  44.914  41.385   4.490
 7516W        W75910  33.982  44.844   3.165
 7517W        W75911  34.831   0.361   0.258
 7518W        W75912   1.943  15.782  11.666
 7519W        W75913  27.233  16.051  11.299
 7520W        W75914  13.077  10.610  10.684
 7521W        W75915   7.342  30.692   3.149
 7522W        W75916  19.740  22.639   2.336
 7523W        W75917  29.558   6.299  13.999
 7524W        W75918  30.211  14.176  10.750
 7525W        W75919  36.833  40.607  14.390
 7526W        W75920  12.794  27.201  14.398
 7527W        W75921  25.054  13.696  10.813
 7528W        W75922  19.275  25.122   5.288
 7529W        W75923  36.413   8.635   3.925
 7530W        W75924  19.709  24.016   3.128
 7531W        W75925  44.428  15.750  13.092
 7532W        W75926  15.713  33.096  13.858
 7533W        W75927  14.290  35.524   0.535
 7534W        W75928   4.382  11.650   1.678
 7535W        W75929  31.912  33.344   3.202
 7536W        W75930  10.206  40.470  14.895
 7537W        W75931  32.589  16.505   0.520
 7538W        W75932  19.336  27.192  14.906
 7539W        W75933   4.566  37.978   2.418
 7540W        W75934  38.141  27.419  10.287
 7541W        W75935  35.073   8.627   1.849
 7542W        W75936   1.791  40.470  11.009
 7543W        W75937  20.623  39.479  11.964
 7544W        W75938  27.247  22.753  13.100
 7545W        W75939   8.075   7.320  10.629
 7546W        W75940  31.006  43.765   4.548
 7547W        W75941  12.910  37.415  10.561
 7548W        W75942  36.843   2.029   3.204
 7549W        W75943  25.685  22.700  11.969
 7550W        W75944  17.792  14.211  13.511
 7551W        W75945  31.198   9.732   2.740
 7552W        W75946  12.237   5.718   0.454
 7553W        W75947  17.675  12.922  14.633
 7554W        W75948  35.265  31.465   2.361
 7555W        W75949  41.523   0.244  11.155
 7556W        W75950  25.636  14.550   4.153
 7557W        W75951   5.189  43.056  12.968
 7558W        W75952  36.046  15.330   0.641
 7559W        W75953  42.455  41.967  11.980
 7560W        W75954   9.533  36.466   0.380
 7561W        W75955  38.960  14.800  14.340
 7562W        W75956  21.174  12.320  11.408
 7563W        W75957  30.581  27.672   1.136
 7564W        W75958  26.025   2.685   2.702
 7565W        W75959   9.208   9.216  13.584
 7566W        W75960   2.163  20.754   0.647
 7567W        W75961  23.403  29.502   2.426
 7568W        W75962  13.098  18.343  12.961
 7569W        W75963   8.780  16.802  13.693
 7570W        W75964  32.166  42.553   1.828
 7571W        W75965  38.581  27.665   2.359
 7572W        W75966  11.656  10.660   1.005
 7573W        W75967  33.845  31.345  13.875
 7574W        W75968  26.062  10.327   1.837
 7575W        W75969   9.372   2.843   0.393
 7576W        W75970   2.294  19.793  14.438
 7577W        W75971  41.784  26.994  14.387
 7578W        W75972  27.922  38.006   3.538
 7579W        W75973  34.437  36.891  13.499
 7580W        W75974  33.509  43.289   2.644
 7581W        W75975  19.059  39.459   2.059
 7582W        W75976   7.332  17.685  14.362
 7583W        W75977  24.293   4.927   2.356
 7584W        W75978  28.995  17.770  13.886
 7585W        W75979  41.461   0.685  14.794
 7586W        W75980  10.217   6.668  14.548
 7587W        W75981   0.174   0.379  13.388
 7588W        W75982  32.467  18.763   0.907
 7589W        W75983  33.579  11.591   1.733
 7590W        W75984  19.565   7.981   2.808
 7591W        W75985  21.383  16.607   2.853
 7592W        W75986  32.563  21.208   1.727
 7593W        W75987  44.069  37.440  13.296
 7594W        W75988  24.443   7.390  13.223
 7595W        W75989  15.151  13.371   3.718
 7596W        W75990  30.546  27.329   0.244
 7597W        W75991  34.318   5.887  13.309
 7598W        W75992  32.330  30.759   4.991
 7599W        W75993  15.338  20.305  14.500
 7600W        W75994  16.613  21.293   3.710
 7601W        W75995   0.302   5.227   4.591
 7602W        W75996   9.168  24.257   0.555
 7603W        W75997  16.655  38.890   2.353
 7604W        W75998   9.870  30.558   0.978
 7605W        W75999   1.016   6.189   3.663
 7606W        W76000  10.791  14.650   2.883
 7607W        W76001  35.066   3.750  11.676
 7608W        W76002  22.532  36.117  14.714
 7609W        W76003  44.167   3.035  12.346
 7610W        W76004   6.784   1.262  13.121
 7611W        W76005   9.358   2.531  10.525
 7612W        W76006  31.175  41.286  12.438
 7613W        W76007  34.398  33.001   3.077
 7614W        W76008  32.885  35.034  10.975
 7615W        W76009  35.392   8.234  11.569
 7616W        W76010  14.060  27.973   4.086
 7617W        W76011  10.666  35.693   0.774
 7618W        W76012  35.125  44.049   0.748
 7619W        W76013  13.906   3.509   1.294
 7620W        W76014   5.056  28.029   4.298
 7621W        W76015   5.896  23.920  11.669
 7622W        W76016  13.491   7.731  11.864
 7623W        W76017  10.959  44.752   2.554
 7624W        W76018  26.702  38.887   0.836
 7625W        W76019  28.214   4.707  10.748
 7626W        W76020  19.744   1.240  12.368
 7627W        W76021  19.025  27.012  13.356
 7628W        W76022  23.217  35.384  12.545
 7629W        W76023   4.561  31.818  10.969
 7630W        W76024  36.670  29.747   1.325
 7631W        W76025  35.453  11.190   4.443
 7632W        W76026  12.915  31.623   1.805
 7633W        W76027   6.334  31.621   4.256
 7634W        W76028  44.920  31.063   1.041
 7635W        W76029  18.712  38.958  13.043
 7636W        W76030   5.767  24.525   0.913
 7637W        W76031  35.132   1.298  10.744
 7638W        W76032  12.195  17.088   3.511
 7639W        W76033   9.436  37.772   2.868
 7640W        W76034  14.579   1.044  13.948
 7641W        W76035  40.787  39.492  14.726
 7642W        W76036  32.697  14.342   4.957
 7643W        W76037  43.281  22.624   0.305
 7644W        W76038  31.906  38.705  10.980
 7645W        W76039  38.574   7.365   1.488
 7646W        W76040  42.798  33.429   3.298
 7647W        W76041  28.147  43.357   2.198
 7648W        W76042  33.616   7.222  14.065
 7649W        W76043  38.418  26.078  12.500
 7650W        W76044   0.428   0.866   3.090
 7651W        W76045   4.438  32.993   2.809
 7652W        W76046  33.264  44.137  13.510
 7653W        W76047  40.809  28.102  11.840
 7654W        W76048   4.995  31.429   1.866
 7655W        W76049  29.099   6.337  11.652
 7656W        W76050  12.186   6.380   3.608
 7657W        W76051  29.759   0.464   3.638
 7658W        W76052  16.239   9.487  13.988
 7659W        W76053  11.375   1.359   0.787
 7660W        W76054  42.997  16.604   0.195
 7661W        W76055  42.883  25.417   3.681
 7662W        W76056  22.445  25.950  14.830
 7663W        W76057   1.739  25.138  12.055
 7664W        W76058   0.378  42.875  12.097
 7665W        W76059  32.820  41.851   4.695
 7666W        W76060   2.376  15.364   4.413
 7667W        W76061   3.492  23.153   0.332
 7668W        W76062   8.250  40.904   0.227
 7669W        W76063   1.741  20.209  12.762
 7670W        W76064  29.816  44.507  10.618
 7671W        W76065   7.926  35.999  11.895
 7672W        W76066  37.646  21.934  12.053
 7673W        W76067  22.419  22.255   1.721
 7674W        W76068  28.895  37.482   4.349
 7675W        W76069  29.098  42.265   3.522
 7676W        W76070  27.615  11.901   2.766
 7677W        W76071  17.601  16.212  11.000
 7678W        W76072  21.484  34.440   3.854
 7679W        W76073  25.657  38.754   1.837
 7680W        W76074  42.316  26.964   4.593
 7681W        W76075  11.437  27.392  12.968
 7682W        W76076   6.250  38.948   3.616
 7683W        W76077  41.620  17.081   4.985
 7684W        W76078  37.615  44.745  11.957
 7685W        W76079  39.355  43.801  12.439
 7686W        W76080  40.075   8.327   2.338
 7687W        W76081  13.629   9.878  10.424
 7688W        W76082  33.648  41.330  12.902
 7689W        W76083   8.178  15.176   2.177
 7690W        W76084  35.399  18.995  11.930
 7691W        W76085   0.297  20.929   4.408
 7692W        W76086   5.382  37.469   3.339
 7693W        W76087  34.701  18.568   2.665
 7694W        W76088   9.222   7.806   4.544
 7695W        W76089  39.365  43.310   0.294
 7696W        W76090  16.904  14.297  10.781
 7697W        W76091  18.502  44.985   4.038
 7698W        W76092  33.567  13.209   0.271
 7699W        W76093  28.855  12.774   0.863
 7700W        W76094  16.724  18.564  14.710
 7701W        W76095  27.680  42.481   4.395
 7702W        W76096  28.902  44.382   4.124
 7703W        W76097  12.084  19.147   3.622
 7704W        W76098   1.340  32.056   1.324
 7705W        W76099  16.105  25.581  12.051
 7706W        W76100   5.771  28.449   0.660
 7707W        W76101  32.856  36.338   4.851
 7708W        W76102  39.139  34.174   1.398
 7709W        W76103  29.883  29.632  12.885
 7710W        W76104  18.703  34.859  12.094
 7711W        W76105  19.516  29.391   9.817
 7712W        W76106  22.001  30.212  14.694
 7713W        W76107  25.025  32.958   2.824
 7714W        W76108  29.009  27.038  13.582
 7715W        W76109  25.054  42.902   3.375
 7716W        W76110  16.322  25.036  12.996
 7717W        W76111   6.830   2.815  14.285
 7718W        W76112  10.364  32.667   3.294
 7719W        W76113  26.665  44.752  14.608
 7720W        W76114  28.404  20.088  10.628
 7721W        W76115  17.174  38.819  11.523
 7722W        W76116  11.408  14.063  13.517
 7723W        W76117   3.797  44.743  12.057
 7724W        W76118  20.251   6.869  12.603
 7725W        W76119   8.483  43.763  14.410
 7726W        W76120  13.847  23.522   1.446
 7727W        W76121  33.092  26.458   3.703
 7728W        W76122  30.544   4.069  13.359
 7729W        W76123  36.947  15.558  10.954
 7730W        W76124   2.219  42.060   3.040
 7731W        W76125  22.206  43.880   2.279
 7732W        W76126  25.201   0.184  14.729
 7733W        W76127  32.036   7.665  12.544
 7734W        W76128  17.718   2.734   0.909
 7735W        W76129  35.041  29.044  11.543
 7736W        W76130  14.740  38.372   0.001
 7737W        W76131   6.815  41.822  14.874
 7738W        W76132  16.214  44.761   0.860
 7739W        W76133  33.031  10.346   4.038
 7740W        W76134  20.117  36.337   1.794
 7741W        W76135   0.442  10.814   2.474
 7742W        W76136  15.721   6.766  10.855
 7743W        W76137  28.709   2.421   4.120
 7744W        W76138  24.168  25.603   4.762
 7745W        W76139   7.436   9.174   0.814
 7746W        W76140  37.547  43.093  13.084
 7747W        W76141  36.539  26.698   3.802
 7748W        W76142  13.785   1.371  13.009
 7749W        W76143  12.903  33.365   1.649
 7750W        W76144  34.195  19.600   3.685
 7751W        W76145  32.147   8.190   0.299
 7752W        W76146  42.265   0.072  14.795
 7753W        W76147  22.545  41.442   2.800
 7754W        W76148  21.247  19.634  12.166
 7755W        W76149  36.805  13.677   1.485
 7756W        W76150  23.124  34.672   4.615
 7757W        W76151  10.217  18.692   4.637
 7758W        W76152  44.324  11.275   1.210
 7759W        W76153  41.273  11.400  13.005
 7760W        W76154  15.039  19.596   4.096
 7761W        W76155  32.498  27.408  12.477
 7762W        W76156  26.701  43.942   1.083
 7763W        W76157   5.761  43.555   0.308
 7764W        W76158   3.101   2.138  14.968
 7765W        W76159  34.086  36.221  14.303
 7766W        W76160   3.834  31.144   4.702
 7767W        W76161  36.365  39.428   2.441
 7768W        W76162   7.973  15.433  10.195
 7769W        W76163   5.681  31.629  13.975
 7770W        W76164  33.066  35.075  11.891
 7771W        W76165  11.666   8.732   4.624
 7772W        W76166  13.458  18.463  12.582
 7773W        W76167  11.977  22.119  11.115
 7774W        W76168  30.489  16.280   3.875
 7775W        W76169  35.970   4.362   1.888
 7776W        W76170  37.887  21.735   3.700
 7777W        W76171  32.565  36.352   4.134
 7778W        W76172  34.887  27.369  11.186
 7779W        W76173   7.267  21.110  10.287
 7780W        W76174  23.862  31.401   4.136
 7781W        W76175  33.948  41.780   1.874
 7782W        W76176  30.815  27.699  14.442
 7783W        W76177  16.110  13.178   1.914
 7784W        W76178  13.508  38.152  14.775
 7785W        W76179  27.423  24.083  13.455
 7786W        W76180  36.090  43.354   4.599
 7787W        W76181  23.933   1.513   5.217
 7788W        W76182  26.461   1.662  11.875
 7789W        W76183  38.920  41.404   4.348
 7790W        W76184  23.582  25.662  14.447
 7791W        W76185  25.039  28.418   0.359
 7792W        W76186   8.390   8.800   4.399
 7793W        W76187   1.241  32.923  14.833
 7794W        W76188  30.915  36.774  12.023
 7795W        W76189  37.676   2.914   0.446
 7796W        W76190   1.738  38.881  14.925
 7797W        W76191  36.505   4.441   3.597
 7798W        W76192  24.076  22.618   1.865
 7799W        W76193  18.867  42.815   3.219
 7800W        W76194  36.561   7.480  14.896
 7801W        W76195   7.196  24.379  14.410
 7802W        W76196  35.874  37.997   0.780
 7803W        W76197  11.872  13.216  12.488
 7804W        W76198  35.553  12.858  11.655
 7805W        W76199  40.314  31.581   4.813
 7806W        W76200  40.024  19.796   2.910
 7807W        W76201  14.331  39.019   4.668
 7808W        W76202  26.193  10.642   2.691
 7809W        W76203  12.449  22.725   4.028
 7810W        W76204  20.159  15.730  12.492
 7811W        W76205  21.754   1.583   2.752
 7812W        W76206  14.890   7.695   3.378
 7813W        W76207  36.292  26.158  11.644
 7814W        W76208  22.828  20.492   0.846
 7815W        W76209  30.954  13.199  10.753
 7816W        W76210  11.581  44.013  12.976
 7817W        W76211  23.093   5.671   0.427
 7818W        W76212  23.451  29.766  10.675
 7819W        W76213   7.359  16.380   0.732
 7820W        W76214   2.321  43.535  12.519
 7821W        W76215  30.201  25.443   0.397
 7822W        W76216  12.101  35.965  14.769
 7823W        W76217  12.083  38.977  13.409
 7824W        W76218  30.087  19.540   0.296
 7825W        W76219  32.187  36.427   1.376
 7826W        W76220  24.195  35.538  12.600
 7827W        W76221   1.017   8.792   3.437
 7828W        W76222  20.750  34.551  14.857
 7829W        W76223  23.720  21.966  14.466
 7830W        W76224  18.671  22.465  10.689
 7831W        W76225  30.546  43.005   2.401
 7832W        W76226  16.946  29.194   3.109
 7833W        W76227  15.027  14.145  11.955
 7834W        W76228  16.332  40.846  10.553
 7835W        W76229  25.277  18.992   1.000
 7836W        W76230  23.452  16.235  11.535
 7837W        W76231   1.494   0.949  12.944
 7838W        W76232   5.731   6.864  14.868
 7839W        W76233  30.442   1.825   1.776
 7840W        W76234  11.482   3.308   1.259
 7841W        W76235  42.865  17.333   2.768
 7842W        W76236  31.242  24.716   3.827
 7843W        W76237  15.868   8.282  11.047
 7844W        W76238   5.419  21.777   2.290
 7845W        W76239   7.302   4.829   1.808
 7846W        W76240  25.249  23.683   2.675
 7847W        W76241   7.097  34.066   1.010
 7848W        W76242   2.773  31.847  10.736
 7849W        W76243  38.993  33.459  14.304
 7850W        W76244  22.788  17.565  12.947
 7851W        W76245  16.114  36.086   0.477
 7852W        W76246  23.076  39.375   1.656
 7853W        W76247   6.726  18.203  10.644
 7854W        W76248  34.680  24.825  10.853
 7855W        W76249   2.283   0.001   3.317
 7856W        W76250  40.356   3.871   1.308
 7857W        W76251  39.702  35.608  12.932
 7858W        W76252  30.586  39.942  14.984
 7859W        W76253  15.217   2.903   1.759
 7860W        W76254  17.230  26.400   2.266
 7861W        W76255  29.663  37.154  10.789
 7862W        W76256  11.915  18.464   3.115
 7863W        W76257  39.910  36.141   3.283
 7864W        W76258   7.378  17.678   3.942
 7865W        W76259  21.102  21.094   0.430
 7866W        W76260  14.111  36.117   3.693
 7867W        W76261   5.831  32.705   3.826
 7868W        W76262  35.066   6.349  14.769
 7869W        W76263  41.967  33.790  14.969
 7870W        W76264  35.230   7.821   0.063
 7871W        W76265  36.181  43.543  12.164
 7872W        W76266  10.360  22.425   3.182
 7873W        W76267  40.429   3.690   3.426
 7874W        W76268  19.619  41.929   4.851
 7875W        W76269   7.998   0.490   4.234
 7876W        W76270  12.762  31.381  10.605
 7877W        W76271  34.093  18.496  13.563
 7878W        W76272  21.641   3.943   4.876
 7879W        W76273   9.434   2.973   4.177
 7880W        W76274  33.074  15.825   2.891
 7881W        W76275  26.495  29.724  11.121
 7882W        W76276  17.336   2.322  14.815
 7883W        W76277  27.972   3.970   4.479
 7884W        W76278  24.969  21.641   4.166
 7885W        W76279  22.153  35.115  14.920
 7886W        W76280  25.093  15.263   4.416
 7887W        W76281  30.571  40.104  12.323
 7888W        W76282  43.488  15.632   1.873
 7889W        W76283  38.728  24.419   4.489
 7890W        W76284   9.797  13.428   4.896
 7891W        W76285   1.653  12.259   1.305
 7892W        W76286  16.060  29.083  12.357
 7893W        W76287  44.216  21.993   4.157
 7894W        W76288  35.052  33.884   0.814
 7895W        W76289   8.267   9.253  12.850
 7896W        W76290  40.979  42.091   4.152
 7897W        W76291  14.781   9.201   3.123
 7898W        W76292  39.739  44.254   1.804
 7899W        W76293  32.869  30.660  11.141
 7900W        W76294  27.764   1.490   5.448
 7901W        W76295  28.021   9.615  11.703
 7902W        W76296  29.340  37.250   2.428
 7903W        W76297  33.837  37.413   2.713
 7904W        W76298  42.567  33.994  11.189
 7905W        W76299  26.623  22.218   4.608
 7906W        W76300  37.856  32.210  10.170
 7907W        W76301   0.997  21.498   3.880
 7908W        W76302  43.417  28.373  14.896
 7909W        W76303   3.379  18.789  13.425
 7910W        W76304   9.703   6.040   2.337
 7911W        W76305  39.285  34.342   4.763
 7912W        W76306  38.592   8.743   4.596
 7913W        W76307  27.718  29.502   2.726
 7914W        W76308  27.008  26.693  14.974
 7915W        W76309   0.758  23.692  14.794
 7916W        W76310  39.994   1.852  10.446
 7917W        W76311  39.927  17.067   1.747
 7918W        W76312  16.119  16.272  14.591
 7919W        W76313  41.358  39.862   3.706
 7920W        W76314   1.406  35.199  12.403
 7921W        W76315  40.777  28.634   1.218
 7922W        W76316  21.604  10.073   3.355
 7923W        W76317  31.990  12.076  12.127
 7924W        W76318   8.290  26.183   2.567
 7925W        W76319  18.999  30.543   3.002
 7926W        W76320  43.425  26.351  10.443
 7927W        W76321   2.275  31.605  13.532
 7928W        W76322  12.902  12.862   0.646
 7929W        W76323   6.398  39.494   0.776
 7930W        W76324  10.822  36.693  11.167
 7931W        W76325  14.618  26.753   3.887
 7932W        W76326  43.588  32.596  12.491
 7933W        W76327  36.680  30.809   3.788
 7934W        W76328  38.478   8.744   2.648
 7935W        W76329  30.087   3.992   4.656
 7936W        W76330  40.412  38.140  14.520
 7937W        W76331  10.930  15.319  13.525
 7938W        W76332  43.238   1.949  11.132
 7939W        W76333   7.311   2.456  13.069
 7940W        W76334  25.685  19.719   4.652
 7941W        W76335  41.512  33.079   3.859
 7942W        W76336   4.098   7.431  14.880
 7943W        W76337   0.498  13.312  14.792
 7944W        W76338  41.665  12.494   0.897
 7945W        W76339   0.374  29.630   0.629
 7946W        W76340  29.021  24.660  12.029
 7947W        W76341  43.892  11.432   4.661
 7948W        W76342  14.973  28.005  10.333
 7949W        W76343  20.654   8.157  11.065
 7950W        W76344   3.027  37.102   0.278
 7951W        W76345  28.207   0.034  13.790
 7952W        W76346  32.370   5.690  10.566
 7953W        W76347  11.702  21.387  10.474
 7954W        W76348  35.333  39.435   2.763
 7955W        W76349   2.529  43.756   4.056
 7956W        W76350  36.343  18.850  12.902
 7957W        W76351   9.380  33.311  14.895
 7958W        W76352  30.243  39.217   3.862
 7959W        W76353  20.235   3.383   4.427
 7960W        W76354  40.921   0.379   2.727
 7961W        W76355  12.059   5.399   4.064
 7962W        W76356  13.396   4.276   4.044
 7963W        W76357   2.991  37.122  13.414
 7964W        W76358  32.876   4.256  12.435
 7965W        W76359   4.751  27.431  13.036
 7966W        W76360   5.770  14.889  11.730
 7967W        W76361  40.390  30.426  13.347
 7968W        W76362  37.552   7.442   1.456
 7969W        W76363  16.819  28.725   4.066
 7970W        W76364  44.977   1.300   3.300
 7971W        W76365  22.224  11.246   1.814
 7972W        W76366  14.167   6.723  12.513
 7973W        W76367  43.174  42.075   2.644
 7974W        W76368  28.595  42.177   4.577
 7975W        W76369  23.495  17.441   2.350
 7976W        W76370   8.292  30.728  14.948
 7977W        W76371  17.798  37.582  10.740
 7978W        W76372  41.991  38.546  14.887
 7979W        W76373   2.138  29.207  10.679
 7980W        W76374   3.130  33.468  11.626
 7981W        W76375  30.105  18.660   3.315
 7982W        W76376  19.392  28.747  14.723
 7983W        W76377  31.349  12.188  14.917
 7984W        W76378  31.627  25.176  11.230
 7985W        W76379  15.713   1.938   0.179
 7986W        W76380  42.904   6.479   2.845
 7987W        W76381  38.567   4.325  12.579
 7988W        W76382  40.825   4.440   0.830
 7989W        W76383  42.068  28.475   0.930
 7990W        W76384   0.154  15.612   0.051
 7991W        W76385  19.872  29.421  14.629
 7992W        W76386   1.923   6.185  14.539
 7993W        W76387  29.568  42.984   5.012
 7994W        W76388  13.547   9.094   2.733
 7995W        W76389   2.638   3.343  14.465
 7996W        W76390   3.275  18.087   0.943
 7997W        W76391  42.842   2.364  14.093
 7998W        W76392   8.924  32.703   1.198
 7999W        W76393   4.163  18.021  11.943
 8000W        W76394  17.262   9.875  12.579
 8001W        W76395  19.067  16.496  13.043
 8002W        W76396  44.674  30.496   4.127
 8003W        W76397  23.100  26.198  11.578
 8004W        W76398  24.973   9.921   4.063
 8005W        W76399  24.484  37.288  11.209
 8006W        W76400   0.340  24.976   2.849
 8007W        W76401  22.029  41.501   2.787
 8008W        W76402  20.513   5.339   2.931
 8009W        W76403   1.115  34.465   1.276
 8010W        W76404   4.165   0.889   1.411
 8011W        W76405  28.146   7.921  13.907
 8012W        W76406  35.555   5.694   4.313
 8013W        W76407  39.832  34.338   3.649
 8014W        W76408  37.383  13.947   0.817
 8015W        W76409   3.387   4.149  14.964
 8016W        W76410  42.481  33.134   0.865
 8017W        W76411  11.321  17.976  13.484
 8018W        W76412  12.271  24.019   2.375
 8019W        W76413  12.051   4.326   3.274
 8020W        W76414   2.279  39.831   1.393
 8021W        W76415  26.645   2.747  12.568
 8022W        W76416  38.410  15.354  10.986
 8023W        W76417  29.125  16.313  13.044
 8024W        W76418  17.719  17.479  13.075
 8025W        W76419  11.453  25.362  10.345
 8026W        W76420  43.019  36.182   3.620
 8027W        W76421  32.115   8.967  13.028
 8028W        W76422  36.800  29.562  13.073
 8029W        W76423  29.615   1.217  12.678
 8030W        W76424  41.728  41.907   1.230
 8031W        W76425  34.003  32.823  10.575
 8032W        W76426  15.348  16.439  12.541
 8033W        W76427  20.349   2.359   2.302
 8034W        W76428   4.412  29.637   3.664
 8035W        W76429  21.087  40.254  14.057
 8036W        W76430  12.977  18.430   2.350
 8037W        W76431  30.897  37.386  12.580
 8038W        W76432  16.250  24.025  14.119
 8039W        W76433  40.536  19.808  12.421
 8040W        W76434  37.983  37.355   0.809
 8041W        W76435  18.730  14.340   0.918
 8042W        W76436  43.155   4.187  11.118
 8043W        W76437  39.996  29.499  14.288
 8044W        W76438  41.044   6.299   2.248
 8045W        W76439  13.817  23.697   0.756
 8046W        W76440  35.670  13.070   2.390
 8047W        W76441  21.192  11.365  12.638
 8048W        W76442  13.084  34.777  14.177
 8049W        W76443  28.649  12.457  11.128
 8050W        W76444  16.016  44.028   1.250
 8051W        W76445  28.497  13.675   0.850
 8052W        W76446  14.569   3.756   3.622
 8053W        W76447  37.091   5.414   0.407
 8054W        W76448  26.962  30.958  11.987
 8055W        W76449   2.442   2.885   0.752
 8056W        W76450  18.079   6.780   3.574
 8057W        W76451  21.080   7.275   4.518
 8058W        W76452  10.743  31.565  10.813
 8059W        W76453   8.737   9.600   1.754
 8060W        W76454   8.794  14.630   4.675
 8061W        W76455  23.942   5.155  13.295
 8062W        W76456   8.999  33.058   3.830
 8063W        W76457   3.403   4.730  12.635
 8064W        W76458  30.028   3.286   1.825
 8065W        W76459  31.239   1.957   4.525
 8066W        W76460  11.160   9.372  14.254
 8067W        W76461  37.560  39.911  13.372
 8068W        W76462  31.882  38.456   2.543
 8069W        W76463  20.649   1.595   1.523
 8070W        W76464   4.235  26.489  14.353
 8071W        W76465   8.411  24.838   2.344
 8072W        W76466  40.306   4.086  11.042
 8073W        W76467  41.514  37.595  12.903
 8074W        W76468  41.386  15.353  14.421
 8075W        W76469   4.483   8.069  13.375
 8076W        W76470  19.090  27.069   1.855
 8077W        W76471  40.043   7.786  11.379
 8078W        W76472  23.524  14.553  14.239
 8079W        W76473   2.751  25.715  11.541
 8080W        W76474  41.315  40.764   0.754
 8081W        W76475  21.535  37.872   3.301
 8082W        W76476  43.049  28.738  11.895
 8083W        W76477   5.514  28.990   2.342
 8084W        W76478  26.254   6.714   1.256
 8085W        W76479  12.081  44.145  10.734
 8086W        W76480  43.314   6.847  11.646
 8087W        W76481   8.344  17.590  14.450
 8088W        W76482  20.966  22.657   4.815
 8089W        W76483  29.905  19.846  14.434
 8090W        W76484   2.814  18.044  11.871
 8091W        W76485  18.582  27.559   1.235
 8092W        W76486  23.702  37.875  10.657
 8093W        W76487   0.262  23.088   4.106
 8094W        W76488   6.168  37.777   0.255
 8095W        W76489  18.317  43.484   4.073
 8096W        W76490   4.014  41.456  14.755
 8097W        W76491  43.907  11.324  14.813
 8098W        W76492  11.575  30.567   2.846
 8099W        W76493   5.715  16.686   2.874
 8100W        W76494  33.895  44.430   0.774
 8101W        W76495  29.705  25.703   2.819
 8102W        W76496  11.288  22.973   0.886
 8103W        W76497   8.625  12.349  11.931
 8104W        W76498   5.849  11.568   2.139
 8105W        W76499  14.804  14.689   2.881
 8106W        W76500  20.781  40.587   2.386
 8107W        W76501  11.293  18.583   0.973
 8108W        W76502  17.731  44.706  11.565
 8109W        W76503  43.763   5.286  10.584
 8110W        W76504  10.762   7.516  14.293
 8111W        W76505  17.232  22.489   2.847
 8112W        W76506   5.756  42.533  13.046
 8113W        W76507  15.696  18.112   1.712
 8114W        W76508  25.678  41.009   3.261
 8115W        W76509   7.436  16.611   1.789
 8116W        W76510  22.047  30.764  12.072
 8117W        W76511  30.410   9.716   0.843
 8118W        W76512   0.986  40.202  13.214
 8119W        W76513  33.140   1.940   4.950
 8120W        W76514  16.081  21.157  11.547
 8121W        W76515  32.493  10.560  10.674
 8122W        W76516  25.883  41.956  10.718
 8123W        W76517  44.709  21.064  10.073
 8124W        W76518  36.053  33.602   2.029
 8125W        W76519  24.539  28.281  12.573
 8126W        W76520  42.578   3.374  11.984
 8127W        W76521  12.980  40.294  12.979
 8128W        W76522   0.812  41.438   2.429
 8129W        W76523   8.607  29.793  13.455
 8130W        W76524   2.330  23.607   3.760
 8131W        W76525  42.315  24.040  10.772
 8132W        W76526  24.898  38.830   3.227
 8133W        W76527  24.532  14.282   0.405
 8134W        W76528   8.889  25.703   0.658
 8135W        W76529  23.775   4.841   0.466
 8136W        W76530  28.971  24.144   1.743
 8137W        W76531   6.467  40.432   3.560
 8138W        W76532  37.217  44.049   2.258
 8139W        W76533  13.153  19.436   0.873
 8140W        W76534  26.082  43.063  12.360
 8141W        W76535  37.480  42.945   0.463
 8142W        W76536  26.684   0.527   4.968
 8143W        W76537  41.978  40.841  13.894
 8144W        W76538  30.168  39.545   0.394
 8145W        W76539  15.947  44.670   0.420
 8146W        W76540  33.331  33.121  14.860
 8147W        W76541  14.831  21.079   4.239
 8148W        W76542  42.061  24.763  11.604
 8149W        W76543  26.415  34.108   4.523
 8150W        W76544   5.620  19.181   2.817
 8151W        W76545  39.332  18.798   3.374
 8152W        W76546  36.896   4.022  13.658
 8153W        W76547  27.085  34.820   2.270
 8154W        W76548  19.395  20.230   2.337
 8155W        W76549  43.183  10.150  14.075
 8156W        W76550  35.664   4.077  11.897
 8157W        W76551  40.576  29.090   0.411
 8158W        W76552  19.117  13.155   4.386
 8159W        W76553  21.770   8.048   0.804
 8160W        W76554  38.805  26.093   0.941
 8161W        W76555  43.886  32.355  10.880
 8162W        W76556  23.344  37.647  11.448
 8163W        W76557  21.746   1.936  14.878
 8164W        W76558  31.401  37.942   4.823
 8165W        W76559  25.729  10.422   4.459
 8166W        W76560  13.863  36.753  13.620
 8167W        W76561  22.146  38.799  10.738
 8168W        W76562  11.572  20.073   1.935
 8169W        W76563  28.658  32.311   1.753
 8170W        W76564   1.790  38.548   1.448
 8171W        W76565  36.494   6.076  12.016
 8172W        W76566  32.508  42.969  14.211
 8173W        W76567   9.674  10.773   4.615
 8174W        W76568  41.911  29.728   0.443
 8175W        W76569  19.003  15.448  12.461
 8176W        W76570  28.728  26.823   1.419
 8177W        W76571  20.517  38.392  11.117
 8178W        W76572   9.958  32.457  14.480
 8179W        W76573   3.760  30.367   3.309
 8180W        W76574  17.243  10.862   0.359
 8181W        W76575  39.604  21.617  13.558
 8182W        W76576  34.149   0.910   0.853
 8183W        W76577  33.866  20.998  14.366
 8184W        W76578  26.744  31.645   3.192
 8185W        W76579   7.668  22.140  14.444
 8186W        W76580  24.017   0.760  12.498
 8187W        W76581  17.059  18.786  10.518
 8188W        W76582   7.340  14.707  14.195
 8189W        W76583  16.098  32.600   1.314
 8190W        W76584  31.864   0.701   5.040
 8191W        W76585  13.663  21.727  14.315
 8192W        W76586  28.855  13.200  13.923
 8193W        W76587  41.576   8.407  13.518
 8194W        W76588  16.231  27.067  13.862
 8195W        W76589  11.115   8.284   3.684
 8196W        W76590   3.486  15.263   3.127
 8197W        W76591  21.769  36.678   0.730
 8198W        W76592  40.354  23.768  11.659
 8199W        W76593  15.138  29.162   2.296
 8200W        W76594  26.708  22.922   3.253
 8201W        W76595  27.702  11.785  11.481
 8202W        W76596  33.846  37.337   1.831
 8203W        W76597  14.363  37.000  11.941
 8204W        W76598  24.028  24.443  13.513
 8205W        W76599   5.469  27.217  14.362
 8206W        W76600  26.140  39.054   0.050
 8207W        W76601  35.515   3.002  11.995
 8208W        W76602   6.861   5.691   4.146
 8209W        W76603  11.577  15.595  12.911
 8210W        W76604  12.833  10.437  12.371
 8211W        W76605  36.975  14.599  12.444
 8212W        W76606  14.035  34.060  12.135
 8213W        W76607  43.425  26.841   1.922
 8214W        W76608  26.587  40.763   4.768
 8215W        W76609  40.968  24.471  10.803
 8216W        W76610   9.153   4.764  12.925
 8217W        W76611   8.115  26.093   5.014
 8218W        W76612  17.183  27.480  12.476
 8219W        W76613  12.721  16.411   3.652
 8220W        W76614  10.216  15.238   2.948
 8221W        W76615  36.963   9.344  14.883
 8222W        W76616   4.821   7.675  13.263
 8223W        W76617   2.997  39.896   3.121
 8224W        W76618  10.596  43.054   3.619
 8225W        W76619  38.480  18.108  12.625
 8226W        W76620   9.874  21.656  12.953
 8227W        W76621  27.875   7.648  11.196
 8228W        W76622   0.318  37.419  10.538
 8229W        W76623  38.451  24.901   0.984
 8230W        W76624  36.545  28.215  14.834
 8231W        W76625  25.574  33.333  14.371
 8232W        W76626   0.434   6.363   3.204
 8233W        W76627  28.714  29.052   3.229
 8234W        W76628  37.278  38.898  13.352
 8235W        W76629  35.356  40.858  13.042
 8236W        W76630  24.537  25.032  12.386
 8237W        W76631  12.561  14.955  12.541
 8238W        W76632  18.098  37.117   4.068
 8239W        W76633   1.230  22.676  13.513
 8240W        W76634  30.294  44.994   1.349
 8241W        W76635   8.230  21.924   4.358
 8242W        W76636  43.297   2.892  13.847
 8243W        W76637  13.785  36.226  12.451
 8244W        W76638  33.649   6.858  13.549
 8245W        W76639  39.701   5.198   3.195
 8246W        W76640  14.585  15.851  11.619
 8247W        W76641  12.598  18.584  14.072
 8248W        W76642  25.728  40.047  12.063
 8249W        W76643  10.667   1.488  14.990
 8250W        W76644  18.163  10.519  13.233
 8251W        W76645  35.598  41.770  11.140
 8252W        W76646  42.519  38.872   4.134
 8253W        W76647  34.529  20.313   3.676
 8254W        W76648  33.444   5.816   4.528
 8255W        W76649  23.272  19.206   0.365
 8256W        W76650  20.134  21.902  12.965
 8257W        W76651   7.967   1.737  13.478
 8258W        W76652  24.134   8.144   4.814
 8259W        W76653  34.525  27.200   2.279
 8260W        W76654  42.341  15.183  11.949
 8261W        W76655  28.511   7.354   4.496
 8262W        W76656  28.458  31.025   0.180
 8263W        W76657  15.594   7.764   0.626
 8264W        W76658   0.928   8.635  11.499
 8265W        W76659   2.244  10.605  11.166
 8266W        W76660  34.156  11.070   2.453
 8267W        W76661  29.435  15.416  12.424
 8268W        W76662   2.398  21.702  11.991
 8269W        W76663  11.756   5.182   1.646
 8270W        W76664  25.688   3.684  11.897
 8271W        W76665  16.001  28.853  14.242
 8272W        W76666  39.475  24.604  14.898
 8273W        W76667  41.268  44.811   1.862
 8274W        W76668  19.739  20.914  14.719
 8275W        W76669  43.639  27.175  11.736
 8276W        W76670  16.829  38.977  13.454
 8277W        W76671   2.948   7.087  14.104
 8278W        W76672  38.041  15.413  14.356
 8279W        W76673  22.883  11.446  11.076
 8280W        W76674  12.123  15.683   3.687
 8281W        W76675  34.019  20.491   2.691
 8282W        W76676  16.250  14.797  12.017
 8283W        W76677  39.072  26.584  11.191
 8284W        W76678  24.650  29.250   0.308
 8285W        W76679  29.939  38.779   3.301
 8286W        W76680  34.428  28.621  13.910
 8287W        W76681   9.677  27.824   2.164
 8288W        W76682  43.958  24.962  13.827
 8289W        W76683  25.704  40.568  12.062
 8290W        W76684  44.992  34.893  11.604
 8291W        W76685   4.475   7.376   4.566
 8292W        W76686  19.648  16.957  11.957
 8293W        W76687  43.705  16.168  11.997
 8294W        W76688  12.142  26.581   1.148
 8295W        W76689  44.625  43.583  11.315
 8296W        W76690  25.003  38.735   0.755
 8297W        W76691  41.439  31.660  14.120
 8298W        W76692  35.940  24.680  14.922
 8299W        W76693  33.367  34.563   4.072
 8300W        W76694  38.311  38.507  11.556
 8301W        W76695   7.876  20.726   0.278
 8302W        W76696   3.009   5.685   1.241
 8303W        W76697  41.459  32.660   4.604
 8304W        W76698   9.259  28.217   0.812
 8305W        W76699  21.271  13.612   2.873
 8306W        W76700  43.989  34.350  14.542
 8307W        W76701  15.369   7.596   3.204
 8308W        W76702  40.519  11.817  11.771
 8309W        W76703  42.537  34.955  12.170
 8310W        W76704  42.641   8.915   3.652
 8311W        W76705  12.279  43.852  13.499
 8312W        W76706  30.886  41.421  14.290
 8313W        W76707  44.785  27.692   2.674
 8314W        W76708  25.651   1.665   5.011
 8315W        W76709  17.126  31.478   1.490
 8316W        W76710  22.491  34.647   1.839
 8317W        W76711   1.435  25.047  13.465
 8318W        W76712  31.955  35.375   1.232
 8319W        W76713  12.671  37.103   0.278
 8320W        W76714  24.065  41.736  11.696
 8321W        W76715   0.091   7.096  12.590
 8322W        W76716  15.936   4.015   3.642
 8323W        W76717  19.597  41.478  11.508
 8324W        W76718  44.111   7.915   2.405
 8325W        W76719  22.870   3.587   3.130
 8326W        W76720   9.306   5.717   1.295
 8327W        W76721  19.775   1.239   1.012
 8328W        W76722  32.234  25.496  12.436
 8329W        W76723  39.574  22.043  14.953
 8330W        W76724  39.185  16.877   1.145
 8331W        W76725  20.533   3.364  14.460
 8332W        W76726   7.560  31.578  14.863
 8333W        W76727  10.348   4.762   3.282
 8334W        W76728  37.140  11.089   4.000
 8335W        W76729  16.202  33.927   4.602
 8336W        W76730  44.037  17.636   2.913
 8337W        W76731  28.636   1.368   4.469
 8338W        W76732  11.342  38.906   0.008
 8339W        W76733  22.288  34.174  11.196
 8340W        W76734  39.446   1.944  14.416
 8341W        W76735  19.102  26.984   4.066
 8342W        W76736  24.240  17.378  12.110
 8343W        W76737  26.793  18.105  14.438
 8344W        W76738  29.243  12.116  13.332
 8345W        W76739  39.433   3.745  14.286
 8346W        W76740   9.733  44.864   0.454
 8347W        W76741  32.849  16.158   0.793
 8348W        W76742   2.880  24.463  10.784
 8349W        W76743   0.399  18.006   1.116
 8350W        W76744  29.033   7.261   0.938
 8351W        W76745  15.810  12.650   3.779
 8352W        W76746  38.951  24.775  14.783
 8353W        W76747  11.582  17.531  14.631
 8354W        W76748  23.004  37.740  11.077
 8355W        W76749   6.905  28.260  11.852
 8356W        W76750  25.553  30.336   3.080
 8357W        W76751  19.204  44.803  11.453
 8358W        W76752  10.310   3.907   0.925
 8359W        W76753  44.257  13.086   2.432
 8360W        W76754  20.057   0.266  11.531
 8361W        W76755  43.788  22.774   3.848
 8362W        W76756  43.388  39.377   1.820
 8363W        W76757  44.569  24.512   3.844
 8364W        W76758  16.614   3.841   1.343
 8365W        W76759  11.706  31.361   2.489
 8366W        W76760   2.389   5.676   4.636
 8367W        W76761  30.060   7.491   0.902
 8368W        W76762   4.686  42.232   2.373
 8369W        W76763   1.516  26.473   1.856
 8370W        W76764  23.614  37.527   0.347
 8371W        W76765  39.000  32.788   1.266
 8372W        W76766   5.331  23.759   1.100
 8373W        W76767  17.764  33.953   4.474
 8374W        W76768   1.022  22.684   0.817
 8375W        W76769  30.183  20.577   2.148
 8376W        W76770  21.137  39.430  12.047
 8377W        W76771  27.424  30.446   2.394
 8378W        W76772   9.982  22.885   9.705
 8379W        W76773  35.058  15.637  13.326
 8380W        W76774   1.372  43.785  14.341
 8381W        W76775  33.024   0.793  14.969
 8382W        W76776   3.997  32.819   4.104
 8383W        W76777  37.870  31.475   4.255
 8384W        W76778  34.294  31.092   2.332
 8385W        W76779   0.464  33.094   0.306
 8386W        W76780  36.485  39.477   4.129
 8387W        W76781  29.066  16.573  14.381
 8388W        W76782  31.702  10.403  11.829
 8389W        W76783  23.769   4.574  13.794
 8390W        W76784   4.156   2.341   1.091
 8391W        W76785  42.906  29.988  13.015
 8392W        W76786  36.284  38.154  12.908
 8393W        W76787   7.052  15.163   5.165
 8394W        W76788  27.483   3.837  11.062
 8395W        W76789  10.419  32.832  13.943
 8396W        W76790  16.481   0.349   4.243
 8397W        W76791  31.035   4.261  12.913
 8398W        W76792  43.278  40.299  12.496
 8399W        W76793  33.656  29.169   3.300
 8400W        W76794   5.782  17.254  11.714
 8401W        W76795  29.153   9.226  11.106
 8402W        W76796  26.103  44.420  14.390
 8403W        W76797  27.557   5.253  11.027
 8404W        W76798   3.005  29.543   2.522
 8405W        W76799  43.829  29.169  14.062
 8406W        W76800  33.787  10.362   0.643
 8407W        W76801  40.406  39.547   4.435
 8408W        W76802  24.677   0.576   5.019
 8409W        W76803  15.214  22.628   3.572
 8410W        W76804  29.742  20.310   0.378
 8411W        W76805  41.377  38.967   1.676
 8412W        W76806  30.607  42.268  11.664
 8413W        W76807  19.380  32.901  14.857
 8414W        W76808  44.928   1.090  12.982
 8415W        W76809  34.781  43.319  12.642
 8416W        W76810  19.103  36.593  10.813
 8417W        W76811  26.093   8.914  13.968
 8418W        W76812  42.290   9.615   4.199
 8419W        W76813   9.433  12.286   0.398
 8420W        W76814  27.997  16.817   2.172
 8421W        W76815  37.451  38.401  13.415
 8422W        W76816  29.920  41.404   9.819
 8423W        W76817  33.587  18.133   0.734
 8424W        W76818  32.345   4.842   1.487
 8425W        W76819  23.559   5.909  13.498
 8426W        W76820  13.119  28.735   4.025
 8427W        W76821   7.339  41.037  14.379
 8428W        W76822  12.262  25.089   3.396
 8429W        W76823   4.838   7.906  12.072
 8430W        W76824  17.151   9.560  13.828
 8431W        W76825  29.753  13.733  11.995
 8432W        W76826   8.240   9.271  13.864
 8433W        W76827  12.853  13.786   2.903
 8434W        W76828  23.643  23.844  14.975
 8435W        W76829  35.558  42.781  10.978
 8436W        W76830  39.889   5.756  14.694
 8437W        W76831   9.174   3.790  12.205
 8438W        W76832  15.999  31.964  13.352
 8439W        W76833  42.947  17.644  14.399
 8440W        W76834  17.810  35.534  13.072
 8441W        W76835  27.034  41.915   2.706
 8442W        W76836  10.245   5.230   0.338
 8443W        W76837  25.960   3.921  14.815
 8444W        W76838  23.079  41.310   1.293
 8445W        W76839  25.596  17.744  13.626
 8446W        W76840  27.172  13.430   0.340
 8447W        W76841  11.391  25.214  11.239
 8448W        W76842  10.543   8.861   1.042
 8449W        W76843  41.188  26.665  13.429
 8450W        W76844  13.166  14.271  13.996
 8451W        W76845  27.112  43.165  13.593
 8452W        W76846  44.135  16.044  14.919
 8453W        W76847  38.781  15.111   0.118
 8454W        W76848  26.473  37.885  12.911
 8455W        W76849  42.898  26.760   3.309
 8456W        W76850  34.616  39.501  13.521
 8457W        W76851   5.201   0.373  12.523
 8458W        W76852  34.788   5.318   2.662
 8459W        W76853   9.348  16.010   2.339
 8460W        W76854  10.707   3.612   4.250
 8461W        W76855   7.302   7.760   1.771
 8462W        W76856  12.133  25.222  13.354
 8463W        W76857  14.706  44.656   0.547
 8464W        W76858  19.580  12.265   1.906
 8465W        W76859  39.642  41.085  13.500
 8466W        W76860  37.706   9.034  13.374
 8467W        W76861  25.038  23.033   0.346
 8468W        W76862  18.763  19.058   3.657
 8469W        W76863  10.156  15.052  10.964
 8470W        W76864  42.898  18.712  13.605
 8471W        W76865  32.939  44.448  12.559
 8472W        W76866  16.171  22.470   2.503
 8473W        W76867  27.047  13.754   1.380
 8474W        W76868  39.767  32.932  12.079
 8475W        W76869  39.572   8.317  13.364
 8476W        W76870  14.912   6.672   4.097
 8477W        W76871   7.501   2.845   0.831
 8478W        W76872  14.266  28.702   1.956
 8479W        W76873   2.143  24.394  11.127
 8480W        W76874  17.477  38.982   4.660
 8481W        W76875   3.392  37.509   0.980
 8482W        W76876  41.799  35.922  12.554
 8483W        W76877  20.189  24.714  11.447
 8484W        W76878  10.737  32.351  11.224
 8485W        W76879  13.167  16.635   2.089
 8486W        W76880  19.174  30.480   1.055
 8487W        W76881  34.153  22.108   1.992
 8488W        W76882   0.160  30.898   4.510
 8489W        W76883  10.792  29.043  11.428
 8490W        W76884   7.226  44.429   2.368
 8491W        W76885  32.118   7.707  11.625
 8492W        W76886  22.654  35.605  13.323
 8493W        W76887  29.720  27.170   3.211
 8494W        W76888  16.611  15.335   3.870
 8495W        W76889  11.765  40.047   3.249
 8496W        W76890  11.839  32.703   4.880
 8497W        W76891  41.459  10.268  13.861
 8498W        W76892  21.659   5.002   3.446
 8499W        W76893  37.283  34.440  14.380
 8500W        W76894  34.411   5.638  13.840
 8501W        W76895  23.379  36.460   4.220
 8502W        W76896  43.313   1.883  14.202
 8503W        W76897  23.191  18.180   3.654
 8504W        W76898   7.888   4.053  14.645
 8505W        W76899  34.875  15.532  10.622
 8506W        W76900  13.173   0.605   0.965
 8507W        W76901   2.773  16.859   0.067
 8508W        W76902   1.954  21.532   1.147
 8509W        W76903  13.129  41.898   2.867
 8510W        W76904   1.256  17.932  13.803
 8511W        W76905  28.151  29.328   4.072
 8512W        W76906  27.990  41.958  11.834
 8513W        W76907  20.099  26.494   1.205
 8514W        W76908  28.465   2.723  13.777
 8515W        W76909  18.441  17.994   4.062
 8516W        W76910  11.263   0.266   3.711
 8517W        W76911  20.287  10.694   3.758
 8518W        W76912  41.809   5.288   3.408
 8519W        W76913  40.029   8.659  11.151
 8520W        W76914  14.029   6.498  12.042
 8521W        W76915   7.900  16.072  14.378
 8522W        W76916  36.320  30.679   4.702
 8523W        W76917  43.312  27.242   3.718
 8524W        W76918  25.487  10.248   3.290
 8525W        W76919  35.904   4.324  12.296
 8526W        W76920  17.594  25.505  11.926
 8527W        W76921  18.485  28.986  12.578
 8528W        W76922  25.053  40.251   3.259
 8529W        W76923  11.193  31.032  12.152
 8530W        W76924  27.195   0.058   0.882
 8531W        W76925   0.342  42.715   3.432
 8532W        W76926  21.116  19.878   3.733
 8533W        W76927  23.699   1.913   2.478
 8534W        W76928   8.420  20.753   0.317
 8535W        W76929  39.008  39.315   2.893
 8536W        W76930  26.206  33.679  12.993
 8537W        W76931  12.073   8.188  10.372
 8538W        W76932  10.257  43.607  12.406
 8539W        W76933  36.385  26.996  12.330
 8540W        W76934   6.858  13.233  11.085
 8541W        W76935   2.672  28.622  14.971
 8542W        W76936   3.929  41.602   3.191
 8543W        W76937  18.163  38.833  14.891
 8544W        W76938  11.881  14.608   4.264
 8545W        W76939  10.376   2.127  12.002
 8546W        W76940  29.342  41.944  12.469
 8547W        W76941   0.509  23.902  10.888
 8548W        W76942   4.757  44.043  10.791
 8549W        W76943  12.166  41.361  13.108
 8550W        W76944  14.323  30.457   3.706
 8551W        W76945  27.430  11.325  10.205
 8552W        W76946  40.634   2.442  14.341
 8553W        W76947  32.818  44.670   2.315
 8554W        W76948  35.405  43.722   0.147
 8555W        W76949  13.817  41.860  13.945
 8556W        W76950  32.410  36.422   2.366
 8557W        W76951  20.290  27.709  11.608
 8558W        W76952  20.220  34.339  13.076
 8559W        W76953  32.959  29.030   3.478
 8560W        W76954   6.645  17.703  11.112
 8561W        W76955   3.261  43.018   4.445
 8562W        W76956  36.386  24.623   0.678
 8563W        W76957  23.162  32.607  13.136
 8564W        W76958  30.101  30.747   2.134
 8565W        W76959  13.029   4.922   0.092
 8566W        W76960  32.376   6.321   4.579
 8567W        W76961  11.161   8.249   1.366
 8568W        W76962  41.319  25.556   0.036
 8569W        W76963   3.298  25.069  13.523
 8570W        W76964  23.654  26.506   2.766
 8571W        W76965  41.994   3.440  14.876
 8572W        W76966  34.516  34.344   3.088
 8573W        W76967  36.521   4.392  13.593
 8574W        W76968  40.917   7.456  11.259
 8575W        W76969   7.870  32.511  13.125
 8576W        W76970  36.439  36.402   4.705
 8577W        W76971  38.423  16.802   3.711
 8578W        W76972  21.506  37.912   1.563
 8579W        W76973  24.852   5.022   4.118
 8580W        W76974  44.450  34.113  12.473
 8581W        W76975  28.197  15.167  10.655
 8582W        W76976  37.392  44.915  14.484
 8583W        W76977  42.602  25.519  12.489
 8584W        W76978  27.564  28.019  10.545
 8585W        W76979  40.623   8.723  12.886
 8586W        W76980  44.489  35.537  11.972
 8587W        W76981  20.254  27.421  14.829
 8588W        W76982  27.633  42.682  13.351
 8589W        W76983  43.259  22.727  13.098
 8590W        W76984  30.593  24.721  12.588
 8591W        W76985  39.516  19.747   1.717
 8592W        W76986  17.512   3.788  13.923
 8593W        W76987  42.572  44.949   0.698
 8594W        W76988  18.772  44.199  12.127
 8595W        W76989  10.206  14.757   1.548
 8596W        W76990  41.990  15.079  12.313
 8597W        W76991  23.171  35.858  12.248
 8598W        W76992  18.654  24.120  10.642
 8599W        W76993  21.194   3.377   4.641
 8600W        W76994  16.771  12.900   1.780
 8601W        W76995  16.542   7.835   2.207
 8602W        W76996  43.831   6.933   3.383
 8603W        W76997  38.368  28.864   4.255
 8604W        W76998  12.207  20.830   3.275
 8605W        W76999   0.698  19.601  11.932
 8606W        W77000  25.381   7.188  11.595
 8607W        W77001   5.216  30.051  13.262
 8608W        W77002   3.202  34.453   2.841
 8609W        W77003  26.391   3.928   3.666
 8610W        W77004  15.042  12.907   3.934
 8611W        W77005  12.297  33.965  14.896
 8612W        W77006   0.869  40.686  13.417
 8613W        W77007  35.473  28.035   1.063
 8614W        W77008  22.135   1.005  11.462
 8615W        W77009  41.518  24.609   3.697
 8616W        W77010   6.925  32.868   3.179
 8617W        W77011  19.854  39.800   2.130
 8618W        W77012  44.776   5.282   1.432
 8619W        W77013  24.756  17.117   3.712
 8620W        W77014   6.802   7.870  13.407
 8621W        W77015  39.818   8.343   3.219
 8622W        W77016   9.142   7.045   3.975
 8623W        W77017  13.120  18.051   1.960
 8624W        W77018  37.867  34.767  11.114
 8625W        W77019  20.641  12.216   3.844
 8626W        W77020  11.841  21.094  14.349
 8627W        W77021   3.097   3.728  10.737
 8628W        W77022  20.524  41.814   1.795
 8629W        W77023  28.232  26.734   1.327
 8630W        W77024  44.479  17.080  10.499
 8631W        W77025   8.811  38.656   3.813
 8632W        W77026   5.849  37.792   2.777
 8633W        W77027  30.669  36.014  10.501
 8634W        W77028  43.289  39.354  11.201
 8635W        W77029   2.024  39.088  10.674
 8636W        W77030  43.601  22.000  12.895
 8637W        W77031  39.449  12.180   4.631
 8638W        W77032  36.911  42.568   3.703
 8639W        W77033   9.776  37.777  14.291
 8640W        W77034  43.742  35.787   2.352
 8641W        W77035   2.753  36.217  13.017
 8642W        W77036  43.189  44.474   4.888
 8643W        W77037  36.900  31.050  10.912
 8644W        W77038   6.338  44.862   2.673
 8645W        W77039  19.519   1.671  13.297
 8646W        W77040  34.350  25.547   3.068
 8647W        W77041  42.509  42.972  11.097
 8648W        W77042  38.317   1.705  13.879
 8649W        W77043   9.833  23.503  11.595
 8650W        W77044  20.125  34.869   1.167
 8651W        W77045  15.502  10.671  11.543
 8652W        W77046  36.896  34.799  12.876
 8653W        W77047  38.999  22.976   0.261
 8654W        W77048  28.351  12.143   4.043
 8655W        W77049  44.345  25.572   1.165
 8656W        W77050  34.646   7.280   3.188
 8657W        W77051  34.074  19.008  13.598
 8658W        W77052  42.097  13.077   0.352
 8659W        W77053  37.310  14.402  13.580
 8660W        W77054  21.011  35.518  14.785
 8661W        W77055  19.666  21.778   0.803
 8662W        W77056  25.612  29.988   0.809
 8663W        W77057  32.997   6.264  13.436
 8664W        W77058  43.927   4.925   0.947
 8665W        W77059  24.271  33.883  13.064
 8666W        W77060  31.675   1.482  11.476
 8667W        W77061  13.219  15.530  10.561
 8668W        W77062  24.020  23.021   3.249
 8669W        W77063  38.448  38.846   3.163
 8670W        W77064   5.891  31.611   2.736
 8671W        W77065  18.299   4.299   4.807
 8672W        W77066  23.654   6.414   3.115
 8673W        W77067  22.689   5.908  11.634
 8674W        W77068  31.030  12.629   4.313
 8675W        W77069  28.799   3.921   1.776
 8676W        W77070  11.267   8.469  10.980
 8677W        W77071  26.278  38.544  14.432
 8678W        W77072  33.001   9.078   4.806
 8679W        W77073  32.183  32.683  11.015
 8680W        W77074   7.531  30.260   2.370
 8681W        W77075   2.483  29.138  11.953
 8682W        W77076  38.361  34.123  11.449
 8683W        W77077  10.579  43.709  13.932
 8684W        W77078  10.019  26.143  14.887
 8685W        W77079  42.825   1.174  13.554
 8686W        W77080  31.652  39.320  11.572
 8687W        W77081  37.857  40.418  10.767
 8688W        W77082  16.008  35.464   1.678
 8689W        W77083  29.840   3.723   0.665
 8690W        W77084  26.144  32.140   2.929
 8691W        W77085  30.654  32.658  12.557
 8692W        W77086  20.252  17.704  10.820
 8693W        W77087  31.244  41.746   1.428
 8694W        W77088  20.561  28.241   0.894
 8695W        W77089  26.138  27.567  14.020
 8696W        W77090  10.128   6.051   1.817
 8697W        W77091   4.797  30.672   0.440
 8698W        W77092  22.020  38.817  11.547
 8699W        W77093  25.343  44.056   0.397
 8700W        W77094  11.377  18.149   3.148
 8701W        W77095  15.392  25.876   1.522
 8702W        W77096  35.558  15.977  13.832
 8703W        W77097  19.666  42.453   2.823
 8704W        W77098  21.746  28.642  14.096
 8705W        W77099  13.325   6.157   3.229
 8706W        W77100  29.682  31.708   1.906
 8707W        W77101   7.347  36.911  14.590
 8708W        W77102  18.553   5.724  13.999
 8709W        W77103  19.428   2.338   5.021
 8710W        W77104  28.945  42.929   4.209
 8711W        W77105  20.802   5.532   0.989
 8712W        W77106  33.590  29.732  14.873
 8713W        W77107  17.025  14.157   4.837
 8714W        W77108  19.177  16.886   1.243
 8715W        W77109   8.665  22.098  14.096
 8716W        W77110   5.895   3.117   1.772
 8717W        W77111  27.737  40.070   4.167
 8718W        W77112  32.696  16.522  10.972
 8719W        W77113   6.312  35.855   4.456
 8720W        W77114  14.287  22.956  11.236
 8721W        W77115  24.893  36.498   3.229
 8722W        W77116  43.884  34.619   3.118
 8723W        W77117  22.565  43.795  11.465
 8724W        W77118   9.204  36.887   0.793
 8725W        W77119  33.433   9.409   1.304
 8726W        W77120   1.811  43.041   1.260
 8727W        W77121  25.694  35.735  11.573
 8728W        W77122   7.633  33.478   3.778
 8729W        W77123   4.980  41.449  13.547
 8730W        W77124  22.289  10.903   4.073
 8731W        W77125   4.677  31.063  13.985
 8732W        W77126  35.532  35.847  12.598
 8733W        W77127  25.576  18.460   4.158
 8734W        W77128  28.020  33.021   1.379
 8735W        W77129  31.859  43.414  14.867
 8736W        W77130  16.755  11.692   4.555
 8737W        W77131  31.990  34.484  13.483
 8738W        W77132  26.054  30.507  12.394
 8739W        W77133   3.285  28.005   4.538
 8740W        W77134  31.643  32.564   2.672
 8741W        W77135  11.869  12.445  11.399
 8742W        W77136  33.401  18.178   2.816
 8743W        W77137  36.188   1.771   0.303
 8744W        W77138  18.508   0.706  10.668
 8745W        W77139  14.797  17.265  14.964
 8746W        W77140  41.438   1.346  14.347
 8747W        W77141  19.387   4.719   1.318
 8748W        W77142   2.305  33.311   2.394
 8749W        W77143   3.808   7.127   4.601
 8750W        W77144  29.316  43.267   0.863
 8751W        W77145  18.646  30.514   0.956
 8752W        W77146  33.659  29.205  14.837
 8753W        W77147  15.384  19.970  12.403
 8754W        W77148  19.982   9.697   2.863
 8755W        W77149   6.237  15.579   0.707
 8756W        W77150   2.619  17.672  14.034
 8757W        W77151  20.461  18.704  11.507
 8758W        W77152  18.670   2.530  14.241
 8759W        W77153  43.987  39.081   2.860
 8760W        W77154  28.219  42.890   0.463
 8761W        W77155  44.986  10.819   2.174
 8762W        W77156   4.933   1.185   2.726
 8763W        W77157  22.336  26.272   0.678
 8764W        W77158  35.569  15.233  11.654
 8765W        W77159   3.471   1.187  14.976
 8766W        W77160   7.997   4.025  11.256
 8767W        W77161  28.124  12.216   2.979
 8768W        W77162  15.100  19.164  12.622
 8769W        W77163  36.687   4.700   1.322
 8770W        W77164  21.726  17.086   4.067
 8771W        W77165  30.927  12.392  11.239
 8772W        W77166  28.131  14.152   4.676
 8773W        W77167  15.341   6.248  12.481
 8774W        W77168  12.302  38.465  11.525
 8775W        W77169  41.609  36.305  12.026
 8776W        W77170  31.599  30.384  10.581
 8777W        W77171  33.515  23.051  12.673
 8778W        W77172  15.719  28.621  12.382
 8779W        W77173  19.867  34.310  14.400
 8780W        W77174  32.096  12.607  14.804
 8781W        W77175  35.735  43.343   1.744
 8782W        W77176  16.203  31.601  10.484
 8783W        W77177  26.918   3.931   2.148
 8784W        W77178  20.029  41.239   3.759
 8785W        W77179   5.814  18.160   0.426
 8786W        W77180  40.477  13.209  10.553
 8787W        W77181  12.258   5.881  12.138
 8788W        W77182  29.328  40.464  11.174
 8789W        W77183   8.134  27.673  12.611
 8790W        W77184  18.087  26.166  10.173
 8791W        W77185  44.451  27.730   3.070
 8792W        W77186  10.753  32.232  13.417
 8793W        W77187  40.698   6.828   4.840
 8794W        W77188  29.941  37.247   1.828
 8795W        W77189  28.126  17.082  14.384
 8796W        W77190   8.371  22.829  11.134
 8797W        W77191  42.320  16.848  10.855
 8798W        W77192   3.193  31.498  14.022
 8799W        W77193  32.185  25.081  12.930
 8800W        W77194  37.115  33.373   4.600
 8801W        W77195  34.158  15.066  12.045
 8802W        W77196  30.715  32.910  13.313
 8803W        W77197  43.037  14.098  10.243
 8804W        W77198  26.228   0.278  10.809
 8805W        W77199  36.365  33.546   1.386
 8806W        W77200  37.961  21.005  13.068
 8807W        W77201  24.793  39.109   0.442
 8808W        W77202  34.776  32.050   0.278
 8809W        W77203  12.228  20.303   0.800
 8810W        W77204  25.609  24.911  11.417
 8811W        W77205  38.275  25.467  12.219
 8812W        W77206  42.708  37.908  14.978
 8813W        W77207  43.735  34.351  12.683
 8814W        W77208  11.936  32.788  13.363
 8815W        W77209  20.950   4.194   1.363
 8816W        W77210   7.728  44.382  13.561
 8817W        W77211  14.349  36.497  11.220
 8818W        W77212   6.245  23.558  10.011
 8819W        W77213  20.495  28.582  14.408
 8820W        W77214  44.500  26.988  13.836
 8821W        W77215   1.358  15.001  10.151
 8822W        W77216  42.344  37.777  14.520
 8823W        W77217  19.152  27.566   1.215
 8824W        W77218   6.044  38.772  14.448
 8825W        W77219  42.608  31.010   5.355
 8826W        W77220  15.744  22.294  10.256
 8827W        W77221   4.400  16.857   2.258
 8828W        W77222  32.102  35.458   4.251
 8829W        W77223  27.964  20.720  11.958
 8830W        W77224  19.281  27.722  14.900
 8831W        W77225  42.736   4.246   0.871
 8832W        W77226  39.718  44.404  14.496
 8833W        W77227  36.026  27.377  11.375
 8834W        W77228  20.739  29.648  14.776
 8835W        W77229  25.650  19.061  14.742
 8836W        W77230  29.928  40.054  11.976
 8837W        W77231  15.626  36.143   2.204
 8838W        W77232  33.412  31.159   2.285
 8839W        W77233   8.379   3.455  14.923
 8840W        W77234  25.606  18.219  12.829
 8841W        W77235  41.883  23.035   4.287
 8842W        W77236  13.735  38.020   3.378
 8843W        W77237   5.355  28.076  13.326
 8844W        W77238  29.757  36.908   3.435
 8845W        W77239  44.360  42.245  12.350
 8846W        W77240   5.655  34.531  12.379
 8847W        W77241   3.260  27.771   3.153
 8848W        W77242  23.516   1.981   3.403
 8849W        W77243   0.819  38.853  11.150
 8850W        W77244  44.227  18.504  12.326
 8851W        W77245  28.986  19.233   1.723
 8852W        W77246  15.821  11.076  11.583
 8853W        W77247  24.577  14.672   0.757
 8854W        W77248   1.061  14.833  11.937
 8855W        W77249  35.018  18.383  12.535
 8856W        W77250  20.635  27.883  14.947
 8857W        W77251   9.385  35.698   2.733
 8858W        W77252  15.756  43.087   2.658
 8859W        W77253  33.193  35.530  12.050
 8860W        W77254  16.333  41.570   3.830
 8861W        W77255  16.266  36.672   3.975
 8862W        W77256  44.727  30.492  13.444
 8863W        W77257   6.976  16.252   4.359
 8864W        W77258  40.765  41.475  12.529
 8865W        W77259  29.243  11.321   3.796
 8866W        W77260   4.248  10.352   0.845
 8867W        W77261  17.034  24.493   2.852
 8868W        W77262  18.015  18.742   5.397
 8869W        W77263  28.007  27.858  14.568
 8870W        W77264  33.908  39.001  10.311
 8871W        W77265  15.710  43.526   3.650
 8872W        W77266  22.995  43.521  11.404
 8873W        W77267  10.627  36.883   4.840
 8874W        W77268  41.028  39.414   3.730
 8875W        W77269   8.440  33.572   1.684
 8876W        W77270  41.387   2.047   4.667
 8877W        W77271  28.446   2.341  14.897
 8878W        W77272  11.115   1.823   0.847
 8879W        W77273  31.787   5.619  13.796
 8880W        W77274  35.138  31.161   0.278
 8881W        W77275   4.687  18.614  11.074
 8882W        W77276  26.312   0.812  12.295
 8883W        W77277  31.565   2.371  12.119
 8884W        W77278   6.419  16.586   0.343
 8885W        W77279  37.042  42.821   0.776
 8886W        W77280  28.131  22.742   1.346
 8887W        W77281   5.405  39.983  10.789
 8888W        W77282   6.743  23.513   9.814
 8889W        W77283  36.029  14.438  14.895
 8890W        W77284   0.499   9.765  12.894
 8891W        W77285  11.461  34.269  11.204
 8892W        W77286  18.229  11.434  14.491
 8893W        W77287   0.471   6.937  13.873
 8894W        W77288  40.836   9.179   4.269
 8895W        W77289  36.192   1.227  14.360
 8896W        W77290   6.948   6.230  12.436
 8897W        W77291   4.713  13.746  12.278
 8898W        W77292  38.547  22.681  13.596
 8899W        W77293  39.422   5.183   3.715
 8900W        W77294   4.589  33.416   1.254
 8901W        W77295  42.492   7.195  14.418
 8902W        W77296  24.286   7.117  12.372
 8903W        W77297  26.456  37.340   3.199
 8904W        W77298  35.596  11.421   1.334
 8905W        W77299  15.276  35.630  13.992
 8906W        W77300   2.378   1.900   5.055
 8907W        W77301  44.812  18.103   0.427
 8908W        W77302   4.627  24.727  13.503
 8909W        W77303  28.951  14.105   1.282
 8910W        W77304  27.450  11.065  12.563
 8911W        W77305  15.739  37.670  10.664
 8912W        W77306  44.163  29.863  13.643
 8913W        W77307  15.665   8.124   2.754
 8914W        W77308  21.803  18.140  14.506
 8915W        W77309  18.871  43.329   3.171
 8916W        W77310   3.386  20.697   4.123
 8917W        W77311  35.746   7.903   0.274
 8918W        W77312  23.657  17.447   4.856
 8919W        W77313  33.555   7.207   4.577
 8920W        W77314  11.197  36.884  14.544
 8921W        W77315  32.026   4.374  10.415
 8922W        W77316   3.368  13.085   0.726
 8923W        W77317   2.119  28.088  11.104
 8924W        W77318  27.950   3.398   4.605
 8925W        W77319   5.868  27.494   0.253
 8926W        W77320  21.925  17.195   1.247
 8927W        W77321  20.160  24.108  12.833
 8928W        W77322  36.379  21.076  13.547
 8929W        W77323   0.995  33.103   0.275
 8930W        W77324  44.889   8.013   2.822
 8931W        W77325  36.912  23.713   3.365
 8932W        W77326  36.552   2.307  12.199
 8933W        W77327   8.197  39.575  11.135
 8934W        W77328   2.655  38.964   5.115
 8935W        W77329  44.879  12.860  14.604
 8936W        W77330  41.993  21.174  12.006
 8937W        W77331  31.538  30.735  13.406
 8938W        W77332  15.938   2.334   3.569
 8939W        W77333  31.671  22.147   1.300
 8940W        W77334  36.836  28.417  13.393
 8941W        W77335   5.138   6.309   3.274
 8942W        W77336   6.342  26.232   0.380
 8943W        W77337  38.415   1.488   0.121
 8944W        W77338  10.870  15.619   2.746
 8945W        W77339  10.138  11.456   4.918
 8946W        W77340  29.372  44.662  13.339
 8947W        W77341  41.079  24.126   0.012
 8948W        W77342  34.734  11.071  13.551
 8949W        W77343  25.383  31.566   4.836
 8950W        W77344  25.789  27.165  11.069
 8951W        W77345  29.147  31.167   2.779
 8952W        W77346  13.940  35.939  12.057
 8953W        W77347  40.315   8.200   1.894
 8954W        W77348  21.028  21.198   2.558
 8955W        W77349   8.700  41.993   4.735
 8956W        W77350  15.359  23.931   1.690
 8957W        W77351  25.078  31.659   3.804
 8958W        W77352   5.355  25.403  12.602
 8959W        W77353  19.254  27.037   1.128
 8960W        W77354  16.308  23.091  12.836
 8961W        W77355   7.460  32.278   4.279
 8962W        W77356   2.070   3.783   3.693
 8963W        W77357   3.500  21.057  12.596
 8964W        W77358  23.327  12.719   1.888
 8965W        W77359  43.815  16.798   4.052
 8966W        W77360  31.372  14.859   2.156
 8967W        W77361  17.810  16.372   0.381
 8968W        W77362  20.653  36.257   0.023
 8969W        W77363  25.601   3.351  11.012
 8970W        W77364  43.513  30.388  12.975
 8971W        W77365  22.507  21.961  11.463
 8972W        W77366  41.137  25.962  12.503
 8973W        W77367   4.203  38.055  11.618
 8974W        W77368  38.151  24.795   3.662
 8975W        W77369  31.704  30.058  14.812
 8976W        W77370   6.978  27.537  14.314
 8977W        W77371   0.370  38.471  14.880
 8978W        W77372  37.083  19.795  13.483
 8979W        W77373  17.078   3.848   0.389
 8980W        W77374  18.160  44.751   4.761
 8981W        W77375  20.573  34.788   4.243
 8982W        W77376  42.853  32.094  13.982
 8983W        W77377  24.767  27.484  11.179
 8984W        W77378  29.694   0.436  10.542
 8985W        W77379  11.604  39.093  13.573
 8986W        W77380  30.680  31.074  12.026
 8987W        W77381  11.640  28.194  14.875
 8988W        W77382  42.056  11.743   2.289
 8989W        W77383   2.874  42.726   0.024
 8990W        W77384   4.520  21.205   4.012
 8991W        W77385   4.252   0.360   2.199
 8992W        W77386  15.742  15.094   1.746
 8993W        W77387   0.663  39.035   2.605
 8994W        W77388  17.207  19.499  11.212
 8995W        W77389  40.342  26.683   3.591
 8996W        W77390  14.617  12.834  10.751
 8997W        W77391  36.437   2.051  13.003
 8998W        W77392  26.680  42.814  13.015
 8999W        W77393  13.151  37.011  12.501
 9000W        W77394  13.854   4.540  12.779
 9001W        W77395  21.496  23.977  13.113
 9002W        W77396  38.993  18.315  12.655
 9003W        W77397  31.920  16.255  12.403
 9004W        W77398  31.003  25.892   0.388
 9005W        W77399  34.941   6.270   1.717
 9006W        W77400  11.332  40.382   3.195
 9007W        W77401  40.926  40.078   4.293
 9008W        W77402  23.893  19.141  11.965
 9009W        W77403  24.409   0.378   4.071
 9010W        W77404  30.039  31.981   2.178
 9011W        W77405  36.932   3.655   2.318
 9012W        W77406  27.167  42.381  11.957
 9013W        W77407  32.684  28.583   3.597
 9014W        W77408   6.150  26.803   3.435
 9015W        W77409  33.060  23.103  13.571
 9016W        W77410  21.526  23.769  10.412
 9017W        W77411  12.704  19.654   3.203
 9018W        W77412   0.394  18.452  13.841
 9019W        W77413  30.317  35.365  11.174
 9020W        W77414  19.762  36.502   0.527
 9021W        W77415  30.000   7.688  10.924
 9022W        W77416  16.783   2.350  12.879
 9023W        W77417   0.378  41.951  14.365
 9024W        W77418  22.100  15.325  11.651
 9025W        W77419  21.437  11.895  13.920
 9026W        W77420  25.392  37.410  11.605
 9027W        W77421   7.274  14.465  13.261
 9028W        W77422  16.312  14.815   2.905
 9029W        W77423  33.938   2.664   4.254
 9030W        W77424   8.348   2.396  11.064
 9031W        W77425   4.657  23.498   5.196
 9032W        W77426  43.317  26.732   3.719
 9033W        W77427  44.884  15.075  13.791
 9034W        W77428  20.709  44.679   3.612
 9035W        W77429  44.242  29.431  12.838
 9036W        W77430  41.475  14.779  10.614
 9037W        W77431  18.289  34.546  12.033
 9038W        W77432  24.709   9.211   5.566
 9039W        W77433  36.815  26.621  14.557
 9040W        W77434  10.962  12.439   4.055
 9041W        W77435  11.927  41.319   3.511
 9042W        W77436  23.715   2.809  13.059
 9043W        W77437   5.876   2.155  11.338
 9044W        W77438  44.058  33.944  14.857
 9045W        W77439   1.471  41.999   0.852
 9046W        W77440   6.605  35.282  13.929
 9047W        W77441  19.599  39.854  10.738
 9048W        W77442  28.877   3.345  13.754
 9049W        W77443   4.645  42.340   1.270
 9050W        W77444  27.892  37.656   3.134
 9051W        W77445   6.454  16.403  13.458
 9052W        W77446  18.653   8.170  11.054
 9053W        W77447  26.229   9.427  12.561
 9054W        W77448  26.600   3.710  10.782
 9055W        W77449  17.778  16.536  10.638
 9056W        W77450  38.916  18.205   1.682
 9057W        W77451   0.342  32.487   1.955
 9058W        W77452  41.491   6.722  14.977
 9059W        W77453  29.224  37.534   1.337
 9060W        W77454  39.404  32.744   3.799
 9061W        W77455  19.296   9.662  12.574
 9062W        W77456  38.917  29.547  10.470
 9063W        W77457  36.506  10.751  14.887
 9064W        W77458  28.142  16.158  12.959
 9065W        W77459   5.755  34.124  11.618
 9066W        W77460   9.226   6.069   2.530
 9067W        W77461  39.956  23.480  11.498
 9068W        W77462  30.577  42.280   1.883
 9069W        W77463  18.875  10.739  11.077
 9070W        W77464  35.001  40.897   2.876
 9071W        W77465  22.605  20.984   0.696
 9072W        W77466  26.140  33.479   1.677
 9073W        W77467   2.930  16.223  13.331
 9074W        W77468  19.597  31.565   4.930
 9075W        W77469  22.460  44.552   3.686
 9076W        W77470  16.529  41.816  13.626
 9077W        W77471  26.878  10.423  11.427
 9078W        W77472  37.215   9.024   2.088
 9079W        W77473   3.710   9.922   3.313
 9080W        W77474  18.132  19.470  12.843
 9081W        W77475  40.446  29.875  13.553
 9082W        W77476   4.649  10.910  12.776
 9083W        W77477  27.517  31.844   2.293
 9084W        W77478  27.423  38.883  10.487
 9085W        W77479  35.019  22.646  12.936
 9086W        W77480  19.290  44.334   0.391
 9087W        W77481  24.391  21.018   3.742
 9088W        W77482   2.753  25.554   3.593
 9089W        W77483  22.666  18.997  11.438
 9090W        W77484  29.616  35.725  11.430
 9091W        W77485   3.357  40.596  13.292
 9092W        W77486   3.941  33.642  13.016
 9093W        W77487  43.262  26.221   3.718
 9094W        W77488  37.608  33.914   3.423
 9095W        W77489  38.936  33.293  11.921
 9096W        W77490  17.702  26.428   1.945
 9097W        W77491  28.225  26.791   9.953
 9098W        W77492  36.481  10.775   3.844
 9099W        W77493  33.494  31.581  10.364
 9100W        W77494   6.633  28.727  12.445
 9101W        W77495  33.389  44.044  14.059
 9102W        W77496  35.811  26.104  13.369
 9103W        W77497  30.449  11.941   0.120
 9104W        W77498  42.628   8.411   3.634
 9105W        W77499  14.985  17.105  13.899
 9106W        W77500  28.819  20.237   1.185
 9107W        W77501  37.412  25.529   1.029
 9108W        W77502  27.231  40.048  14.529
 9109W        W77503  27.730  15.396  14.541
 9110W        W77504  42.332  44.076   4.565
 9111W        W77505  21.395  28.032  13.084
 9112W        W77506  34.716  10.325  11.361
 9113W        W77507   8.140  36.315  12.256
 9114W        W77508  29.898  27.433  13.510
 9115W        W77509  39.630   5.387  13.817
 9116W        W77510  12.110  11.725   2.176
 9117W        W77511  39.987  24.180   3.191
 9118W        W77512   8.159  23.853   2.270
 9119W        W77513  25.182  34.326  11.486
 9120W        W77514  41.008   9.794   3.586
 9121W        W77515  31.077  24.570   3.188
 9122W        W77516  20.644  35.514   1.706
 9123W        W77517  14.730  15.160   0.718
 9124W        W77518  34.750  21.688  14.007
 9125W        W77519  40.848   5.820   2.401
 9126W        W77520  14.039   3.152   4.256
 9127W        W77521  23.929  35.943   1.370
 9128W        W77522  30.537  33.870   1.425
 9129W        W77523  28.936  17.657   0.745
 9130W        W77524   8.974  22.666   0.880
 9131W        W77525  10.681   2.624   1.868
 9132W        W77526  28.138  40.935   0.811
 9133W        W77527   2.370  34.811  14.465
 9134W        W77528  15.029  17.805   9.892
 9135W        W77529  24.803  40.584  12.437
 9136W        W77530  28.137  22.619   4.033
 9137W        W77531   8.510  21.468  11.623
 9138W        W77532  44.028  15.123   3.147
 9139W        W77533  32.280  27.107   1.295
 9140W        W77534  31.100   5.891   1.141
 9141W        W77535  21.607  20.428  13.275
 9142W        W77536  14.609  11.697   1.377
 9143W        W77537  36.036  31.611   0.946
 9144W        W77538  23.720  16.218   1.816
 9145W        W77539  27.534  12.464  14.890
 9146W        W77540  32.110   9.503  13.815
 9147W        W77541  21.998  13.300  10.932
 9148W        W77542   2.369   3.725   2.418
 9149W        W77543  22.980  29.172   0.415
 9150W        W77544  21.283  22.802  13.842
 9151W        W77545  43.114  30.422   1.305
 9152W        W77546  27.090  37.592   3.435
 9153W        W77547  37.662  40.654   0.293
 9154W        W77548  29.591  39.894   2.210
 9155W        W77549  17.767  42.472  13.511
 9156W        W77550  43.927  24.191   1.886
 9157W        W77551  42.279  25.576  11.193
 9158W        W77552  12.138  37.487   2.539
 9159W        W77553   3.660   3.711  10.767
 9160W        W77554  26.545  32.398  10.675
 9161W        W77555   9.839  22.903  12.432
 9162W        W77556   2.524  27.129   2.949
 9163W        W77557  11.240  40.524   2.262
 9164W        W77558  36.375   2.526   0.319
 9165W        W77559  44.284  25.127  13.420
 9166W        W77560  12.035  23.163   0.073
 9167W        W77561  31.184  36.781   3.070
 9168W        W77562  27.542  32.328  14.003
 9169W        W77563  42.542  14.189  14.485
 9170W        W77564  15.265  23.297  14.836
 9171W        W77565  13.314  33.003   2.145
 9172W        W77566   2.869  19.828   3.186
 9173W        W77567  32.879  13.671   1.361
 9174W        W77568   3.756   1.841   0.422
 9175W        W77569  26.016  20.514   2.083
 9176W        W77570  32.048  32.385  14.512
 9177W        W77571  28.191  38.457   3.386
 9178W        W77572   9.340  43.707  14.373
 9179W        W77573  28.039  10.488  12.224
 9180W        W77574  24.113  29.349   2.869
 9181W        W77575  10.150  29.756   2.523
 9182W        W77576  10.442  41.361   3.252
 9183W        W77577   6.944  22.666   1.009
 9184W        W77578  30.191  23.140  12.977
 9185W        W77579   7.197  44.573   1.239
 9186W        W77580  35.343  19.518  11.823
 9187W        W77581  34.631  22.744   1.722
 9188W        W77582  18.818  35.515   1.287
 9189W        W77583  34.890  36.424  14.857
 9190W        W77584  16.708  37.561  14.780
 9191W        W77585   9.654  42.396  13.000
 9192W        W77586  10.166  38.830   1.644
 9193W        W77587   4.524  34.460   2.265
 9194W        W77588   3.064   5.665  10.446
 9195W        W77589  19.815   9.617   4.197
 9196W        W77590  12.368  24.732  13.785
 9197W        W77591   0.839  16.190  12.016
 9198W        W77592   2.436  35.550   4.079
 9199W        W77593  22.451   9.611   4.125
 9200W        W77594  35.745  16.401  14.074
 9201W        W77595  44.336  38.406  14.879
 9202W        W77596  12.690  39.449  13.951
 9203W        W77597  13.831   6.519  13.397
 9204W        W77598   4.491   3.201   5.422
 9205W        W77599   2.639  31.056   3.522
 9206W        W77600  22.601  37.330   5.237
 9207W        W77601  16.392  21.016   4.490
 9208W        W77602   5.715   6.220   0.326
 9209W        W77603  33.391   4.786   4.753
 9210W        W77604  28.152  12.223   1.026
 9211W        W77605  38.525   9.149   4.282
 9212W        W77606  36.102  38.399   3.669
 9213W        W77607  11.312  40.303  12.012
 9214W        W77608  16.301  37.877   2.451
 9215W        W77609  14.306   1.842   1.374
 9216W        W77610  23.668   0.510   3.641
 9217W        W77611  26.444  40.132   0.380
 9218W        W77612   7.624  17.584  10.739
 9219W        W77613   5.789  18.143   1.927
 9220W        W77614  12.306  12.735   0.058
 9221W        W77615  15.758   1.684   4.975
 9222W        W77616  42.212  20.233   1.469
 9223W        W77617  18.581   5.983   3.855
 9224W        W77618   3.476  33.415  12.977
 9225W        W77619  24.927  22.069   3.310
 9226W        W77620  35.028   1.924   3.798
 9227W        W77621   0.320  16.061  13.757
 9228W        W77622  34.905  37.587  14.025
 9229W        W77623  30.121  12.367   1.376
 9230W        W77624  16.979   5.904   2.193
 9231W        W77625  25.601  44.713   1.571
 9232W        W77626  33.967  38.946  13.716
 9233W        W77627  13.225  15.048   4.595
 9234W        W77628  33.323   0.382   3.446
 9235W        W77629  29.583  16.104  11.543
 9236W        W77630  37.461  12.577  14.289
 9237W        W77631  22.707  36.614   0.576
 9238W        W77632  16.104   4.637   4.363
 9239W        W77633  24.666  41.306  14.812
 9240W        W77634  32.339  44.383  13.382
 9241W        W77635  31.271  16.018   4.509
 9242W        W77636  12.864  10.834  11.119
 9243W        W77637  28.139   6.241   2.301
 9244W        W77638  27.912  23.510   1.842
 9245W        W77639  16.887  29.122   2.591
 9246W        W77640   7.622  19.506   1.332
 9247W        W77641  15.626  11.306  12.027
 9248W        W77642  30.755  29.183  12.830
 9249W        W77643  29.129  39.782  11.662
 9250W        W77644  25.724  41.930   2.211
 9251W        W77645  16.130  28.354  14.274
 9252W        W77646  39.016   1.676  14.452
 9253W        W77647  13.580   6.288   2.283
 9254W        W77648   2.002  25.551  11.930
 9255W        W77649  44.095   0.922  12.527
 9256W        W77650  37.806  39.426  12.471
 9257W        W77651  17.275   3.318   2.348
 9258W        W77652   4.313  38.112   1.368
 9259W        W77653  19.049  24.137  12.507
 9260W        W77654  27.173   6.714   0.883
 9261W        W77655   8.251  10.806   1.810
 9262W        W77656  23.508  23.080  12.543
 9263W        W77657  39.395  18.029   2.440
 9264W        W77658   1.779  12.289  11.738
 9265W        W77659  30.697   3.247   0.613
 9266W        W77660  27.566  28.098  13.360
 9267W        W77661  21.105  19.857   2.746
 9268W        W77662  27.079  42.385   3.147
 9269W        W77663   0.943  35.531  11.065
 9270W        W77664  23.822   4.279   2.688
 9271W        W77665   6.364   0.767  14.859
 9272W        W77666   0.040  26.340   2.749
 9273W        W77667  43.624   1.862   4.170
 9274W        W77668  19.913  27.928   2.313
 9275W        W77669  22.178  21.196   1.754
 9276W        W77670   9.855   7.307  13.097
 9277W        W77671  32.581   0.403   1.861
 9278W        W77672  36.874  12.383  11.107
 9279W        W77673  17.004  41.641   2.900
 9280W        W77674  44.581   4.179  13.251
 9281W        W77675  32.146   9.525   1.466
 9282W        W77676   3.165  36.397  12.654
 9283W        W77677  34.446  13.868  10.831
 9284W        W77678  30.074   0.384  11.577
 9285W        W77679   3.274  24.924  12.580
 9286W        W77680   2.207  14.831  13.330
 9287W        W77681   7.522  42.150  13.265
 9288W        W77682  10.543  19.619  10.695
 9289W        W77683   1.458  21.414   1.382
 9290W        W77684  16.877  29.160  11.906
 9291W        W77685  42.514   3.725   2.732
 9292W        W77686  22.742  17.309   3.976
 9293W        W77687  42.564  43.252   2.877
 9294W        W77688  14.668   7.895   0.807
 9295W        W77689   5.806   8.785  13.967
 9296W        W77690  30.684   2.109  14.365
 9297W        W77691  13.129  39.976   1.710
 9298W        W77692  19.647  38.296  12.536
 9299W        W77693  42.722  10.314   2.083
 9300W        W77694   8.617   9.486  11.607
 9301W        W77695  36.517   3.932   2.209
 9302W        W77696  24.248   0.508  12.925
 9303W        W77697  10.208  26.430   3.883
 9304W        W77698  35.715  33.390   4.568
 9305W        W77699  34.038  43.005   3.750
 9306W        W77700  21.779  40.902   0.736
 9307W        W77701  24.424  23.663   0.884
 9308W        W77702  19.621   7.391  11.961
 9309W        W77703  44.737   0.364  10.630
 9310W        W77704  31.212   0.238   2.230
 9311W        W77705  33.070   9.695   0.004
 9312W        W77706   1.446  25.543  11.942
 9313W        W77707  30.597   6.488  14.571
 9314W        W77708  43.815  32.643   2.594
 9315W        W77709  36.587   1.663   4.702
 9316W        W77710  28.117   6.320   4.416
 9317W        W77711  36.442  36.880  14.453
 9318W        W77712  42.135  13.295   3.648
 9319W        W77713  28.955  32.096  13.452
 9320W        W77714  31.604   3.391   1.688
 9321W        W77715  25.474  23.399  13.486
 9322W        W77716   1.976  22.693  14.292
 9323W        W77717  37.745   3.883  13.917
 9324W        W77718  28.291  12.766   4.584
 9325W        W77719  11.039  25.976  13.088
 9326W        W77720   0.830  27.795  12.911
 9327W        W77721   4.467  24.753  14.023
 9328W        W77722  38.856  25.247  11.175
 9329W        W77723  22.574   3.390   5.011
 9330W        W77724  39.413  20.308  10.521
 9331W        W77725  10.902   1.060  12.392
 9332W        W77726  24.516  41.630  11.269
 9333W        W77727  12.638  16.332  13.568
 9334W        W77728   1.356   4.449  13.564
 9335W        W77729   1.875  12.889   1.849
 9336W        W77730  30.907  41.002   2.529
 9337W        W77731  13.553  10.432   1.783
 9338W        W77732   7.617  30.012  12.592
 9339W        W77733   2.696  37.146   2.884
 9340W        W77734   5.365  27.698  14.541
 9341W        W77735  38.611   4.590   5.111
 9342W        W77736  38.071  15.040   0.334
 9343W        W77737  15.523   1.800  11.604
 9344W        W77738   8.317  38.085  12.925
 9345W        W77739   8.808  44.722   0.807
 9346W        W77740   1.747  17.847  13.452
 9347W        W77741  41.073  11.460  14.798
 9348W        W77742  31.577  14.131   3.624
 9349W        W77743  38.519   6.349   0.001
 9350W        W77744  11.756  41.566  11.751
 9351W        W77745  23.422  42.025   3.500
 9352W        W77746  11.394  19.296  10.646
 9353W        W77747  10.655   5.470  12.520
 9354W        W77748  42.774  34.517  13.729
 9355W        W77749   8.543  18.905  12.399
 9356W        W77750  20.029  13.617   0.924
 9357W        W77751   0.394  31.847   3.650
 9358W        W77752   4.244  19.007  12.913
 9359W        W77753  28.753  17.324   3.147
 9360W        W77754  39.003  37.758  11.127
 9361W        W77755  22.490  15.671  11.634
 9362W        W77756  34.340  42.359   4.714
 9363W        W77757  34.604  43.434  12.182
 9364W        W77758  15.409   4.283   2.707
 9365W        W77759  18.534  12.831  12.204
 9366W        W77760  19.606   4.357  12.582
 9367W        W77761  26.219  37.491   1.337
 9368W        W77762   0.288  35.356  12.286
 9369W        W77763   7.911  11.959   0.988
 9370W        W77764  10.312  29.641   4.500
 9371W        W77765  36.869  43.525  11.686
 9372W        W77766  29.099  31.114  12.616
 9373W        W77767  42.307  12.150  11.549
 9374W        W77768  18.129  19.589  10.501
 9375W        W77769  33.074  28.701  13.423
 9376W        W77770  44.547   1.550  12.465
 9377W        W77771  29.378  11.196  13.937
 9378W        W77772   4.958   7.082  13.900
 9379W        W77773   3.422  30.166   2.617
 9380W        W77774  20.796  21.561   1.968
 9381W        W77775  27.590  23.076   1.808
 9382W        W77776  24.288  36.449  14.766
 9383W        W77777  31.047  43.091   0.328
 9384W        W77778  19.684  34.800  14.306
 9385W        W77779  30.032   3.121   3.304
 9386W        W77780  35.261  37.418  12.514
 9387W        W77781  40.047  29.194   4.471
 9388W        W77782  12.241  18.006   1.444
 9389W        W77783  14.229  32.473  13.498
 9390W        W77784  14.321  38.120   2.638
 9391W        W77785  24.233  25.729   1.522
 9392W        W77786  20.230  20.005  11.963
 9393W        W77787  18.005  12.132  12.943
 9394W        W77788  27.265  18.302  11.681
 9395W        W77789  11.638  21.666   2.417
 9396W        W77790  42.002  21.506   1.875
 9397W        W77791  44.376  33.502   1.253
 9398W        W77792   4.778  43.409   3.568
 9399W        W77793  22.915  10.154   2.221
 9400W        W77794   8.957  29.834  10.600
 9401W        W77795  32.592  14.681   0.950
 9402W        W77796   3.829   7.313  13.486
 9403W        W77797  31.397  23.282  13.557
 9404W        W77798  15.906  39.093  14.905
 9405W        W77799  25.296  43.993   3.692
 9406W        W77800  21.570  33.936   2.286
 9407W        W77801   8.950  27.895   1.554
 9408W        W77802  29.976   1.944  13.963
 9409W        W77803  22.636  10.238   2.646
 9410W        W77804  34.023  38.630   2.153
 9411W        W77805  36.192  32.482   2.724
 9412W        W77806   0.355  25.161   1.487
 9413W        W77807   1.117  10.358   3.193
 9414W        W77808  35.338  12.182   3.244
 9415W        W77809  10.981  13.152  10.712
 9416W        W77810  18.693  40.910   2.799
 9417W        W77811  26.542  11.164   3.242
 9418W        W77812  18.629  35.443   3.749
 9419W        W77813  31.423  29.846   2.808
 9420W        W77814  16.575  33.444  13.956
 9421W        W77815  14.168  28.234  12.258
 9422W        W77816  41.718   1.573  13.937
 9423W        W77817  35.584  38.036  11.181
 9424W        W77818   6.329  11.201  12.597
 9425W        W77819  27.507  16.037  14.975
 9426W        W77820  14.522  42.763   4.519
 9427W        W77821  21.121  42.005   4.169
 9428W        W77822   9.403  12.528   0.864
 9429W        W77823  39.839  41.914   2.288
 9430W        W77824  39.880  11.422  11.971
 9431W        W77825   4.484   9.318   0.313
 9432W        W77826  14.554  37.715   3.686
 9433W        W77827   6.485  41.878   3.246
 9434W        W77828  32.007  24.710  14.238
 9435W        W77829  34.790  26.996   4.072
 9436W        W77830  24.257  40.441  13.846
 9437W        W77831  20.565   5.880  11.194
 9438W        W77832  29.091  10.292   2.249
 9439W        W77833  11.918  10.311   0.677
 9440W        W77834   3.879  20.941  13.899
 9441W        W77835  22.403  29.236   3.250
 9442W        W77836  44.288   0.149  10.808
 9443W        W77837   4.814  42.788  14.917
 9444W        W77838  23.108  29.957   2.361
 9445W        W77839  13.124   2.215   3.423
 9446W        W77840  36.407  40.067   0.336
 9447W        W77841  22.627  13.634  14.802
 9448W        W77842  42.819  41.850   5.116
 9449W        W77843  14.282  19.609  14.323
 9450W        W77844  21.810  13.464  10.092
 9451W        W77845   6.325  12.853   4.921
 9452W        W77846   7.394  20.013   1.276
 9453W        W77847  23.715  18.580   0.038
 9454W        W77848  17.774   8.398  11.689
 9455W        W77849  17.444  24.043   0.749
 9456W        W77850  41.778  25.200  11.624
 9457W        W77851   2.430  12.791   1.229
 9458W        W77852   9.512  31.661  11.536
 9459W        W77853  43.997  28.543  11.060
 9460W        W77854  15.654   1.354   4.587
 9461W        W77855   9.438   4.619  12.522
 9462W        W77856  14.173   4.462  14.003
 9463W        W77857  33.935  30.258   4.148
 9464W        W77858  13.651  40.433   3.084
 9465W        W77859  16.596   1.291   1.467
 9466W        W77860  24.033   8.897  14.439
 9467W        W77861  12.644  14.152  11.118
 9468W        W77862  42.534  43.635   4.773
 9469W        W77863  15.363  38.462   1.831
 9470W        W77864  37.428  34.886   4.582
 9471W        W77865  16.495  38.171  12.905
 9472W        W77866  30.220   0.474  10.431
 9473W        W77867  34.870  34.310  13.909
 9474W        W77868   7.906  17.490  14.921
 9475W        W77869  15.171  15.390  12.425
 9476W        W77870  42.872  29.756  12.002
 9477W        W77871  41.869  43.746   3.861
 9478W        W77872   0.800  11.596  14.068
 9479W        W77873  32.169  43.393  14.420
 9480W        W77874  26.459  34.662  10.818
 9481W        W77875  13.879  17.973  12.089
 9482W        W77876  35.440   4.702  14.734
 9483W        W77877  35.462  26.222  10.917
 9484W        W77878   6.785  36.998   1.775
 9485W        W77879   9.961   4.426   3.328
 9486W        W77880  31.924   2.119   1.702
 9487W        W77881  15.522  29.170  13.400
 9488W        W77882  12.595   7.096  14.208
 9489W        W77883  12.735  21.692   4.775
 9490W        W77884  37.945  37.478   2.148
 9491W        W77885  24.722  30.396  12.730
 9492W        W77886   8.814   8.663   0.381
 9493W        W77887  43.949   4.465  12.499
 9494W        W77888  12.800  35.342   2.175
 9495W        W77889  42.774   1.729   0.974
 9496W        W77890  17.190  30.052  11.444
 9497W        W77891   4.737  30.374  14.969
 9498W        W77892  27.743  22.789   0.806
 9499W        W77893   8.898  43.208  12.649
 9500W        W77894  37.268  29.439  11.531
 9501W        W77895   3.195  15.795   3.168
 9502W        W77896  40.886  31.917   1.413
 9503W        W77897  33.963   4.682  13.315
 9504W        W77898  25.630   8.200  14.512
 9505W        W77899  21.393  42.857   2.669
 9506W        W77900  32.064  16.053  10.575
 9507W        W77901  34.622  44.896  13.593
 9508W        W77902  35.804   9.258   0.515
 9509W        W77903   2.165  27.949  11.947
 9510W        W77904  29.337  12.733  11.681
 9511W        W77905  27.144  37.126   0.403
 9512W        W77906  21.327  32.163  10.755
 9513W        W77907  29.610  20.742  12.924
 9514W        W77908  35.847   0.672   2.318
 9515W        W77909   1.460  14.607  11.448
 9516W        W77910  13.163  25.893  13.474
 9517W        W77911   1.861  35.824   0.837
 9518W        W77912  35.710   1.036   0.887
 9519W        W77913   4.856  12.390   1.684
 9520W        W77914  41.867  36.906  13.431
 9521W        W77915  35.585   5.119   0.411
 9522W        W77916  23.023  22.267   1.705
 9523W        W77917  14.169  22.645   1.446
 9524W        W77918  29.882  44.840   0.009
 9525W        W77919  12.873  40.658   2.910
 9526W        W77920  37.590   8.814  14.223
 9527W        W77921  28.448  37.607   0.892
 9528W        W77922  19.551   2.683  11.678
 9529W        W77923  31.507  17.514  14.848
 9530W        W77924  33.958  11.147   1.962
 9531W        W77925  25.666  28.106   2.453
 9532W        W77926  33.883  42.832  14.009
 9533W        W77927   5.983  34.306  12.041
 9534W        W77928  14.965   9.271   4.953
 9535W        W77929  32.098  26.579   0.224
 9536W        W77930  11.818  40.446   5.054
 9537W        W77931  13.735  10.881  13.499
 9538W        W77932  27.628  10.968   2.823
 9539W        W77933  25.475  29.617  13.567
 9540W        W77934  18.256   4.307  13.907
 9541W        W77935  42.799  22.243  11.572
 9542W        W77936   3.116   7.110  14.829
 9543W        W77937   4.333  37.338   4.167
 9544W        W77938  25.943  11.681  13.620
 9545W        W77939  13.100  10.382  11.138
 9546W        W77940  21.172  30.442   0.231
 9547W        W77941   3.838  42.510  13.069
 9548W        W77942  26.490  11.271  13.855
 9549W        W77943  20.014   5.374   4.889
 9550W        W77944   2.584  22.727  14.905
 9551W        W77945  27.101  22.513   2.597
 9552W        W77946  19.195  41.096  10.035
 9553W        W77947  25.650  30.525   4.117
 9554W        W77948  24.658  18.470   1.273
 9555W        W77949  44.859  34.876  11.123
 9556W        W77950   3.728  37.335  12.851
 9557W        W77951   3.350  12.235   3.258
 9558W        W77952  30.396  34.568  14.272
 9559W        W77953  26.319  21.196   0.843
 9560W        W77954  37.946  11.898   0.279
 9561W        W77955  16.011  10.823   3.736
 9562W        W77956  44.050  37.529   2.686
 9563W        W77957   0.880  23.551   2.930
 9564W        W77958   1.342   9.163  13.101
 9565W        W77959  39.945  27.423   0.454
 9566W        W77960  42.434  36.415  14.933
 9567W        W77961  18.567  40.438   3.683
 9568W        W77962  27.919  14.242  14.804
 9569W        W77963  36.419  44.869  10.689
 9570W        W77964   6.397   7.275   3.683
 9571W        W77965  39.776  14.755   3.609
 9572W        W77966  29.234  43.885   2.686
 9573W        W77967  38.108  22.796  10.002
 9574W        W77968  12.252  28.558   4.256
 9575W        W77969  29.690  30.973   3.572
 9576W        W77970  29.681  44.424   4.547
 9577W        W77971   1.760  14.857  12.615
 9578W        W77972  21.538  17.094  10.639
 9579W        W77973  40.565  31.416   0.810
 9580W        W77974  14.253   7.265  11.327
 9581W        W77975  19.732  38.168  13.441
 9582W        W77976  22.651  44.860   1.995
 9583W        W77977  22.568   4.238   0.970
 9584W        W77978  19.013   4.675  11.058
 9585W        W77979  32.067   4.915   0.624
 9586W        W77980  41.977  36.514  14.702
 9587W        W77981   0.215  26.615   0.946
 9588W        W77982   9.161  15.624  12.617
 9589W        W77983  16.212  29.369   4.464
 9590W        W77984  34.936  11.227   4.171
 9591W        W77985   7.856   8.372   0.760
 9592W        W77986  36.994  16.208   3.893
 9593W        W77987  34.934  13.442  14.118
 9594W        W77988  44.203   1.009  11.617
 9595W        W77989   7.934   2.279  13.589
 9596W        W77990  36.367   8.927   1.356
 9597W        W77991  23.213  42.552  13.425
 9598W        W77992   7.874  38.952  13.362
 9599W        W77993   1.190  15.389   0.925
 9600W        W77994   5.922  14.575   1.880
 9601W        W77995  40.679  15.947   0.784
 9602W        W77996  43.624   5.889   0.866
 9603W        W77997  38.290  10.829   1.708
 9604W        W77998   6.659  18.196  12.967
 9605W        W77999  28.056  19.425  13.155
 9606W        W78000  36.079  39.992  14.398
 9607W        W78001  34.563  20.608  14.359
 9608W        W78002  14.266  19.636   0.295
 9609W        W78003   4.899  43.223   0.850
 9610W        W78004  27.141   8.334  13.316
 9611W        W78005  18.855  14.844   3.206
 9612W        W78006  28.184  26.467  13.971
 9613W        W78007  18.667  13.072   4.703
 9614W        W78008  29.599  19.049   4.665
 9615W        W78009   2.072  22.080   3.665
 9616W        W78010  31.589   4.854   2.491
 9617W        W78011  40.536  42.733   5.180
 9618W        W78012   8.829  15.221  10.654
 9619W        W78013  29.319   3.120  13.901
 9620W        W78014  39.414  30.457   1.240
 9621W        W78015  42.179  33.859   1.435
 9622W        W78016  18.289  42.900  14.594
 9623W        W78017  28.241  41.305  13.930
 9624W        W78018  39.804  15.579  13.653
 9625W        W78019   1.319  39.326  12.983
 9626W        W78020  42.040  30.656  11.753
 9627W        W78021   6.095  36.729   2.778
 9628W        W78022  35.134  15.128  14.071
 9629W        W78023  11.391  40.836  14.338
 9630W        W78024  19.867   2.881   2.717
 9631W        W78025   2.714   9.936   1.191
 9632W        W78026  28.471  12.131   1.444
 9633W        W78027  29.180  10.900  11.640
 9634W        W78028  21.840  35.263   1.895
 9635W        W78029  43.831  29.973  12.052
 9636W        W78030  12.563   2.890   0.793
 9637W        W78031   6.381  43.473   1.223
 9638W        W78032  38.835   0.961   0.455
 9639W        W78033   3.293  10.621   2.440
 9640W        W78034  30.779  30.127   2.232
 9641W        W78035   3.734  21.678   3.319
 9642W        W78036  21.240  27.984   5.580
 9643W        W78037   9.489  13.351   1.529
 9644W        W78038   2.947  21.200   1.413
 9645W        W78039   3.892   0.780  13.522
 9646W        W78040  43.813  29.377   3.821
 9647W        W78041  30.244  17.369   1.795
 9648W        W78042  20.757  24.129  14.919
 9649W        W78043   3.490  35.278  10.596
 9650W        W78044   4.756  23.283  11.024
 9651W        W78045  38.771  22.538   4.923
 9652W        W78046  18.735  38.071  12.954
 9653W        W78047  41.261  23.345  13.646
 9654W        W78048  19.283   1.403  12.215
 9655W        W78049   7.599  24.724   2.828
 9656W        W78050  41.789   2.555   0.007
 9657W        W78051  34.931  26.530   4.272
 9658W        W78052  32.220  30.088  14.828
 9659W        W78053  37.867   6.715  13.456
 9660W        W78054  39.438  30.847  10.414
 9661W        W78055  22.637   6.406  11.438
 9662W        W78056  38.708  36.731   0.226
 9663W        W78057  32.853  42.099  12.034
 9664W        W78058  16.050  26.497   4.473
 9665W        W78059  28.004  35.911   2.874
 9666W        W78060  41.509  18.725   5.063
 9667W        W78061  37.925   1.427   4.617
 9668W        W78062  39.471  14.307   2.652
 9669W        W78063  12.327  38.100  11.914
 9670W        W78064  27.039  39.892   4.526
 9671W        W78065   3.140  33.503   4.617
 9672W        W78066  35.325  10.305  13.298
 9673W        W78067  26.974  34.019  12.442
 9674W        W78068  38.331  42.083  13.063
 9675W        W78069  31.068  17.250  10.358
 9676W        W78070  10.711  23.522  13.249
 9677W        W78071   0.066  16.468   0.912
 9678W        W78072   5.523  17.217   4.982
 9679W        W78073  31.516  31.032  12.238
 9680W        W78074  21.874  42.026   4.864
 9681W        W78075  39.904   9.139  13.806
 9682W        W78076  14.136  40.546   3.712
 9683W        W78077  41.380  41.021  12.811
 9684W        W78078  17.976  39.536   0.704
 9685W        W78079  11.071  26.723  12.345
 9686W        W78080   3.192  29.026  10.727
 9687W        W78081  16.539   6.500   2.063
 9688W        W78082   0.840  14.031  11.249
 9689W        W78083  21.774  42.500  14.016
 9690W        W78084  14.365  34.665  11.532
 9691W        W78085  44.532  33.020   4.166
 9692W        W78086  18.228  19.760  13.270
 9693W        W78087  21.871  31.782   3.111
 9694W        W78088  11.541  24.747  10.750
 9695W        W78089  16.319  29.133  11.041
 9696W        W78090  37.601   3.860   2.772
 9697W        W78091  17.605  20.319  11.964
 9698W        W78092   5.976  28.631   1.846
 9699W        W78093  42.968  23.137  10.587
 9700W        W78094  15.289  32.406  12.639
 9701W        W78095  31.889  28.403   0.256
 9702W        W78096  38.698  16.708   1.302
 9703W        W78097  13.623  23.166  12.093
 9704W        W78098   2.304  37.543  14.955
 9705W        W78099  23.249  27.510  14.257
 9706W        W78100   3.247  29.613  11.995
 9707W        W78101  27.926  32.403  13.662
 9708W        W78102   1.432  28.884  13.100
 9709W        W78103  28.396  35.182   0.158
 9710W        W78104  22.757  35.254  11.962
 9711W        W78105  22.308  34.605  13.893
 9712W        W78106   5.506   7.872  10.817
 9713W        W78107  36.357  32.157  11.074
 9714W        W78108  32.065  26.793  12.933
 9715W        W78109   5.999  20.107  14.183
 9716W        W78110   5.520  24.396   2.198
 9717W        W78111   6.361  28.042  14.600
 9718W        W78112  27.608  22.900  11.300
 9719W        W78113  37.092  21.610   2.859
 9720W        W78114  36.846   5.637  14.354
 9721W        W78115  21.437  21.061   1.821
 9722W        W78116  15.131   2.788  14.920
 9723W        W78117  23.291  21.576   2.666
 9724W        W78118   6.342   6.430  11.440
 9725W        W78119  20.028  13.292   4.224
 9726W        W78120  24.505  12.661  13.890
 9727W        W78121   8.833   2.490   3.398
 9728W        W78122  13.705  36.360  11.473
 9729W        W78123  19.028  29.643   3.202
 9730W        W78124   7.168   8.580   2.401
 9731W        W78125  21.105  21.742   4.420
 9732W        W78126  33.887   4.992  12.909
 9733W        W78127  44.747  35.938  14.167
 9734W        W78128  21.256  40.459   3.307
 9735W        W78129  21.233  40.811   0.823
 9736W        W78130  35.530  31.031   4.425
 9737W        W78131  41.329  36.420   4.527
 9738W        W78132  29.865  44.687   1.302
 9739W        W78133   6.638   4.030   2.426
 9740W        W78134  40.556   7.622  12.059
 9741W        W78135  42.050   3.953   2.765
 9742W        W78136  34.388   5.133   0.735
 9743W        W78137  17.715  35.467   0.490
 9744W        W78138  17.385  24.185  14.808
 9745W        W78139  22.246   9.262  14.442
 9746W        W78140  42.951  16.201   4.165
 9747W        W78141  27.051   4.958   4.611
 9748W        W78142  22.393  25.487  11.549
 9749W        W78143  37.320  15.298  14.810
 9750W        W78144  30.687   9.890   2.819
 9751W        W78145   1.021  13.679   1.104
 9752W        W78146  32.600  15.580   3.014
 9753W        W78147  23.030  26.068   1.855
 9754W        W78148  23.091   0.378   4.369
 9755W        W78149   6.735  18.521   2.884
 9756W        W78150  18.647  20.995   3.693
 9757W        W78151  26.958  37.951  14.738
 9758W        W78152  44.861  10.664   1.124
 9759W        W78153  44.447  36.742  12.731
 9760W        W78154  21.028  33.495  11.907
 9761W        W78155  34.572  15.900   1.647
 9762W        W78156   4.037  38.009   2.401
 9763W        W78157  16.114  14.215   4.178
 9764W        W78158   6.606  31.131   2.868
 9765W        W78159  17.655   7.984   2.762
 9766W        W78160  37.227  36.739  12.167
 9767W        W78161  39.062  15.192   1.077
 9768W        W78162  10.124  18.637   1.797
 9769W        W78163  41.833   1.855   4.491
 9770W        W78164  11.774  22.882   2.359
 9771W        W78165  14.675  39.058  14.457
 9772W        W78166  19.788  13.093  11.165
 9773W        W78167   4.182  22.543   1.268
 9774W        W78168  43.460  36.963   2.286
 9775W        W78169  19.439  40.518   3.110
 9776W        W78170  23.222  30.513  14.193
 9777W        W78171  23.493  43.311  13.044
 9778W        W78172  32.207  28.746   3.749
 9779W        W78173   5.560  10.239  10.489
 9780W        W78174   5.405  40.899   4.617
 9781W        W78175  29.188  22.100   2.577
 9782W        W78176  17.707  30.235   2.234
 9783W        W78177  40.440   8.265  13.843
 9784W        W78178  22.088  36.889   2.222
 9785W        W78179  12.638  44.686  11.966
 9786W        W78180  36.566  32.029   4.560
 9787W        W78181  38.298  16.360  14.071
 9788W        W78182  42.297  27.404  13.713
 9789W        W78183  36.871   9.624  11.187
 9790W        W78184  44.318  39.003   0.799
 9791W        W78185   2.131   8.396   2.428
 9792W        W78186  33.661  11.304   4.617
 9793W        W78187   7.037   7.642  14.432
 9794W        W78188  44.993  39.415  12.470
 9795W        W78189  32.325  42.233  13.368
 9796W        W78190  37.621  39.345  11.984
 9797W        W78191  37.313  23.232  11.293
 9798W        W78192  32.648   5.278   0.739
 9799W        W78193  34.767  37.940  12.122
 9800W        W78194  36.462  40.913   4.672
 9801W        W78195   5.969   9.862  13.528
 9802W        W78196   8.255  12.682   1.705
 9803W        W78197   9.388  33.183  10.571
 9804W        W78198   6.756   4.139   0.424
 9805W        W78199  11.146   6.259  11.469
 9806W        W78200  15.284  11.256  13.856
 9807W        W78201  36.559  44.796  14.761
 9808W        W78202  28.545  10.695  11.175
 9809W        W78203  10.584  32.668  11.622
 9810W        W78204  42.340  16.876  14.510
 9811W        W78205  27.786  34.467  10.671
 9812W        W78206   4.488   7.463  11.560
 9813W        W78207  15.209  16.141   3.137
 9814W        W78208  29.166  30.393  14.357
 9815W        W78209  17.664  15.078   2.183
 9816W        W78210  27.007  31.652  10.867
 9817W        W78211  43.029  11.823  13.831
 9818W        W78212  21.183  33.425   2.741
 9819W        W78213  36.957  23.221  11.657
 9820W        W78214  21.823   6.362  14.966
 9821W        W78215  15.180  20.598   0.599
 9822W        W78216  38.938  29.078  13.401
 9823W        W78217   3.849   6.755   2.209
 9824W        W78218  43.170  39.582   2.451
 9825W        W78219  38.830  34.378  14.341
 9826W        W78220  30.274  29.540  14.045
 9827W        W78221  44.280  40.840  13.361
 9828W        W78222  44.266  42.532  11.104
 9829W        W78223  25.703  40.919   1.197
 9830W        W78224  19.128  19.157   1.226
 9831W        W78225  17.605  27.194  11.842
 9832W        W78226   2.884  30.488  12.632
 9833W        W78227  36.216  33.423  14.073
 9834W        W78228  44.812  17.099   0.567
 9835W        W78229   4.786   1.889   4.118
 9836W        W78230  42.453  31.567   3.307
 9837W        W78231  38.659  33.048  14.100
 9838W        W78232  19.607  29.347   4.519
 9839W        W78233  41.463   2.481  12.005
 9840W        W78234  32.070  33.192  11.071
 9841W        W78235  14.325  30.403  13.967
 9842W        W78236  33.848   3.200  13.810
 9843W        W78237  30.143  21.073   0.543
 9844W        W78238  13.147  36.142   3.393
 9845W        W78239  16.247  36.633  13.615
 9846W        W78240  18.017  17.887  14.885
 9847W        W78241   3.842  37.418  13.818
 9848W        W78242  35.838   5.276  12.180
 9849W        W78243   8.402  37.515  11.613
 9850W        W78244  15.575  13.854   4.133
 9851W        W78245  33.570  32.453   0.827
 9852W        W78246  20.470  29.194  14.770
 9853W        W78247  24.187  12.577  13.476
 9854W        W78248   3.090  12.603   2.244
 9855W        W78249   6.252  28.012   4.987
 9856W        W78250  16.071  21.279   0.343
 9857W        W78251   2.181   7.363   1.304
 9858W        W78252  30.623  14.522   4.589
 9859W        W78253  24.689   4.496  13.913
 9860W        W78254   8.930   6.489   5.004
 9861W        W78255  44.797  10.258  12.039
 9862W        W78256  13.163   5.773  10.527
 9863W        W78257  25.697  41.470  14.904
 9864W        W78258  32.503  35.969   0.119
 9865W        W78259   5.567  11.742  14.660
 9866W        W78260  43.834  29.234  13.114
 9867W        W78261   8.440  23.068   0.329
 9868W        W78262  36.962   8.796  11.947
 9869W        W78263  36.550  13.848  11.597
 9870W        W78264  15.406  43.307  14.243
 9871W        W78265  31.361  40.839   1.268
 9872W        W78266  18.633   3.165  13.364
 9873W        W78267  25.070  39.378   4.091
 9874W        W78268  28.794   0.801   0.243
 9875W        W78269  40.063  21.819  13.458
 9876W        W78270  18.296  44.382  13.885
 9877W        W78271  14.398  23.125  14.363
 9878W        W78272  19.979  25.560   0.580
 9879W        W78273  35.426  20.850   3.324
 9880W        W78274  40.984  16.027   4.529
 9881W        W78275  38.825  38.750  13.415
 9882W        W78276   8.215  30.337   4.029
 9883W        W78277   8.958  37.552   2.774
 9884W        W78278  20.270  17.673   4.112
 9885W        W78279  14.830   8.225   3.194
 9886W        W78280   3.841   5.891   0.517
 9887W        W78281  25.973   5.303  12.177
 9888W        W78282  25.724   9.430  12.592
 9889W        W78283  31.235  27.244  12.170
 9890W        W78284  30.662   4.813  13.675
 9891W        W78285  25.683  21.651   3.441
 9892W        W78286   9.628  10.682   2.814
 9893W        W78287   0.819  29.584  11.792
 9894W        W78288  11.183  36.173   4.946
 9895W        W78289  44.853  39.915  14.399
 9896W        W78290  43.469   2.450   0.917
 9897W        W78291  10.871  18.216  13.439
 9898W        W78292   2.795  43.490  10.899
 9899W        W78293  34.888  35.818  13.837
 9900W        W78294  34.101   3.512  12.775
 9901W        W78295  40.602  41.808  11.359
 9902W        W78296  29.167   1.233   4.547
 9903W        W78297  36.620  10.951  11.190
 9904W        W78298  37.565  10.111  13.282
 9905W        W78299   1.869  41.286  11.611
 9906W        W78300  37.673   7.758   2.274
 9907W        W78301   2.031  20.008   4.127
 9908W        W78302  41.308  30.044   2.091
 9909W        W78303  36.969  28.540   2.747
 9910W        W78304  36.391  40.161  12.020
 9911W        W78305  15.400  36.474  12.799
 9912W        W78306  40.570  28.489   3.210
 9913W        W78307  36.100  30.499   1.682
 9914W        W78308  37.328   0.393  11.658
 9915W        W78309  32.395  44.145  11.896
 9916W        W78310  27.974  29.286  14.433
 9917W        W78311  26.085  26.951   0.293
 9918W        W78312   3.292  29.684  13.305
 9919W        W78313  10.739  29.877  14.866
 9920W        W78314  14.772  33.141  12.475
 9921W        W78315   5.164  39.570  10.990
 9922W        W78316   2.791  44.212  12.879
 9923W        W78317  38.539  33.606  10.679
 9924W        W78318   6.427   6.723  10.092
 9925W        W78319  35.946   1.744   3.520
 9926W        W78320  18.058  34.156   0.845
 9927W        W78321  31.159  17.794   2.626
 9928W        W78322   2.240  11.665   0.945
 9929W        W78323  30.449   0.292   1.776
 9930W        W78324   9.458  10.163  11.121
 9931W        W78325  25.553  27.028  14.317
 9932W        W78326   9.789  43.415   3.380
 9933W        W78327  20.153   4.491   4.921
 9934W        W78328  38.345  13.310   2.610
 9935W        W78329  29.296  29.032   4.034
 9936W        W78330  26.569  26.486  14.227
 9937W        W78331  29.785  39.000  13.467
 9938W        W78332  25.685  19.241  10.617
 9939W        W78333  20.291  28.560  13.529
 9940W        W78334  23.811   9.750   5.379
 9941W        W78335  36.151   7.325   1.427
 9942W        W78336  40.416  14.184   3.981
 9943W        W78337  43.543  37.783  11.990
 9944W        W78338  18.048   2.831   2.303
 9945W        W78339  41.341  40.527   3.240
 9946W        W78340  42.816   6.254   0.530
 9947W        W78341  28.517  37.287   1.322
 9948W        W78342  38.337   2.763  12.474
 9949W        W78343   1.679  34.913  12.770
 9950W        W78344   7.031  11.907   0.524
 9951W        W78345  34.973  13.246  13.205
 9952W        W78346  42.325   5.424   3.551
 9953W        W78347  11.609  27.943  13.924
 9954W        W78348   2.308  33.486   4.320
 9955W        W78349  38.753   1.997  13.842
 9956W        W78350  16.747  20.414   5.020
 9957W        W78351   1.088  32.056   2.258
 9958W        W78352  34.802  28.521   4.077
 9959W        W78353  14.136  43.888  10.640
 9960W        W78354  13.385  31.056   4.536
 9961W        W78355   6.885  25.152  12.532
 9962W        W78356   9.242  23.545  14.442
 9963W        W78357   7.678   6.826   5.627
 9964W        W78358  12.320  35.180  12.022
 9965W        W78359  29.439  10.835   1.793
 9966W        W78360  44.924  32.477  13.827
 9967W        W78361   3.998  20.692   3.368
 9968W        W78362  28.102  23.011   1.823
 9969W        W78363  18.735  21.213   0.076
 9970W        W78364  39.090   9.984   0.854
 9971W        W78365  31.080  17.456   1.238
 9972W        W78366  37.811   9.571   4.196
 9973W        W78367  37.373  35.470   1.554
 9974W        W78368  42.950   1.592  11.680
 9975W        W78369  40.505  38.450  12.946
 9976W        W78370  31.180   3.192   2.522
 9977W        W78371  26.970  33.419  11.664
 9978W        W78372  40.687  38.325  10.360
 9979W        W78373  44.956  15.826  11.602
 9980W        W78374  44.017  40.119  13.091
 9981W        W78375   8.227   6.158  12.876
 9982W        W78376   9.851  33.042  12.566
 9983W        W78377  10.411   9.685   0.545
 9984W        W78378  43.881  30.986   1.603
 9985W        W78379   2.265  22.193   0.682
 9986W        W78380  22.187  10.221  10.267
 9987W        W78381   6.273  36.832  11.447
 9988W        W78382  23.068  24.489   1.563
 9989W        W78383   1.577  26.981  14.817
 9990W        W78384  27.840   5.575   0.764
 9991W        W78385   0.930  21.514  14.718
 9992W        W78386  38.030  33.287  11.261
 9993W        W78387  40.708  37.801   4.818
 9994W        W78388  30.054  32.004  11.000
 9995W        W78389  17.572  21.713   2.232
 9996W        W78390  42.851   0.895  11.078
 9997W        W78391  10.342  13.859  13.043
 9998W        W78392   0.056  32.290   3.783
 9999W        W78393  16.379  28.016   1.560
10000W        W78394   7.173  11.729  10.536
10001W        W78395  14.163  10.632   2.420
10002W        W78396   1.005  41.863   2.206
10003W        W78397  19.727  12.618   3.309
10004W        W78398  40.355  33.400   0.043
10005W        W78399  13.146  32.571  10.800
10006W        W78400  20.698  12.233   2.397
10007W        W78401  26.155  13.666   4.446
10008W        W78402  27.525  38.215  11.245
10009W        W78403  29.389   8.112   0.539
10010W        W78404  42.052  27.344   3.362
10011W        W78405  39.402  24.522  13.052
10012W        W78406  25.127  43.401   2.242
10013W        W78407  42.004  21.690  11.274
10014W        W78408  10.776  31.279   4.461
10015W        W78409  21.110  30.045   3.165
10016W        W78410   4.343  17.115  11.822
10017W        W78411  21.148  10.395  11.899
10018W        W78412  12.332  43.005   2.911
10019W        W78413   7.353  39.264   1.386
10020W        W78414  15.210  35.131  11.831
10021W        W78415  25.168  36.277  13.072
10022W        W78416  21.711  44.530   0.638
10023W        W78417  23.045  11.195  11.534
10024W        W78418   8.820  38.850  13.095
10025W        W78419  23.309  18.058   1.217
10026W        W78420  29.519  40.554  12.041
10027W        W78421   7.008  21.006   2.093
10028W        W78422  33.111  38.674  10.407
10029W        W78423  31.332   3.854  13.118
10030W        W78424  25.994  15.245   2.417
10031W        W78425  19.110  28.451  11.156
10032W        W78426  23.116  29.929   0.884
10033W        W78427  27.972  38.855   0.362
10034W        W78428   1.226  12.622  14.656
10035W        W78429  21.034  17.209   0.064
10036W        W78430  42.155  18.737  13.419
10037W        W78431  11.782  19.590   1.885
10038W        W78432  39.632  27.049  14.334
10039W        W78433  26.914  39.597  12.863
10040W        W78434   4.995   8.936  12.041
10041W        W78435  25.208  10.644   2.303
10042W        W78436  40.911  11.065  12.791
10043W        W78437  40.691  39.895  10.990
10044W        W78438  22.612   0.044   2.844
10045W        W78439  24.507  29.207  14.320
10046W        W78440   5.825  23.616  12.072
10047W        W78441  43.621  22.513  11.815
10048W        W78442  36.898  22.934  11.147
10049W        W78443  24.911  40.512   1.896
10050W        W78444  26.247   0.809  10.714
10051W        W78445  42.488  22.284  13.961
10052W        W78446  37.926  17.251   4.895
10053W        W78447   0.289   6.700  14.332
10054W        W78448  40.932  20.729   4.416
10055W        W78449  21.804  42.755  13.525
10056W        W78450  42.399  19.177  13.618
10057W        W78451  33.587  44.522  12.923
10058W        W78452  37.044  23.263   4.381
10059W        W78453  26.259  24.621   3.756
10060W        W78454  18.059   5.707   4.644
10061W        W78455  43.986  15.659   3.218
10062W        W78456  17.868   9.410   0.737
10063W        W78457  11.634   8.908   0.492
10064W        W78458  23.030  44.575   2.198
10065W        W78459  24.948  19.168  13.346
10066W        W78460  40.004  20.001  11.627
10067W        W78461  34.966  19.311   2.373
10068W        W78462  14.896   2.928  11.544
10069W        W78463  37.090  23.223  12.171
10070W        W78464  36.525  36.668   1.719
10071W        W78465  37.130  35.439  14.250
10072W        W78466   3.869  13.668  11.366
10073W        W78467  23.099  25.943  12.035
10074W        W78468  11.565  44.531   5.076
10075W        W78469  38.036  17.612   3.654
10076W        W78470  11.140  15.790  14.074
10077W        W78471  15.286  10.146  13.107
10078W        W78472  21.510  38.423  13.226
10079W        W78473  29.141  44.712  12.535
10080W        W78474  13.655   8.166   2.612
10081W        W78475  22.676  44.002  14.424
10082W        W78476   2.038   0.104   2.424
10083W        W78477  33.846  44.341   3.190
10084W        W78478   3.887  32.657  13.934
10085W        W78479  29.887  31.397   3.801
10086W        W78480   3.226  32.821  14.820
10087W        W78481  34.736  39.508  11.793
10088W        W78482  15.069  21.724   2.559
10089W        W78483   2.339  28.713  12.223
10090W        W78484  36.461   4.179  12.182
10091W        W78485  40.551   2.398  12.992
10092W        W78486  16.623  43.392   0.614
10093W        W78487  11.645  39.955   0.110
10094W        W78488   3.182   5.309   2.155
10095W        W78489   5.723  33.565  12.415
10096W        W78490  14.550  16.536  10.897
10097W        W78491  35.122  27.666  11.530
10098W        W78492  11.110  37.510   0.955
10099W        W78493   1.196  26.339   4.538
10100W        W78494  39.019  18.633  10.648
10101W        W78495  28.602  17.997   0.928
10102W        W78496  33.154   0.050   0.424
10103W        W78497  19.147   1.801   1.378
10104W        W78498  35.921   1.973  13.616
10105W        W78499   9.694   6.659  13.587
10106W        W78500  22.538  20.058   0.924
10107W        W78501  42.895  24.453   3.696
10108W        W78502  42.342  13.096  14.023
10109W        W78503   8.058   7.343  12.451
10110W        W78504  28.509  18.050   4.100
10111W        W78505  27.341   0.378   0.468
10112W        W78506   2.882   7.010   0.303
10113W        W78507  11.403  20.586   2.808
10114W        W78508   1.668  35.300   0.058
10115W        W78509  28.104  28.890   4.323
10116W        W78510  28.123  17.642  14.461
10117W        W78511  10.803  32.673  14.387
10118W        W78512   3.279  11.597   1.700
10119W        W78513  40.105  27.063  12.593
10120W        W78514  14.399  34.747   1.676
10121W        W78515  19.599  34.606   4.639
10122W        W78516  42.234   4.288   0.951
10123W        W78517  10.720   1.926   3.637
10124W        W78518  30.683  29.108   0.655
10125W        W78519  40.416  23.289   2.341
10126W        W78520  12.714   8.690   1.912
10127W        W78521  32.712   0.512  14.580
10128W        W78522  31.540  14.760   0.811
10129W        W78523  18.693  38.103   2.265
10130W        W78524   6.224  41.533   2.636
10131W        W78525  31.460  19.286  14.361
10132W        W78526  40.282  44.712  14.848
10133W        W78527  28.473  43.667  13.983
10134W        W78528   5.687  37.870  13.496
10135W        W78529  37.346   3.961   2.294
10136W        W78530  32.486  41.966  10.785
10137W        W78531   1.699  10.178  12.999
10138W        W78532  32.833   4.220  11.226
10139W        W78533  42.900  35.326  10.722
10140W        W78534  35.455   1.787   4.145
10141W        W78535  26.127  40.602  11.300
10142W        W78536   0.919  23.741  12.124
10143W        W78537  13.536  30.171  13.404
10144W        W78538  30.109  30.074   0.106
10145W        W78539  24.054  42.531  10.242
10146W        W78540   1.390  11.910   0.803
10147W        W78541  24.489   0.297  10.551
10148W        W78542  35.046  19.945  14.828
10149W        W78543  41.807  26.137   4.507
10150W        W78544  36.941  18.796   3.237
10151W        W78545  12.994   7.429   4.056
10152W        W78546  32.919  26.501   2.686
10153W        W78547  33.489  23.880  12.466
10154W        W78548   9.803  28.144   1.239
10155W        W78549   3.894  31.157   2.925
10156W        W78550  36.979   4.444   3.806
10157W        W78551  28.016  21.316   3.805
10158W        W78552  28.703  44.795   3.310
10159W        W78553   8.484   1.661  13.388
10160W        W78554  30.615  37.193  11.359
10161W        W78555  43.801  26.691   2.244
10162W        W78556   4.176  27.654  13.008
10163W        W78557  26.653  26.885  14.542
10164W        W78558  12.369  27.120  12.604
10165W        W78559  41.560   3.411  10.422
10166W        W78560  25.178  44.428   2.098
10167W        W78561  16.094  30.225  12.977
10168W        W78562   6.628   9.416  14.907
10169W        W78563  25.761  26.067  11.996
10170W        W78564   9.007  12.874   0.895
10171W        W78565  37.508  12.351   4.087
10172W        W78566   3.489   4.279  12.195
10173W        W78567   4.807  25.034   2.163
10174W        W78568  25.662  35.320  14.054
10175W        W78569  22.236  34.526   1.350
10176W        W78570  38.608  43.050  13.968
10177W        W78571  35.919   1.329   0.311
10178W        W78572  41.306  27.472  11.451
10179W        W78573  15.793  16.809   2.701
10180W        W78574  10.279  34.073   2.849
10181W        W78575  40.937  24.801  14.684
10182W        W78576  15.226  41.574  11.051
10183W        W78577  44.414  34.048   2.677
10184W        W78578  16.792   8.473   0.358
10185W        W78579  36.475  31.989   1.293
10186W        W78580  43.363  10.787  11.011
10187W        W78581  20.736  30.670  10.532
10188W        W78582  23.456   8.882   4.531
10189W        W78583  28.915  22.425  12.788
10190W        W78584   1.651  25.571   0.947
10191W        W78585  33.453  11.615  10.628
10192W        W78586  36.994  14.792  13.449
10193W        W78587  40.913  23.549  12.370
10194W        W78588   9.515  35.545   1.356
10195W        W78589  31.420  29.148  14.256
10196W        W78590  16.532  14.494  12.841
10197W        W78591  41.538  22.785  11.118
10198W        W78592  37.612   9.908  11.056
10199W        W78593   5.155  28.134   3.099
10200W        W78594  23.725  44.814   1.785
10201W        W78595  28.143  14.095  12.358
10202W        W78596  29.642  35.068  14.052
10203W        W78597  32.207  28.638  12.997
10204W        W78598  26.417   0.382   1.402
10205W        W78599  43.432  39.818   3.233
10206W        W78600  21.572  28.866  11.117
10207W        W78601  13.655  34.805   0.053
10208W        W78602   4.541  15.232  14.732
10209W        W78603  23.072   8.766   2.792
10210W        W78604  10.654  11.076   0.532
10211W        W78605   4.268  18.053  12.982
10212W        W78606  15.169  26.712   1.670
10213W        W78607  41.986  41.417   3.660
10214W        W78608  15.620   2.460  11.093
10215W        W78609   9.427  41.358   4.502
10216W        W78610   2.759   6.534  14.080
10217W        W78611  16.430  15.483   0.389
10218W        W78612  28.652   3.447   0.543
10219W        W78613  14.079   6.235   0.573
10220W        W78614  43.823  18.709  13.060
10221W        W78615  38.019  15.168  13.550
10222W        W78616  36.073  25.493  14.536
10223W        W78617  13.560  20.290  14.339
10224W        W78618  39.039  16.051  11.300
10225W        W78619  26.749  31.031   2.340
10226W        W78620   3.233  41.524  11.625
10227W        W78621  40.301  30.279  10.944
10228W        W78622  29.853   3.754   4.253
10229W        W78623   4.678  24.587   0.924
10230W        W78624  17.262  10.833   2.187
10231W        W78625  40.761   2.211  12.552
10232W        W78626  13.332  19.268   1.321
10233W        W78627  16.533  25.059   4.232
10234W        W78628   6.759  19.217   0.397
10235W        W78629  18.307   2.370   2.232
10236W        W78630  37.968  44.812   2.795
10237W        W78631  33.175  22.129   2.209
10238W        W78632   6.234   4.731   1.100
10239W        W78633  19.729  21.010   5.013
10240W        W78634  21.211   5.905  12.397
10241W        W78635  25.663   4.984   0.959
10242W        W78636  24.645  42.987  14.403
10243W        W78637  44.743  32.513   4.156
10244W        W78638  31.563  44.382  12.891
10245W        W78639  33.830   6.150   3.673
10246W        W78640   0.870  17.094   3.725
10247W        W78641   9.296  43.939  12.522
10248W        W78642  44.804  38.441   3.658
10249W        W78643  43.991   2.156   2.195
10250W        W78644  30.514  43.208  14.844
10251W        W78645  36.745   2.494  14.953
10252W        W78646  37.911  35.051   4.518
10253W        W78647  39.979  40.368  10.707
10254W        W78648  22.284  42.516   4.033
10255W        W78649  40.060  25.532   3.718
10256W        W78650  17.203  15.839  13.242
10257W        W78651  23.964  14.824  14.075
10258W        W78652   0.951  43.213   3.397
10259W        W78653   2.836  23.329  14.463
10260W        W78654  25.749  19.806  10.512
10261W        W78655  38.422   2.979   2.919
10262W        W78656   4.498   1.487   3.431
10263W        W78657  42.691  42.265  13.911
10264W        W78658   4.372  41.485   2.870
10265W        W78659  18.147  35.948  12.262
10266W        W78660  36.595  27.197   1.702
10267W        W78661  20.111   8.240   4.535
10268W        W78662  19.161  21.010  12.934
10269W        W78663  30.465  10.255   2.531
10270W        W78664  41.347  37.754   0.313
10271W        W78665  26.653  20.933   3.069
10272W        W78666  22.712   8.673  11.944
10273W        W78667  36.549  15.044  13.219
10274W        W78668  20.255   1.472   0.712
10275W        W78669   5.782  23.114  12.282
10276W        W78670  20.980  18.639   2.351
10277W        W78671   3.686   8.083  13.948
10278W        W78672  10.179  16.489  10.509
10279W        W78673  27.829  16.727   2.688
10280W        W78674  11.994  25.359  11.192
10281W        W78675  34.107  17.560   1.208
10282W        W78676  11.690  24.185   0.517
10283W        W78677   5.021  28.253  12.991
10284W        W78678  12.113  32.410  13.964
10285W        W78679  29.957  17.165   1.401
10286W        W78680  13.099  42.062   0.984
10287W        W78681  19.250  43.298   4.587
10288W        W78682  37.079  41.415   9.821
10289W        W78683  14.123  21.058   0.362
10290W        W78684  16.246  14.091   0.176
10291W        W78685  36.546  28.932   0.280
10292W        W78686  34.399   8.223   1.250
10293W        W78687  31.137  41.986   0.096
10294W        W78688  18.124   0.925   3.536
10295W        W78689  26.478  39.846   0.845
10296W        W78690  29.463  35.968   3.108
10297W        W78691  14.753   3.265   3.803
10298W        W78692   9.660  14.630  14.052
10299W        W78693  30.630  10.326  14.127
10300W        W78694   1.805   9.095   0.931
10301W        W78695  13.881  33.679   2.207
10302W        W78696  18.313   6.152  12.169
10303W        W78697  32.570  35.470  13.876
10304W        W78698  11.790   6.665  12.047
10305W        W78699   2.475  34.977   1.487
10306W        W78700  21.183  26.781   2.701
10307W        W78701  44.907  17.841  13.497
10308W        W78702  29.142  25.497   3.662
10309W        W78703  16.288  26.370  14.928
10310W        W78704  25.924  15.128  11.507
10311W        W78705  38.666  38.781   2.304
10312W        W78706  39.482  22.027   4.530
10313W        W78707  43.912  18.733   2.165
10314W        W78708  15.539  37.392  12.839
10315W        W78709   2.898  14.637   2.279
10316W        W78710   1.249  21.538  10.810
10317W        W78711  13.692   3.803  14.384
10318W        W78712   6.994  40.320   4.150
10319W        W78713   8.392  16.309   0.295
10320W        W78714  37.645   8.727   2.005
10321W        W78715   8.168  40.905   1.196
10322W        W78716  15.355  44.443   2.441
10323W        W78717  16.720   6.713  14.628
10324W        W78718  39.139  36.146  14.650
10325W        W78719  38.404   9.723  10.765
10326W        W78720  43.590  39.718   0.460
10327W        W78721  37.953  25.333   4.616
10328W        W78722   7.938  22.756  10.341
10329W        W78723  11.946  35.917   2.278
10330W        W78724  31.647  20.277   2.832
10331W        W78725   1.450  33.154   4.046
10332W        W78726  10.433  33.188  10.209
10333W        W78727  44.932  41.428   0.733
10334W        W78728   9.196  38.194   4.851
10335W        W78729  36.922  12.044  13.901
10336W        W78730  11.781  31.748  14.456
10337W        W78731   5.750  31.727   3.619
10338W        W78732  25.681  10.871   4.173
10339W        W78733  18.438  29.352   1.350
10340W        W78734   7.784  21.217  14.513
10341W        W78735  33.976   0.692  12.567
10342W        W78736  18.088  24.386  10.840
10343W        W78737  32.128  42.781   4.233
10344W        W78738  29.078  15.581  14.310
10345W        W78739  38.046   2.462  14.587
10346W        W78740  16.752  16.093   4.217
10347W        W78741  26.514   0.772  14.070
10348W        W78742   5.837  10.644   1.248
10349W        W78743  13.306  24.401  13.851
10350W        W78744  23.011   1.984   0.361
10351W        W78745  18.275  37.199  13.982
10352W        W78746   7.132  37.995   1.143
10353W        W78747  13.276  41.842  13.954
10354W        W78748  21.744  27.286   5.532
10355W        W78749   0.246  29.382  12.989
10356W        W78750  14.681  22.979  11.564
10357W        W78751   8.163  11.708  13.380
10358W        W78752   6.738  36.597   4.664
10359W        W78753  17.788  29.987   1.759
10360W        W78754   2.426  26.450  14.186
10361W        W78755  43.495   8.168  10.627
10362W        W78756  43.393   8.218   2.388
10363W        W78757  33.402  13.080   4.383
10364W        W78758  35.994  12.772  10.824
10365W        W78759  23.532   2.389  12.057
10366W        W78760  15.662   7.271   2.430
10367W        W78761   3.509  36.983  14.457
10368W        W78762   7.719  44.042   1.348
10369W        W78763   7.680  24.595  13.148
10370W        W78764   7.728   9.880   0.162
10371W        W78765  36.555  20.104   1.300
10372W        W78766  14.821  33.297   0.737
10373W        W78767  23.805   9.312  13.555
10374W        W78768  25.648   4.841   1.857
10375W        W78769  14.749  18.217   4.299
10376W        W78770  27.121  26.076   1.197
10377W        W78771   0.432   3.341   2.826
10378W        W78772  43.299  22.729   0.824
10379W        W78773  26.074  28.406   3.252
10380W        W78774   0.188  17.178   1.947
10381W        W78775  13.193  22.996   0.808
10382W        W78776  14.544  28.482  13.926
10383W        W78777  22.069   1.096  12.338
10384W        W78778  25.624  39.623   3.770
10385W        W78779   9.517  27.314   2.238
10386W        W78780  29.584   6.072   3.244
10387W        W78781  41.349  41.773   2.718
10388W        W78782  32.460  21.535   4.232
10389W        W78783  43.964  40.521   2.574
10390W        W78784  18.319  11.333  10.620
10391W        W78785  11.630  25.624   3.378
10392W        W78786  41.385  31.400  12.420
10393W        W78787   8.442   2.175  13.502
10394W        W78788  32.151  30.437  10.590
10395W        W78789  12.857  37.603  13.377
10396W        W78790  26.639  35.067  13.923
10397W        W78791  22.599  37.384  14.060
10398W        W78792  42.781   7.622   3.195
10399W        W78793  20.521  31.914  14.291
10400W        W78794  19.805  41.796  14.614
10401W        W78795  43.035   1.292  14.701
10402W        W78796   7.395  26.596   4.106
10403W        W78797  42.907  44.873   2.907
10404W        W78798  26.499  23.564  13.926
10405W        W78799  30.047  32.879   2.347
10406W        W78800   4.654  30.366   3.356
10407W        W78801  12.454  14.570   4.270
10408W        W78802   5.285  17.072   1.150
10409W        W78803  25.292  41.104   2.704
10410W        W78804   6.949  29.238  13.978
10411W        W78805  16.272   7.249   3.254
10412W        W78806  12.097  43.515  12.426
10413W        W78807   2.467  15.676  12.590
10414W        W78808  43.237   9.666   0.258
10415W        W78809  19.136   1.923  12.508
10416W        W78810  42.844  36.842   1.360
10417W        W78811  13.190  33.247  14.576
10418W        W78812  18.228  24.430   0.292
10419W        W78813  10.057  44.760  13.133
10420W        W78814  13.226  14.902  11.870
10421W        W78815  20.341  18.066   3.243
10422W        W78816  29.033  34.621  11.925
10423W        W78817  34.465  28.146  14.922
10424W        W78818  31.777  18.073   4.151
10425W        W78819  40.070  14.405  11.505
10426W        W78820  28.738   8.266   4.063
10427W        W78821  19.955  29.088   3.178
10428W        W78822  30.517   1.562  12.550
10429W        W78823  32.048   8.950  13.875
10430W        W78824  14.724  23.150   2.721
10431W        W78825  22.660  40.139  13.497
10432W        W78826  19.362  31.109   1.764
10433W        W78827  12.564  13.725   3.312
10434W        W78828   5.413  26.610   0.269
10435W        W78829  10.180  41.058   1.346
10436W        W78830  14.074   5.460   1.078
10437W        W78831   4.364  38.508   0.369
10438W        W78832  23.832  19.569   0.865
10439W        W78833  16.771  41.436  13.342
10440W        W78834   3.027   1.492   1.136
10441W        W78835  20.687   5.267   1.865
10442W        W78836   5.318  21.565   4.147
10443W        W78837  32.668  43.808  11.626
10444W        W78838  43.028   9.203  11.373
10445W        W78839  20.453  24.682  10.492
10446W        W78840   4.248  27.139   3.305
10447W        W78841  23.301  22.857   0.772
10448W        W78842  16.895  18.281  14.107
10449W        W78843  19.740   5.305  12.585
10450W        W78844  25.646  29.958   4.203
10451W        W78845  10.247  28.620   4.867
10452W        W78846  24.334   9.672  10.652
10453W        W78847  15.609  34.596  14.861
10454W        W78848  42.455  35.067   2.044
10455W        W78849  25.116  26.604   3.866
10456W        W78850   5.734  19.831  10.664
10457W        W78851  32.797  28.040  14.263
10458W        W78852   1.224  10.845  13.985
10459W        W78853   2.756   0.805   0.411
10460W        W78854   4.242  29.137   0.823
10461W        W78855  26.711  30.624  13.999
10462W        W78856   6.421   8.968   3.431
10463W        W78857   8.801  12.926   1.383
10464W        W78858  13.806  40.102  11.626
10465W        W78859  17.830  39.134  13.416
10466W        W78860  34.927   2.922   1.216
10467W        W78861  19.336   2.388   1.207
10468W        W78862  10.418   6.555   4.054
10469W        W78863  32.083  24.532   2.265
10470W        W78864  25.244  31.474   0.900
10471W        W78865  37.767  42.469   4.909
10472W        W78866  43.994  31.133  12.946
10473W        W78867  28.398  40.575   2.371
10474W        W78868   8.459   3.378  11.008
10475W        W78869  19.154  32.450   2.274
10476W        W78870  16.730  25.058  14.801
10477W        W78871   0.290  12.551  14.502
10478W        W78872   3.907   0.374  13.840
10479W        W78873   7.862  42.359  11.065
10480W        W78874   3.286   2.218  14.243
10481W        W78875  17.525   5.057  10.310
10482W        W78876  14.906  18.444  13.613
10483W        W78877  15.534  36.961  11.070
10484W        W78878  10.145  19.787   2.638
10485W        W78879  23.773  40.939   0.904
10486W        W78880  33.993  25.052   0.207
10487W        W78881  13.038  36.341  12.986
10488W        W78882  28.773   6.730  11.497
10489W        W78883  23.975  39.619   0.360
10490W        W78884  25.621  34.934   2.603
10491W        W78885   7.849  40.488   4.462
10492W        W78886  32.784   2.608  11.070
10493W        W78887  25.873   5.100   1.424
10494W        W78888  11.573  22.304   4.549
10495W        W78889   0.234  16.351   4.549
10496W        W78890  21.815   0.363  12.938
10497W        W78891  32.039  42.460  14.263
10498W        W78892   1.792  12.651   2.422
10499W        W78893  34.719  23.240   1.823
10500W        W78894   2.418  42.420   3.367
10501W        W78895   9.365  21.566  11.479
10502W        W78896  30.745   0.772  12.100
10503W        W78897  14.269  10.705  13.416
10504W        W78898  23.944  17.354  11.236
10505W        W78899  27.298  14.043  11.716
10506W        W78900  36.342  29.668   2.605
10507W        W78901  35.676   6.717   3.709
10508W        W78902  18.708  33.001   2.904
10509W        W78903  24.240   4.004   4.671
10510W        W78904   3.410  40.968  10.761
10511W        W78905   5.185  27.104   3.203
10512W        W78906  39.492  37.984   3.374
10513W        W78907   8.745  12.564   3.237
10514W        W78908  11.907  15.782  11.106
10515W        W78909  27.138  29.309  13.009
10516W        W78910  13.733  20.734   0.820
10517W        W78911  32.962   2.743   3.451
10518W        W78912  40.432   4.193  13.475
10519W        W78913  36.059  26.866  12.698
10520W        W78914  19.085   0.835   4.481
10521W        W78915  12.161   2.601  12.555
10522W        W78916   4.916  17.270  11.167
10523W        W78917  20.679   9.389   4.806
10524W        W78918  12.312  10.884  13.798
10525W        W78919  28.633  27.630  14.045
10526W        W78920  19.215   6.248   0.104
10527W        W78921  22.456   2.420   4.144
10528W        W78922  44.760   7.653   1.399
10529W        W78923  38.855  28.861   5.050
10530W        W78924  15.792   4.707   0.890
10531W        W78925  16.683   2.830   5.199
10532W        W78926  10.830  41.841  13.218
10533W        W78927  35.991  32.026   4.608
10534W        W78928  29.222  42.860  11.632
10535W        W78929  21.541  39.732   1.020
10536W        W78930   8.204  17.507   2.922
10537W        W78931  20.272  12.850   4.166
10538W        W78932   3.467  22.959  12.378
10539W        W78933  14.052  42.345  10.651
10540W        W78934  39.727  12.861   2.787
10541W        W78935  24.243  19.100  14.424
10542W        W78936  38.376  24.085  14.320
10543W        W78937  32.375  16.196   3.310
10544W        W78938  44.637   3.320   2.742
10545W        W78939   3.825   6.778  10.763
10546W        W78940  44.726   3.817   2.595
10547W        W78941  29.220   3.648   3.666
10548W        W78942   1.596  15.345  12.701
10549W        W78943  23.458  38.316  11.601
10550W        W78944  20.922  29.356   2.158
10551W        W78945   8.146  32.288  13.508
10552W        W78946  11.934  27.560  11.116
10553W        W78947  42.370  34.050  11.673
10554W        W78948  42.869  34.389  11.065
10555W        W78949  23.430  40.254  12.060
10556W        W78950  21.227  31.269   3.085
10557W        W78951   3.486  27.556  11.278
10558W        W78952  27.152  10.213  11.006
10559W        W78953  36.689  41.521   4.516
10560W        W78954  29.929  12.167  12.022
10561W        W78955  25.721  38.336  10.664
10562W        W78956  16.280  24.952  11.614
10563W        W78957   0.338   0.859   0.065
10564W        W78958  31.880  31.639  14.102
10565W        W78959  44.837  25.428   4.748
10566W        W78960  44.981   4.395   0.476
10567W        W78961  33.505  15.758  10.957
10568W        W78962  43.115  38.417  14.025
10569W        W78963  22.472   7.265  10.396
10570W        W78964  36.447   0.835  13.704
10571W        W78965  43.966  12.615   0.297
10572W        W78966   4.676  32.969   2.345
10573W        W78967  21.279  19.342  10.198
10574W        W78968  42.870  37.153  12.098
10575W        W78969  29.460  27.903  14.343
10576W        W78970  38.608  11.779  12.528
10577W        W78971  23.213  19.520  14.939
10578W        W78972  15.358  10.344   1.265
10579W        W78973  40.578  40.600  13.392
10580W        W78974   7.799  10.109  13.924
10581W        W78975  22.079  25.226   3.629
10582W        W78976  39.943   7.599   1.415
10583W        W78977   3.833  30.592   3.798
10584W        W78978  10.027   0.834   2.025
10585W        W78979   9.195  19.986   4.026
10586W        W78980  31.874   7.393   1.278
10587W        W78981  11.426  31.981  11.847
10588W        W78982  14.062  10.799   1.320
10589W        W78983  24.685  24.504   4.122
10590W        W78984  28.917   2.192   0.826
10591W        W78985   2.776  32.536  12.139
10592W        W78986  43.163  31.200   2.887
10593W        W78987   5.072  37.288   4.633
10594W        W78988  42.286  18.396   0.330
10595W        W78989  32.089  16.553  10.716
10596W        W78990  26.075  40.466   2.131
10597W        W78991  41.112   7.716  13.900
10598W        W78992  35.945  36.810   3.729
10599W        W78993  17.101  11.724   1.178
10600W        W78994  44.723  44.013  10.962
10601W        W78995  39.305  24.029  13.950
10602W        W78996  28.179  29.182   0.477
10603W        W78997   6.606  10.272  10.741
10604W        W78998  27.819  28.450  11.108
10605W        W78999  11.545  43.396  10.412
10606W        W79000   6.981  20.016   3.682
10607W        W79001  22.758  27.111  12.734
10608W        W79002  11.376  21.487   3.407
10609W        W79003  30.230  40.903   1.916
10610W        W79004  20.568  13.612  11.120
10611W        W79005  16.738  24.299  12.022
10612W        W79006  32.364  43.261   0.833
10613W        W79007  14.618  15.650   2.687
10614W        W79008  44.300  16.044  13.513
10615W        W79009  15.508  40.042   3.412
10616W        W79010  41.943  41.587   4.966
10617W        W79011  44.239  17.647  11.920
10618W        W79012   0.393  32.503  13.101
10619W        W79013  19.840  33.250   3.655
10620W        W79014   3.341   2.009  11.068
10621W        W79015  24.596  44.660   3.124
10622W        W79016  11.406  10.280  12.337
10623W        W79017   7.529  12.047  12.941
10624W        W79018   7.800  40.161  14.887
10625W        W79019  32.992  21.969  13.876
10626W        W79020  11.872   5.784   0.828
10627W        W79021  12.336  23.099  13.024
10628W        W79022  33.469   7.259   5.176
10629W        W79023  27.632  16.311  11.090
10630W        W79024  11.096  28.635   0.427
10631W        W79025  37.872  32.958  14.896
10632W        W79026  23.862  25.544   4.360
10633W        W79027  16.147  37.569   4.148
10634W        W79028  18.056  34.465   1.919
10635W        W79029  20.546   4.290  11.904
10636W        W79030   0.451   6.319   1.337
10637W        W79031   0.309   2.661   3.254
10638W        W79032   8.907  18.341  11.656
10639W        W79033  17.676  17.326  12.424
10640W        W79034  32.429   8.299   2.184
10641W        W79035  10.562  21.163  12.886
10642W        W79036  44.821  21.124   2.704
10643W        W79037  37.504  30.806   3.586
10644W        W79038  15.077  31.742   1.361
10645W        W79039  20.618  32.361  11.206
10646W        W79040  10.449   0.323  12.501
10647W        W79041  32.674   7.628  14.520
10648W        W79042   3.474  35.568  11.423
10649W        W79043   6.178  15.309   3.687
10650W        W79044  31.815  19.510  14.680
10651W        W79045   3.287  39.426   3.497
10652W        W79046  37.384  36.521   0.462
10653W        W79047   3.903  38.753   0.384
10654W        W79048  15.870  43.949  14.743
10655W        W79049  29.106   4.522  14.833
10656W        W79050  28.284   9.946   2.322
10657W        W79051  31.092  17.098  12.141
10658W        W79052   7.899  15.648   0.623
10659W        W79053   9.347  30.671  10.680
10660W        W79054  37.173  12.783   1.399
10661W        W79055   1.011  32.552   2.163
10662W        W79056  33.109  37.428   4.654
10663W        W79057  12.393  28.301  13.559
10664W        W79058  42.038   1.724   0.352
10665W        W79059  16.622   7.738   0.697
10666W        W79060  36.722   8.662   5.461
10667W        W79061  21.092  19.033   1.365
10668W        W79062  33.166  20.477  12.865
10669W        W79063  28.410  44.801  11.529
10670W        W79064  32.217  42.544  10.130
10671W        W79065  10.874  24.890   0.973
10672W        W79066   7.799  41.075   3.626
10673W        W79067  34.166  37.596   4.423
10674W        W79068  34.339  22.417  12.549
10675W        W79069  16.150  39.059  13.969
10676W        W79070  41.601  23.227  13.295
10677W        W79071  22.110   9.539  11.907
10678W        W79072  24.496  39.076  10.618
10679W        W79073  37.994  33.566   1.922
10680W        W79074  10.015  35.487  14.428
10681W        W79075  38.031  21.914  11.689
10682W        W79076  41.455  13.659   2.137
10683W        W79077  12.104   7.627   2.267
10684W        W79078  17.320  29.120  13.406
10685W        W79079  13.367  10.719   3.158
10686W        W79080  28.043  18.045  11.324
10687W        W79081   0.160  12.934   3.774
10688W        W79082   8.881  37.047  14.347
10689W        W79083  18.441   3.464  14.354
10690W        W79084   2.300  18.564   5.036
10691W        W79085  17.128  37.604  10.307
10692W        W79086   8.277   5.906   4.303
10693W        W79087   6.533   8.318   1.471
10694W        W79088  34.364  14.973  14.743
10695W        W79089   6.721   8.684  14.391
10696W        W79090  34.043  37.913   2.653
10697W        W79091  40.092   2.294  12.148
10698W        W79092  13.335  42.471   3.567
10699W        W79093   1.479  32.326  14.999
10700W        W79094  36.491  14.384   3.683
10701W        W79095  42.916  35.623   1.012
10702W        W79096  43.303   7.661  11.352
10703W        W79097  14.137  31.993  10.182
10704W        W79098  25.284  34.023  14.899
10705W        W79099   5.482  29.353   2.827
10706W        W79100   5.586   5.739  12.766
10707W        W79101   7.085  31.573  12.977
10708W        W79102  34.109   3.383  10.552
10709W        W79103  21.685  14.794   2.904
10710W        W79104  33.775  18.608   0.789
10711W        W79105   9.596  29.588   0.367
10712W        W79106  40.428  34.415   3.152
10713W        W79107   9.936  20.143  11.522
10714W        W79108  42.787  26.718  12.400
10715W        W79109   9.371  23.427  14.935
10716W        W79110  19.687  35.624   4.600
10717W        W79111  18.012  40.932   3.370
10718W        W79112  10.814  32.147  12.470
10719W        W79113   8.619  41.401   0.156
10720W        W79114   1.770   3.039  11.603
10721W        W79115  29.975  41.552  14.241
10722W        W79116  10.041  36.409  12.550
10723W        W79117  24.135  44.806  14.579
10724W        W79118  17.301   3.791  11.523
10725W        W79119  21.459   0.907  12.235
10726W        W79120   7.834  26.011   0.283
10727W        W79121  13.355  25.446  14.209
10728W        W79122   5.956  33.150  14.078
10729W        W79123   6.915  36.992  12.060
10730W        W79124  22.538  30.613  11.922
10731W        W79125   6.849  42.786   1.391
10732W        W79126   9.410   8.709  13.441
10733W        W79127  19.185  41.321   4.508
10734W        W79128  39.607  16.107   3.279
10735W        W79129  34.874  39.388   0.271
10736W        W79130  44.966  19.636   5.053
10737W        W79131  15.607   8.868   0.964
10738W        W79132  29.518  16.118  10.712
10739W        W79133  23.988  42.064   4.574
10740W        W79134  35.852   6.196   5.009
10741W        W79135  41.434  25.963   4.194
10742W        W79136  29.592  24.659   2.802
10743W        W79137  14.184  25.438   2.648
10744W        W79138  37.375  26.137   2.681
10745W        W79139  37.305   8.760   1.023
10746W        W79140  18.575  17.388  13.371
10747W        W79141  11.084  26.221   0.242
10748W        W79142  42.205  38.008  11.376
10749W        W79143   4.422  17.002  10.054
10750W        W79144  40.533  34.383   2.648
10751W        W79145   7.726  41.370  12.756
10752W        W79146  30.036  12.379   0.350
10753W        W79147  42.042  19.514  10.902
10754W        W79148  16.394  43.560   4.380
10755W        W79149  37.195   8.685  10.993
10756W        W79150  16.976  35.099   1.401
10757W        W79151  39.857   1.468   4.072
10758W        W79152  41.773  11.163   4.061
10759W        W79153  36.326  30.529  13.076
10760W        W79154   0.272  25.964   3.673
10761W        W79155  15.597  12.315  12.908
10762W        W79156  33.351  38.965  10.782
10763W        W79157  33.469  22.813  11.617
10764W        W79158   8.680  24.654  12.541
10765W        W79159  33.665  40.285  14.941
10766W        W79160   2.543   3.785   3.341
10767W        W79161   0.768  39.099  14.998
10768W        W79162  39.007   8.939   4.349
10769W        W79163  13.260  10.436  12.045
10770W        W79164  34.381   6.226   2.940
10771W        W79165   3.164  15.354  13.811
10772W        W79166   9.178  25.431   9.975
10773W        W79167  18.805  12.852  13.919
10774W        W79168  21.591  12.802  12.514
10775W        W79169  11.839  37.474   1.203
10776W        W79170  40.899  10.083   4.678
10777W        W79171  34.754  44.047   2.735
10778W        W79172  29.925  26.474   4.523
10779W        W79173  24.627  19.202   3.258
10780W        W79174  26.142  11.958   0.762
10781W        W79175   0.024   8.410   4.414
10782W        W79176   6.684  31.532  11.249
10783W        W79177  15.224  42.446   4.366
10784W        W79178  31.785  44.064   0.353
10785W        W79179  25.032  30.410  14.338
10786W        W79180   0.189  39.919   1.248
10787W        W79181  33.942   2.355   0.570
10788W        W79182  19.684  37.788   9.809
10789W        W79183  25.001   0.735  13.356
10790W        W79184  31.554  28.012   0.199
10791W        W79185  38.042  27.447  10.859
10792W        W79186  25.753   4.361  11.969
10793W        W79187  43.443  11.270  14.502
10794W        W79188   0.702  37.015   0.778
10795W        W79189  12.592  35.915   4.083
10796W        W79190  25.130  26.667   2.921
10797W        W79191  37.445   3.016  13.018
10798W        W79192   6.441  10.870   3.701
10799W        W79193  17.738  15.675   0.796
10800W        W79194  42.371  19.561   3.640
10801W        W79195   6.496  15.781   5.014
10802W        W79196  11.727  17.643  14.153
10803W        W79197  29.130  21.180   3.562
10804W        W79198  11.050  26.053   0.738
10805W        W79199  11.637   1.826  14.242
10806W        W79200   8.814  20.147  10.761
10807W        W79201  25.644   3.717  11.344
10808W        W79202  24.004   3.257  11.139
10809W        W79203   6.381  35.667  11.209
10810W        W79204   7.161   9.314  10.773
10811W        W79205   6.853  19.072   1.439
10812W        W79206  23.745   7.976   1.235
10813W        W79207  13.007  12.335   0.634
10814W        W79208   9.222  29.284   0.138
10815W        W79209   6.443  18.839  12.885
10816W        W79210  32.943  39.511  12.069
10817W        W79211  36.062  28.852   3.649
10818W        W79212  38.347  35.990   1.346
10819W        W79213  34.030  27.610  12.507
10820W        W79214  42.401  35.542  10.936
10821W        W79215  21.461   1.461   5.128
10822W        W79216  17.150  38.452  14.590
10823W        W79217  22.274   5.347   2.332
10824W        W79218   2.899   2.986  12.459
10825W        W79219  26.108   2.484   4.606
10826W        W79220  13.151  29.546  14.564
10827W        W79221  40.480  35.134  10.610
10828W        W79222   4.375  43.784   1.436
10829W        W79223  10.949   8.539   0.904
10830W        W79224  16.714  22.693   2.705
10831W        W79225  37.104  15.149  10.665
10832W        W79226  26.361  29.400  10.760
10833W        W79227  11.803  19.725   3.718
10834W        W79228  42.285  35.929  14.812
10835W        W79229  39.475  23.452  14.494
10836W        W79230  42.846   9.674  14.289
10837W        W79231  16.755  38.438  12.552
10838W        W79232  27.223   6.925   1.369
10839W        W79233  33.476  21.958   4.574
10840W        W79234  42.507  36.133   5.387
10841W        W79235   0.575  14.151   2.919
10842W        W79236  29.510   0.478   3.187
10843W        W79237  19.616   4.388   0.755
10844W        W79238  18.532  30.053  12.418
10845W        W79239  19.545   5.746  14.042
10846W        W79240   5.397   5.881   2.258
10847W        W79241   0.025  24.426  14.288
10848W        W79242  25.998   4.353  13.599
10849W        W79243   0.305  42.328   2.163
10850W        W79244  26.631  10.762   2.964
10851W        W79245   4.417   3.498  14.447
10852W        W79246  44.847  37.109  13.026
10853W        W79247  25.161  44.578  11.618
10854W        W79248   0.676   2.259  11.202
10855W        W79249  17.762   3.792  10.665
10856W        W79250  25.254  14.562   0.209
10857W        W79251   0.325  14.188   1.188
10858W        W79252  39.928   0.196   3.832
10859W        W79253  37.683  26.560  12.901
10860W        W79254  16.777  23.300   3.572
10861W        W79255   3.715  13.233   4.413
10862W        W79256   3.228  24.258  11.936
10863W        W79257  42.423   4.249   4.456
10864W        W79258  22.406  31.574   2.700
10865W        W79259  30.466   9.705  12.789
10866W        W79260  33.389  36.854  11.011
10867W        W79261  15.619  26.632  14.509
10868W        W79262  20.152  39.855  12.993
10869W        W79263   4.473  11.331  12.471
10870W        W79264   4.141  15.551  14.878
10871W        W79265  37.899  20.851   0.977
10872W        W79266   2.844  36.768  12.523
10873W        W79267  25.404  26.585   1.680
10874W        W79268  24.006   7.261  10.368
10875W        W79269  37.326  43.987   1.735
10876W        W79270   2.286   5.329  10.529
10877W        W79271  37.300  20.239   4.190
10878W        W79272  28.375  19.738  14.326
10879W        W79273  43.666  17.867  11.209
10880W        W79274  43.791   2.351   2.690
10881W        W79275  41.580  32.434  11.194
10882W        W79276   6.372  14.683  13.521
10883W        W79277  38.375   2.193   3.541
10884W        W79278   2.005  35.019  10.619
10885W        W79279  33.582  32.166   3.258
10886W        W79280  34.031  28.462  14.824
10887W        W79281   7.608   9.908   0.679
10888W        W79282   8.240  42.202   1.403
10889W        W79283  39.746  18.426   2.417
10890W        W79284  15.963   6.844   3.156
10891W        W79285  27.129  28.874  12.286
10892W        W79286  42.114  36.071   0.283
10893W        W79287  18.656  21.953  10.706
10894W        W79288   5.174  18.132  13.175
10895W        W79289  31.636  14.505  13.442
10896W        W79290  11.174  27.123   2.109
10897W        W79291  20.835  25.461   0.415
10898W        W79292   8.879  22.469  14.415
10899W        W79293  23.434  24.041  14.080
10900W        W79294   8.428  22.760   3.561
10901W        W79295  38.365  21.921   3.581
10902W        W79296  14.103  19.954  13.960
10903W        W79297  32.925  12.612   3.657
10904W        W79298  22.268  26.895  14.312
10905W        W79299  21.492  34.556   4.337
10906W        W79300  37.659  37.073  10.780
10907W        W79301  44.659  29.215  13.742
10908W        W79302  38.482   2.758   1.501
10909W        W79303  18.329  30.005   3.673
10910W        W79304   0.142  20.793   1.310
10911W        W79305   6.642  20.526  11.492
10912W        W79306  19.249   9.756  14.977
10913W        W79307  21.233  44.199  11.256
10914W        W79308  35.397  16.620  11.119
10915W        W79309   9.109  24.788  13.525
10916W        W79310  34.632   7.823   0.844
10917W        W79311  21.101  10.657  14.859
10918W        W79312  39.034   1.948   3.987
10919W        W79313  12.856  20.615  13.552
10920W        W79314   5.742  38.374   4.583
10921W        W79315  21.711  26.500   0.604
10922W        W79316  43.272  21.189  12.537
10923W        W79317  42.843  32.004   0.841
10924W        W79318   2.856  23.632  12.089
10925W        W79319   8.373   5.721   0.294
10926W        W79320  31.013   9.765  12.457
10927W        W79321  23.260  13.657   2.757
10928W        W79322  35.070  11.339   1.000
10929W        W79323  25.555  32.575  13.926
10930W        W79324  37.374  41.938   1.971
10931W        W79325  26.001  37.020   1.770
10932W        W79326  21.145  31.727  10.965
10933W        W79327  30.958  40.085  13.066
10934W        W79328  26.928  12.197  12.829
10935W        W79329  32.518  39.767  11.912
10936W        W79330  17.568  16.181  14.338
10937W        W79331  43.776  26.462   1.796
10938W        W79332  40.222  37.529   4.119
10939W        W79333  33.590  21.528   2.435
10940W        W79334  20.263  18.717   0.871
10941W        W79335   9.426  13.383   3.918
10942W        W79336  18.496   6.161  11.669
10943W        W79337   2.974   9.679  11.917
10944W        W79338  11.498  12.517  14.936
10945W        W79339  20.747  18.727  11.946
10946W        W79340  32.059  32.470  10.537
10947W        W79341   4.070  43.368   3.414
10948W        W79342  24.933  12.792  10.669
10949W        W79343  14.340  11.913   3.664
10950W        W79344  26.651   0.564  12.952
10951W        W79345   1.234  25.713   0.518
10952W        W79346  35.610  11.159  10.720
10953W        W79347  33.586  10.248  12.159
10954W        W79348   8.268  36.565   2.735
10955W        W79349  13.074   1.668   2.100
10956W        W79350  34.087   4.719   4.078
10957W        W79351  13.126  24.010   0.068
10958W        W79352  43.496  23.459   2.869
10959W        W79353  19.708  25.142   2.321
10960W        W79354   6.185  21.637  10.914
10961W        W79355  13.411  24.327   4.369
10962W        W79356  32.016   5.483   2.858
10963W        W79357  25.993  38.338  14.066
10964W        W79358  36.935  16.141  14.886
10965W        W79359  14.244   2.106  12.400
10966W        W79360  17.375  17.096  14.887
10967W        W79361   2.749  37.904   2.696
10968W        W79362  14.054  29.346  10.564
10969W        W79363  35.680  10.344  12.921
10970W        W79364  32.290   7.051   3.428
10971W        W79365   9.643  29.587   1.320
10972W        W79366   1.823  22.871   0.525
10973W        W79367   4.168  22.112   2.553
10974W        W79368  16.278  20.227  11.696
10975W        W79369   4.720  26.821   1.881
10976W        W79370   2.645  20.745   2.145
10977W        W79371  30.882  16.193   4.209
10978W        W79372  33.002  37.170  13.471
10979W        W79373  21.576  27.659  14.434
10980W        W79374  18.712  15.626  10.763
10981W        W79375  10.798   0.972  12.880
10982W        W79376  16.840  29.533  12.975
10983W        W79377   8.076   5.302   0.262
10984W        W79378  34.703  18.223   2.173
10985W        W79379  39.020  11.350   4.797
10986W        W79380  27.944  27.119   3.576
10987W        W79381  30.866  35.561   0.279
10988W        W79382  44.645  18.075  14.227
10989W        W79383   4.434  38.518  11.618
10990W        W79384  41.575  18.467  14.333
10991W        W79385  25.509  37.804   1.688
10992W        W79386  25.195  33.403  12.919
10993W        W79387  16.099  26.851  14.435
10994W        W79388  39.792  38.876   2.868
10995W        W79389  32.135  10.072   3.144
10996W        W79390   9.799  10.737   3.323
10997W        W79391  15.686  14.862  14.917
10998W        W79392  19.251  32.887   0.728
10999W        W79393  13.425  12.278   4.982
11000W        W79394  12.637  37.263   5.102
11001W        W79395  26.230   4.167   2.839
11002W        W79396   7.172  34.884   1.496
11003W        W79397  20.699  31.022   2.852
11004W        W79398  19.971  19.722   0.388
11005W        W79399  16.838  37.279   4.383
11006W        W79400  28.912  42.820  14.872
11007W        W79401  13.381  44.981  12.303
11008W        W79402   2.813  23.252   2.745
11009W        W79403  35.588   7.134   0.190
11010W        W79404  31.894  22.759   0.968
11011W        W79405   5.713  38.359  14.855
11012W        W79406  22.515   9.703   4.983
11013W        W79407  23.473  40.264   1.933
11014W        W79408  14.164  16.657  13.889
11015W        W79409  27.518  37.992  11.705
11016W        W79410  24.001   5.806   2.395
11017W        W79411  44.292  39.980   1.752
11018W        W79412  35.068  25.015  12.625
11019W        W79413  19.236  13.371   2.845
11020W        W79414  32.629  37.934   2.668
11021W        W79415  20.865  12.074  14.986
11022W        W79416  22.954  10.626   2.424
11023W        W79417  18.237  34.939  12.417
11024W        W79418  26.658  32.603  11.132
11025W        W79419  40.485   4.934   2.880
11026W        W79420  35.909  27.462  10.413
11027W        W79421  26.918   5.704  12.426
11028W        W79422  25.104  35.447  14.861
11029W        W79423  40.761  29.560  12.612
11030W        W79424   0.105  28.679  10.748
11031W        W79425  31.009   2.338   2.369
11032W        W79426  29.958  14.751  10.767
11033W        W79427   4.245  24.791   0.404
11034W        W79428   2.509   0.486   1.765
11035W        W79429  43.428   3.716   1.421
11036W        W79430  30.205   3.992   0.385
11037W        W79431  12.851  15.135  13.969
11038W        W79432   1.439   4.811   0.360
11039W        W79433  30.936  19.077  11.618
11040W        W79434   1.890  44.294   4.075
11041W        W79435  11.168  31.339   1.273
11042W        W79436  16.206  29.702  10.710
11043W        W79437  22.502  28.557  13.697
11044W        W79438  18.656  30.201  10.882
11045W        W79439  30.500  40.430  14.810
11046W        W79440   7.495  38.067   0.728
11047W        W79441  10.304  40.233   0.820
11048W        W79442  37.823  11.423   4.032
11049W        W79443  12.659  11.845  11.257
11050W        W79444   3.040  37.769  11.095
11051W        W79445   2.824  35.972   4.704
11052W        W79446  36.174   9.866  13.364
11053W        W79447  26.027   0.852  14.780
11054W        W79448  14.179  29.144  11.791
11055W        W79449  42.042   4.873  10.874
11056W        W79450   1.811  16.565   4.174
11057W        W79451  28.603  16.861  14.557
11058W        W79452  25.988  26.735  12.130
11059W        W79453  14.038  18.517  13.837
11060W        W79454  21.230  24.539   1.087
11061W        W79455  29.419  11.281   4.282
11062W        W79456  38.429  40.265  14.277
11063W        W79457   8.701  42.563   4.150
11064W        W79458  16.399  31.068  10.540
11065W        W79459  23.972   4.483   2.249
11066W        W79460  36.454  18.218  11.150
11067W        W79461  10.693   9.366  14.896
11068W        W79462  18.798  44.331  13.930
11069W        W79463  25.799  31.387   3.089
11070W        W79464  32.832  18.775   1.615
11071W        W79465  37.405  38.324   4.110
11072W        W79466   2.475  33.098  14.402
11073W        W79467   1.993  29.158  12.002
11074W        W79468  27.452  34.958   3.388
11075W        W79469  30.199  39.025   0.812
11076W        W79470  43.125  35.023  14.372
11077W        W79471  27.081  40.798   1.324
11078W        W79472  24.210  25.362   3.636
11079W        W79473  10.332   0.893   9.940
11080W        W79474  17.184  20.464  13.503
11081W        W79475  43.304  20.443  14.882
11082W        W79476  15.511  44.772  10.754
11083W        W79477  38.938  36.759   4.591
11084W        W79478  39.892  28.767   2.640
11085W        W79479  24.546   5.325   0.787
11086W        W79480   6.585  16.338  12.543
11087W        W79481   0.287  16.250   2.204
11088W        W79482  25.536  35.144   3.563
11089W        W79483  34.374  24.580  14.484
11090W        W79484  39.796  42.830   1.914
11091W        W79485  19.934  28.643   5.085
11092W        W79486   4.834  30.817  13.529
11093W        W79487  18.946  12.744  12.608
11094W        W79488   4.368  39.915  12.150
11095W        W79489   3.339  27.278  12.927
11096W        W79490   2.718   3.184   1.917
11097W        W79491  34.863   5.322   3.230
11098W        W79492  40.354  38.644   0.979
11099W        W79493  18.745  17.639  14.002
11100W        W79494   4.490  40.971  11.173
11101W        W79495  12.400  10.918  14.969
11102W        W79496  38.824  29.408  12.996
11103W        W79497   3.543  20.743   4.936
11104W        W79498  33.903  20.575  14.794
11105W        W79499  10.874  12.903   0.618
11106W        W79500  32.127  18.161  14.938
11107W        W79501  36.334   0.405   0.504
11108W        W79502  44.021   6.835   0.853
11109W        W79503  35.565  34.460  11.663
11110W        W79504  21.205  43.022   4.217
11111W        W79505   5.138  22.225   1.388
11112W        W79506  31.923  13.230   0.761
11113W        W79507   8.922   2.883   4.068
11114W        W79508  33.286  17.886  13.087
11115W        W79509  21.692  19.077  11.100
11116W        W79510  29.503  10.219   2.988
11117W        W79511  20.654  37.773  14.811
11118W        W79512  15.389  39.918  12.406
11119W        W79513  15.186  39.241   4.163
11120W        W79514  15.668  22.157   4.194
11121W        W79515  28.094   8.694   0.704
11122W        W79516  12.699  25.474  12.038
11123W        W79517  27.203  29.643  14.852
11124W        W79518   5.286  30.024   2.183
11125W        W79519   7.233  34.957  13.482
11126W        W79520  41.499  23.237   1.471
11127W        W79521  18.766  28.655  12.893
11128W        W79522   0.316  37.587   1.722
11129W        W79523  13.808   2.298   0.805
11130W        W79524  33.123  38.597   4.220
11131W        W79525  22.987  20.508   3.601
11132W        W79526  19.256   3.219   0.272
11133W        W79527  10.789   5.914  11.187
11134W        W79528   9.869  29.936  13.433
11135W        W79529  27.609  39.587   0.694
11136W        W79530  24.021   2.506  14.903
11137W        W79531  33.397  15.116   1.477
11138W        W79532  13.264  20.267   1.325
11139W        W79533  35.382  19.771   4.806
11140W        W79534  31.153  18.748  12.002
11141W        W79535   6.722   8.721  13.849
11142W        W79536  32.886  35.582  11.541
11143W        W79537  29.265  40.130   1.294
11144W        W79538  33.469   7.787  14.162
11145W        W79539   8.224  29.706  12.770
11146W        W79540  22.340  25.236  11.983
11147W        W79541  20.469  13.822  12.847
11148W        W79542  38.276  42.633  11.920
11149W        W79543   2.453  23.761   5.286
11150W        W79544  24.778  40.826   1.055
11151W        W79545  22.013   0.462  11.600
11152W        W79546  36.623   1.513  14.432
11153W        W79547  28.249   6.355   4.905
11154W        W79548   1.802  35.413  11.607
11155W        W79549  42.971  36.113   2.767
11156W        W79550  39.373  31.347   4.269
11157W        W79551  42.866   1.757  14.438
11158W        W79552   6.876  20.045   1.806
11159W        W79553  40.301  15.093  12.921
11160W        W79554  16.667  22.593   0.995
11161W        W79555   0.712  12.919   0.257
11162W        W79556  36.121  38.093  13.393
11163W        W79557  22.129  30.087  13.080
11164W        W79558  13.347  37.512   4.577
11165W        W79559  34.650  28.195   0.429
11166W        W79560  41.062  35.421  13.207
11167W        W79561  22.316  39.026   0.827
11168W        W79562  30.047  38.602   0.530
11169W        W79563  18.972   6.407   3.761
11170W        W79564  41.948  11.901  12.589
11171W        W79565  12.403  30.883   1.332
11172W        W79566  33.543  30.275   3.372
11173W        W79567   4.887  41.432  14.474
11174W        W79568   1.037   8.267  12.919
11175W        W79569  36.334  26.176  13.346
11176W        W79570   8.145   8.324  10.569
11177W        W79571  27.133  26.669   0.509
11178W        W79572   6.684  22.941  11.962
11179W        W79573  30.628  23.051   3.832
11180W        W79574  35.873  30.919  12.193
11181W        W79575  29.135  38.713  14.452
11182W        W79576  39.097  35.839   1.727
11183W        W79577  29.082  15.654   3.111
11184W        W79578  14.599  30.695   4.635
11185W        W79579  34.330   5.666   1.775
11186W        W79580  22.020  19.853   2.667
11187W        W79581  11.085  41.427  13.425
11188W        W79582   7.177  29.464   0.865
11189W        W79583  31.512   6.198  11.930
11190W        W79584  42.007   8.640  14.042
11191W        W79585   9.148   2.826  14.902
11192W        W79586  34.851  23.528  13.609
11193W        W79587  43.031  11.269  10.590
11194W        W79588   5.675  31.885   1.873
11195W        W79589  23.768  11.743   1.284
11196W        W79590   5.715  43.489  11.636
11197W        W79591  17.183  32.406  13.808
11198W        W79592  27.608  26.066   1.454
11199W        W79593  15.473  17.065  14.000
11200W        W79594  24.026  23.929  13.592
11201W        W79595  34.832   0.776  12.554
11202W        W79596  21.276  32.515   0.212
11203W        W79597  29.160  17.560   1.415
11204W        W79598  20.216  32.205   3.727
11205W        W79599  30.124  27.666  11.596
11206W        W79600  10.194  39.962  10.809
11207W        W79601  18.781   9.365   0.279
11208W        W79602  37.230  16.067  12.629
11209W        W79603  42.475  38.783  14.775
11210W        W79604  39.342  43.270  11.475
11211W        W79605  34.932  15.818   4.633
11212W        W79606  15.720  22.111   0.880
11213W        W79607  10.722  13.920  10.771
11214W        W79608  16.832  42.381   3.846
11215W        W79609  28.937  30.496   1.732
11216W        W79610  25.377   4.736  11.974
11217W        W79611  37.308  23.635   4.664
11218W        W79612  33.132   7.040   3.344
11219W        W79613   3.154  30.893  10.838
11220W        W79614  25.999  21.272  12.646
11221W        W79615  33.969  12.190   3.928
11222W        W79616  22.003   1.653   0.230
11223W        W79617  30.715  37.823   1.280
11224W        W79618  10.706  27.593  11.617
11225W        W79619  43.600   0.933   4.266
11226W        W79620  42.782  44.403  13.388
11227W        W79621  28.505  37.882   4.558
11228W        W79622  21.028  27.882  11.719
11229W        W79623  11.253  31.818  14.015
11230W        W79624   2.173  11.832  14.023
11231W        W79625  25.673   8.081  12.909
11232W        W79626  18.589  43.253   3.663
11233W        W79627   4.294  41.087  12.995
11234W        W79628  40.740  14.719  14.919
11235W        W79629  10.020  37.094   2.405
11236W        W79630  20.300  37.982  14.098
11237W        W79631   2.424  26.987   1.427
11238W        W79632  38.548  29.016   1.491
11239W        W79633  10.141  22.761  14.018
11240W        W79634   5.664  12.031   2.262
11241W        W79635   0.425  42.262  13.922
11242W        W79636  43.310  19.832   0.502
11243W        W79637  20.769  32.142   3.685
11244W        W79638  15.833  18.652   4.427
11245W        W79639  11.397  43.716  12.587
11246W        W79640  31.488  34.071  11.207
11247W        W79641  37.675  34.586   1.097
11248W        W79642   5.293  17.282   1.630
11249W        W79643   0.292  17.841   3.724
11250W        W79644  42.862  38.959   4.503
11251W        W79645  31.231   0.248   3.155
11252W        W79646  17.412  13.303  11.542
11253W        W79647  22.215  28.003   4.038
11254W        W79648  33.577  19.330   1.231
11255W        W79649   3.691  21.095   2.774
11256W        W79650  12.309  20.254   2.254
11257W        W79651  36.549  37.540   2.372
11258W        W79652  16.185  39.728   2.129
11259W        W79653  33.091  23.372  12.700
11260W        W79654  30.626  33.144  11.613
11261W        W79655  41.383  10.708   0.060
11262W        W79656  17.389  27.950  14.769
11263W        W79657  31.146   9.316   0.806
11264W        W79658  35.415  32.413   3.836
11265W        W79659  17.690  26.860   4.188
11266W        W79660  31.645  36.165  12.311
11267W        W79661  36.274  35.104   4.591
11268W        W79662  15.343   7.426   4.540
11269W        W79663   8.329  21.485   4.638
11270W        W79664   5.155  27.141   0.838
11271W        W79665  38.263  20.823   1.386
11272W        W79666   7.383  27.582   4.868
11273W        W79667  39.975   2.669  11.078
11274W        W79668   8.762  25.946   0.232
11275W        W79669  34.921   5.899   0.036
11276W        W79670  30.158   9.229  11.134
11277W        W79671  15.205  30.097   3.843
11278W        W79672  24.734   9.717  12.907
11279W        W79673  18.199  14.947  11.698
11280W        W79674  26.801  32.647   1.697
11281W        W79675  33.570  26.081  12.810
11282W        W79676  42.340  41.820   4.703
11283W        W79677   0.248   1.506   1.973
11284W        W79678  14.867   7.224   0.275
11285W        W79679  38.868  24.284  12.187
11286W        W79680   7.807  20.235   0.965
11287W        W79681   4.447  23.411  10.627
11288W        W79682  25.020  35.424  13.848
11289W        W79683   3.453  22.394   4.563
11290W        W79684  44.005  33.968   4.393
11291W        W79685  39.832  31.350  12.109
11292W        W79686   0.014  30.044  14.321
11293W        W79687  11.532   7.531   5.138
11294W        W79688  23.117   7.484  12.941
11295W        W79689  17.099  33.885   1.365
11296W        W79690  21.625   8.612  12.777
11297W        W79691  19.195   4.888   4.524
11298W        W79692  22.609  43.764   2.798
11299W        W79693  29.368  44.927   1.276
11300W        W79694  38.520   4.529   2.325
11301W        W79695  14.219  39.064   0.907
11302W        W79696  16.971  32.342  11.617
11303W        W79697  36.601  16.612  10.731
11304W        W79698  34.543  22.258  13.364
11305W        W79699  26.970  15.356  14.032
11306W        W79700  32.429  21.600   2.016
11307W        W79701  14.982  33.561   0.311
11308W        W79702  12.075  16.332   2.727
11309W        W79703   6.944   5.170   4.155
11310W        W79704  12.264  11.397  14.877
11311W        W79705   1.321  18.054   1.750
11312W        W79706   9.786  36.345   1.645
11313W        W79707   1.390  15.512   4.554
11314W        W79708  33.720   6.821   1.369
11315W        W79709  10.254  34.173   1.789
11316W        W79710  18.018  16.993   1.857
11317W        W79711  29.468  27.015  13.824
11318W        W79712  29.591  10.876  11.043
11319W        W79713  39.116  32.489   1.712
11320W        W79714   1.899  30.317  12.744
11321W        W79715  31.500  26.112   1.673
11322W        W79716  19.313   0.994  12.604
11323W        W79717  42.770  14.170   1.274
11324W        W79718  43.838  13.712   4.594
11325W        W79719  16.604  38.409   1.384
11326W        W79720  39.495  31.948   0.487
11327W        W79721  31.827  18.827  13.511
11328W        W79722  37.521  17.596   3.452
11329W        W79723  33.957  25.477   2.419
11330W        W79724   7.250  19.940  13.610
11331W        W79725  35.927  33.002   4.845
11332W        W79726  19.182  32.341  12.494
11333W        W79727  43.349   1.650  10.159
11334W        W79728   6.405   4.994   0.701
11335W        W79729  17.121  30.938   0.252
11336W        W79730  16.301  32.919   4.947
11337W        W79731  44.432  25.137  13.949
11338W        W79732  17.200  16.320   4.998
11339W        W79733  39.124   0.358   4.509
11340W        W79734  15.689  13.343  14.251
11341W        W79735  24.259  27.549   0.448
11342W        W79736   5.404  34.468  10.917
11343W        W79737  21.407  13.682   0.811
11344W        W79738  23.505  15.958   2.222
11345W        W79739  35.847  20.559   3.229
11346W        W79740   8.714  10.805  11.189
11347W        W79741  21.044  23.828  10.183
11348W        W79742  23.032  42.000  14.692
11349W        W79743  42.948  43.090  14.097
11350W        W79744  33.405  13.144  11.034
11351W        W79745  44.978  15.317   3.896
11352W        W79746   8.258  29.411   0.474
11353W        W79747  36.925  25.568  13.144
11354W        W79748   5.399  36.215   0.944
11355W        W79749  20.789  14.207  13.113
11356W        W79750  13.800   1.854  14.914
11357W        W79751  21.720  11.894  10.634
11358W        W79752  39.963   6.854   3.628
11359W        W79753  19.136  21.712   4.054
11360W        W79754  39.940   6.420   2.632
11361W        W79755  26.795  20.904  14.475
11362W        W79756   2.431  36.441   2.847
11363W        W79757  17.113  43.357  12.880
11364W        W79758  14.651  30.823   1.762
11365W        W79759   7.719  12.736   2.288
11366W        W79760   4.334  17.244   2.615
11367W        W79761  34.844  27.841   1.673
11368W        W79762  27.214  21.565   3.543
11369W        W79763  24.080   9.380   2.850
11370W        W79764  27.728  24.291   2.124
11371W        W79765   8.536  13.278  14.921
11372W        W79766  38.285  22.123   0.016
11373W        W79767   7.136   8.102   2.149
11374W        W79768  42.299   8.234   4.355
11375W        W79769  31.082  35.406   2.597
11376W        W79770  21.210  14.667  11.862
11377W        W79771  35.048  43.263   2.280
11378W        W79772  23.238  40.338   3.766
11379W        W79773  11.101  35.001   3.537
11380W        W79774  14.644  34.026  10.564
11381W        W79775  20.092   8.152  13.900
11382W        W79776  42.174  10.160   0.032
11383W        W79777  30.279   2.455   0.287
11384W        W79778  39.533  21.109   3.074
11385W        W79779  15.308  22.117   2.819
11386W        W79780  21.673  30.615  14.330
11387W        W79781  14.628  24.439   1.301
11388W        W79782  29.048  21.478  12.694
11389W        W79783  30.626   4.543  11.557
11390W        W79784  28.767  15.631   0.299
11391W        W79785  31.200   7.995   1.805
11392W        W79786  44.907  26.508  10.613
11393W        W79787  28.284  33.860   1.970
11394W        W79788  42.030  25.275   0.490
11395W        W79789   3.496  39.663  12.037
11396W        W79790  32.330  15.823  12.995
11397W        W79791  29.401  32.547  13.747
11398W        W79792  18.163  36.445   3.339
11399W        W79793   9.163  43.666   0.288
11400W        W79794  38.519  28.368  11.146
11401W        W79795  23.113  15.334  13.126
11402W        W79796   4.595   2.875   5.027
11403W        W79797  41.370  10.372   4.230
11404W        W79798  11.127  11.130  12.335
11405W        W79799  37.539  37.669   3.256
11406W        W79800  15.627  13.711  11.677
11407W        W79801  13.643  40.757  13.583
11408W        W79802  30.111  18.094   3.449
11409W        W79803  23.541  26.237  12.082
11410W        W79804  10.512  28.075  13.385
11411W        W79805  42.010  30.503  13.088
11412W        W79806  44.663   2.058  14.442
11413W        W79807  42.811  10.565   0.359
11414W        W79808  28.083  38.614  13.532
11415W        W79809  14.298  26.561  12.844
11416W        W79810  35.520   5.105  14.396
11417W        W79811  26.533  23.643  14.820
11418W        W79812   0.458   3.272  13.476
11419W        W79813   3.217  20.280   1.763
11420W        W79814   0.895  26.489   2.874
11421W        W79815  32.441  37.922   4.062
11422W        W79816  25.507   9.882  12.457
11423W        W79817  38.640  10.109  14.038
11424W        W79818  28.514   8.177   4.528
11425W        W79819  41.438  25.636  13.398
11426W        W79820  15.156  37.354   4.143
11427W        W79821   8.086   0.427   1.037
11428W        W79822  33.597  36.368   1.174
11429W        W79823  30.483  30.009  11.847
11430W        W79824  21.658   1.213  13.524
11431W        W79825  13.676  37.772  10.922
11432W        W79826  13.228  43.931  12.873
11433W        W79827  38.534   9.437  11.266
11434W        W79828   4.462  32.187  10.643
11435W        W79829  24.022  10.730   0.696
11436W        W79830  36.008  35.368   2.800
11437W        W79831   5.887  17.599  12.898
11438W        W79832  25.489   5.833  14.301
11439W        W79833  42.823   5.897  14.891
11440W        W79834  12.811  41.545   4.560
11441W        W79835  44.554   3.461   2.196
11442W        W79836  40.885  37.405   1.774
11443W        W79837  36.977  16.878   2.396
11444W        W79838  35.690  35.045  14.258
11445W        W79839  20.188  14.746  14.495
11446W        W79840   8.206  15.045   0.024
11447W        W79841  23.681  11.793  11.211
11448W        W79842  33.347  43.537   1.732
11449W        W79843   8.732   5.391  10.353
11450W        W79844  39.499   6.324  13.989
11451W        W79845   6.059   6.838   1.737
11452W        W79846  32.598  19.939  11.589
11453W        W79847   3.166   1.298  13.556
11454W        W79848  40.416  24.708  14.413
11455W        W79849  15.999  36.923   1.164
11456W        W79850   6.701  34.376  14.241
11457W        W79851  15.343  42.455   0.704
11458W        W79852  40.370  11.915   4.138
11459W        W79853  34.466  23.729  12.337
11460W        W79854  34.610  10.615  14.828
11461W        W79855  23.063  36.948  13.542
11462W        W79856  13.678   5.892   0.279
11463W        W79857  19.388  11.084   1.268
11464W        W79858  41.219  35.115  13.594
11465W        W79859  38.404  18.764  13.854
11466W        W79860   7.692  14.297  14.111
11467W        W79861  44.610  44.801   1.399
11468W        W79862  30.828  23.755  12.492
11469W        W79863  20.744  18.661   5.349
11470W        W79864   6.288  34.614  13.471
11471W        W79865   7.541  14.097  10.748
11472W        W79866  26.376  30.377   3.683
11473W        W79867  40.889   3.983  14.941
11474W        W79868  28.829  29.939   3.760
11475W        W79869  21.067   7.880  11.205
11476W        W79870  22.015   3.355  11.109
11477W        W79871  42.259  17.141   4.175
11478W        W79872  36.264  16.190   0.864
11479W        W79873  37.491  19.016  14.805
11480W        W79874  42.811  38.089   3.770
11481W        W79875   8.409  40.929  12.647
11482W        W79876  12.848  14.374   4.581
11483W        W79877  23.119  42.486   0.017
11484W        W79878   8.303  22.319  11.065
11485W        W79879  22.826  28.635   3.740
11486W        W79880  21.173   9.203   0.385
11487W        W79881  15.487   3.174  11.696
11488W        W79882   4.971  42.816  12.538
11489W        W79883   9.551  12.626   3.009
11490W        W79884   9.982  13.519   1.655
11491W        W79885  34.902   4.020  14.866
11492W        W79886   5.693  11.302   4.566
11493W        W79887  42.817  11.177   2.330
11494W        W79888  27.714   3.393  11.174
11495W        W79889  31.737  16.863   2.305
11496W        W79890  33.121  30.340   0.250
11497W        W79891  36.575  35.976   2.953
11498W        W79892  27.224   4.752  12.467
11499W        W79893   4.300   9.603   1.892
11500W        W79894   9.403   7.014   2.230
11501W        W79895  27.185  14.112   3.594
11502W        W79896  42.175  18.041  13.965
11503W        W79897   6.478  28.483  14.362
11504W        W79898  17.339  37.811  10.732
11505W        W79899  30.968  12.947   3.901
11506W        W79900  25.235  31.944   0.702
11507W        W79901  42.521  39.244  13.361
11508W        W79902  31.849  43.384   3.119
11509W        W79903   7.386  44.769   0.790
11510W        W79904   5.620  39.848   1.993
11511W        W79905  43.359  34.892   0.915
11512W        W79906   9.921  14.103   0.470
11513W        W79907   3.889  37.973   4.673
11514W        W79908  19.571  22.623   1.243
11515W        W79909  21.020   3.312  14.292
11516W        W79910  39.952  15.699  11.739
11517W        W79911  39.395  28.506  13.854
11518W        W79912  15.247  16.904  12.296
11519W        W79913   0.417   4.835   1.124
11520W        W79914   9.704  23.002   2.399
11521W        W79915  20.720   9.592  13.016
11522W        W79916  41.897  22.359   2.309
11523W        W79917  39.747  24.015   3.646
11524W        W79918  37.743  39.543   2.413
11525W        W79919  35.956  10.340  14.973
11526W        W79920   9.789   0.406   4.147
11527W        W79921  17.193  42.924  11.115
11528W        W79922  16.028   2.976   1.426
11529W        W79923  38.352   6.277  14.270
11530W        W79924  39.797  16.287  13.972
11531W        W79925  10.356  10.331   4.509
11532W        W79926  11.093  38.917  10.702
11533W        W79927   1.879  25.290  13.363
11534W        W79928  41.000  14.616  14.031
11535W        W79929  24.137   5.517   1.082
11536W        W79930  11.633  41.704   3.721
11537W        W79931  12.061  36.517   3.111
11538W        W79932  19.016   2.495   2.836
11539W        W79933   4.419  39.916   3.251
11540W        W79934  14.258  39.063  11.076
11541W        W79935  41.897  22.016   0.890
11542W        W79936  39.812   4.416   2.292
11543W        W79937  24.019   1.208   2.698
11544W        W79938  16.948  16.985  11.640
11545W        W79939  10.331  34.453  12.647
11546W        W79940  29.434   4.565  11.970
11547W        W79941  18.964  35.297   2.109
11548W        W79942  44.014  19.259   1.234
11549W        W79943  41.268  33.442   1.565
11550W        W79944  25.580  11.710   1.962
11551W        W79945   2.044   2.256  12.355
11552W        W79946  23.126  26.469  12.925
11553W        W79947  44.108  31.686  11.590
11554W        W79948  10.851   8.202   2.726
11555W        W79949  42.106  26.220  10.677
11556W        W79950  18.550  21.488  12.548
11557W        W79951  12.732   4.856   4.984
11558W        W79952   6.767   2.519   2.354
11559W        W79953  20.132  36.566   1.325
11560W        W79954  39.736   4.195   4.352
11561W        W79955   5.974  37.444  12.415
11562W        W79956  22.688   9.200  10.577
11563W        W79957  10.214  16.359  12.151
11564W        W79958  39.057  10.852  14.152
11565W        W79959  29.817  13.733  13.290
11566W        W79960  34.550  10.587   1.333
11567W        W79961  38.301  40.455   3.892
11568W        W79962  27.959  24.378   4.500
11569W        W79963  44.773  35.409  12.434
11570W        W79964  38.779  14.568   0.796
11571W        W79965  17.561  12.285   2.766
11572W        W79966   4.810  28.972  11.781
11573W        W79967  12.408  21.672  12.655
11574W        W79968  18.097  11.418   0.800
11575W        W79969  18.617  41.491  12.386
11576W        W79970   1.599   3.548  13.501
11577W        W79971  25.751  40.357   2.917
11578W        W79972  23.765   4.143   1.141
11579W        W79973   1.325  41.081   4.681
11580W        W79974   0.473   3.726   0.051
11581W        W79975  37.966  10.325  13.563
11582W        W79976  37.382   2.001  13.972
11583W        W79977  26.647  38.819  11.602
11584W        W79978  40.530  29.412   1.326
11585W        W79979  36.057  41.953   1.324
11586W        W79980  36.040  41.899  12.893
11587W        W79981  13.154  11.743   0.923
11588W        W79982  11.844  28.110  10.569
11589W        W79983  15.134  17.520   0.384
11590W        W79984  11.102  39.485  13.467
11591W        W79985  38.851   0.443  11.689
11592W        W79986  34.738  14.844   5.113
11593W        W79987  38.816   7.287   1.926
11594W        W79988  43.816  23.026   0.901
11595W        W79989   8.729  10.727   3.686
11596W        W79990   2.207   1.884   1.395
11597W        W79991  35.594  14.506   1.383
11598W        W79992   7.890  44.305   3.155
11599W        W79993  43.305  15.360  13.121
11600W        W79994   8.173   1.369  12.494
11601W        W79995  20.794  38.158  11.956
11602W        W79996   9.856  34.633  12.839
11603W        W79997  29.108  43.296  10.053
11604W        W79998   7.911  35.609   2.012
11605W        W79999  36.899  41.962   1.084
11606W        W80000   5.398  42.982   3.241
11607W        W80001  29.035   4.091   3.836
11608W        W80002  36.805  12.150   4.308
11609W        W80003  23.252  42.852  13.004
11610W        W80004  43.779  43.332  10.720
11611W        W80005  22.166  42.780  12.422
11612W        W80006  27.813  36.096  11.308
11613W        W80007  10.780  32.005   3.347
11614W        W80008  34.432  30.142  13.951
11615W        W80009  37.999  24.369   0.194
11616W        W80010  39.253  24.522   2.700
11617W        W80011  42.447  41.322   2.752
11618W        W80012  22.570   9.976  14.905
11619W        W80013   4.507  12.097   4.628
11620W        W80014   8.697   8.256  11.976
11621W        W80015  42.640  31.234   2.923
11622W        W80016  26.244   5.866   3.798
11623W        W80017  17.696   5.491   5.134
11624W        W80018  42.167  32.823  11.180
11625W        W80019  27.511  26.043  12.360
11626W        W80020  11.260  37.051  12.100
11627W        W80021  13.156  43.355   4.345
11628W        W80022  34.098  10.671  14.800
11629W        W80023  22.272   0.464  11.162
11630W        W80024  43.475  11.223   3.035
11631W        W80025   2.519   4.236  14.374
11632W        W80026  44.745  30.991  13.556
11633W        W80027  21.607   3.525   2.921
11634W        W80028  24.124  43.690   1.183
11635W        W80029  32.509   2.658   4.351
11636W        W80030   8.384  20.839  13.850
11637W        W80031   6.628  39.513  12.860
11638W        W80032  19.008   0.016   4.124
11639W        W80033  23.136   4.487   1.815
11640W        W80034  13.746  33.434   1.232
11641W        W80035  22.695   8.435   0.712
11642W        W80036  40.498  10.849   4.199
11643W        W80037  42.879  20.561   3.094
11644W        W80038  38.919  17.666   4.587
11645W        W80039   1.855  35.168  11.093
11646W        W80040  11.836  15.707   2.423
11647W        W80041  21.622  26.960   0.774
11648W        W80042  24.222  44.935   3.354
11649W        W80043  43.770  18.475   1.746
11650W        W80044   3.988  42.284  11.457
11651W        W80045  14.063  40.992  12.835
11652W        W80046   4.775   9.364  12.489
11653W        W80047   9.058  36.926  11.354
11654W        W80048   4.036  26.789  10.051
11655W        W80049  40.921  26.502   2.204
11656W        W80050  24.396   9.786   2.746
11657W        W80051  32.110  44.346   1.498
11658W        W80052  21.096  14.657  13.014
11659W        W80053  38.175  37.899   3.911
11660W        W80054  13.726   1.255   3.839
11661W        W80055   4.212  22.118   1.999
11662W        W80056  31.389  26.604  10.039
11663W        W80057   4.678  20.816   2.695
11664W        W80058  12.820  34.492  11.610
11665W        W80059  21.644  41.276  10.427
11666W        W80060  17.186  38.631  10.675
11667W        W80061  27.064  30.696   2.704
11668W        W80062  31.572  25.975   2.738
11669W        W80063  23.600   9.305  14.038
11670W        W80064  24.233  30.137   1.841
11671W        W80065  26.060  24.555   4.465
11672W        W80066  26.505  24.785   4.286
11673W        W80067  30.423   0.243   0.671
11674W        W80068  17.560  29.594   4.686
11675W        W80069  11.028  25.530  11.087
11676W        W80070  19.730  11.463   4.572
11677W        W80071  27.003  16.149   2.930
11678W        W80072   4.676   1.959   3.241
11679W        W80073  18.561  37.054  12.862
11680W        W80074  32.765  39.719   3.585
11681W        W80075   2.458   2.728  10.812
11682W        W80076  34.125  40.056   2.250
11683W        W80077  41.630  25.080   0.154
11684W        W80078   8.222   5.146   3.137
11685W        W80079  31.330  44.818   1.649
11686W        W80080  20.628   9.994   2.307
11687W        W80081  18.518  42.017   3.105
11688W        W80082  29.499  22.321   5.184
11689W        W80083   9.706   3.931   1.234
11690W        W80084  30.625   0.216  13.215
11691W        W80085  15.781  24.140  10.702
11692W        W80086   2.057  16.072   0.733
11693W        W80087  29.712  21.004   4.717
11694W        W80088  19.837   2.246   3.232
11695W        W80089   8.700   8.225  13.557
11696W        W80090  23.683   6.990  12.617
11697W        W80091  40.773   9.807   1.297
11698W        W80092  32.519  33.081  11.300
11699W        W80093  36.316  37.541  12.671
11700W        W80094  42.742  41.852   2.887
11701W        W80095  38.016   4.941  13.398
11702W        W80096  31.017  15.605  13.062
11703W        W80097   2.911  10.400  14.285
11704W        W80098   2.871  44.923  14.593
11705W        W80099  24.028   7.693   3.587
11706W        W80100  14.821   9.767   0.491
11707W        W80101  41.019  25.676   1.875
11708W        W80102  34.423   5.651   3.849
11709W        W80103  15.437   6.421   3.624
11710W        W80104  12.627  27.780  10.865
11711W        W80105   4.340  25.029   3.647
11712W        W80106   2.167  35.413  14.991
11713W        W80107  21.445  14.520  11.439
11714W        W80108   6.705  23.411   3.677
11715W        W80109   4.302  18.102  13.951
11716W        W80110  42.193  30.878   5.066
11717W        W80111  28.854  38.111  13.818
11718W        W80112   0.242  20.065  12.539
11719W        W80113  26.721  25.992   2.510
11720W        W80114  29.250  25.101   2.836
11721W        W80115  23.255   1.176   3.481
11722W        W80116  35.459  25.070  13.987
11723W        W80117  32.950   0.717   3.220
11724W        W80118  17.763  28.462   0.337
11725W        W80119  15.827  17.725   3.665
11726W        W80120   6.690  30.022   4.421
11727W        W80121  42.867   7.944  14.940
11728W        W80122  24.919  25.650   3.239
11729W        W80123  24.630   9.720  11.161
11730W        W80124  41.306  30.498  13.526
11731W        W80125   0.504  39.354   2.204
11732W        W80126  10.751  17.761   2.703
11733W        W80127   9.809  14.599   4.397
11734W        W80128  33.364  31.611   4.652
11735W        W80129  35.289  12.184  13.666
11736W        W80130   5.139  28.909  10.523
11737W        W80131  17.624  19.085   0.505
11738W        W80132  44.522  28.634  12.140
11739W        W80133  11.307   4.800   3.724
11740W        W80134   9.680  10.098  11.972
11741W        W80135  18.756  10.984  14.448
11742W        W80136  33.491  35.433   2.304
11743W        W80137  12.858  44.336   4.617
11744W        W80138  25.686  39.823   4.492
11745W        W80139  11.004  38.495   1.196
11746W        W80140   5.604   6.566  14.429
11747W        W80141  42.504   0.497   0.047
11748W        W80142  41.474  18.361  11.674
11749W        W80143  18.058  24.044   4.586
11750W        W80144  21.225  30.141  11.090
11751W        W80145   9.727   5.769   4.069
11752W        W80146  32.549  10.165   0.802
11753W        W80147  35.846  13.904  12.591
11754W        W80148   4.673  21.229  10.104
11755W        W80149  31.508  44.280  11.168
11756W        W80150  17.383   5.862  10.214
11757W        W80151  37.998  41.797   3.247
11758W        W80152  28.428  41.097   4.746
11759W        W80153   0.495  37.818  12.938
11760W        W80154  32.914  26.085   4.644
11761W        W80155   3.333  19.334  13.360
11762W        W80156  29.847  20.073   1.414
11763W        W80157   7.328   9.877   1.546
11764W        W80158  12.367  28.976   3.300
11765W        W80159  28.823  41.849   1.727
11766W        W80160  22.922  19.628  14.451
11767W        W80161  29.346  15.594  13.824
11768W        W80162  11.075   6.693  12.976
11769W        W80163  11.714  38.212   0.589
11770W        W80164  21.327   6.299   4.205
11771W        W80165  24.613   7.852   4.842
11772W        W80166  25.902  23.900   0.697
11773W        W80167  19.493  17.305   2.707
11774W        W80168  29.167   3.304   2.298
11775W        W80169  16.287  28.613   4.049
11776W        W80170  43.360   1.486  11.983
11777W        W80171  36.367   8.552  10.683
11778W        W80172   7.394  28.591  12.905
11779W        W80173  15.689   7.498  13.892
11780W        W80174  27.521  28.246   4.554
11781W        W80175   9.862  15.751  13.319
11782W        W80176   1.946  41.542  12.489
11783W        W80177  11.649  16.497   0.264
11784W        W80178   8.077  27.608   3.643
11785W        W80179  43.961   1.665  11.434
11786W        W80180  26.056  13.517   2.312
11787W        W80181  40.257  28.190  14.309
11788W        W80182  29.711  15.229  13.752
11789W        W80183  17.283  42.356   3.587
11790W        W80184   5.567   5.305   1.772
11791W        W80185  13.853  39.585   4.218
11792W        W80186  26.177  42.307   0.009
11793W        W80187  10.786  24.637   4.098
11794W        W80188   7.278  14.982   2.839
11795W        W80189  15.396  19.201  13.060
11796W        W80190  27.871   0.504   2.719
11797W        W80191   0.789  29.656   1.732
11798W        W80192  27.510  23.237   3.702
11799W        W80193  33.520  20.997   3.170
11800W        W80194   2.781  38.788  14.970
11801W        W80195  11.186   5.674   1.217
11802W        W80196  24.808  14.479  11.396
11803W        W80197  40.981  27.610  14.531
11804W        W80198  21.642  13.829   2.580
11805W        W80199  26.959  12.343   3.806
11806W        W80200  14.164  39.513   5.074
11807W        W80201   0.727   2.185  12.216
11808W        W80202  14.398  21.720  13.368
11809W        W80203   1.254  25.790   4.017
11810W        W80204   8.830  31.461  13.975
11811W        W80205  39.932   9.742  10.788
11812W        W80206   0.391  42.382   1.564
11813W        W80207   3.443  36.806  11.178
11814W        W80208  16.031  25.204  13.412
11815W        W80209  12.234   9.895  14.909
11816W        W80210   0.863  36.080  12.158
11817W        W80211  19.587   0.400   5.127
11818W        W80212  14.279  27.487  11.509
11819W        W80213   0.360  34.513   4.270
11820W        W80214   5.314  21.036   3.580
11821W        W80215  15.497  35.334   1.779
11822W        W80216  34.088  26.599  11.514
11823W        W80217  24.648  28.748  11.587
11824W        W80218   3.168  42.012   2.927
11825W        W80219  44.530  12.757  11.288
11826W        W80220  22.813   5.437  10.700
11827W        W80221  14.713   0.967  13.444
11828W        W80222  44.675  15.325   4.741
11829W        W80223  30.808  34.360   3.992
11830W        W80224   2.237  21.065  14.623
11831W        W80225  38.128   9.342  13.296
11832W        W80226   9.880  33.452  14.052
11833W        W80227  15.917  33.510  12.942
11834W        W80228  37.101   7.762  12.067
11835W        W80229  12.538  44.517  14.044
11836W        W80230  30.117  40.531   4.265
11837W        W80231  29.644  12.427  13.540
11838W        W80232   1.503  34.615  11.620
11839W        W80233  33.650  20.624  12.907
11840W        W80234  12.075  33.586   4.413
11841W        W80235   9.172  44.397   2.869
11842W        W80236  37.049  13.827   3.179
11843W        W80237   6.131   9.035   2.568
11844W        W80238  29.602  11.540  13.610
11845W        W80239  11.811  11.568   0.936
11846W        W80240  17.209  42.101   0.867
11847W        W80241  11.267   0.191   0.136
11848W        W80242  22.811  13.218   3.679
11849W        W80243  17.681  37.405  14.425
11850W        W80244  42.999  40.857   2.686
11851W        W80245  15.344  11.266  11.613
11852W        W80246  24.588  15.597   2.778
11853W        W80247   6.183   4.725  12.218
11854W        W80248   6.275   0.897  11.794
11855W        W80249  14.715  38.872  12.166
11856W        W80250   7.291  30.405  11.995
11857W        W80251  42.595  39.755  14.724
11858W        W80252  33.501   7.199  10.790
11859W        W80253   1.002  11.676  12.911
11860W        W80254  19.941  33.068  10.937
11861W        W80255  35.636   4.349   2.666
11862W        W80256  24.676  16.597  13.262
11863W        W80257   3.288  13.019   1.223
11864W        W80258   9.061   5.189  13.791
11865W        W80259  12.643  17.251  14.016
11866W        W80260  30.864  30.060  14.444
11867W        W80261  44.501   4.403   3.119
11868W        W80262  18.287  13.759   2.418
11869W        W80263   3.002  15.792  11.655
11870W        W80264  20.122  31.483  13.260
11871W        W80265  11.834  24.300   4.109
11872W        W80266  40.077  44.002   2.818
11873W        W80267  40.394  43.846   0.574
11874W        W80268   0.856   6.239  13.645
11875W        W80269   2.814  35.428   4.507
11876W        W80270   1.873   7.727   4.016
11877W        W80271  12.698   7.751   9.908
11878W        W80272  34.409  16.178   2.334
11879W        W80273  18.635   1.912  12.868
11880W        W80274  10.449  28.135   1.835
11881W        W80275  19.505  29.154  10.805
11882W        W80276  24.870   8.888  14.427
11883W        W80277   3.952  17.544  14.704
11884W        W80278   4.371  10.744   0.507
11885W        W80279  13.637  26.569  13.437
11886W        W80280  12.819  20.354  11.897
11887W        W80281   7.748  21.147   0.972
11888W        W80282  37.487  13.317  13.954
11889W        W80283  31.619  35.509   4.440
11890W        W80284  17.367   5.355   4.173
11891W        W80285  23.286   3.385  10.569
11892W        W80286  18.191  40.531   2.682
11893W        W80287   0.975  24.262  13.325
11894W        W80288  31.938  19.066  11.995
11895W        W80289  21.090   3.499   0.305
11896W        W80290   1.210  22.314  14.120
11897W        W80291   2.185  11.748   2.400
11898W        W80292  44.170  22.350   1.677
11899W        W80293  33.832  12.723   3.812
11900W        W80294  13.257  30.166  12.857
11901W        W80295  38.267  21.020   2.683
11902W        W80296  16.839  18.666   3.119
11903W        W80297  10.052  24.053  13.359
11904W        W80298   2.897   8.576  13.767
11905W        W80299  11.066  39.016  11.331
11906W        W80300  31.878   4.543   1.417
11907W        W80301  10.176  22.235   0.958
11908W        W80302  44.287   6.987   0.434
11909W        W80303  23.739  33.577   2.660
11910W        W80304   8.455  12.670  13.124
11911W        W80305  14.636   8.936   1.936
11912W        W80306   0.703  44.967  11.029
11913W        W80307  42.863  35.356   5.419
11914W        W80308  18.636  34.130   3.409
11915W        W80309  27.194  34.972  12.061
11916W        W80310  42.152  28.442   4.214
11917W        W80311   2.862   3.447   0.456
11918W        W80312  41.522   7.826   2.046
11919W        W80313  29.753  40.273  12.405
11920W        W80314  22.474  41.503  13.969
11921W        W80315  30.030  26.077  11.432
11922W        W80316   3.898  17.343  10.020
11923W        W80317  22.794  36.583  12.519
11924W        W80318  36.907   3.415   0.397
11925W        W80319  38.146  44.971   2.337
11926W        W80320  22.314  19.503  13.779
11927W        W80321   0.994  15.788   0.647
11928W        W80322  43.484  26.819  10.676
11929W        W80323  38.148   3.484   1.106
11930W        W80324  39.838  44.976   4.995
11931W        W80325  11.303  17.650  10.925
11932W        W80326  32.852  34.896   1.861
11933W        W80327  10.291  11.327   4.139
11934W        W80328   6.367  12.600   1.431
11935W        W80329  18.291  43.506   2.331
11936W        W80330   7.041  37.133   3.837
11937W        W80331  41.973  33.851  12.346
11938W        W80332  17.226   1.686   2.817
11939W        W80333  41.686  27.061   4.196
11940W        W80334   5.995   5.418  14.858
11941W        W80335  21.155   5.431  12.164
11942W        W80336  11.205  25.501   4.125
11943W        W80337  16.633   3.757   4.554
11944W        W80338  34.448  26.427   4.538
11945W        W80339  19.806  29.557   5.379
11946W        W80340  37.566  32.257   2.936
11947W        W80341  37.370  20.585   3.591
11948W        W80342  14.858  14.834  13.060
11949W        W80343  21.524  25.985  12.923
11950W        W80344  39.848  19.498  13.886
11951W        W80345  28.173  16.699   1.219
11952W        W80346   5.273   6.566   3.680
11953W        W80347   0.729  34.523   4.636
11954W        W80348  24.283  33.199   3.309
11955W        W80349   9.069  18.602   4.246
11956W        W80350  11.756  31.067  13.861
11957W        W80351  35.465   6.153  14.483
11958W        W80352   4.386  35.364  11.884
11959W        W80353  25.946  11.311  11.634
11960W        W80354   7.379  36.446   1.299
11961W        W80355  37.290  12.326  10.808
11962W        W80356  23.838  12.205   2.581
11963W        W80357  15.499  16.157  11.176
11964W        W80358  42.254  44.999  12.917
11965W        W80359  19.422  38.243   9.808
11966W        W80360  41.168  18.174   4.322
11967W        W80361  36.540  10.796   3.295
11968W        W80362  14.100   9.368  10.227
11969W        W80363  24.047   3.447   0.994
11970W        W80364  43.518  42.792  11.519
11971W        W80365  13.104  26.993  14.764
11972W        W80366   9.372  28.722   2.357
11973W        W80367  18.068  19.790   0.304
11974W        W80368  41.973  26.271   0.372
11975W        W80369   4.169  44.946   3.434
11976W        W80370  29.832  26.142   2.524
11977W        W80371  18.996  44.388  11.705
11978W        W80372  40.336  38.088  11.637
11979W        W80373   9.874  40.545   3.260
11980W        W80374   1.748  32.141  13.568
11981W        W80375  10.573  43.381  12.828
11982W        W80376  32.681  39.834  11.157
11983W        W80377   6.017   1.930   3.332
11984W        W80378  34.960  22.457   4.510
11985W        W80379  41.397  31.046  14.721
11986W        W80380  34.818  17.022  13.038
11987W        W80381  21.729  42.514   0.830
11988W        W80382  13.284  12.793  11.089
11989W        W80383  44.436  19.315  12.091
11990W        W80384  20.103   7.184   1.750
11991W        W80385   7.941   8.757  13.440
11992W        W80386  22.680  42.815   4.197
11993W        W80387  14.201  12.079  13.105
11994W        W80388  35.948  15.502   3.537
11995W        W80389   5.239  16.061  11.149
11996W        W80390   1.744   8.975   4.971
11997W        W80391  16.591  27.037  14.252
11998W        W80392  14.287  44.344   5.105
11999W        W80393   1.701  34.589  14.923
12000W        W80394   5.179  21.345  12.130
12001W        W80395  27.934  40.261   2.762
12002W        W80396  27.969   3.401   3.760
12003W        W80397  30.440   2.865  11.026
12004W        W80398   1.738  40.392   4.090
12005W        W80399  36.440   5.977  13.536
12006W        W80400  20.727  10.128  13.918
12007W        W80401  29.134  33.978  11.141
12008W        W80402  26.432  18.586  11.607
12009W        W80403  35.543  42.766   0.485
12010W        W80404   5.626  41.464  11.485
12011W        W80405   2.330  44.490  13.471
12012W        W80406  18.288  43.004  13.051
12013W        W80407  17.025   8.728   4.149
12014W        W80408  10.374  34.241  14.893
12015W        W80409   6.718  12.614  14.302
12016W        W80410  20.500  43.993   2.336
12017W        W80411  16.541  42.692  13.802
12018W        W80412  25.672   9.980   2.819
12019W        W80413  39.939  30.650  13.413
12020W        W80414  42.294   5.529   0.305
12021W        W80415  24.809  20.034   0.289
12022W        W80416   1.443  27.674  11.451
12023W        W80417  43.324   6.355  14.344
12024W        W80418   4.941   3.725  14.333
12025W        W80419   8.967  20.324   3.561
12026W        W80420   0.012  20.224  13.987
12027W        W80421   1.502  12.138   3.423
12028W        W80422  35.973  15.014  12.946
12029W        W80423  22.697  25.188   0.416
12030W        W80424  33.640  40.037  11.992
12031W        W80425  37.649   8.986   3.287
12032W        W80426  22.111  29.640  11.192
12033W        W80427  25.437  42.497  14.362
12034W        W80428  14.811  29.349   1.167
12035W        W80429   3.700  30.434  14.826
12036W        W80430  13.147  34.285  14.417
12037W        W80431  44.445  25.527   0.142
12038W        W80432   6.685  22.934  12.784
12039W        W80433  39.283  21.991  13.411
12040W        W80434  42.969  30.555  11.576
12041W        W80435  29.654  21.579  13.520
12042W        W80436  21.017  27.664  12.228
12043W        W80437   7.676  14.787  12.887
12044W        W80438   5.361  16.879   4.630
12045W        W80439  19.235  25.252  11.169
12046W        W80440   8.441  16.860  11.497
12047W        W80441  42.848  35.414  12.197
12048W        W80442  22.288  26.044   5.135
12049W        W80443  17.676   6.663  11.479
12050W        W80444  14.866  40.311  13.781
12051W        W80445  30.437   9.327  14.139
12052W        W80446   3.746  10.282  14.209
12053W        W80447  23.154   0.398  10.975
12054W        W80448  40.370  32.463   3.258
12055W        W80449  44.325  22.012  12.442
12056W        W80450  28.148  15.574  13.471
12057W        W80451   3.392   2.436  12.974
12058W        W80452  13.171  14.211  12.963
12059W        W80453  31.972  10.692   4.450
12060W        W80454  29.511  34.632   4.624
12061W        W80455  21.834  24.582  10.449
12062W        W80456   2.862  10.097  13.831
12063W        W80457  13.747  22.202   1.896
12064W        W80458  28.241  17.244  13.895
12065W        W80459  44.464  28.461  11.653
12066W        W80460  26.151  38.266  11.678
12067W        W80461  15.247  18.023   4.134
12068W        W80462  41.226  26.130  13.408
12069W        W80463  30.760  18.102  10.790
12070W        W80464   4.352  34.853  14.438
12071W        W80465  25.224  14.346   3.910
12072W        W80466  36.281   1.822   4.320
12073W        W80467  31.391   5.702   2.011
12074W        W80468  23.271  38.762   0.958
12075W        W80469  18.192  19.696   5.079
12076W        W80470  12.891  14.231  11.573
12077W        W80471  27.222  18.786   3.562
12078W        W80472   5.970  22.651   2.153
12079W        W80473  11.421  34.672   3.219
12080W        W80474  17.724  13.719  11.526
12081W        W80475  43.812  18.995   1.679
12082W        W80476  33.073  35.535   1.031
12083W        W80477  43.243  28.621   4.073
12084W        W80478  10.559  25.896   0.885
12085W        W80479  42.696  22.964  14.360
12086W        W80480  36.583   3.716  11.932
12087W        W80481  29.491  39.844  13.795
12088W        W80482  22.183  25.945   0.293
12089W        W80483  20.034  12.245  10.997
12090W        W80484  40.635  12.261  11.420
12091W        W80485  41.520  20.964   1.159
12092W        W80486  19.811  31.343   2.043
12093W        W80487  42.403  16.800   4.550
12094W        W80488  21.869   0.736   1.186
12095W        W80489  33.150  35.977   5.094
12096W        W80490  29.196  39.063   2.706
12097W        W80491  13.827  42.870   4.768
12098W        W80492  36.852  28.099  10.369
12099W        W80493   2.880  32.630  11.209
12100W        W80494  32.394  35.993  14.605
12101W        W80495  38.277  31.578   0.428
12102W        W80496  43.274  34.970  10.763
12103W        W80497  37.407  25.093   2.322
12104W        W80498  32.137  13.368   4.646
12105W        W80499  13.503  40.012   0.071
12106W        W80500  31.476  36.320   1.770
12107W        W80501  15.167  29.842   0.910
12108W        W80502  43.555  40.568   3.687
12109W        W80503  21.103  35.446   0.293
12110W        W80504  11.292  23.312   4.806
12111W        W80505  29.078  29.142  14.881
12112W        W80506  12.175  44.590   4.457
12113W        W80507  36.591  34.192  14.773
12114W        W80508   4.010   0.866  11.054
12115W        W80509  23.989  42.775  10.711
12116W        W80510  32.428  20.768  12.882
12117W        W80511  22.820  27.953  13.596
12118W        W80512  16.961  16.098  14.294
12119W        W80513  24.544  42.563   4.127
12120W        W80514  21.933  44.429   3.729
12121W        W80515  17.819  21.041   1.454
12122W        W80516   0.108  32.209  12.347
12123W        W80517  31.024   7.281   3.126
12124W        W80518  17.700  11.211  14.472
12125W        W80519  37.936  33.196  13.506
12126W        W80520  39.190   1.543   4.238
12127W        W80521  39.711   5.956   4.046
12128W        W80522  31.854  12.755  11.626
12129W        W80523  32.468   0.221   0.931
12130W        W80524  42.987   7.894   2.779
12131W        W80525  35.438   9.350  13.378
12132W        W80526  39.806   9.370  12.918
12133W        W80527  17.343  38.933  13.321
12134W        W80528  11.175  22.122  12.087
12135W        W80529  35.349  30.953  10.651
12136W        W80530  41.668  19.833  10.732
12137W        W80531  13.307  21.488   0.983
12138W        W80532  41.027  19.284  11.144
12139W        W80533  42.338  29.359   1.804
12140W        W80534  42.824  27.191  12.121
12141W        W80535  22.049  10.905   3.187
12142W        W80536  33.280   6.718   0.348
12143W        W80537   6.497  18.314   4.688
12144W        W80538  39.710  42.732  12.943
12145W        W80539  12.769  39.700  12.647
12146W        W80540  18.961   6.308  11.521
12147W        W80541   0.864  16.802   1.317
12148W        W80542  12.915  34.370   4.700
12149W        W80543  14.640  33.657  10.998
12150W        W80544  22.659  32.659  13.271
12151W        W80545   6.759  37.098   4.786
12152W        W80546   0.552  29.972  14.328
12153W        W80547  31.726  27.897  13.335
12154W        W80548  35.123  27.172   2.973
12155W        W80549  32.777  11.297  13.051
12156W        W80550  34.206  42.550   2.088
12157W        W80551  31.957  22.653  13.121
12158W        W80552  12.285  31.104  11.971
12159W        W80553   7.870  11.799  13.876
12160W        W80554  23.679  16.776   0.261
12161W        W80555   5.538  15.381   0.426
12162W        W80556  18.471  28.443   1.358
12163W        W80557  17.646  33.478   4.274
12164W        W80558  22.244  27.673   1.734
12165W        W80559   8.335  44.761  10.692
12166W        W80560  32.286  23.174  13.141
12167W        W80561   4.410  31.379  11.618
12168W        W80562  14.035   7.987  12.545
12169W        W80563  40.830  33.245  12.305
12170W        W80564   2.769  42.061   1.418
12171W        W80565  30.671  19.617  10.476
12172W        W80566   9.269  39.805  10.895
12173W        W80567  18.200  32.278   4.177
12174W        W80568  24.185  37.880  11.922
12175W        W80569  32.359  17.579  13.500
12176W        W80570  14.704  13.360  11.703
12177W        W80571  36.978  29.346  10.673
12178W        W80572   6.339  40.235   3.100
12179W        W80573  23.163  38.065   1.443
12180W        W80574   6.725   5.873  10.330
12181W        W80575  28.757  33.436   4.420
12182W        W80576  10.181  24.985   0.097
12183W        W80577  37.073   0.284   0.748
12184W        W80578  32.685  32.777  13.811
12185W        W80579   5.377  38.785   3.879
12186W        W80580  37.532  33.040  14.511
12187W        W80581  14.764   9.257  12.456
12188W        W80582  24.774  33.971  14.929
12189W        W80583  13.306  16.479   3.065
12190W        W80584  26.446  15.697   3.108
12191W        W80585  35.342  35.104   3.102
12192W        W80586   5.953  17.665   2.330
12193W        W80587  25.115  17.834  13.737
12194W        W80588   5.384  12.900  11.638
12195W        W80589  18.199  15.062   3.805
12196W        W80590   9.897  26.033  10.509
12197W        W80591  24.473  16.148   1.487
12198W        W80592  39.567  13.728  10.406
12199W        W80593   4.237  29.408  11.393
12200W        W80594  16.016  34.675  10.910
12201W        W80595  18.068  16.633   2.259
12202W        W80596  10.579  27.710   0.295
12203W        W80597  44.001  25.658  14.356
12204W        W80598  22.930  42.975  13.399
12205W        W80599  19.103  37.400   1.034
12206W        W80600   0.836   1.220  11.989
12207W        W80601  20.172  17.083   0.013
12208W        W80602  44.717   0.731  14.422
12209W        W80603   1.447  42.787   2.148
12210W        W80604  40.004  20.296  11.229
12211W        W80605  44.502  38.354   2.724
12212W        W80606  44.344   1.358  11.253
12213W        W80607  29.860  16.379  13.185
12214W        W80608  42.019  28.595  10.531
12215W        W80609  36.408  17.975  12.506
12216W        W80610   4.757   3.058  12.343
12217W        W80611  10.248  34.624  14.073
12218W        W80612  31.854  27.342   1.167
12219W        W80613  33.078  19.040  13.889
12220W        W80614  41.017  24.137   2.429
12221W        W80615  10.548   2.541   0.899
12222W        W80616  18.467  11.189   1.501
12223W        W80617  26.985  31.482  12.084
12224W        W80618  43.845  26.231   2.456
12225W        W80619  30.724  22.394  13.835
12226W        W80620  18.591  22.069  13.377
12227W        W80621   8.375  44.021   3.126
12228W        W80622  10.248   6.009  10.594
12229W        W80623  18.764  44.310   0.333
12230W        W80624  41.341  13.797   0.709
12231W        W80625  41.967   5.197   2.007
12232W        W80626  18.540  43.959   2.419
12233W        W80627  34.613  11.246  13.063
12234W        W80628  25.737  32.402  12.481
12235W        W80629  19.391   4.887  13.327
12236W        W80630  21.612  20.037   3.808
12237W        W80631  16.035  24.542   4.181
12238W        W80632  27.017  12.273   4.323
12239W        W80633   9.341  38.885  11.967
12240W        W80634  39.774  12.451   4.170
12241W        W80635  17.535   6.583  14.562
12242W        W80636  44.388  13.747  12.940
12243W        W80637  30.885  29.521   0.928
12244W        W80638  14.518   3.292  11.457
12245W        W80639  32.009  23.408  13.514
12246W        W80640   2.714  39.129   3.788
12247W        W80641  27.325  26.771  11.093
12248W        W80642  24.011  23.495   1.850
12249W        W80643  15.706  19.144  10.436
12250W        W80644  43.268  30.265   0.828
12251W        W80645  24.946  33.539  13.378
12252W        W80646  39.575   1.718  11.939
12253W        W80647  19.762   3.763  13.551
12254W        W80648  29.257  33.405  12.626
12255W        W80649   1.569  14.620   2.405
12256W        W80650   9.354  24.629  12.074
12257W        W80651  13.303   8.356   3.269
12258W        W80652   9.460  23.610   4.993
12259W        W80653  17.611   6.712   3.858
12260W        W80654   0.187  10.479  11.163
12261W        W80655  25.215  14.799  11.229
12262W        W80656  38.556  41.832  14.291
12263W        W80657  13.169  26.632   1.202
12264W        W80658  41.958  24.730  14.407
12265W        W80659   2.669  19.669  12.451
12266W        W80660  30.553  29.088   5.058
12267W        W80661  42.216  10.371  11.177
12268W        W80662   6.813  22.001   3.657
12269W        W80663  38.454   8.639  13.842
12270W        W80664  43.108  40.784   4.105
12271W        W80665   9.155  22.049  11.584
12272W        W80666  41.541  14.574   0.781
12273W        W80667   0.237  41.228  13.464
12274W        W80668  30.634   4.188  14.894
12275W        W80669  36.340  15.660  10.533
12276W        W80670  29.268  36.964   0.273
12277W        W80671   1.224  35.055   1.588
12278W        W80672  18.014  16.147   0.818
12279W        W80673  17.095  36.361   4.285
12280W        W80674  28.523  12.162  14.493
12281W        W80675  25.177   8.402  13.583
12282W        W80676   5.441   1.200   1.785
12283W        W80677  26.483  16.588   2.790
12284W        W80678   3.218  33.607  14.236
12285W        W80679  14.698   5.259  11.121
12286W        W80680  21.279  39.626  13.490
12287W        W80681   6.004  20.164   1.304
12288W        W80682  13.847  30.841  12.122
12289W        W80683  23.167  29.984  12.870
12290W        W80684  36.835  21.271   3.197
12291W        W80685   7.154  40.105  13.520
12292W        W80686  17.628  19.578  12.906
12293W        W80687   6.552  38.142   0.282
12294W        W80688  11.243  41.038   4.787
12295W        W80689  36.926  28.188  13.851
12296W        W80690  29.087  20.490  13.865
12297W        W80691   4.852  13.211  14.070
12298W        W80692  35.630  38.578   0.835
12299W        W80693  19.678  35.328  14.257
12300W        W80694  40.416  29.157  12.584
12301W        W80695   6.370  36.492   2.398
12302W        W80696  29.218  26.394   0.475
12303W        W80697  43.556  33.897  13.938
12304W        W80698   7.737  27.955  11.959
12305W        W80699   9.254  27.665   4.774
12306W        W80700  18.026  26.457   3.328
12307W        W80701  20.177  20.652  10.642
12308W        W80702  30.364  19.766   4.336
12309W        W80703  12.563   4.934  14.879
12310W        W80704   1.818  38.813   1.885
12311W        W80705  39.525  15.892   1.227
12312W        W80706  30.344  40.063   1.806
12313W        W80707   2.449  19.859   3.799
12314W        W80708   7.325   1.465   1.184
12315W        W80709  32.844  28.223   2.586
12316W        W80710  28.101  11.795   0.061
12317W        W80711  30.041  11.383  11.587
12318W        W80712  23.146  26.611   2.874
12319W        W80713  28.905   6.688   2.363
12320W        W80714  29.848  29.659  13.778
12321W        W80715  30.578  43.517  14.413
12322W        W80716   3.806  12.652  13.790
12323W        W80717  37.531  10.674   3.383
12324W        W80718  26.948  32.965  11.402
12325W        W80719  24.892  41.735  14.987
12326W        W80720  41.453  14.637   2.318
12327W        W80721  12.906  34.077   3.117
12328W        W80722  10.627  30.625   5.079
12329W        W80723  19.741  18.131   2.413
12330W        W80724  17.616  35.412  13.949
12331W        W80725  32.906  39.564  10.710
12332W        W80726   3.979  28.115  13.114
12333W        W80727  32.100   7.773   2.945
12334W        W80728  19.296  20.749   4.160
12335W        W80729  24.719  11.829  14.393
12336W        W80730  10.045   2.928  12.534
12337W        W80731   1.025  19.726   3.655
12338W        W80732   6.145  28.410  11.646
12339W        W80733  25.581  12.239  14.317
12340W        W80734  28.248  24.977   3.733
12341W        W80735  10.808  44.458  11.042
12342W        W80736   4.212  28.485  13.402
12343W        W80737   3.771  27.214   0.848
12344W        W80738  44.946  11.092   0.312
12345W        W80739  20.547  20.144   1.024
12346W        W80740  19.930  33.500  11.220
12347W        W80741  43.235  16.148  11.803
12348W        W80742  32.439  16.990  11.052
12349W        W80743  40.608  31.533  11.461
12350W        W80744  10.372  42.856   4.042
12351W        W80745  22.969  36.961   2.739
12352W        W80746  25.509   9.148   3.193
12353W        W80747  25.183   5.855   1.237
12354W        W80748  34.003  34.305   0.101
12355W        W80749  37.962   4.225  13.141
12356W        W80750  36.828  32.358   2.188
12357W        W80751  19.667  26.080  14.278
12358W        W80752   9.050  27.297   0.929
12359W        W80753  40.429   4.090  14.723
12360W        W80754  32.103  32.087   4.944
12361W        W80755  25.326   9.625  12.021
12362W        W80756  33.404  39.885   0.903
12363W        W80757   4.917  16.524   3.669
12364W        W80758   5.990  39.555   1.718
12365W        W80759  10.516  17.983   4.241
12366W        W80760  10.275   7.837   4.648
12367W        W80761  25.083  32.103   1.745
12368W        W80762  34.575  38.322   4.060
12369W        W80763  11.721  23.566   0.193
12370W        W80764  39.894  25.281   3.253
12371W        W80765   9.230  24.590   4.454
12372W        W80766  14.631  27.469  12.681
12373W        W80767  14.821  41.506   2.183
12374W        W80768  21.095   9.192  13.852
12375W        W80769  34.312  37.294   2.516
12376W        W80770  18.261  34.173  13.458
12377W        W80771  11.686  36.806  12.980
12378W        W80772  40.785  26.100   4.624
12379W        W80773   4.231  37.669  14.566
12380W        W80774  22.597  29.544   9.878
12381W        W80775  27.086   4.047   0.306
12382W        W80776   5.257   7.338   0.434
12383W        W80777   1.015   0.229  14.320
12384W        W80778   8.566  17.604   0.925
12385W        W80779  37.563   5.641  10.515
12386W        W80780  18.233  44.538   2.381
12387W        W80781  36.939  13.315  14.395
12388W        W80782  42.498  38.608   4.603
12389W        W80783  40.927  44.329   0.523
12390W        W80784   5.328   0.286  13.794
12391W        W80785  24.998  27.619  14.923
12392W        W80786  25.723   4.998   0.398
12393W        W80787  17.278   5.805  11.184
12394W        W80788   8.218  27.150  11.525
12395W        W80789  27.785  32.565   1.569
12396W        W80790  21.070   2.200   1.842
12397W        W80791  35.538  15.459  13.950
12398W        W80792  38.713  17.815   0.914
12399W        W80793  16.931   8.519  11.978
12400W        W80794   7.342  44.356   0.421
12401W        W80795   7.181  24.494  12.939
12402W        W80796  28.660  22.708  14.080
12403W        W80797  16.090   9.753   0.991
12404W        W80798  29.626   1.499   4.557
12405W        W80799  39.221  12.798   2.655
12406W        W80800  25.583  23.751   4.646
12407W        W80801  19.554  35.842  13.401
12408W        W80802   1.238  21.188   4.370
12409W        W80803  21.657   1.191   3.233
12410W        W80804  10.216   5.267  11.041
12411W        W80805   9.936  18.707  13.442
12412W        W80806  17.166  31.590  10.898
12413W        W80807   8.284   9.154   5.034
12414W        W80808   4.803  34.376  13.419
12415W        W80809   7.520  30.386  11.036
12416W        W80810  15.600   0.973  14.780
12417W        W80811  24.037   0.962   1.964
12418W        W80812  42.777  40.556   1.701
12419W        W80813   7.783  38.584   2.359
12420W        W80814   3.985  22.620  11.781
12421W        W80815  17.074  24.145   2.453
12422W        W80816  42.661  22.175  14.933
12423W        W80817  34.480  31.800  11.230
12424W        W80818  11.579  35.126   1.439
12425W        W80819  30.723  35.757  14.797
12426W        W80820  23.639   2.263  11.087
12427W        W80821  22.501  27.944  11.598
12428W        W80822  33.206  12.974   2.101
12429W        W80823   5.379  32.974   0.381
12430W        W80824  43.906   6.049  13.908
12431W        W80825  15.534   3.004  10.405
12432W        W80826  10.294  34.663  10.339
12433W        W80827  29.617  28.004  13.863
12434W        W80828  17.326  29.455  12.020
12435W        W80829  44.536  22.009   1.261
12436W        W80830  13.233  26.430  14.355
12437W        W80831  10.717  31.609   1.282
12438W        W80832  20.748  17.095  14.321
12439W        W80833  30.484   0.689  13.451
12440W        W80834  16.306   1.308   2.809
12441W        W80835   1.869  43.694  11.205
12442W        W80836   9.309   9.163   1.547
12443W        W80837   0.073  43.013   0.923
12444W        W80838  22.550  36.885   1.926
12445W        W80839  37.408  22.629   4.534
12446W        W80840  10.640  19.086  13.920
12447W        W80841  22.564  26.221  11.060
12448W        W80842  37.477   2.917   2.233
12449W        W80843  39.568  13.189   0.759
12450W        W80844  26.477  12.340   0.710
12451W        W80845   0.986  15.290   4.832
12452W        W80846  44.812  43.279   4.330
12453W        W80847  17.024  21.852   1.411
12454W        W80848  29.974  22.248   1.302
12455W        W80849  13.895   4.484   2.306
12456W        W80850  28.584   2.935   0.690
12457W        W80851  11.089   2.209   3.877
12458W        W80852   4.319  41.419  10.917
12459W        W80853  36.006  39.708   2.176
12460W        W80854  44.307  33.479   0.730
12461W        W80855  22.633  30.896  12.942
12462W        W80856  38.739  32.678   3.137
12463W        W80857  30.028  15.174   1.274
12464W        W80858  14.872   7.340   3.768
12465W        W80859  31.377  34.930   0.876
12466W        W80860  31.335  35.029   4.308
12467W        W80861  32.817  34.033   0.462
12468W        W80862  43.353  29.185   0.327
12469W        W80863  17.112  15.281  13.037
12470W        W80864  21.767  17.254  13.338
12471W        W80865  26.137  12.731  12.969
12472W        W80866  35.378  43.853   4.947
12473W        W80867  41.853  11.874  11.528
12474W        W80868  43.364   4.734  13.637
12475W        W80869   0.209  36.007   4.611
12476W        W80870   4.391   5.958  14.559
12477W        W80871  11.861  30.583   9.869
12478W        W80872   5.904  31.250   2.348
12479W        W80873  14.099  41.831  13.519
12480W        W80874  43.910   3.761   1.613
12481W        W80875  24.582  14.135   4.622
12482W        W80876   8.521  30.999   4.777
12483W        W80877  19.710  39.340   0.754
12484W        W80878  32.666  16.716  11.452
12485W        W80879   9.213  28.945  11.061
12486W        W80880  27.586   6.152  10.333
12487W        W80881  44.985  13.244  14.955
12488W        W80882   1.312  22.178  14.657
12489W        W80883  13.745  26.997  12.636
12490W        W80884  16.160  44.891  14.939
12491W        W80885  42.585  11.517   0.626
12492W        W80886  22.498  10.221   5.045
12493W        W80887  28.726   8.284   1.398
12494W        W80888  21.158  27.673   3.151
12495W        W80889  18.647  13.367  13.380
12496W        W80890  23.660   0.038   4.123
12497W        W80891  34.014  29.380  14.002
12498W        W80892  44.042   5.067  13.981
12499W        W80893  43.296  35.921  10.731
12500W        W80894  29.438  29.904  13.553
12501W        W80895  10.663  25.095   1.440
12502W        W80896  11.859  37.046   3.254
12503W        W80897  22.149  12.975  14.400
12504W        W80898  44.244   8.246  12.486
12505W        W80899  17.846  26.962   3.254
12506W        W80900  34.961  36.125   2.160
12507W        W80901  25.259  18.872   4.242
12508W        W80902  26.218  40.548  12.532
12509W        W80903   0.433   4.419   3.406
12510W        W80904   6.286  10.078   1.750
12511W        W80905  30.675  16.641  10.924
12512W        W80906   6.415   5.443  12.907
12513W        W80907  34.696  42.431   2.842
12514W        W80908   0.096  34.086  14.837
12515W        W80909  25.515   1.265  11.209
12516W        W80910  31.860  17.044   1.792
12517W        W80911  12.520   4.415  14.904
12518W        W80912  32.764  19.150   4.476
12519W        W80913  10.384   9.509  13.744
12520W        W80914  34.146  43.413  14.954
12521W        W80915  17.333  20.186  10.650
12522W        W80916  27.519  18.854  10.669
12523W        W80917  42.326  17.695   3.107
12524W        W80918  33.076  30.701  13.947
12525W        W80919  38.499   4.814   2.758
12526W        W80920  13.216  44.729  13.322
12527W        W80921  13.333   9.894  14.063
12528W        W80922  21.180  15.593   3.023
12529W        W80923  11.660  37.043  14.782
12530W        W80924  29.501  35.990   3.646
12531W        W80925  17.148  25.145  10.274
12532W        W80926  17.313  26.161   3.815
12533W        W80927  20.493   7.453   3.788
12534W        W80928  43.762  10.913   1.682
12535W        W80929  44.879  29.686  12.794
12536W        W80930  18.084   4.329  12.479
12537W        W80931   0.311  35.312  11.778
12538W        W80932  13.212   3.034  12.299
12539W        W80933  28.589   1.711   4.066
12540W        W80934  30.359  17.262  14.008
12541W        W80935  21.704  20.603   1.619
12542W        W80936   4.838  18.298  10.670
12543W        W80937   1.544  17.506  12.941
12544W        W80938   4.159  41.367  12.499
12545W        W80939  11.975  14.597   4.772
12546W        W80940  41.854  32.623   2.092
12547W        W80941  38.863  37.543  13.923
12548W        W80942  27.651  12.198  13.915
12549W        W80943   3.546  36.759   2.658
12550W        W80944  43.782  19.587  13.972
12551W        W80945   8.579  35.370   3.197
12552W        W80946  14.725   3.526   2.759
12553W        W80947  25.157  14.141  14.367
12554W        W80948  35.895  28.926  12.822
12555W        W80949   0.917  19.095   4.906
12556W        W80950  28.806  40.422  11.169
12557W        W80951  38.398  31.008  10.739
12558W        W80952   5.238  15.226  14.448
12559W        W80953  38.890  44.872   0.684
12560W        W80954  28.023  36.165  14.461
12561W        W80955  34.628  23.243  14.998
12562W        W80956  27.027  17.383   3.515
12563W        W80957  21.997  15.715   0.755
12564W        W80958  42.748  17.281   4.183
12565W        W80959  15.112  34.016   2.945
12566W        W80960  43.450  33.894   3.996
12567W        W80961  24.080  31.888   2.294
12568W        W80962   5.718  40.617  11.633
12569W        W80963  20.137  15.727  10.219
12570W        W80964  12.149  23.601   2.678
12571W        W80965  31.897  15.163   0.831
12572W        W80966  34.994  42.255  12.813
12573W        W80967   0.978  41.573  13.827
12574W        W80968   7.180   7.370   1.428
12575W        W80969   4.371  38.103  13.010
12576W        W80970  30.580  37.780   2.190
12577W        W80971  32.121   3.451   0.819
12578W        W80972   0.304  42.994  14.463
12579W        W80973  15.183  26.168   4.436
12580W        W80974  23.177  12.822  14.052
12581W        W80975  44.873   3.970   4.521
12582W        W80976  32.870  23.613   1.832
12583W        W80977   8.873  12.987   4.068
12584W        W80978  36.684   8.184   3.809
12585W        W80979  10.593  19.854   2.361
12586W        W80980  37.362  34.222   0.262
12587W        W80981  13.673  40.852  12.002
12588W        W80982  17.616  12.043   4.807
12589W        W80983  27.466  22.634  14.547
12590W        W80984  39.270   3.215   3.506
12591W        W80985  25.412  28.495   2.185
12592W        W80986   0.462   4.042  14.582
12593W        W80987   7.224  43.850  13.830
12594W        W80988   4.421  32.553   3.511
12595W        W80989  25.669  33.559  11.702
12596W        W80990  32.532  22.664  14.276
12597W        W80991  40.247  22.487  11.600
12598W        W80992  12.037  20.206  11.653
12599W        W80993  23.332  15.625  13.499
12600W        W80994  39.286  33.133   0.834
12601W        W80995  21.499  33.963   3.728
12602W        W80996   3.165  25.499   1.883
12603W        W80997   1.498  44.899  13.173
12604W        W80998  43.498  30.989   3.218
12605W        W80999  34.066   7.116  10.820
12606W        W81000  13.434  44.397   0.710
12607W        W81001  38.331  11.620  13.922
12608W        W81002  31.017  35.206   5.090
12609W        W81003   0.861  43.546  11.959
12610W        W81004  13.159  40.108   3.654
12611W        W81005  32.480   2.523   0.943
12612W        W81006   5.172  39.937  12.503
12613W        W81007   3.258  32.433   0.263
12614W        W81008  14.982  33.982   3.866
12615W        W81009   6.230  12.674  14.093
12616W        W81010  24.083   1.700   1.828
12617W        W81011  29.479  12.379  10.343
12618W        W81012  13.363  29.608  12.065
12619W        W81013  44.766  34.930   4.897
12620W        W81014  26.137  36.368  11.500
12621W        W81015  34.993   0.494   4.024
12622W        W81016  21.702  22.043   4.404
12623W        W81017  33.793  15.638  10.543
12624W        W81018   5.469  10.572   2.757
12625W        W81019  14.250  23.465  11.142
12626W        W81020   6.005  28.835  12.588
12627W        W81021  28.052  40.360  12.401
12628W        W81022   6.766   5.820   1.985
12629W        W81023  14.504  25.287   3.049
12630W        W81024   2.208  16.223  11.578
12631W        W81025  42.334  43.452  13.543
12632W        W81026  41.454   7.260  14.885
12633W        W81027  13.853  36.570   3.595
12634W        W81028   1.909  12.988  12.036
12635W        W81029  12.254  40.076  14.781
12636W        W81030  29.586  29.000  14.884
12637W        W81031   5.837  43.509   4.537
12638W        W81032   9.237   6.181   2.032
12639W        W81033  30.433   0.092   3.661
12640W        W81034  37.123  30.534   3.780
12641W        W81035  36.901  12.932  11.180
12642W        W81036   6.706  27.481   4.093
12643W        W81037   1.663   5.798  12.088
12644W        W81038  19.297   4.014   4.648
12645W        W81039  14.150  28.511  13.588
12646W        W81040  16.053   3.959  13.833
12647W        W81041  12.049   2.956   2.819
12648W        W81042  35.839   8.218  11.822
12649W        W81043   4.908   4.915  14.011
12650W        W81044  29.914  38.632   1.042
12651W        W81045  11.577  43.068  13.003
12652W        W81046  14.181   9.661   4.108
12653W        W81047  34.402   1.863   1.774
12654W        W81048  32.630  36.848   3.275
12655W        W81049  10.809  12.347  11.663
12656W        W81050  37.313  29.153  14.054
12657W        W81051  22.976   8.266   0.290
12658W        W81052   8.419   0.275   4.463
12659W        W81053  13.396  29.154  10.781
12660W        W81054  21.173  42.349   2.278
12661W        W81055  10.772  21.964  11.778
12662W        W81056  16.616  41.734   4.959
12663W        W81057  24.026  27.633   2.323
12664W        W81058  26.703  44.478   3.305
12665W        W81059  24.934  10.925  12.527
12666W        W81060  31.980  10.146   5.018
12667W        W81061  16.162  32.307  11.052
12668W        W81062  24.751  11.262  12.138
12669W        W81063  36.423  25.475  12.300
12670W        W81064  16.848  11.749   1.872
12671W        W81065  44.339  36.130  11.703
12672W        W81066  34.744  37.511   1.761
12673W        W81067  24.883  36.409  13.522
12674W        W81068  20.343  18.318   5.139
12675W        W81069  21.550  16.681   4.850
12676W        W81070   0.371  18.680   2.407
12677W        W81071  11.386  44.847   2.814
12678W        W81072   9.342   1.934   4.503
12679W        W81073  18.140  42.469   0.979
12680W        W81074  42.499  21.162  11.985
12681W        W81075  40.005  24.937   2.869
12682W        W81076   2.910  42.127  11.171
12683W        W81077  10.562  24.208   3.269
12684W        W81078  30.391   6.195  14.962
12685W        W81079  12.343  33.692  14.436
12686W        W81080  14.539   6.357   2.347
12687W        W81081   4.954  30.680  10.753
12688W        W81082  24.961  15.895  13.886
12689W        W81083  34.037  25.513  10.529
12690W        W81084   6.212  23.769  13.587
12691W        W81085  34.183  27.528   1.444
12692W        W81086  16.542  29.035  11.493
12693W        W81087  19.818  25.452  10.729
12694W        W81088   0.802  44.943  10.512
12695W        W81089  32.052  44.182  13.954
12696W        W81090   7.188   5.342   5.170
12697W        W81091  44.354  18.587  11.542
12698W        W81092  38.004  41.281  11.997
12699W        W81093  25.735  14.572   3.157
12700W        W81094  28.619  15.575  12.518
12701W        W81095  40.745  11.686   4.582
12702W        W81096   1.512  12.304   0.008
12703W        W81097  19.564  25.645  11.150
12704W        W81098  15.265  28.485   1.564
12705W        W81099  30.916  11.709   1.384
12706W        W81100  31.062   4.517   1.415
12707W        W81101   5.181  15.188   0.856
12708W        W81102  29.922  11.791   4.567
12709W        W81103  25.159  43.470   4.565
12710W        W81104  27.754  23.560  14.348
12711W        W81105  19.173  37.901   0.798
12712W        W81106  10.675  28.023   2.291
12713W        W81107  34.797  26.975   0.751
12714W        W81108   8.189  24.369   2.282
12715W        W81109   9.140  38.938  10.481
12716W        W81110  38.949  10.696  11.063
12717W        W81111  40.860  43.011   1.396
12718W        W81112  25.770  31.785  13.530
12719W        W81113  15.204   5.923   0.655
12720W        W81114   7.190   0.671   0.796
12721W        W81115   9.657  35.180  14.208
12722W        W81116  26.886  12.728   4.909
12723W        W81117  21.699   7.554   0.951
12724W        W81118   4.466  17.341   4.817
12725W        W81119  19.446  12.612  12.502
12726W        W81120  28.907  14.630  10.965
12727W        W81121  43.781  29.541   4.331
12728W        W81122   5.492  39.371  14.911
12729W        W81123  26.645  23.692  10.757
12730W        W81124  10.487  30.794  13.470
12731W        W81125  16.760  41.397  14.351
12732W        W81126   7.716  39.964   5.293
12733W        W81127  42.306  13.768  14.320
12734W        W81128  19.139  15.645   0.801
12735W        W81129   8.362  18.687  13.943
12736W        W81130   5.382  38.529   2.356
12737W        W81131  12.718  13.711   1.717
12738W        W81132  41.945   7.771  11.569
12739W        W81133  10.344   9.642   1.446
12740W        W81134  21.124   6.363   1.554
12741W        W81135   3.462   9.316   0.263
12742W        W81136  36.001  35.174  13.325
12743W        W81137  24.561   9.160   3.995
12744W        W81138  15.614  24.157   2.839
12745W        W81139  39.629  34.017   1.355
12746W        W81140  31.390  14.155   1.242
12747W        W81141  32.656   1.446   2.587
12748W        W81142  18.493  10.557  14.293
12749W        W81143   4.932  25.497   1.396
12750W        W81144  23.915  34.137   0.385
12751W        W81145   7.681  32.633  13.588
12752W        W81146  21.777  31.010   4.664
12753W        W81147  24.981  15.221   3.926
12754W        W81148  34.073   5.360  12.587
12755W        W81149  13.799  35.799   0.825
12756W        W81150   6.603  22.591   1.375
12757W        W81151  16.655  39.962  14.648
12758W        W81152  40.685  41.386  11.663
12759W        W81153  18.022  17.323   0.217
12760W        W81154   4.271  33.054  10.637
12761W        W81155  34.943  44.406   1.049
12762W        W81156  38.831  33.424   3.645
12763W        W81157   8.369   7.373   2.402
12764W        W81158  21.982  12.462  14.398
12765W        W81159  21.228  14.537   5.086
12766W        W81160   2.830  29.282   1.493
12767W        W81161  14.791   5.470  12.398
12768W        W81162  20.884  42.791   2.640
12769W        W81163  22.682  42.535  13.809
12770W        W81164   3.751   2.341   4.805
12771W        W81165   2.168  14.216  14.514
12772W        W81166   7.949   4.505  12.425
12773W        W81167  12.581   6.152  10.957
12774W        W81168  24.540  11.141   2.898
12775W        W81169   0.603   5.050  14.315
12776W        W81170  22.546  43.727  10.958
12777W        W81171  31.387  29.803   0.297
12778W        W81172  44.591  16.706   0.838
12779W        W81173  10.478  17.386  12.819
12780W        W81174  36.361  27.645   1.888
12781W        W81175  21.785  41.687   2.355
12782W        W81176  12.734  41.549  11.638
12783W        W81177  21.608  41.420   0.068
12784W        W81178  17.360  31.373   2.816
12785W        W81179  22.903  26.571   4.601
12786W        W81180  33.905  11.203   1.445
12787W        W81181  42.490  15.834  11.586
12788W        W81182  37.507  19.789   3.855
12789W        W81183  14.898  36.579  11.389
12790W        W81184  40.857  36.899   3.835
12791W        W81185  23.190   6.436  13.015
12792W        W81186  20.319   6.406   2.851
12793W        W81187  29.566   6.783   0.330
12794W        W81188   5.867  33.556   0.867
12795W        W81189  40.056   8.115  12.590
12796W        W81190   2.892  13.066  12.040
12797W        W81191  16.174  28.756   3.160
12798W        W81192  12.159  14.429   1.388
12799W        W81193   8.893   3.260  12.787
12800W        W81194  23.612  25.759  11.190
12801W        W81195  36.538   4.131  11.614
12802W        W81196  13.713  29.474  11.667
12803W        W81197  32.861  20.783  12.588
12804W        W81198  33.492  26.849  14.560
12805W        W81199  11.220  27.704   1.233
12806W        W81200  19.724  23.945   4.841
12807W        W81201  25.924   4.023   2.432
12808W        W81202   1.704  15.758  13.268
12809W        W81203   8.310  14.213   3.937
12810W        W81204   1.835  33.424  11.600
12811W        W81205  37.536  13.842  14.005
12812W        W81206  23.332  13.728  13.407
12813W        W81207  27.745  38.574  12.246
12814W        W81208  24.556  25.764  11.955
12815W        W81209  20.995  17.725   3.446
12816W        W81210  23.531  42.837   0.634
12817W        W81211  20.548  33.652  12.083
12818W        W81212   0.884  40.573   0.475
12819W        W81213  43.241  34.521   5.403
12820W        W81214   8.168  29.058  11.110
12821W        W81215  42.652  21.003  14.279
12822W        W81216  29.830  22.291  11.155
12823W        W81217   7.282  41.030   1.853
12824W        W81218  29.514  16.335  12.444
12825W        W81219   7.385   1.263  11.986
12826W        W81220  38.609   1.378  10.771
12827W        W81221  14.636   2.559   2.856
12828W        W81222  19.467  20.040  13.080
12829W        W81223  11.937  28.011   4.899
12830W        W81224  29.623   8.822   1.493
12831W        W81225  42.501  11.896   2.746
12832W        W81226   0.793  43.966  12.561
12833W        W81227  38.238  44.502   1.765
12834W        W81228   2.966  20.519  13.054
12835W        W81229  13.268   7.214   0.777
12836W        W81230  23.586   1.013   2.224
12837W        W81231  11.093  43.438   2.768
12838W        W81232  15.763  32.383   2.821
12839W        W81233  28.498  29.247  11.173
12840W        W81234  41.067  39.386   0.804
12841W        W81235   5.457  26.688   0.785
12842W        W81236  34.619  12.359   1.749
12843W        W81237  23.166   1.108   1.662
12844W        W81238   8.477   8.217  14.233
12845W        W81239   8.251  38.883   3.132
12846W        W81240  38.634  10.158   4.071
12847W        W81241  42.071  25.962  13.757
12848W        W81242  33.325  14.802  12.968
12849W        W81243  22.571   8.303   3.593
12850W        W81244  29.661   9.333  11.958
12851W        W81245  33.120   5.983  14.968
12852W        W81246  35.460  42.547   0.964
12853W        W81247  41.851  17.371  13.060
12854W        W81248   0.598  44.901   4.885
12855W        W81249   2.058  19.072  12.187
12856W        W81250   8.885   8.205   4.330
12857W        W81251  27.111  10.134   2.785
12858W        W81252  22.956  25.725   3.430
12859W        W81253   3.492  40.718  11.977
12860W        W81254  11.094  23.523   3.590
12861W        W81255   4.455  18.547  14.125
12862W        W81256  16.230  10.722   4.202
12863W        W81257  38.148  19.574   1.339
12864W        W81258  15.222  21.370   4.065
12865W        W81259  26.182  40.720   1.375
12866W        W81260   2.677  36.329  14.796
12867W        W81261  22.629  43.276   0.966
12868W        W81262  11.268   3.169   2.239
12869W        W81263  10.177   4.136  11.590
12870W        W81264  22.078   7.877   0.418
12871W        W81265  12.630   8.214   5.008
12872W        W81266   5.011  35.433   5.119
12873W        W81267  13.132  10.378   4.313
12874W        W81268   2.294  18.970  14.817
12875W        W81269  32.947  42.500   4.029
12876W        W81270   5.717  17.485   1.892
12877W        W81271  33.583  14.098   0.388
12878W        W81272  35.094  19.516   3.735
12879W        W81273  33.557  28.087   4.349
12880W        W81274  34.155  25.076   3.335
12881W        W81275  38.978  38.828  10.380
12882W        W81276  36.340  18.521   2.426
12883W        W81277  38.762  28.072  13.761
12884W        W81278   5.719  37.019   0.987
12885W        W81279  39.311   7.544   0.002
12886W        W81280  34.633  43.501  13.833
12887W        W81281  19.084   1.756  10.950
12888W        W81282  32.118  24.162  11.593
12889W        W81283  30.512  23.004  12.593
12890W        W81284  20.171  24.044   2.853
12891W        W81285   6.703  38.857  11.596
12892W        W81286  24.189  14.311   3.724
12893W        W81287   2.312  15.830   4.235
12894W        W81288  35.962   6.964   4.148
12895W        W81289  38.931  44.959  11.557
12896W        W81290  33.001  24.493   3.308
12897W        W81291  27.458  36.641   1.428
12898W        W81292   7.173  22.281  11.568
12899W        W81293  31.550  26.266  10.433
12900W        W81294  34.042  35.827  13.549
12901W        W81295  40.660  32.902   1.222
12902W        W81296  29.348  16.248   0.970
12903W        W81297  38.179  16.500   1.698
12904W        W81298  36.960  35.727   4.538
12905W        W81299  24.534  42.237  13.008
12906W        W81300  10.924  34.952  12.842
12907W        W81301  17.221  23.993  13.355
12908W        W81302  39.303   5.242  13.449
12909W        W81303   6.751  21.089  10.971
12910W        W81304  14.593  37.944   9.799
12911W        W81305  30.589  15.280  13.025
12912W        W81306  13.744  44.809   2.973
12913W        W81307  36.871  12.856   0.284
12914W        W81308  12.028  40.089  10.312
12915W        W81309  27.572   9.664  10.522
12916W        W81310  40.974  19.676  12.635
12917W        W81311  32.445  41.963   2.832
12918W        W81312   0.252   6.802   1.369
12919W        W81313   9.426  34.947  13.350
12920W        W81314  25.142  30.405  10.590
12921W        W81315   7.347   0.400  11.222
12922W        W81316  33.884  32.217  10.038
12923W        W81317  18.700   8.598   0.783
12924W        W81318  43.965  37.219   2.232
12925W        W81319  24.959  28.636  12.540
12926W        W81320   6.335  40.106  14.489
12927W        W81321  13.061  30.484  11.079
12928W        W81322  38.818  32.442  14.464
12929W        W81323  26.762  19.064   4.290
12930W        W81324   0.381  17.431  13.852
12931W        W81325   3.684  11.735  10.987
12932W        W81326  25.972  13.711  14.318
12933W        W81327  13.229  23.992   1.730
12934W        W81328   0.727  33.614   4.691
12935W        W81329  29.400  24.508  12.957
12936W        W81330  22.033   9.578   2.612
12937W        W81331  10.800  26.629   0.826
12938W        W81332   1.607  29.266  10.754
12939W        W81333  17.392  13.582  14.963
12940W        W81334  27.238  28.425  13.081
12941W        W81335   6.412  41.009   4.651
12942W        W81336   3.937  13.390  13.594
12943W        W81337  19.259  31.973  14.001
12944W        W81338   5.954  31.405  14.352
12945W        W81339  13.265  33.087  10.793
12946W        W81340   0.822  38.346   1.932
12947W        W81341   3.897  27.496   4.866
12948W        W81342  16.263   4.668  13.583
12949W        W81343  12.632   8.754   2.750
12950W        W81344  34.304  42.498  10.594
12951W        W81345   8.942  35.948   0.808
12952W        W81346  14.040  11.851   4.528
12953W        W81347  18.821  40.803  12.892
12954W        W81348  37.497  43.039   0.963
12955W        W81349  36.366  31.329   4.159
12956W        W81350   1.312  13.342   0.820
12957W        W81351  12.372  11.393  13.915
12958W        W81352  23.429  13.376   4.406
12959W        W81353   2.061  22.139   1.949
12960W        W81354   2.968  38.513  11.482
12961W        W81355   0.872   3.240   3.681
12962W        W81356   9.617  14.834   0.811
12963W        W81357  26.683  20.816  13.031
12964W        W81358  22.797   8.693  11.047
12965W        W81359  23.134   0.241  14.595
12966W        W81360   6.624  18.578  13.310
12967W        W81361  26.629  39.105   0.276
12968W        W81362  21.179  31.949  13.026
12969W        W81363  26.863   2.759  13.470
12970W        W81364  33.708   4.145  14.209
12971W        W81365  33.687  36.014   0.397
12972W        W81366  18.508   2.391  11.666
12973W        W81367  36.876  31.403   0.938
12974W        W81368  23.971  40.372  11.134
12975W        W81369  33.061  38.862   2.748
12976W        W81370   7.725   1.810   1.927
12977W        W81371  42.800   0.787   4.651
12978W        W81372  22.190  26.066  11.368
12979W        W81373  34.852   0.814   2.316
12980W        W81374  22.682  24.827   0.005
12981W        W81375  28.592   1.803  13.357
12982W        W81376  33.019   1.835   2.369
12983W        W81377  16.690  19.539   4.666
12984W        W81378   6.708  32.473   4.118
12985W        W81379   0.338  26.600  13.920
12986W        W81380  42.051  39.409  13.552
12987W        W81381  20.920  11.052   4.291
12988W        W81382   0.439  21.904   0.916
12989W        W81383  12.683  18.706   1.048
12990W        W81384  18.605   1.943  11.132
12991W        W81385  26.070   2.176  12.088
12992W        W81386  22.583   2.639   1.762
12993W        W81387  40.600  12.383  13.844
12994W        W81388  41.798  28.875   1.740
12995W        W81389  18.837  20.147   3.585
12996W        W81390  42.260  23.093   3.923
12997W        W81391  24.070   7.547   3.086
12998W        W81392   5.907   3.667   0.385
12999W        W81393   7.892  21.197   2.376
13000W        W81394   7.259  36.921  14.092
13001W        W81395  18.283  19.670   4.592
13002W        W81396  25.641  13.622   4.375
13003W        W81397  28.848  23.169   0.677
13004W        W81398  41.034  36.639  12.905
13005W        W81399  11.270  35.114   0.989
13006W        W81400   5.464  42.571  14.295
13007W        W81401   3.868   0.726   4.575
13008W        W81402  13.532  10.792   1.356
13009W        W81403  32.390  35.833   3.248
13010W        W81404  28.669  17.690   1.344
13011W        W81405  26.628  37.393  13.633
13012W        W81406  12.172  32.517   2.346
13013W        W81407  18.227  39.479  11.307
13014W        W81408  30.004   2.455  12.996
13015W        W81409  24.064   5.843   4.215
13016W        W81410   3.370  37.525  13.301
13017W        W81411  38.251   9.657   2.261
13018W        W81412  41.807  32.610   2.621
13019W        W81413  39.999  12.743  11.089
13020W        W81414   6.058  41.223   1.777
13021W        W81415  24.636   4.792   3.698
13022W        W81416  28.202  27.648   0.847
13023W        W81417  41.452  17.349   4.532
13024W        W81418  22.005  38.865   2.191
13025W        W81419  30.219  11.176   4.811
13026W        W81420  25.509  27.538  10.460
13027W        W81421  44.061  13.160  11.604
13028W        W81422  30.143   4.166  14.462
13029W        W81423  18.804  19.779  13.821
13030W        W81424  14.074  41.620  11.464
13031W        W81425  24.564  36.681  14.396
13032W        W81426  33.742  15.108   0.216
13033W        W81427   2.921  13.888   4.365
13034W        W81428  12.280  23.027  11.570
13035W        W81429  21.501  44.468  13.818
13036W        W81430  22.792   5.259   2.306
13037W        W81431   1.371  40.880  12.155
13038W        W81432  27.883   4.828  14.680
13039W        W81433  42.354  10.451   1.756
13040W        W81434  44.210  26.391   5.074
13041W        W81435   9.242  26.134  13.590
13042W        W81436  39.319  35.504  14.426
13043W        W81437  34.389  36.787   3.207
13044W        W81438  42.718  14.844  12.151
13045W        W81439  43.709  32.997   3.708
13046W        W81440  21.748  38.084   3.763
13047W        W81441   8.264  28.067   3.796
13048W        W81442  44.455  33.926   3.591
13049W        W81443   1.889  12.552  11.061
13050W        W81444   2.123   6.466  12.447
13051W        W81445  25.655   2.235   1.382
13052W        W81446  28.106  41.944   0.662
13053W        W81447  11.946  33.981   2.209
13054W        W81448  11.890  44.819   2.634
13055W        W81449   6.080  35.991   0.505
13056W        W81450  30.935  20.336  11.471
13057W        W81451  42.459  28.303   2.845
13058W        W81452   3.267   1.966   2.271
13059W        W81453   8.227  38.125  12.041
13060W        W81454  13.214   6.338   0.215
13061W        W81455  33.051  29.463   3.142
13062W        W81456   8.702   6.947   3.672
13063W        W81457  35.997   0.940  13.444
13064W        W81458  10.944  12.407   2.834
13065W        W81459   2.903  33.950   4.732
13066W        W81460  42.280  31.325  14.844
13067W        W81461  29.066  34.959  10.990
13068W        W81462  21.125  19.305  11.106
13069W        W81463  10.793  42.998   2.762
13070W        W81464  22.174  42.403  11.550
13071W        W81465  34.537  29.914   4.226
13072W        W81466  43.942  43.515   0.075
13073W        W81467  12.165  41.689  11.088
13074W        W81468  27.804   7.756  12.428
13075W        W81469  33.611  38.271  13.356
13076W        W81470   5.851  29.731  13.977
13077W        W81471  21.137  14.923  13.459
13078W        W81472  41.048   2.967   2.274
13079W        W81473  37.300  20.761   4.085
13080W        W81474   0.337  16.180  13.258
13081W        W81475  24.953  41.837  11.075
13082W        W81476   4.914  13.238   2.159
13083W        W81477  36.091  36.443   0.782
13084W        W81478  42.230  17.211   3.274
13085W        W81479   8.134  34.282   2.702
13086W        W81480  36.839  17.079   3.156
13087W        W81481  26.159   3.023   2.172
13088W        W81482  24.260   2.295   3.477
13089W        W81483  26.154  15.360  12.333
13090W        W81484  42.940  39.245  11.559
13091W        W81485  17.114  40.947   0.942
13092W        W81486  15.326  40.244   4.086
13093W        W81487  35.492  30.264   2.150
13094W        W81488  15.639   2.364  14.893
13095W        W81489  18.805  43.576  14.845
13096W        W81490  22.934  30.103  10.196
13097W        W81491   2.254  12.919  13.327
13098W        W81492  31.599   3.200  14.263
13099W        W81493  35.865  30.588   4.435
13100W        W81494  27.145  27.664  12.074
13101W        W81495   3.290  31.030  13.846
13102W        W81496  27.135  40.911   4.218
13103W        W81497   9.610   8.416  11.444
13104W        W81498   2.496  29.616  10.653
13105W        W81499  14.203  35.903   1.307
13106W        W81500  10.006  39.223   1.205
13107W        W81501  21.223  29.686   1.747
13108W        W81502  14.853  18.263  11.930
13109W        W81503  27.169   4.216   1.338
13110W        W81504  22.497   0.792   2.405
13111W        W81505  21.958  31.922  14.438
13112W        W81506  13.962  24.891  11.238
13113W        W81507  22.519  15.775   3.507
13114W        W81508  33.076  14.170   1.449
13115W        W81509  12.829   5.141   4.565
13116W        W81510  21.581  24.267  14.941
13117W        W81511  23.929  23.741  14.533
13118W        W81512  19.777   0.779   3.195
13119W        W81513  28.901  28.189  10.594
13120W        W81514  27.016  41.321   1.265
13121W        W81515  34.405  35.113  14.933
13122W        W81516  42.032   9.062   3.288
13123W        W81517   7.698  43.288   0.995
13124W        W81518  29.398  31.329   2.160
13125W        W81519   2.467  25.595  11.144
13126W        W81520  42.341  41.764   1.795
13127W        W81521  17.568  19.578  10.681
13128W        W81522  27.658  11.670   4.791
13129W        W81523  22.537  16.455   2.279
13130W        W81524  16.531  33.137  12.300
13131W        W81525   2.727   4.150  13.243
13132W        W81526  30.424  32.607  13.011
13133W        W81527  24.982  38.478   2.858
13134W        W81528  44.952  34.197   4.268
13135W        W81529  25.629  25.141  14.808
13136W        W81530  30.905  15.699  13.920
13137W        W81531  30.138  37.985  12.979
13138W        W81532  10.682  27.000  11.995
13139W        W81533  19.593  44.467  14.978
13140W        W81534  22.773  20.491  11.907
13141W        W81535  21.748  12.990   1.194
13142W        W81536  29.030   1.816   3.843
13143W        W81537  17.460  41.322   0.902
13144W        W81538  43.299   7.448  13.859
13145W        W81539  22.344  23.108  13.971
13146W        W81540  16.581  30.951  11.529
13147W        W81541  35.268   9.642  11.833
13148W        W81542   8.750  22.218   0.040
13149W        W81543  10.140  15.307   0.298
13150W        W81544  36.467  40.256   0.825
13151W        W81545  39.362  29.169   3.809
13152W        W81546  42.386  21.245   3.888
13153W        W81547  23.988  30.126  11.482
13154W        W81548  32.619   8.760   2.264
13155W        W81549  15.141   2.279   0.019
13156W        W81550  34.340  42.903  14.833
13157W        W81551  10.034  18.140   4.288
13158W        W81552  16.558  34.173   0.492
13159W        W81553  30.979   7.555   2.673
13160W        W81554   6.907   4.947   0.745
13161W        W81555   7.630  21.120   2.828
13162W        W81556  34.041   8.940   3.318
13163W        W81557  37.963   7.605   0.045
13164W        W81558  16.779  31.988  13.797
13165W        W81559  16.722  31.926  11.434
13166W        W81560   9.883  10.216  11.443
13167W        W81561  20.497  35.492   3.729
13168W        W81562   8.275  12.100   0.015
13169W        W81563   8.852  43.287   1.632
13170W        W81564  13.319  21.231  11.221
13171W        W81565  37.482  27.243   4.363
13172W        W81566   3.659  13.128   3.430
13173W        W81567  25.008  23.398  10.921
13174W        W81568  34.149  16.116  11.696
13175W        W81569   6.577  21.249   2.289
13176W        W81570   7.285   5.398   2.635
13177W        W81571   0.605   9.217   0.263
13178W        W81572  39.991  32.027   0.731
13179W        W81573   7.875  31.374  13.757
13180W        W81574  37.471   5.412  14.955
13181W        W81575  41.762  18.023  10.976
13182W        W81576   8.125  41.597  13.011
13183W        W81577  36.910  10.104   2.904
13184W        W81578  35.329  19.012  14.414
13185W        W81579  27.181  33.390  11.186
13186W        W81580  17.680  18.112   0.387
13187W        W81581  33.509   5.875   2.695
13188W        W81582  29.948   6.849   5.044
13189W        W81583  40.645  39.071   0.884
13190W        W81584  33.483  26.946  11.557
13191W        W81585  26.198   6.714  11.097
13192W        W81586  43.023  34.083  14.793
13193W        W81587   2.394  25.315  11.579
13194W        W81588  34.095  21.690  12.087
13195W        W81589   1.322   5.242  12.852
13196W        W81590  34.766   2.482   0.278
13197W        W81591   8.494   9.258  14.310
13198W        W81592  25.607  24.252   0.428
13199W        W81593  15.784  35.163   3.522
13200W        W81594  22.253   3.931   0.672
13201W        W81595   2.651  22.540   2.407
13202W        W81596   4.853  31.713   0.384
13203W        W81597   9.592  16.220   0.832
13204W        W81598  15.292  36.385   0.900
13205W        W81599   1.081  44.964  13.489
13206W        W81600  27.143  26.136  13.248
13207W        W81601  38.321  26.391  11.724
13208W        W81602  20.632  30.015   4.338
13209W        W81603  28.636   9.936   3.160
13210W        W81604  33.416  33.524   1.519
13211W        W81605  38.323  15.875  14.265
13212W        W81606  34.658  25.306  11.138
13213W        W81607   0.422   2.996  13.006
13214W        W81608  10.340  12.522  11.553
13215W        W81609  40.440  23.393  10.009
13216W        W81610  34.977   2.028   0.005
13217W        W81611   0.681  20.310   2.944
13218W        W81612  20.486  35.286   4.194
13219W        W81613   0.672  34.063  13.068
13220W        W81614  34.329   8.329   4.088
13221W        W81615  14.230  38.353   0.268
13222W        W81616  20.242  16.816   2.674
13223W        W81617  43.453  23.168   2.430
13224W        W81618  41.863  25.298   4.668
13225W        W81619  17.029  20.585   3.429
13226W        W81620  10.325   0.431  10.432
13227W        W81621  16.535  10.975   1.415
13228W        W81622  26.565  33.621   1.913
13229W        W81623  42.332  13.519   2.169
13230W        W81624  20.633  27.478  11.955
13231W        W81625  27.889  10.950  10.409
13232W        W81626  25.698  38.408  13.390
13233W        W81627  23.607  36.222   3.833
13234W        W81628  26.959  37.700  12.921
13235W        W81629  29.012   2.910  14.531
13236W        W81630   7.921  10.639  11.033
13237W        W81631  38.832  43.307  11.645
13238W        W81632  43.321  27.206   4.629
13239W        W81633  28.384  13.703  13.410
13240W        W81634  11.576  44.992   0.497
13241W        W81635   6.708   3.800  13.288
13242W        W81636  34.340  26.080   3.773
13243W        W81637   8.172  33.915   0.466
13244W        W81638  21.166  10.600   4.283
13245W        W81639  24.194   8.491  11.084
13246W        W81640   5.443  19.820   2.038
13247W        W81641  39.012  39.750  10.731
13248W        W81642  40.444  18.517  11.153
13249W        W81643  17.854  44.875  12.517
13250W        W81644  29.326  20.164   1.311
13251W        W81645  11.355   0.688  11.024
13252W        W81646  30.493  32.773   4.043
13253W        W81647  34.908  41.001   1.466
13254W        W81648  14.074  15.934   0.430
13255W        W81649   2.537   5.395  13.421
13256W        W81650  40.892  38.891   1.853
13257W        W81651  27.730  11.216   0.246
13258W        W81652   7.905   7.730   3.847
13259W        W81653   8.736  27.628   4.707
13260W        W81654  41.239   5.334   2.194
13261W        W81655   4.364  25.534   4.690
13262W        W81656   4.742  17.521   2.782
13263W        W81657  13.833  25.524   4.207
13264W        W81658  12.918  13.379  10.814
13265W        W81659  27.309  31.174  12.435
13266W        W81660  37.824   7.737  14.558
13267W        W81661  37.702  12.621  14.733
13268W        W81662  38.461   2.003  10.576
13269W        W81663  36.416  13.226   2.798
13270W        W81664  19.278  31.556  13.020
13271W        W81665   0.433  26.115  11.746
13272W        W81666  11.741  19.111   0.460
13273W        W81667  30.093  40.517  10.753
13274W        W81668  41.342  17.532  11.202
13275W        W81669   6.415  26.570   2.208
13276W        W81670  17.699  10.507   2.222
13277W        W81671  35.295  35.260   2.115
13278W        W81672  20.810  29.636   3.324
13279W        W81673  36.430  18.714   1.942
13280W        W81674   0.472  23.591   4.148
13281W        W81675  27.164  30.604  13.759
13282W        W81676  11.384  28.992  10.562
13283W        W81677  42.037  24.509  10.772
13284W        W81678  12.282   9.570   2.318
13285W        W81679   0.965  20.805   0.292
13286W        W81680  10.978  29.048   3.627
13287W        W81681  27.789  13.949  11.550
13288W        W81682  37.085  11.076   0.940
13289W        W81683  10.144  17.615   4.243
13290W        W81684  30.730   3.795   1.984
13291W        W81685  37.695  19.227   1.407
13292W        W81686  25.169  20.979  12.887
13293W        W81687  31.130  10.611   4.124
13294W        W81688   7.619   1.716  12.945
13295W        W81689  31.946  44.084   3.700
13296W        W81690  24.669  23.717   1.945
13297W        W81691  30.236   1.281   2.387
13298W        W81692  36.419  33.834   0.898
13299W        W81693  20.696   5.928   4.261
13300W        W81694   6.482  38.110   3.883
13301W        W81695  10.541  26.754   0.315
13302W        W81696  20.811  19.189  14.343
13303W        W81697  10.515  15.667  10.535
13304W        W81698  24.665  13.339  13.415
13305W        W81699  37.490  15.070  13.504
13306W        W81700   2.551  15.128  12.417
13307W        W81701  14.675   3.362  12.397
13308W        W81702  23.529   7.642  10.949
13309W        W81703  39.037  33.867   0.030
13310W        W81704  28.101  23.311  13.613
13311W        W81705  37.916  35.834  11.115
13312W        W81706  35.041  12.375   2.429
13313W        W81707  28.758  13.122  10.475
13314W        W81708   0.563  36.063   3.620
13315W        W81709   9.382  33.973   1.753
13316W        W81710  34.931   6.919   1.121
13317W        W81711  31.641  35.631   4.965
13318W        W81712   0.016   1.925   4.803
13319W        W81713  24.288   8.802   1.279
13320W        W81714  42.995  24.705  13.421
13321W        W81715  24.754  43.174  11.188
13322W        W81716   8.970   4.710   4.092
13323W        W81717  34.918  11.121   0.550
13324W        W81718  21.616  10.257  13.679
13325W        W81719  26.195  21.079  13.088
13326W        W81720  27.141   1.986  10.557
13327W        W81721  25.631   1.505   0.921
13328W        W81722  38.461  21.866   2.976
13329W        W81723  33.610  35.966  14.302
13330W        W81724  12.518   5.213   3.724
13331W        W81725  44.348  44.989   0.524
13332W        W81726   6.734  17.193  10.779
13333W        W81727  24.772   3.289   2.718
13334W        W81728  19.059   9.168   3.672
13335W        W81729  44.295  28.437   0.803
13336W        W81730  33.951  14.857  14.396
13337W        W81731  29.132   3.489  12.899
13338W        W81732  15.834  18.695   2.912
13339W        W81733  21.957   1.919   1.857
13340W        W81734  13.803  24.233   2.521
13341W        W81735  22.871  43.848  12.998
13342W        W81736  20.056  40.049   2.598
13343W        W81737  34.387  14.830  13.936
13344W        W81738  38.527  26.446  14.914
13345W        W81739  17.029  26.111   1.899
13346W        W81740  16.678   8.257  14.253
13347W        W81741  38.845  43.385  13.147
13348W        W81742  39.960  38.833   4.957
13349W        W81743  27.930  15.268   2.334
13350W        W81744   4.013  25.694  12.431
13351W        W81745  29.720   6.015  11.364
13352W        W81746  13.648   3.855  13.333
13353W        W81747  17.928   0.368   4.649
13354W        W81748   7.428  12.094   0.804
13355W        W81749  20.923  12.530  10.504
13356W        W81750  29.592  25.773  12.345
13357W        W81751  20.662   2.211  11.585
13358W        W81752   5.016  21.828   3.581
13359W        W81753  42.017  11.785  14.020
13360W        W81754  39.601  25.170   2.131
13361W        W81755  25.606   6.222   2.368
13362W        W81756  28.062  29.482   1.751
13363W        W81757  41.367  29.740  12.959
13364W        W81758  13.816  33.067   3.875
13365W        W81759   3.361   7.841   3.036
13366W        W81760  42.866  27.913   4.703
13367W        W81761   9.075  15.009   0.337
13368W        W81762  41.987  31.800   0.744
13369W        W81763  28.129  29.890   3.160
13370W        W81764   3.372  39.355   1.366
13371W        W81765  30.145  17.057   0.929
13372W        W81766  34.595  35.854  14.373
13373W        W81767  31.112  34.425   0.723
13374W        W81768  23.178  43.910  14.335
13375W        W81769   5.278  19.364  12.063
13376W        W81770  37.988   7.871  12.563
13377W        W81771  14.284  35.811  13.559
13378W        W81772  21.225  14.056  11.576
13379W        W81773  30.164   6.208  13.220
13380W        W81774  28.573   7.160  13.524
13381W        W81775  32.913   2.564  13.335
13382W        W81776   4.883  25.686   3.674
13383W        W81777   4.674  20.785  10.851
13384W        W81778  23.709   7.788  11.399
13385W        W81779  27.927  14.798  13.846
13386W        W81780  37.409  14.200   3.332
13387W        W81781  22.747   8.661  14.316
13388W        W81782  11.174  31.158   0.793
13389W        W81783  11.648  34.758   2.749
13390W        W81784  12.855  28.935  11.552
13391W        W81785  31.043  27.477   4.719
13392W        W81786  42.858   7.888   1.880
13393W        W81787  14.519  27.607   2.587
13394W        W81788  10.837  11.525   1.393
13395W        W81789  30.573  39.099   2.919
13396W        W81790   5.696  22.827  10.889
13397W        W81791  40.873  23.017   4.643
13398W        W81792  24.552  42.199   0.772
13399W        W81793  35.121   0.298   0.774
13400W        W81794  26.820  17.358  13.366
13401W        W81795  40.562   1.737  14.775
13402W        W81796   7.263  33.357  14.366
13403W        W81797  33.374  24.228  12.103
13404W        W81798  26.031  29.678   0.769
13405W        W81799  18.487  11.863  11.083
13406W        W81800  36.161  40.519  14.014
13407W        W81801  37.510  32.796  12.458
13408W        W81802  28.448   4.286  10.895
13409W        W81803  37.730  19.595   3.221
13410W        W81804  27.511  18.224   2.007
13411W        W81805  13.091  22.731   3.410
13412W        W81806  31.210  23.147  13.085
13413W        W81807   1.316  15.167  10.629
13414W        W81808   0.726  20.708  10.475
13415W        W81809   0.342  24.240   1.642
13416W        W81810  15.036  37.628   0.413
13417W        W81811   2.887  42.813  13.442
13418W        W81812  37.219  25.552  12.552
13419W        W81813   5.839  34.640  10.702
13420W        W81814  34.638   2.837  14.057
13421W        W81815  32.423  18.165  12.517
13422W        W81816  40.455  23.039   1.497
13423W        W81817  23.210  22.800  12.080
13424W        W81818  16.699  17.505   2.738
13425W        W81819   9.063  22.544   3.569
13426W        W81820   7.844   4.584   0.453
13427W        W81821  42.207  20.993  11.572
13428W        W81822  10.358  15.844  12.057
13429W        W81823   5.721  16.385   3.281
13430W        W81824  34.891  18.968  14.027
13431W        W81825  10.240  43.457   4.706
13432W        W81826  13.898  43.979   0.320
13433W        W81827  24.719  43.231  13.956
13434W        W81828  25.033  37.212  12.028
13435W        W81829   9.301  17.137   4.608
13436W        W81830  28.294   1.456  10.372
13437W        W81831  35.989  17.604   3.883
13438W        W81832  41.192  14.956  12.120
13439W        W81833  27.507   3.805  13.044
13440W        W81834   9.054  35.204   0.265
13441W        W81835  12.915  31.668  14.387
13442W        W81836  34.824  30.637   4.556
13443W        W81837  30.912  12.212   3.200
13444W        W81838  25.668  36.078  12.886
13445W        W81839  10.203  25.070  14.109
13446W        W81840  23.911  13.092  11.360
13447W        W81841  30.438  37.970   3.331
13448W        W81842  31.984  38.553  11.871
13449W        W81843  32.145  38.733   2.149
13450W        W81844   9.465   6.965  13.127
13451W        W81845  23.554  30.992   4.231
13452W        W81846  38.422  13.734  12.151
13453W        W81847  20.615  16.281   9.844
13454W        W81848  30.712  14.173  10.839
13455W        W81849  10.468  29.550   1.641
13456W        W81850  37.202  11.531   1.179
13457W        W81851  13.578  40.801  13.065
13458W        W81852  40.986  11.580   3.651
13459W        W81853  16.710  22.437   5.118
13460W        W81854   6.046   8.400   1.688
13461W        W81855  42.786  42.878   3.133
13462W        W81856  32.917  42.800  10.634
13463W        W81857   2.286   7.460   3.853
13464W        W81858  32.106  33.160   4.088
13465W        W81859  17.218  18.792   4.916
13466W        W81860   3.950  26.233   5.430
13467W        W81861  43.388  20.623   1.146
13468W        W81862  32.353  42.473   3.403
13469W        W81863  15.346  18.056   5.076
13470W        W81864  10.430  31.962   3.750
13471W        W81865  38.102  19.020   4.119
13472W        W81866  39.516  30.092   3.683
13473W        W81867  39.345   2.344   4.568
13474W        W81868  12.395   3.827  13.894
13475W        W81869  28.010  14.570  14.333
13476W        W81870  41.393  18.918   3.242
13477W        W81871   7.697  25.711  11.547
13478W        W81872  11.178  28.544  10.692
13479W        W81873   5.884  35.588   1.285
13480W        W81874  27.364   5.942  12.476
13481W        W81875  25.222  16.356  13.804
13482W        W81876  37.590   1.812   1.377
13483W        W81877  29.462  19.183  12.858
13484W        W81878  32.974  19.465   2.113
13485W        W81879   9.105  20.503   4.118
13486W        W81880  19.145  38.499   2.347
13487W        W81881  10.664  19.495  14.807
13488W        W81882  12.239   1.918   4.091
13489W        W81883  11.361   6.838   0.381
13490W        W81884  40.608  43.442   1.261
13491W        W81885   2.319  25.516   2.413
13492W        W81886  25.727  30.498  11.693
13493W        W81887  11.129  32.368   3.083
13494W        W81888  20.093  22.060  11.702
13495W        W81889  12.338  36.732  14.957
13496W        W81890  34.600  15.703  11.006
13497W        W81891  19.146  42.938  11.922
13498W        W81892  25.851  32.278   0.181
13499W        W81893  28.085  32.650  11.971
13500W        W81894  18.836   2.359   4.350
13501W        W81895  41.483  11.598   0.089
13502W        W81896  20.523  21.098  13.784
13503W        W81897  12.381  14.090  11.536
13504W        W81898   4.700  39.422   0.472
13505W        W81899  41.269  42.408  11.682
13506W        W81900  24.137  18.152   4.584
13507W        W81901  38.311  42.105  14.797
13508W        W81902   7.696  36.529  12.072
13509W        W81903  40.977  37.565  12.984
13510W        W81904  40.380  11.401   1.372
13511W        W81905  16.740   2.756   4.541
13512W        W81906  26.662  19.545  13.382
13513W        W81907  40.384  11.926   1.396
13514W        W81908   2.555  32.585  13.570
13515W        W81909  27.230  38.529  12.382
13516W        W81910  38.345  25.034  11.862
13517W        W81911  39.578  20.325   4.022
13518W        W81912  32.435  14.672  11.846
13519W        W81913  39.229  27.183  14.634
13520W        W81914  17.118  39.722  11.657
13521W        W81915  22.605   0.399   1.273
13522W        W81916  28.881   8.471  13.940
13523W        W81917  38.201   4.677  12.603
13524W        W81918   1.993  14.702  10.594
13525W        W81919  38.423   3.341  14.695
13526W        W81920  23.607  25.706   0.326
13527W        W81921  28.017   8.091  12.847
13528W        W81922  24.230  13.089  13.560
13529W        W81923   7.880  44.932   0.888
13530W        W81924  17.060  38.500  13.511
13531W        W81925  34.458  11.870   1.658
13532W        W81926  36.848   7.319   3.746
13533W        W81927   2.099  22.364  13.038
13534W        W81928   7.429  41.736   3.141
13535W        W81929  33.949  10.325  13.512
13536W        W81930  32.956   2.910  12.914
13537W        W81931  33.503  23.737   4.196
13538W        W81932   8.488   0.465  13.055
13539W        W81933   9.141   6.305  13.001
13540W        W81934  44.514   7.176   0.015
13541W        W81935   8.923  33.077   0.829
13542W        W81936  36.599  15.560  12.401
13543W        W81937  44.554  36.171  10.192
13544W        W81938   0.801  25.083  13.521
13545W        W81939   6.388   1.259   2.015
13546W        W81940  30.682  33.451  11.185
13547W        W81941  23.995  39.375  13.054
13548W        W81942  30.225  20.068   0.347
13549W        W81943  21.362  15.374  13.398
13550W        W81944   1.724  15.505  12.160
13551W        W81945  41.654   3.839   1.511
13552W        W81946  22.731  33.471  11.625
13553W        W81947  39.472  23.468  13.110
13554W        W81948  13.154   2.386  12.848
13555W        W81949  13.633  25.258   2.271
13556W        W81950  27.497  41.258  13.390
13557W        W81951  22.144  44.767   0.349
13558W        W81952  29.484  26.648  12.019
13559W        W81953   1.787  18.516  10.537
13560W        W81954  35.389  29.445  13.423
13561W        W81955   2.583  44.287  11.548
13562W        W81956  17.971  37.608  14.007
13563W        W81957  14.220  34.183  11.656
13564W        W81958  37.448  27.155   1.693
13565W        W81959  42.586  32.975  14.064
13566W        W81960  37.640  41.774   4.527
13567W        W81961   1.955   8.450  14.928
13568W        W81962  38.548  22.199  12.988
13569W        W81963  36.921  27.493  12.476
13570W        W81964  15.207   3.542  13.561
13571W        W81965   3.995  20.020  14.924
13572W        W81966   7.133  15.133  11.504
13573W        W81967   4.034  20.177  11.168
13574W        W81968  37.015  33.598  14.762
13575W        W81969  39.462  27.008   2.735
13576W        W81970  35.595  27.585  12.684
13577W        W81971  43.259  21.592  12.086
13578W        W81972  36.869  35.045   3.319
13579W        W81973  30.133  20.013   3.848
13580W        W81974  31.374   6.278   1.375
13581W        W81975  36.662  30.300   3.927
13582W        W81976   3.859  30.529   5.268
13583W        W81977   5.905  10.436  14.421
13584W        W81978  14.853  18.407   0.743
13585W        W81979  41.307  23.679   0.731
13586W        W81980  34.576  18.533   1.325
13587W        W81981  39.747  20.051  10.836
13588W        W81982  42.059  25.151   4.209
13589W        W81983  44.973  37.912   1.972
13590W        W81984  21.056  25.012   4.486
13591W        W81985  38.407   5.780   2.902
13592W        W81986   5.511   3.943  12.955
13593W        W81987  20.753  11.709   0.357
13594W        W81988  32.083  37.925  11.726
13595W        W81989  34.611  10.267   4.060
13596W        W81990  22.960  25.101   4.188
13597W        W81991   0.250  26.825  10.402
13598W        W81992  11.415  12.982   3.519
13599W        W81993  22.312  13.608  10.127
13600W        W81994  20.449  39.411   1.826
13601W        W81995   2.358   2.657  13.815
13602W        W81996  44.909  24.660   1.235
13603W        W81997  30.701  30.581   0.304
13604W        W81998   5.567  11.214   1.897
13605W        W81999  19.832  24.427   2.840
13606W        W82000  16.719   6.494  11.343
13607W        W82001   6.850   4.953  14.878
13608W        W82002  22.688  22.716  13.970
13609W        W82003  33.491  41.349   0.725
13610W        W82004  17.644  25.210  12.334
13611W        W82005   4.437  35.789   0.712
13612W        W82006  17.466  23.965   5.161
13613W        W82007  11.701   0.793  11.985
13614W        W82008   4.754  36.516  12.335
13615W        W82009  15.248  44.648  13.773
13616W        W82010  13.877  32.828  14.861
13617W        W82011   0.087  37.257   5.101
13618W        W82012  20.723  35.841  12.308
13619W        W82013  21.132  11.410   3.856
13620W        W82014  23.472   2.503   3.255
13621W        W82015  13.687  14.491   3.507
13622W        W82016   9.300  35.462  13.951
13623W        W82017  44.285   3.247  10.564
13624W        W82018  38.598  27.020   3.640
13625W        W82019   0.923  41.440   2.979
13626W        W82020   4.302  15.098   4.106
13627W        W82021  14.822  11.062   4.423
13628W        W82022   7.086  21.292   1.671
13629W        W82023  40.868  23.191   4.133
13630W        W82024  26.567  18.641   4.088
13631W        W82025   1.787   8.074   2.696
13632W        W82026  20.102  20.996  13.457
13633W        W82027  14.930   8.716  14.977
13634W        W82028   3.372  29.130   2.634
13635W        W82029  42.319  41.438  12.842
13636W        W82030  17.321  14.889   0.319
13637W        W82031  27.346   6.477  14.345
13638W        W82032  36.640  32.797   3.727
13639W        W82033  16.969  17.221  12.859
13640W        W82034  28.579  24.223  14.310
13641W        W82035   8.800  30.933  14.061
13642W        W82036   3.358  30.531   3.618
13643W        W82037  21.817  44.990  11.511
13644W        W82038  39.775  19.588  14.976
13645W        W82039  39.745  13.185  11.075
13646W        W82040   1.146  16.760   3.081
13647W        W82041  10.205  17.822  12.965
13648W        W82042  26.509  36.844   1.815
13649W        W82043  29.436   2.797   2.207
13650W        W82044   6.394  23.128   4.880
13651W        W82045  13.241  25.209   1.050
13652W        W82046   3.883   6.822  13.352
13653W        W82047  18.789  20.155  11.486
13654W        W82048  33.312  21.543   0.382
13655W        W82049  17.802  18.230   1.290
13656W        W82050  10.837  36.898   0.351
13657W        W82051  12.974  36.828   4.045
13658W        W82052  42.951  17.651   0.461
13659W        W82053  26.004   0.927   0.292
13660W        W82054  38.008  27.759   3.086
13661W        W82055   7.165  40.547  11.615
13662W        W82056   1.366  28.496  10.538
13663W        W82057  36.610  30.643   1.630
13664W        W82058  41.746  20.832  14.332
13665W        W82059  23.521   2.417  14.862
13666W        W82060  20.562  42.838  12.402
13667W        W82061  34.155  24.268   1.812
13668W        W82062  21.089  44.464   4.668
13669W        W82063  39.840  34.560  14.391
13670W        W82064  32.423  20.821  14.070
13671W        W82065   8.374  27.217   3.790
13672W        W82066  11.643  10.422   4.501
13673W        W82067  44.742  42.957   1.373
13674W        W82068  27.336  41.724  13.541
13675W        W82069  41.564   5.950  11.754
13676W        W82070   5.402  34.990  11.621
13677W        W82071  42.845   6.510  12.780
13678W        W82072  28.093  22.179  13.000
13679W        W82073  43.483  27.681  11.031
13680W        W82074  24.483  16.333  12.510
13681W        W82075  13.198   9.591  12.341
13682W        W82076  42.534   5.659  11.765
13683W        W82077  26.644  18.285   3.747
13684W        W82078   3.957   1.280  14.213
13685W        W82079   7.816   6.339  11.149
13686W        W82080  24.943  25.255  12.604
13687W        W82081  12.891  41.621   2.519
13688W        W82082  35.159  25.152   2.106
13689W        W82083  42.460  24.148   3.584
13690W        W82084  27.406  21.717  13.797
13691W        W82085   3.792  18.200  11.125
13692W        W82086  44.274  37.994  11.099
13693W        W82087  11.909  20.484   1.986
13694W        W82088  43.362  17.714   3.539
13695W        W82089   0.710   9.148   4.244
13696W        W82090  43.878  27.015  10.368
13697W        W82091  17.054  40.467   3.645
13698W        W82092  43.313  18.550  12.345
13699W        W82093  20.153  15.547   4.089
13700W        W82094  35.170  21.563   2.220
13701W        W82095  36.941   4.939  13.077
13702W        W82096  15.518   1.059   2.817
13703W        W82097  24.103  13.233  10.905
13704W        W82098  21.673   6.841   2.006
13705W        W82099   1.617  39.252   4.570
13706W        W82100  35.440   4.254   3.133
13707W        W82101  29.796  27.679  11.186
13708W        W82102  17.716  15.571  14.909
13709W        W82103  28.154  28.394  10.734
13710W        W82104  31.812  37.471  11.536
13711W        W82105  11.356  22.175   3.502
13712W        W82106  28.097  25.866   3.385
13713W        W82107   7.385  21.305  12.393
13714W        W82108   7.199  29.852   2.347
13715W        W82109  27.999  13.267   4.368
13716W        W82110  37.539  36.787   3.433
13717W        W82111   4.152  11.982   3.770
13718W        W82112  38.854  37.883  11.972
13719W        W82113  20.221  23.177  13.139
13720W        W82114  40.974   4.877   2.185
13721W        W82115  35.156  33.521   3.734
13722W        W82116   2.829  22.752   2.865
13723W        W82117  17.117  26.009   0.692
13724W        W82118  14.242  28.043  13.823
13725W        W82119   1.380  42.017  14.969
13726W        W82120  43.919  39.532   1.677
13727W        W82121  17.236   1.681   9.985
13728W        W82122  23.183  39.188  12.178
13729W        W82123  39.044  34.015  14.016
13730W        W82124  14.728  22.323   0.453
13731W        W82125  22.112  10.721  13.816
13732W        W82126  22.244  14.284   1.392
13733W        W82127  12.125  15.649  12.062
13734W        W82128  15.584   5.704   3.202
13735W        W82129  25.527  21.132  11.051
13736W        W82130  42.223  11.636   0.282
13737W        W82131  34.339   1.632   3.198
13738W        W82132  36.916  21.614  10.686
13739W        W82133  30.135  22.520   2.701
13740W        W82134  25.045   5.181   2.827
13741W        W82135  20.801  18.670  10.446
13742W        W82136  20.969  44.184  13.064
13743W        W82137   4.200  19.592   1.308
13744W        W82138   4.585   2.952   0.554
13745W        W82139  35.619  16.603  11.592
13746W        W82140  38.433  19.327   0.130
13747W        W82141   1.946  22.862   1.034
13748W        W82142  15.011  21.808   4.192
13749W        W82143  17.045  31.935   5.017
13750W        W82144   1.931   5.669  14.843
13751W        W82145  41.227  38.040   2.228
13752W        W82146  16.432  19.859   1.684
13753W        W82147  39.045  22.324  10.303
13754W        W82148   8.723  17.700  13.524
13755W        W82149  30.632  32.869  12.059
13756W        W82150  11.706  24.693   0.389
13757W        W82151  39.476  32.911   1.846
13758W        W82152  39.509   3.880   1.469
13759W        W82153  33.211   6.918  12.052
13760W        W82154  26.668  23.462   1.453
13761W        W82155  14.299   9.089  11.628
13762W        W82156  19.729  12.250  14.963
13763W        W82157  36.059   6.498   3.138
13764W        W82158  24.015   2.694   1.627
13765W        W82159   5.683  26.974   1.869
13766W        W82160  43.826   0.049   3.804
13767W        W82161  39.501  11.958   1.474
13768W        W82162  17.071  20.961  11.104
13769W        W82163   6.179  20.293  12.333
13770W        W82164  26.508   3.261  12.530
13771W        W82165   7.624  13.817  13.274
13772W        W82166  16.164   2.803  14.575
13773W        W82167  16.413  29.010   4.989
13774W        W82168  16.734  17.024   3.105
13775W        W82169  24.727  18.914   2.838
13776W        W82170  18.251  10.344   0.945
13777W        W82171  30.498  20.138  11.721
13778W        W82172  38.452  27.919   2.829
13779W        W82173  12.123  31.132   3.329
13780W        W82174   7.403   2.737   4.556
13781W        W82175   7.207  27.419  13.856
13782W        W82176   7.751  31.176  14.520
13783W        W82177  32.183  26.135  11.162
13784W        W82178  16.623  37.784  13.766
13785W        W82179  38.342  39.065   1.332
13786W        W82180  13.412  31.834  14.408
13787W        W82181  28.063  33.402   1.888
13788W        W82182  10.886  22.341   3.312
13789W        W82183  26.646   1.059  13.057
13790W        W82184  10.301  44.898  10.570
13791W        W82185  15.955  29.535   1.853
13792W        W82186  26.187  12.778  13.857
13793W        W82187  13.566  26.687   3.290
13794W        W82188  14.245   9.620  11.446
13795W        W82189   9.935  26.002   3.640
13796W        W82190  31.706  27.132   3.181
13797W        W82191  12.914  17.038   0.885
13798W        W82192  20.241  32.149  13.907
13799W        W82193  12.866   4.848  10.683
13800W        W82194  23.579  25.166   3.226
13801W        W82195  24.515  40.645  11.272
13802W        W82196   3.125  17.107   4.293
13803W        W82197   7.376  27.920   0.923
13804W        W82198  11.801  14.937   2.801
13805W        W82199  16.283   0.237  13.479
13806W        W82200  11.597  21.050  12.522
13807W        W82201  10.612   3.436  14.253
13808W        W82202   1.293  15.527  10.239
13809W        W82203  16.665  22.842   4.816
13810W        W82204   9.260  22.678   4.454
13811W        W82205  36.864  10.617   2.892
13812W        W82206  27.628   9.738   3.318
13813W        W82207  36.456  19.003   3.248
13814W        W82208  21.143  20.518   0.392
13815W        W82209  12.654  18.739  13.592
13816W        W82210   3.256  34.868  14.761
13817W        W82211   2.081  22.817   4.195
13818W        W82212   8.842   5.105  11.446
13819W        W82213  10.256  21.423  13.890
13820W        W82214  43.248  21.068   0.935
13821W        W82215  15.634  15.122  14.451
13822W        W82216  19.864  14.456  10.617
13823W        W82217  41.401  10.436   3.224
13824W        W82218   2.698  30.503  14.958
13825W        W82219  14.264  11.137  12.673
13826W        W82220  11.870  12.867  10.710
13827W        W82221  44.286  35.422   0.886
13828W        W82222  27.717  29.918   3.803
13829W        W82223   5.712   7.635   2.691
13830W        W82224   4.861  27.506  10.956
13831W        W82225   1.257  38.928   0.157
13832W        W82226  14.809   4.337  14.905
13833W        W82227  25.613  30.655  12.667
13834W        W82228  25.577  17.950  10.243
13835W        W82229   0.230   3.449   1.038
13836W        W82230  43.370  36.040  14.372
13837W        W82231   9.627  29.863  14.458
13838W        W82232   2.406  22.776  11.574
13839W        W82233  17.168  40.850   1.930
13840W        W82234  20.674   5.772   3.620
13841W        W82235  13.313  33.471   2.380
13842W        W82236  29.156  41.749  14.963
13843W        W82237  23.780  38.897   0.276
13844W        W82238  36.463  39.975   4.316
13845W        W82239  27.689  34.534   3.212
13846W        W82240   3.662  17.673  11.286
13847W        W82241   0.014  40.540  13.067
13848W        W82242  17.789   1.039  11.809
13849W        W82243  12.229  42.904  13.135
13850W        W82244  38.583  36.923   0.695
13851W        W82245  22.207  44.083   2.815
13852W        W82246  19.036  33.171  13.095
13853W        W82247   6.261  32.929  11.875
13854W        W82248  14.082   2.733   0.741
13855W        W82249  14.678  19.966   5.056
13856W        W82250  24.694   1.227   0.874
13857W        W82251   1.264   4.089  11.925
13858W        W82252  21.169   9.879   3.579
13859W        W82253   6.275  41.289  12.221
13860W        W82254  16.905   5.978  14.228
13861W        W82255  32.930  20.960   0.989
13862W        W82256  32.580   0.353   2.826
13863W        W82257   6.462  31.176  11.593
13864W        W82258  44.949  12.526   1.809
13865W        W82259   2.310  24.810  12.542
13866W        W82260  19.612  24.803  13.908
13867W        W82261  33.614  12.842  14.814
13868W        W82262  10.890   3.451  14.713
13869W        W82263  23.574  36.528   2.705
13870W        W82264  18.706  32.370  14.809
13871W        W82265   1.761  19.933  13.204
13872W        W82266  10.666  36.821   3.384
13873W        W82267  20.376  25.164   0.945
13874W        W82268   5.893  28.200  13.963
13875W        W82269  19.632  20.670   1.004
13876W        W82270  15.811  18.673   0.252
13877W        W82271  40.113   5.951  11.419
13878W        W82272   1.408   0.926   2.624
13879W        W82273  30.173   6.936   3.992
13880W        W82274  11.908   3.567   2.802
13881W        W82275  18.656  41.954  11.454
13882W        W82276  43.872   8.703   4.391
13883W        W82277   6.278  22.484   0.422
13884W        W82278  27.495  41.287   4.338
13885W        W82279  39.777  22.107  11.623
13886W        W82280  25.715  32.710  14.906
13887W        W82281  22.713  12.230   1.606
13888W        W82282  31.087  41.279   1.269
13889W        W82283  21.110  34.620  13.218
13890W        W82284   9.230  32.473  11.165
13891W        W82285  35.655  26.801   1.756
13892W        W82286  44.300  28.954  14.050
13893W        W82287  21.485  43.731   1.971
13894W        W82288  29.852  35.701   0.274
13895W        W82289  30.967  23.261  12.591
13896W        W82290  32.014  25.782  14.420
13897W        W82291  10.243   5.881  11.907
13898W        W82292  24.057  11.068  11.690
13899W        W82293  15.450  15.244  11.058
13900W        W82294  26.556  24.364   0.491
13901W        W82295  43.468  18.428   3.409
13902W        W82296  13.081  35.740   0.495
13903W        W82297   4.232  20.582  12.559
13904W        W82298  16.760  12.606   3.680
13905W        W82299  41.544  41.878  14.325
13906W        W82300   2.784  37.446   2.406
13907W        W82301  27.583  34.408  12.845
13908W        W82302  27.190  44.540   3.609
13909W        W82303  38.471  30.469  14.081
13910W        W82304  27.243   3.628  14.900
13911W        W82305  21.525  10.231  14.188
13912W        W82306  17.300   5.283  12.880
13913W        W82307  38.340  11.337  11.329
13914W        W82308  24.733  29.065  12.747
13915W        W82309   0.809  38.922  10.219
13916W        W82310   9.208   3.637   4.894
13917W        W82311   7.796  22.772   0.389
13918W        W82312  10.776   3.958  11.202
13919W        W82313  31.960  12.244   2.696
13920W        W82314  27.053  39.284  10.688
13921W        W82315   1.307  25.834   4.545
13922W        W82316   6.216  21.195  14.767
13923W        W82317  13.808   5.693  13.807
13924W        W82318   8.762  16.218   3.524
13925W        W82319  32.659  19.103  14.901
13926W        W82320  16.202  20.825   1.455
13927W        W82321   8.951  13.665   4.712
13928W        W82322  25.542  10.335   1.755
13929W        W82323   5.346  38.275  12.028
13930W        W82324  26.683  38.329   3.264
13931W        W82325  17.464  19.991  14.870
13932W        W82326  20.795   2.413   3.502
13933W        W82327  32.173  18.602  11.896
13934W        W82328  18.229   1.481   2.290
13935W        W82329  44.060  25.745   2.389
13936W        W82330  17.645   8.446   4.595
13937W        W82331  35.222  29.130   4.816
13938W        W82332  44.996  43.269   2.477
13939W        W82333   6.745  41.919   0.982
13940W        W82334  14.082   9.139   0.131
13941W        W82335  22.056   7.376  13.753
13942W        W82336  40.850  27.781   2.866
13943W        W82337  20.020  16.998   1.526
13944W        W82338  33.473  42.880   2.957
13945W        W82339  27.497  12.382   4.173
13946W        W82340  24.266   4.030   2.245
13947W        W82341  43.870   6.908   2.813
13948W        W82342   1.692  33.018  12.756
13949W        W82343  35.542  36.325   0.455
13950W        W82344  24.848  33.959   3.796
13951W        W82345  16.857  20.563  11.458
13952W        W82346   5.972  43.976   2.813
13953W        W82347  12.578  24.981  14.222
13954W        W82348  10.373   9.666  12.830
13955W        W82349  12.830  26.576  13.816
13956W        W82350  28.904  12.923  14.571
13957W        W82351  30.884  10.316  11.640
13958W        W82352  40.006  37.116   9.539
13959W        W82353   8.825  33.668  11.683
13960W        W82354  17.550   4.425   1.096
13961W        W82355   9.213  22.377  12.315
13962W        W82356  19.151   2.775  14.304
13963W        W82357  33.997  29.471   4.529
13964W        W82358  29.470  25.377   2.439
13965W        W82359  16.187   9.145   0.236
13966W        W82360  39.542  28.127  12.922
13967W        W82361  37.528  38.408   0.293
13968W        W82362  31.053   5.244  10.527
13969W        W82363   4.295  28.688  14.785
13970W        W82364  21.730  29.089  12.376
13971W        W82365  15.147  26.097   3.932
13972W        W82366  26.200  37.646  13.401
13973W        W82367  26.431   3.184  11.682
13974W        W82368   1.471   9.669  13.074
13975W        W82369  19.246   3.325   1.188
13976W        W82370  32.542  32.090   1.886
13977W        W82371  32.849   4.648  14.520
13978W        W82372  41.518   9.452   2.249
13979W        W82373   3.630   9.702   4.781
13980W        W82374  25.778   6.663   3.305
13981W        W82375  20.042  41.947   1.929
13982W        W82376  43.322   0.222  10.556
13983W        W82377  27.516  15.579   2.404
13984W        W82378  31.595   5.581  12.787
13985W        W82379  20.486  29.201  12.448
13986W        W82380   6.877  17.714   2.609
13987W        W82381  37.775  39.733   0.252
13988W        W82382  33.677  10.867  11.204
13989W        W82383  24.555  29.156  13.559
13990W        W82384  32.066  42.582  12.923
13991W        W82385  27.486  21.591  13.286
13992W        W82386   5.306  31.895  12.883
13993W        W82387  21.668  18.136  12.791
13994W        W82388  29.881  43.080  10.761
13995W        W82389   3.098  13.418  13.025
13996W        W82390   0.252  26.719   1.795
13997W        W82391  22.013   9.454   4.911
13998W        W82392  15.173  40.551  14.773
13999W        W82393  43.426  41.443   4.679
14000W        W82394  28.110  44.354   4.001
14001W        W82395   9.378   1.927   3.103
14002W        W82396  44.293  25.694  12.961
14003W        W82397  24.659   1.034  10.715
14004W        W82398  37.247  43.461  11.357
14005W        W82399   3.904  14.583  14.565
14006W        W82400  36.602  43.387  14.014
14007W        W82401  41.862  41.391   9.806
14008W        W82402  41.966  40.792  14.409
14009W        W82403  37.022  31.670  14.457
14010W        W82404  19.210  35.424   4.763
14011W        W82405  34.324  33.848   0.371
14012W        W82406   0.176  40.996   1.794
14013W        W82407  34.968   2.950   3.894
14014W        W82408  36.596   9.694   0.793
14015W        W82409   9.865  24.255   4.646
14016W        W82410  37.843  29.565  14.842
14017W        W82411  18.840  17.434   0.021
14018W        W82412  23.579  29.444   1.531
14019W        W82413  31.126  29.571  10.650
14020W        W82414  37.917  21.431  11.598
14021W        W82415  20.089  40.332   3.758
14022W        W82416  16.228  27.247   1.431
14023W        W82417  38.287  37.431  14.582
14024W        W82418  15.454  16.804   3.482
14025W        W82419  43.007  14.922  13.148
14026W        W82420   2.266  15.000  13.828
14027W        W82421  24.492  12.972  12.200
14028W        W82422  26.536  32.541   2.113
14029W        W82423  17.788   0.859  13.852
14030W        W82424  39.930   9.832  12.034
14031W        W82425  40.216  36.359   1.490
14032W        W82426  35.896  32.663   1.839
14033W        W82427  32.568  15.634  11.228
14034W        W82428  44.274   5.699   3.649
14035W        W82429  38.301  41.440  12.633
14036W        W82430  37.001  18.502  14.976
14037W        W82431   9.715  34.638   3.564
14038W        W82432  33.286   8.573  13.569
14039W        W82433  30.962  44.865  14.927
14040W        W82434  32.158   9.158  12.128
14041W        W82435  28.005  23.514   2.767
14042W        W82436  26.900  22.459   0.737
14043W        W82437  18.267   2.282  14.499
14044W        W82438  28.577  43.282  13.038
14045W        W82439   0.274   9.783  13.365
14046W        W82440  32.600  43.651   0.055
14047W        W82441  37.855  34.534   4.688
14048W        W82442   8.353  24.772   0.856
14049W        W82443  24.705  43.971  13.110
14050W        W82444   5.147  26.230  11.593
14051W        W82445  14.209  43.947   1.915
14052W        W82446  17.204  26.965  14.027
14053W        W82447   4.319   6.778  10.882
14054W        W82448   5.808  23.142  12.797
14055W        W82449  22.273  31.431  10.769
14056W        W82450  37.918  23.020   1.700
14057W        W82451   5.092  22.952   3.287
14058W        W82452  41.843  21.117   0.387
14059W        W82453  41.039   5.010   0.020
14060W        W82454  31.359  37.942   1.745
14061W        W82455  28.655  20.322   4.089
14062W        W82456  29.275  44.028   0.374
14063W        W82457  37.240  21.072   2.891
14064W        W82458   9.586   9.921   2.113
14065W        W82459   4.501  24.607  12.898
14066W        W82460   1.744  28.971  11.614
14067W        W82461  24.373   0.924  12.111
14068W        W82462  39.137  30.438  10.308
14069W        W82463   4.927  31.064  13.070
14070W        W82464  33.507  39.344  10.414
14071W        W82465  36.987   0.284   1.825
14072W        W82466  20.822   3.815   1.690
14073W        W82467  26.403  40.337  11.644
14074W        W82468  24.167  34.147  12.407
14075W        W82469  13.582  13.303  11.941
14076W        W82470  38.959   3.732  11.838
14077W        W82471  41.768  30.406   4.283
14078W        W82472  16.658  27.060   4.127
14079W        W82473  19.918  11.129  12.356
14080W        W82474  18.759  11.268   3.775
14081W        W82475  27.943  15.784  11.240
14082W        W82476  10.134  13.611  12.551
14083W        W82477  18.005   8.270   1.707
14084W        W82478  18.084  23.774   1.386
14085W        W82479   9.802   2.527   0.955
14086W        W82480  21.616  23.193   3.132
14087W        W82481   7.731  43.419   0.486
14088W        W82482  28.994  11.318  10.739
14089W        W82483  24.869   9.950  11.577
14090W        W82484  11.246   4.968   3.247
14091W        W82485  42.657  10.130  14.109
14092W        W82486  21.077  32.520   1.781
14093W        W82487  12.696  32.936  12.024
14094W        W82488  28.247  31.880   1.954
14095W        W82489  10.652  13.196  11.116
14096W        W82490  30.875  19.199  10.757
14097W        W82491   8.760  13.197   4.560
14098W        W82492   0.031  24.645  13.372
14099W        W82493   9.721  39.020  11.608
14100W        W82494  13.920   2.791   2.263
14101W        W82495  43.304  38.221  14.475
14102W        W82496  13.441   0.242   0.727
14103W        W82497  14.149  34.339   4.241
14104W        W82498  29.444  15.009   4.258
14105W        W82499  37.362  31.875  11.446
14106W        W82500  11.968  43.816   4.584
14107W        W82501   5.350   2.452  13.102
14108W        W82502  34.311  24.146  14.843
14109W        W82503  37.580  26.142  14.845
14110W        W82504  26.885   1.898   1.735
14111W        W82505  35.356  42.989   3.382
14112W        W82506  44.930  36.066  12.973
14113W        W82507  33.695  10.908   2.338
14114W        W82508  31.884   1.807  11.139
14115W        W82509  15.335  24.500   3.239
14116W        W82510  13.384  20.776  14.397
14117W        W82511   0.854  22.810  13.860
14118W        W82512  23.318  25.923   3.789
14119W        W82513   9.572  21.281  13.188
14120W        W82514  16.150  36.533   2.688
14121W        W82515  29.696  25.538   0.547
14122W        W82516  40.817  15.707   2.968
14123W        W82517  32.983  15.650  14.028
14124W        W82518   2.919  11.149  11.697
14125W        W82519  40.220  42.962  10.694
14126W        W82520  11.190   4.962  12.134
14127W        W82521  34.901  41.675   4.500
14128W        W82522  32.858  35.331   2.780
14129W        W82523  33.963  15.707  14.936
14130W        W82524   6.338   6.688   4.298
14131W        W82525  31.405  23.084   4.066
14132W        W82526   6.417   4.396   3.796
14133W        W82527   3.494  32.031   0.885
14134W        W82528   4.415  27.309   4.152
14135W        W82529  42.849   6.285  14.545
14136W        W82530  29.125  39.557  12.541
14137W        W82531  30.946  35.847  11.976
14138W        W82532  35.388   4.375  12.199
14139W        W82533  23.593  26.695   0.948
14140W        W82534   8.853  18.339   4.637
14141W        W82535  28.857  27.999  14.889
14142W        W82536  22.533   5.160  12.128
14143W        W82537  20.152  22.024   1.449
14144W        W82538   6.683  29.179   0.902
14145W        W82539   5.000  22.614  13.392
14146W        W82540  10.214  17.737   1.802
14147W        W82541  15.173  14.309   4.117
14148W        W82542  33.548  20.370  11.524
14149W        W82543  35.374  32.980   0.935
14150W        W82544  25.485  24.034   4.148
14151W        W82545  21.743  36.072   3.639
14152W        W82546  10.772  27.841   3.114
14153W        W82547  40.342   5.722   3.266
14154W        W82548   3.228  34.174   0.751
14155W        W82549  17.147  33.346   4.270
14156W        W82550   9.837  33.067   0.901
14157W        W82551  27.400  39.902  13.665
14158W        W82552  37.244  34.711   0.345
14159W        W82553   3.118  28.610   3.748
14160W        W82554   6.169  42.895   2.866
14161W        W82555  37.713  25.517  12.394
14162W        W82556  23.288  19.095   2.960
14163W        W82557  19.138  10.629   1.298
14164W        W82558  25.196  20.597   4.761
14165W        W82559  18.280  14.923   4.366
14166W        W82560  34.376  41.163  12.458
14167W        W82561   4.353  40.018  10.596
14168W        W82562   6.160   3.892   2.194
14169W        W82563  33.902  27.447  14.019
14170W        W82564  21.144   1.254   0.751
14171W        W82565  40.561  22.701   0.600
14172W        W82566  31.700  28.039  12.462
14173W        W82567  15.799  44.969  12.915
14174W        W82568  16.015  38.019   3.877
14175W        W82569  14.714  16.234   3.322
14176W        W82570  21.955  43.273   3.183
14177W        W82571  39.920  23.119   3.215
14178W        W82572  26.504  35.573   2.271
14179W        W82573  12.260  12.286   2.645
14180W        W82574  25.646  44.895   2.592
14181W        W82575  29.890  31.673   5.252
14182W        W82576  13.688  16.812   3.244
14183W        W82577  19.879   5.242  11.564
14184W        W82578  13.528  31.575   2.463
14185W        W82579  37.050  25.798   3.209
14186W        W82580  39.560  10.684   4.260
14187W        W82581  31.563  35.018  12.512
14188W        W82582  17.146  11.921   5.004
14189W        W82583  31.494  22.700   2.186
14190W        W82584   9.869  15.405  14.348
14191W        W82585   4.331  40.040  13.002
14192W        W82586   3.438  12.968  13.012
14193W        W82587  42.863  27.584   2.033
14194W        W82588  32.514  29.154   3.729
14195W        W82589  33.376  37.251   1.676
14196W        W82590  18.340   3.721  11.503
14197W        W82591  29.117  37.882   0.214
14198W        W82592  30.155  11.163   0.377
14199W        W82593   1.341   0.992   1.678
14200W        W82594  30.034  27.539  10.747
14201W        W82595  35.431  41.467  10.725
14202W        W82596  38.018  40.776   1.518
14203W        W82597   0.274  38.919   2.911
14204W        W82598  32.934  33.838  12.600
14205W        W82599  18.282  44.596  11.078
14206W        W82600   0.637  38.809   3.815
14207W        W82601  39.929   1.421   1.267
14208W        W82602  25.013  27.700  12.079
14209W        W82603   2.433  10.337  14.004
14210W        W82604  19.246  25.488  10.724
14211W        W82605  22.429  39.356  12.290
14212W        W82606  17.354  12.374  13.802
14213W        W82607  34.507  14.184   0.945
14214W        W82608  43.011  42.867  11.466
14215W        W82609  12.849  17.228  12.469
14216W        W82610  31.410  19.211  10.753
14217W        W82611  44.538   6.335   3.305
14218W        W82612  44.977  26.053   3.243
14219W        W82613  24.176  27.593  11.572
14220W        W82614   3.280  19.691  11.298
14221W        W82615  14.687  24.012   2.877
14222W        W82616  32.620  22.124  13.043
14223W        W82617  30.873  39.892  14.103
14224W        W82618  38.501   6.000  12.887
14225W        W82619  14.175  11.642   1.047
14226W        W82620  38.813  26.585   3.411
14227W        W82621  22.059  13.637  12.993
14228W        W82622  37.060  40.779   2.840
14229W        W82623  29.611  22.445   4.066
14230W        W82624  18.812  14.431  13.871
14231W        W82625  34.601  16.388  11.555
14232W        W82626  16.584  10.345   0.730
14233W        W82627  27.148   8.502  14.081
14234W        W82628  13.327   1.730  13.500
14235W        W82629  23.790  24.457   4.981
14236W        W82630  37.090  21.736  13.873
14237W        W82631  33.012  30.590  13.425
14238W        W82632  30.254  23.252   3.249
14239W        W82633   6.953   6.911  12.875
14240W        W82634  44.807  40.050   4.492
14241W        W82635  14.956  35.568  14.394
14242W        W82636  13.789  29.166   2.391
14243W        W82637  16.338   1.479  11.879
14244W        W82638   3.712  28.718  11.913
14245W        W82639  28.030  44.263   1.707
14246W        W82640  37.790   4.508  13.551
14247W        W82641  29.494   4.880  13.034
14248W        W82642   5.492  18.957   4.048
14249W        W82643  28.116  41.974   2.907
14250W        W82644  14.305  33.104   0.727
14251W        W82645  10.727  41.276  10.965
14252W        W82646  36.307  29.457  12.927
14253W        W82647  42.420   6.782   0.757
14254W        W82648  42.048  13.699   4.373
14255W        W82649  22.444   8.910   0.723
14256W        W82650  20.005   0.769  11.623
14257W        W82651  16.544  37.316   1.350
14258W        W82652  35.176  25.979   2.754
14259W        W82653  13.110  10.312   2.893
14260W        W82654  43.063   6.537   2.205
14261W        W82655  27.419  19.738  13.368
14262W        W82656  10.183  31.333   0.557
14263W        W82657  33.437   9.464  11.528
14264W        W82658  28.602  26.878  13.875
14265W        W82659   2.239   5.930  12.474
14266W        W82660  20.633  22.962   0.912
14267W        W82661  17.119  41.331  13.697
14268W        W82662   5.899  11.291  12.321
14269W        W82663  25.116  25.157  10.454
14270W        W82664  22.516  40.283   4.143
14271W        W82665  25.597   2.254  14.936
14272W        W82666   5.969  11.193   4.144
14273W        W82667   7.068  15.652  12.695
14274W        W82668  34.357   2.959  14.499
14275W        W82669   8.637  40.404  11.603
14276W        W82670  44.401   3.624  11.729
14277W        W82671  13.936  30.196   1.026
14278W        W82672  23.580  41.322   2.833
14279W        W82673  44.050  21.523   4.601
14280W        W82674   6.088  30.014   0.401
14281W        W82675  36.030  13.751   4.164
14282W        W82676  29.627   2.355  12.007
14283W        W82677   9.078  18.875   4.696
14284W        W82678  42.289  40.240   3.315
14285W        W82679  34.644   4.563  14.323
14286W        W82680  18.592   3.704   3.274
14287W        W82681  19.214  28.925   3.710
14288W        W82682  33.941  34.428  10.552
14289W        W82683  25.105  28.509   4.605
14290W        W82684  11.347  23.132   1.879
14291W        W82685  21.885  40.515  12.100
14292W        W82686  43.928  34.035   2.420
14293W        W82687  27.610  32.165   1.885
14294W        W82688  25.445  43.478  13.091
14295W        W82689   3.318  44.997  11.851
14296W        W82690  40.687  38.061   2.479
14297W        W82691  23.746  23.142   0.661
14298W        W82692  28.449   9.908  13.761
14299W        W82693  40.423  22.627   3.304
14300W        W82694  35.958  30.602  11.746
14301W        W82695   6.496   8.850   0.811
14302W        W82696  27.947  14.829  12.665
14303W        W82697   8.173  41.272   4.206
14304W        W82698  30.191  23.947  12.606
14305W        W82699   4.545  14.538   1.241
14306W        W82700  15.796   4.696  14.407
14307W        W82701  31.100  20.841   1.713
14308W        W82702  26.502  20.584  13.494
14309W        W82703  22.080  32.973  14.841
14310W        W82704   7.721   7.745  12.499
14311W        W82705  32.940  33.857   1.878
14312W        W82706  34.462   3.616   3.432
14313W        W82707  11.930  16.246  14.886
14314W        W82708  24.610  25.939   2.851
14315W        W82709  37.901  12.682  11.940
14316W        W82710  39.383  26.438  12.630
14317W        W82711   2.826  23.852  14.471
14318W        W82712  18.554  43.038   4.640
14319W        W82713  23.304  39.647   4.519
14320W        W82714   6.673  33.909   1.413
14321W        W82715  14.705  22.460  10.639
14322W        W82716  25.550  33.606   3.383
14323W        W82717  19.739  43.997  14.673
14324W        W82718  34.624  27.673  11.650
14325W        W82719  24.107  44.002   0.760
14326W        W82720  26.168   7.651   2.913
14327W        W82721  41.292  29.226  14.314
14328W        W82722  12.887  31.912  12.126
14329W        W82723  34.185  27.573   4.170
14330W        W82724  11.121  17.211   0.316
14331W        W82725  32.722   8.280  13.883
14332W        W82726  17.232  10.554  13.991
14333W        W82727  38.844  14.394  12.967
14334W        W82728  13.693  31.426   3.846
14335W        W82729  36.169   0.910   1.979
14336W        W82730  28.618   0.325   0.420
14337W        W82731  42.233  27.734  11.675
14338W        W82732  38.608  34.342   4.176
14339W        W82733  10.040   7.434   4.254
14340W        W82734  28.790  35.870   1.836
14341W        W82735  33.881  34.545  11.990
14342W        W82736   8.140  31.773  13.389
14343W        W82737  20.556   1.231  12.634
14344W        W82738   6.483  29.493   3.184
14345W        W82739  30.864   6.299   1.372
14346W        W82740  36.291  37.045   0.500
14347W        W82741   5.528  13.766  12.066
14348W        W82742   0.828  24.255   0.356
14349W        W82743  12.911  15.703   4.043
14350W        W82744  29.937  38.468   2.403
14351W        W82745  17.165  27.293   0.458
14352W        W82746  23.608  13.271   1.233
14353W        W82747  28.985  34.624  14.722
14354W        W82748  38.987  36.758   5.102
14355W        W82749  42.143  14.676  12.010
14356W        W82750   0.522  19.945  13.522
14357W        W82751  41.486  35.261   2.377
14358W        W82752  23.582   4.806  10.699
14359W        W82753  37.327  16.469  12.021
14360W        W82754   7.214  26.761   5.471
14361W        W82755  43.171  19.938  14.921
14362W        W82756   7.447   1.866  10.773
14363W        W82757  17.142   4.749   2.730
14364W        W82758  17.332  15.825   2.905
14365W        W82759  32.996   7.207  14.625
14366W        W82760  39.534  10.616   0.400
14367W        W82761  35.169  33.543   2.747
14368W        W82762  23.202   3.145  11.461
14369W        W82763  41.821  42.323   2.163
14370W        W82764  23.930  23.176   1.170
14371W        W82765  12.217  31.690  12.054
14372W        W82766  12.042   2.407   4.059
14373W        W82767  29.454  27.007   3.633
14374W        W82768  39.300  14.257   0.385
14375W        W82769   9.942  31.005   2.899
14376W        W82770  38.155  33.445   0.403
14377W        W82771   8.835   3.373   0.197
14378W        W82772  42.754  34.429   1.314
14379W        W82773   5.704   7.481  12.104
14380W        W82774  13.388   5.832   2.794
14381W        W82775  43.515  20.298   0.335
14382W        W82776  10.204  22.335  12.515
14383W        W82777  28.138  32.465  10.980
14384W        W82778   0.741  21.117   3.078
14385W        W82779  21.804  34.219  11.049
14386W        W82780  34.601  30.637   3.602
14387W        W82781  24.427   7.473  12.711
14388W        W82782  29.462  38.837   1.280
14389W        W82783  29.990  20.038  12.605
14390W        W82784  11.329   8.959   3.293
14391W        W82785  20.677  18.265  12.157
14392W        W82786  18.470  31.917  14.941
14393W        W82787  22.047  22.229  10.651
14394W        W82788   6.279  19.293  12.592
14395W        W82789  13.730  39.445   3.727
14396W        W82790  44.826   5.415   2.459
14397W        W82791  30.072  40.844   3.542
14398W        W82792  40.597   6.213   1.081
14399W        W82793  21.566   9.157   2.107
14400W        W82794   8.824  25.461  14.300
14401W        W82795  17.678  31.516   3.803
14402W        W82796  31.941  27.668   4.867
14403W        W82797  35.435  18.702   3.831
14404W        W82798  24.638  17.226  10.693
14405W        W82799   8.287  14.907  11.068
14406W        W82800   2.660   6.281   1.314
14407W        W82801  14.899   6.868  14.045
14408W        W82802  32.695  39.476  13.374
14409W        W82803   3.025   4.250  14.168
14410W        W82804  28.899  15.744  14.786
14411W        W82805  24.034  24.958   3.394
14412W        W82806  18.671   2.022  14.251
14413W        W82807  40.116  34.118   2.384
14414W        W82808  24.096  19.906  13.979
14415W        W82809  36.616  30.558  10.407
14416W        W82810   5.624  33.459   2.239
14417W        W82811   6.960  41.773   3.430
14418W        W82812  20.485  14.315  12.713
14419W        W82813  22.123  39.651  12.009
14420W        W82814  35.654  19.225  11.533
14421W        W82815  26.666  15.342  11.328
14422W        W82816   8.713   7.851  11.646
14423W        W82817   5.188   4.304  13.111
14424W        W82818   3.835   6.305  10.568
14425W        W82819  21.555  44.928  11.946
14426W        W82820   2.810  21.681   0.220
14427W        W82821  12.839  29.715  12.149
14428W        W82822   9.563   6.002  13.030
14429W        W82823  30.759  14.991  13.442
14430W        W82824   4.997  17.240   3.229
14431W        W82825  21.400   4.812   4.395
14432W        W82826  16.981  20.955  13.414
14433W        W82827   8.784   0.907   5.273
14434W        W82828  34.584  40.979   3.247
14435W        W82829   0.320   5.292   1.464
14436W        W82830  33.021  22.237   2.880
14437W        W82831  15.223  30.954   1.672
14438W        W82832  34.698   7.622  11.608
14439W        W82833  26.775  23.832  12.448
14440W        W82834   8.449  32.536   4.545
14441W        W82835   7.219  10.615   0.925
14442W        W82836  21.663  17.037  12.874
14443W        W82837  36.478  26.597  13.043
14444W        W82838  11.325  33.687  14.884
14445W        W82839   0.555  20.213  13.987
14446W        W82840  12.577  11.576   0.330
14447W        W82841  39.491  20.263  13.315
14448W        W82842  13.345  34.416  11.230
14449W        W82843  33.087  35.355  14.619
14450W        W82844  27.169  25.185   0.633
14451W        W82845  28.259  20.869   0.759
14452W        W82846  20.346  34.542   1.500
14453W        W82847  16.556  30.423   2.764
14454W        W82848  34.145   4.281   3.698
14455W        W82849  17.601  14.313  14.005
14456W        W82850  38.914  29.752  10.971
14457W        W82851  11.929  44.562   1.769
14458W        W82852  32.416  41.824  11.292
14459W        W82853  41.738   9.099  14.086
14460W        W82854   8.897  22.616  10.448
14461W        W82855  27.092  42.122   3.604
14462W        W82856  10.506  29.275  10.444
14463W        W82857  29.169  21.460   0.847
14464W        W82858   0.366  13.520  10.785
14465W        W82859  21.225  25.483   4.578
14466W        W82860  20.994   7.181   1.701
14467W        W82861  39.074  13.774  11.563
14468W        W82862   4.786  37.815  12.937
14469W        W82863  20.392  10.758  11.997
14470W        W82864  18.234  28.966  11.526
14471W        W82865   1.974  10.073  13.980
14472W        W82866  40.870  21.967  11.056
14473W        W82867  37.167  14.105   4.356
14474W        W82868  39.481  23.201  12.163
14475W        W82869  44.885  20.656  10.899
14476W        W82870  31.163  32.574  12.522
14477W        W82871  42.523  15.129   3.324
14478W        W82872   2.547  29.875   3.786
14479W        W82873  43.324  15.879  13.411
14480W        W82874  14.312  10.769   0.869
14481W        W82875  43.183  29.411  14.827
14482W        W82876  15.092   4.946  11.162
14483W        W82877  18.928  21.172  13.811
14484W        W82878   9.938  32.044  13.003
14485W        W82879  10.587   6.139  11.585
14486W        W82880  11.286  13.324   3.162
14487W        W82881  14.863  24.719  10.807
14488W        W82882  11.652  13.076   2.654
14489W        W82883   9.879  24.178  13.871
14490W        W82884  15.685  31.664  11.237
14491W        W82885  11.626  34.336   2.435
14492W        W82886  36.105  15.745   3.114
14493W        W82887   4.273   9.156   2.173
14494W        W82888   4.639  29.238  10.520
14495W        W82889  40.458   9.440   4.690
14496W        W82890   1.706  32.179  12.469
14497W        W82891  41.511  24.009  12.964
14498W        W82892   2.229   6.268  13.373
14499W        W82893  23.989  24.807  10.036
14500W        W82894   8.902   3.694   2.264
14501W        W82895  11.138  28.874   2.008
14502W        W82896  30.651  15.740   0.553
14503W        W82897  19.769   8.842   0.386
14504W        W82898   0.828  22.483  13.273
14505W        W82899  11.406  25.993   3.916
14506W        W82900  38.938  24.497  11.712
14507W        W82901  42.465  44.331   1.411
14508W        W82902   3.730  41.563  14.282
14509W        W82903  10.943   0.840   1.798
14510W        W82904  28.939  21.650  12.200
14511W        W82905   5.212  36.507  14.604
14512W        W82906  12.798   9.102   0.992
14513W        W82907  32.565   8.882   2.760
14514W        W82908  26.217   7.770   0.406
14515W        W82909  12.381   9.271  14.415
14516W        W82910  26.757  34.636   3.703
14517W        W82911  32.897  32.445   1.422
14518W        W82912   4.095  38.584   3.059
14519W        W82913  13.790  29.190   3.524
14520W        W82914   9.301  43.844   1.001
14521W        W82915  18.922  31.367  12.570
14522W        W82916   9.878  18.114  13.289
14523W        W82917  44.321  34.625   1.851
14524W        W82918   2.406   9.793   2.615
14525W        W82919   2.307  21.629   0.314
14526W        W82920  16.278   2.793   0.872
14527W        W82921  44.306  23.254   4.553
14528W        W82922  18.109  13.300  14.228
14529W        W82923  34.737  22.191  14.161
14530W        W82924  28.678   3.860  10.735
14531W        W82925   7.355  22.393   4.082
14532W        W82926  30.491   1.949  10.882
14533W        W82927   8.401  43.381  11.888
14534W        W82928  23.817  39.955   4.283
14535W        W82929   3.966  13.600   2.266
14536W        W82930  38.297  38.535  10.620
14537W        W82931  14.351  32.004  11.953
14538W        W82932  25.162  33.898  13.063
14539W        W82933  41.256  15.080   1.700
14540W        W82934  14.731  23.479  12.333
14541W        W82935  14.036  27.054   2.229
14542W        W82936  10.746  42.869   2.266
14543W        W82937  14.100  21.535  11.668
14544W        W82938  24.389  39.509   1.199
14545W        W82939  10.407  11.438   1.643
14546W        W82940  42.274  15.159   4.344
14547W        W82941  39.074   5.307   4.104
14548W        W82942  37.459  29.154  10.709
14549W        W82943   5.671  33.139  10.684
14550W        W82944  25.183  38.487  11.501
14551W        W82945  24.768  39.111  13.909
14552W        W82946  21.393   1.375  11.575
14553W        W82947  11.310  16.698   3.680
14554W        W82948  38.486  32.992   3.461
14555W        W82949  27.183  19.171  12.561
14556W        W82950  23.602  36.077   0.375
14557W        W82951  28.435  37.406   0.390
14558W        W82952  38.141  43.582  10.896
14559W        W82953  10.819  43.990  11.293
14560W        W82954   3.445  28.853   4.113
14561W        W82955   1.355  21.145  13.500
14562W        W82956  32.106   2.662  12.368
14563W        W82957  41.065  36.697  14.389
14564W        W82958  28.335  21.183  11.018
14565W        W82959  16.995   5.842   0.828
14566W        W82960   7.483  32.013  11.053
14567W        W82961  33.095  12.818  14.819
14568W        W82962  22.221  38.873   4.508
14569W        W82963  20.624   7.603  11.077
14570W        W82964  28.913  20.015   2.820
14571W        W82965  11.898   5.555   4.543
14572W        W82966  23.561  24.737  13.423
14573W        W82967  36.884  22.209   2.003
14574W        W82968  19.251  31.201  13.503
14575W        W82969  37.795  24.896   3.153
14576W        W82970  19.616  37.982  12.968
14577W        W82971  20.416  35.755   1.303
14578W        W82972  24.762  40.422  13.733
14579W        W82973  16.467  40.599  10.998
14580W        W82974  24.291   6.654  13.063
14581W        W82975  20.294   8.628  13.915
14582W        W82976   3.179  35.443  12.986
14583W        W82977  26.114   2.030   2.226
14584W        W82978  19.914  26.065   5.608
14585W        W82979  32.259  23.080  11.933
14586W        W82980   7.259   3.843  13.390
14587W        W82981  33.189   1.119  11.125
14588W        W82982  37.071  41.425  12.897
14589W        W82983  44.038  25.779  12.515
14590W        W82984   6.146  38.638  12.430
14591W        W82985  28.934  19.192  13.794
14592W        W82986   6.019   6.324   1.895
14593W        W82987  31.658  17.728   0.414
14594W        W82988   3.818  30.618   4.680
14595W        W82989  19.380   4.424   3.289
14596W        W82990  31.555  42.460   4.883
14597W        W82991  25.035   2.725   3.603
14598W        W82992  27.080   4.624   1.007
14599W        W82993   8.114   9.054   1.457
14600W        W82994   0.111   4.382   4.744
14601W        W82995   4.223   5.288   3.676
14602W        W82996  40.660  30.523   2.826
14603W        W82997  36.668  36.036  11.633
14604W        W82998  40.573  41.473  13.518
14605W        W82999  31.642   4.038   3.809
14606W        W83000  20.696  27.503   2.319
14607W        W83001  17.133   2.293   0.320
14608W        W83002  38.972  30.919  10.172
14609W        W83003  42.513  35.880   4.117
14610W        W83004  37.658  37.445   5.004
14611W        W83005  13.833   4.821   0.535
14612W        W83006  21.118  43.555   4.255
14613W        W83007  24.750  28.375  14.041
14614W        W83008  28.638  35.600  12.478
14615W        W83009  20.156  35.404   4.571
14616W        W83010  24.088  35.912   3.262
14617W        W83011  21.759   7.826  14.982
14618W        W83012  35.401   5.832   0.921
14619W        W83013   1.165  17.777   3.644
14620W        W83014  28.105  28.178   0.868
14621W        W83015  32.716  22.083   1.963
14622W        W83016   6.165  38.470  13.998
14623W        W83017  31.930  24.955  12.007
14624W        W83018  43.868  37.289  14.277
14625W        W83019   1.672  37.046  13.135
14626W        W83020  43.392  16.234  12.940
14627W        W83021  14.567  25.656  13.556
14628W        W83022  18.560   2.938   1.480
14629W        W83023  14.144  25.684  13.235
14630W        W83024  23.609  18.672   2.344
14631W        W83025  18.792  30.165  12.847
14632W        W83026   1.355  37.421  12.952
14633W        W83027  21.801  27.001  12.996
14634W        W83028  40.932  25.003   3.703
14635W        W83029  31.088  17.344  10.869
14636W        W83030  24.121  24.219  12.610
14637W        W83031  14.161  16.831   2.998
14638W        W83032  19.182   9.885   0.882
14639W        W83033   9.555  29.919   1.698
14640W        W83034  38.567  18.646  14.323
14641W        W83035  42.957  11.614   2.707
14642W        W83036  31.703   7.340  11.193
14643W        W83037  35.525  13.611   1.843
14644W        W83038   9.822   1.919   3.896
14645W        W83039   7.832  43.297  14.452
14646W        W83040  21.206  43.318   1.202
14647W        W83041  44.763  24.170   2.798
14648W        W83042  35.124  31.429  14.803
14649W        W83043  42.434  41.783  11.464
14650W        W83044   0.746  41.740  13.401
14651W        W83045  24.997   5.357   1.162
14652W        W83046   2.617  24.581  11.206
14653W        W83047   6.690  37.124   0.272
14654W        W83048  21.994  11.125  12.860
14655W        W83049  42.578  18.222  10.667
14656W        W83050   9.949  40.380  11.639
14657W        W83051  37.522  42.748  14.989
14658W        W83052   1.845  10.151   1.751
14659W        W83053  38.280  32.635   1.749
14660W        W83054  37.451   8.004  14.290
14661W        W83055  18.762  27.101  13.782
14662W        W83056   7.383  10.091  11.171
14663W        W83057  40.297   6.375   3.637
14664W        W83058  32.919  41.352  13.519
14665W        W83059  26.669  43.722  13.005
14666W        W83060  43.227   7.861   4.144
14667W        W83061  16.462   7.162  10.861
14668W        W83062   6.311   4.960   1.554
14669W        W83063   7.338  42.237  11.171
14670W        W83064  42.466  31.640   4.283
14671W        W83065  31.333  22.157  12.064
14672W        W83066  20.230   7.626  12.996
14673W        W83067  27.719  42.208  14.867
14674W        W83068  42.048  24.989   0.920
14675W        W83069  31.137   9.605   2.230
14676W        W83070  37.371   2.799   0.882
14677W        W83071   0.564  15.301  10.774
14678W        W83072   0.283  31.760  13.392
14679W        W83073  13.283  18.142  10.796
14680W        W83074  44.180  23.653   2.127
14681W        W83075  21.631  43.552   0.914
14682W        W83076  21.778  42.297  12.031
14683W        W83077   1.675  22.003   2.824
14684W        W83078  13.259  44.910  12.809
14685W        W83079   9.919  43.310  10.758
14686W        W83080  41.905  42.583  10.693
14687W        W83081   0.674  43.431   4.088
14688W        W83082  32.088   4.765   2.365
14689W        W83083  17.541   6.492   3.079
14690W        W83084  32.127   8.730  11.881
14691W        W83085   6.408   4.486   2.409
14692W        W83086  41.529  36.369  10.699
14693W        W83087  32.926  40.227  11.680
14694W        W83088  28.265  40.413  11.509
14695W        W83089  10.657  18.213  11.942
14696W        W83090  41.610   8.402   3.673
14697W        W83091   8.839   9.316   3.709
14698W        W83092  14.737   1.032   2.106
14699W        W83093  28.636  22.079  14.773
14700W        W83094  14.061  33.256  14.608
14701W        W83095  22.741  41.599  12.550
14702W        W83096  21.270  14.163   2.806
14703W        W83097  41.555  36.898  14.443
14704W        W83098  20.577  13.797   3.585
14705W        W83099  22.342  13.381   0.907
14706W        W83100  27.078  23.993   2.769
14707W        W83101  30.650  41.228  12.541
14708W        W83102  41.667  35.139   1.645
14709W        W83103  36.178   8.862  11.090
14710W        W83104  33.951  27.506   0.022
14711W        W83105  10.699  43.795   3.253
14712W        W83106  23.421  30.451   1.583
14713W        W83107  41.951  25.405   3.770
14714W        W83108  17.223  33.116  11.175
14715W        W83109   8.414  17.659   4.964
14716W        W83110   9.844  27.201  12.502
14717W        W83111  23.885  26.983   2.646
14718W        W83112  43.218  10.872   4.182
14719W        W83113  24.609  41.663   4.417
14720W        W83114  43.899  14.620   0.389
14721W        W83115   2.530   8.090  12.500
14722W        W83116  44.984  31.226  14.003
14723W        W83117  14.842   3.106   5.278
14724W        W83118   3.198  14.550  12.555
14725W        W83119  17.299   8.745  14.741
14726W        W83120  36.331  31.462   2.186
14727W        W83121  27.954  40.900   4.885
14728W        W83122  24.214  16.088   4.261
14729W        W83123  20.761  11.241   0.528
14730W        W83124  32.062  39.765   0.517
14731W        W83125  40.929  20.200  14.561
14732W        W83126  18.534   9.772  13.005
14733W        W83127  28.003  23.242  13.119
14734W        W83128  33.079  13.042  14.339
14735W        W83129  41.278  16.348   3.263
14736W        W83130  36.826   1.832   2.711
14737W        W83131  24.153  39.308  12.163
14738W        W83132  24.586  11.648  13.910
14739W        W83133  34.080   2.825  11.555
14740W        W83134  29.913  12.141  11.152
14741W        W83135   9.296  39.920  14.765
14742W        W83136  16.624  29.583   1.327
14743W        W83137  29.593   0.512  11.046
14744W        W83138  37.799  18.102   4.212
14745W        W83139   0.976   0.277  13.003
14746W        W83140  35.392  44.835   3.732
14747W        W83141  25.137   8.779  12.888
14748W        W83142  34.067  42.098   2.263
14749W        W83143  36.762  19.351   3.732
14750W        W83144   8.299   0.794   0.385
14751W        W83145  36.301  10.760   4.372
14752W        W83146  41.311  13.298   1.414
14753W        W83147  16.253  15.091  14.141
14754W        W83148  42.233  29.892   1.810
14755W        W83149   6.711  41.967   4.737
14756W        W83150  43.224  44.233   2.297
14757W        W83151  15.545  31.580   1.510
14758W        W83152  36.294   7.510  12.419
14759W        W83153  17.146  12.929  13.391
14760W        W83154   7.869  25.406  13.921
14761W        W83155  10.899  22.973  12.003
14762W        W83156   2.447  44.244   3.296
14763W        W83157  41.461  22.578   0.243
14764W        W83158   1.551  19.510  14.874
14765W        W83159  23.078  38.617   3.881
14766W        W83160  14.869  11.841   2.754
14767W        W83161  12.971  24.179  11.422
14768W        W83162   1.433   4.854   0.874
14769W        W83163  42.940  43.758  11.217
14770W        W83164  22.055  40.469  12.938
14771W        W83165  34.468  15.593   4.708
14772W        W83166   6.337  14.437   1.582
14773W        W83167  36.674  18.119  14.759
14774W        W83168  39.324  39.241  11.303
14775W        W83169  16.222  39.885   3.663
14776W        W83170  13.115  34.843   1.525
14777W        W83171   2.759  22.065  14.801
14778W        W83172  12.724   1.423   3.776
14779W        W83173  40.446  29.906  10.598
14780W        W83174   2.794  41.764  11.524
14781W        W83175  25.254   8.855   2.363
14782W        W83176   5.206  29.686   3.158
14783W        W83177  27.660  24.961   1.449
14784W        W83178   1.002  33.387  13.865
14785W        W83179  44.544   6.767   0.850
14786W        W83180  33.660  31.895   4.216
14787W        W83181   0.332  43.383  13.520
14788W        W83182  35.367  39.854   1.449
14789W        W83183  26.745  32.561  14.886
14790W        W83184  26.193   9.951  13.966
14791W        W83185  21.223  33.072   4.139
14792W        W83186  25.543   5.404   0.671
14793W        W83187  42.998  25.416  10.918
14794W        W83188  25.775   9.937  14.769
14795W        W83189  16.696  23.256   1.639
14796W        W83190   2.335  26.844  10.534
14797W        W83191  26.600  12.273  12.087
14798W        W83192   0.879  19.217  13.822
14799W        W83193   6.730  29.691   1.017
14800W        W83194  22.714   0.914  14.930
14801W        W83195  41.046  36.139   2.536
14802W        W83196   0.514  36.691   1.647
14803W        W83197  11.197  16.259   4.530
14804W        W83198  37.792  18.637   3.318
14805W        W83199  24.056  20.205  11.663
14806W        W83200  42.054  15.557  11.624
14807W        W83201   7.808  37.520   1.942
14808W        W83202  34.066  12.206   4.909
14809W        W83203   5.792  19.685   4.141
14810W        W83204  19.124  29.707  13.326
14811W        W83205  38.866  39.482  11.161
14812W        W83206   8.314  34.136  10.907
14813W        W83207  26.061  38.595  11.306
14814W        W83208  39.292  29.644   2.783
14815W        W83209  43.696   6.927   1.269
14816W        W83210  24.601  25.389   1.212
14817W        W83211  14.235  23.555   1.056
14818W        W83212  36.596  23.571   1.371
14819W        W83213  28.988   6.258  13.086
14820W        W83214  22.746  31.576  12.018
14821W        W83215  27.919  36.475   1.257
14822W        W83216  32.931   8.100   2.242
14823W        W83217  26.156  30.632  13.292
14824W        W83218  25.595  42.181  10.368
14825W        W83219  29.427   8.998   3.050
14826W        W83220   9.639  22.267   0.910
14827W        W83221  28.013   7.299   4.622
14828W        W83222  13.965   4.373   0.253
14829W        W83223  19.559  26.153   3.711
14830W        W83224  30.053  11.287   2.920
14831W        W83225  37.104  37.333   3.243
14832W        W83226  18.195  17.881   1.333
14833W        W83227   7.665  17.242   1.370
14834W        W83228  37.438  10.408  14.282
14835W        W83229  18.237  28.611  13.317
14836W        W83230  28.929  40.878  12.454
14837W        W83231  36.025  13.829  13.421
14838W        W83232  18.089  30.143  13.334
14839W        W83233  28.508  28.839  11.570
14840W        W83234   9.423  39.895   2.248
14841W        W83235  25.670  36.394  14.817
14842W        W83236  40.242  41.030   4.646
14843W        W83237  16.140  11.532   1.316
14844W        W83238  35.353  13.215  14.329
14845W        W83239   0.831  37.564  10.131
14846W        W83240  14.825  14.167   2.846
14847W        W83241   5.998   6.937   0.758
14848W        W83242  41.060   6.948  14.765
14849W        W83243   8.646  15.697  12.291
14850W        W83244  16.060  27.150   3.330
14851W        W83245  26.172   8.794  14.492
14852W        W83246   9.252  35.884  14.804
14853W        W83247  33.381  18.166   4.246
14854W        W83248  32.097  39.599  11.599
14855W        W83249  14.370  41.628  11.058
14856W        W83250  32.608  22.156   0.938
14857W        W83251  26.044  14.077  14.755
14858W        W83252  33.930  36.417  11.437
14859W        W83253  40.539  32.565   0.011
14860W        W83254  37.909  40.748  12.104
14861W        W83255  26.920  25.385  11.559
14862W        W83256  37.306  11.276  14.735
14863W        W83257  44.595   1.829   0.302
14864W        W83258  19.783   9.901  13.484
14865W        W83259   8.518   5.114   4.918
14866W        W83260  42.564   0.360  11.105
14867W        W83261  35.551  37.159  12.951
14868W        W83262  42.496  25.139   0.689
14869W        W83263  31.040  44.805   4.381
14870W        W83264  32.689  12.561  13.010
14871W        W83265  39.199   3.521  13.099
14872W        W83266  10.182  24.104   0.429
14873W        W83267  39.175  24.219   0.916
14874W        W83268  25.140  22.320   4.646
14875W        W83269   1.931   9.663   3.587
14876W        W83270  31.552  24.542   3.430
14877W        W83271  22.581  31.571  11.163
14878W        W83272  41.282  28.253  13.956
14879W        W83273   3.915   6.315  12.121
14880W        W83274  14.364  15.618   2.241
14881W        W83275  23.510   3.338  11.026
14882W        W83276  28.630  31.433   1.238
14883W        W83277  18.553  14.807  13.514
14884W        W83278  16.811  39.688   0.722
14885W        W83279  29.636  22.249   1.757
14886W        W83280  36.038  26.297   0.693
14887W        W83281   3.150   4.890   4.618
14888W        W83282   6.738  20.108  10.743
14889W        W83283   2.782  20.081   2.719
14890W        W83284  35.468   5.636  14.326
14891W        W83285  32.471  19.085  14.400
14892W        W83286  20.643  15.894   2.883
14893W        W83287  36.437  28.838  12.516
14894W        W83288  19.010  11.197   0.425
14895W        W83289  27.128  36.344  12.081
14896W        W83290  15.277  16.105  10.632
14897W        W83291   5.760  14.695   0.418
14898W        W83292   1.054   5.097   0.602
14899W        W83293   7.676   0.693   2.839
14900W        W83294  17.062  21.283  14.326
14901W        W83295  17.786  26.617   0.913
14902W        W83296  17.278  27.417  10.024
14903W        W83297  31.377  11.854   1.214
14904W        W83298  12.666  29.002   1.927
14905W        W83299  26.898  32.453   3.754
14906W        W83300  30.400  21.448   1.370
14907W        W83301  21.895  27.589   4.147
14908W        W83302  40.804  24.078  13.064
14909W        W83303  41.666  10.695  10.967
14910W        W83304   7.395  34.491   4.604
14911W        W83305  17.236  25.630   1.928
14912W        W83306  23.548   3.172   1.850
14913W        W83307   3.761   2.784   0.344
14914W        W83308  15.496  20.127  14.021
14915W        W83309   9.644  20.606  11.436
14916W        W83310  10.405  36.384  14.821
14917W        W83311  21.987   3.877  11.626
14918W        W83312  42.110  34.108   2.391
14919W        W83313  24.125  32.828  11.850
14920W        W83314  28.374  21.543  13.555
14921W        W83315  36.579   7.985  14.823
14922W        W83316   6.744  27.713  13.873
14923W        W83317  31.065  32.123  14.405
14924W        W83318  38.034  21.583  12.107
14925W        W83319  31.505   4.388  12.052
14926W        W83320  13.405  43.312  13.666
14927W        W83321  14.928  14.893   4.196
14928W        W83322  37.048  24.686  14.888
14929W        W83323  43.522  29.047   4.337
14930W        W83324  31.221  43.450   2.813
14931W        W83325   8.203  42.632   4.301
14932W        W83326   1.428  18.132   0.769
14933W        W83327  12.186  28.639  12.568
14934W        W83328   7.911  21.302  12.408
14935W        W83329  21.627   9.579   3.504
14936W        W83330  23.454   7.959  14.424
14937W        W83331   8.995  28.656   0.734
14938W        W83332  26.955  14.565   0.778
14939W        W83333   0.248  22.585  14.954
14940W        W83334   3.954  40.890   1.764
14941W        W83335  31.410  15.789  11.955
14942W        W83336   5.080  25.144  10.544
14943W        W83337   9.231  11.666   9.844
14944W        W83338  32.929  12.644   4.231
14945W        W83339   0.549  31.555   2.691
14946W        W83340  20.859   7.687   1.563
14947W        W83341  42.895  15.221   3.911
14948W        W83342  41.197  11.976  14.803
14949W        W83343  17.128  14.145   3.283
14950W        W83344  14.588   5.094   4.100
14951W        W83345  23.877  16.546  11.619
14952W        W83346  25.958  17.739   4.594
14953W        W83347   2.955  13.011   2.831
14954W        W83348  31.393   3.183  12.358
14955W        W83349  36.663   9.800  12.482
14956W        W83350  38.270  25.156  13.553
14957W        W83351   0.164  41.603   2.955
14958W        W83352  39.976  30.518  10.500
14959W        W83353   7.188   2.291   4.367
14960W        W83354  13.561  17.384  13.777
14961W        W83355  35.016  15.385   4.362
14962W        W83356  33.139  21.076  10.439
14963W        W83357  42.035  27.951   1.791
14964W        W83358  31.617  33.250  10.852
14965W        W83359   3.676  31.402  13.794
14966W        W83360   5.892   5.695  10.812
14967W        W83361  44.687  14.328  10.564
14968W        W83362   6.643  13.698   0.467
14969W        W83363  15.362  41.412   3.562
14970W        W83364  12.375  34.929   1.932
14971W        W83365  29.165  41.443  13.105
14972W        W83366   2.658  41.475   1.923
14973W        W83367  27.696  19.301   0.659
14974W        W83368  32.396  11.771   4.254
14975W        W83369   1.512  22.254  11.221
14976W        W83370  30.824  16.182   4.732
14977W        W83371  19.644  24.007   2.619
14978W        W83372  31.847  31.988  10.351
14979W        W83373  33.312   8.490   1.353
14980W        W83374  41.906  38.116   2.203
14981W        W83375   4.281  39.631   3.710
14982W        W83376  32.066   5.392   3.791
14983W        W83377   8.536  43.137   0.693
14984W        W83378   0.936   4.251   2.286
14985W        W83379  17.635  19.013   4.501
14986W        W83380  27.501  39.596  14.082
14987W        W83381  25.577  37.625   0.673
14988W        W83382  11.436  12.709  11.511
14989W        W83383   2.264  10.768  12.089
14990W        W83384   7.986  32.884  14.541
14991W        W83385  14.550  19.738   2.699
14992W        W83386  14.491  12.641   5.031
14993W        W83387  26.454   2.066   0.774
14994W        W83388   9.550  23.684  12.045
14995W        W83389  20.523  36.122   3.161
14996W        W83390  44.862  33.820   2.741
14997W        W83391  15.653  28.471   3.256
14998W        W83392   4.132  36.569  13.994
14999W        W83393  17.110  20.593   1.958
15000W        W83394  43.474  12.656  11.180
15001W        W83395  19.062  21.803  10.425
15002W        W83396  18.856  15.796  14.185
15003W        W83397   7.113  13.831   0.707
15004W        W83398   3.511  20.772  11.831
15005W        W83399   4.151  40.595   1.352
15006W        W83400  40.097   4.727   2.573
15007W        W83401   5.516  32.841  11.103
15008W        W83402  25.350  15.699  11.667
15009W        W83403  25.004  41.802  11.968
15010W        W83404  29.999  15.297  10.725
15011W        W83405  30.087  35.529   3.159
15012W        W83406  38.424  21.090  14.836
15013W        W83407  42.354  40.410   2.366
15014W        W83408  22.163  37.301   4.685
15015W        W83409  15.318   5.967   2.372
15016W        W83410  33.904  15.433  12.490
15017W        W83411  17.827  39.157  12.002
15018W        W83412   2.737  28.924   1.961
15019W        W83413  20.827  28.679  10.722
15020W        W83414   4.849  16.262   4.874
15021W        W83415  25.036  11.406  14.319
15022W        W83416  20.770  44.364  10.537
15023W        W83417  36.631  21.189  10.235
15024W        W83418  38.381  44.368   3.837
15025W        W83419  20.605  21.070  11.387
15026W        W83420  12.217  17.674   0.984
15027W        W83421  18.736  22.764   4.005
15028W        W83422  22.538  22.006   4.136
15029W        W83423  34.597   9.814  11.609
15030W        W83424  14.345  37.862  12.441
15031W        W83425  29.951  27.191  11.160
15032W        W83426  32.971  30.628  12.033
15033W        W83427  31.558  42.971   0.431
15034W        W83428   8.347  19.282   0.331
15035W        W83429  21.506   4.728  14.764
15036W        W83430   5.342   7.119   2.281
15037W        W83431  44.812   5.691  12.237
15038W        W83432  43.420   7.349   4.952
15039W        W83433  30.930  18.670  14.604
15040W        W83434  44.122  30.794   3.637
15041W        W83435  17.104  19.776   2.946
15042W        W83436  12.380  35.333   3.201
15043W        W83437  27.640  25.456   2.693
15044W        W83438  13.883  10.443  13.138
15045W        W83439  37.290  36.097   4.184
15046W        W83440  10.461  11.162   2.348
15047W        W83441  39.830  19.764   3.396
15048W        W83442   5.812   6.199  10.711
15049W        W83443  33.442  33.000  11.198
15050W        W83444  40.527  35.375   2.298
15051W        W83445  39.610  41.477  11.646
15052W        W83446  12.065  12.892   1.472
15053W        W83447   8.813   6.189  14.953
15054W        W83448  25.806   1.961  13.044
15055W        W83449  35.406   4.179   4.022
15056W        W83450  32.530  26.976  12.203
15057W        W83451   1.958  35.704   2.612
15058W        W83452   7.745  36.105   4.779
15059W        W83453  23.535   3.204  14.357
15060W        W83454   6.910  32.763   0.484
15061W        W83455  17.278  33.756   0.876
15062W        W83456  19.999  39.661  12.488
15063W        W83457   9.531  38.260   2.621
15064W        W83458  26.423  20.093   2.868
15065W        W83459   3.528  11.315   4.773
15066W        W83460  15.370   4.388  14.445
15067W        W83461  43.789  33.966   0.307
15068W        W83462  17.242  37.521  14.042
15069W        W83463   7.068   6.224  10.653
15070W        W83464  31.935  12.684   4.094
15071W        W83465  38.784   0.542   0.081
15072W        W83466  42.730  10.181  15.000
15073W        W83467  25.692   1.675  11.445
15074W        W83468  12.484  17.761  14.170
15075W        W83469   3.926  27.518  11.550
15076W        W83470  15.316  43.387   3.349
15077W        W83471   4.745  28.485   4.294
15078W        W83472   7.160  15.693   3.195
15079W        W83473  16.147  19.567  11.163
15080W        W83474  25.625   0.490  14.742
15081W        W83475  34.116   3.323   2.169
15082W        W83476  15.841  24.592  12.206
15083W        W83477  43.054  30.659   2.305
15084W        W83478  21.471  37.054   4.523
15085W        W83479  34.132  23.157  12.175
15086W        W83480  33.947  38.266  11.252
15087W        W83481  21.159  11.232  10.804
15088W        W83482  24.308   5.821   1.470
15089W        W83483  20.085  19.522  13.100
15090W        W83484   7.026  38.798  11.994
15091W        W83485  38.814  11.692  11.190
15092W        W83486  38.099   1.194   2.660
15093W        W83487  40.975  43.396   2.234
15094W        W83488  27.919  39.659   1.441
15095W        W83489   5.605   3.562  11.205
15096W        W83490  20.004  32.608   0.411
15097W        W83491   2.175  14.633   1.379
15098W        W83492  11.038  12.379  12.957
15099W        W83493  15.100   0.724   2.872
15100W        W83494  19.627  31.998  13.011
15101W        W83495   9.819  29.481   4.653
15102W        W83496  39.387   7.682  11.961
15103W        W83497  28.482  40.824  13.890
15104W        W83498  19.746  22.349   1.676
15105W        W83499  13.703  33.359  10.639
15106W        W83500  29.517  21.442   5.002
15107W        W83501  25.106  13.469   4.298
15108W        W83502  33.607   0.546   2.020
15109W        W83503  23.531  20.046  12.544
15110W        W83504  10.631   2.540  12.880
15111W        W83505  43.384  34.163  14.388
15112W        W83506  11.255  13.845   3.343
15113W        W83507  32.940  31.827   2.107
15114W        W83508   8.420  31.919  11.038
15115W        W83509  35.387   7.249  13.531
15116W        W83510   6.624  18.810   9.900
15117W        W83511  44.066  27.259   1.356
15118W        W83512  16.263   3.446  12.934
15119W        W83513  32.319  44.321  14.383
15120W        W83514  41.927  25.763  12.904
15121W        W83515   5.431  19.320   1.861
15122W        W83516  11.625  14.645  12.564
15123W        W83517  25.822  11.587   3.197
15124W        W83518   9.891  37.872  13.776
15125W        W83519  25.065  31.426  10.718
15126W        W83520  35.049  27.980   0.782
15127W        W83521   0.198   3.322  14.763
15128W        W83522  15.134  34.821   1.396
15129W        W83523  12.960  12.389  11.183
15130W        W83524   8.329  39.694   2.471
15131W        W83525  38.598   8.982   3.123
15132W        W83526  21.824  43.655  12.401
15133W        W83527  25.046   6.795  14.396
15134W        W83528  40.057  36.802   0.988
15135W        W83529  17.475  25.168   0.968
15136W        W83530  10.450  15.660  11.053
15137W        W83531  36.292   3.524  14.719
15138W        W83532  38.418  17.175   2.786
15139W        W83533  18.333   8.830   2.893
15140W        W83534  16.084  29.966  11.940
15141W        W83535  16.804  30.149   4.199
15142W        W83536  26.455  16.449  14.319
15143W        W83537  26.079  17.839   2.900
15144W        W83538  23.595  34.380   3.618
15145W        W83539  23.166   8.247   0.769
15146W        W83540  14.217  11.156   2.718
15147W        W83541  42.258  23.238  10.939
15148W        W83542  14.027   6.452   2.496
15149W        W83543  31.013  30.173   0.311
15150W        W83544  14.413  32.348  12.598
15151W        W83545  38.915  40.860   2.721
15152W        W83546   1.122  10.070  11.617
15153W        W83547   1.805  17.047  13.022
15154W        W83548  15.403  36.839   4.201
15155W        W83549  35.164   1.596   2.881
15156W        W83550  44.998  33.541  13.903
15157W        W83551  40.005  14.177   2.620
15158W        W83552  43.728  32.393   4.040
15159W        W83553  23.518  27.016   1.851
15160W        W83554  34.205  37.877   0.515
15161W        W83555   5.891  15.780   0.388
15162W        W83556  27.828  24.674  12.803
15163W        W83557  12.277  33.405   2.912
15164W        W83558  38.419  20.775  11.954
15165W        W83559  13.038   2.548  12.389
15166W        W83560  43.417  35.428  10.552
15167W        W83561  10.750  43.949  13.498
15168W        W83562   7.979   3.191  11.165
15169W        W83563  10.645  22.071   0.283
15170W        W83564   9.311  29.907  13.954
15171W        W83565  23.593  32.538   3.197
15172W        W83566   4.973   5.634  10.576
15173W        W83567  22.799  40.482  14.284
15174W        W83568  18.072  12.543  12.592
15175W        W83569  21.158  22.906   2.572
15176W        W83570   9.315   2.498   3.083
15177W        W83571  35.379   0.857  11.635
15178W        W83572  39.384  22.350   4.125
15179W        W83573   7.864  34.353  14.042
15180W        W83574  33.225   0.985   0.500
15181W        W83575  34.908  26.483   4.774
15182W        W83576   4.192  33.516   2.100
15183W        W83577  16.457   4.179   2.742
15184W        W83578  18.692  20.616   3.317
15185W        W83579  19.483  11.227  12.649
15186W        W83580  22.139  16.615   3.387
15187W        W83581  41.287  16.546   4.131
15188W        W83582  13.306  26.719  12.892
15189W        W83583   0.912  27.917   1.877
15190W        W83584  24.682  26.082  13.189
15191W        W83585  29.122  20.726   4.407
15192W        W83586  20.925   1.860  14.159
15193W        W83587   9.841  13.222   0.208
15194W        W83588  11.393  30.298  13.997
15195W        W83589  40.591  34.863   2.377
15196W        W83590  29.035   2.375   3.037
15197W        W83591  39.686  12.780   3.680
15198W        W83592  18.737  17.734   0.537
15199W        W83593  24.483  23.641  13.647
15200W        W83594   1.821  25.634   3.154
15201W        W83595  10.407  28.757  10.398
15202W        W83596   8.211  44.375   0.282
15203W        W83597  28.240  26.777   2.749
15204W        W83598   2.500  17.945   2.416
15205W        W83599  42.262  38.113   3.733
15206W        W83600  19.001  15.664  14.981
15207W        W83601  33.381   9.599  13.490
15208W        W83602  37.217   4.911   4.653
15209W        W83603   3.361  25.650   4.760
15210W        W83604  44.286   0.998   1.906
15211W        W83605  18.673   0.374   0.922
15212W        W83606  38.372   7.086   2.999
15213W        W83607  39.983  12.918   1.439
15214W        W83608  33.491  32.881  13.391
15215W        W83609  17.260   0.071   3.249
15216W        W83610   9.666  22.337   4.423
15217W        W83611  26.882   8.807   3.150
15218W        W83612  13.675  32.679   2.387
15219W        W83613  29.687  39.039   0.791
15220W        W83614  29.112  10.661   0.514
15221W        W83615   9.512  26.025  11.457
15222W        W83616   0.879  27.680  14.414
15223W        W83617  25.620   8.886   4.524
15224W        W83618  30.254  26.875   4.508
15225W        W83619  28.936   2.865  13.568
15226W        W83620  31.545  42.296  11.252
15227W        W83621  13.372  26.137   0.461
15228W        W83622  13.692   6.496  12.535
15229W        W83623   7.064  12.610  13.333
15230W        W83624   7.205  39.252   0.380
15231W        W83625  16.297  26.652  12.560
15232W        W83626  36.995   3.747   4.206
15233W        W83627   9.873  15.008   4.063
15234W        W83628  37.919  43.453  13.064
15235W        W83629  40.703  18.588   1.215
15236W        W83630  39.983  23.142   1.253
15237W        W83631  44.668  31.514   0.838
15238W        W83632  15.175  28.017  12.335
15239W        W83633  21.570  27.470   3.445
15240W        W83634  30.634  42.572  11.221
15241W        W83635  34.205  20.004   4.483
15242W        W83636  18.008  32.143  13.575
15243W        W83637  28.637   1.439   5.551
15244W        W83638  27.409  37.979  13.055
15245W        W83639   1.490  33.670   4.139
15246W        W83640  32.907  40.541   3.827
15247W        W83641  32.528  14.830  10.495
15248W        W83642  35.932  34.581   0.870
15249W        W83643  40.420  11.349   2.836
15250W        W83644   8.956  10.280   4.459
15251W        W83645  33.417  37.796   0.816
15252W        W83646  42.184  24.834   2.844
15253W        W83647  18.718  37.071  10.971
15254W        W83648  11.591  27.124  13.417
15255W        W83649   5.354   8.609   2.700
15256W        W83650  18.598   0.993  14.489
15257W        W83651   0.253  18.089   0.101
15258W        W83652  15.545   9.435   2.740
15259W        W83653  25.217  22.034  10.292
15260W        W83654  27.949  32.150   2.323
15261W        W83655  32.943  42.831   4.682
15262W        W83656  16.325  42.522  10.723
15263W        W83657  37.354  29.548   3.888
15264W        W83658  40.836   9.080  14.004
15265W        W83659  12.211  35.864   3.145
15266W        W83660  13.718  28.399  13.330
15267W        W83661  24.553  25.549  14.368
15268W        W83662  44.662  27.568  14.944
15269W        W83663  42.493  38.351   3.360
15270W        W83664   8.100  40.473  11.008
15271W        W83665  22.532  35.549   2.300
15272W        W83666  31.112  27.103  10.891
15273W        W83667  41.319  30.014   2.599
15274W        W83668  30.171  15.780  12.694
15275W        W83669  19.975  41.157  12.553
15276W        W83670  11.183  10.509  14.829
15277W        W83671  13.490   6.995  11.204
15278W        W83672  29.455  28.792   3.587
15279W        W83673   1.209   2.743   3.311
15280W        W83674  35.372  41.613  14.155
15281W        W83675  12.723  24.274   3.663
15282W        W83676  21.745  18.008  10.896
15283W        W83677  35.919  18.987   4.985
15284W        W83678  29.346   1.495  14.439
15285W        W83679  14.430   4.358   2.426
15286W        W83680  31.633  44.766  11.085
15287W        W83681  41.931  22.000   2.835
15288W        W83682  10.563  31.086   0.337
15289W        W83683   1.970   6.840   4.547
15290W        W83684  11.794  23.778   4.056
15291W        W83685   3.465  28.207  13.028
15292W        W83686  26.012  34.344  13.462
15293W        W83687  42.786  30.314  14.587
15294W        W83688  17.420  13.330   0.454
15295W        W83689  19.815  10.444   3.767
15296W        W83690   1.779  37.509   3.316
15297W        W83691   7.154  40.574  10.725
15298W        W83692  11.699  24.407   1.379
15299W        W83693  27.483  12.044  10.558
15300W        W83694  21.632  30.790   2.923
15301W        W83695  24.913  16.969   1.467
15302W        W83696   7.847  44.862  14.875
15303W        W83697  15.095  44.791   0.189
15304W        W83698  30.857   5.758   0.685
15305W        W83699  43.809  34.878   4.352
15306W        W83700  43.984  42.463   0.044
15307W        W83701  21.221  17.231   1.938
15308W        W83702  41.586  12.161   4.478
15309W        W83703  28.189  32.148  11.888
15310W        W83704  18.024  17.569  12.082
15311W        W83705  42.342  26.802   1.667
15312W        W83706   0.346  12.336   2.618
15313W        W83707  19.241  37.386  10.643
15314W        W83708  28.328  40.494   5.051
15315W        W83709   3.672  10.765   2.818
15316W        W83710  17.184   0.876   4.516
15317W        W83711  33.605  12.890   2.447
15318W        W83712  29.823  42.059  11.548
15319W        W83713  27.092  35.666   2.573
15320W        W83714  26.622   3.379   2.806
15321W        W83715   5.289  17.085   5.416
15322W        W83716  28.321  30.363   4.804
15323W        W83717  19.046  11.649  13.709
15324W        W83718  44.477  29.576   2.797
15325W        W83719  41.239  34.001  10.615
15326W        W83720  35.868  17.091   3.980
15327W        W83721  43.108  13.689  14.476
15328W        W83722  25.013   7.638   1.056
15329W        W83723   1.615  41.353  14.703
15330W        W83724  18.270  32.118   0.421
15331W        W83725  11.920  22.685   4.610
15332W        W83726  30.067  36.171   4.367
15333W        W83727  44.781  12.086   3.775
15334W        W83728  35.898  23.172   1.371
15335W        W83729  34.602  37.746  11.146
15336W        W83730  21.622   2.565   2.841
15337W        W83731  32.643   9.038   4.158
15338W        W83732   5.965  39.973  11.452
15339W        W83733  29.423   0.502   1.672
15340W        W83734  29.994  32.662  14.474
15341W        W83735  27.156  37.779  14.284
15342W        W83736  32.254  26.016   2.099
15343W        W83737  15.983  26.187  10.369
15344W        W83738  20.709   2.785  12.074
15345W        W83739  19.860  15.315  12.569
15346W        W83740  29.731  17.643  11.469
15347W        W83741  39.828  28.695  11.441
15348W        W83742   2.695  18.999   1.899
15349W        W83743  44.334  38.508  10.819
15350W        W83744  35.626  12.325   3.704
15351W        W83745  35.157  25.374  14.907
15352W        W83746  19.593  26.572  11.144
15353W        W83747   9.472  42.385   4.929
15354W        W83748   9.447   7.196  14.334
15355W        W83749  22.794  30.569  14.468
15356W        W83750  43.455   7.820   3.700
15357W        W83751  30.873   5.125  11.468
15358W        W83752  31.734   1.703   1.943
15359W        W83753  30.830  44.333  14.185
15360W        W83754  10.761   0.363   1.915
15361W        W83755   9.719  19.584   0.830
15362W        W83756  30.047  12.658  14.027
15363W        W83757   2.783   0.979   4.089
15364W        W83758  26.010  15.761  13.093
15365W        W83759   5.238  33.545   4.510
15366W        W83760   0.498  23.017  12.551
15367W        W83761   2.185   5.732  11.990
15368W        W83762  35.096  44.216  12.978
15369W        W83763  15.359  23.688   2.703
15370W        W83764  23.696   2.845  13.998
15371W        W83765  20.786  30.169  13.883
15372W        W83766  39.077  44.396   0.789
15373W        W83767  31.376  19.465   2.676
15374W        W83768  32.824  21.307  10.071
15375W        W83769  25.986  16.864  14.951
15376W        W83770  24.377  17.469   3.643
15377W        W83771  15.687  22.203  14.048
15378W        W83772  39.577  25.710   3.158
15379W        W83773  15.514  26.245   1.871
15380W        W83774  21.135   8.995   1.863
15381W        W83775  22.505  39.941  14.041
15382W        W83776   7.662  36.000   2.309
15383W        W83777  20.299  34.630   3.299
15384W        W83778  34.350  33.109  13.998
15385W        W83779  38.430  36.066  13.009
15386W        W83780  14.413  38.158   0.894
15387W        W83781  27.702   5.210  14.360
15388W        W83782  39.284  27.099  12.002
15389W        W83783  34.038   0.308  13.872
15390W        W83784  44.434  28.019  14.810
15391W        W83785   7.526  25.754   4.065
15392W        W83786  18.982  44.004  14.266
15393W        W83787  14.756  14.670   4.689
15394W        W83788   7.363  23.865  10.901
15395W        W83789  39.578  38.087  11.740
15396W        W83790   8.873  30.096  12.166
15397W        W83791  41.219  34.503  14.861
15398W        W83792  17.607   0.713  10.727
15399W        W83793  20.241  35.834   1.809
15400W        W83794   3.198  34.603   4.086
15401W        W83795   1.879   2.680  13.607
15402W        W83796  18.438   7.790  14.482
15403W        W83797   7.379  24.980  12.939
15404W        W83798  36.115   6.285  14.881
15405W        W83799   0.210   4.325   1.872
15406W        W83800  31.066  19.115   2.348
15407W        W83801  37.418  35.787  11.009
15408W        W83802  20.526  37.597  13.029
15409W        W83803  25.507  34.381   0.807
15410W        W83804   3.758  23.494  14.415
15411W        W83805  23.599  15.072   0.261
15412W        W83806  18.332   3.952  13.302
15413W        W83807  31.968   8.220  14.319
15414W        W83808  32.135  26.707   4.512
15415W        W83809  36.310  16.711  11.977
15416W        W83810  34.873  41.724  14.325
15417W        W83811  38.014  43.692   0.409
15418W        W83812  23.550   4.835  13.401
15419W        W83813  29.220   7.885   2.725
15420W        W83814  34.982  13.686   3.115
15421W        W83815  22.161  38.555  12.068
15422W        W83816  43.981  16.771  12.475
15423W        W83817  39.313  12.606  13.894
15424W        W83818   7.148  14.808  13.619
15425W        W83819  27.904  28.750  14.402
15426W        W83820  18.037  35.916   1.226
15427W        W83821  14.350  27.713   1.699
15428W        W83822   3.960   1.665   2.934
15429W        W83823  27.605  44.897  12.830
15430W        W83824  34.382   9.734   0.381
15431W        W83825   0.189   8.923   0.986
15432W        W83826  26.245  42.568   9.708
15433W        W83827   6.119   5.846  13.803
15434W        W83828  38.106  37.153  14.144
15435W        W83829  25.285  16.729  12.554
15436W        W83830  14.209  19.851  10.530
15437W        W83831  42.443  35.031   3.079
15438W        W83832  20.055   9.069  14.020
15439W        W83833  12.798  28.585   1.648
15440W        W83834  19.503  16.830  14.963
15441W        W83835  34.096  36.506   0.253
15442W        W83836   8.437  33.118   4.214
15443W        W83837  20.361  29.286  11.530
15444W        W83838  36.919  13.528  13.494
15445W        W83839   6.239   1.501  14.592
15446W        W83840  41.916  23.103  12.297
15447W        W83841  28.584  10.375   2.302
15448W        W83842  32.393  12.138   2.369
15449W        W83843  44.542  34.572   0.445
15450W        W83844  12.679   8.756  13.812
15451W        W83845   3.771  25.200   2.229
15452W        W83846   6.686  23.557  10.316
15453W        W83847   4.814  22.185   1.792
15454W        W83848  36.521  12.872   2.404
15455W        W83849   2.268   0.930  14.591
15456W        W83850  26.020   6.224  13.766
15457W        W83851  39.466  14.712   2.287
15458W        W83852  16.485  30.700  11.978
15459W        W83853   6.627  22.246   0.789
15460W        W83854   3.479  32.045   3.754
15461W        W83855  22.344  16.264   0.284
15462W        W83856  13.125  38.655   3.298
15463W        W83857  21.335  26.952   3.745
15464W        W83858  40.941  10.701   1.416
15465W        W83859  14.652  38.357   3.544
15466W        W83860  44.709  19.200  12.529
15467W        W83861   2.992  17.682  12.638
15468W        W83862  16.989   6.129   0.366
15469W        W83863   0.441  20.737   0.365
15470W        W83864   1.485   6.798  13.973
15471W        W83865  36.534  31.849   4.064
15472W        W83866  31.969   2.657   4.142
15473W        W83867  26.934  34.940  12.597
15474W        W83868  25.546  13.347  12.109
15475W        W83869  13.505  25.563   5.139
15476W        W83870  28.994   6.379   3.673
15477W        W83871  34.050  18.809   3.291
15478W        W83872  36.875  14.360   4.017
15479W        W83873  29.720   5.052  12.069
15480W        W83874  37.338  30.897   4.110
15481W        W83875  37.884  23.482   1.960
15482W        W83876  13.097  13.724   3.356
15483W        W83877  41.502   3.378  13.964
15484W        W83878  18.910  44.524   0.807
15485W        W83879   3.205   1.361  12.082
15486W        W83880   3.472  20.367   2.242
15487W        W83881  38.469   2.089   4.074
15488W        W83882   2.716   1.767  14.793
15489W        W83883  37.327  31.172  10.622
15490W        W83884  37.991   9.327   1.026
15491W        W83885  27.051  18.251   0.887
15492W        W83886  28.595  23.646  11.064
15493W        W83887  23.251   0.520   2.382
15494W        W83888  43.537  34.987   1.463
15495W        W83889  11.566  29.313   3.388
15496W        W83890   0.748  17.825   4.465
15497W        W83891  35.498  44.910  10.724
15498W        W83892  36.080  35.829  14.866
15499W        W83893  36.615  19.977  11.221
15500W        W83894   7.039   1.913   3.078
15501W        W83895  12.366  10.350   0.931
15502W        W83896  12.709  18.406   1.907
15503W        W83897  20.182  13.372   0.492
15504W        W83898  35.198  29.384   4.341
15505W        W83899  35.393   1.767  14.858
15506W        W83900  13.177  19.904   5.245
15507W        W83901  26.868  25.038  11.176
15508W        W83902  22.992  29.600  13.141
15509W        W83903  16.289   3.279   4.068
15510W        W83904   8.481  41.818  14.344
15511W        W83905   8.659   9.168  12.020
15512W        W83906  36.981  11.696   0.390
15513W        W83907   8.640   8.361  14.905
15514W        W83908  39.840  23.970   2.260
15515W        W83909  35.496  32.613   3.338
15516W        W83910  41.893  22.528   0.868
15517W        W83911  25.889  29.607   3.796
15518W        W83912  22.258  39.034   1.719
15519W        W83913  30.633  29.602   4.892
15520W        W83914   0.206  37.118   0.913
15521W        W83915  26.728  28.935  13.055
15522W        W83916  42.107  19.043   2.751
15523W        W83917  16.166  20.257   2.897
15524W        W83918  26.548  43.977  12.517
15525W        W83919  12.204  20.768   2.299
15526W        W83920  35.497  31.169  11.088
15527W        W83921   2.742  22.706  10.829
15528W        W83922  12.385  11.347   4.030
15529W        W83923  23.633  36.879  11.610
15530W        W83924   2.747  34.679  12.991
15531W        W83925   5.420  27.004  13.461
15532W        W83926   7.733   9.413  14.930
15533W        W83927  19.205   3.487  14.806
15534W        W83928   1.260  27.155  10.721
15535W        W83929  14.611  22.539   2.365
15536W        W83930  33.115  29.694  13.743
15537W        W83931  40.136  44.953  13.549
15538W        W83932  13.248  13.190  14.405
15539W        W83933  35.476  23.685   3.114
15540W        W83934   0.837  16.357   3.023
15541W        W83935  34.674  24.202  11.518
15542W        W83936   3.233   1.497   3.387
15543W        W83937  19.843   2.233  14.799
15544W        W83938  37.994  34.250  11.070
15545W        W83939   9.160  24.242  12.450
15546W        W83940  26.823   9.250   9.947
15547W        W83941  15.178   4.664  12.486
15548W        W83942  10.324  15.609  14.497
15549W        W83943   9.215   3.024  10.559
15550W        W83944  42.316  10.379  12.017
15551W        W83945  28.496  28.023   3.614
15552W        W83946  42.456   8.283  14.905
15553W        W83947  10.828  42.474  12.107
15554W        W83948  18.100   9.846   3.723
15555W        W83949   4.178  27.684   0.780
15556W        W83950   0.240  21.669  11.723
15557W        W83951  38.273  10.276   2.719
15558W        W83952  30.909  29.845  13.597
15559W        W83953  22.076  30.700  11.226
15560W        W83954   2.032  13.109  13.747
15561W        W83955  20.816   7.129  11.927
15562W        W83956  13.325  20.162   4.389
15563W        W83957   1.688  40.911   2.751
15564W        W83958   7.179   6.924  13.775
15565W        W83959  40.662  41.897  11.853
15566W        W83960   5.266  24.572   1.781
15567W        W83961   3.619  42.897   2.563
15568W        W83962  36.880  27.207   3.332
15569W        W83963  32.158  23.797  13.800
15570W        W83964   3.084  10.168  11.520
15571W        W83965  29.216   7.887   1.809
15572W        W83966  22.100   8.920  10.643
15573W        W83967   9.824  35.554  13.890
15574W        W83968  11.329  21.167  12.068
15575W        W83969  35.255   8.128   0.493
15576W        W83970  41.570  24.938   4.117
15577W        W83971  16.371   0.359   4.748
15578W        W83972   7.154  19.075  12.286
15579W        W83973   4.349   4.774   0.721
15580W        W83974  14.581  15.163   2.465
15581W        W83975   3.641  44.922  13.856
15582W        W83976  30.647   7.876  14.741
15583W        W83977   1.884   7.732   0.326
15584W        W83978  29.809  29.660   3.620
15585W        W83979   4.456  38.890  12.057
15586W        W83980  36.103   6.149   1.701
15587W        W83981  10.314  36.534   3.159
15588W        W83982   6.638  32.086  13.539
15589W        W83983   6.730  44.302   4.883
15590W        W83984   8.317   6.177  10.238
15591W        W83985  40.638  10.338   1.214
15592W        W83986   4.258   4.180  14.832
15593W        W83987  19.589  24.148   1.118
15594W        W83988  17.805  18.644  13.793
15595W        W83989  12.788  39.883  13.661
15596W        W83990  10.693  34.532  13.035
15597W        W83991  12.033  13.722  11.628
15598W        W83992  22.549  31.874   0.207
15599W        W83993  18.183  15.813  14.852
15600W        W83994  35.036   2.448   1.420
15601W        W83995   0.229   4.881   3.663
15602W        W83996  36.948  41.265  13.782
15603W        W83997   7.106  16.242   3.864
15604W        W83998  37.850  29.582   2.567
15605W        W83999  19.830  23.134   3.279
15606W        W84000  41.252  30.100  11.218
15607W        W84001   8.955  36.996   2.736
15608W        W84002  33.316  14.229  14.964
15609W        W84003   9.615  35.221  12.914
15610W        W84004  39.851  40.567   2.325
15611W        W84005  34.852  43.884  12.143
15612W        W84006  25.305  28.229  11.293
15613W        W84007  28.221   6.827  12.377
15614W        W84008  40.820  18.112   1.463
15615W        W84009   9.920   2.894   0.381
15616W        W84010  28.300  23.353  10.734
15617W        W84011   4.299  14.352   1.786
15618W        W84012  14.145  37.378   1.418
15619W        W84013  23.553  11.885   0.266
15620W        W84014  12.309   4.781   3.221
15621W        W84015  22.023  38.870  13.998
15622W        W84016   5.667  26.234  11.623
15623W        W84017  22.065   5.931   1.629
15624W        W84018  34.823  24.340  11.998
15625W        W84019   5.677  15.917  14.346
15626W        W84020  23.723  37.123  12.064
15627W        W84021  16.026  28.647   2.208
15628W        W84022  31.005   3.385   0.216
15629W        W84023   6.202  31.518  12.858
15630W        W84024   1.687  13.801   0.011
15631W        W84025  43.405  23.058  13.922
15632W        W84026  34.250  44.682  12.089
15633W        W84027  36.294  18.160  14.423
15634W        W84028  11.418  41.936  11.577
15635W        W84029  24.376  44.817  10.755
15636W        W84030  38.067  29.555  14.375
15637W        W84031  42.350   3.155  10.632
15638W        W84032  44.831  14.691  12.489
15639W        W84033   1.300  35.642  14.911
15640W        W84034  21.246  24.170   2.591
15641W        W84035  37.664  16.559   1.840
15642W        W84036   7.853  34.615   2.357
15643W        W84037  39.782  44.995   1.286
15644W        W84038  31.325  28.157  10.737
15645W        W84039   6.497  30.393   3.333
15646W        W84040   7.941  27.895  11.084
15647W        W84041  18.031   3.156  14.442
15648W        W84042   6.365  31.430   4.743
15649W        W84043  27.517  12.886   0.974
15650W        W84044  42.589  23.972  11.228
15651W        W84045  27.579  10.718   2.348
15652W        W84046   5.590  14.579   3.347
15653W        W84047  41.274  19.238   0.758
15654W        W84048  11.824  37.599   1.714
15655W        W84049  32.553  34.538   0.331
15656W        W84050  16.556  33.102  12.869
15657W        W84051  20.498  22.020  11.371
15658W        W84052  40.285  40.220   5.021
15659W        W84053  16.144  28.430   0.596
15660W        W84054   7.168  15.388   4.711
15661W        W84055  12.684  18.276   1.324
15662W        W84056  28.576   3.840  13.121
15663W        W84057  23.153  12.503  11.902
15664W        W84058  33.883  16.313   5.116
15665W        W84059  40.876  12.878  10.577
15666W        W84060   9.706  24.733   2.733
15667W        W84061  41.183  41.270  11.636
15668W        W84062  43.517  37.467   2.210
15669W        W84063   4.283  25.155   2.175
15670W        W84064  34.964   7.512  13.995
15671W        W84065  42.805  17.006   1.467
15672W        W84066   0.288  20.655  13.923
15673W        W84067   0.672  35.891  13.976
15674W        W84068  41.838  35.623   0.191
15675W        W84069  11.467  12.362   4.070
15676W        W84070   9.891  31.644  12.626
15677W        W84071  36.158   1.735  14.443
15678W        W84072  28.938  28.688   2.392
15679W        W84073  21.204  18.717  14.933
15680W        W84074   2.743  41.284  13.644
15681W        W84075   1.261  26.490   0.914
15682W        W84076   0.902  25.948  12.460
15683W        W84077  40.758  42.764  14.979
15684W        W84078  10.261  32.160   3.306
15685W        W84079  18.215  20.126   0.658
15686W        W84080  38.580  17.259  13.627
15687W        W84081  32.435  34.131  10.935
15688W        W84082   2.786  28.661   2.870
15689W        W84083   4.305  18.220   4.086
15690W        W84084  25.128  13.590   0.546
15691W        W84085  34.432   6.663  13.798
15692W        W84086  17.878   1.151   0.790
15693W        W84087   4.943  27.244   2.193
15694W        W84088  32.170  41.266   4.063
15695W        W84089   6.196   0.492   3.251
15696W        W84090  37.275  24.616  10.599
15697W        W84091  19.098  17.406   1.263
15698W        W84092   2.244  13.299   1.233
15699W        W84093  35.645  32.988   0.486
15700W        W84094   3.476  35.365   2.783
15701W        W84095  32.488  15.814  13.489
15702W        W84096  32.885  41.398   0.837
15703W        W84097  38.402   3.138   3.883
15704W        W84098  37.507  44.184  14.811
15705W        W84099  22.788  19.671   5.145
15706W        W84100   5.026  33.018   9.932
15707W        W84101   4.218  33.806  11.017
15708W        W84102  34.054   9.751  14.936
15709W        W84103  30.497  25.234  12.560
15710W        W84104  15.739  24.944   4.703
15711W        W84105  37.386  17.001   1.266
15712W        W84106  18.260  11.556   3.626
15713W        W84107  28.693  26.326   4.523
15714W        W84108   2.454   5.884  13.639
15715W        W84109  14.313  26.339  14.717
15716W        W84110  24.977   9.819  13.365
15717W        W84111   3.903  30.677   0.225
15718W        W84112  43.503   7.377   1.506
15719W        W84113  44.994  37.776   0.902
15720W        W84114   2.275  24.555  14.456
15721W        W84115  18.679  28.478  12.421
15722W        W84116  33.517  22.669   1.392
15723W        W84117   7.482  24.086  13.065
15724W        W84118  13.284  30.931  10.901
15725W        W84119  13.788  12.268  12.853
15726W        W84120  38.081  31.999   5.016
15727W        W84121  32.461  41.754   3.847
15728W        W84122  31.727  40.771  11.932
15729W        W84123  44.354  21.491   1.301
15730W        W84124  42.289  31.056   0.328
15731W        W84125   9.542  43.352  11.123
15732W        W84126  40.005  11.314  13.761
15733W        W84127  39.998  11.453  10.672
15734W        W84128  30.445  40.642  13.875
15735W        W84129  39.245  13.056   3.568
15736W        W84130  34.149  31.300   0.257
15737W        W84131  14.156   2.960  11.259
15738W        W84132  44.611  41.997  11.234
15739W        W84133  38.472  25.992   1.780
15740W        W84134  23.677  43.871   3.394
15741W        W84135  40.970  18.530  11.993
15742W        W84136  10.370   8.815   0.552
15743W        W84137  27.195  38.384  10.473
15744W        W84138  34.453  42.592  14.031
15745W        W84139  33.043   8.327  10.906
15746W        W84140  21.981   8.912  11.419
15747W        W84141  29.584  26.812  11.147
15748W        W84142  30.594  27.338  14.740
15749W        W84143  43.409  18.386   0.388
15750W        W84144  31.892  35.988  10.978
15751W        W84145   5.505   7.225   4.864
15752W        W84146  11.751  20.998   5.060
15753W        W84147  36.456   5.688   4.254
15754W        W84148  11.775  28.366   4.107
15755W        W84149   9.480  11.624   3.779
15756W        W84150  44.562  17.483   1.454
15757W        W84151  19.442  21.185  13.918
15758W        W84152  15.981  21.531  12.824
15759W        W84153  40.359   6.388  13.526
15760W        W84154  13.186  24.450  10.646
15761W        W84155  16.815  35.185   1.883
15762W        W84156  35.014   9.838  14.379
15763W        W84157  44.956   4.156  12.305
15764W        W84158  27.877  38.355  13.964
15765W        W84159  43.817  16.761   1.307
15766W        W84160   4.876  44.209   0.792
15767W        W84161   3.935  44.020   3.081
15768W        W84162  20.840  21.673   2.488
15769W        W84163  14.789   1.204  12.958
15770W        W84164  13.369   1.029  14.262
15771W        W84165  34.206  38.804   1.340
15772W        W84166  37.078  31.422  14.928
15773W        W84167  32.939  44.358   4.906
15774W        W84168  42.478  20.698  14.743
15775W        W84169  40.611  14.211  10.791
15776W        W84170  43.246   7.163  11.235
15777W        W84171  34.994  41.814  10.644
15778W        W84172  19.150  13.997  13.191
15779W        W84173  20.558   3.818   0.018
15780W        W84174   0.613  33.767   0.852
15781W        W84175   3.868  40.330  11.308
15782W        W84176  35.448  17.156  11.043
15783W        W84177   8.134   8.902  14.209
15784W        W84178  30.042  39.095  14.725
15785W        W84179  11.200  15.573  11.934
15786W        W84180   8.899  12.290  11.493
15787W        W84181  37.375  33.907  10.658
15788W        W84182  31.151  27.149   1.490
15789W        W84183   8.786  25.166   0.757
15790W        W84184  32.860  34.513   4.040
15791W        W84185  17.499  44.079  12.150
15792W        W84186   3.904  14.059   1.564
15793W        W84187  33.519  24.262   0.349
15794W        W84188  23.011  35.908   1.674
15795W        W84189   7.204  37.956  12.991
15796W        W84190  35.095  17.234  14.721
15797W        W84191  43.781  40.869  14.016
15798W        W84192  26.760  22.557  13.904
15799W        W84193   0.433  24.223   3.293
15800W        W84194  42.038  25.241   1.398
15801W        W84195  38.379   3.418   3.275
15802W        W84196  23.607  44.759  10.241
15803W        W84197  30.714  14.631  14.303
15804W        W84198  15.267  27.817  11.483
15805W        W84199  20.992  14.345   4.135
15806W        W84200  23.206   5.214   3.807
15807W        W84201  41.464   9.214   1.290
15808W        W84202  44.282  44.763   2.688
15809W        W84203  22.115  41.461   1.922
15810W        W84204  12.469   7.426   4.158
15811W        W84205   1.412  15.776  12.460
15812W        W84206  17.122  39.355   1.831
15813W        W84207   9.088  14.475   0.326
15814W        W84208  41.202  36.547  11.126
15815W        W84209  20.103   4.885   4.609
15816W        W84210  13.890  37.830  13.470
15817W        W84211   8.120   1.834  10.838
15818W        W84212   4.410   9.982   1.228
15819W        W84213   2.658  38.859  14.130
15820W        W84214  16.081   8.651   0.909
15821W        W84215  32.589  19.271  10.551
15822W        W84216  15.085  30.591  14.267
15823W        W84217   7.758  21.557  14.071
15824W        W84218  25.632  17.107   2.715
15825W        W84219  13.420  26.590   0.754
15826W        W84220  32.709  18.943  13.536
15827W        W84221  37.606  22.406   4.111
15828W        W84222  18.999  32.191  13.622
15829W        W84223  27.254   3.114   0.014
15830W        W84224   4.646  25.412  10.556
15831W        W84225  13.818  38.423   4.652
15832W        W84226  27.742  33.237  13.560
15833W        W84227  23.921  10.165  13.040
15834W        W84228   7.239  14.076   1.307
15835W        W84229   5.651  44.289  12.508
15836W        W84230  39.136  21.304   2.809
15837W        W84231   0.911  44.569   1.827
15838W        W84232   8.592  13.280  13.908
15839W        W84233  12.388   6.285   4.925
15840W        W84234   7.933  42.328   0.984
15841W        W84235  31.310  24.322  11.165
15842W        W84236  22.469  27.469  10.683
15843W        W84237   4.034  19.108   1.208
15844W        W84238  26.024   3.508   2.307
15845W        W84239  43.549  41.479   0.747
15846W        W84240  28.710  33.617   2.222
15847W        W84241  42.975  23.195  12.502
15848W        W84242  34.019  21.100  10.563
15849W        W84243  12.097   8.916   4.017
15850W        W84244  25.238  41.270   3.181
15851W        W84245  38.106  44.148   2.807
15852W        W84246  33.138  39.554   1.797
15853W        W84247  21.113  35.912  10.832
15854W        W84248   6.745  37.832   2.124
15855W        W84249  38.328  33.993  11.966
15856W        W84250   2.638   6.378  12.554
15857W        W84251  43.928   5.390  13.589
15858W        W84252   6.426  33.610   3.142
15859W        W84253   1.018  35.455   1.243
15860W        W84254   9.042  23.539  12.155
15861W        W84255   1.608  29.002   3.919
15862W        W84256  14.163  11.380  14.029
15863W        W84257  18.592   1.694  12.406
15864W        W84258  22.719   6.519   2.850
15865W        W84259  28.485  41.625  10.606
15866W        W84260  39.620  13.771  13.568
15867W        W84261   0.338  32.087  10.936
15868W        W84262  10.004  11.571  14.529
15869W        W84263  22.096  28.937  10.931
15870W        W84264   3.979   1.351   1.233
15871W        W84265  17.134  24.845  11.561
15872W        W84266   5.295   5.660  12.069
15873W        W84267  35.023  14.917   1.967
15874W        W84268  25.138  26.043  10.715
15875W        W84269  28.921  29.587   0.421
15876W        W84270  22.293  22.035   2.325
15877W        W84271  18.765  29.891   4.599
15878W        W84272   9.279  34.375   3.412
15879W        W84273  33.144   5.650   2.339
15880W        W84274   7.455  17.366  11.271
15881W        W84275   8.274  21.126  14.332
15882W        W84276  37.828   2.731  12.805
15883W        W84277   4.805  29.381   1.023
15884W        W84278   0.466   7.346   0.305
15885W        W84279  36.245   1.764   1.489
15886W        W84280  21.752  35.300  13.393
15887W        W84281  38.898  38.542   4.232
15888W        W84282  36.795  22.996   4.002
15889W        W84283  11.663  40.531  13.300
15890W        W84284   8.798   9.400   5.068
15891W        W84285  15.300  40.922  11.498
15892W        W84286  17.310  30.502  11.217
15893W        W84287   0.941   4.694   0.279
15894W        W84288  22.523   8.198  11.861
15895W        W84289  19.861  38.148   4.974
15896W        W84290  30.998  42.946  14.826
15897W        W84291   0.830  40.050  10.897
15898W        W84292  27.998  15.798   2.307
15899W        W84293  14.584  33.043  14.342
15900W        W84294  27.751   7.786   0.715
15901W        W84295   7.898   8.702  10.819
15902W        W84296   7.708  20.032   0.485
15903W        W84297  21.676  41.556   0.988
15904W        W84298   9.754   7.001   3.562
15905W        W84299  32.958  11.829  11.623
15906W        W84300   1.206  14.108   9.950
15907W        W84301  32.895  43.401   4.092
15908W        W84302  30.542   8.378   2.636
15909W        W84303  30.551  29.418  12.256
15910W        W84304  11.666  19.472   4.156
15911W        W84305   1.740   5.819   3.248
15912W        W84306  33.923   6.487  11.899
15913W        W84307  15.812  20.808  13.512
15914W        W84308  15.622  32.366  13.426
15915W        W84309  40.694  10.295   5.113
15916W        W84310  16.675  11.324   1.062
15917W        W84311   0.362  21.296   4.751
15918W        W84312  27.917  20.143  10.420
15919W        W84313  21.632  31.829   1.738
15920W        W84314  29.228   8.802  10.724
15921W        W84315  24.158  17.320  14.361
15922W        W84316  16.674  24.348  11.136
15923W        W84317  37.915  44.998  14.206
15924W        W84318   8.303  26.496  10.487
15925W        W84319   7.465  11.365   3.179
15926W        W84320  16.435   1.125   0.268
15927W        W84321  22.467  32.362   0.261
15928W        W84322  37.293  23.623   2.785
15929W        W84323  29.994  21.500  12.529
15930W        W84324  32.136  41.517   4.523
15931W        W84325  17.005  20.699   0.492
15932W        W84326   3.861  31.478  10.475
15933W        W84327  30.363   6.954   2.719
15934W        W84328  38.027  26.985   1.159
15935W        W84329  27.798  22.583   1.741
15936W        W84330  29.424   6.577   3.153
15937W        W84331   2.894  29.173   3.835
15938W        W84332  14.780   0.748  10.779
15939W        W84333  20.825  42.898   0.189
15940W        W84334  36.792  23.719  14.711
15941W        W84335  14.677  38.505   0.501
15942W        W84336  19.737  24.404  11.463
15943W        W84337  30.353  34.577   4.064
15944W        W84338  22.111  28.615   0.479
15945W        W84339  33.062   7.553  11.465
15946W        W84340  19.313  36.056   3.673
15947W        W84341  19.576  12.775   1.751
15948W        W84342  10.884  34.306   5.154
15949W        W84343  31.121  34.837   3.851
15950W        W84344  22.040  13.268  11.763
15951W        W84345  10.931  14.767  10.994
15952W        W84346  21.835   6.230   2.731
15953W        W84347  23.468  16.873   2.381
15954W        W84348  15.539  33.137   2.329
15955W        W84349  28.188  24.688   4.161
15956W        W84350  24.555  38.907  11.110
15957W        W84351  43.855  13.327  11.095
15958W        W84352  28.689  10.169  11.079
15959W        W84353  10.940  33.944  10.526
15960W        W84354  23.490  23.842   0.870
15961W        W84355  24.078  34.386  11.900
15962W        W84356   4.995  14.262   1.246
15963W        W84357   0.621   0.998  10.682
15964W        W84358   8.920  20.976   0.460
15965W        W84359  34.481  22.605   0.688
15966W        W84360  36.955   1.471  14.881
15967W        W84361  40.751  26.896   1.343
15968W        W84362  32.900  13.405   0.911
15969W        W84363   1.717  28.257  13.667
15970W        W84364  15.192  30.782   0.133
15971W        W84365   2.424   7.232  13.075
15972W        W84366  14.816  38.281   2.703
15973W        W84367   2.448   4.272   4.703
15974W        W84368  24.223  32.882   4.205
15975W        W84369   0.277   9.097  12.117
15976W        W84370   2.673  20.632  14.854
15977W        W84371  18.035  38.794  11.201
15978W        W84372  11.820   8.794   3.180
15979W        W84373  38.663  42.005   2.697
15980W        W84374  37.500   7.430  14.838
15981W        W84375  36.639  13.893   2.779
15982W        W84376  36.059  34.365  10.366
15983W        W84377  31.426  40.248   3.694
15984W        W84378  44.989  23.041  14.800
15985W        W84379  10.099  17.608  14.217
15986W        W84380  19.247  24.916   4.818
15987W        W84381  26.006  29.153   0.711
15988W        W84382  44.307  24.199   4.536
15989W        W84383  29.341  31.395   1.660
15990W        W84384   9.851  33.652  11.691
15991W        W84385  43.155  43.727  13.542
15992W        W84386  29.033  40.854  13.965
15993W        W84387  38.540   6.435   4.469
15994W        W84388  27.052  29.201   3.936
15995W        W84389  17.249  39.863  13.915
15996W        W84390  11.389   4.768  10.758
15997W        W84391   1.101  28.054   2.861
15998W        W84392  39.042  29.069   1.293
15999W        W84393  20.750  20.566  12.912
16000W        W84394   2.264   3.231  11.594
16001W        W84395   0.956  11.132   0.288
16002W        W84396  30.718  10.174   4.579
16003W        W84397  24.179  34.588  14.403
16004W        W84398  12.455  36.869   4.189
16005W        W84399  15.559  41.809   2.755
16006W        W84400  43.945  23.958   0.375
16007W        W84401   0.026  19.502  12.896
16008W        W84402  36.573  36.060  14.105
16009W        W84403  43.987  30.882   3.122
16010W        W84404   9.170  21.481   0.251
16011W        W84405  23.152  35.847   3.175
16012W        W84406  30.486  28.884  10.915
16013W        W84407  41.088  15.737  13.037
16014W        W84408  29.625  20.710   3.919
16015W        W84409  29.954  23.117  13.829
16016W        W84410   4.378   4.871  14.041
16017W        W84411  23.724  39.885   2.780
16018W        W84412   7.807   9.210   1.856
16019W        W84413  24.764  17.500  13.902
16020W        W84414  34.919  23.427   1.388
16021W        W84415  10.633  23.479   0.808
16022W        W84416  31.942  20.698  13.036
16023W        W84417  39.513  24.973  12.330
16024W        W84418   3.977  16.170   5.365
16025W        W84419   0.861  22.599   2.433
16026W        W84420  31.859  43.747   2.702
16027W        W84421  30.626   0.283  14.706
16028W        W84422  41.933   5.154  13.428
16029W        W84423  36.412  12.201  14.697
16030W        W84424   5.387  18.777  12.085
16031W        W84425  35.288   2.879   2.692
16032W        W84426  38.908  35.022   0.972
16033W        W84427  21.340   6.267   2.832
16034W        W84428  29.647  32.891   1.210
16035W        W84429  12.431  16.023  12.311
16036W        W84430   0.969  44.836  14.899
16037W        W84431  15.332  12.901  12.484
16038W        W84432  37.748  22.778  11.722
16039W        W84433  23.591  38.379   3.798
16040W        W84434  31.596   8.787  12.926
16041W        W84435  38.071  12.201  13.067
16042W        W84436   7.564   7.860  13.004
16043W        W84437  31.303  12.361   4.698
16044W        W84438  26.403   2.932   3.859
16045W        W84439  25.666  19.118  12.370
16046W        W84440   9.748  21.549  12.445
16047W        W84441  39.563  19.865  14.600
16048W        W84442   0.435  36.241   0.852
16049W        W84443  16.080  14.864  12.578
16050W        W84444  26.650   5.224  10.745
16051W        W84445  18.559  19.846   2.838
16052W        W84446  31.552  31.847  11.208
16053W        W84447  10.671  21.895  11.284
16054W        W84448   1.549   7.261  11.162
16055W        W84449  28.362  26.130  14.462
16056W        W84450   4.653  29.176  13.100
16057W        W84451  25.087  15.018  14.934
16058W        W84452  29.594  35.546   3.387
16059W        W84453  15.608  14.433  13.091
16060W        W84454  34.422  14.315  13.979
16061W        W84455  32.092  29.217   1.332
16062W        W84456  43.338  29.025   1.333
16063W        W84457  34.889  42.795   2.196
16064W        W84458  38.090  37.576  12.441
16065W        W84459  42.539  19.331   1.242
16066W        W84460  29.580  19.760   1.095
16067W        W84461  40.559   9.859   4.368
16068W        W84462   6.355   4.241  10.902
16069W        W84463  42.877  12.770   1.785
16070W        W84464  21.212  42.524   0.187
16071W        W84465  42.249  11.096   0.504
16072W        W84466  34.890  28.588   2.754
16073W        W84467  20.222  36.262  12.806
16074W        W84468  40.283  44.481  11.438
16075W        W84469  13.225   5.926   0.536
16076W        W84470  36.412  31.654   1.697
16077W        W84471  37.411  39.788   3.081
16078W        W84472   6.102  23.124   0.874
16079W        W84473   4.518  44.918   1.223
16080W        W84474  11.363  21.551   0.177
16081W        W84475  15.289   0.598  11.726
16082W        W84476  25.814  17.149  11.452
16083W        W84477  16.764   5.342  14.979
16084W        W84478  30.197   6.681  13.444
16085W        W84479  22.723  40.872   0.447
16086W        W84480  40.579  17.554  12.861
16087W        W84481  15.333  36.291   3.690
16088W        W84482  33.213  32.138   4.150
16089W        W84483  38.971  12.875   2.161
16090W        W84484  18.880  17.885  12.035
16091W        W84485  12.083  33.361   0.746
16092W        W84486  37.211  44.478   1.581
16093W        W84487   4.489  44.737  11.532
16094W        W84488  15.657  20.482   3.206
16095W        W84489  38.109   1.807   3.761
16096W        W84490  35.141  21.160   4.673
16097W        W84491  15.293  39.358   2.099
16098W        W84492  27.102  36.451  13.487
16099W        W84493  19.284   7.962   4.151
16100W        W84494  33.642  16.600   1.374
16101W        W84495   6.204  19.294  14.894
16102W        W84496  24.684  39.557   3.746
16103W        W84497  18.387  34.555   0.923
16104W        W84498  27.270  12.689  11.145
16105W        W84499  36.055  11.137   1.417
16106W        W84500  20.046   5.272  10.564
16107W        W84501  12.372   7.686   3.629
16108W        W84502  20.306  26.908   3.628
16109W        W84503   6.436  36.919  11.925
16110W        W84504  24.892   4.869  11.102
16111W        W84505  13.821   9.595   2.754
16112W        W84506  43.449  10.162   4.717
16113W        W84507  32.375  42.741  13.298
16114W        W84508   2.915   8.983  14.331
16115W        W84509  13.350  38.186   3.834
16116W        W84510  27.574  17.027  11.676
16117W        W84511  19.138  16.172   1.874
16118W        W84512  31.864   6.248  14.915
16119W        W84513   8.793  34.040  14.799
16120W        W84514  28.682  40.132   2.381
16121W        W84515  13.418   5.331  10.626
16122W        W84516  12.707  11.467   0.822
16123W        W84517  40.445  41.914   2.290
16124W        W84518  20.147  19.790  14.058
16125W        W84519  42.915  25.503  13.012
16126W        W84520  38.951  10.219   1.717
16127W        W84521  37.255   4.833  13.888
16128W        W84522  32.666  29.950  11.179
16129W        W84523   5.111  16.109   2.466
16130W        W84524  43.077  30.414   3.137
16131W        W84525  23.024  15.806  12.507
16132W        W84526  25.502  42.572  12.060
16133W        W84527  31.196  16.009   1.424
16134W        W84528  19.464  21.599  10.666
16135W        W84529  40.054  18.452   2.832
16136W        W84530   7.312  39.110   2.771
16137W        W84531  24.148  23.979   1.961
16138W        W84532   6.776   7.355   0.468
16139W        W84533  25.075  29.902  14.387
16140W        W84534   3.255  11.980   4.150
16141W        W84535  24.643  40.227  11.605
16142W        W84536  12.147  27.679  10.654
16143W        W84537  33.418  12.603  14.380
16144W        W84538   5.464  35.004   2.525
16145W        W84539  13.645  43.499   1.400
16146W        W84540  19.144  37.747   3.325
16147W        W84541   3.950   7.886  10.744
16148W        W84542  31.136  39.745   4.214
16149W        W84543  16.796  28.966  14.251
16150W        W84544   7.946  29.150  11.603
16151W        W84545  25.176  24.731  14.230
16152W        W84546  31.153  12.227   4.000
16153W        W84547   1.285  12.859  14.205
16154W        W84548  36.365  11.864   4.165
16155W        W84549  23.077  42.231   2.303
16156W        W84550   6.983   0.017  11.860
16157W        W84551   1.030  40.537   1.975
16158W        W84552  19.107  20.868  10.055
16159W        W84553  13.038  15.202   4.135
16160W        W84554   4.938  41.054  11.861
16161W        W84555  12.721  42.409  10.956
16162W        W84556  30.803  22.739   1.889
16163W        W84557   0.243  36.948  13.332
16164W        W84558   4.753   2.435   1.874
16165W        W84559   5.673  17.390  14.048
16166W        W84560  29.881  26.961   1.878
16167W        W84561  43.456   6.295   4.607
16168W        W84562  20.849  18.035   1.369
16169W        W84563  34.024  29.890  12.826
16170W        W84564   0.312  19.737   0.358
16171W        W84565  27.042  19.036  10.726
16172W        W84566  17.353  31.453   4.213
16173W        W84567   7.282  44.859  12.996
16174W        W84568  18.476   3.230  12.594
16175W        W84569  15.851  37.987  13.461
16176W        W84570  15.304  18.085  13.735
16177W        W84571  22.738  21.573  11.681
16178W        W84572  41.781  10.108   0.989
16179W        W84573  25.714  17.806  12.529
16180W        W84574  33.131  12.685   0.442
16181W        W84575  30.448  17.167   4.628
16182W        W84576  19.779  35.449  13.130
16183W        W84577  11.019   3.473  10.687
16184W        W84578  22.320  41.911  10.646
16185W        W84579   1.359  37.094  10.407
16186W        W84580  20.016  34.384   1.863
16187W        W84581   2.834   0.487   2.634
16188W        W84582  39.556  32.158   0.998
16189W        W84583  37.504   3.383  14.006
16190W        W84584  15.215  21.687   3.626
16191W        W84585  16.595   3.028  10.728
16192W        W84586  27.973  16.656  11.652
16193W        W84587  14.972  20.494   2.282
16194W        W84588  27.708  40.988  14.397
16195W        W84589  17.738  32.060  14.407
16196W        W84590  28.231  42.889   1.922
16197W        W84591  13.088  20.231  11.446
16198W        W84592  31.124  41.333   3.388
16199W        W84593  44.842   5.245   3.839
16200W        W84594  37.688  29.175  11.622
16201W        W84595   8.938   5.941   3.726
16202W        W84596   5.878  14.579  13.074
16203W        W84597  21.007  12.865  14.785
16204W        W84598   0.834  24.792  11.843
16205W        W84599  36.329  13.165  14.487
16206W        W84600  24.200  21.992   4.383
16207W        W84601  26.110   0.349  14.824
16208W        W84602  41.434  27.491   4.671
16209W        W84603  17.479  39.895  12.462
16210W        W84604  23.276  27.524  13.722
16211W        W84605  27.650  44.025  12.982
16212W        W84606  31.045  13.682   3.403
16213W        W84607  17.569  41.095   4.121
16214W        W84608  32.695  15.705   1.477
16215W        W84609  41.436  39.157  12.596
16216W        W84610  40.791  12.818  12.619
16217W        W84611  28.896   7.350  10.798
16218W        W84612  28.433   7.371   1.821
16219W        W84613  21.073  11.940   3.982
16220W        W84614  12.564  29.016  14.960
16221W        W84615  32.637  40.664   2.751
16222W        W84616   2.293  42.755   1.253
16223W        W84617  43.957  28.388   3.603
16224W        W84618   5.244  22.743   1.337
16225W        W84619  35.414  34.087  10.491
16226W        W84620   4.572  35.296  14.228
16227W        W84621  15.262   2.469  14.531
16228W        W84622  36.895  34.203   1.160
16229W        W84623   0.461   8.276   3.601
16230W        W84624   4.130   9.068  14.000
16231W        W84625   0.554  31.227  14.710
16232W        W84626  42.780   8.769  11.171
16233W        W84627  41.637  39.291   2.933
16234W        W84628  21.904  10.598  12.862
16235W        W84629   3.425  33.923   4.510
16236W        W84630  25.370  43.925   2.149
16237W        W84631  28.180  38.374   0.284
16238W        W84632  11.542  35.570   0.849
16239W        W84633  28.027  28.997  13.962
16240W        W84634   6.089  12.410  10.677
16241W        W84635  32.999  10.592   2.351
16242W        W84636  12.782  22.964  14.411
16243W        W84637  42.872  33.615  10.419
16244W        W84638   4.444  35.486  14.701
16245W        W84639  15.589  27.108   0.878
16246W        W84640  35.172   2.859  11.583
16247W        W84641  20.889   4.614  11.697
16248W        W84642   3.221   1.286   2.361
16249W        W84643  42.231  44.826  14.332
16250W        W84644  27.065  40.968   0.842
16251W        W84645  13.751  24.041  11.738
16252W        W84646  12.780  25.458  14.939
16253W        W84647   4.865   6.041   4.672
16254W        W84648  24.551  34.202   1.005
16255W        W84649  34.988   2.005   4.302
16256W        W84650  42.824  16.120  13.328
16257W        W84651  28.981  29.485   3.398
16258W        W84652  31.145   7.820   1.050
16259W        W84653  36.763  15.805   0.960
16260W        W84654   1.411  40.174  11.951
16261W        W84655  41.437  44.918   3.882
16262W        W84656  22.285   4.049  12.079
16263W        W84657   8.137   2.360   5.025
16264W        W84658  27.938  38.426   4.854
16265W        W84659   3.027   8.306  14.884
16266W        W84660  39.097  18.681   4.653
16267W        W84661  32.315  23.068  14.012
16268W        W84662   8.702  15.102   3.790
16269W        W84663  21.397   6.927   1.480
16270W        W84664  36.892  25.975   2.729
16271W        W84665   8.688  26.653  10.816
16272W        W84666  25.085  43.505   1.211
16273W        W84667  28.698  31.480   0.379
16274W        W84668  25.514  35.076   1.322
16275W        W84669  23.780  21.661  11.599
16276W        W84670  30.078  35.873  12.535
16277W        W84671  36.346   7.350   0.909
16278W        W84672  35.102  38.455  14.532
16279W        W84673  13.129  40.552  14.273
16280W        W84674  25.990  31.449  11.170
16281W        W84675  44.716  31.050  14.445
16282W        W84676   6.780  38.899   1.965
16283W        W84677   0.743  11.061  12.370
16284W        W84678  29.183  33.719   4.632
16285W        W84679  35.214  23.520  14.376
16286W        W84680   9.259  41.810  11.707
16287W        W84681  35.442  25.084   1.683
16288W        W84682  39.086  28.617   3.808
16289W        W84683   9.629  27.964  12.067
16290W        W84684  32.114  14.781  14.666
16291W        W84685  36.962  35.488  12.443
16292W        W84686  32.079  35.027   3.936
16293W        W84687  11.891  18.462   1.726
16294W        W84688  18.348   2.420   4.179
16295W        W84689  31.590  27.229  10.757
16296W        W84690  44.235  39.454   3.256
16297W        W84691   2.932  21.039  11.150
16298W        W84692  33.059  36.645  13.494
16299W        W84693   8.108  31.101   2.992
16300W        W84694   8.367  25.271   2.648
16301W        W84695  33.858  20.474  12.458
16302W        W84696  11.703   9.230   4.068
16303W        W84697  35.467  37.641   0.769
16304W        W84698  36.455  43.257   0.451
16305W        W84699   5.806  24.630  12.779
16306W        W84700  31.547  31.020   2.901
16307W        W84701  15.670  39.374   4.565
16308W        W84702  10.590  42.104   1.942
16309W        W84703  21.947  26.069  13.945
16310W        W84704  32.088   9.668   2.687
16311W        W84705  12.594   8.376  11.019
16312W        W84706  17.448   6.253   9.857
16313W        W84707  26.252  43.765   3.631
16314W        W84708  16.144  20.197   1.949
16315W        W84709  38.498  35.610  14.970
16316W        W84710  32.119  10.963  12.775
16317W        W84711  23.610  20.767   0.676
16318W        W84712  39.330   2.737  14.329
16319W        W84713  34.875  14.962  11.480
16320W        W84714   4.731  26.702  11.999
16321W        W84715  18.669  29.360  10.314
16322W        W84716  34.878   0.390  14.332
16323W        W84717  15.047   1.540   3.374
16324W        W84718  34.925   9.225  14.951
16325W        W84719  33.989  40.563   4.430
16326W        W84720  17.484  40.138   1.383
16327W        W84721  23.264  16.652  13.811
16328W        W84722  15.031  19.974  11.136
16329W        W84723   0.926  32.053   4.805
16330W        W84724  29.276  43.170   3.666
16331W        W84725  29.081   1.794  12.038
16332W        W84726  18.960   3.456  14.311
16333W        W84727  33.440  37.182   3.797
16334W        W84728  31.341  32.151   2.753
16335W        W84729  28.063  21.622  10.963
16336W        W84730  31.826  19.777   1.365
16337W        W84731  29.398  18.507  14.007
16338W        W84732  44.075   1.428   1.737
16339W        W84733  21.572  16.204  11.605
16340W        W84734  42.552  31.033   0.786
16341W        W84735   7.268  34.411  13.385
16342W        W84736   3.797  39.469  13.448
16343W        W84737   2.794  12.346  12.599
16344W        W84738  39.311  42.828   1.705
16345W        W84739  14.389  18.097  12.027
16346W        W84740  31.378  27.454   1.009
16347W        W84741  27.683  29.432  14.860
16348W        W84742  15.105  17.221   2.187
16349W        W84743  17.239  10.375   2.434
16350W        W84744  21.171   3.415  12.688
16351W        W84745  34.533  21.261   1.385
16352W        W84746  12.928  19.778  12.657
16353W        W84747  21.233  18.854  12.019
16354W        W84748  29.398   3.528  12.040
16355W        W84749  37.422   5.039  12.877
16356W        W84750   4.588  29.036  14.388
16357W        W84751  44.793  22.789  12.098
16358W        W84752  20.102  20.952   1.006
16359W        W84753  44.808  25.651   1.408
16360W        W84754  25.538   1.381  12.132
16361W        W84755  21.050  40.867   1.317
16362W        W84756  34.443  39.129  13.832
16363W        W84757  29.488   1.367  11.041
16364W        W84758  20.009  36.054   1.369
16365W        W84759  43.064  25.768   4.824
16366W        W84760   5.488  39.421   1.744
16367W        W84761  26.751  29.043  14.966
16368W        W84762  42.347  19.704  14.331
16369W        W84763  40.958  42.488   0.457
16370W        W84764  44.873   6.760  13.060
16371W        W84765  24.119   5.841  14.014
16372W        W84766  25.999   5.613  12.579
16373W        W84767  37.088  11.174  11.982
16374W        W84768   6.554  32.941   0.921
16375W        W84769  18.127   8.145   0.313
16376W        W84770  13.068  26.880   3.266
16377W        W84771  16.598  10.318  11.328
16378W        W84772  15.774  43.442   3.131
16379W        W84773  16.353  11.340   2.255
16380W        W84774  22.798   2.828   4.240
16381W        W84775  44.736  43.782   0.192
16382W        W84776  26.576  42.345   1.835
16383W        W84777  20.012  33.882  12.909
16384W        W84778  28.907  25.681  12.055
16385W        W84779  44.510  43.843  12.034
16386W        W84780  24.655  11.704   3.089
16387W        W84781  26.907  27.988   1.433
16388W        W84782   9.393  17.272  12.921
16389W        W84783  15.150  19.641   2.141
16390W        W84784   3.376  42.079   4.390
16391W        W84785  29.531   5.132  11.214
16392W        W84786  34.626  38.477  14.295
16393W        W84787   4.812  10.530   2.282
16394W        W84788  38.768  27.063   4.474
16395W        W84789  31.680  25.042  13.046
16396W        W84790  38.139  31.933  14.239
16397W        W84791  39.921  11.000   0.622
16398W        W84792   1.674  22.062  11.659
16399W        W84793  27.175  21.706   4.045
16400W        W84794   1.795   0.110  14.619
16401W        W84795  16.959  40.476  11.128
16402W        W84796  16.802   0.369   1.713
16403W        W84797   5.712  23.687  13.459
16404W        W84798  16.737  37.349   2.708
16405W        W84799  17.487  17.089   2.742
16406W        W84800   5.836  37.211   3.374
16407W        W84801   8.203  16.331  11.246
16408W        W84802  15.838  31.422  12.179
16409W        W84803   4.667  32.971   5.072
16410W        W84804  22.016  35.948   4.088
16411W        W84805   1.975  12.277   4.597
16412W        W84806   0.220  22.061   1.802
16413W        W84807  25.695  27.567  14.343
16414W        W84808  24.928  13.179   4.708
16415W        W84809  17.764  31.820  13.920
16416W        W84810  42.938  32.642  10.741
16417W        W84811  40.394   1.980   3.722
16418W        W84812  30.980  18.543  11.549
16419W        W84813  30.897  37.326  13.408
16420W        W84814   1.405  43.854  11.380
16421W        W84815  44.981  18.749  12.528
16422W        W84816  31.457  25.181   3.592
16423W        W84817  10.892   7.671   4.001
16424W        W84818  31.533  16.349   4.227
16425W        W84819  38.853  34.611   2.296
16426W        W84820  28.662  28.683  13.844
16427W        W84821  36.587  10.348   4.105
16428W        W84822  17.587   7.714   4.109
16429W        W84823   8.109  16.459  12.323
16430W        W84824  36.840  42.512  14.286
16431W        W84825  26.317   2.433  11.668
16432W        W84826   1.428  26.110   2.232
16433W        W84827  29.995  13.956   0.521
16434W        W84828  27.447  36.484   4.325
16435W        W84829  11.704  41.802  14.906
16436W        W84830   8.265  29.388  13.565
16437W        W84831  41.951  35.397   0.859
16438W        W84832  15.831  17.220   0.761
16439W        W84833  18.817  20.623  13.039
16440W        W84834  28.651  32.600  14.855
16441W        W84835  10.072  32.115   0.892
16442W        W84836  34.443  36.289  13.451
16443W        W84837  20.029  33.340   2.709
16444W        W84838  34.427  35.390   2.141
16445W        W84839  32.648  13.042  12.821
16446W        W84840  20.611  34.979   4.735
16447W        W84841  25.906  43.400   3.573
16448W        W84842  39.027  31.266   2.184
16449W        W84843  33.776  43.581  13.338
16450W        W84844   9.825  37.439   1.942
16451W        W84845   7.631  27.878   4.428
16452W        W84846  18.375   0.102  11.071
16453W        W84847  42.217   5.919   2.636
16454W        W84848  41.098  22.523  13.118
16455W        W84849  12.930  28.094   3.260
16456W        W84850  37.120  15.865  14.053
16457W        W84851  17.283   2.290  13.754
16458W        W84852  18.665  30.693   0.454
16459W        W84853  33.830  24.672  13.316
16460W        W84854   6.395  22.108   1.429
16461W        W84855  38.005   5.677   1.623
16462W        W84856  25.076  20.213   0.963
16463W        W84857   3.073  43.405  10.458
16464W        W84858   3.302  19.290   3.830
16465W        W84859  27.187  41.102   1.734
16466W        W84860  44.194  25.822  14.811
16467W        W84861  28.619   4.797   1.887
16468W        W84862  18.487   7.863  13.419
16469W        W84863  15.667   4.249  11.130
16470W        W84864   6.354  34.410   4.265
16471W        W84865  36.655  25.792  11.513
16472W        W84866   2.441  38.103  11.909
16473W        W84867  30.010  27.604   3.242
16474W        W84868   3.436  11.227   2.009
16475W        W84869  28.112  16.768   4.861
16476W        W84870   8.411  41.600   4.540
16477W        W84871  11.649   0.392  13.920
16478W        W84872   4.294  21.761  13.983
16479W        W84873  43.957  28.151   4.491
16480W        W84874  15.236  15.220   4.435
16481W        W84875   8.112  41.342   0.018
16482W        W84876  17.175  36.067  13.554
16483W        W84877  19.634   3.702   3.404
16484W        W84878  15.616  30.389   3.683
16485W        W84879  22.760   3.337   4.529
16486W        W84880   6.219  11.252  14.026
16487W        W84881  34.472   9.208   0.244
16488W        W84882  33.479  22.932  12.147
16489W        W84883   8.188  28.089  14.760
16490W        W84884   0.124  41.839  11.174
16491W        W84885  25.319  34.046   3.579
16492W        W84886  17.017  37.596   1.427
16493W        W84887  41.443   4.888   3.203
16494W        W84888  17.255   6.958  11.519
16495W        W84889   0.012  28.198   4.321
16496W        W84890  44.887  28.724   2.229
16497W        W84891   8.365  20.253   2.721
16498W        W84892   4.946  39.067  12.195
16499W        W84893   3.777   8.236  11.627
16500W        W84894  27.310  22.589   2.066
16501W        W84895  41.906  12.869  14.858
16502W        W84896  15.651  31.434  14.139
16503W        W84897  16.474  15.262  10.731
16504W        W84898  38.085  29.109   1.869
16505W        W84899  12.057   7.847   1.786
16506W        W84900  17.334  42.933  13.066
16507W        W84901  36.084  44.022   4.154
16508W        W84902  23.715  42.244  12.257
16509W        W84903   9.722  21.107   1.422
16510W        W84904  39.874  29.538  13.794
16511W        W84905   1.963  17.578   0.216
16512W        W84906  41.957  30.116   0.086
16513W        W84907   0.895   3.389   1.473
16514W        W84908  29.472  40.050   0.811
16515W        W84909   7.907  26.715   3.207
16516W        W84910   5.480  18.242   4.728
16517W        W84911  13.032  19.148   1.702
16518W        W84912  32.020  14.282   4.272
16519W        W84913  26.703  18.751   2.702
16520W        W84914  33.876  32.072  10.935
16521W        W84915   4.893  32.172  10.327
16522W        W84916  20.116  44.903   2.992
16523W        W84917  39.798  43.177  11.201
16524W        W84918   2.947  32.369  14.853
16525W        W84919  25.219  20.086  11.232
16526W        W84920  11.923  23.558   1.194
16527W        W84921  27.732  26.135  10.605
16528W        W84922  15.552  14.677   3.112
16529W        W84923  37.491  12.799   4.380
16530W        W84924   4.929  37.984  12.475
16531W        W84925  18.125   8.266   2.630
16532W        W84926  10.332  29.853   2.047
16533W        W84927   5.423  14.873  12.961
16534W        W84928   0.889  33.762   4.207
16535W        W84929   3.895   0.261  12.144
16536W        W84930  19.675  18.652   4.273
16537W        W84931  34.322  26.205  12.451
16538W        W84932  13.836  39.450   0.478
16539W        W84933  37.134   5.449  13.215
16540W        W84934  27.505   2.214  10.232
16541W        W84935  12.748  41.576   3.028
16542W        W84936  20.645  14.160   3.219
16543W        W84937  43.414   5.359   3.410
16544W        W84938   9.609  36.893  14.781
16545W        W84939  31.029  20.802  11.102
16546W        W84940  40.532  31.457   3.030
16547W        W84941  23.672   9.712  12.871
16548W        W84942   0.787  17.486  13.519
16549W        W84943  38.928   3.503  14.056
16550W        W84944  13.943   4.941   3.620
16551W        W84945   0.003  30.742  10.705
16552W        W84946  23.448  22.141   4.572
16553W        W84947  10.319  14.586  11.648
16554W        W84948   9.643  37.255  12.521
16555W        W84949  14.999  37.939   3.567
16556W        W84950  27.002  20.075  11.633
16557W        W84951  15.569   0.686  13.175
16558W        W84952   5.892  25.526   0.045
16559W        W84953   5.942  33.178  11.554
16560W        W84954  20.062   9.310   0.964
16561W        W84955  28.636  23.486  12.003
16562W        W84956   5.740  12.181   1.334
16563W        W84957   9.718  42.953   3.701
16564W        W84958   1.625  32.969  11.467
16565W        W84959   0.230  36.873   4.009
16566W        W84960  25.615   1.964  11.835
16567W        W84961  37.404  35.010  13.066
16568W        W84962  36.352  38.512   3.218
16569W        W84963  15.560  24.511  13.856
16570W        W84964  24.064  31.033   0.803
16571W        W84965  24.476  11.107   2.386
16572W        W84966   6.767  24.153  12.690
16573W        W84967  37.091   3.908   0.545
16574W        W84968  38.346  23.036   1.362
16575W        W84969  11.152   5.140   2.752
16576W        W84970  44.949  22.796  13.937
16577W        W84971  31.833   5.461   1.817
16578W        W84972  17.763  36.002   3.682
16579W        W84973  18.003  19.159  12.419
16580W        W84974  33.413  23.149   3.875
16581W        W84975   0.075   0.772  11.515
16582W        W84976  18.128  44.888  13.921
16583W        W84977  16.902   0.890  13.062
16584W        W84978  11.123   0.302   3.225
16585W        W84979  40.123   7.311   2.278
16586W        W84980   7.464  39.029  11.149
16587W        W84981   9.433   8.192   1.434
16588W        W84982  42.131  27.139   1.315
16589W        W84983  11.324  43.725   3.540
16590W        W84984   5.632  30.043   3.161
16591W        W84985  38.468   6.578   3.147
16592W        W84986  32.173  14.283  11.097
16593W        W84987  12.608  22.527  14.160
16594W        W84988  23.440  32.891   4.505
16595W        W84989  24.087  13.148   1.393
16596W        W84990  40.066   5.170  14.000
16597W        W84991  34.957   2.999  14.903
16598W        W84992  26.599   3.731  13.124
16599W        W84993   6.673  33.836  11.124
16600W        W84994  17.774  11.821   1.867
16601W        W84995  30.504   2.953   1.483
16602W        W84996  35.970  35.287   4.195
16603W        W84997  36.684  36.604   2.217
16604W        W84998  26.654  29.473   3.701
16605W        W84999  21.266  25.842   0.364
16606W        W85000  13.264  29.017  13.812
16607W        W85001  15.730  44.766   2.204
16608W        W85002   3.222   5.563   4.166
16609W        W85003  23.804  43.458   2.894
16610W        W85004  44.313   0.629  13.563
16611W        W85005  18.655   5.506   0.344
16612W        W85006  21.588   9.142  12.813
16613W        W85007   8.757   6.238   1.808
16614W        W85008  42.806  30.525   0.901
16615W        W85009  44.752  41.489  11.210
16616W        W85010  10.456  24.649  13.980
16617W        W85011  43.901  28.312  12.874
16618W        W85012  26.483  14.301  11.553
16619W        W85013  10.793   1.804  11.292
16620W        W85014  24.760  20.246   3.218
16621W        W85015   7.960  22.631  10.845
16622W        W85016  23.536  37.410  13.936
16623W        W85017  37.380   6.358   2.943
16624W        W85018  41.353  33.108   4.345
16625W        W85019   3.637  19.999  14.005
16626W        W85020  31.159  37.178  12.963
16627W        W85021   3.400   4.828  13.152
16628W        W85022  36.466  40.683  12.002
16629W        W85023  13.276  20.995   4.557
16630W        W85024  28.466  14.617   2.011
16631W        W85025  40.848   9.941   2.676
16632W        W85026  44.654  44.587   5.130
16633W        W85027  44.542  38.492   3.215
16634W        W85028  35.160   4.257  13.026
16635W        W85029  21.674  40.531   3.622
16636W        W85030   7.635  23.175   4.583
16637W        W85031  42.488  19.546   4.517
16638W        W85032   4.205  19.107   2.392
16639W        W85033   4.449   8.062  12.380
16640W        W85034  41.798  16.725  11.550
16641W        W85035  35.005  22.442   3.981
16642W        W85036  43.861  12.318  12.528
16643W        W85037  27.279  20.613  13.867
16644W        W85038  17.942  16.034  14.003
16645W        W85039  24.028  29.736  13.802
16646W        W85040  41.563  36.356   1.290
16647W        W85041   5.525  36.167  11.652
16648W        W85042  15.585  32.908  11.956
16649W        W85043  33.069  35.831   3.652
16650W        W85044  18.163   6.277   3.835
16651W        W85045  14.439  24.366  11.957
16652W        W85046  40.003  10.808   3.270
16653W        W85047  38.985   2.197   2.266
16654W        W85048   2.864  43.916  12.451
16655W        W85049  10.625   6.837   3.201
16656W        W85050   6.039  33.033   0.807
16657W        W85051   7.675   6.204  11.945
16658W        W85052  20.571  37.070  10.650
16659W        W85053  21.714  16.660   4.346
16660W        W85054  34.495  41.805   4.125
16661W        W85055  30.713  36.457  10.780
16662W        W85056   8.816  19.715  13.493
16663W        W85057  28.205   5.276   0.281
16664W        W85058  37.345   8.973  14.687
16665W        W85059   7.346  43.960  14.373
16666W        W85060  38.255  21.014  12.389
16667W        W85061  16.771  44.290   0.220
16668W        W85062  16.252  27.817   2.748
16669W        W85063   0.523  19.672  14.900
16670W        W85064  14.355   5.215  13.573
16671W        W85065   8.486   6.822   0.727
16672W        W85066  28.635   9.260  11.143
16673W        W85067  41.990  26.934   0.837
16674W        W85068   3.054  10.403  10.673
16675W        W85069  40.383   4.771  13.838
16676W        W85070  15.594   7.407   1.480
16677W        W85071   1.772  15.028  14.011
16678W        W85072  10.603  10.712  14.570
16679W        W85073  44.264  19.562   1.538
16680W        W85074   7.295  38.828   0.083
16681W        W85075  17.650  11.962  13.902
16682W        W85076  39.035  39.772  11.594
16683W        W85077  20.160  20.698   3.324
16684W        W85078  42.106  19.271   2.263
16685W        W85079  14.728  10.178  14.810
16686W        W85080  44.019  20.940   0.467
16687W        W85081  43.803   7.525  13.956
16688W        W85082  11.203  36.355  11.401
16689W        W85083  11.104  42.264   3.270
16690W        W85084  28.158  42.423   4.225
16691W        W85085  24.482   5.150  14.773
16692W        W85086  27.270   8.869   2.342
16693W        W85087  38.020   2.538   1.449
16694W        W85088  18.145  17.590   4.962
16695W        W85089   4.027   7.181   2.458
16696W        W85090  22.480  23.080   1.225
16697W        W85091  21.774  17.674  13.016
16698W        W85092  20.753  11.514  14.506
16699W        W85093  32.081  20.695  13.528
16700W        W85094  29.192  33.071  12.023
16701W        W85095  31.212  30.561   1.555
16702W        W85096  24.536   3.270  14.708
16703W        W85097   5.011  32.945  11.128
16704W        W85098  10.858   2.366  10.748
16705W        W85099  41.918  16.295  14.875
16706W        W85100   2.531  19.564   5.133
16707W        W85101  25.424   4.573   4.191
16708W        W85102   3.888   4.173  14.465
16709W        W85103  35.579  32.999  13.545
16710W        W85104   4.472  33.931   2.832
16711W        W85105  10.671  33.988   4.777
16712W        W85106  19.737  39.789   0.397
16713W        W85107   3.949  22.572   1.809
16714W        W85108  25.196   5.418  10.628
16715W        W85109  17.124  36.458   2.589
16716W        W85110  39.371  34.607   2.207
16717W        W85111  39.373  14.082   3.526
16718W        W85112   5.916  33.658   3.284
16719W        W85113  15.831  17.087   5.092
16720W        W85114  18.664  38.770  11.610
16721W        W85115  19.644  14.882   1.729
16722W        W85116  13.688  44.327  11.071
16723W        W85117  30.266  37.121  14.241
16724W        W85118  32.025  13.240  11.587
16725W        W85119  44.241  19.186  13.518
16726W        W85120  14.194   4.929  10.261
16727W        W85121  37.378  31.404   0.726
16728W        W85122  28.156  27.405  13.908
16729W        W85123  17.506  23.724  11.737
16730W        W85124   9.916   6.941   2.164
16731W        W85125  13.669  40.378   3.588
16732W        W85126  28.619  14.784   3.126
16733W        W85127  11.859  41.027   1.199
16734W        W85128  22.068  39.882   4.141
16735W        W85129  20.163  23.262  10.679
16736W        W85130  18.649  25.989   0.950
16737W        W85131  31.404  44.271  14.857
16738W        W85132  38.905  28.863  12.910
16739W        W85133  28.065   6.965   1.790
16740W        W85134  39.787   5.464  14.299
16741W        W85135  18.117  29.039  10.619
16742W        W85136   5.679  33.688   1.381
16743W        W85137   6.801   0.196  14.587
16744W        W85138  41.152   5.080  11.459
16745W        W85139   9.283  18.783  12.906
16746W        W85140   5.634  20.212  12.286
16747W        W85141  17.101   4.463   4.155
16748W        W85142  42.938  34.737  12.406
16749W        W85143  38.090  23.862   0.236
16750W        W85144  43.355   2.531   4.627
16751W        W85145  16.544  14.659   1.407
16752W        W85146   9.674  42.911  13.105
16753W        W85147  44.318  44.725  12.278
16754W        W85148  35.651   5.756  11.207
16755W        W85149  13.694  30.092   3.001
16756W        W85150   5.239  13.684  13.500
16757W        W85151  43.280  24.215   1.111
16758W        W85152  25.918  31.947  14.332
16759W        W85153   5.221  19.650  12.953
16760W        W85154   1.818  28.413   2.377
16761W        W85155  13.244  24.994  14.830
16762W        W85156  17.553  11.409  14.006
16763W        W85157  29.559   3.965   3.864
16764W        W85158  25.374  22.136   0.474
16765W        W85159  25.798  34.075  14.826
16766W        W85160  32.089  25.483   3.601
16767W        W85161  25.002   6.842  11.707
16768W        W85162  30.048  34.085   1.380
16769W        W85163  14.616  16.080  14.284
16770W        W85164   4.852  26.078  13.826
16771W        W85165  38.397  15.731   3.874
16772W        W85166   4.891  39.915  10.632
16773W        W85167   1.240  33.432  13.392
16774W        W85168   8.351  36.562   4.145
16775W        W85169  24.239  17.619   3.146
16776W        W85170   9.653  19.311  13.830
16777W        W85171  22.707  28.590  10.531
16778W        W85172  18.378  34.507  10.657
16779W        W85173   3.656  11.363   5.436
16780W        W85174  37.459   0.907   2.964
16781W        W85175  10.949   6.702   2.222
16782W        W85176  15.381   8.443   0.794
16783W        W85177  24.037  17.650   1.210
16784W        W85178  25.016  35.069   1.379
16785W        W85179  42.950   8.459  13.037
16786W        W85180  41.612  43.172  13.992
16787W        W85181  17.318  19.972  13.607
16788W        W85182  36.077   1.965  11.558
16789W        W85183   7.959  19.011  11.746
16790W        W85184   2.482  21.137   0.468
16791W        W85185  36.016  12.428  11.203
16792W        W85186  12.998   9.540  11.417
16793W        W85187  15.612   9.647  12.417
16794W        W85188  14.092  40.925   4.546
16795W        W85189  16.114   1.991   0.494
16796W        W85190  13.180  44.207  13.347
16797W        W85191  41.097  34.918   2.301
16798W        W85192   8.418  14.208   3.457
16799W        W85193  24.132  40.304   0.798
16800W        W85194  29.581   2.897   3.101
16801W        W85195  26.190  23.943   2.653
16802W        W85196  22.472  12.226  11.747
16803W        W85197  29.893  38.610  11.204
16804W        W85198  36.516  41.366   4.986
16805W        W85199   6.312   3.634   2.724
16806W        W85200  20.546  33.058   0.680
16807W        W85201   5.809  41.732   4.228
16808W        W85202   3.493  26.604  13.902
16809W        W85203  27.482  21.912   0.255
16810W        W85204  31.138  36.322   2.813
16811W        W85205   6.247  39.082   4.144
16812W        W85206   0.058  39.844  14.857
16813W        W85207  17.475  32.682   0.554
16814W        W85208  43.543  29.570   2.150
16815W        W85209  26.747   5.196   4.265
16816W        W85210  38.600  16.731  12.445
16817W        W85211  10.945  24.286  12.355
16818W        W85212   3.752  17.170   0.961
16819W        W85213  41.857  28.234  11.531
16820W        W85214  14.768   0.014   1.401
16821W        W85215   9.828  17.594   0.493
16822W        W85216  30.776  23.213  10.730
16823W        W85217  28.193  12.868   4.088
16824W        W85218  22.048  29.723   1.249
16825W        W85219  43.889  35.399   1.600
16826W        W85220  15.190  38.117  12.023
16827W        W85221  27.493   0.591  13.987
16828W        W85222   1.769  26.268  13.513
16829W        W85223  20.179  39.314  11.072
16830W        W85224   7.964  44.702   2.782
16831W        W85225  15.180  26.956   0.254
16832W        W85226  16.931  40.841   2.412
16833W        W85227  10.417  35.468  14.775
16834W        W85228  15.125  37.444   5.025
16835W        W85229  39.366   1.930  12.604
16836W        W85230   6.603  42.022   3.774
16837W        W85231   9.526  36.965   2.368
16838W        W85232  14.783  35.436   3.836
16839W        W85233  37.800  20.674  13.507
16840W        W85234  20.006   6.577  12.975
16841W        W85235  17.451  13.116   3.248
16842W        W85236  12.915  44.783  13.793
16843W        W85237   8.058  23.258   4.919
16844W        W85238  11.825  33.513   0.325
16845W        W85239  25.870  41.462   0.443
16846W        W85240  25.996  25.223   5.104
16847W        W85241  14.076  40.154  12.420
16848W        W85242  13.263  10.264   3.432
16849W        W85243   9.374  12.505  11.437
16850W        W85244  23.141  22.840  13.755
16851W        W85245  13.724   6.112   4.265
16852W        W85246  34.070  11.903  14.963
16853W        W85247  34.357  30.229  10.720
16854W        W85248  41.264  38.963   3.647
16855W        W85249   4.671  38.975  11.583
16856W        W85250   4.445  42.831   1.615
16857W        W85251  24.801   6.331  14.942
16858W        W85252  43.996   0.671   2.172
16859W        W85253  17.967  29.695   0.885
16860W        W85254  37.311  25.923  13.329
16861W        W85255  34.819  17.264   5.119
16862W        W85256  39.855  29.076   3.609
16863W        W85257  42.971  13.637   4.384
16864W        W85258   7.954  15.538   2.801
16865W        W85259  10.353  30.075   0.315
16866W        W85260  15.869  23.759   2.600
16867W        W85261   9.741   5.411   1.241
16868W        W85262  26.173  21.238   4.112
16869W        W85263   4.697   9.874  12.470
16870W        W85264  30.504  43.978   2.849
16871W        W85265  40.465  34.686   4.085
16872W        W85266  31.448  12.490   1.839
16873W        W85267  31.672  29.051   2.164
16874W        W85268  42.268  44.246  11.896
16875W        W85269   5.264   1.324   3.879
16876W        W85270   5.097  22.470  11.654
16877W        W85271   8.821  11.089  10.760
16878W        W85272   1.969  27.019   3.722
16879W        W85273  27.528  37.525   0.396
16880W        W85274  14.020  21.160  12.547
16881W        W85275  15.850  35.992   4.596
16882W        W85276  27.115   2.887   1.783
16883W        W85277  26.837   0.176   2.795
16884W        W85278  44.774  36.628  12.087
16885W        W85279   1.169   2.191  11.094
16886W        W85280  23.999   0.486   1.705
16887W        W85281  27.957  17.670  13.965
16888W        W85282  34.167  27.004  10.471
16889W        W85283  19.551   7.307  14.722
16890W        W85284  37.020  18.749  12.404
16891W        W85285  37.113  44.835  13.079
16892W        W85286  42.778  20.485   4.396
16893W        W85287  20.453   7.290   2.960
16894W        W85288  22.282  15.558   2.626
16895W        W85289  40.605   8.628   0.808
16896W        W85290  39.847  32.559   4.597
16897W        W85291  19.218  20.797  14.916
16898W        W85292  12.288   9.345   4.253
16899W        W85293   3.362   4.887  14.565
16900W        W85294  12.731  36.220   1.980
16901W        W85295  12.786   3.230  14.444
16902W        W85296   3.031   8.815  11.516
16903W        W85297  40.482  18.382   3.148
16904W        W85298  41.437  36.705  13.220
16905W        W85299  27.174  18.099   4.650
16906W        W85300  16.935  37.452  11.174
16907W        W85301   9.544  15.804  12.938
16908W        W85302  16.643  32.913  13.866
16909W        W85303  40.055  20.139   1.568
16910W        W85304  34.639  40.520   4.130
16911W        W85305  29.466   7.308  11.597
16912W        W85306   2.101  14.537  12.855
16913W        W85307  11.960  38.618   3.116
16914W        W85308   7.668   7.163   4.984
16915W        W85309  26.541  12.110   3.597
16916W        W85310  10.294  23.327  11.417
16917W        W85311  27.373  16.472   2.758
16918W        W85312  38.998  34.916  10.530
16919W        W85313  12.284  18.721   3.374
16920W        W85314  19.151   6.094   2.852
16921W        W85315  40.430  24.916   4.917
16922W        W85316  18.225  21.933  12.585
16923W        W85317  36.610  35.036   0.479
16924W        W85318   0.197  40.010   1.848
16925W        W85319  16.242  18.007   2.239
16926W        W85320  43.094  21.547  14.511
16927W        W85321  20.650  36.698  12.088
16928W        W85322  34.745  14.536   1.224
16929W        W85323  35.367  30.976  14.858
16930W        W85324  20.047  11.415   4.144
16931W        W85325  18.332  41.822  10.691
16932W        W85326  15.878  17.960   4.982
16933W        W85327  18.856  44.273   4.582
16934W        W85328  27.975  22.133   0.257
16935W        W85329  34.383  22.682   3.123
16936W        W85330  13.695  19.039   3.802
16937W        W85331  43.575   0.806  12.496
16938W        W85332   2.701  27.969  11.773
16939W        W85333  27.245   3.729  11.903
16940W        W85334  23.946  35.489   3.522
16941W        W85335  14.107  31.987  13.455
16942W        W85336  27.432  22.552  12.654
16943W        W85337  23.561  11.159  11.594
16944W        W85338   3.062  17.181   2.874
16945W        W85339  38.701  15.912   0.561
16946W        W85340   4.727  10.238  12.094
16947W        W85341  28.849   6.299  11.190
16948W        W85342  13.288  21.511   0.460
16949W        W85343  41.799   6.007   1.800
16950W        W85344  43.422  10.220  13.123
16951W        W85345  33.001  37.112   2.490
16952W        W85346   7.297  14.358  13.793
16953W        W85347   7.416  30.585   1.925
16954W        W85348  15.530  25.106  14.667
16955W        W85349  18.608  21.508   3.701
16956W        W85350  25.784  13.667  12.490
16957W        W85351  14.994  30.250   2.886
16958W        W85352  42.726   9.667   0.345
16959W        W85353  10.950   2.701  11.137
16960W        W85354   2.433  10.103  12.532
16961W        W85355   5.389  34.880   0.501
16962W        W85356  40.436   2.717  11.610
16963W        W85357  11.253  43.881   2.528
16964W        W85358  32.379  31.277   4.103
16965W        W85359   6.960  20.197  11.759
16966W        W85360  32.100  38.600   0.668
16967W        W85361  18.066  18.351   2.247
16968W        W85362  34.922   4.923   0.526
16969W        W85363  42.903  11.978   2.157
16970W        W85364  27.557   8.662  10.724
16971W        W85365  22.297  31.933   3.628
16972W        W85366  38.470  39.447   1.719
16973W        W85367  44.250  30.765  13.549
16974W        W85368  27.376  25.159   1.839
16975W        W85369   6.740   9.343   0.875
16976W        W85370   4.462   3.985   9.895
16977W        W85371  19.298  26.248   2.842
16978W        W85372  13.310  22.613  13.441
16979W        W85373   4.825  18.333   4.088
16980W        W85374  26.085  32.779   2.171
16981W        W85375  10.616  39.142  11.065
16982W        W85376   5.866  38.663   3.135
16983W        W85377  33.752  40.580   0.373
16984W        W85378  25.194  32.771  13.132
16985W        W85379  24.528   2.771  14.900
16986W        W85380  32.018  20.534   1.694
16987W        W85381   1.023  31.571  13.982
16988W        W85382  29.538   7.854  14.284
16989W        W85383  12.854  22.751  14.947
16990W        W85384  12.550   5.396   2.794
16991W        W85385  21.296  18.527   0.410
16992W        W85386  36.791   8.302   0.876
16993W        W85387  22.746  37.051   4.264
16994W        W85388   6.471  44.725   4.670
16995W        W85389   2.444  12.174  12.937
16996W        W85390  40.910   3.442   2.440
16997W        W85391   9.153  22.811  14.128
16998W        W85392   5.911  36.056   3.716
16999W        W85393   8.114  43.363   2.797
17000W        W85394  20.860  30.314  10.045
17001W        W85395  35.033  18.665  11.681
17002W        W85396  23.623   5.165   2.858
17003W        W85397   4.366  43.722  10.596
17004W        W85398  37.011   2.857  11.614
17005W        W85399   0.838   2.519   4.869
17006W        W85400  33.345  37.503   4.194
17007W        W85401  34.109  39.145   0.958
17008W        W85402  11.213  38.196  13.973
17009W        W85403   9.484  44.516  13.097
17010W        W85404  26.328  36.442  13.133
17011W        W85405  41.493  17.379  13.486
17012W        W85406  36.149  26.322  12.118
17013W        W85407  28.703  38.306   0.261
17014W        W85408   3.149  26.661  14.884
17015W        W85409  16.539  39.423  13.367
17016W        W85410  17.068  19.276   3.157
17017W        W85411  27.963   3.036  13.952
17018W        W85412  10.878  37.183  11.301
17019W        W85413  22.656  17.569  11.527
17020W        W85414   7.825  28.388   1.988
17021W        W85415  44.563  10.305   0.380
17022W        W85416  24.327   6.758  13.992
17023W        W85417  19.513  21.508  11.178
17024W        W85418  34.365  44.881   2.260
17025W        W85419  17.325  17.600   0.788
17026W        W85420  41.850  17.498  11.050
17027W        W85421  27.122  11.601   4.139
17028W        W85422  26.069  32.489  12.057
17029W        W85423  38.861  44.912   9.853
17030W        W85424   9.177  22.641   1.440
17031W        W85425  12.788  11.539  13.493
17032W        W85426  34.510  20.782   3.912
17033W        W85427  16.269  15.715  12.900
17034W        W85428  12.661  33.906  13.732
17035W        W85429  19.181  17.857  14.304
17036W        W85430  34.333  27.241  11.756
17037W        W85431  26.937   4.319  12.621
17038W        W85432   9.274  17.007  11.279
17039W        W85433  16.466   6.298   2.550
17040W        W85434  26.510  13.781   2.268
17041W        W85435  20.027  31.948   2.431
17042W        W85436   4.282  26.883   3.789
17043W        W85437   2.000  20.030  14.835
17044W        W85438   9.911  28.043  11.629
17045W        W85439  22.587  22.956  13.514
17046W        W85440  42.994   3.212   2.237
17047W        W85441   4.927  24.535   2.393
17048W        W85442  32.695  38.425  14.368
17049W        W85443   0.229  40.433   0.982
17050W        W85444  29.385   7.403  11.084
17051W        W85445  32.452  20.493  12.457
17052W        W85446  38.349   2.046   2.748
17053W        W85447  10.747  25.070  11.006
17054W        W85448   1.919  27.853  13.930
17055W        W85449  14.116  10.876  13.863
17056W        W85450  18.255   5.920   3.412
17057W        W85451  20.889  38.541  14.442
17058W        W85452  28.473   4.839  11.157
17059W        W85453  23.074  12.407  11.091
17060W        W85454  21.944  34.379  13.500
17061W        W85455   0.764  27.444   1.695
17062W        W85456   5.956  30.500   0.205
17063W        W85457  42.291  12.227  13.787
17064W        W85458  14.885  28.452   1.221
17065W        W85459  40.373  38.650  14.411
17066W        W85460   7.670   8.787  14.424
17067W        W85461  25.947  38.906  13.359
17068W        W85462  16.214  38.228   1.650
17069W        W85463  14.274  28.962  10.841
17070W        W85464  15.100  40.831   0.374
17071W        W85465  39.064  18.424   5.108
17072W        W85466   5.158  31.543   2.384
17073W        W85467  19.264  42.445  12.033
17074W        W85468  32.456  37.074   4.555
17075W        W85469  21.154  13.742   3.717
17076W        W85470  44.338  20.245   3.678
17077W        W85471   0.944  31.944   0.753
17078W        W85472  38.688  29.408   1.167
17079W        W85473  28.587  28.955   0.725
17080W        W85474  37.488  37.970  13.843
17081W        W85475   7.111   3.831   1.707
17082W        W85476   1.506  24.642  11.517
17083W        W85477  13.193  20.832  14.877
17084W        W85478  23.205  42.562  13.977
17085W        W85479  36.958  37.486  13.291
17086W        W85480  15.324  15.669  13.991
17087W        W85481  36.989  36.299   2.853
17088W        W85482  39.890  12.617   1.882
17089W        W85483  18.612  10.289  13.099
17090W        W85484   8.436   9.046  11.416
17091W        W85485  44.908  25.722  14.280
17092W        W85486  42.386  12.413   2.789
17093W        W85487  26.701   2.292  13.545
17094W        W85488  21.778  29.131  11.495
17095W        W85489  36.251  16.871   2.251
17096W        W85490  27.465  37.095  10.717
17097W        W85491  39.860   9.651   1.365
17098W        W85492  11.705  16.939   2.629
17099W        W85493  19.677  25.317   1.397
17100W        W85494  22.698   7.646  14.021
17101W        W85495  42.255   5.142  14.768
17102W        W85496  34.934  39.948  11.984
17103W        W85497  15.271   5.888  14.253
17104W        W85498   9.900  35.945   2.849
17105W        W85499  43.821  25.513  12.936
17106W        W85500  13.351   8.978  13.454
17107W        W85501   7.385  19.045  10.527
17108W        W85502  37.990  44.359  13.027
17109W        W85503  25.023  28.143  14.918
17110W        W85504   1.209  37.253   1.443
17111W        W85505  10.774  19.674  11.639
17112W        W85506   8.461   9.683  10.595
17113W        W85507  31.996  26.849   1.858
17114W        W85508  37.605   2.499   4.150
17115W        W85509   1.937   2.431  14.069
17116W        W85510   9.671  33.004  13.864
17117W        W85511  44.362   2.430  10.474
17118W        W85512  28.701  24.721  12.423
17119W        W85513  29.974  11.663  12.014
17120W        W85514  40.302  42.915  14.739
17121W        W85515  19.127  22.218  10.716
17122W        W85516   0.883   0.287  12.101
17123W        W85517  15.171  18.790   0.867
17124W        W85518  32.633  17.959   0.568
17125W        W85519  37.045  33.053  14.320
17126W        W85520  35.854  35.123  13.795
17127W        W85521   2.472   4.277   2.323
17128W        W85522  11.205  42.745   4.194
17129W        W85523  19.548  41.846  14.114
17130W        W85524  42.278   2.088  11.525
17131W        W85525   6.316  41.123   3.690
17132W        W85526  28.985  31.446   0.850
17133W        W85527  30.438  12.319   2.316
17134W        W85528  41.366  13.184   3.160
17135W        W85529  12.053  10.221   3.692
17136W        W85530  16.116   6.459   1.254
17137W        W85531  28.026  43.930   1.313
17138W        W85532  19.652  35.704  13.899
17139W        W85533  44.534  24.856  11.097
17140W        W85534  22.526   0.248   2.351
17141W        W85535   8.626   4.554  14.329
17142W        W85536  24.210  28.495  10.765
17143W        W85537  25.411  32.941   1.801
17144W        W85538   0.573   9.671   0.006
17145W        W85539  42.247  37.277  13.367
17146W        W85540  23.111  28.516  14.959
17147W        W85541  18.174   1.432  13.466
17148W        W85542  12.954  22.485  10.953
17149W        W85543  41.001  14.538  10.496
17150W        W85544  27.583  27.595  10.859
17151W        W85545  21.122  39.310  11.549
17152W        W85546   1.629   6.686   4.112
17153W        W85547  26.428  27.511   3.192
17154W        W85548  19.163   3.024  11.564
17155W        W85549  31.003  29.689   2.571
17156W        W85550  22.155  40.558  11.648
17157W        W85551  43.920  29.199   4.689
17158W        W85552  18.888   4.078   1.204
17159W        W85553  15.255  33.009   2.755
17160W        W85554  31.837  27.712   4.307
17161W        W85555  29.170  40.856   1.782
17162W        W85556  27.921  26.481  12.998
17163W        W85557  32.893  37.487   2.849
17164W        W85558  21.288  41.470  11.219
17165W        W85559   8.252   0.282  11.776
17166W        W85560  13.697  28.809  14.261
17167W        W85561  13.258  28.279  11.778
17168W        W85562  23.008   4.966  12.044
17169W        W85563  25.391  29.457   3.832
17170W        W85564  29.470   0.724  13.998
17171W        W85565  24.105   0.222   2.905
17172W        W85566  40.409  28.537  13.932
17173W        W85567   0.542  34.803  12.573
17174W        W85568   2.319  10.178  10.310
17175W        W85569  19.830  44.478   3.114
17176W        W85570  29.443  27.632   4.169
17177W        W85571  43.770  27.060   0.005
17178W        W85572  26.607  25.624   1.704
17179W        W85573  12.300  18.072  11.022
17180W        W85574  44.204  38.236  12.896
17181W        W85575  24.547   4.494   2.329
17182W        W85576  15.350  27.476   1.506
17183W        W85577  29.998   1.733  12.503
17184W        W85578  23.672   8.159  14.931
17185W        W85579  19.553   2.725  13.496
17186W        W85580  40.565  27.179  12.354
17187W        W85581  16.236  25.193   3.814
17188W        W85582  39.219  22.581  13.762
17189W        W85583  23.545  14.895   2.186
17190W        W85584  23.139  32.401   2.415
17191W        W85585  11.404  20.511   0.383
17192W        W85586  34.492  19.723  13.013
17193W        W85587  41.068  28.967   4.722
17194W        W85588  12.576  25.983  11.985
17195W        W85589  13.376   0.428  12.647
17196W        W85590  24.684  26.055  14.268
17197W        W85591   9.351  20.176  10.662
17198W        W85592  31.142   6.882  14.370
17199W        W85593  28.529  36.232   4.113
17200W        W85594  35.895  15.519  12.952
17201W        W85595  26.072  16.787  10.710
17202W        W85596  19.543   5.830   2.291
17203W        W85597  42.727  31.393  11.725
17204W        W85598  11.369   6.147   2.526
17205W        W85599  41.017  27.990   2.412
17206W        W85600   3.878  28.113  13.966
17207W        W85601  13.622  28.244  13.891
17208W        W85602  44.694   4.410  11.936
17209W        W85603  41.250  24.301  11.647
17210W        W85604  27.028  30.219  10.826
17211W        W85605   0.994  41.067  13.931
17212W        W85606  25.997  16.278   1.470
17213W        W85607  29.662  34.107   1.919
17214W        W85608  32.628  42.428   4.868
17215W        W85609  37.041  14.157  12.148
17216W        W85610   2.163  22.407   1.138
17217W        W85611  26.122  18.305   3.750
17218W        W85612   5.303  40.900   4.071
17219W        W85613  24.545  40.904  14.044
17220W        W85614  18.356  29.462  11.558
17221W        W85615   4.639  15.151   2.370
17222W        W85616  23.145  19.026  14.043
17223W        W85617  36.659  23.142   3.505
17224W        W85618  36.955   8.681  12.912
17225W        W85619  15.659  10.752   1.190
17226W        W85620  22.527  40.460   1.738
17227W        W85621   6.819  16.844  14.552
17228W        W85622  31.014  34.111  10.799
17229W        W85623   3.696   9.155   0.754
17230W        W85624  14.364  14.362  13.536
17231W        W85625  19.077   9.277   2.668
17232W        W85626  12.248  19.084   0.215
17233W        W85627  39.501  35.221  12.539
17234W        W85628  37.026  41.836   2.931
17235W        W85629  40.325  36.400   3.004
17236W        W85630  33.371  18.232  10.853
17237W        W85631  25.620  36.790   0.814
17238W        W85632  26.596  44.408   1.318
17239W        W85633  14.182  16.149  13.998
17240W        W85634   4.864  14.592   1.675
17241W        W85635   4.568  41.007   2.909
17242W        W85636  19.791  15.347  10.283
17243W        W85637   7.879  24.171   0.977
17244W        W85638   3.909   8.467   4.312
17245W        W85639  17.104  29.426  12.483
17246W        W85640  36.931  38.399   0.978
17247W        W85641  25.755  41.368   2.835
17248W        W85642  26.514  38.237  14.789
17249W        W85643  27.136  27.709  10.600
17250W        W85644  24.505  24.711   3.301
17251W        W85645   4.350  35.570  12.359
17252W        W85646  44.407  10.738   4.734
17253W        W85647  26.527   7.783  13.611
17254W        W85648  30.492  36.613   3.320
17255W        W85649  24.445  26.691  12.073
17256W        W85650   4.177   1.219   3.147
17257W        W85651  37.906   5.793  10.860
17258W        W85652   1.023  38.890  13.574
17259W        W85653   3.727  24.010  14.327
17260W        W85654   4.464  30.134   3.791
17261W        W85655  43.259  20.315   4.561
17262W        W85656  24.877  30.021   2.786
17263W        W85657   6.237  18.796   1.740
17264W        W85658  37.369   4.749   5.110
17265W        W85659   9.188  43.785   4.501
17266W        W85660  23.448  10.460   3.603
17267W        W85661  18.306  38.433   3.646
17268W        W85662   2.526  27.491   1.311
17269W        W85663  19.874  14.516   3.080
17270W        W85664  26.241  34.225  11.069
17271W        W85665  34.772  14.183  13.226
17272W        W85666   7.319   8.632   3.169
17273W        W85667  17.438   2.225   3.993
17274W        W85668   4.769  44.634   2.735
17275W        W85669  15.590   5.200  12.928
17276W        W85670  24.623  12.777   5.020
17277W        W85671  10.698   8.518   0.269
17278W        W85672  12.239  40.010  11.803
17279W        W85673  16.284   5.070  10.773
17280W        W85674  33.583  15.388  14.402
17281W        W85675  39.785  32.053  12.425
17282W        W85676   7.626  28.520   0.366
17283W        W85677  16.390  38.749  12.843
17284W        W85678  32.898   2.430  11.535
17285W        W85679   6.791  11.389  10.444
17286W        W85680  43.402  12.344  14.525
17287W        W85681  13.644  25.747   0.015
17288W        W85682  34.607   3.827  14.036
17289W        W85683  26.707  28.967   3.595
17290W        W85684  44.801  37.359  13.841
17291W        W85685  14.593  10.352   2.620
17292W        W85686  20.977  35.851  11.648
17293W        W85687   4.954  17.695  13.397
17294W        W85688   7.156  27.449  12.024
17295W        W85689   9.340  20.716  12.422
17296W        W85690  10.381  44.523  12.828
17297W        W85691  17.228  40.987  11.002
17298W        W85692  32.965  25.948   3.824
17299W        W85693  30.622  34.856  13.805
17300W        W85694  23.289  34.999   4.246
17301W        W85695  14.258  28.289  11.761
17302W        W85696  29.219   3.748   3.147
17303W        W85697  35.596  34.219  10.946
17304W        W85698  16.816  30.950   3.580
17305W        W85699  44.873  17.845   0.868
17306W        W85700  21.759  20.647   2.556
17307W        W85701  34.000  29.195  10.527
17308W        W85702   7.713   0.793   0.804
17309W        W85703  40.835   6.657   1.251
17310W        W85704  31.165  26.947   4.269
17311W        W85705  19.520  41.916  11.236
17312W        W85706  28.005  41.965  14.350
17313W        W85707  25.127   6.685  12.996
17314W        W85708   4.459  32.775  14.697
17315W        W85709  12.797  14.018  12.242
17316W        W85710  42.277  21.635   4.871
17317W        W85711  23.033   8.317  12.157
17318W        W85712  27.671  36.355  13.019
17319W        W85713  41.867  22.532   1.782
17320W        W85714  19.005  26.772  14.682
17321W        W85715  15.081  38.396  13.350
17322W        W85716  29.098  24.189   4.011
17323W        W85717  10.330  24.141  11.076
17324W        W85718  16.928  27.414  13.999
17325W        W85719  18.216   9.818   0.929
17326W        W85720  31.990   3.122   1.451
17327W        W85721  42.067  33.687  11.467
17328W        W85722   4.625   6.923   0.893
17329W        W85723  21.978   2.958  11.459
17330W        W85724  41.521  27.699  12.877
17331W        W85725   0.796   0.555   2.195
17332W        W85726  43.789  35.302  13.641
17333W        W85727  37.620   7.780   0.777
17334W        W85728  25.067  27.024   0.400
17335W        W85729  44.504  27.116  14.762
17336W        W85730  10.330   9.553  11.195
17337W        W85731   2.381  42.241  11.074
17338W        W85732  37.041  36.085   0.432
17339W        W85733   8.107  30.576  14.073
17340W        W85734  34.478   4.966  11.196
17341W        W85735  17.708  11.061   0.801
17342W        W85736  24.748  16.478   0.768
17343W        W85737  30.543  15.094  11.555
17344W        W85738   3.427   6.038   4.986
17345W        W85739  30.589   5.315  10.778
17346W        W85740  35.404  35.239   0.232
17347W        W85741   0.582  10.305   1.208
17348W        W85742  30.410  37.967  11.884
17349W        W85743  40.520  38.929  14.907
17350W        W85744  26.264  34.691  14.450
17351W        W85745   8.775  19.104   0.135
17352W        W85746   1.108   7.526   9.916
17353W        W85747   3.905  17.784  13.264
17354W        W85748   3.844  18.081   2.240
17355W        W85749  29.220  31.722   4.515
17356W        W85750  25.669  37.983  14.344
17357W        W85751  35.041  20.288   2.573
17358W        W85752  31.374  23.616  14.958
17359W        W85753  10.249  14.636   4.110
17360W        W85754   8.516  29.013   3.543
17361W        W85755  40.292   9.874   2.994
17362W        W85756  10.400  10.351  12.467
17363W        W85757   4.324  31.811  13.865
17364W        W85758  43.136   7.068   2.136
17365W        W85759  43.087  15.829  14.842
17366W        W85760  17.971  32.554   0.482
17367W        W85761  20.369  43.942  11.211
17368W        W85762  44.293  39.498  12.605
17369W        W85763  35.561  10.754  13.340
17370W        W85764  12.537  34.872  10.715
17371W        W85765  28.253  42.781   3.662
17372W        W85766  12.070  44.347   3.195
17373W        W85767  15.372   2.018  14.295
17374W        W85768  19.358  26.289   1.254
17375W        W85769  28.438  29.898   4.563
17376W        W85770  17.146   6.296  11.108
17377W        W85771  18.111  39.349   3.175
17378W        W85772  32.104   9.938   1.764
17379W        W85773  36.495  34.379   2.879
17380W        W85774  30.540  10.659  11.447
17381W        W85775   4.473  28.918  13.516
17382W        W85776  43.732  13.242   4.985
17383W        W85777  24.097  34.321   1.741
17384W        W85778  14.107  26.313  12.429
17385W        W85779  21.991   0.531  13.380
17386W        W85780  10.669  28.523  11.471
17387W        W85781  22.973  10.057   4.898
17388W        W85782  21.854   7.692  12.493
17389W        W85783  28.417  15.002  14.012
17390W        W85784  42.775  40.041  14.310
17391W        W85785  26.925  42.099  14.443
17392W        W85786  22.102   1.493  14.752
17393W        W85787   2.896  30.450  14.444
17394W        W85788  27.226  16.380   3.363
17395W        W85789   2.391  12.321   3.646
17396W        W85790  34.351   6.729  13.023
17397W        W85791  21.962  33.547   0.483
17398W        W85792  35.667  34.523   1.752
17399W        W85793  30.392  10.986   4.355
17400W        W85794  22.766  42.780   2.782
17401W        W85795   2.295   6.471   3.545
17402W        W85796  11.729  27.084  11.174
17403W        W85797   2.815   6.767   1.424
17404W        W85798  39.944  12.227  14.931
17405W        W85799   8.237  20.032   0.761
17406W        W85800  32.664  32.681   0.555
17407W        W85801   7.327  27.062   4.632
17408W        W85802  28.186   2.085  11.132
17409W        W85803   0.002   9.460   1.712
17410W        W85804  24.266  13.824   1.777
17411W        W85805   7.178  33.211   4.489
17412W        W85806  18.546  24.597   3.870
17413W        W85807  14.267  26.849  14.657
17414W        W85808  12.010  15.151  12.361
17415W        W85809  37.408  28.009   0.928
17416W        W85810  24.146  36.555  12.493
17417W        W85811   7.515   3.104   4.127
17418W        W85812   9.306  21.849  12.430
17419W        W85813   3.227  12.561   0.765
17420W        W85814   0.846   0.454  13.890
17421W        W85815  18.829  43.359   4.145
17422W        W85816  36.833  28.013  12.460
17423W        W85817  26.961  13.504   2.297
17424W        W85818  36.033  22.358   3.725
17425W        W85819  23.007   2.508  12.082
17426W        W85820  42.026  14.925   3.152
17427W        W85821  16.987   6.751   1.865
17428W        W85822  37.491  17.096   0.756
17429W        W85823  12.367  18.108  11.985
17430W        W85824  29.264  28.737   2.799
17431W        W85825  23.745   1.230   0.325
17432W        W85826  11.817  19.448   1.058
17433W        W85827   7.667  16.626   4.185
17434W        W85828  44.709  26.871  10.958
17435W        W85829  15.806   9.357   3.207
17436W        W85830  11.576  25.666  11.065
17437W        W85831  29.591  30.084   3.112
17438W        W85832  13.339  33.882  11.244
17439W        W85833   7.844  27.309   5.406
17440W        W85834  11.520  18.131   0.780
17441W        W85835  44.520  28.047   1.814
17442W        W85836   8.259   6.052  14.906
17443W        W85837  23.610   7.771   3.147
17444W        W85838   8.326  40.696   4.412
17445W        W85839  33.405  34.882  13.162
17446W        W85840  13.566   1.929   3.609
17447W        W85841  30.218   8.331   0.213
17448W        W85842  21.248   1.045  14.772
17449W        W85843  29.677   0.007  14.540
17450W        W85844  18.839  23.844  14.253
17451W        W85845  43.020   3.786   0.888
17452W        W85846  39.951  31.745   2.221
17453W        W85847  39.577  37.020   0.079
17454W        W85848  31.169  14.602  12.189
17455W        W85849   6.356   0.148   2.206
17456W        W85850  39.838  12.008  14.434
17457W        W85851  41.962   2.439  11.931
17458W        W85852  33.115  19.781  13.398
17459W        W85853  17.226  33.503  12.820
17460W        W85854  28.926  38.325  14.795
17461W        W85855  10.682   5.300   3.896
17462W        W85856   2.949  20.750   4.378
17463W        W85857  36.091   3.856  12.036
17464W        W85858  27.981  34.135   3.261
17465W        W85859  40.031   6.179  14.941
17466W        W85860  12.388  11.145   2.167
17467W        W85861  37.118  28.715  13.754
17468W        W85862   8.245  22.423   4.553
17469W        W85863   1.014   4.619  11.063
17470W        W85864  27.620  28.142  12.863
17471W        W85865  40.818  25.190   1.761
17472W        W85866  42.350  16.814   1.343
17473W        W85867  29.881  26.377  12.972
17474W        W85868  33.698  31.596  13.469
17475W        W85869  21.990  19.691  14.123
17476W        W85870  21.692  13.316   2.821
17477W        W85871  16.688  18.746  12.881
17478W        W85872  38.097  27.254  11.643
17479W        W85873  20.200  15.418  10.602
17480W        W85874  24.551  23.171  13.354
17481W        W85875  19.579  12.557  14.528
17482W        W85876  22.454  25.723  11.090
17483W        W85877  26.361  37.633  11.155
17484W        W85878  41.835  10.088  13.083
17485W        W85879   8.792  38.165   3.636
17486W        W85880  38.314  27.936  14.043
17487W        W85881   8.276  16.606   1.889
17488W        W85882  33.634  10.653  13.809
17489W        W85883  14.183  39.554  11.020
17490W        W85884   4.961  19.990   2.538
17491W        W85885  42.027  37.430  14.830
17492W        W85886   4.838  12.360   2.713
17493W        W85887  36.963   6.956  13.331
17494W        W85888  38.147  37.614   1.311
17495W        W85889  34.732  37.583   9.805
17496W        W85890  13.050   0.931  13.012
17497W        W85891  32.863  15.278  11.600
17498W        W85892   4.377  28.371   2.677
17499W        W85893  10.609  28.534   2.845
17500W        W85894  12.358  17.109  13.601
17501W        W85895  25.063  44.872   3.009
17502W        W85896   3.838  16.525  14.365
17503W        W85897  21.553   1.909   3.753
17504W        W85898   5.661  10.708   1.832
17505W        W85899   3.205  21.487  12.589
17506W        W85900   9.317   1.225  13.407
17507W        W85901  12.622   0.429  12.496
17508W        W85902  44.102  12.625   1.191
17509W        W85903  13.168  22.540  12.950
17510W        W85904  39.458  37.493   4.577
17511W        W85905  20.841  40.191   4.118
17512W        W85906  25.921  26.651  12.624
17513W        W85907  39.571   2.055  11.548
17514W        W85908  42.813   0.834   0.997
17515W        W85909  20.533  24.100  12.471
17516W        W85910  19.655   4.300   4.124
17517W        W85911   0.138  31.388   3.546
17518W        W85912   4.445   1.225  12.490
17519W        W85913  11.625  13.678  12.535
17520W        W85914  24.785  15.857  11.635
17521W        W85915  41.788  17.523  13.936
17522W        W85916  10.591   9.351   4.216
17523W        W85917  30.035  32.400   0.016
17524W        W85918  34.666   0.002   1.308
17525W        W85919   8.657  30.940   2.201
17526W        W85920   3.923   6.740   2.744
17527W        W85921   5.418  12.570  12.018
17528W        W85922  10.797  15.870  11.823
17529W        W85923  43.742  27.623  12.398
17530W        W85924  21.815  22.144  12.802
17531W        W85925  27.710   1.663   1.455
17532W        W85926  36.162  13.700  13.898
17533W        W85927   7.318   3.903   3.520
17534W        W85928  22.882   1.988   1.754
17535W        W85929  29.404  11.604  13.141
17536W        W85930   4.019  36.323  12.807
17537W        W85931  38.309  37.572   2.661
17538W        W85932  12.700  11.998   1.411
17539W        W85933   8.230  41.119   4.699
17540W        W85934  21.559  19.720  13.800
17541W        W85935  12.174  25.144   2.799
17542W        W85936  30.001   7.627  12.889
17543W        W85937  38.129  19.122   2.278
17544W        W85938  35.883  18.055   0.450
17545W        W85939  37.065   1.040   3.271
17546W        W85940   1.716  17.078   4.209
17547W        W85941  25.777  29.455   4.264
17548W        W85942  35.453  20.567  14.402
17549W        W85943  10.874  16.020  14.869
17550W        W85944  10.898  19.166  14.386
17551W        W85945  41.639  20.609   0.184
17552W        W85946  43.315  38.690   5.049
17553W        W85947   6.712  12.770  10.121
17554W        W85948  29.956  41.555   1.916
17555W        W85949  22.545  38.555  14.512
17556W        W85950   3.257  30.527   3.100
17557W        W85951  17.660  30.415  10.640
17558W        W85952  31.987  42.849  12.416
17559W        W85953  26.890  36.685   0.217
17560W        W85954  20.055  43.185  12.338
17561W        W85955  41.398   8.750  11.030
17562W        W85956  37.541   4.770  12.024
17563W        W85957  27.043  12.902  14.322
17564W        W85958  30.047  25.292  12.967
17565W        W85959  19.554   0.785  13.386
17566W        W85960  28.186   6.994   4.215
17567W        W85961  43.738   9.151  14.927
17568W        W85962  29.914  10.673  14.636
17569W        W85963  36.550  12.379  14.191
17570W        W85964  42.478  19.814  14.827
17571W        W85965  36.829  37.442   2.806
17572W        W85966  17.248  26.984   4.431
17573W        W85967  15.644   6.231  13.073
17574W        W85968  14.889  34.597   3.293
17575W        W85969  23.632   3.732   0.872
17576W        W85970  32.508   8.941  12.619
17577W        W85971  11.181   1.458   1.261
17578W        W85972   3.143  26.619  10.107
17579W        W85973  10.436  41.842   1.516
17580W        W85974  34.030  27.045   2.417
17581W        W85975  32.410  24.636  14.905
17582W        W85976   3.956  24.121   1.714
17583W        W85977  19.974   5.704  12.936
17584W        W85978  13.548  39.558   2.266
17585W        W85979  12.082   4.167   0.810
17586W        W85980  15.076  30.894   4.722
17587W        W85981   0.954   9.112  12.519
17588W        W85982  42.087   6.847  14.420
17589W        W85983  34.378   9.110  12.455
17590W        W85984  26.963  23.738  13.899
17591W        W85985  40.823  40.112  12.145
17592W        W85986  31.554  17.649   1.294
17593W        W85987  17.542  15.372   0.384
17594W        W85988  25.988  15.511   3.211
17595W        W85989  31.062  17.738  10.531
17596W        W85990  36.740  17.276  13.055
17597W        W85991  32.144  30.661   3.686
17598W        W85992  29.375  19.215   3.311
17599W        W85993  39.463  21.487  11.245
17600W        W85994  40.974   9.089  12.036
17601W        W85995   4.887  21.283   2.790
17602W        W85996   9.218   8.680   1.766
17603W        W85997  43.365  41.296   0.291
17604W        W85998  17.013  20.801  10.091
17605W        W85999  36.749  22.847  14.818
17606W        W86000  18.324  36.650   4.161
17607W        W86001  26.633  39.642   0.393
17608W        W86002  27.857  24.902   1.936
17609W        W86003   7.454  13.324   3.118
17610W        W86004  19.361  29.459   1.124
17611W        W86005  34.564  21.731   3.076
17612W        W86006  27.489   9.676  14.434
17613W        W86007   8.237  36.826  14.056
17614W        W86008  22.543  29.901   1.940
17615W        W86009  13.176  28.083  14.849
17616W        W86010  11.250  30.894  10.777
17617W        W86011  27.053   0.407   2.354
17618W        W86012   8.329  43.687   2.121
17619W        W86013  12.179   1.292   1.494
17620W        W86014  23.522  27.382  12.821
17621W        W86015  43.547  14.357  12.089
17622W        W86016   2.670  32.950  13.932
17623W        W86017  15.662  10.248   2.788
17624W        W86018  34.544  23.699  14.724
17625W        W86019  24.059  13.331   0.907
17626W        W86020  12.187  42.873  13.657
17627W        W86021  31.071  35.419   2.073
17628W        W86022   6.202  43.366  12.511
17629W        W86023  39.404  44.953  13.001
17630W        W86024   1.372  25.756   2.656
17631W        W86025  17.305  23.308  14.070
17632W        W86026  19.175  15.984   0.337
17633W        W86027  36.520  26.030  10.655
17634W        W86028  12.212   0.465   1.747
17635W        W86029  27.525  36.312   3.169
17636W        W86030  29.844   4.185   3.409
17637W        W86031   0.957   2.245  11.728
17638W        W86032  17.067  26.227  10.453
17639W        W86033  21.023   5.511   4.837
17640W        W86034  38.637   1.023  14.959
17641W        W86035  17.953   9.079  13.504
17642W        W86036  36.390  37.582   3.804
17643W        W86037  26.259  38.863   0.570
17644W        W86038  18.136   6.324  10.908
17645W        W86039  21.579  29.986   3.344
17646W        W86040  31.650  13.075  14.423
17647W        W86041  29.088   6.814  14.934
17648W        W86042   4.649   1.461  13.357
17649W        W86043  30.958  30.564   3.148
17650W        W86044  10.136  44.929  12.633
17651W        W86045  27.991   2.425   2.347
17652W        W86046  38.845  38.516  14.585
17653W        W86047  17.818   6.324   0.776
17654W        W86048  43.031  11.437  11.458
17655W        W86049   4.564  10.652   4.056
17656W        W86050  25.986   8.201   0.219
17657W        W86051  25.223  37.865   4.167
17658W        W86052   6.202  19.485   2.270
17659W        W86053   1.667  17.477  14.775
17660W        W86054  41.300  42.533  12.159
17661W        W86055   9.182   9.145   0.976
17662W        W86056  40.856   9.695  10.916
17663W        W86057  32.391  29.503  11.023
17664W        W86058  19.133  43.126   0.298
17665W        W86059  24.072  36.027  14.536
17666W        W86060  28.186  29.592   4.936
17667W        W86061  19.054  19.614  14.315
17668W        W86062   9.390  31.411  11.973
17669W        W86063  16.576  33.726   0.242
17670W        W86064   2.506  17.113  14.706
17671W        W86065  20.763  35.402  11.508
17672W        W86066   9.975   1.776  10.172
17673W        W86067  39.272  32.575   4.273
17674W        W86068  38.103   6.883   3.900
17675W        W86069   2.276   6.864   0.388
17676W        W86070   0.903  24.934   2.717
17677W        W86071  30.068  10.042   1.199
17678W        W86072  13.792  17.247   1.582
17679W        W86073  19.657  15.622   4.622
17680W        W86074   7.189  28.971   3.198
17681W        W86075   2.170  24.467   0.363
17682W        W86076  22.447  41.034  13.088
17683W        W86077  14.189  12.054  12.592
17684W        W86078  32.196   3.749  11.593
17685W        W86079  30.138  30.582  12.173
17686W        W86080  32.531  44.389  13.874
17687W        W86081  11.635   5.237  14.062
17688W        W86082  32.609  25.997  13.058
17689W        W86083  41.998  35.430  13.652
17690W        W86084   0.461   2.526   2.377
17691W        W86085  22.390  41.901   4.730
17692W        W86086  41.386  20.758   4.126
17693W        W86087  40.930  16.569   2.256
17694W        W86088   1.960  38.048   3.945
17695W        W86089   8.357  33.429  11.426
17696W        W86090   6.212  14.723   0.732
17697W        W86091  39.842  30.398  12.982
17698W        W86092  14.998   8.197  10.944
17699W        W86093   7.428  43.742  11.034
17700W        W86094  22.115  31.982   0.999
17701W        W86095  40.300  24.181  10.928
17702W        W86096  15.568  32.945  10.669
17703W        W86097  30.511   7.425   2.904
17704W        W86098  28.981  21.182   4.173
17705W        W86099  35.448   4.932  11.399
17706W        W86100   9.288  36.096  14.317
17707W        W86101  10.340  33.051  12.377
17708W        W86102  15.039  41.825   2.665
17709W        W86103   9.476  27.029   5.106
17710W        W86104   8.124  27.678  12.117
17711W        W86105  20.209  15.535   2.006
17712W        W86106  18.512  26.012   1.785
17713W        W86107  18.517  10.306   1.369
17714W        W86108   7.284  35.515   3.818
17715W        W86109  14.533  17.668   1.813
17716W        W86110  35.490  36.828  11.724
17717W        W86111  36.629   7.701   2.526
17718W        W86112  38.413   7.455   4.700
17719W        W86113  36.068   3.496  10.513
17720W        W86114  41.065  28.562   0.736
17721W        W86115  24.985  12.616   2.719
17722W        W86116   2.428   2.309   2.201
17723W        W86117   2.923   5.348   1.712
17724W        W86118  31.937  30.519  14.969
17725W        W86119   1.873  17.138  13.970
17726W        W86120  11.273  33.187   3.295
17727W        W86121  34.438  33.084  11.477
17728W        W86122  25.949  12.768   2.715
17729W        W86123  37.518  21.661   1.449
17730W        W86124   8.625  38.445   2.793
17731W        W86125  22.048   2.086   4.017
17732W        W86126  41.993   5.258  11.220
17733W        W86127   8.920  25.748  10.305
17734W        W86128   5.977  13.808  14.641
17735W        W86129  23.123  37.336   3.182
17736W        W86130  43.817  10.338   4.383
17737W        W86131  33.979  32.885  13.227
17738W        W86132  39.423  16.585   3.449
17739W        W86133  29.205  15.624   2.612
17740W        W86134  19.852  41.577   1.640
17741W        W86135  16.853   8.768  14.131
17742W        W86136  13.852   3.288   3.758
17743W        W86137  44.848  44.555   1.948
17744W        W86138  15.806  39.458   1.341
17745W        W86139  18.225  25.008  10.250
17746W        W86140  11.188   3.788   0.873
17747W        W86141  12.773  29.592  14.028
17748W        W86142  25.109  23.724   4.010
17749W        W86143   5.849  44.030  11.618
17750W        W86144  44.232  10.786   3.336
17751W        W86145   6.164   5.384   5.567
17752W        W86146  18.363  19.007  12.738
17753W        W86147   1.371  35.139  11.651
17754W        W86148  22.659   3.261   2.773
17755W        W86149  40.837  34.997  11.869
17756W        W86150  35.341  33.612  12.939
17757W        W86151  10.529  23.666  11.125
17758W        W86152   0.478  30.721  10.949
17759W        W86153  29.990   8.409  10.383
17760W        W86154  23.988  16.634  14.721
17761W        W86155  42.001  41.289  12.118
17762W        W86156  30.590  28.418   4.184
17763W        W86157  42.420  16.257  10.655
17764W        W86158  35.206  32.579   1.545
17765W        W86159  42.887  15.183   1.290
17766W        W86160   3.467  44.724  13.267
17767W        W86161  27.057  41.881   0.982
17768W        W86162   7.646  39.080   2.340
17769W        W86163  33.953   8.433   3.281
17770W        W86164  18.613  43.494  11.409
17771W        W86165  25.551  15.633  11.014
17772W        W86166  34.234  15.233   1.802
17773W        W86167   1.620  11.030   0.737
17774W        W86168  44.307  23.557   0.303
17775W        W86169  39.628  44.859  11.987
17776W        W86170  33.714  18.753  13.314
17777W        W86171   1.238  12.419   1.009
17778W        W86172   1.202  12.719   0.151
17779W        W86173  17.017  16.104   1.666
17780W        W86174  32.128   6.018  13.908
17781W        W86175  10.493  32.405  14.729
17782W        W86176   5.354  34.895  14.064
17783W        W86177   4.438   6.224   3.677
17784W        W86178  39.886  25.544  11.595
17785W        W86179  24.318  28.881   2.719
17786W        W86180  25.146  32.511   4.254
17787W        W86181  19.307   2.261   4.129
17788W        W86182  29.948   7.291  14.601
17789W        W86183   0.342   7.361   3.372
17790W        W86184  33.377   2.861   3.091
17791W        W86185  13.147   0.367   4.731
17792W        W86186  44.633   2.293  12.942
17793W        W86187  16.140  21.327   1.470
17794W        W86188  32.006   5.893  10.261
17795W        W86189  12.343  31.549   0.279
17796W        W86190  44.530  29.495  12.419
17797W        W86191  37.971  42.302  12.190
17798W        W86192  40.348   4.358  12.954
17799W        W86193   7.400  37.921   3.930
17800W        W86194  15.634   9.893   0.080
17801W        W86195  13.355  36.102   0.894
17802W        W86196   3.969   4.508  13.396
17803W        W86197   4.269  29.469  11.939
17804W        W86198   0.337   3.534   0.541
17805W        W86199  38.979  24.060   5.244
17806W        W86200  21.529  39.080  12.120
17807W        W86201  43.765  33.003  12.228
17808W        W86202  30.302   4.935  13.302
17809W        W86203  24.737  41.715   3.272
17810W        W86204  18.741  42.126   4.682
17811W        W86205   3.307  28.341   4.147
17812W        W86206   3.159   6.319  12.433
17813W        W86207  10.665  22.894  13.821
17814W        W86208  18.219  34.999   0.698
17815W        W86209   9.911  22.258  11.812
17816W        W86210  44.898  42.516   3.621
17817W        W86211  32.152  38.636   9.717
17818W        W86212  22.708  11.247  14.503
17819W        W86213  11.861   4.707  10.969
17820W        W86214  17.122  20.556   0.994
17821W        W86215  40.080  28.551   3.094
17822W        W86216   8.627  14.341   0.533
17823W        W86217  18.748  44.425  10.377
17824W        W86218   8.825  18.701  12.011
17825W        W86219  35.391   9.858   3.733
17826W        W86220   2.032  37.317  13.440
17827W        W86221  13.239  15.829  11.676
17828W        W86222  25.021   4.232   1.281
17829W        W86223  26.001  37.570   3.311
17830W        W86224   8.468  16.651  10.505
17831W        W86225   7.309  41.981  10.714
17832W        W86226  19.539  40.929   4.443
17833W        W86227   7.944   9.191   2.822
17834W        W86228  16.812  31.091   1.819
17835W        W86229  16.252  41.161   4.597
17836W        W86230  35.835  32.997  14.978
17837W        W86231  30.710  21.224  11.247
17838W        W86232  36.427   9.912  14.345
17839W        W86233   8.304   1.226  14.308
17840W        W86234   8.847  20.370   1.200
17841W        W86235  27.306  11.835  10.120
17842W        W86236  36.610  41.749  13.794
17843W        W86237  11.733  17.070  13.828
17844W        W86238   0.477  17.987   2.932
17845W        W86239  17.310  14.121   1.266
17846W        W86240   0.225  37.758   0.424
17847W        W86241  39.858  21.092   0.477
17848W        W86242   1.591  15.667  14.832
17849W        W86243  18.312  21.229   1.748
17850W        W86244  13.783  36.074   4.587
17851W        W86245   4.896   3.694   3.663
17852W        W86246  18.261  39.634  13.761
17853W        W86247  34.869  21.583  11.691
17854W        W86248   4.703   2.558  10.551
17855W        W86249  29.004   6.637   1.432
17856W        W86250  43.495  25.530  10.806
17857W        W86251   2.903  26.012  13.804
17858W        W86252   7.898   9.123   3.664
17859W        W86253  37.660  44.432   2.605
17860W        W86254  25.621  35.962  10.714
17861W        W86255   3.918  31.752  11.312
17862W        W86256  33.906  36.374   2.738
17863W        W86257  39.088  29.674   1.378
17864W        W86258  28.166  39.194   1.442
17865W        W86259  19.128  13.666   4.141
17866W        W86260  39.091  44.818  12.016
17867W        W86261  23.407  41.309  12.867
17868W        W86262  32.134  35.937  11.444
17869W        W86263   7.606  32.582  14.938
17870W        W86264  12.386   7.298  12.864
17871W        W86265  25.283  39.002   0.309
17872W        W86266  22.650   5.108   0.987
17873W        W86267  22.727  22.260   2.152
17874W        W86268   1.936  33.837   4.401
17875W        W86269  10.322  11.997  11.605
17876W        W86270  11.217  16.032  13.598
17877W        W86271  42.101  40.455   0.955
17878W        W86272  41.254  24.598  11.216
17879W        W86273  24.758  15.993   1.073
17880W        W86274  30.752  27.274   1.959
17881W        W86275  40.427  12.429   1.303
17882W        W86276   6.257  32.440  14.521
17883W        W86277  29.546  34.193   1.270
17884W        W86278   0.442  10.865   3.787
17885W        W86279  30.718  23.951   4.718
17886W        W86280  31.460  24.196  14.824
17887W        W86281   6.315  25.775  14.766
17888W        W86282   5.490  20.733  11.116
17889W        W86283  24.251   0.823  10.462
17890W        W86284  28.130  14.619   4.422
17891W        W86285   9.529  39.633   2.714
17892W        W86286  13.816  38.604   1.945
17893W        W86287  26.915  29.300  12.545
17894W        W86288  19.835  38.916   5.009
17895W        W86289   0.587  24.629  13.394
17896W        W86290  28.166  18.720  13.468
17897W        W86291  20.549  29.809  13.466
17898W        W86292  29.715  25.041   1.521
17899W        W86293  37.437  37.514   0.134
17900W        W86294  18.826  24.178   3.832
17901W        W86295  31.447  29.733   1.398
17902W        W86296  24.709  10.791   3.240
17903W        W86297  13.287  40.460   0.294
17904W        W86298  40.875  39.845   1.003
17905W        W86299  34.162  39.776  10.862
17906W        W86300  12.580   0.861   4.469
17907W        W86301  34.618  18.847  10.926
17908W        W86302  33.683   3.690  11.790
17909W        W86303  25.639   0.445   4.728
17910W        W86304  18.757  18.601   3.881
17911W        W86305  28.676  22.219   3.519
17912W        W86306  21.633  11.347  11.403
17913W        W86307   4.928   8.640  13.992
17914W        W86308  21.016  25.228   2.699
17915W        W86309  32.400   1.382   0.455
17916W        W86310  10.170  25.979  13.602
17917W        W86311   8.453  13.923  11.111
17918W        W86312  13.475   0.025   3.710
17919W        W86313  15.587   4.677   4.447
17920W        W86314  12.263  22.689  11.984
17921W        W86315   8.536   2.000  11.812
17922W        W86316  30.353   8.851  14.726
17923W        W86317   9.450  38.514   3.092
17924W        W86318  20.061  10.437   0.535
17925W        W86319  31.006  43.955  14.974
17926W        W86320  19.250  21.568   1.827
17927W        W86321  17.774  22.446   3.167
17928W        W86322  29.559  30.833   2.120
17929W        W86323  42.090  23.881   2.621
17930W        W86324   7.661  32.898   2.648
17931W        W86325  33.074  14.691   1.494
17932W        W86326  36.854   2.746  13.636
17933W        W86327   9.235  44.780   4.595
17934W        W86328  36.065  11.888  12.528
17935W        W86329  43.280  20.772  13.479
17936W        W86330   4.467  38.272  11.146
17937W        W86331  19.178  38.603   3.727
17938W        W86332  29.574  33.511   2.685
17939W        W86333  42.323  22.405  10.695
17940W        W86334  15.747  22.105  12.054
17941W        W86335  39.792  20.668  12.145
17942W        W86336  18.290   3.779  10.600
17943W        W86337   9.772  44.824   4.540
17944W        W86338   0.732  29.227   4.967
17945W        W86339  10.466  33.366   2.702
17946W        W86340  26.566  42.292  13.634
17947W        W86341  20.053   2.813  13.353
17948W        W86342  38.607  10.732  12.922
17949W        W86343  13.409  19.155  11.085
17950W        W86344   1.473  20.031   0.040
17951W        W86345  11.299  31.398  13.047
17952W        W86346  44.622  17.109  14.681
17953W        W86347  20.857   4.182  12.899
17954W        W86348   4.513   2.194  10.240
17955W        W86349  15.066  21.943  14.421
17956W        W86350  32.808  34.686  14.897
17957W        W86351  27.172  22.882  11.035
17958W        W86352   0.642  41.917  11.112
17959W        W86353  33.426  22.518   3.109
17960W        W86354  11.674  37.320  12.878
17961W        W86355  24.193  32.569   0.201
17962W        W86356  25.903  25.560  10.691
17963W        W86357  30.542  34.538   3.571
17964W        W86358  42.412   5.901  13.893
17965W        W86359  12.093  40.883   4.488
17966W        W86360  27.139  26.064   1.705
17967W        W86361  22.187  21.322   0.689
17968W        W86362  42.201  10.688  10.757
17969W        W86363  19.013  43.599   1.013
17970W        W86364  35.310  44.517  12.554
17971W        W86365  28.393  20.251  14.235
17972W        W86366  20.740  14.893   2.680
17973W        W86367  39.994  16.168  11.516
17974W        W86368   8.115  30.174  12.584
17975W        W86369  26.966  15.841  13.248
17976W        W86370   7.147  18.594  11.525
17977W        W86371  41.364  18.836  10.751
17978W        W86372  33.447  16.230   4.840
17979W        W86373   4.997  44.411  11.132
17980W        W86374  31.619   1.060  11.743
17981W        W86375  15.401  13.197  14.752
17982W        W86376  38.061  41.371   0.703
17983W        W86377  13.333  39.635   3.475
17984W        W86378  43.727  10.184   2.167
17985W        W86379  35.034  24.606   2.348
17986W        W86380   8.331  34.104   0.018
17987W        W86381  34.873  18.070   3.423
17988W        W86382   7.400  38.469   1.048
17989W        W86383  35.384  10.135  13.773
17990W        W86384  28.612  42.171  13.805
17991W        W86385  11.082  21.349  14.305
17992W        W86386  24.007   8.171   3.772
17993W        W86387  23.131  20.517   1.472
17994W        W86388  12.550  33.077   0.847
17995W        W86389  37.602   4.828   2.723
17996W        W86390  15.134  10.310   4.532
17997W        W86391  17.606  43.366  13.600
17998W        W86392  21.251   2.028   0.010
17999W        W86393   4.145  37.055  10.800
18000W        W86394   0.298  38.366  13.722
18001W        W86395  17.530   7.962   3.617
18002W        W86396  26.123  41.245   3.316
18003W        W86397   2.359   8.847   3.779
18004W        W86398  25.946  43.513  12.100
18005W        W86399  16.981   4.161   2.681
18006W        W86400  16.113   4.859   2.835
18007W        W86401  16.588  13.864  10.774
18008W        W86402  44.762  16.752   4.250
18009W        W86403  36.059  41.420   0.298
18010W        W86404  11.741  17.002  12.921
18011W        W86405  11.359  10.573   1.844
18012W        W86406   6.518  22.604   2.204
18013W        W86407  20.959  11.765   1.694
18014W        W86408  34.363  21.081  12.399
18015W        W86409   4.792  20.740   4.621
18016W        W86410   0.145  28.906  12.859
18017W        W86411  43.314  38.676   2.572
18018W        W86412  30.299   2.491   2.716
18019W        W86413   8.795  35.589   2.351
18020W        W86414  18.953  15.179  12.016
18021W        W86415  38.509  33.862   3.944
18022W        W86416  19.293   5.894  11.433
18023W        W86417  36.541   6.368   9.759
18024W        W86418  35.303  38.613   0.411
18025W        W86419  27.050   7.501  11.754
18026W        W86420  36.064  26.231  13.804
18027W        W86421   0.832   7.197   2.121
18028W        W86422  30.028  34.422  10.743
18029W        W86423  38.975  22.896  13.335
18030W        W86424  40.757   8.110  11.996
18031W        W86425  21.054  27.405   3.705
18032W        W86426   7.092  21.234  11.950
18033W        W86427   8.230  26.658  12.020
18034W        W86428  31.053  29.096   4.241
18035W        W86429  27.951   3.808   1.305
18036W        W86430  11.306  39.446  14.372
18037W        W86431  35.572  42.839  11.925
18038W        W86432  33.836  43.331   1.712
18039W        W86433   2.401  36.522   0.517
18040W        W86434  44.123  32.695  12.427
18041W        W86435  19.187  30.144  10.746
18042W        W86436  40.986  30.368   4.692
18043W        W86437  19.197  38.348  14.256
18044W        W86438   0.015  31.950   0.550
18045W        W86439  28.418  44.689   1.224
18046W        W86440  26.009   9.238  13.012
18047W        W86441   1.659  12.705   4.500
18048W        W86442   5.433  21.323   4.575
18049W        W86443  37.482  11.203   3.157
18050W        W86444  22.232  17.152   1.652
18051W        W86445   0.998  24.578   3.548
18052W        W86446  29.484  43.507   2.393
18053W        W86447  31.858  33.936   4.537
18054W        W86448  33.451  32.663   3.218
18055W        W86449  11.868  37.505   4.595
18056W        W86450   0.672  32.392   2.512
18057W        W86451   2.363   0.250   1.317
18058W        W86452   8.736  31.596  10.770
18059W        W86453  34.395  28.093   3.321
18060W        W86454   6.187   9.563  14.698
18061W        W86455  31.097  10.840   0.041
18062W        W86456  12.841  16.700   3.216
18063W        W86457   1.913  44.049   1.407
18064W        W86458  10.169  17.913  11.592
18065W        W86459  19.405  28.627  10.774
18066W        W86460   7.962  13.333   3.207
18067W        W86461  18.234   6.180  13.133
18068W        W86462   0.361  44.839   1.940
18069W        W86463   7.954  16.870   3.634
18070W        W86464  24.586  30.565  10.374
18071W        W86465  35.302  42.079   4.555
18072W        W86466  19.497   0.235   4.645
18073W        W86467  30.596   5.147   1.738
18074W        W86468   4.225  41.628   3.762
18075W        W86469  32.167  41.777   2.284
18076W        W86470  39.346   3.986  10.546
18077W        W86471  34.169  22.697  11.087
18078W        W86472  34.404  33.847  12.153
18079W        W86473  20.752   7.272   2.476
18080W        W86474  44.018   1.577  10.925
18081W        W86475  43.616  28.131   0.321
18082W        W86476  21.736  38.994  14.429
18083W        W86477  33.975  14.266  14.355
18084W        W86478  33.451  31.977   3.720
18085W        W86479  10.127  22.209  10.751
18086W        W86480  15.507  28.864  11.499
18087W        W86481  36.541  14.913   3.814
18088W        W86482  38.812   1.543   3.256
18089W        W86483  16.176  14.584   3.821
18090W        W86484  35.348  11.098  11.150
18091W        W86485   5.212  41.776  10.710
18092W        W86486  33.007  37.521   2.141
18093W        W86487   4.602   7.964   4.027
18094W        W86488  39.007   4.767  10.943
18095W        W86489  20.653   2.473  14.580
18096W        W86490  10.649  35.008  11.843
18097W        W86491  42.552  19.826  13.448
18098W        W86492  34.497  26.138   0.799
18099W        W86493  13.748  26.867  12.111
18100W        W86494   2.256  11.835   4.601
18101W        W86495   4.703  10.779  11.062
18102W        W86496  25.096  24.933  13.531
18103W        W86497  23.475   6.186   1.680
18104W        W86498  39.498  27.528  14.093
18105W        W86499   5.705  41.077   2.177
18106W        W86500  30.926  21.359  14.764
18107W        W86501  18.129   9.792  12.021
18108W        W86502   1.365   7.467   3.466
18109W        W86503  16.269  44.392   2.471
18110W        W86504  31.033  31.052   2.856
18111W        W86505  30.426  10.312   1.505
18112W        W86506  42.207   9.690   2.412
18113W        W86507   9.762   3.738  13.959
18114W        W86508  33.859  21.773   1.741
18115W        W86509  21.480  35.929   1.400
18116W        W86510  21.260  26.078  11.448
18117W        W86511  20.509  39.703  11.021
18118W        W86512  32.105  31.307   2.175
18119W        W86513   0.020   9.600   3.818
18120W        W86514  10.349  36.131  10.720
18121W        W86515   5.346   7.694   2.316
18122W        W86516  18.591  37.587   3.233
18123W        W86517  15.819  41.954  13.862
18124W        W86518  17.188  35.101  10.476
18125W        W86519  40.360  40.469   2.262
18126W        W86520  38.337  29.617  13.894
18127W        W86521  23.974  39.900  12.860
18128W        W86522  14.201  35.357  12.666
18129W        W86523  29.652  32.628   0.778
18130W        W86524  12.159  20.599  14.775
18131W        W86525  13.587  17.718  14.414
18132W        W86526  12.179  37.580  11.267
18133W        W86527  19.123  12.272   2.745
18134W        W86528   8.173   4.859   2.704
18135W        W86529  34.452  22.576  11.525
18136W        W86530  23.148  16.898   0.353
18137W        W86531  25.897  36.105  10.300
18138W        W86532  19.205  17.731   3.920
18139W        W86533  14.719  31.818   0.159
18140W        W86534  19.105   8.564   0.450
18141W        W86535  10.922  26.518  12.784
18142W        W86536  36.188   6.728   3.702
18143W        W86537  14.131  15.371   2.654
18144W        W86538  16.091   1.490   1.422
18145W        W86539  14.844  16.241   9.857
18146W        W86540  21.126  22.587   3.920
18147W        W86541  43.990   7.748  14.392
18148W        W86542  19.516  19.039   2.620
18149W        W86543  22.168  18.714  12.249
18150W        W86544  34.890   5.647   3.648
18151W        W86545   3.598  15.754  10.277
18152W        W86546  24.222  37.068  13.384
18153W        W86547   4.797  13.588   3.920
18154W        W86548  16.723  13.370  10.750
18155W        W86549  42.602  18.335  13.800
18156W        W86550  30.127   7.316  14.095
18157W        W86551  16.688  18.061   0.471
18158W        W86552  19.250   6.268   3.336
18159W        W86553  24.051  19.838  12.613
18160W        W86554  17.258   2.517   0.824
18161W        W86555  39.793   5.904  13.784
18162W        W86556  14.543  39.771  12.973
18163W        W86557  17.143   3.830   4.405
18164W        W86558   7.397  20.046  14.501
18165W        W86559  22.246  12.587   2.916
18166W        W86560  21.718  32.662   1.361
18167W        W86561  22.038  32.659  11.383
18168W        W86562  41.779  28.516  12.401
18169W        W86563  17.226  38.795   1.788
18170W        W86564  30.110  42.495   3.630
18171W        W86565  14.810  29.992  14.852
18172W        W86566  31.403  43.087   3.169
18173W        W86567   2.344  37.676  13.130
18174W        W86568   1.443  17.313  11.401
18175W        W86569  28.008  22.624   0.382
18176W        W86570  21.516  22.215  11.982
18177W        W86571  20.422  19.317   1.733
18178W        W86572   1.514  43.032  13.487
18179W        W86573  16.341  36.089  10.924
18180W        W86574  18.796   3.112   0.767
18181W        W86575  35.289  30.571  14.367
18182W        W86576  43.280  15.563   2.574
18183W        W86577  27.934  17.176   5.147
18184W        W86578  19.195  21.255   1.389
18185W        W86579  18.668  19.293   1.426
18186W        W86580  15.001  16.509   3.711
18187W        W86581  38.239  12.283   2.864
18188W        W86582   3.690  44.226  11.153
18189W        W86583  39.367  27.098  11.102
18190W        W86584   8.966  21.709  14.314
18191W        W86585  10.207  41.507  10.239
18192W        W86586  36.102  40.730  12.394
18193W        W86587  38.110   0.740  12.757
18194W        W86588  26.982  33.788   2.235
18195W        W86589  44.402  23.503   3.571
18196W        W86590  24.549  36.021   0.329
18197W        W86591   8.870  28.573   2.291
18198W        W86592  33.416  43.082  13.907
18199W        W86593   7.115   8.606  12.968
18200W        W86594   9.354  11.594  11.035
18201W        W86595  27.422   1.428   2.819
18202W        W86596  17.203  37.997  14.859
18203W        W86597  34.319   8.133  12.331
18204W        W86598  42.391  32.582   0.367
18205W        W86599  15.365   9.246   2.277
18206W        W86600   2.730  37.091  11.557
18207W        W86601  43.275   3.042  14.959
18208W        W86602  24.229   7.270   4.801
18209W        W86603   2.627  28.741   3.817
18210W        W86604  41.951  34.872   0.789
18211W        W86605  38.326  10.531  13.937
18212W        W86606  30.009   4.493   0.470
18213W        W86607  31.481  34.080   0.443
18214W        W86608  11.055  34.381  14.462
18215W        W86609  10.306   2.482  12.426
18216W        W86610  20.538  33.571   2.706
18217W        W86611  31.445  20.573  13.029
18218W        W86612  14.267  17.002  10.714
18219W        W86613  32.921  33.370   0.077
18220W        W86614  12.086  30.471   2.875
18221W        W86615   8.306   0.773   4.559
18222W        W86616  17.737   6.144  14.841
18223W        W86617  35.136  42.464   0.283
18224W        W86618  15.716  44.730   4.995
18225W        W86619  12.344   8.828  11.124
18226W        W86620  34.466  25.203   2.488
18227W        W86621  35.969   0.327  12.029
18228W        W86622  30.125  42.595  10.665
18229W        W86623  28.519  43.583  12.160
18230W        W86624  33.933   2.173   4.350
18231W        W86625  15.876  12.250   0.346
18232W        W86626  16.799  10.526   2.204
18233W        W86627  16.264  19.541   3.553
18234W        W86628  34.550   3.048   2.264
18235W        W86629   8.815  43.420   4.576
18236W        W86630  14.367  21.870  12.017
18237W        W86631  32.715   0.469  12.420
18238W        W86632  31.865  13.944   2.813
18239W        W86633  41.252   5.052   4.563
18240W        W86634  36.027  43.051  12.091
18241W        W86635  32.134   1.978  14.452
18242W        W86636  31.812  20.102  11.112
18243W        W86637  21.870  13.242   0.723
18244W        W86638  30.713  11.165  13.090
18245W        W86639   9.698   1.724  10.613
18246W        W86640   8.223   3.718  14.355
18247W        W86641  34.470  38.493   0.210
18248W        W86642  44.257  11.830  14.450
18249W        W86643  42.518  22.669   4.141
18250W        W86644  20.630   7.343   4.804
18251W        W86645  19.020  29.083  10.002
18252W        W86646  16.319   7.775   4.983
18253W        W86647   4.278  38.748  14.920
18254W        W86648   3.531  17.206  11.077
18255W        W86649  28.161  22.023   2.637
18256W        W86650   3.272  28.973  14.249
18257W        W86651  38.050  33.536  13.128
18258W        W86652  25.778  30.156  12.087
18259W        W86653  40.083   7.148   4.051
18260W        W86654   4.465  19.231  14.494
18261W        W86655   8.912  33.167   3.301
18262W        W86656  38.323  15.137  13.967
18263W        W86657  19.601   3.778   3.990
18264W        W86658  23.573   5.083   0.901
18265W        W86659  19.261  25.162  13.198
18266W        W86660  27.591  15.766   4.497
18267W        W86661  24.657  23.110   4.511
18268W        W86662  42.056  20.166   3.345
18269W        W86663  19.526  28.614   3.977
18270W        W86664  24.926   8.096  13.919
18271W        W86665  34.073  29.398  10.996
18272W        W86666  32.727  41.688  11.705
18273W        W86667  39.318  39.984  11.978
18274W        W86668  36.958   9.585   2.886
18275W        W86669   0.784  31.854   5.273
18276W        W86670  24.628  43.749  13.872
18277W        W86671  23.867  26.145   0.241
18278W        W86672  18.851  30.009  13.728
18279W        W86673   0.449  16.979  12.088
18280W        W86674   9.187  15.062   2.675
18281W        W86675   3.187  32.843   3.350
18282W        W86676  20.785   6.630  10.774
18283W        W86677   6.542  18.339   9.707
18284W        W86678  34.453   4.758   0.330
18285W        W86679   3.155  42.999   2.883
18286W        W86680  18.015  34.027   3.174
18287W        W86681  32.007  20.647   2.839
18288W        W86682   7.535  16.433  12.563
18289W        W86683  41.932  40.360  14.094
18290W        W86684  10.750  33.118   4.213
18291W        W86685  11.780  18.792   0.054
18292W        W86686  20.618  12.857   3.075
18293W        W86687  13.539  23.029   1.445
18294W        W86688  19.801  28.961  12.995
18295W        W86689  34.698  35.989  10.757
18296W        W86690  41.174   5.321  13.024
18297W        W86691   8.150   4.845   9.734
18298W        W86692   1.487  10.271   0.258
18299W        W86693  38.370  13.349   1.583
18300W        W86694  27.076  20.521  11.910
18301W        W86695  44.113   9.780  12.439
18302W        W86696  33.984  38.404   1.668
18303W        W86697   6.023  28.862   2.339
18304W        W86698  22.533  33.951   1.662
18305W        W86699  39.337  24.431  14.422
18306W        W86700  16.768  44.360   3.715
18307W        W86701  39.066  20.574  12.585
18308W        W86702  30.135  20.676   4.692
18309W        W86703   6.344  12.236  13.761
18310W        W86704   7.788  18.270   4.684
18311W        W86705  13.874  32.599  13.836
18312W        W86706  27.589  38.548   1.676
18313W        W86707   6.977  39.877   2.450
18314W        W86708   6.317  38.592   3.990
18315W        W86709  39.910  28.458  12.785
18316W        W86710   2.765   7.228   3.647
18317W        W86711  30.005  19.484  11.494
18318W        W86712  22.024  19.488  13.359
18319W        W86713  31.594  35.909  11.390
18320W        W86714  33.411   8.481  11.655
18321W        W86715  15.412  38.395   0.968
18322W        W86716   3.877  24.197  12.587
18323W        W86717  30.526  20.077  12.735
18324W        W86718  13.033  17.701  14.399
18325W        W86719  30.914   7.645   1.495
18326W        W86720  31.670  30.447   1.901
18327W        W86721  33.334  24.994   3.750
18328W        W86722  42.071  23.290   0.443
18329W        W86723  32.786  43.832   2.460
18330W        W86724   2.391  33.612   2.809
18331W        W86725  33.975  12.019  11.392
18332W        W86726  29.115  38.202  14.306
18333W        W86727  23.936   6.266  12.347
18334W        W86728   4.569  16.592  12.590
18335W        W86729  41.481   1.976  12.038
18336W        W86730  10.225  15.829  14.052
18337W        W86731  12.185  38.777   1.322
18338W        W86732  15.310  39.085  13.872
18339W        W86733  21.642   2.200  13.599
18340W        W86734  11.433  16.812   1.561
18341W        W86735  18.733  19.835  13.305
18342W        W86736   1.366  43.315   1.271
18343W        W86737  11.550  12.632   3.153
18344W        W86738  19.301   6.249   1.981
18345W        W86739  31.579  21.293   4.368
18346W        W86740  16.220  34.117   2.296
18347W        W86741  28.263  28.791  11.092
18348W        W86742  23.271  19.558   2.721
18349W        W86743  19.254  33.585  12.793
18350W        W86744  42.605  39.475   2.702
18351W        W86745  34.435  36.466   2.742
18352W        W86746  37.504  36.494  10.801
18353W        W86747  27.654  34.625   3.729
18354W        W86748  38.115  39.290   0.279
18355W        W86749  17.319  44.282   2.945
18356W        W86750   2.033  26.441   0.492
18357W        W86751  19.635  41.383   4.219
18358W        W86752  35.879  40.457  13.562
18359W        W86753  43.299  35.313  12.442
18360W        W86754  44.539  10.196  10.683
18361W        W86755  16.198  28.484   1.740
18362W        W86756  44.365  38.363   0.924
18363W        W86757  24.619  40.425  14.222
18364W        W86758  41.982  26.296  12.936
18365W        W86759  21.045  13.581   1.784
18366W        W86760  38.442   7.884  12.219
18367W        W86761   5.517  25.953  13.321
18368W        W86762  20.240  40.833   1.756
18369W        W86763   6.919  16.409  14.280
18370W        W86764  41.305   6.725   3.385
18371W        W86765  42.102   2.089  12.314
18372W        W86766   1.303  36.425   0.420
18373W        W86767   0.447   2.875   1.664
18374W        W86768  40.002  37.862   3.772
18375W        W86769   1.457  31.723  12.544
18376W        W86770   9.893  35.568   0.404
18377W        W86771  14.674  27.167  14.425
18378W        W86772   6.139  38.376   3.499
18379W        W86773  29.211   5.924  11.372
18380W        W86774  36.032   7.637   1.899
18381W        W86775  23.802  44.094   3.845
18382W        W86776  25.730  35.074   2.134
18383W        W86777  19.225  24.304   0.781
18384W        W86778  23.779   3.871   2.382
18385W        W86779  22.424  32.867   0.227
18386W        W86780   6.067   9.133   3.765
18387W        W86781  27.180  30.120  13.597
18388W        W86782  41.820  39.710   2.519
18389W        W86783  38.492   5.811   0.869
18390W        W86784   3.587  17.578   2.297
18391W        W86785  40.182  24.564  13.430
18392W        W86786  12.902  28.445  11.427
18393W        W86787   6.514   8.412   4.242
18394W        W86788   7.919  15.247  14.330
18395W        W86789  15.272  17.706   3.719
18396W        W86790  36.193   0.703  10.425
18397W        W86791  39.513  37.022  12.185
18398W        W86792  10.183  17.242   0.424
18399W        W86793  26.473   0.249  13.364
18400W        W86794  19.175   7.339  11.177
18401W        W86795  11.737  20.959  13.868
18402W        W86796  25.150   3.121  10.907
18403W        W86797  10.898  15.707   1.737
18404W        W86798  10.723  14.163   1.350
18405W        W86799  21.962  18.593  12.718
18406W        W86800   6.486  16.761   0.836
18407W        W86801  30.902  16.616   3.624
18408W        W86802  12.668  42.563  11.443
18409W        W86803  42.577  18.216  11.986
18410W        W86804  15.988   2.781   3.290
18411W        W86805  40.417  39.461  11.444
18412W        W86806  30.127   8.313  12.378
18413W        W86807  10.160  37.400  14.271
18414W        W86808  19.159  42.988  14.427
18415W        W86809   0.538  24.941   4.615
18416W        W86810  11.412  14.237   0.537
18417W        W86811  12.264   6.288  10.211
18418W        W86812   9.650  24.820   0.721
18419W        W86813  21.137  22.777   1.860
18420W        W86814  13.894  14.764  13.867
18421W        W86815  33.096  31.406   0.284
18422W        W86816  33.367  18.717  10.625
18423W        W86817  41.257  15.493   2.743
18424W        W86818  38.754  23.650  10.718
18425W        W86819  35.831   4.973   0.860
18426W        W86820  39.760   8.915  14.918
18427W        W86821  14.133  25.939  13.715
18428W        W86822  44.803  16.048  11.179
18429W        W86823  23.270  37.740  11.925
18430W        W86824   5.325  30.604   0.976
18431W        W86825  27.982  36.960  13.820
18432W        W86826  13.874  21.802   3.645
18433W        W86827  18.686  28.944   4.417
18434W        W86828   5.708  26.234  10.711
18435W        W86829  35.089   0.511  11.109
18436W        W86830  16.192   2.747   3.800
18437W        W86831  35.821  32.521   4.636
18438W        W86832  34.094  44.036  13.201
18439W        W86833  35.204  15.901  11.570
18440W        W86834  37.560  40.897  13.178
18441W        W86835  30.521  34.502  12.951
18442W        W86836  41.303  28.000   3.374
18443W        W86837  17.955   2.754  14.762
18444W        W86838  44.451   1.260   2.321
18445W        W86839  19.212  20.161   0.326
18446W        W86840   7.620  40.131   1.769
18447W        W86841   4.335   2.488   0.600
18448W        W86842  33.449   5.794   3.613
18449W        W86843  38.311  36.504   1.516
18450W        W86844  16.014  39.114   4.234
18451W        W86845  21.630   0.730   4.263
18452W        W86846  34.068  14.067  11.409
18453W        W86847   6.679  14.849  11.592
18454W        W86848   5.185  41.814   0.585
18455W        W86849  38.854   4.594   4.653
18456W        W86850   3.703  14.251  12.110
18457W        W86851   4.225  22.553   2.270
18458W        W86852  17.132  44.169   0.723
18459W        W86853  32.788  24.530  11.547
18460W        W86854  25.563  42.825  12.528
18461W        W86855  26.076   4.058   4.551
18462W        W86856  26.272  27.661   1.789
18463W        W86857  28.058   5.713   3.805
18464W        W86858  30.896  23.805   4.247
18465W        W86859   3.564   7.232  12.101
18466W        W86860  12.262  37.681   2.082
18467W        W86861  39.990   9.675  13.966
18468W        W86862  29.842  23.572   3.207
18469W        W86863  30.184  44.938  14.539
18470W        W86864  42.449  26.484   3.164
18471W        W86865  15.669  36.650   3.520
18472W        W86866  41.420  14.800   1.283
18473W        W86867  42.228   2.844  14.899
18474W        W86868  37.524  42.865   5.116
18475W        W86869   4.925   5.618  13.010
18476W        W86870  20.208  12.845   0.469
18477W        W86871   8.871  37.254   0.947
18478W        W86872  15.341  30.569  13.818
18479W        W86873  37.401  16.274  11.287
18480W        W86874  12.626  39.015  14.268
18481W        W86875  14.412  29.161   2.865
18482W        W86876  15.168  11.714   3.216
18483W        W86877  21.201  19.064  12.490
18484W        W86878   0.499   7.613   2.337
18485W        W86879  24.292  19.794   1.924
18486W        W86880  40.808  15.553   2.475
18487W        W86881  12.590   7.642  14.914
18488W        W86882  34.656  27.673  12.501
18489W        W86883  26.192  18.736   1.778
18490W        W86884  30.108  25.979   0.396
18491W        W86885   8.782  18.208   3.700
18492W        W86886  23.647  11.232   2.679
18493W        W86887  32.384  37.781   0.856
18494W        W86888  27.501  42.956  14.288
18495W        W86889  18.569   8.077   0.874
18496W        W86890  31.805  24.732  11.022
18497W        W86891  39.642  42.839   4.896
18498W        W86892  36.327  22.494   4.580
18499W        W86893  41.949  10.007  14.573
18500W        W86894  17.340  25.064   4.642
18501W        W86895  44.006  35.146  10.889
18502W        W86896  43.655  37.004  14.834
18503W        W86897  44.947   5.147   3.330
18504W        W86898  30.122  30.385   2.513
18505W        W86899   1.950  36.534  10.516
18506W        W86900  37.222  29.837   2.198
18507W        W86901   5.394  26.117  12.047
18508W        W86902  43.915  30.920  13.927
18509W        W86903  18.690  15.801   1.054
18510W        W86904  35.636   2.433   4.792
18511W        W86905  24.267  11.826   1.397
18512W        W86906   3.702  13.338   3.907
18513W        W86907  36.875   5.381  10.700
18514W        W86908   7.921  17.642   0.415
18515W        W86909  16.756  41.492  11.203
18516W        W86910  35.116  19.154  11.549
18517W        W86911  44.765  34.453  14.983
18518W        W86912   2.766  24.080  11.175
18519W        W86913  20.736   8.620  14.703
18520W        W86914  17.283  23.781  12.454
18521W        W86915  22.595   2.790  12.112
18522W        W86916   7.855  14.587  14.938
18523W        W86917  23.649  42.943  11.685
18524W        W86918  19.502  29.161  10.288
18525W        W86919  16.818   7.777   1.699
18526W        W86920   2.821  44.775  11.938
18527W        W86921   6.369  33.438   0.821
18528W        W86922   2.680   2.208   2.731
18529W        W86923  12.497   1.422  12.503
18530W        W86924  20.584  36.040  10.771
18531W        W86925  22.808  25.244   2.227
18532W        W86926  39.905  17.079   0.779
18533W        W86927  16.117  41.003   2.121
18534W        W86928  11.432  38.468  14.361
18535W        W86929   8.755  39.982   4.936
18536W        W86930  19.098  33.088   0.287
18537W        W86931  21.749  38.322  11.033
18538W        W86932  24.725   7.812  13.490
18539W        W86933  24.013  32.037   0.291
18540W        W86934   9.332  38.888   1.399
18541W        W86935  28.656  44.476   0.818
18542W        W86936  40.143  17.234  13.485
18543W        W86937  20.627  28.587  12.880
18544W        W86938  34.787   2.663  14.524
18545W        W86939   4.893   4.801  14.974
18546W        W86940  18.472   1.825   3.160
18547W        W86941  44.498  27.954   0.848
18548W        W86942  44.472   3.222  13.864
18549W        W86943  18.133  18.220  13.310
18550W        W86944  38.881  37.121   1.302
18551W        W86945  41.030  41.922  11.093
18552W        W86946   8.002  17.285  11.459
18553W        W86947  19.562  35.066   2.728
18554W        W86948  23.475  33.903  11.450
18555W        W86949  18.262   8.266  14.395
18556W        W86950   0.243   5.231   2.734
18557W        W86951  43.769  22.685   0.097
18558W        W86952   1.564   1.831  11.800
18559W        W86953   9.827  18.345  14.708
18560W        W86954  37.803  14.554   3.528
18561W        W86955  14.532  12.010   1.804
18562W        W86956   9.169  17.765  13.784
18563W        W86957  11.672   1.950   0.758
18564W        W86958  29.749   6.519   0.758
18565W        W86959  34.297  27.119  14.005
18566W        W86960  42.501  17.325  12.224
18567W        W86961  19.641  36.984   2.755
18568W        W86962  21.094   9.397   0.875
18569W        W86963  30.456  16.442   1.823
18570W        W86964  42.288  16.165   3.274
18571W        W86965   3.864  15.579  12.493
18572W        W86966   3.633  43.405   0.050
18573W        W86967   0.994  14.516  11.224
18574W        W86968   4.398   0.558   1.746
18575W        W86969  17.800  28.156   2.339
18576W        W86970   5.389  44.437  12.948
18577W        W86971  44.866  24.140   4.600
18578W        W86972   1.251  21.692   1.777
18579W        W86973  29.895  27.909   0.377
18580W        W86974  24.463  13.823  12.520
18581W        W86975  12.568  14.789  10.545
18582W        W86976  28.533  43.985   0.950
18583W        W86977  31.088  22.620   0.513
18584W        W86978   6.947  23.857   4.521
18585W        W86979   9.367  34.492   1.938
18586W        W86980  25.904   1.229  12.969
18587W        W86981  44.752   4.303   0.930
18588W        W86982  37.963  22.056   3.289
18589W        W86983   8.989   9.740   0.839
18590W        W86984   6.642  30.534   5.027
18591W        W86985  16.096   7.458   1.464
18592W        W86986  14.103   6.289   2.996
18593W        W86987  23.844  23.596  11.932
18594W        W86988  28.370   5.836  12.445
18595W        W86989   1.659  23.533   2.759
18596W        W86990  38.882  27.576  12.842
18597W        W86991   7.181  37.782   2.415
18598W        W86992  32.960   8.363  10.403
18599W        W86993  43.061   5.976   2.327
18600W        W86994  32.015  21.098  13.914
18601W        W86995   3.011  12.160   2.475
18602W        W86996  37.602   0.111   4.198
18603W        W86997  13.789  42.880   2.836
18604W        W86998  33.501  19.933  10.228
18605W        W86999   9.451   8.348  13.077
18606W        W87000   3.678  26.974  12.167
18607W        W87001  27.319  16.047   3.775
18608W        W87002  33.890   8.376   0.687
18609W        W87003  20.100   2.674  12.333
18610W        W87004   1.012  15.448  12.594
18611W        W87005  15.844   5.315   1.789
18612W        W87006  21.445  34.231   1.478
18613W        W87007  11.137  33.415   1.300
18614W        W87008  37.154  24.173  14.788
18615W        W87009  44.750  32.507  11.413
18616W        W87010  36.374   9.312   1.686
18617W        W87011   6.913  20.806  10.550
18618W        W87012  12.364  25.119  10.788
18619W        W87013   0.822  29.088   4.461
18620W        W87014   4.429  27.597  11.657
18621W        W87015   4.767  30.924  14.979
18622W        W87016  39.181   1.739  13.977
18623W        W87017  39.027  20.290  13.041
18624W        W87018  34.080  36.566   1.175
18625W        W87019  25.957   7.568   1.288
18626W        W87020   2.084  29.714   1.296
18627W        W87021  28.157   1.802  10.725
18628W        W87022  41.350   8.687   1.488
18629W        W87023  22.934  40.030   4.512
18630W        W87024  11.295  27.203   3.059
18631W        W87025  25.485   9.127   4.075
18632W        W87026  27.458  33.718  14.527
18633W        W87027   2.647  35.922   2.115
18634W        W87028  43.006   8.844  14.752
18635W        W87029   9.054  21.000  11.097
18636W        W87030   1.658   0.476   2.502
18637W        W87031  36.581  33.480   2.709
18638W        W87032  25.651  42.699  10.296
18639W        W87033  38.444   0.543   0.481
18640W        W87034  31.969  42.800  14.931
18641W        W87035  29.917  20.430   3.574
18642W        W87036  37.406  29.660  10.668
18643W        W87037  33.930   5.892  13.668
18644W        W87038  25.817   5.649   0.283
18645W        W87039  35.931  19.054   1.912
18646W        W87040  18.359   9.433  14.965
18647W        W87041  30.424  11.861   3.267
18648W        W87042  36.106  36.858   1.960
18649W        W87043   2.308  33.733   3.678
18650W        W87044  37.025  15.801   4.209
18651W        W87045  14.957  16.124  13.850
18652W        W87046  13.582  34.231   2.891
18653W        W87047  10.049  17.776   3.213
18654W        W87048  30.041  44.522  13.795
18655W        W87049  10.628   7.813   2.447
18656W        W87050  40.562   9.197   3.244
18657W        W87051  11.533  13.264   0.824
18658W        W87052  27.514  14.032  13.864
18659W        W87053  44.922   6.380   1.005
18660W        W87054  13.001  25.742  13.946
18661W        W87055  37.318  32.874   1.783
18662W        W87056   1.798  10.358   2.214
18663W        W87057  24.154  21.864   0.469
18664W        W87058  37.840  10.742  13.847
18665W        W87059   7.727   9.652  11.126
18666W        W87060  20.030  38.832   0.124
18667W        W87061   5.426  44.220   0.736
18668W        W87062  44.756  34.992   3.287
18669W        W87063  21.288   4.869  10.905
18670W        W87064   8.831  35.947  13.299
18671W        W87065  17.520  15.710  14.070
18672W        W87066  29.133  29.977   3.334
18673W        W87067   7.249  38.292  14.843
18674W        W87068  38.022  33.613  12.616
18675W        W87069  15.062  38.138   0.468
18676W        W87070  34.122  37.456   3.591
18677W        W87071  18.011   8.292  12.506
18678W        W87072   7.752   2.963   1.722
18679W        W87073  31.478  17.137   1.063
18680W        W87074  18.791  44.228   3.646
18681W        W87075  30.631  25.149  13.464
18682W        W87076  22.798  40.129   2.178
18683W        W87077   4.732   9.287   0.961
18684W        W87078  44.019   7.150  12.951
18685W        W87079  28.639   3.183   4.647
18686W        W87080  16.662  11.224   0.555
18687W        W87081  27.907  35.033  14.993
18688W        W87082  44.013  42.585  13.490
18689W        W87083  12.177  40.445  13.827
18690W        W87084   2.483   0.056   0.864
18691W        W87085  10.299  42.509  11.847
18692W        W87086  44.854  33.270   2.439
18693W        W87087   9.493   3.064   5.514
18694W        W87088   8.257  13.408  12.464
18695W        W87089  44.007  21.488   2.040
18696W        W87090  32.661   2.478   3.861
18697W        W87091   0.796  19.717  13.974
18698W        W87092  22.005  29.031   0.060
18699W        W87093  33.141  26.564   2.228
18700W        W87094  27.478  35.929  14.741
18701W        W87095  37.997  18.677  14.655
18702W        W87096   7.682  15.202   4.706
18703W        W87097  44.224  11.553  12.553
18704W        W87098  27.069  14.362  13.853
18705W        W87099  22.753   8.376   2.710
18706W        W87100  41.534  11.146  14.838
18707W        W87101   2.665  43.776  10.321
18708W        W87102  16.610  17.287   3.639
18709W        W87103   8.012   9.314  14.513
18710W        W87104  44.835  35.597   9.783
18711W        W87105  25.541  34.167   0.315
18712W        W87106   6.226  26.747   0.113
18713W        W87107  25.908  40.976   0.190
18714W        W87108   7.958   0.396   0.539
18715W        W87109  32.375   2.184  10.756
18716W        W87110  42.674  15.324  11.576
18717W        W87111  32.527   0.133  10.754
18718W        W87112  34.256  29.010   4.635
18719W        W87113  23.215  28.876  11.875
18720W        W87114  23.645  28.134   4.524
18721W        W87115  36.488  15.418   2.909
18722W        W87116  42.437   5.436   1.948
18723W        W87117  10.264  29.879  10.999
18724W        W87118  16.640  35.805  12.726
18725W        W87119  14.157  23.545  12.981
18726W        W87120   3.429  37.536   4.181
18727W        W87121   7.036  12.211  12.923
18728W        W87122  34.393  36.407  12.946
18729W        W87123   0.872  43.822   1.314
18730W        W87124  43.414   9.303   4.190
18731W        W87125   3.021   2.936  11.653
18732W        W87126   9.363  42.497  12.583
18733W        W87127  30.075   9.348  12.909
18734W        W87128  23.684  29.727  14.298
18735W        W87129  12.185  41.886  13.921
18736W        W87130  39.101  43.941  11.968
18737W        W87131  25.130  26.109  14.012
18738W        W87132  20.591  35.599   3.191
18739W        W87133  20.773  41.310   3.288
18740W        W87134  28.694  15.409   0.789
18741W        W87135   8.301  27.461   2.722
18742W        W87136  25.006  21.480  12.913
18743W        W87137   5.045  34.951  12.647
18744W        W87138  17.887  34.004  10.459
18745W        W87139  40.497  20.536  11.228
18746W        W87140  24.469   0.459   2.625
18747W        W87141  25.480  30.925  13.259
18748W        W87142  13.556   8.825   3.162
18749W        W87143  39.502  37.953   3.907
18750W        W87144   6.898  12.946   0.586
18751W        W87145  26.631  34.481  12.995
18752W        W87146  23.223  16.103   4.219
18753W        W87147  24.764  26.068  14.809
18754W        W87148   6.271  23.221  13.532
18755W        W87149  44.883  11.629   1.811
18756W        W87150   3.322  19.819   2.872
18757W        W87151  25.082  43.620  11.699
18758W        W87152  18.101  36.462   2.344
18759W        W87153  44.822   9.284  13.004
18760W        W87154  27.006  21.583  10.294
18761W        W87155  41.466  36.801  12.165
18762W        W87156  15.660  38.819   0.828
18763W        W87157  42.881   5.277   3.572
18764W        W87158  31.107  39.489   4.663
18765W        W87159   0.416   5.216  11.205
18766W        W87160  25.261  14.907  13.913
18767W        W87161  44.983  41.084   3.598
18768W        W87162  27.370  20.111  11.259
18769W        W87163  42.304  27.942   3.195
18770W        W87164   3.762  36.333   3.710
18771W        W87165   9.676  18.833   3.516
18772W        W87166  40.824  30.176  12.117
18773W        W87167  40.995   3.813  13.405
18774W        W87168  42.972  42.670  14.454
18775W        W87169  14.951  38.262   4.378
18776W        W87170   4.375   0.079  14.923
18777W        W87171  14.897  43.423   3.051
18778W        W87172  28.212  26.231   4.325
18779W        W87173  24.213  20.178  13.488
18780W        W87174  33.623  41.182   1.277
18781W        W87175   8.875   5.610   0.295
18782W        W87176  27.260  34.274   1.353
18783W        W87177  31.598  42.352  14.546
18784W        W87178   4.709   4.575   9.767
18785W        W87179  37.857  20.788  12.614
18786W        W87180  12.292  11.320   3.523
18787W        W87181  25.645   0.251  13.786
18788W        W87182   1.470  42.466   4.512
18789W        W87183  24.251  38.518  10.473
18790W        W87184  25.827  41.661  13.524
18791W        W87185  43.282  36.905  11.805
18792W        W87186  22.783  44.288  14.960
18793W        W87187  36.989  18.700  13.558
18794W        W87188  26.783  29.332   1.729
18795W        W87189  40.977  42.359   4.713
18796W        W87190  39.290  37.545   3.206
18797W        W87191  12.088  38.485  13.553
18798W        W87192  37.338  21.395   3.268
18799W        W87193   9.070  18.298  12.983
18800W        W87194  22.581   7.027   2.791
18801W        W87195  10.720   0.472  12.997
18802W        W87196  20.608  25.959  12.971
18803W        W87197  41.962  28.193   4.612
18804W        W87198  13.455   7.874   2.235
18805W        W87199   2.525  23.732  14.869
18806W        W87200  15.127  16.432  10.248
18807W        W87201  22.234  25.412   0.369
18808W        W87202  41.863  11.855  13.512
18809W        W87203  25.101  40.524  13.361
18810W        W87204   0.943  39.166   3.533
18811W        W87205  25.960  37.548   1.778
18812W        W87206  38.422   6.444   3.670
18813W        W87207  24.500  25.697   0.774
18814W        W87208  30.321   4.633   0.858
18815W        W87209  23.727  25.774  13.439
18816W        W87210  11.175  32.985  11.401
18817W        W87211  15.197   1.033  10.665
18818W        W87212  38.316  13.164  14.299
18819W        W87213   9.710  17.799   4.514
18820W        W87214  25.848  35.479   0.529
18821W        W87215  28.567  15.710   4.166
18822W        W87216  24.546  38.743   2.741
18823W        W87217  20.776  15.601  10.580
18824W        W87218  44.435   4.919   4.158
18825W        W87219   9.611   6.906  11.238
18826W        W87220  26.955   6.804  13.587
18827W        W87221  30.151  41.945   4.829
18828W        W87222  40.856  39.325  10.499
18829W        W87223   1.574  33.036  13.285
18830W        W87224  44.506  13.423  11.688
18831W        W87225  15.798  43.263   5.030
18832W        W87226  18.773  36.509  12.168
18833W        W87227  15.168  13.476   0.483
18834W        W87228   0.975  42.828   2.625
18835W        W87229  31.537  38.446  11.634
18836W        W87230  10.687  34.085  12.794
18837W        W87231  30.057  16.560   3.335
18838W        W87232  22.578  27.028   3.362
18839W        W87233  36.369  19.668   4.590
18840W        W87234  38.321  23.684  11.982
18841W        W87235  39.058  16.346   1.288
18842W        W87236   8.677  42.348   3.132
18843W        W87237  30.042  25.144   3.875
18844W        W87238  40.294  43.271  11.095
18845W        W87239  32.623  32.027  12.827
18846W        W87240  15.368  19.447   3.020
18847W        W87241  23.427  44.979   2.185
18848W        W87242   6.576  37.414   4.029
18849W        W87243  34.675   3.815  13.469
18850W        W87244  22.207  37.308   0.269
18851W        W87245   3.763  29.900   1.652
18852W        W87246  22.066  37.959   0.018
18853W        W87247  24.914  34.074   3.265
18854W        W87248  33.099  44.362  14.881
18855W        W87249  18.766   8.313   2.396
18856W        W87250  33.857   8.194  11.449
18857W        W87251  19.968  26.636   2.310
18858W        W87252  44.264  22.753  10.830
18859W        W87253  38.498  38.263  14.257
18860W        W87254  21.793  23.915  12.208
18861W        W87255  35.331   7.610  13.185
18862W        W87256  34.527  33.943  13.974
18863W        W87257  36.457  34.504  12.938
18864W        W87258  40.797  12.313  14.743
18865W        W87259   5.187  27.218   4.517
18866W        W87260  24.233  13.609  11.216
18867W        W87261  39.291  37.917   2.853
18868W        W87262   7.877  28.538   3.261
18869W        W87263  30.663  37.022   0.194
18870W        W87264   3.248  32.555  14.368
18871W        W87265  24.153   8.563   3.177
18872W        W87266  19.678   9.946  11.640
18873W        W87267  34.323  23.091   2.787
18874W        W87268  33.423  37.049   1.182
18875W        W87269  25.662  12.323   4.154
18876W        W87270  26.891   5.847   0.369
18877W        W87271  18.748  21.112  13.285
18878W        W87272  19.064   8.695  14.925
18879W        W87273   5.766  23.643   3.433
18880W        W87274   0.428  35.692   1.783
18881W        W87275  17.094  21.350  14.835
18882W        W87276   0.618  41.803   1.266
18883W        W87277  39.762  27.406   3.641
18884W        W87278  14.178  39.446  10.147
18885W        W87279  41.106   5.300  13.895
18886W        W87280  30.322  33.440   3.227
18887W        W87281  31.370  12.360  12.003
18888W        W87282  44.933  18.508   0.132
18889W        W87283  17.173  26.091  14.832
18890W        W87284  11.826  15.804  13.341
18891W        W87285  36.076  16.284  13.291
18892W        W87286  34.248  35.561  11.926
18893W        W87287  23.002  18.756  12.615
18894W        W87288  41.292   6.921  10.687
18895W        W87289  10.139   1.564  14.964
18896W        W87290  23.818   3.232   1.415
18897W        W87291   2.887  43.295   0.759
18898W        W87292  36.037  14.906   5.105
18899W        W87293  22.136   4.813  11.446
18900W        W87294  28.041  37.535  11.193
18901W        W87295   3.226   9.755   3.366
18902W        W87296  23.973  28.065  12.542
18903W        W87297  28.552  34.768   1.160
18904W        W87298  40.869  15.010  11.668
18905W        W87299  27.169  39.251   1.524
18906W        W87300   0.676  39.299  14.479
18907W        W87301  22.202  38.485   3.214
18908W        W87302  15.910  22.034  11.565
18909W        W87303  41.500  36.793  12.700
18910W        W87304  28.580  11.396   3.364
18911W        W87305   5.283   2.188   0.801
18912W        W87306   9.660  43.031  13.611
18913W        W87307  38.423   8.837   3.591
18914W        W87308  22.050  15.116  13.999
18915W        W87309  31.307  28.202  13.413
18916W        W87310  38.506  34.672   2.728
18917W        W87311  27.121  21.140  13.809
18918W        W87312  39.156  19.066   2.195
18919W        W87313  15.497   8.638   3.918
18920W        W87314  18.747   4.648   4.626
18921W        W87315  34.407  30.969  13.541
18922W        W87316   2.706  15.711  12.095
18923W        W87317  40.284  22.681  14.641
18924W        W87318  28.499  36.040  14.814
18925W        W87319  12.792  28.542  13.851
18926W        W87320  38.666  43.412   1.751
18927W        W87321   1.339  38.828   3.650
18928W        W87322  16.692  26.595  13.456
18929W        W87323  25.994  29.439  11.155
18930W        W87324  34.008  33.454   2.206
18931W        W87325  35.624  24.150   4.376
18932W        W87326  24.894  15.640   4.751
18933W        W87327   8.687  13.928   2.806
18934W        W87328  23.055  41.496   2.840
18935W        W87329   3.190  10.882  12.096
18936W        W87330  36.179   4.657   4.403
18937W        W87331   6.292  36.434   0.991
18938W        W87332   1.292  27.700   2.171
18939W        W87333  44.873  15.833  14.665
18940W        W87334   2.006   8.236  12.414
18941W        W87335  30.409  44.743  13.051
18942W        W87336  44.532   1.081  13.609
18943W        W87337  35.919  44.855  14.075
18944W        W87338  23.401  12.666  10.719
18945W        W87339  10.540  34.154   3.861
18946W        W87340   9.741  10.024  13.248
18947W        W87341  41.533   6.410  11.539
18948W        W87342  39.296  12.288   4.151
18949W        W87343  41.069  35.916   4.220
18950W        W87344  36.471   7.295  10.335
18951W        W87345  43.416  20.198   1.483
18952W        W87346  30.095  24.158  11.315
18953W        W87347   5.808  29.202  13.987
18954W        W87348  20.135   7.773   4.314
18955W        W87349  11.304  36.994  12.655
18956W        W87350   0.311  15.293  11.982
18957W        W87351  29.629  39.491   1.899
18958W        W87352  37.384  13.066  12.926
18959W        W87353  24.958  16.744   1.945
18960W        W87354  40.910  29.640  13.469
18961W        W87355  26.616   1.945   4.915
18962W        W87356  43.804  24.509  14.001
18963W        W87357   3.302   2.419   5.017
18964W        W87358  25.091  36.401   0.985
18965W        W87359   8.157   2.388   3.603
18966W        W87360   5.258  11.634   1.890
18967W        W87361  17.252  31.581  12.340
18968W        W87362  42.962  30.114   4.562
18969W        W87363   7.207   4.223  11.478
18970W        W87364  33.075  11.277  10.676
18971W        W87365   5.223  42.192   0.213
18972W        W87366   0.658   8.849   9.907
18973W        W87367   3.761  23.645   1.882
18974W        W87368   7.309  37.290   2.606
18975W        W87369  39.843  27.986  12.441
18976W        W87370  32.893   5.686   0.387
18977W        W87371  25.970  42.592   4.984
18978W        W87372  13.898   0.128   3.394
18979W        W87373  19.306  33.755  14.586
18980W        W87374  19.148  14.086  13.704
18981W        W87375  43.313   1.713   2.740
18982W        W87376  23.896  12.785  10.721
18983W        W87377   9.737  31.567   3.741
18984W        W87378  20.053  23.945   3.986
18985W        W87379  40.316  18.279   1.399
18986W        W87380   1.367  20.732   2.984
18987W        W87381   1.189  23.723  13.833
18988W        W87382  18.719  15.758   0.517
18989W        W87383  17.163   9.665   1.765
18990W        W87384  16.117   1.069  12.121
18991W        W87385  23.213  27.199  11.541
18992W        W87386  27.665  38.925  13.058
18993W        W87387   0.444   4.255  12.520
18994W        W87388  24.030  24.713   1.361
18995W        W87389   8.315  10.901  13.800
18996W        W87390  34.382  25.672  10.901
18997W        W87391  44.410  26.905   1.234
18998W        W87392  16.739  33.296  13.506
18999W        W87393  22.999   6.843   4.638
19000W        W87394  21.878  24.709   2.730
19001W        W87395  26.487  14.658   1.961
19002W        W87396   1.965  44.500  10.766
19003W        W87397  15.541  15.629  14.457
19004W        W87398  18.951   7.740  14.372
19005W        W87399   3.726  42.323   0.860
19006W        W87400   2.792  35.551  10.704
19007W        W87401   1.737  31.064   1.191
19008W        W87402  24.420  36.309   3.355
19009W        W87403   1.474   5.743  12.970
19010W        W87404  42.850  21.010  12.907
19011W        W87405  36.461  41.228  10.956
19012W        W87406   7.389  27.028   1.408
19013W        W87407  14.345  31.076   4.294
19014W        W87408  44.968  30.069   4.124
19015W        W87409  10.837  32.143  14.448
19016W        W87410  35.614  21.568  12.187
19017W        W87411   1.210  26.166  12.802
19018W        W87412  24.153  41.835   0.848
19019W        W87413   0.871   0.452  14.775
19020W        W87414  25.445  19.150  11.904
19021W        W87415  20.597  34.018  14.860
19022W        W87416   0.237  30.873   2.867
19023W        W87417  40.056  26.260   3.465
19024W        W87418  25.444  28.038   1.935
19025W        W87419  26.511  32.380   2.632
19026W        W87420  41.972  43.739  13.030
19027W        W87421  18.562  43.577   4.563
19028W        W87422  41.172  34.824   1.336
19029W        W87423  31.520  32.721  13.490
19030W        W87424  26.510  28.632  14.777
19031W        W87425  43.365   4.624  14.125
19032W        W87426  27.488   3.790   4.556
19033W        W87427   8.320  43.540   1.619
19034W        W87428  15.627  28.654   1.888
19035W        W87429  30.515  20.203   2.910
19036W        W87430  23.742  17.710  12.329
19037W        W87431  18.308  10.082   0.497
19038W        W87432  28.457  31.369   4.665
19039W        W87433  41.804  30.963   3.146
19040W        W87434   6.726  12.734  11.046
19041W        W87435  27.639  41.057  12.904
19042W        W87436  28.381  34.140  13.105
19043W        W87437  36.939  12.576   2.372
19044W        W87438  28.368   3.881   0.403
19045W        W87439  42.567  28.359   0.960
19046W        W87440  29.070   8.228  11.329
19047W        W87441   4.391  23.124   0.420
19048W        W87442   7.556  15.160  10.571
19049W        W87443   7.855  41.916   2.821
19050W        W87444  21.080  27.561  11.082
19051W        W87445  41.301   2.825  12.324
19052W        W87446  42.739  13.268  12.041
19053W        W87447  16.257   6.812   4.088
19054W        W87448  40.046  10.994   2.799
19055W        W87449  29.953   5.960  12.340
19056W        W87450  36.363  30.773   4.198
19057W        W87451  34.080  24.155   0.748
19058W        W87452  17.240   5.280  14.808
19059W        W87453  13.588  25.005  14.416
19060W        W87454  43.960  15.505  13.096
19061W        W87455  18.645  19.193   3.177
19062W        W87456  15.184  10.665   3.167
19063W        W87457  43.107  12.190   4.882
19064W        W87458  41.501  18.029  14.647
19065W        W87459  30.820  15.233  14.918
19066W        W87460  22.653  15.493   2.184
19067W        W87461   5.339  38.463  11.068
19068W        W87462  24.032  34.015  11.521
19069W        W87463  18.928  19.016   4.634
19070W        W87464  19.728  42.783   0.871
19071W        W87465  16.800  15.744   1.333
19072W        W87466   1.256  16.525   2.251
19073W        W87467   0.735  21.781   1.826
19074W        W87468  44.091  15.362   4.112
19075W        W87469   4.477   8.217  12.878
19076W        W87470  26.784   3.078  12.971
19077W        W87471   6.434   4.638  11.237
19078W        W87472  28.895  41.615   1.269
19079W        W87473   4.762   2.247   1.359
19080W        W87474  25.645   6.307   4.930
19081W        W87475   9.613  44.745  13.836
19082W        W87476  13.593  30.453  14.467
19083W        W87477  36.447  22.362  14.824
19084W        W87478  24.531  24.072   1.296
19085W        W87479  15.083  28.645  13.103
19086W        W87480   6.610  34.324  10.262
19087W        W87481  25.474  23.111   1.402
19088W        W87482  38.807  41.995   9.949
19089W        W87483  17.180  44.765   2.843
19090W        W87484  29.602  19.729  11.753
19091W        W87485  25.531  29.412   2.787
19092W        W87486  27.759  36.984   4.921
19093W        W87487  15.628   1.208   2.296
19094W        W87488  14.274   1.827  10.446
19095W        W87489  44.522   4.881  10.234
19096W        W87490  24.669   8.560   9.684
19097W        W87491  20.790  10.357   3.126
19098W        W87492  44.103  19.068   0.375
19099W        W87493  39.760  21.520  14.060
19100W        W87494  12.328  23.806   0.805
19101W        W87495  42.944   3.997  12.533
19102W        W87496  23.186   1.914   1.260
19103W        W87497   2.888   2.830   4.386
19104W        W87498  22.983  13.850   0.125
19105W        W87499  38.037  35.137   2.195
19106W        W87500  41.290  35.089  12.156
19107W        W87501   4.392  13.634   3.546
19108W        W87502   8.312   0.584  13.899
19109W        W87503  21.095  38.307  10.063
19110W        W87504   4.813  22.231  10.682
19111W        W87505  17.936  36.936  14.330
19112W        W87506  11.806  21.703  11.354
19113W        W87507   0.831  12.544  10.145
19114W        W87508  13.287   6.700   3.171
19115W        W87509  31.130  24.031   2.298
19116W        W87510  13.770  25.521  14.540
19117W        W87511  21.618  21.464  12.588
19118W        W87512  33.062  27.929  13.828
19119W        W87513  22.508  15.027   2.044
19120W        W87514  31.552  37.443   4.158
19121W        W87515  10.880  17.934  12.355
19122W        W87516  29.433   1.712  12.813
19123W        W87517   9.132  29.109   0.974
19124W        W87518  37.443  36.749   1.772
19125W        W87519  19.324   1.409   2.285
19126W        W87520  20.233  38.906   1.777
19127W        W87521   7.177  34.509   3.592
19128W        W87522  39.326   4.295   2.642
19129W        W87523  14.230   8.417   1.272
19130W        W87524   5.819  36.505  11.387
19131W        W87525  24.187  31.501  14.719
19132W        W87526   2.173  25.717   1.883
19133W        W87527  30.462  14.549   2.199
19134W        W87528  19.173  40.321   4.567
19135W        W87529  14.987  44.251  12.891
19136W        W87530  11.550  37.561  14.414
19137W        W87531  25.908  39.518   0.068
19138W        W87532  20.305  20.632   4.320
19139W        W87533  26.969   6.098   1.724
19140W        W87534  19.941  33.572   0.425
19141W        W87535  21.180   9.737  13.610
19142W        W87536  20.732  44.240   1.884
19143W        W87537  38.396  41.034  13.833
19144W        W87538  17.638  32.622   2.975
19145W        W87539  27.153   0.216  13.801
19146W        W87540  41.469  11.673  12.616
19147W        W87541  38.557  34.438   0.793
19148W        W87542   9.664  42.275  10.732
19149W        W87543  14.907  36.906   4.071
19150W        W87544  11.207  32.524  14.760
19151W        W87545   3.264  38.635  10.764
19152W        W87546  14.414  29.526   1.475
19153W        W87547   7.159  11.623  11.941
19154W        W87548  43.323  23.239   0.936
19155W        W87549  39.894  22.172   1.988
19156W        W87550   9.444  40.804   0.912
19157W        W87551  43.758  19.142  10.703
19158W        W87552  20.755  30.870  11.069
19159W        W87553  37.403  18.142   0.778
19160W        W87554  35.486  27.123  13.484
19161W        W87555   8.834  29.553   0.808
19162W        W87556  19.241   2.693  11.178
19163W        W87557  40.281  33.805  11.962
19164W        W87558  41.631  14.430  14.533
19165W        W87559   8.735  23.088  13.892
19166W        W87560  24.218   7.030   0.852
19167W        W87561  19.027   0.507  12.543
19168W        W87562   6.230  43.274   1.668
19169W        W87563  40.296  36.563   3.926
19170W        W87564  30.039  21.959  10.798
19171W        W87565  24.108  18.185   4.058
19172W        W87566  11.307  31.954   4.327
19173W        W87567   3.248  26.205  10.451
19174W        W87568   1.488  41.241  12.483
19175W        W87569  44.477   2.351  10.988
19176W        W87570  21.978  43.204  12.192
19177W        W87571  33.629  37.503   3.439
19178W        W87572  33.105  17.671   1.373
19179W        W87573  21.613  26.482   2.069
19180W        W87574  42.129  32.576   3.227
19181W        W87575  13.927  16.216  14.950
19182W        W87576  37.478   2.414  12.574
19183W        W87577   2.402   5.160   4.634
19184W        W87578   8.834  13.986  12.843
19185W        W87579   8.485  10.403   3.170
19186W        W87580  28.435  15.516  13.931
19187W        W87581  24.257  14.683   1.260
19188W        W87582   1.083  11.918  13.370
19189W        W87583   8.866   0.470   0.299
19190W        W87584  36.979  15.695   3.718
19191W        W87585  11.743  26.909   2.693
19192W        W87586  12.053  24.480   2.268
19193W        W87587  23.970  20.110   4.558
19194W        W87588  19.078  43.555  11.202
19195W        W87589  40.945  29.156  11.105
19196W        W87590   8.661  29.150  14.845
19197W        W87591  38.597  40.816   1.109
19198W        W87592  22.045  38.303  13.948
19199W        W87593  39.065  23.240   3.649
19200W        W87594  20.334  44.388  14.266
19201W        W87595  36.004   8.694  11.944
19202W        W87596  25.696  41.902   0.236
19203W        W87597  32.502  44.267  11.274
19204W        W87598  13.233  29.663  11.500
19205W        W87599  16.824  24.973   3.026
19206W        W87600  20.119  37.828   0.961
19207W        W87601   2.531  41.046  14.756
19208W        W87602  22.018  40.922   4.310
19209W        W87603  13.045  11.724   3.197
19210W        W87604   1.191  15.872  11.087
19211W        W87605   0.530  29.497   1.272
19212W        W87606  19.211  23.573   1.646
19213W        W87607  10.353   7.056   0.885
19214W        W87608  13.894   2.694   1.219
19215W        W87609  15.760  11.660   2.879
19216W        W87610  43.490  21.178   2.896
19217W        W87611  35.383  11.798   4.512
19218W        W87612  19.117  27.949   3.099
19219W        W87613  26.465  23.125   1.098
19220W        W87614  16.628   8.897   0.070
19221W        W87615  15.098  13.422  14.331
19222W        W87616   4.222  11.851   3.266
19223W        W87617  13.727   4.728   1.604
19224W        W87618  41.814  32.246  13.356
19225W        W87619   7.948  29.681   4.548
19226W        W87620  23.967  21.192  12.926
19227W        W87621   4.887  11.115   3.099
19228W        W87622   4.953  42.897   1.746
19229W        W87623  28.174  44.884   4.069
19230W        W87624  42.283  31.409  12.465
19231W        W87625  28.348  33.856  14.084
19232W        W87626  13.206  31.594  14.801
19233W        W87627   7.297  34.046   4.894
19234W        W87628  44.545  28.188  10.129
19235W        W87629  19.284  19.512   2.625
19236W        W87630  14.176   3.450   0.428
19237W        W87631   4.316  26.527   3.400
19238W        W87632  35.619  18.322   0.810
19239W        W87633  11.291   2.123   1.890
19240W        W87634  12.924  20.929  11.061
19241W        W87635   4.134  17.983  14.946
19242W        W87636  20.495  27.196  14.432
19243W        W87637  27.039  17.139  12.577
19244W        W87638   4.015  42.376  10.454
19245W        W87639  19.053   8.334   1.025
19246W        W87640  40.801  26.375  14.144
19247W        W87641   8.226  32.227   0.772
19248W        W87642  13.560  32.460   4.746
19249W        W87643  44.892  38.590   0.413
19250W        W87644  40.237  11.780   4.631
19251W        W87645  25.799   4.422   2.759
19252W        W87646   5.704  43.051  12.986
19253W        W87647  40.355  24.863  12.984
19254W        W87648   0.501  43.126  14.945
19255W        W87649  42.863  38.238   5.031
19256W        W87650  34.995  11.849  13.031
19257W        W87651  26.955   1.397  12.427
19258W        W87652  35.111  13.776   2.633
19259W        W87653   0.139  12.738  13.937
19260W        W87654  11.846  31.759  10.644
19261W        W87655  32.167  18.442  13.446
19262W        W87656  13.727  37.234   2.168
19263W        W87657  25.615  27.206   2.172
19264W        W87658   3.752   5.169   3.510
19265W        W87659  19.333   7.739   1.822
19266W        W87660  16.659   9.199  13.808
19267W        W87661   1.381  10.454   1.862
19268W        W87662  34.361  26.116  11.615
19269W        W87663  19.816  40.937   4.880
19270W        W87664  40.215  40.955   2.407
19271W        W87665  40.350  37.002   3.676
19272W        W87666  33.475  19.194  14.389
19273W        W87667   1.509  32.621  13.616
19274W        W87668  22.617  25.196  13.400
19275W        W87669  13.812  14.909   3.802
19276W        W87670  15.052  33.140   3.226
19277W        W87671  36.477   8.662  13.074
19278W        W87672  36.290  11.755   0.919
19279W        W87673  24.249  23.092   0.756
19280W        W87674  36.969   0.808   2.802
19281W        W87675  13.311  39.526   0.241
19282W        W87676   0.519  14.346   1.945
19283W        W87677  22.179  13.100   2.857
19284W        W87678   9.281  12.602   4.114
19285W        W87679  36.140  30.008  11.147
19286W        W87680   2.043   8.235   0.813
19287W        W87681  39.910  35.481   1.897
19288W        W87682   8.589  41.591  12.757
19289W        W87683   1.533  11.630  13.350
19290W        W87684   3.683  32.150   1.414
19291W        W87685  14.091  25.017   2.206
19292W        W87686  12.245   0.016  13.878
19293W        W87687  33.105  29.837  11.523
19294W        W87688  20.659  23.521   0.676
19295W        W87689   0.127  30.098  12.553
19296W        W87690  29.442  44.365   2.749
19297W        W87691   3.725  43.751   0.798
19298W        W87692  28.444  36.527   0.409
19299W        W87693  24.905  26.924  13.724
19300W        W87694  27.249  25.219  12.416
19301W        W87695   9.292  15.053  10.972
19302W        W87696  44.151   2.111  14.430
19303W        W87697  26.498  20.041  13.511
19304W        W87698  11.662  25.984  11.922
19305W        W87699   3.662  29.960  11.060
19306W        W87700  35.234  32.988  12.390
19307W        W87701  13.306  15.074   3.717
19308W        W87702  15.065   4.395  12.040
19309W        W87703  44.187  28.586  12.534
19310W        W87704  37.711  35.907   5.020
19311W        W87705  31.577  29.695   4.404
19312W        W87706   8.954  22.024  12.056
19313W        W87707   3.863  17.196   0.073
19314W        W87708  17.610  32.602   0.073
19315W        W87709  28.211  35.508   3.116
19316W        W87710  14.313  33.379  12.554
19317W        W87711  14.270  20.846  12.179
19318W        W87712  32.696  35.445   0.728
19319W        W87713   2.614   6.904  14.447
19320W        W87714  32.158  16.183  13.974
19321W        W87715  16.574   0.955   0.762
19322W        W87716  28.390  21.801   2.225
19323W        W87717  11.978  42.996   1.661
19324W        W87718  16.200  35.628   0.232
19325W        W87719  28.038  41.110   2.782
19326W        W87720  38.439   3.643   3.815
19327W        W87721   6.322   2.593   9.692
19328W        W87722  22.729   3.729  11.994
19329W        W87723  23.554  17.054   4.480
19330W        W87724  13.323  38.826  10.220
19331W        W87725  25.457  12.759   2.974
19332W        W87726   1.746  27.973  14.433
19333W        W87727  15.742  36.496   3.997
19334W        W87728  44.224  34.992   3.293
19335W        W87729  32.581  40.850   0.609
19336W        W87730   7.114  23.214  10.090
19337W        W87731  44.952   6.905   2.176
19338W        W87732  10.340  11.666  12.033
19339W        W87733  31.457   7.744  12.083
19340W        W87734  42.264  19.806   0.289
19341W        W87735  13.076  40.470  12.214
19342W        W87736   8.154  18.378   4.352
19343W        W87737   1.937   2.975   0.813
19344W        W87738  16.332  35.173  11.530
19345W        W87739   3.751   9.599  11.548
19346W        W87740  18.269  26.523  11.853
19347W        W87741  21.611  39.889   2.398
19348W        W87742  31.282   1.715  11.237
19349W        W87743   4.610  26.013   4.584
19350W        W87744  35.440   3.148  11.116
19351W        W87745   8.300  37.585   4.087
19352W        W87746  12.242  30.018  13.054
19353W        W87747   8.928   0.352   4.620
19354W        W87748  37.884  33.021  13.014
19355W        W87749  17.975  23.664   3.418
19356W        W87750   3.040  11.979   1.409
19357W        W87751  19.354  20.523   2.786
19358W        W87752  32.086  27.715   3.801
19359W        W87753   8.404  17.092   3.148
19360W        W87754  26.945  14.280   1.421
19361W        W87755  36.031   6.191  13.778
19362W        W87756  11.762   4.581   0.786
19363W        W87757  31.920   0.693  13.975
19364W        W87758  32.750  24.077  12.897
19365W        W87759  26.459  35.098   2.065
19366W        W87760  24.034  40.367   2.633
19367W        W87761  17.700  28.919   1.702
19368W        W87762   3.257  11.411  13.913
19369W        W87763  18.210   8.967  14.813
19370W        W87764  23.121   6.552  11.227
19371W        W87765  20.238   1.961   5.164
19372W        W87766   8.257  36.321  10.408
19373W        W87767  25.737  26.194   2.350
19374W        W87768  24.626   8.227  11.081
19375W        W87769  11.228  39.305  12.550
19376W        W87770  14.192  17.665   2.910
19377W        W87771   6.212  18.130  10.715
19378W        W87772  16.365  40.431   0.456
19379W        W87773  38.553   0.776   4.216
19380W        W87774   5.186  27.487  13.864
19381W        W87775  28.832  11.789  14.736
19382W        W87776  40.882   4.699   4.552
19383W        W87777  44.887  13.621  12.668
19384W        W87778   5.505  38.788  14.344
19385W        W87779  23.267  41.523   3.338
19386W        W87780  15.056  41.014   4.818
19387W        W87781  31.439  22.443   0.902
19388W        W87782   8.311  40.544  13.918
19389W        W87783   3.937   1.035   4.155
19390W        W87784  29.375  38.789  11.659
19391W        W87785  37.460  18.519  13.834
19392W        W87786  39.516  32.493  13.173
19393W        W87787  34.215  17.718  12.099
19394W        W87788  41.352   4.458   3.678
19395W        W87789  28.718  13.805  13.009
19396W        W87790  33.048  13.214   0.441
19397W        W87791  40.559  25.448   1.365
19398W        W87792  17.554  11.244  12.904
19399W        W87793  30.521  16.216   0.328
19400W        W87794  14.699  43.007  10.436
19401W        W87795   5.253  38.138  10.680
19402W        W87796  38.871  44.023  14.425
19403W        W87797  43.974  41.434   0.409
19404W        W87798  33.452  19.603   4.177
19405W        W87799  17.710  27.175   2.151
19406W        W87800  24.482  20.275  12.529
19407W        W87801  41.377  16.211   2.318
19408W        W87802  39.097  44.499  13.956
19409W        W87803  27.001   0.407   3.225
19410W        W87804  16.261   0.024   1.318
19411W        W87805  28.576  25.073   1.471
19412W        W87806  41.841  44.803  11.220
19413W        W87807  15.350  21.264  11.983
19414W        W87808  20.030  11.081  11.867
19415W        W87809   7.547   3.769  11.441
19416W        W87810  28.131  17.811  13.492
19417W        W87811  12.814  27.497  11.243
19418W        W87812  36.473  31.186  13.827
19419W        W87813  24.539  35.440  11.621
19420W        W87814  21.810  18.100   4.764
19421W        W87815   1.783  19.635  11.120
19422W        W87816  41.589  42.428   1.297
19423W        W87817  25.550  13.314  13.457
19424W        W87818   7.440   2.867   3.671
19425W        W87819  18.998   6.207  13.576
19426W        W87820  33.503  17.836  11.160
19427W        W87821  43.876  21.016  12.935
19428W        W87822  31.880  11.074  14.937
19429W        W87823  37.978   9.707  12.921
19430W        W87824  31.755  40.566   0.872
19431W        W87825  32.738  40.434  13.459
19432W        W87826   6.953  34.609  11.907
19433W        W87827  21.629   1.101  14.425
19434W        W87828   9.749  29.099  13.808
19435W        W87829  19.552   4.829   4.153
19436W        W87830   5.242  23.235   3.739
19437W        W87831  17.245  41.299   0.439
19438W        W87832  32.108  33.545   3.652
19439W        W87833  28.763  31.419  13.308
19440W        W87834  21.921   8.386   1.173
19441W        W87835   1.284  37.344  11.924
19442W        W87836  18.357  22.797   0.120
19443W        W87837  12.269  21.753   4.533
19444W        W87838  27.655  39.057   1.456
19445W        W87839  43.959  44.221  12.877
19446W        W87840  26.653  29.906  13.239
19447W        W87841   0.967   2.239  13.426
19448W        W87842   7.597  35.708  10.576
19449W        W87843  38.468  11.340  12.193
19450W        W87844  34.410  16.166   2.875
19451W        W87845  43.327  40.059  13.833
19452W        W87846  27.523  22.069  11.520
19453W        W87847  14.136   7.420   0.252
19454W        W87848   5.575  20.670   0.868
19455W        W87849  41.877  44.296   2.131
19456W        W87850   1.354  27.332  11.809
19457W        W87851  37.396   1.302  12.785
19458W        W87852   6.797  17.567   1.144
19459W        W87853  15.165   8.636  10.741
19460W        W87854  16.949   7.341   4.520
19461W        W87855  31.700  33.466  12.399
19462W        W87856   8.405  14.091  11.588
19463W        W87857   1.462   4.840  11.185
19464W        W87858   9.221  36.448  11.167
19465W        W87859  44.248  28.201   0.288
19466W        W87860  30.189  35.549   0.631
19467W        W87861  17.848   5.877   3.722
19468W        W87862   4.212  26.457  13.408
19469W        W87863  11.100   9.292   3.982
19470W        W87864  26.310  16.248   2.331
19471W        W87865   4.737  19.237  13.540
19472W        W87866  44.689  17.826  11.038
19473W        W87867  17.203   9.716   0.888
19474W        W87868  13.038  31.754  10.346
19475W        W87869  21.434  34.560  11.158
19476W        W87870  43.012  32.579   2.871
19477W        W87871   2.327  34.930   1.979
19478W        W87872  29.962  34.475  14.991
19479W        W87873  44.806  21.061   4.221
19480W        W87874  30.491  23.513   4.063
19481W        W87875   7.317  29.542  10.585
19482W        W87876  40.704  43.813   3.852
19483W        W87877   5.932  43.438   2.328
19484W        W87878  22.953  16.535  14.763
19485W        W87879   1.408   1.519   0.332
19486W        W87880  20.828  26.211  12.001
19487W        W87881  35.796   5.217  11.186
19488W        W87882  22.530  19.718   1.317
19489W        W87883  35.371   3.326  11.586
19490W        W87884  29.426  33.030  12.948
19491W        W87885  11.706   6.773   0.799
19492W        W87886  30.960   4.130   2.869
19493W        W87887  15.610  28.593  13.993
19494W        W87888   3.812   7.603  12.983
19495W        W87889  39.909  12.446  10.698
19496W        W87890   2.709   4.578   1.937
19497W        W87891  34.431  32.856  12.442
19498W        W87892  11.443  24.307  12.459
19499W        W87893  18.770  26.616   0.564
19500W        W87894  26.200  10.624   3.205
19501W        W87895   7.678  21.995   4.203
19502W        W87896  22.564  12.338  11.215
19503W        W87897   2.744  35.713  13.061
19504W        W87898  10.553  31.927   0.911
19505W        W87899   5.027  34.127  13.030
19506W        W87900  20.758   3.271   0.881
19507W        W87901   9.556  34.338   0.737
19508W        W87902  31.048  15.161   2.674
19509W        W87903   8.257  14.220  12.047
19510W        W87904  44.606  30.023  12.537
19511W        W87905  16.022  22.181  14.441
19512W        W87906  27.055  18.264  14.881
19513W        W87907  44.343  20.423  13.987
19514W        W87908  19.670   4.731   1.753
19515W        W87909  10.311  26.557  13.459
19516W        W87910  27.932   6.098   2.824
19517W        W87911  20.531   3.888   3.645
19518W        W87912  13.287  39.061  12.039
19519W        W87913   8.437   2.862   9.716
19520W        W87914   7.845  10.708   3.670
19521W        W87915  28.876   2.504  12.325
19522W        W87916   7.486  16.689   3.274
19523W        W87917  43.746  13.927  13.871
19524W        W87918  19.155  20.525  11.483
19525W        W87919  35.963  40.115   3.137
19526W        W87920  31.611  21.363  12.108
19527W        W87921  16.843  29.644  12.061
19528W        W87922  20.568   8.217   4.838
19529W        W87923  36.479  16.893   9.803
19530W        W87924   3.749  27.316   1.903
19531W        W87925  17.665  33.529   4.791
19532W        W87926  19.100   0.967  13.550
19533W        W87927  20.126  32.542  13.570
19534W        W87928  36.430  24.736   2.045
19535W        W87929  27.565  26.437  11.472
19536W        W87930  36.107   1.735  10.699
19537W        W87931  22.199  16.702   1.401
19538W        W87932  13.832   8.221   0.728
19539W        W87933  18.777  36.720  13.198
19540W        W87934  16.023  18.759  12.487
19541W        W87935  34.314  19.971  12.603
19542W        W87936  38.432  23.684   4.698
19543W        W87937  43.389  19.721  11.707
19544W        W87938  27.628  36.735   3.426
19545W        W87939  30.766  17.504   4.912
19546W        W87940  10.758  38.007  14.128
19547W        W87941  37.904  43.113  10.662
19548W        W87942  36.973  15.888  13.526
19549W        W87943  18.863  37.145   3.134
19550W        W87944  10.142  26.434   2.691
19551W        W87945  44.434  18.790   0.867
19552W        W87946  34.155  17.673  13.923
19553W        W87947  44.297  13.125   3.315
19554W        W87948  22.782  36.800  12.067
19555W        W87949  43.830  11.565  10.468
19556W        W87950  35.598  12.682   0.228
19557W        W87951  44.766  32.048  14.582
19558W        W87952  33.839   7.154   0.819
19559W        W87953   8.349  39.923   1.485
19560W        W87954  42.779  42.162  11.651
19561W        W87955  44.779  12.458   4.138
19562W        W87956  38.906   7.698  12.108
19563W        W87957   4.449  29.170  14.886
19564W        W87958  40.125   4.345   0.487
19565W        W87959  24.242  44.858  13.007
19566W        W87960  20.249  10.163   3.753
19567W        W87961  23.579  12.701   3.726
19568W        W87962  11.410  30.095   2.831
19569W        W87963  26.921  12.584   0.650
19570W        W87964  26.702   0.496   1.927
19571W        W87965  37.064  42.930   4.103
19572W        W87966   9.232  14.879  13.861
19573W        W87967  41.857  11.393  11.760
19574W        W87968  25.779  17.315  11.939
19575W        W87969  31.129  25.647  14.045
19576W        W87970  33.379  25.011   4.724
19577W        W87971  15.122  27.468   4.959
19578W        W87972  26.622  39.155  12.841
19579W        W87973  33.656  13.445  10.695
19580W        W87974  42.813   6.389  13.353
19581W        W87975  23.654  27.962  14.830
19582W        W87976  28.811  41.202  13.649
19583W        W87977   9.198  15.223  12.951
19584W        W87978  38.078   0.059   1.318
19585W        W87979  10.732  18.461   3.554
19586W        W87980  14.742  17.663   3.195
19587W        W87981  40.916  37.918   1.808
19588W        W87982  39.165   2.425   5.263
19589W        W87983   8.479  29.582   3.213
19590W        W87984  28.523  10.704   2.729
19591W        W87985   4.442   6.763   0.425
19592W        W87986  25.800  27.190  11.953
19593W        W87987   2.805   7.730   3.739
19594W        W87988  24.215   5.780  12.481
19595W        W87989  34.390   6.173  12.352
19596W        W87990  29.152  24.988   3.611
19597W        W87991  31.678  33.092   0.004
19598W        W87992  34.708  44.711  11.228
19599W        W87993  14.417  44.326   0.999
19600W        W87994   9.439  25.958   3.907
19601W        W87995  20.763  28.517   4.591
19602W        W87996   1.787  36.479   2.141
19603W        W87997  11.632  41.869   0.807
19604W        W87998  27.006  15.842  14.180
19605W        W87999  35.944   1.737  12.091
19606W        W88000   9.845  27.709   3.474
19607W        W88001  18.446  24.677   4.373
19608W        W88002   0.899  38.689   4.251
19609W        W88003   9.101  44.055   2.046
19610W        W88004  34.624  40.709  11.942
19611W        W88005  30.041   2.620  14.416
19612W        W88006  18.086  16.196  14.480
19613W        W88007  25.111  23.236   4.228
19614W        W88008  43.308   9.213   5.355
19615W        W88009  43.897  35.739  14.402
19616W        W88010  17.728   3.730   0.796
19617W        W88011  34.359  10.472  14.369
19618W        W88012  23.243  19.870  13.553
19619W        W88013  11.475  18.711  13.095
19620W        W88014   7.784  42.381  14.499
19621W        W88015   9.020  15.575   5.144
19622W        W88016  38.565  22.307  12.089
19623W        W88017   9.250  41.299   3.666
19624W        W88018  35.355  38.997  12.009
19625W        W88019   9.606  39.349   1.513
19626W        W88020  34.480  39.262   3.762
19627W        W88021  24.808  43.302   9.861
19628W        W88022  35.998   0.733  10.902
19629W        W88023   1.462  14.866  14.408
19630W        W88024  33.077  42.970   0.420
19631W        W88025   2.593  12.380   2.270
19632W        W88026  11.343  40.465  14.947
19633W        W88027   5.146  32.942  14.931
19634W        W88028  28.454  27.957   4.526
19635W        W88029  37.806  19.607   1.726
19636W        W88030  17.379  27.678   0.720
19637W        W88031  14.892  27.009  12.517
19638W        W88032  42.369  22.116   4.565
19639W        W88033  28.463  20.857   3.237
19640W        W88034  21.427  42.416   1.254
19641W        W88035  26.389  38.084  13.797
19642W        W88036   1.798  29.975   4.760
19643W        W88037  17.446  24.801   2.751
19644W        W88038  30.074  33.883  12.450
19645W        W88039  13.357  12.643   0.853
19646W        W88040  35.804  43.256   2.634
19647W        W88041   9.848  11.596  11.149
19648W        W88042  42.823   1.874   2.609
19649W        W88043  22.634   9.885   1.876
19650W        W88044   5.256  15.756  13.488
19651W        W88045   9.939  12.557  12.139
19652W        W88046  21.718  26.123  11.163
19653W        W88047  16.286  39.611  12.233
19654W        W88048  33.092   1.918   1.308
19655W        W88049  30.255  38.240  11.267
19656W        W88050   6.391  18.085  12.551
19657W        W88051  39.528  24.116  11.945
19658W        W88052  16.158  14.547   3.303
19659W        W88053  23.183  29.142   2.115
19660W        W88054  39.995  31.458  13.835
19661W        W88055  30.214   7.574  13.369
19662W        W88056  23.222  23.608   1.414
19663W        W88057  10.288  37.558  12.049
19664W        W88058  20.117  43.783  13.462
19665W        W88059  30.602  43.816  12.682
19666W        W88060  30.442  17.078  14.972
19667W        W88061   5.759  44.142   1.646
19668W        W88062   2.293  36.011  11.140
19669W        W88063  26.987  39.887   0.906
19670W        W88064  32.147  20.902  12.438
19671W        W88065  40.254  13.150   3.143
19672W        W88066   1.053  33.444  12.526
19673W        W88067  17.978  18.183   0.805
19674W        W88068  34.581  31.181  14.476
19675W        W88069  10.794  16.978  12.665
19676W        W88070  12.567   4.456   0.804
19677W        W88071   1.146  38.412  13.492
19678W        W88072  35.891   4.743  14.490
19679W        W88073  29.913  16.960   0.478
19680W        W88074  36.625  32.834   2.348
19681W        W88075  20.067   0.938  13.138
19682W        W88076  33.173   7.779  14.598
19683W        W88077  23.488   9.985   3.184
19684W        W88078  20.709  24.205   2.628
19685W        W88079  28.010  27.445   1.692
19686W        W88080  44.220  10.848  11.471
19687W        W88081  41.937  43.714   3.349
19688W        W88082  30.491  29.553   2.812
19689W        W88083   0.033   5.670   1.218
19690W        W88084  35.905  43.871  12.841
19691W        W88085  28.180  44.010  12.084
19692W        W88086  29.071  35.544  14.765
19693W        W88087  44.988  13.420  14.446
19694W        W88088  43.008  20.618   3.585
19695W        W88089  21.626  41.302   2.013
19696W        W88090  38.250  19.644   3.285
19697W        W88091  35.729  18.032  11.470
19698W        W88092  24.733  38.358  11.193
19699W        W88093  30.715  25.600  13.689
19700W        W88094   8.660  14.575   3.809
19701W        W88095   4.989   5.429  11.067
19702W        W88096   7.153  31.826   1.995
19703W        W88097  27.120   9.727   0.003
19704W        W88098   3.866  35.028  10.812
19705W        W88099  19.346   8.289  11.230
19706W        W88100   2.666  22.205   2.805
19707W        W88101   3.962   3.754  12.939
19708W        W88102  39.313   2.225  13.868
19709W        W88103  40.956   4.827  14.546
19710W        W88104  32.134   2.875  14.942
19711W        W88105  10.652  43.721   4.890
19712W        W88106  41.386  32.638   3.606
19713W        W88107  43.700  40.918  12.783
19714W        W88108  41.345  13.460  12.099
19715W        W88109  41.671  32.943  11.161
19716W        W88110  15.346  38.548   3.400
19717W        W88111  14.748  21.286   3.755
19718W        W88112  22.189  31.189   1.189
19719W        W88113  37.047  33.054  13.349
19720W        W88114  26.153  14.365  13.807
19721W        W88115  16.155   7.222   3.770
19722W        W88116   6.842  25.467   1.734
19723W        W88117  11.289  15.772  11.435
19724W        W88118  29.972   0.619   2.650
19725W        W88119   5.440  27.923   2.710
19726W        W88120  29.974  10.358   3.247
19727W        W88121  37.602   6.421  14.847
19728W        W88122  21.592   0.160   3.215
19729W        W88123  22.400  36.566  14.471
19730W        W88124  12.309  33.665   0.341
19731W        W88125  44.778  35.483   2.779
19732W        W88126  15.043   2.489   1.512
19733W        W88127  43.238   7.066  13.484
19734W        W88128   5.815   7.117  12.687
19735W        W88129  23.963  28.907   1.447
19736W        W88130  19.651  22.100   3.245
19737W        W88131  44.237  34.897  13.033
19738W        W88132   8.213  39.378   3.410
19739W        W88133  34.531  41.383   0.112
19740W        W88134  39.434  22.617  10.516
19741W        W88135  38.487   5.887  11.604
19742W        W88136  41.541  12.986   1.045
19743W        W88137  12.749  33.183   2.935
19744W        W88138  29.969  41.502  12.033
19745W        W88139  40.475   6.294  11.731
19746W        W88140   3.819   7.575  13.931
19747W        W88141  33.341  17.066   1.261
19748W        W88142  18.159  21.949  13.145
19749W        W88143   1.628   0.995   3.660
19750W        W88144  13.404  21.268  13.498
19751W        W88145  33.386  24.587  11.078
19752W        W88146   6.273  11.233   1.217
19753W        W88147   0.314  35.018  10.806
19754W        W88148  22.039   4.984   1.153
19755W        W88149  11.368  24.060   1.887
19756W        W88150  24.226   1.752  11.749
19757W        W88151   2.321  36.524   4.781
19758W        W88152  38.887  22.981   1.324
19759W        W88153  36.338   9.463  11.005
19760W        W88154  16.741  14.566  12.016
19761W        W88155  11.839  36.033   1.313
19762W        W88156  40.789  35.845  12.405
19763W        W88157  43.208  36.202  14.845
19764W        W88158  27.012  12.768   1.138
19765W        W88159  24.071  21.510   3.102
19766W        W88160  22.001   3.933   4.168
19767W        W88161  35.341   0.556   1.589
19768W        W88162   4.207  15.842   0.733
19769W        W88163  42.423  33.079   1.748
19770W        W88164  23.165  31.886  10.663
19771W        W88165  24.475  35.984   1.458
19772W        W88166   1.439   4.274  11.190
19773W        W88167  33.246   8.183  13.920
19774W        W88168  30.765  28.344   0.157
19775W        W88169  28.106  21.344   2.075
19776W        W88170  11.696   9.613   0.698
19777W        W88171   7.651  17.078  10.515
19778W        W88172  29.501  19.320  11.049
19779W        W88173  33.364  21.786  11.535
19780W        W88174  15.827  38.118   4.530
19781W        W88175  11.600  36.394   4.602
19782W        W88176  24.275  12.084  11.674
19783W        W88177  16.768  28.375  13.551
19784W        W88178   0.494  30.096   4.147
19785W        W88179  26.403  39.664  12.904
19786W        W88180   7.901  39.853   0.792
19787W        W88181  30.647  38.573  13.910
19788W        W88182  17.761  26.000   1.233
19789W        W88183   5.688  44.012  13.796
19790W        W88184   0.375   0.175  10.690
19791W        W88185  24.508   0.412  11.931
19792W        W88186  42.359  34.620   1.036
19793W        W88187  31.663  36.536  14.920
19794W        W88188  16.221  16.541   2.527
19795W        W88189   3.322   5.604  13.768
19796W        W88190  20.534  38.414   2.670
19797W        W88191  32.632  25.778   2.387
19798W        W88192  37.898  30.329   1.813
19799W        W88193  10.541  36.525   1.264
19800W        W88194  26.163   1.786   2.699
19801W        W88195  11.219  33.985   2.755
19802W        W88196  40.918  38.188  14.362
19803W        W88197  21.832  18.098   1.848
19804W        W88198  38.571  15.228   2.192
19805W        W88199  32.260  35.448  11.447
19806W        W88200  25.696  13.679  14.773
19807W        W88201  11.409  13.437   1.829
19808W        W88202  23.122  26.187   3.276
19809W        W88203  38.596  11.657   4.462
19810W        W88204  12.211  24.638  10.836
19811W        W88205  37.432   0.762   4.851
19812W        W88206  15.126  34.410   4.185
19813W        W88207  39.919  11.264   3.702
19814W        W88208  30.156  44.427  12.433
19815W        W88209   7.736   7.874   4.323
19816W        W88210  28.225  19.452   1.433
19817W        W88211  27.534   9.886  11.118
19818W        W88212  19.747  38.114   0.030
19819W        W88213  36.528  14.676   2.745
19820W        W88214  10.085  40.572  11.159
19821W        W88215  28.448  39.035   0.383
19822W        W88216  10.642  15.776   4.681
19823W        W88217  43.917  19.722  11.371
19824W        W88218  34.671  31.098   4.727
19825W        W88219  33.585  26.481   3.588
19826W        W88220  38.741  32.034  12.411
19827W        W88221  41.291   4.219  14.496
19828W        W88222   8.622  33.333   0.382
19829W        W88223  28.973   6.143   1.213
19830W        W88224  12.218  43.345   2.399
19831W        W88225  35.708  27.645   0.339
19832W        W88226  24.845  12.398   5.262
19833W        W88227  28.406  26.578  12.878
19834W        W88228  11.145  40.811   1.426
19835W        W88229   5.427  12.886  10.711
19836W        W88230  11.096  25.012   2.709
19837W        W88231   5.472   6.151  12.478
19838W        W88232  13.043  44.927  14.487
19839W        W88233  41.830   1.367  11.790
19840W        W88234  15.065  33.940   1.870
19841W        W88235  20.079  14.592   1.737
19842W        W88236  42.384  13.045   0.828
19843W        W88237  24.570  24.543  14.313
19844W        W88238  10.649   2.004   4.973
19845W        W88239  37.898  29.616   4.157
19846W        W88240  35.913  14.119   2.294
19847W        W88241  39.295  17.509  13.638
19848W        W88242  16.078  10.236   3.097
19849W        W88243  18.669  33.871   2.363
19850W        W88244   0.853  16.163   2.531
19851W        W88245  29.221   1.450   1.435
19852W        W88246  28.376   0.426   2.746
19853W        W88247  27.660  35.118  11.470
19854W        W88248  24.454   1.925   3.166
19855W        W88249  42.536  23.472  11.346
19856W        W88250  33.028  30.382  14.378
19857W        W88251   0.539  28.643  14.578
19858W        W88252  44.528  25.897  10.951
19859W        W88253  36.514  14.274   4.985
19860W        W88254   3.483  28.904  13.720
19861W        W88255   0.938  26.830   2.502
19862W        W88256  14.690  39.547  13.435
19863W        W88257   9.777  28.335   0.776
19864W        W88258  11.854  13.217   3.672
19865W        W88259   2.412   9.249  10.694
19866W        W88260  44.253  20.256   0.926
19867W        W88261  42.518  25.647   0.503
19868W        W88262  20.784  14.177  10.353
19869W        W88263   2.212  16.904   2.244
19870W        W88264   9.928  34.965  13.235
19871W        W88265  30.838  30.446   3.697
19872W        W88266  37.443  17.887   3.884
19873W        W88267  14.524  16.973   0.330
19874W        W88268  17.304  19.484  14.875
19875W        W88269  33.409   9.946   2.721
19876W        W88270  16.734  43.738   3.439
19877W        W88271  16.604  38.533  13.265
19878W        W88272  17.136   8.475   1.294
19879W        W88273   3.761   7.828  13.469
19880W        W88274   7.313  30.494  11.490
19881W        W88275   5.271  39.495   2.193
19882W        W88276  40.791  40.442  11.192
19883W        W88277  40.383  18.058   2.717
19884W        W88278  39.598  24.147   4.457
19885W        W88279  12.944  12.293  12.006
19886W        W88280  32.659   3.783  13.864
19887W        W88281  32.537  18.118   5.173
19888W        W88282  36.972  24.237   3.330
19889W        W88283   5.516  36.813  12.042
19890W        W88284  41.537   6.871  14.471
19891W        W88285  13.614  41.278  12.875
19892W        W88286  29.583  20.018  14.816
19893W        W88287   2.248  13.651   5.301
19894W        W88288  38.236  12.602  14.770
19895W        W88289  28.052  40.860  12.572
19896W        W88290  22.291  42.399  12.095
19897W        W88291  20.738  22.448   1.828
19898W        W88292  32.379   5.091  11.684
19899W        W88293   1.387  17.202   3.576
19900W        W88294  42.745  20.094   4.737
19901W        W88295   2.401  23.084   3.013
19902W        W88296   2.941  35.801  13.955
19903W        W88297  37.495  40.948  12.659
19904W        W88298  16.734  13.705   3.207
19905W        W88299  12.148  40.846  11.430
19906W        W88300  21.203  44.310  14.483
19907W        W88301   9.290  41.002   0.400
19908W        W88302   6.905   6.937   0.182
19909W        W88303  27.041   1.572   2.505
19910W        W88304  33.649  44.044  10.720
19911W        W88305  29.578   9.102   4.532
19912W        W88306  14.513   3.034   0.638
19913W        W88307   1.372  32.067   4.052
19914W        W88308   7.768  19.736  13.768
19915W        W88309  36.914   5.138   3.034
19916W        W88310  22.754  26.926  11.520
19917W        W88311  29.571  38.026  14.509
19918W        W88312  17.879  34.477   2.953
19919W        W88313  43.841  21.538  12.994
19920W        W88314  43.781  31.429   4.114
19921W        W88315  11.779  18.725   3.589
19922W        W88316  37.830  26.027   3.820
19923W        W88317  15.995  18.987   1.419
19924W        W88318  29.576  17.904  11.969
19925W        W88319  13.155  15.804  14.460
19926W        W88320  10.185   8.613   2.890
19927W        W88321  32.771  27.476  12.045
19928W        W88322  33.998  15.565  11.962
19929W        W88323  21.544  27.040   9.469
19930W        W88324  19.567  20.879  13.410
19931W        W88325  21.061  33.063  11.067
19932W        W88326   0.198  36.159   3.265
19933W        W88327  44.745  13.266   2.291
19934W        W88328  13.841  29.965  14.894
19935W        W88329  39.877  28.959  12.654
19936W        W88330  16.705  35.311  14.530
19937W        W88331  43.339  29.929   4.888
19938W        W88332  37.523  26.680  14.871
19939W        W88333  24.092  43.591  12.417
19940W        W88334  27.130  40.394  14.938
19941W        W88335  10.148  23.915   2.284
19942W        W88336   7.039  30.773  14.873
19943W        W88337  31.647  11.303  14.524
19944W        W88338  30.838  17.733  14.412
19945W        W88339   7.404  25.592   0.005
19946W        W88340  11.381   5.531   1.716
19947W        W88341  20.050  12.023  12.268
19948W        W88342  14.762  29.081  11.061
19949W        W88343  13.408   8.791  11.201
19950W        W88344  26.670  34.998  12.153
19951W        W88345  12.547  11.829  14.872
19952W        W88346   7.334  18.357  13.808
19953W        W88347  11.434   7.737  11.095
19954W        W88348  11.939  22.165   3.751
19955W        W88349  39.057  28.086   1.851
19956W        W88350  18.033  40.302  12.803
19957W        W88351   4.664  38.853  12.583
19958W        W88352  29.224  33.049  13.409
19959W        W88353   4.974  25.033   1.687
19960W        W88354  42.829  26.695   1.885
19961W        W88355  40.538  15.535  13.921
19962W        W88356  36.972   6.310  12.592
19963W        W88357  14.299  39.244  12.470
19964W        W88358  11.548  31.547   0.732
19965W        W88359  44.524  11.095  12.115
19966W        W88360  20.845  37.461   2.637
19967W        W88361  20.235   1.753  13.028
19968W        W88362  28.111  43.760   0.279
19969W        W88363   8.655  17.710   3.611
19970W        W88364  24.741  29.186   2.575
19971W        W88365  18.735   3.228  14.733
19972W        W88366  42.292  43.755  14.458
19973W        W88367  39.656   6.058  11.646
19974W        W88368  25.906   7.832  12.086
19975W        W88369  29.549  31.829   1.414
19976W        W88370   3.444  12.080   2.774
19977W        W88371   9.200   1.256  12.078
19978W        W88372   6.873  16.120  13.530
19979W        W88373   8.671  22.181   4.403
19980W        W88374  39.026  41.080   0.853
19981W        W88375  17.581  29.987  13.133
19982W        W88376   9.371  24.659   0.302
19983W        W88377  27.001  20.814  11.508
19984W        W88378  24.402  13.100   4.722
19985W        W88379  29.104  34.447  10.906
19986W        W88380  11.145   4.266  12.934
19987W        W88381  29.592   8.750   3.791
19988W        W88382  11.225  18.811  10.733
19989W        W88383  44.924   5.904  12.684
19990W        W88384  17.141  41.910   9.864
19991W        W88385  31.027   2.461  14.550
19992W        W88386  14.124  27.566   2.166
19993W        W88387  16.446  41.134   4.105
19994W        W88388   3.310  14.270   2.349
19995W        W88389   2.542  39.007  10.697
19996W        W88390  27.949  31.423   4.679
19997W        W88391   5.817   3.713   2.649
19998W        W88392  21.324  15.524  10.634
19999W        W88393  28.433  12.310  12.599
20000W        W88394  33.571  35.973   4.524
20001W        W88395  38.583  27.726   0.423
20002W        W88396  36.134   0.854  12.094
20003W        W88397  40.114  39.247  12.313
20004W        W88398   8.465   8.726  10.685
20005W        W88399   4.817  20.451  14.884
20006W        W88400  25.941   7.269   0.473
20007W        W88401   7.046  29.496   5.073
20008W        W88402   1.695  18.640   0.834
20009W        W88403  29.520  42.428  10.096
20010W        W88404  11.313  29.415   4.689
20011W        W88405   4.417  17.336  11.365
20012W        W88406  26.040   6.913  14.896
20013W        W88407  37.011  32.020   4.261
20014W        W88408  15.967  40.926   4.166
20015W        W88409  15.288   6.569   1.965
20016W        W88410  34.088  18.183   0.889
20017W        W88411   4.699  40.810  13.288
20018W        W88412   8.296  35.306   2.275
20019W        W88413  34.448  28.572  11.655
20020W        W88414  12.424  35.112   3.680
20021W        W88415  26.860   4.179   4.176
20022W        W88416  14.596   5.482  11.548
20023W        W88417   9.977  24.233  12.313
20024W        W88418  11.141  22.652   3.646
20025W        W88419  26.280  16.445  12.343
20026W        W88420   6.754   1.313  10.684
20027W        W88421  34.891  17.582   3.172
20028W        W88422   3.383  21.093   0.512
20029W        W88423  42.413  23.753   0.991
20030W        W88424  10.713  26.793   1.413
20031W        W88425  38.799  10.272   1.220
20032W        W88426  12.417   6.807   5.002
20033W        W88427  18.281   4.485  11.099
20034W        W88428  33.984  32.403  13.018
20035W        W88429   7.638  39.971  13.573
20036W        W88430  17.826  36.952  12.901
20037W        W88431   0.714  21.720   0.249
20038W        W88432  36.674  29.351  11.088
20039W        W88433  29.563  22.633  12.453
20040W        W88434  28.117  19.792   1.951
20041W        W88435  20.249  43.028   4.047
20042W        W88436  14.131  20.856   2.203
20043W        W88437   1.470  37.956   0.903
20044W        W88438  42.350  43.803   1.366
20045W        W88439  44.063  41.222  12.584
20046W        W88440  35.367  40.365   1.528
20047W        W88441  15.427   5.390  13.376
20048W        W88442  17.833  40.454  13.469
20049W        W88443  27.510  33.809  11.048
20050W        W88444   0.965  30.379   3.247
20051W        W88445  22.309  44.058   3.730
20052W        W88446   0.856  10.833   4.088
20053W        W88447  38.497  16.368   3.180
20054W        W88448  38.780  12.691   4.813
20055W        W88449  39.124  14.174   3.064
20056W        W88450   5.276  37.799   0.711
20057W        W88451  37.047  10.734  14.406
20058W        W88452  28.677  39.534  11.574
20059W        W88453   7.364  11.580   0.847
20060W        W88454  34.900  26.058   1.707
20061W        W88455  28.454   7.859   1.282
20062W        W88456  21.212  25.486   3.116
20063W        W88457   8.116  27.725   0.936
20064W        W88458  37.978  13.071  14.680
20065W        W88459   3.311  25.016   3.993
20066W        W88460  14.284   3.707   1.003
20067W        W88461  21.686  25.585   2.605
20068W        W88462   7.352  19.127   3.729
20069W        W88463  20.739  18.900  14.796
20070W        W88464  25.684   2.700  12.512
20071W        W88465   1.806  21.670   1.869
20072W        W88466  35.872  40.748  11.574
20073W        W88467   3.317  15.629  14.504
20074W        W88468  10.301  21.556   1.986
20075W        W88469  43.915  33.454  12.954
20076W        W88470  16.297  26.566   0.839
20077W        W88471  16.398  44.007  14.945
20078W        W88472  32.741   1.469   3.605
20079W        W88473  42.494  15.745  14.810
20080W        W88474   2.609  14.427  12.098
20081W        W88475   9.462  13.635  11.195
20082W        W88476  32.943   5.403  13.130
20083W        W88477   8.915  42.743   5.330
20084W        W88478  25.692  13.571  13.889
20085W        W88479  16.044  14.738   1.468
20086W        W88480  15.697  18.938   1.005
20087W        W88481  17.533   7.846  12.478
20088W        W88482   5.887  35.900  12.525
20089W        W88483   1.325  38.569  14.779
20090W        W88484  11.153  14.326  13.121
20091W        W88485  19.816  41.506  13.791
20092W        W88486   8.244  34.860  11.327
20093W        W88487  14.655  40.089   0.383
20094W        W88488  35.521  41.452   2.372
20095W        W88489   0.675  11.433  14.967
20096W        W88490  18.244  13.573  10.691
20097W        W88491  34.893   4.451   1.702
20098W        W88492  23.596  38.381  10.767
20099W        W88493  15.913  20.029   0.811
20100W        W88494  26.098  15.845  13.865
20101W        W88495  27.703  33.597   2.478
20102W        W88496  36.544  38.164   4.869
20103W        W88497   0.618  11.911   2.495
20104W        W88498   9.868  28.265   4.101
20105W        W88499  42.723   0.919   3.696
20106W        W88500  22.179  40.256  12.470
20107W        W88501  25.500  13.851   3.095
20108W        W88502  21.702  36.937  13.529
20109W        W88503   8.608  20.029   0.256
20110W        W88504  31.140  44.764   3.115
20111W        W88505  18.554  17.283   1.836
20112W        W88506   8.808  27.998  13.107
20113W        W88507  22.948  18.502  13.063
20114W        W88508   9.807   4.520   1.496
20115W        W88509  30.665  38.321  11.583
20116W        W88510  41.493   8.905  12.818
20117W        W88511  17.786  33.882  12.388
20118W        W88512  25.583  24.952  13.345
20119W        W88513  17.983  21.222  13.526
20120W        W88514  41.961  24.891   3.777
20121W        W88515  25.765  31.536   4.494
20122W        W88516  22.316   6.224   4.272
20123W        W88517   2.284   5.313  12.973
20124W        W88518  26.729   0.999   5.424
20125W        W88519  22.192  11.327   0.859
20126W        W88520  40.485  17.832  12.421
20127W        W88521  23.661  13.088   1.731
20128W        W88522  26.697  22.759  14.821
20129W        W88523  43.742  42.489  11.111
20130W        W88524   0.938  11.942  12.175
20131W        W88525  22.798  19.218   3.254
20132W        W88526  19.964  13.799  14.559
20133W        W88527   6.153  17.593  11.020
20134W        W88528  39.297  18.571   0.501
20135W        W88529   0.207  17.776  11.744
20136W        W88530  29.623  10.804   1.286
20137W        W88531  20.103  18.760   4.582
20138W        W88532   6.908  13.279  10.107
20139W        W88533  44.895   9.915  14.491
20140W        W88534  15.892  18.546   3.921
20141W        W88535   3.747  19.045   3.656
20142W        W88536  23.086  43.110   4.282
20143W        W88537   9.101  35.122  14.350
20144W        W88538   5.329  27.456  12.551
20145W        W88539  31.646  11.134   1.486
20146W        W88540  35.664  41.939  13.847
20147W        W88541  10.924  24.344   1.030
20148W        W88542  21.051  42.442  13.430
20149W        W88543   7.233   1.378  14.726
20150W        W88544  35.872  13.239   0.775
20151W        W88545   6.665  28.002   0.219
20152W        W88546  37.915  14.809  14.037
20153W        W88547  16.019  30.015   3.729
20154W        W88548  34.533  12.945  10.712
20155W        W88549  30.759  44.480  13.329
20156W        W88550   5.882  36.115   4.296
20157W        W88551  15.472  21.418  12.928
20158W        W88552  35.966   8.130   1.708
20159W        W88553   2.633  20.816  13.424
20160W        W88554   3.710  22.313   5.021
20161W        W88555   8.812   2.054  11.063
20162W        W88556   8.745   1.370  14.087
20163W        W88557  28.898  43.830  13.569
20164W        W88558  38.402  12.660   3.275
20165W        W88559   5.775  35.341   4.951
20166W        W88560   0.185   1.520  12.780
20167W        W88561  17.495  38.301  12.951
20168W        W88562  21.757  24.625  10.947
20169W        W88563   1.260   6.474  13.336
20170W        W88564  13.626   8.668  12.047
20171W        W88565  19.280  40.320  13.505
20172W        W88566  12.318  30.070   4.134
20173W        W88567  37.802  36.526  11.574
20174W        W88568  17.790  33.446  13.579
20175W        W88569  17.138  30.567  12.539
20176W        W88570  17.581  36.479   5.551
20177W        W88571  22.504  26.466  11.513
20178W        W88572  11.852  24.489  12.979
20179W        W88573  12.663  33.868  12.337
20180W        W88574  27.070  21.076   2.833
20181W        W88575   2.778  23.788  13.561
20182W        W88576  28.378  13.966  13.866
20183W        W88577  20.232  16.646  11.877
20184W        W88578   1.962  13.151   2.324
20185W        W88579  37.497  35.091   2.851
20186W        W88580   6.008  29.912  13.378
20187W        W88581   3.762  19.576  11.169
20188W        W88582  39.844   3.317  14.043
20189W        W88583   4.322  36.827  14.857
20190W        W88584  35.876  10.698  10.750
20191W        W88585  27.548   6.468  13.868
20192W        W88586  40.376  31.236  10.642
20193W        W88587   1.797  42.904  10.781
20194W        W88588  36.552  18.097  12.029
20195W        W88589  19.470  27.027  14.435
20196W        W88590  34.412   6.344  10.977
20197W        W88591  15.870  25.769  14.285
20198W        W88592  31.059  16.426  14.263
20199W        W88593  21.473   6.026  14.760
20200W        W88594   6.131   2.233   3.724
20201W        W88595  34.420  38.653  12.393
20202W        W88596  19.307  25.659  12.515
20203W        W88597  43.838  26.208   0.523
20204W        W88598  36.793  33.993   4.060
20205W        W88599   5.827   1.089   4.987
20206W        W88600  36.497  15.909   2.775
20207W        W88601  11.929  39.366  11.246
20208W        W88602   1.412  24.452   3.819
20209W        W88603   0.197  23.142  14.344
20210W        W88604  16.727  33.511   3.374
20211W        W88605  26.558  34.809   5.008
20212W        W88606  33.502  43.253  11.315
20213W        W88607  23.142   9.896  12.664
20214W        W88608   8.378  20.828  10.750
20215W        W88609  20.222   3.420   3.339
20216W        W88610  35.616  37.746   1.277
20217W        W88611  43.551  37.435  11.610
20218W        W88612  11.985  21.471   1.204
20219W        W88613  13.157  34.066   1.429
20220W        W88614  32.038  25.924  12.188
20221W        W88615  16.814  38.923   0.845
20222W        W88616  36.005  33.344   2.481
20223W        W88617  39.893  19.043  12.812
20224W        W88618  44.406  15.607  14.577
20225W        W88619  33.816  26.218  12.367
20226W        W88620  35.376  44.812   2.286
20227W        W88621  27.677  32.759  13.395
20228W        W88622  37.598  11.791  12.509
20229W        W88623   1.619  31.144  13.005
20230W        W88624   7.803  42.818   1.166
20231W        W88625  20.662  44.426   4.314
20232W        W88626  14.774   0.261  10.583
20233W        W88627   6.130   2.784   3.085
20234W        W88628   2.393  15.584  14.451
20235W        W88629   6.510  30.055   0.720
20236W        W88630  32.367  35.748  13.082
20237W        W88631   7.793  35.637  14.757
20238W        W88632  33.527  30.954  14.042
20239W        W88633  22.693   9.389   1.705
20240W        W88634  30.920   1.179   4.101
20241W        W88635  24.298  44.490  14.953
20242W        W88636  18.333  30.963   1.921
20243W        W88637  31.174   1.070  12.030
20244W        W88638  35.460  38.096   1.650
20245W        W88639  11.120  10.343   4.553
20246W        W88640  17.624  44.692   3.146
20247W        W88641  31.489  42.464   0.475
20248W        W88642  30.981  36.190  14.876
20249W        W88643  19.829  15.758   1.724
20250W        W88644  40.531   1.193  10.770
20251W        W88645  31.432  39.896  12.273
20252W        W88646   1.005   9.049   0.575
20253W        W88647   8.331   6.938  12.242
20254W        W88648  41.533  17.146  11.700
20255W        W88649  14.807  44.502  13.522
20256W        W88650  16.905  23.616  14.270
20257W        W88651  13.426  35.958  12.183
20258W        W88652   4.912  35.044   0.137
20259W        W88653  35.458  21.722   3.597
20260W        W88654  23.869   1.456  13.041
20261W        W88655  35.024  23.655  13.123
20262W        W88656  36.020  36.942   0.959
20263W        W88657  30.693  35.635   4.903
20264W        W88658   7.268  23.073   1.162
20265W        W88659  40.929  13.583  11.416
20266W        W88660  11.110  36.675  14.090
20267W        W88661   1.011   0.111   1.159
20268W        W88662  13.763  35.724  12.535
20269W        W88663  38.483   6.935   3.532
20270W        W88664  32.492   6.318  13.569
20271W        W88665  39.544  10.874  13.426
20272W        W88666  34.553  36.871   4.640
20273W        W88667  41.296  23.677   1.718
20274W        W88668  13.252  39.591  12.038
20275W        W88669  26.280   8.879   2.236
20276W        W88670  33.605  18.121   3.285
20277W        W88671   2.359  37.840   2.349
20278W        W88672  25.354  18.429   3.314
20279W        W88673   6.032  27.700   2.966
20280W        W88674   8.199   4.943  13.881
20281W        W88675  32.014  30.370   3.259
20282W        W88676   2.113   0.830   3.728
20283W        W88677  10.842  30.700  12.326
20284W        W88678  41.039   1.036  14.079
20285W        W88679  11.614   1.826  14.764
20286W        W88680  40.824  30.940  10.704
20287W        W88681  42.212   6.567   1.355
20288W        W88682  36.941   5.322  11.580
20289W        W88683  18.108  28.047  14.465
20290W        W88684  37.566   7.337   3.421
20291W        W88685  15.916  27.460  12.118
20292W        W88686  36.273  13.676  12.430
20293W        W88687  35.875  40.340  10.666
20294W        W88688  21.113   3.894   4.646
20295W        W88689  23.493  29.948   2.730
20296W        W88690  27.282  30.889   1.255
20297W        W88691  19.453  23.514  12.094
20298W        W88692  24.648  41.146   4.562
20299W        W88693  17.690   2.208   0.902
20300W        W88694   8.685  29.190  13.842
20301W        W88695  28.968  23.086  12.145
20302W        W88696  32.581   9.330   4.590
20303W        W88697  43.434  32.084  14.453
20304W        W88698   7.853   0.458   2.186
20305W        W88699  32.618  18.504  12.134
20306W        W88700  17.526  34.427   1.481
20307W        W88701  22.260  12.255  14.809
20308W        W88702  10.965   7.956  11.101
20309W        W88703   1.779  42.957  14.483
20310W        W88704   7.770   6.824  12.479
20311W        W88705  16.202  20.455  13.411
20312W        W88706  13.754  21.501   2.250
20313W        W88707  40.510  11.337  12.598
20314W        W88708  43.669   6.692  14.887
20315W        W88709  35.662  37.936  14.302
20316W        W88710  31.623  32.562   1.894
20317W        W88711  37.534  15.627   1.842
20318W        W88712  40.934  34.382   3.191
20319W        W88713  25.906   0.415   4.252
20320W        W88714   1.106  23.857  12.983
20321W        W88715   9.248  14.576  11.176
20322W        W88716  38.858  29.843   3.443
20323W        W88717  41.800   0.009   1.336
20324W        W88718  29.875   9.095  11.547
20325W        W88719  35.892   2.073   4.062
20326W        W88720  16.708  37.391   5.373
20327W        W88721  20.099  15.895   4.477
20328W        W88722  13.565   1.188   1.549
20329W        W88723  33.443  18.151  12.651
20330W        W88724  43.761  41.921   2.638
20331W        W88725   6.781  11.343  12.832
20332W        W88726  36.902  36.962  11.816
20333W        W88727   3.367  23.121  13.381
20334W        W88728  33.419  14.365  11.681
20335W        W88729  16.332   4.347   0.425
20336W        W88730  17.561  25.676  12.960
20337W        W88731  44.916  36.911   2.085
20338W        W88732  41.849  31.281  14.503
20339W        W88733  25.139  43.761   2.801
20340W        W88734  37.029   2.927   4.159
20341W        W88735  13.198  33.901   4.687
20342W        W88736  19.222   3.022  12.540
20343W        W88737  33.254  39.511  13.224
20344W        W88738  11.159  33.893  12.829
20345W        W88739   8.246  28.900  14.629
20346W        W88740  34.256  31.640  11.675
20347W        W88741  27.240  11.373  13.430
20348W        W88742  39.040  40.574   0.981
20349W        W88743  39.904  30.675   2.221
20350W        W88744  39.546  25.449   3.617
20351W        W88745  38.933  28.067   1.288
20352W        W88746  26.232  16.811   3.742
20353W        W88747  29.228  25.187   1.489
20354W        W88748  12.392   1.940  11.854
20355W        W88749  21.666  31.853  14.866
20356W        W88750  15.992  37.259  13.099
20357W        W88751  26.495  14.828   2.947
20358W        W88752  22.632   1.259  14.553
20359W        W88753   3.957  36.844  12.928
20360W        W88754  27.477  14.547   3.650
20361W        W88755  36.033  42.975   0.549
20362W        W88756  15.426   7.958  10.268
20363W        W88757  40.024  39.853  13.178
20364W        W88758  38.055  21.181   5.095
20365W        W88759   6.252  18.612  12.462
20366W        W88760  39.916  28.154  11.908
20367W        W88761   6.723  23.019  13.303
20368W        W88762  41.744   0.612   3.742
20369W        W88763  28.472  38.073   3.574
20370W        W88764  19.131  14.071   0.742
20371W        W88765  13.720   2.390  11.223
20372W        W88766  32.608  40.097  14.831
20373W        W88767  19.777  43.271   2.383
20374W        W88768  15.330  44.572  11.999
20375W        W88769  27.421  20.101   2.819
20376W        W88770   6.626  11.089   0.741
20377W        W88771  19.524  43.347  12.980
20378W        W88772   6.428  39.960   1.058
20379W        W88773  22.755  39.129  14.528
20380W        W88774  25.376  38.621  11.950
20381W        W88775  32.421  33.933   2.803
20382W        W88776  25.668  16.114  14.008
20383W        W88777  21.729   4.209   1.830
20384W        W88778  23.535  43.528  13.507
20385W        W88779  18.989  38.408   2.830
20386W        W88780  26.181  14.294  12.919
20387W        W88781  36.541   7.717  12.008
20388W        W88782  27.296   1.096  14.085
20389W        W88783  40.843  12.388  10.419
20390W        W88784  31.521  42.831  12.623
20391W        W88785   7.676  21.695   2.164
20392W        W88786  40.522  42.940  12.853
20393W        W88787  17.071  39.529   0.300
20394W        W88788  25.772  35.498   3.232
20395W        W88789  27.818  20.634   0.892
20396W        W88790   1.439   9.758   2.616
20397W        W88791  39.458  35.900  11.236
20398W        W88792  44.893  28.085   3.841
20399W        W88793   8.863  28.991  10.193
20400W        W88794  44.809  13.563   0.798
20401W        W88795  24.774  35.651  14.475
20402W        W88796  32.474  34.441   3.082
20403W        W88797   8.765   1.979   1.799
20404W        W88798  40.490  37.038   9.723
20405W        W88799   6.087   9.891   0.904
20406W        W88800   2.814  11.724  10.943
20407W        W88801  40.908  20.668   3.896
20408W        W88802  36.846  44.272   1.916
20409W        W88803  31.620  37.489   3.315
20410W        W88804  12.701  37.955   3.607
20411W        W88805  29.190  20.755   2.489
20412W        W88806  39.816   8.191  11.187
20413W        W88807  28.249  34.574   3.146
20414W        W88808  43.847   3.394   2.651
20415W        W88809  13.177  37.109  11.456
20416W        W88810  35.097  36.796   0.899
20417W        W88811  25.621   5.257  10.875
20418W        W88812  43.677  42.850   4.553
20419W        W88813  13.267  34.540  12.144
20420W        W88814  40.695  34.781  13.920
20421W        W88815  16.403  23.138   1.216
20422W        W88816   7.897   8.912   0.770
20423W        W88817  20.045  26.754  11.653
20424W        W88818  20.620  39.081  12.916
20425W        W88819  11.323  38.479  10.551
20426W        W88820  31.577  25.602   4.853
20427W        W88821  11.101   5.185  10.736
20428W        W88822  15.331   9.219   3.976
20429W        W88823  39.920  26.904   3.766
20430W        W88824  17.386  35.495   2.892
20431W        W88825  25.024  40.923  14.854
20432W        W88826   6.335  29.882  11.084
20433W        W88827  25.494  23.591  14.805
20434W        W88828  39.987   0.791  11.339
20435W        W88829  16.611  44.856   1.685
20436W        W88830  38.291  37.048   0.187
20437W        W88831   1.664  35.990   4.557
20438W        W88832  42.902  39.273   9.841
20439W        W88833   9.112   4.411  14.254
20440W        W88834  12.738  43.905   3.372
20441W        W88835  38.544  29.981   2.188
20442W        W88836  41.815  25.936   0.000
20443W        W88837  13.487   4.754   3.787
20444W        W88838  33.173  29.343  11.398
20445W        W88839  33.273  38.099   4.257
20446W        W88840  39.913  24.605  12.953
20447W        W88841  17.831  11.707   4.465
20448W        W88842  38.329   7.747   2.333
20449W        W88843   8.784  32.190  12.673
20450W        W88844  10.198   8.414   3.543
20451W        W88845  23.561   8.795  14.269
20452W        W88846   6.740  31.456   0.280
20453W        W88847   0.259  13.231   2.277
20454W        W88848  21.065  41.002  11.149
20455W        W88849  41.895  14.122  10.108
20456W        W88850  31.383  34.920   1.799
20457W        W88851  15.261  13.617   2.391
20458W        W88852  24.658  14.150   3.814
20459W        W88853  32.984   6.499   3.032
20460W        W88854  38.620  38.731  13.887
20461W        W88855   3.376  33.137   1.741
20462W        W88856  33.039   9.377   1.837
20463W        W88857   7.078  10.245  12.933
20464W        W88858  10.858  20.033   3.683
20465W        W88859   9.440   7.897   5.045
20466W        W88860  28.178  19.660   3.669
20467W        W88861   8.758   2.312  13.891
20468W        W88862  14.699  26.953  14.969
20469W        W88863  18.308  16.513   0.459
20470W        W88864  37.480  43.184   2.282
20471W        W88865  11.322   3.869  13.842
20472W        W88866   7.674  25.191  11.547
20473W        W88867  11.232  10.418  10.871
20474W        W88868   0.299  15.584  14.521
20475W        W88869  25.652   8.969  11.246
20476W        W88870  41.401  26.913   4.609
20477W        W88871  21.901  17.478   2.562
20478W        W88872  37.375  39.970   4.464
20479W        W88873  32.925  19.601   4.234
20480W        W88874  18.212  30.974  11.142
20481W        W88875   6.632  36.925   2.288
20482W        W88876  28.955  26.659   2.305
20483W        W88877  40.274   3.443  14.322
20484W        W88878  18.051  15.370  10.220
20485W        W88879  36.359  17.846  10.770
20486W        W88880   6.668  13.520   4.032
20487W        W88881   1.550  32.581   1.299
20488W        W88882  19.214  21.129  11.887
20489W        W88883  12.127   7.827   4.577
20490W        W88884  42.662  31.243  13.454
20491W        W88885   5.489  39.057   1.162
20492W        W88886  31.406  20.813   3.268
20493W        W88887  11.633  25.607   4.398
20494W        W88888   8.632  30.736   1.347
20495W        W88889   6.464  42.992  14.368
20496W        W88890   3.190  13.181  14.412
20497W        W88891  18.059  23.121   2.658
20498W        W88892   1.205  34.903   3.682
20499W        W88893  39.211  14.110  12.636
20500W        W88894  40.194  34.110  11.543
20501W        W88895  38.364  26.961  11.333
20502W        W88896   8.571  15.578  14.857
20503W        W88897  25.288  41.106  10.798
20504W        W88898  25.979  12.448   0.768
20505W        W88899  25.109  29.614  13.964
20506W        W88900   9.444  17.470  11.157
20507W        W88901   5.729   7.641   0.286
20508W        W88902  30.359  25.228  13.888
20509W        W88903  22.115  12.829  12.497
20510W        W88904  22.235  35.017  10.913
20511W        W88905  32.087  14.132  12.907
20512W        W88906  41.299   0.052  13.940
20513W        W88907  15.034   1.615  11.688
20514W        W88908   9.164  23.528   4.578
20515W        W88909   0.196  26.655   3.696
20516W        W88910  35.860   6.808  11.941
20517W        W88911  39.711  20.119   0.029
20518W        W88912  42.964   9.388  10.380
20519W        W88913  36.573   8.967  14.928
20520W        W88914  36.623  40.539   0.401
20521W        W88915  29.565  38.468   1.635
20522W        W88916  31.398  18.850  11.573
20523W        W88917  26.710  11.209  12.039
20524W        W88918  38.388   3.496  12.871
20525W        W88919   4.820  35.729  14.447
20526W        W88920   8.995  15.263  13.506
20527W        W88921   3.039  22.943  11.661
20528W        W88922  29.479  38.004   1.892
20529W        W88923  34.899  11.003  12.704
20530W        W88924  32.031  32.903  14.305
20531W        W88925  31.963   6.277  12.156
20532W        W88926   4.316   6.859   1.316
20533W        W88927  34.123   2.510   1.036
20534W        W88928   3.949  19.079  11.177
20535W        W88929  15.260   0.409  11.219
20536W        W88930  41.983  39.973   2.937
20537W        W88931  14.183  39.703  13.352
20538W        W88932  24.127  10.352  12.164
20539W        W88933  11.712  17.978  11.583
20540W        W88934  40.999  20.571  14.959
20541W        W88935  19.070  35.915   5.445
20542W        W88936  32.696   7.554   1.647
20543W        W88937  26.100  40.947   4.653
20544W        W88938  10.361  10.258  10.635
20545W        W88939   8.699   5.478  13.544
20546W        W88940  42.722  20.757   2.655
20547W        W88941  33.565  28.729  14.663
20548W        W88942  29.234  15.352   0.883
20549W        W88943  24.467   7.090  11.096
20550W        W88944   0.196   6.359   2.753
20551W        W88945  26.527  15.518   0.841
20552W        W88946  36.836   2.948   4.663
20553W        W88947  24.713  44.866   4.747
20554W        W88948  24.734  30.872   4.399
20555W        W88949  40.932  27.345  11.132
20556W        W88950   2.278  16.143  12.477
20557W        W88951  28.993  19.198  10.895
20558W        W88952  37.588  41.268   4.559
20559W        W88953  20.219  23.810   0.702
20560W        W88954   5.362   2.395  12.072
20561W        W88955  31.865  23.240   1.809
20562W        W88956  27.944  24.631  13.954
20563W        W88957  26.597  28.354  11.504
20564W        W88958  20.633  29.500  12.056
20565W        W88959  30.578  40.061  11.271
20566W        W88960  24.631   5.788   1.036
20567W        W88961   0.471   2.008   0.753
20568W        W88962   3.905  34.142   0.294
20569W        W88963   4.371   3.192  14.855
20570W        W88964  35.042   5.092  10.655
20571W        W88965  21.979  23.027   1.370
20572W        W88966  20.491  19.870  14.472
20573W        W88967  42.277  19.564   2.721
20574W        W88968  36.883   5.848  12.919
20575W        W88969  34.701  25.945   3.167
20576W        W88970  44.512  18.219   0.017
20577W        W88971  10.976  42.428   0.247
20578W        W88972  23.223  19.114   2.437
20579W        W88973  38.853  25.389   1.468
20580W        W88974  35.106   6.948  11.269
20581W        W88975  15.233  40.101  12.965
20582W        W88976  15.799  21.720   2.824
20583W        W88977  43.624   4.504  12.077
20584W        W88978  16.610   9.817   0.850
20585W        W88979  39.760   0.411   3.388
20586W        W88980  23.724   7.314   3.470
20587W        W88981   6.218   4.451   1.914
20588W        W88982  32.528  30.731   2.234
20589W        W88983  40.737   9.320  12.477
20590W        W88984  10.761  10.232   0.893
20591W        W88985   0.319  41.388  11.653
20592W        W88986   4.445  11.875   4.175
20593W        W88987  18.305  27.162   1.448
20594W        W88988  21.308  14.173  13.043
20595W        W88989   5.670   1.929   2.953
20596W        W88990  35.479  13.603   3.227
20597W        W88991  33.174  35.620  13.594
20598W        W88992  31.842  39.226   3.188
20599W        W88993   6.884  25.492   4.120
20600W        W88994  23.801  28.787   3.530
20601W        W88995   4.204   8.493  10.915
20602W        W88996  18.582  34.065  14.413
20603W        W88997  39.526  31.954  11.976
20604W        W88998  28.189  31.053   3.396
20605W        W88999  31.030  24.623   4.740
20606W        W89000  40.360  12.249  10.530
20607W        W89001  23.818  21.170   1.684
20608W        W89002  29.627  31.020   4.075
20609W        W89003   5.729  17.613   2.814
20610W        W89004  14.238  21.711  10.667
20611W        W89005  21.152  26.673   0.781
20612W        W89006   4.811  37.472  13.351
20613W        W89007   3.931  29.281  10.441
20614W        W89008   6.834   8.222  13.772
20615W        W89009  44.436  16.528  14.404
20616W        W89010  29.526  28.415   1.638
20617W        W89011  39.379  39.810   0.768
20618W        W89012  42.958  36.936  13.784
20619W        W89013  11.709  38.930   4.619
20620W        W89014  29.071  25.375  14.165
20621W        W89015  28.656  43.348   4.120
20622W        W89016  43.248  28.253   0.671
20623W        W89017  38.401  21.127   2.180
20624W        W89018  42.822  18.872  11.643
20625W        W89019  21.302   3.937   1.781
20626W        W89020  21.884  24.105   0.344
20627W        W89021   7.534   2.005   0.326
20628W        W89022  14.328  11.191   3.212
20629W        W89023   9.147  27.299   0.003
20630W        W89024  38.232   0.270  10.606
20631W        W89025  32.873  22.090  12.611
20632W        W89026  15.502  17.847   4.604
20633W        W89027  23.607  13.152  12.993
20634W        W89028  16.772  43.752   1.447
20635W        W89029  23.433  38.502  14.309
20636W        W89030   2.724   1.575   0.719
20637W        W89031   3.097  21.051  13.512
20638W        W89032  36.386  11.153   2.740
20639W        W89033  14.967   7.637  11.614
20640W        W89034  44.807  38.896   3.435
20641W        W89035   5.389  18.403   3.131
20642W        W89036  22.516  13.649  10.607
20643W        W89037   8.618  16.188  12.107
20644W        W89038  25.708  20.807   2.370
20645W        W89039  39.660   3.389  11.400
20646W        W89040   0.450  26.912  11.596
20647W        W89041  35.489  24.676   3.154
20648W        W89042   3.615  24.862  13.107
20649W        W89043  35.888  38.868   1.815
20650W        W89044  10.961  15.676  11.013
20651W        W89045   7.824  38.351   2.822
20652W        W89046  27.393  28.157   1.383
20653W        W89047  19.270  11.646   0.408
20654W        W89048  20.067  24.794   5.048
20655W        W89049  18.620   9.050   4.281
20656W        W89050   9.765  25.201  13.849
20657W        W89051  14.616   8.309  12.334
20658W        W89052   6.301  14.027   9.948
20659W        W89053  26.438  40.388  14.482
20660W        W89054  21.939  36.962  14.937
20661W        W89055  37.874   4.439  12.248
20662W        W89056  24.084  13.388  13.003
20663W        W89057  41.034  42.897  11.161
20664W        W89058  29.438  36.735   2.412
20665W        W89059  37.568  20.423  13.908
20666W        W89060  33.065   9.275   0.346
20667W        W89061  23.082  20.693  12.517
20668W        W89062  22.208  44.909   1.697
20669W        W89063  30.602  43.381  13.902
20670W        W89064  21.180  34.417  14.571
20671W        W89065   5.456  21.489   0.864
20672W        W89066  34.344  32.674  14.798
20673W        W89067  14.575  16.076   0.288
20674W        W89068  44.359  41.250   2.921
20675W        W89069  31.872  38.836  12.673
20676W        W89070  17.245  28.095   1.823
20677W        W89071   8.924  30.609   4.550
20678W        W89072  19.127  13.401  11.580
20679W        W89073  11.394  20.612   3.849
20680W        W89074  32.729   3.828  11.529
20681W        W89075  25.067  43.521   3.679
20682W        W89076  23.586   3.502   4.089
20683W        W89077   8.537  28.998   2.307
20684W        W89078  34.747  30.461   5.041
20685W        W89079  40.836  17.671  13.340
20686W        W89080   7.288  30.657   2.622
20687W        W89081  15.660   0.775  13.725
20688W        W89082  19.695  22.243  14.288
20689W        W89083   0.835   7.714   1.956
20690W        W89084  17.852  36.891   2.225
20691W        W89085  30.588  35.017  12.767
20692W        W89086   0.335  34.117   0.311
20693W        W89087   3.514  10.268   0.232
20694W        W89088  14.816  25.118  12.865
20695W        W89089  40.471  13.587  11.207
20696W        W89090  22.764  38.928   2.570
20697W        W89091  19.744  16.694  14.023
20698W        W89092   0.047  25.577  12.505
20699W        W89093  35.853   9.303  11.120
20700W        W89094  14.778   8.740  12.558
20701W        W89095  24.533  28.477   2.407
20702W        W89096   2.838  24.648  12.567
20703W        W89097  17.931   6.261   5.509
20704W        W89098  38.364  33.045   2.398
20705W        W89099   8.953   8.995  14.359
20706W        W89100  40.316  17.737  13.326
20707W        W89101  28.434   9.593   4.424
20708W        W89102  15.971  17.302   2.745
20709W        W89103   8.228  25.282   0.743
20710W        W89104   0.239  40.985  12.972
20711W        W89105  37.675  20.109  10.778
20712W        W89106  38.298  12.595  13.885
20713W        W89107  21.727   2.778   1.726
20714W        W89108  23.022  13.231  12.444
20715W        W89109  21.114  16.599  14.218
20716W        W89110   7.209   9.254  13.387
20717W        W89111  26.959   2.715   0.257
20718W        W89112  35.520  23.826   2.618
20719W        W89113  40.914  18.019  10.563
20720W        W89114  12.550  28.647   1.185
20721W        W89115  35.306  43.361   2.737
20722W        W89116  23.273  21.156  11.098
20723W        W89117  43.915  21.984   3.179
20724W        W89118  10.841  37.026  12.369
20725W        W89119  44.009  37.662  11.526
20726W        W89120  22.433  41.163   2.230
20727W        W89121  43.832  19.321   4.800
20728W        W89122  40.631  24.108   4.635
20729W        W89123  19.826  41.991   0.113
20730W        W89124  19.194  32.628   1.158
20731W        W89125  40.863  21.220   0.701
20732W        W89126  24.513  24.673  11.188
20733W        W89127  13.156   3.155  13.608
20734W        W89128   2.011  20.255  11.047
20735W        W89129  37.152  26.596  13.619
20736W        W89130  33.482  28.021   1.834
20737W        W89131  34.844  29.728  12.529
20738W        W89132  23.742  20.117   3.378
20739W        W89133   0.049   9.952  12.424
20740W        W89134  34.430  44.879  11.626
20741W        W89135  30.542  15.798  13.042
20742W        W89136  30.152   7.666  11.572
20743W        W89137   3.745  14.118  14.319
20744W        W89138   5.224  32.657  12.393
20745W        W89139   2.325   5.679  11.481
20746W        W89140  31.394  11.256  14.969
20747W        W89141  14.606   7.345  10.937
20748W        W89142  35.848   9.701   0.250
20749W        W89143  25.039   7.923   2.210
20750W        W89144   0.528  42.746  14.042
20751W        W89145   8.704   7.782   1.902
20752W        W89146  31.934   6.795   0.401
20753W        W89147  40.385  27.571   2.715
20754W        W89148  34.094   0.334   4.252
20755W        W89149  22.462  33.459  10.269
20756W        W89150  11.244  29.993   1.838
20757W        W89151  23.066   6.152   0.254
20758W        W89152  38.830   2.655  14.342
20759W        W89153  25.479  12.474   1.998
20760W        W89154   8.729  22.763   1.767
20761W        W89155  41.032  35.097   0.374
20762W        W89156  15.437  30.433  12.063
20763W        W89157  14.566  13.297  14.328
20764W        W89158  34.507   4.346  14.920
20765W        W89159  17.285  34.948   0.493
20766W        W89160  21.656  38.061   4.669
20767W        W89161  21.475  20.935  13.382
20768W        W89162   5.981  34.633  13.871
20769W        W89163  32.008  29.440   4.513
20770W        W89164  20.349   9.629  14.659
20771W        W89165  27.869  21.551  13.627
20772W        W89166   2.177  14.049   3.280
20773W        W89167   8.357  37.223   1.013
20774W        W89168  33.111  16.747  10.720
20775W        W89169  21.231  43.002  10.743
20776W        W89170  19.561  32.983  10.602
20777W        W89171  36.422  43.950   2.809
20778W        W89172  23.210  34.681  11.471
20779W        W89173  20.811  30.001  13.027
20780W        W89174   9.719  31.244   4.137
20781W        W89175  24.617  18.523   5.037
20782W        W89176  12.875  23.653   1.486
20783W        W89177  31.370  40.408  12.998
20784W        W89178  34.012  32.575  12.291
20785W        W89179   5.691  30.913   0.045
20786W        W89180   4.296   4.507   1.222
20787W        W89181   8.216  24.108  14.340
20788W        W89182  35.500  37.100   3.646
20789W        W89183  44.711  37.944  11.419
20790W        W89184   3.805   4.674   1.364
20791W        W89185  25.030  34.854   4.599
20792W        W89186  13.187   9.224  11.040
20793W        W89187  16.946  34.635  11.198
20794W        W89188  37.269   6.573   0.265
20795W        W89189  31.960  21.178  13.408
20796W        W89190   3.595  24.227   4.820
20797W        W89191  20.562  17.259  12.497
20798W        W89192   3.868  25.118   9.929
20799W        W89193  19.182  42.789  14.912
20800W        W89194  24.592  28.603   1.118
20801W        W89195  27.639  44.519  14.505
20802W        W89196  39.927  27.645  12.042
20803W        W89197   6.377  30.918   0.702
20804W        W89198  31.311  18.807  14.289
20805W        W89199  42.590  12.332   0.460
20806W        W89200   9.451  11.239   4.496
20807W        W89201  14.572  42.488  13.029
20808W        W89202   1.950  19.094   0.853
20809W        W89203  37.905  10.427   0.183
20810W        W89204  28.740   3.213  12.759
20811W        W89205  11.070  25.178  13.524
20812W        W89206  43.946  36.354  13.832
20813W        W89207   9.265  21.978  11.074
20814W        W89208  15.211   2.225   2.749
20815W        W89209  18.091  11.321   4.723
20816W        W89210  29.595  28.648  13.792
20817W        W89211   2.016  24.804   3.231
20818W        W89212   2.542  21.313  14.949
20819W        W89213   5.234  34.129  11.667
20820W        W89214   6.985  24.444   1.643
20821W        W89215  18.333   8.265   2.108
20822W        W89216   1.344  11.645  12.027
20823W        W89217  12.873  42.972   0.810
20824W        W89218  21.755  31.446   1.032
20825W        W89219  28.218   5.731  10.008
20826W        W89220  22.821  10.875   1.084
20827W        W89221   6.796   9.844   1.693
20828W        W89222  38.619  21.228  11.129
20829W        W89223  16.590   5.234   4.568
20830W        W89224  41.133   2.325  14.449
20831W        W89225  11.076  23.024  14.758
20832W        W89226  39.680  22.881   2.815
20833W        W89227  36.596  37.377  11.994
20834W        W89228  26.908  11.153   2.726
20835W        W89229  32.965  37.160  13.983
20836W        W89230   7.853  30.606   3.309
20837W        W89231  10.689  25.383   0.759
20838W        W89232  41.308  34.626   0.348
20839W        W89233  36.108   7.364  14.703
20840W        W89234   8.798   2.277   0.503
20841W        W89235  18.061   7.773  12.537
20842W        W89236  37.693  36.460   5.201
20843W        W89237  21.038  33.395   1.777
20844W        W89238  43.234  39.847  11.026
20845W        W89239  12.464  43.835  11.422
20846W        W89240   8.429   2.431   1.936
20847W        W89241  19.493  30.959  13.909
20848W        W89242  26.271  42.509   5.394
20849W        W89243  44.556  32.001   2.260
20850W        W89244  24.028  22.838   0.359
20851W        W89245  37.789  31.008  13.866
20852W        W89246  26.649  28.029   4.558
20853W        W89247   0.355  42.369  12.934
20854W        W89248  14.310   9.285   2.161
20855W        W89249  22.214  13.997  11.518
20856W        W89250   0.309  13.040  14.387
20857W        W89251  22.718   4.162  12.402
20858W        W89252  23.017  36.151  12.646
20859W        W89253  41.304  19.956   4.562
20860W        W89254   9.213  42.654   0.069
20861W        W89255   0.749   6.279  10.100
20862W        W89256  25.256  14.387  13.902
20863W        W89257  12.732  24.097   1.249
20864W        W89258   1.580  16.224   3.745
20865W        W89259  30.926  26.169   0.835
20866W        W89260  22.717  11.382   1.770
20867W        W89261   7.869  31.061  10.997
20868W        W89262  38.529   6.836  11.163
20869W        W89263   1.442   6.977  12.444
20870W        W89264  10.235  39.589   3.909
20871W        W89265  19.476  10.870   2.235
20872W        W89266  13.708   3.513  10.404
20873W        W89267  37.809  13.663   0.799
20874W        W89268  27.113  28.106  10.259
20875W        W89269  16.583  10.271   3.560
20876W        W89270  19.367  16.384  12.424
20877W        W89271   5.389  32.536   3.593
20878W        W89272  42.750  20.234  11.737
20879W        W89273  20.911  12.864   3.575
20880W        W89274  40.139  36.787   5.490
20881W        W89275  14.773  22.193  13.969
20882W        W89276  15.352  24.439   1.696
20883W        W89277  29.200   1.748   2.367
20884W        W89278  26.348  28.116   2.039
20885W        W89279   9.713  16.355   4.310
20886W        W89280  43.241  37.102  11.304
20887W        W89281   7.113  16.039   2.276
20888W        W89282   9.355  44.462  12.581
20889W        W89283  15.450  10.327  10.264
20890W        W89284  35.561  37.052  10.790
20891W        W89285   4.704  40.411  10.698
20892W        W89286  10.256  18.624  14.994
20893W        W89287   1.760  42.528   0.399
20894W        W89288  19.652  35.303  13.596
20895W        W89289   8.399   4.375   2.810
20896W        W89290   7.237   6.622   2.450
20897W        W89291  34.674   2.008  11.702
20898W        W89292  26.532  30.717  12.156
20899W        W89293  28.741  13.843  11.723
20900W        W89294  34.007  19.159  14.541
20901W        W89295   1.979  41.710  12.978
20902W        W89296  25.502  34.552   4.349
20903W        W89297  15.385  25.328   4.571
20904W        W89298  29.406  43.895   1.264
20905W        W89299  19.041  35.838   3.283
20906W        W89300  26.017  18.617  14.281
20907W        W89301   3.238   4.302  13.199
20908W        W89302   9.475  14.731   2.942
20909W        W89303  18.182   6.904  13.606
20910W        W89304   8.455  34.893   3.357
20911W        W89305   9.269  41.101   2.759
20912W        W89306  15.739   8.243  12.936
20913W        W89307  28.154   2.477   0.488
20914W        W89308  11.438   4.550  11.219
20915W        W89309   7.126  33.525   0.310
20916W        W89310  43.140  36.451  13.736
20917W        W89311   0.423  21.577   3.180
20918W        W89312  42.572  14.772   4.802
20919W        W89313  25.063  21.192   2.633
20920W        W89314  19.774  14.840  13.347
20921W        W89315   0.984  24.437   3.055
20922W        W89316  43.990   5.412   4.724
20923W        W89317  16.716  35.516   4.625
20924W        W89318  19.832  15.655  12.105
20925W        W89319  31.416  16.441   0.509
20926W        W89320  39.509   0.522  12.818
20927W        W89321  39.454  10.665  13.886
20928W        W89322  38.959  30.536  12.978
20929W        W89323  29.867   6.600  13.067
20930W        W89324  42.886  12.955   3.147
20931W        W89325  13.500   5.736   1.652
20932W        W89326  12.226  15.790   1.412
20933W        W89327  32.336  18.275   2.175
20934W        W89328   6.988  19.130  10.832
20935W        W89329  12.675  35.354  14.426
20936W        W89330  40.543  16.134  10.603
20937W        W89331   2.358  15.258   3.904
20938W        W89332  18.270  26.560  12.862
20939W        W89333  14.584   2.741   4.575
20940W        W89334  12.698  22.614   1.496
20941W        W89335  40.323  36.010  11.158
20942W        W89336  32.461  37.107  11.127
20943W        W89337   8.578  23.820  10.773
20944W        W89338  43.939  41.372  11.642
20945W        W89339  14.638  26.606   2.915
20946W        W89340   1.229  33.823   2.339
20947W        W89341  32.181  14.104   0.948
20948W        W89342  28.661  20.183  13.816
20949W        W89343   9.685  18.651   4.698
20950W        W89344  34.982  17.574  14.327
20951W        W89345  12.346  28.972  14.465
20952W        W89346  43.796  42.095  14.339
20953W        W89347  38.585  39.957  13.465
20954W        W89348  18.275  17.789   0.316
20955W        W89349  16.965   1.949   2.457
20956W        W89350  40.440  36.158  12.987
20957W        W89351  25.301   1.854   1.252
20958W        W89352  31.162  33.559  14.344
20959W        W89353  36.069  18.098   1.892
20960W        W89354  22.292  20.225   1.349
20961W        W89355   8.767  38.041  10.722
20962W        W89356  23.023   1.966  10.430
20963W        W89357  39.680  14.567  13.761
20964W        W89358   9.228  26.893  13.038
20965W        W89359  25.631  26.591  13.052
20966W        W89360  28.173  10.670  12.695
20967W        W89361   4.115  13.175   3.648
20968W        W89362   1.933  26.697   4.652
20969W        W89363   3.336  12.532  11.562
20970W        W89364  34.554  14.680   4.637
20971W        W89365   7.931  38.144   0.419
20972W        W89366  24.970   8.855   1.925
20973W        W89367  24.444  23.980   2.744
20974W        W89368  39.335  20.703  13.037
20975W        W89369   0.461  33.419  12.864
20976W        W89370  41.589   3.296   0.662
20977W        W89371  43.471  21.651   0.712
20978W        W89372  37.440  39.481   3.872
20979W        W89373   9.717  39.518   3.234
20980W        W89374  27.131  41.830  14.051
20981W        W89375  30.986   0.074  11.953
20982W        W89376  36.882   1.973  12.698
20983W        W89377   2.457  42.575   0.786
20984W        W89378   3.904  29.143   0.421
20985W        W89379  21.299  33.381   1.272
20986W        W89380   8.712   4.883  12.202
20987W        W89381   4.059   2.328   0.127
20988W        W89382  32.035  35.359   4.763
20989W        W89383  24.209  25.022   0.446
20990W        W89384  16.461   6.861  12.112
20991W        W89385  25.284   3.264   2.666
20992W        W89386   9.820  44.406   4.860
20993W        W89387   2.690   8.419  11.507
20994W        W89388  25.075  44.355  13.085
20995W        W89389  40.470  43.675   4.357
20996W        W89390  38.359  40.917   3.657
20997W        W89391  21.702  10.725   1.350
20998W        W89392  10.347   9.093   2.275
20999W        W89393   8.843  19.631   1.909
21000W        W89394  16.615  22.737  13.001
21001W        W89395  20.691  16.141  12.664
21002W        W89396  34.978  10.317   1.461
21003W        W89397  23.724  43.873  12.148
21004W        W89398  29.006  44.401  14.107
21005W        W89399  34.437  12.761   0.988
21006W        W89400  27.164  21.028  11.953
21007W        W89401  37.964  44.216   4.149
21008W        W89402   7.907  28.161  11.527
21009W        W89403  37.616  15.695  11.586
21010W        W89404   9.238   0.531   4.209
21011W        W89405  35.610  35.348  12.574
21012W        W89406  36.810  40.978  12.886
21013W        W89407   1.604  27.234   2.859
21014W        W89408   9.101  14.217   2.651
21015W        W89409  16.739  34.383   0.958
21016W        W89410  42.242  42.062  14.722
21017W        W89411  20.166   7.746   0.774
21018W        W89412   9.582   4.881   0.196
21019W        W89413   1.447  36.664   3.198
21020W        W89414  41.552  20.313   3.335
21021W        W89415   4.841  32.341  12.616
21022W        W89416  31.940  35.093   3.432
21023W        W89417   4.405   5.720  13.062
21024W        W89418   4.295  16.663  13.144
21025W        W89419  10.108  36.424  14.377
21026W        W89420  34.583   1.156   4.079
21027W        W89421  34.088  22.201  14.794
21028W        W89422  21.897   1.760  13.712
21029W        W89423  35.250   1.690  10.449
21030W        W89424  18.635   9.431   3.889
21031W        W89425  24.082   3.380  14.442
21032W        W89426   8.746  34.340   0.303
21033W        W89427  42.977  21.158   2.848
21034W        W89428  32.892  34.065  13.416
21035W        W89429  26.488   8.744  11.949
21036W        W89430  14.274  26.026  12.848
21037W        W89431  22.886  41.287  12.943
21038W        W89432  28.143  12.781   2.138
21039W        W89433  36.064   1.435  11.576
21040W        W89434   3.272   4.430   3.664
21041W        W89435   3.459  29.698  12.555
21042W        W89436   7.350   3.537   2.789
21043W        W89437  34.424  18.103  13.673
21044W        W89438  19.253  11.356   3.733
21045W        W89439  43.376   2.033   5.044
21046W        W89440  20.239   9.706  13.315
21047W        W89441   6.874  34.532   4.404
21048W        W89442  37.319  39.950  12.895
21049W        W89443  25.114   3.805  10.746
21050W        W89444  13.688  40.900   0.860
21051W        W89445  32.487  16.157  11.484
21052W        W89446   3.749   8.801  13.766
21053W        W89447  18.208  33.116   2.285
21054W        W89448   8.761  14.242   1.435
21055W        W89449  32.578  17.052   4.783
21056W        W89450  25.941  15.061  14.997
21057W        W89451  20.987  32.163   3.168
21058W        W89452  16.703  18.423  10.654
21059W        W89453  18.990  37.847   4.153
21060W        W89454   5.721  15.417  14.449
21061W        W89455  11.643  20.746  12.118
21062W        W89456  11.338  20.123  11.604
21063W        W89457  16.634  27.904  10.682
21064W        W89458  14.701   6.432  14.931
21065W        W89459   9.690  37.303  10.781
21066W        W89460   9.653  28.104  10.730
21067W        W89461  11.723  19.305  14.981
21068W        W89462  27.893  28.936  13.347
21069W        W89463  40.486  26.437   1.204
21070W        W89464  40.551  42.595   1.415
21071W        W89465  23.814  21.519   2.646
21072W        W89466  14.655   8.031  11.519
21073W        W89467  20.699  31.438  14.879
21074W        W89468  13.148  21.493   1.800
21075W        W89469  19.631  33.692   2.288
21076W        W89470  27.750  16.071  12.189
21077W        W89471  26.085  24.768   2.724
21078W        W89472   2.035  25.988   0.249
21079W        W89473  33.333  40.280   1.652
21080W        W89474  29.619  15.562  13.351
21081W        W89475  43.393  30.733   1.009
21082W        W89476  15.929   3.865  12.037
21083W        W89477  29.866  18.995   4.167
21084W        W89478  44.208  43.439  11.049
21085W        W89479  14.620  34.795  14.930
21086W        W89480  33.005  42.949   2.395
21087W        W89481  33.506  23.473   3.133
21088W        W89482   8.913  26.673   2.284
21089W        W89483  27.972  10.651  11.375
21090W        W89484   0.434   7.751   1.367
21091W        W89485   9.279  35.345  14.783
21092W        W89486  30.469  12.341   0.897
21093W        W89487   1.891  11.947  14.848
21094W        W89488  17.220  14.608   4.691
21095W        W89489  39.640  12.106  12.128
21096W        W89490  33.156   0.483  12.175
21097W        W89491   0.698   9.610   2.879
21098W        W89492  35.795  41.495   4.216
21099W        W89493  24.725  26.991  13.013
21100W        W89494  31.159  30.137  12.665
21101W        W89495  32.383  29.592   0.428
21102W        W89496   7.208   4.783  12.382
21103W        W89497  36.529  39.882  12.428
21104W        W89498  36.071  26.018  12.916
21105W        W89499  44.779  25.022  13.107
21106W        W89500  41.485  13.117  14.633
21107W        W89501  15.170   8.300   5.369
21108W        W89502   4.274  30.713  14.820
21109W        W89503  31.027  29.458   0.422
21110W        W89504  14.716  37.486  12.453
21111W        W89505  17.665   0.518  14.463
21112W        W89506  38.021  40.367   1.834
21113W        W89507  33.392  44.761   0.981
21114W        W89508  41.778  42.700  12.127
21115W        W89509  29.112   6.485   0.354
21116W        W89510  17.944  11.259   1.287
21117W        W89511  14.748  21.046  14.932
21118W        W89512  11.619  11.088  14.311
21119W        W89513  11.050  38.828   3.944
21120W        W89514  25.029  26.282   1.442
21121W        W89515  23.895   9.404   0.508
21122W        W89516  34.849  17.184  12.141
21123W        W89517  19.875   5.213  14.896
21124W        W89518  12.771  30.600   1.519
21125W        W89519  31.141  20.325  14.766
21126W        W89520  13.869  22.728   3.646
21127W        W89521  23.804  26.582   1.852
21128W        W89522  11.307   1.679  11.271
21129W        W89523  11.325  12.317   0.406
21130W        W89524   8.830  39.483   2.778
21131W        W89525  16.560  17.961   1.820
21132W        W89526  26.734  39.978  14.477
21133W        W89527  26.104  10.359  12.092
21134W        W89528  11.898  27.928   0.301
21135W        W89529  36.506  41.869  12.479
21136W        W89530  23.016  23.011   4.321
21137W        W89531   4.939  29.917   4.522
21138W        W89532  21.062  15.865   3.495
21139W        W89533  15.344   6.855   9.950
21140W        W89534  33.151  32.806  14.032
21141W        W89535  18.782   4.369  13.910
21142W        W89536  36.175  44.692   1.456
21143W        W89537  26.146   8.603   3.639
21144W        W89538  11.149   8.139   0.022
21145W        W89539  32.416  29.596   1.445
21146W        W89540   7.462  41.555  14.348
21147W        W89541   5.929  10.301   4.353
21148W        W89542  17.851  35.880   4.575
21149W        W89543  27.704   9.636  12.467
21150W        W89544  36.291  38.615   4.814
21151W        W89545  21.245  27.145  14.845
21152W        W89546  37.390  24.153   2.742
21153W        W89547  36.101  19.773   2.957
21154W        W89548  20.131  44.801   2.312
21155W        W89549  11.179  32.865   2.892
21156W        W89550  41.181   7.948  12.712
21157W        W89551  44.853  40.310   1.359
21158W        W89552   9.111  32.752  10.584
21159W        W89553   7.455  18.176   3.289
21160W        W89554  14.902  42.157   0.519
21161W        W89555  34.099   5.403   4.621
21162W        W89556  37.321   7.250   3.912
21163W        W89557  21.758  38.296   1.280
21164W        W89558  27.010  10.917   0.836
21165W        W89559  18.222   0.285   2.887
21166W        W89560   8.763  40.453   0.050
21167W        W89561  28.682  21.282  11.964
21168W        W89562  30.209  24.185   4.732
21169W        W89563  14.815  41.894  11.088
21170W        W89564  21.692  17.941   3.472
21171W        W89565  18.269  19.969  10.786
21172W        W89566  11.588  21.278   1.501
21173W        W89567  20.434  26.509  14.505
21174W        W89568   9.437  31.075   2.853
21175W        W89569   5.395  15.153   2.703
21176W        W89570  44.184  34.915  13.846
21177W        W89571  36.530  23.965   4.204
21178W        W89572  40.681   9.152  10.431
21179W        W89573  21.224  12.652   1.678
21180W        W89574  19.658  35.425   3.131
21181W        W89575   5.288  30.589  12.386
21182W        W89576  35.089  28.393   2.312
21183W        W89577  33.254  25.403  14.567
21184W        W89578  20.119  27.914  14.841
21185W        W89579  21.627  39.559  11.976
21186W        W89580  36.594  15.754  11.469
21187W        W89581  19.790  10.645   3.280
21188W        W89582  42.613  40.556   1.039
21189W        W89583  40.407  38.392   1.414
21190W        W89584   2.002   5.790  12.980
21191W        W89585   7.264  14.985  13.114
21192W        W89586  44.383  17.606   4.005
21193W        W89587  13.874  21.044  13.452
21194W        W89588  18.563   3.822  11.033
21195W        W89589   1.142  35.966   1.322
21196W        W89590   5.966   3.738  12.850
21197W        W89591  17.602  13.119  11.079
21198W        W89592  26.628  15.627   2.624
21199W        W89593  26.130  33.348   0.242
21200W        W89594   4.524   5.168  14.852
21201W        W89595  21.628   1.363  14.971
21202W        W89596   6.719  29.912  11.431
21203W        W89597   8.939   0.502  12.352
21204W        W89598   2.936  31.052   0.068
21205W        W89599  15.293   5.709  12.486
21206W        W89600  32.413  36.449   1.850
21207W        W89601  26.268  14.225   4.518
21208W        W89602  27.875  35.555  11.966
21209W        W89603  33.410  41.545  10.797
21210W        W89604  37.431   2.392   2.106
21211W        W89605  43.946   2.677   3.118
21212W        W89606  43.363  43.685  12.454
21213W        W89607  19.721  25.947   2.843
21214W        W89608  30.851   8.705   3.379
21215W        W89609  29.755  31.813   4.581
21216W        W89610  29.806   9.463   1.681
21217W        W89611  18.149  39.001   3.895
21218W        W89612   5.602   9.022   5.016
21219W        W89613  29.297   3.856   1.977
21220W        W89614  22.822  14.647  14.899
21221W        W89615   5.659  17.153   0.370
21222W        W89616  26.615  40.543  10.681
21223W        W89617  42.204  25.190  14.315
21224W        W89618   3.307  30.180   0.760
21225W        W89619  34.030  27.029   1.418
21226W        W89620   6.292  17.940   0.393
21227W        W89621  10.626   3.216  13.477
21228W        W89622  33.881   8.227  14.864
21229W        W89623  27.031   2.321  13.958
21230W        W89624  38.436  12.899   2.260
21231W        W89625   9.425  32.887   1.187
21232W        W89626   3.148  12.673  12.402
21233W        W89627  12.528  24.475  14.287
21234W        W89628  17.694   4.300  14.784
21235W        W89629  35.108  23.213   0.937
21236W        W89630  15.591  41.725   4.181
21237W        W89631   0.119  25.127   3.319
21238W        W89632   3.684   3.810  12.097
21239W        W89633  21.703  13.128   3.604
21240W        W89634  28.929  34.853   4.208
21241W        W89635  23.009  41.052  10.779
21242W        W89636  11.310  27.492  13.727
21243W        W89637  12.239  34.453   4.068
21244W        W89638   5.818  17.664  11.381
21245W        W89639  20.040  30.653  11.539
21246W        W89640  12.727  40.296   3.300
21247W        W89641  13.273  19.882   2.801
21248W        W89642  11.358  10.511  13.603
21249W        W89643   4.264  39.858   0.353
21250W        W89644  24.048  40.953  12.658
21251W        W89645  29.915  30.107  13.510
21252W        W89646   6.129  16.660  14.862
21253W        W89647   8.444  43.451  12.866
21254W        W89648  20.302   1.442  14.787
21255W        W89649  15.525   8.786  12.088
21256W        W89650  10.596  34.076  10.904
21257W        W89651  33.652  29.373  12.156
21258W        W89652  18.813  37.951  13.992
21259W        W89653  29.943   1.308   2.824
21260W        W89654  41.437  40.475   2.212
21261W        W89655   0.578  32.345   4.545
21262W        W89656  13.826  21.044   4.222
21263W        W89657   9.729  34.971  11.986
21264W        W89658   5.644   3.161   3.799
21265W        W89659  28.318   9.371   2.364
21266W        W89660  35.514  30.051   3.168
21267W        W89661  22.156  18.035  12.528
21268W        W89662  22.642   1.911   4.183
21269W        W89663   8.978  25.261  10.992
21270W        W89664  35.772  27.159   0.518
21271W        W89665  39.732  32.412   0.497
21272W        W89666  31.516  43.807   4.345
21273W        W89667   3.720  24.685  12.603
21274W        W89668  14.078  22.801   4.172
21275W        W89669  11.060  16.795  14.535
21276W        W89670  39.949  10.761  14.623
21277W        W89671  40.315   9.105   3.711
21278W        W89672  21.691  23.756  11.387
21279W        W89673  38.264   0.641   1.246
21280W        W89674  31.159  28.479   4.913
21281W        W89675  16.182  14.794  13.085
21282W        W89676   4.284  43.850  14.475
21283W        W89677   0.512  29.477   3.728
21284W        W89678  21.578   2.401  14.516
21285W        W89679  16.156  21.467   0.834
21286W        W89680  12.258  12.297   3.697
21287W        W89681   0.756  34.894   1.422
21288W        W89682  10.562  23.686   0.318
21289W        W89683  19.993  35.156   4.087
21290W        W89684  37.869  38.409  14.860
21291W        W89685  19.495  21.809  14.978
21292W        W89686   5.644  40.878   3.683
21293W        W89687  33.400  31.673   1.310
21294W        W89688   7.642  30.095  14.671
21295W        W89689  39.915  40.467   0.929
21296W        W89690  42.773  18.168   0.805
21297W        W89691  25.717  42.944  14.388
21298W        W89692  24.631  15.187   4.677
21299W        W89693  14.265   5.768   3.282
21300W        W89694  21.478  37.477   0.749
21301W        W89695  11.958  28.142  12.344
21302W        W89696  35.401  29.902  11.650
21303W        W89697   5.394  30.336   2.805
21304W        W89698  24.779  40.867  13.134
21305W        W89699  31.512  30.488   0.706
21306W        W89700  37.289  39.682   0.465
21307W        W89701  31.928  24.688  12.764
21308W        W89702  12.093  16.708   0.061
21309W        W89703   3.868  42.817  10.735
21310W        W89704  21.155  40.873  13.059
21311W        W89705  14.959  24.039  11.203
21312W        W89706   0.094  12.105  13.383
21313W        W89707   2.741  24.119   1.729
21314W        W89708  36.508  12.865   4.388
21315W        W89709   0.781  20.093  12.553
21316W        W89710   6.255  17.487   1.380
21317W        W89711   3.425  19.564  13.825
21318W        W89712  29.005  39.117   1.278
21319W        W89713   8.176  21.573  13.369
21320W        W89714  42.778  43.133  12.724
21321W        W89715  17.355  34.858  12.512
21322W        W89716  22.635  30.912   0.313
21323W        W89717  24.055  34.750   4.594
21324W        W89718  13.721  12.670   3.796
21325W        W89719   2.302  26.832   0.270
21326W        W89720  30.085  40.382   2.801
21327W        W89721  30.875   0.882   1.021
21328W        W89722  23.980   7.652  10.716
21329W        W89723  27.638  31.626  14.487
21330W        W89724  42.482   1.963  12.859
21331W        W89725  14.419  42.933   0.054
21332W        W89726   8.267   4.674  13.426
21333W        W89727  43.359  39.472  12.189
21334W        W89728  44.963  22.517   4.618
21335W        W89729  43.126   4.352  10.226
21336W        W89730  19.653   2.919   0.404
21337W        W89731  17.671  15.328   1.731
21338W        W89732  30.328  37.513  11.633
21339W        W89733  18.781  42.233   2.683
21340W        W89734  26.476  19.975  12.458
21341W        W89735   3.895  14.501  11.692
21342W        W89736  27.712  15.895   1.264
21343W        W89737  30.877   1.180  12.445
21344W        W89738  32.559  37.317   1.927
21345W        W89739  37.028   9.462  12.620
21346W        W89740  26.323  37.311  11.549
21347W        W89741   9.094  21.490  10.487
21348W        W89742  26.598  12.326   4.649
21349W        W89743  16.760   8.434   4.497
21350W        W89744  42.127   6.977   1.887
21351W        W89745   8.664  27.014   3.420
21352W        W89746  40.961  36.907   3.338
21353W        W89747  17.122  20.329   0.072
21354W        W89748  21.506  15.658  14.379
21355W        W89749   4.769  32.883  13.486
21356W        W89750   8.685   3.949   1.305
21357W        W89751  26.738  34.956   0.690
21358W        W89752  36.021  25.922  10.842
21359W        W89753  36.433  20.615   1.190
21360W        W89754  19.027  18.882   2.472
21361W        W89755  27.680  31.280   3.356
21362W        W89756  15.704  43.195  11.409
21363W        W89757   8.829   3.943  10.777
21364W        W89758   5.489  25.002   0.811
21365W        W89759  44.938  35.604  14.551
21366W        W89760   7.066  32.951   1.009
21367W        W89761  17.253   4.028   0.904
21368W        W89762  19.593  27.622   4.016
21369W        W89763   9.823  17.275   4.702
21370W        W89764  11.077  10.748   4.181
21371W        W89765  17.644   9.323   3.100
21372W        W89766   1.843  36.553  13.025
21373W        W89767  11.759   8.899  12.663
21374W        W89768  38.642  35.924   5.017
21375W        W89769  20.295   7.639   3.352
21376W        W89770  32.051  16.299   1.482
21377W        W89771  24.878  35.981   3.868
21378W        W89772   5.425  38.044  13.946
21379W        W89773  20.947  31.142  10.536
21380W        W89774  44.513   0.200  11.760
21381W        W89775  16.551   3.815  12.583
21382W        W89776  29.329   9.292   3.467
21383W        W89777  43.667  39.981  10.634
21384W        W89778   0.091  21.127  13.845
21385W        W89779   5.453  21.911  12.891
21386W        W89780  19.102   0.507   2.241
21387W        W89781  25.000  32.057   4.113
21388W        W89782  28.135   1.409   4.675
21389W        W89783   9.888  15.115   1.216
21390W        W89784  10.170  20.581   2.272
21391W        W89785  33.447  36.495  10.608
21392W        W89786  41.713  43.987   0.101
21393W        W89787  13.107  36.007  12.584
21394W        W89788  38.297  32.613  14.979
21395W        W89789  18.174  14.788   2.451
21396W        W89790   3.646  23.706   0.966
21397W        W89791  37.688   0.338   2.821
21398W        W89792  13.682  14.275  13.828
21399W        W89793  34.594  41.571  10.436
21400W        W89794   7.249   6.220   4.618
21401W        W89795  18.478  40.968   4.590
21402W        W89796  21.166  30.166   2.652
21403W        W89797   2.190   1.321   2.868
21404W        W89798   5.437  15.632   1.340
21405W        W89799  37.416  21.631  13.326
21406W        W89800  30.222  16.621   4.189
21407W        W89801  41.936  32.010  12.894
21408W        W89802  19.270  32.545   3.427
21409W        W89803  41.928  22.020   4.814
21410W        W89804  24.529   5.905   3.232
21411W        W89805  18.295   4.363   1.847
21412W        W89806  13.686  10.156  12.227
21413W        W89807  27.594  42.975   0.203
21414W        W89808  37.512  43.773   3.781
21415W        W89809  27.619   6.156   3.421
21416W        W89810   0.395   7.918   4.924
21417W        W89811  44.674  26.742   3.562
21418W        W89812  20.577   7.976   4.153
21419W        W89813   9.998  35.056  12.597
21420W        W89814  43.914  44.763  13.795
21421W        W89815  34.150  20.120  14.915
21422W        W89816  31.715   8.401   0.457
21423W        W89817  33.944  32.842   3.289
21424W        W89818  14.158  19.740   0.884
21425W        W89819  23.017  38.035  11.517
21426W        W89820  12.365  23.057   3.451
21427W        W89821  14.664  17.698  12.692
21428W        W89822   4.790  43.938   4.009
21429W        W89823  40.765  15.579  13.450
21430W        W89824  36.613  38.506  12.356
21431W        W89825  35.506  24.226  10.691
21432W        W89826  44.606  31.557  13.905
21433W        W89827  41.893  12.362   3.149
21434W        W89828  33.593  32.478   3.709
21435W        W89829  30.940  17.082   2.405
21436W        W89830  23.618  44.387   4.970
21437W        W89831   6.249  21.313   2.705
21438W        W89832  20.136  15.123   1.701
21439W        W89833   4.249  10.017  11.011
21440W        W89834  32.609  44.994   1.408
21441W        W89835  32.728  21.471   0.297
21442W        W89836   7.777  18.107  10.839
21443W        W89837   0.264  13.772   2.715
21444W        W89838  40.680   6.840  13.846
21445W        W89839  28.682   4.237   1.190
21446W        W89840   4.970  13.221   1.655
21447W        W89841  34.075  18.673  12.077
21448W        W89842  19.802   6.662  12.477
21449W        W89843   2.544  11.305  13.134
21450W        W89844  10.602  30.684  14.407
21451W        W89845  10.694  24.245  14.688
21452W        W89846  20.949  28.715   0.833
21453W        W89847  34.607  42.548  14.557
21454W        W89848  14.200  12.525  10.645
21455W        W89849  31.436  23.893  11.899
21456W        W89850   4.545  29.623  13.875
21457W        W89851   4.784  16.555  14.380
21458W        W89852   8.248  39.273  12.631
21459W        W89853  19.597  23.726   0.348
21460W        W89854  36.678  29.908  14.318
21461W        W89855  31.960  29.404   3.135
21462W        W89856  16.266  19.040  12.907
21463W        W89857  14.993  27.369   2.455
21464W        W89858  20.315  36.878   3.620
21465W        W89859  40.095  18.827  13.333
21466W        W89860  13.630  43.549   2.404
21467W        W89861  17.246  17.209   2.250
21468W        W89862   8.687  28.953  13.346
21469W        W89863  12.661   1.906  11.241
21470W        W89864  36.988   2.834  13.164
21471W        W89865  38.524  24.140  11.833
21472W        W89866  42.549   3.933   2.238
21473W        W89867  25.735  34.949  14.948
21474W        W89868  22.173  37.088  12.820
21475W        W89869  44.948  30.353   3.698
21476W        W89870  44.675  20.314   3.188
21477W        W89871   8.349  23.156  10.449
21478W        W89872   6.192  32.902  13.376
21479W        W89873  42.472  30.333   0.022
21480W        W89874   8.419  23.687  14.110
21481W        W89875  15.532  15.063  12.202
21482W        W89876  20.861  38.718   1.387
21483W        W89877  10.918  39.695  12.666
21484W        W89878  21.740  36.713  12.032
21485W        W89879  32.773   6.699   0.488
21486W        W89880  23.569  18.687   3.701
21487W        W89881  26.152  10.888  13.872
21488W        W89882  15.406  33.531  11.226
21489W        W89883  26.748   6.827   1.202
21490W        W89884  12.917   7.915   1.225
21491W        W89885  14.387  17.334  12.436
21492W        W89886   3.274   9.295   2.609
21493W        W89887  32.586  26.611  14.966
21494W        W89888  16.523  28.575   2.244
21495W        W89889  21.677  15.696   2.786
21496W        W89890   1.678  24.589   4.665
21497W        W89891  42.757  42.662   4.620
21498W        W89892  11.934  36.960   1.283
21499W        W89893   8.484  10.364  12.913
21500W        W89894  24.018  27.944   2.716
21501W        W89895  14.511  26.554   5.049
21502W        W89896  20.594  20.990   3.256
21503W        W89897  36.646  43.204  13.008
21504W        W89898  28.706   7.250   2.258
21505W        W89899  43.053   1.402  11.219
21506W        W89900  17.016   4.874   0.015
21507W        W89901  39.962  32.003   4.099
21508W        W89902   2.419  38.796  11.139
21509W        W89903  23.707  40.336  11.603
21510W        W89904  29.243  26.690   1.436
21511W        W89905  15.638  20.528  13.105
21512W        W89906  44.346  37.669  13.758
21513W        W89907  41.370  27.573  11.945
21514W        W89908   4.916  18.400  13.919
21515W        W89909  14.776  24.801   0.944
21516W        W89910  41.293  38.111   4.180
21517W        W89911  29.500  19.126   1.836
21518W        W89912   8.854  31.833   3.195
21519W        W89913   4.403  25.967   9.746
21520W        W89914  39.490  10.115   1.707
21521W        W89915  38.736  38.274   0.036
21522W        W89916  14.227   3.269   2.432
21523W        W89917  15.309   5.788   1.229
21524W        W89918  44.910  33.517   1.420
21525W        W89919  27.848   6.567  14.445
21526W        W89920  41.078   8.484   3.611
21527W        W89921  38.607  37.864   2.269
21528W        W89922  44.707   9.857   4.168
21529W        W89923  27.137  37.477  12.497
21530W        W89924  28.767  35.112  14.734
21531W        W89925  25.010  31.395  12.111
21532W        W89926  22.933  18.224   0.211
21533W        W89927   3.541  37.967   2.298
21534W        W89928  22.051   9.958   5.060
21535W        W89929   2.757  43.504   3.679
21536W        W89930  13.057  42.905   3.650
21537W        W89931  17.087  14.620  11.110
21538W        W89932  22.470  14.311  11.163
21539W        W89933  21.259  19.766   0.819
21540W        W89934  38.635   1.955  12.070
21541W        W89935  43.239  42.465  11.215
21542W        W89936   8.452  35.956   3.193
21543W        W89937   8.490  24.591   1.892
21544W        W89938  41.889   7.894   4.391
21545W        W89939   9.835  33.675   3.338
21546W        W89940  14.054  22.483  12.959
21547W        W89941  23.260   5.691   2.962
21548W        W89942  21.699  32.323   0.963
21549W        W89943  22.505  17.693   4.235
21550W        W89944  32.981  32.117   4.635
21551W        W89945  17.769  22.045   0.741
21552W        W89946  29.100  19.296   4.871
21553W        W89947  23.985  44.465  10.412
21554W        W89948  35.574  15.264   3.124
21555W        W89949   9.185  43.006   2.820
21556W        W89950   1.849  27.963  11.537
21557W        W89951  22.173   2.041   2.323
21558W        W89952  44.128   2.704   0.247
21559W        W89953  36.572   3.258   3.216
21560W        W89954  15.270  20.062   2.407
21561W        W89955  16.540  18.207   3.313
21562W        W89956   5.452  12.896   2.369
21563W        W89957  22.507  25.290   0.892
21564W        W89958   6.232   6.808  14.799
21565W        W89959   8.560  38.294  14.531
21566W        W89960   7.433  20.741  13.838
21567W        W89961   4.369  41.149   1.940
21568W        W89962  17.254  31.235  13.283
21569W        W89963   0.934  15.414   3.449
21570W        W89964  37.858  44.846  10.599
21571W        W89965  42.813  24.405  14.808
21572W        W89966  19.609  22.819   3.815
21573W        W89967  26.520   1.941   4.042
21574W        W89968   5.817   3.383  13.768
21575W        W89969  38.075   6.749   4.407
21576W        W89970  38.709   4.106  12.099
21577W        W89971  35.995  10.428   3.256
21578W        W89972  32.894  14.294  11.605
21579W        W89973  12.831  13.784   0.750
21580W        W89974   7.144  18.084  12.858
21581W        W89975  26.439  42.201  14.577
21582W        W89976   6.763  17.476   3.592
21583W        W89977  15.625   3.394   2.707
21584W        W89978  16.700   5.714  12.488
21585W        W89979  14.543  18.122  13.406
21586W        W89980  36.611   2.218   9.931
21587W        W89981  13.540  27.949   4.153
21588W        W89982  34.044  30.126  13.296
21589W        W89983  38.236  32.046  11.088
21590W        W89984  35.152   9.316   4.814
21591W        W89985  17.633  10.275   9.964
21592W        W89986  20.604  34.625   0.745
21593W        W89987  36.545   8.169   2.756
21594W        W89988   1.323  36.274   2.267
21595W        W89989  19.005  23.034  13.385
21596W        W89990  42.567  37.310   1.299
21597W        W89991  27.868  30.511  12.656
21598W        W89992  24.442  11.166  12.535
21599W        W89993  36.046  35.086   1.480
21600W        W89994  18.529  28.201  11.988
21601W        W89995  21.672  28.509  10.255
21602W        W89996  33.508  30.586   0.507
21603W        W89997   9.290  18.379  14.900
21604W        W89998  15.552  43.992  14.321
21605W        W89999  32.853  18.258  10.733
21606W        W90000  12.270  19.979   0.394
21607W        W90001  17.185  41.005   3.711
21608W        W90002  11.343  14.645   0.854
21609W        W90003  27.691   4.962  12.527
21610W        W90004   6.278  35.534   3.336
21611W        W90005  34.939  36.674   2.121
21612W        W90006   5.282  37.244   0.698
21613W        W90007   3.246  42.047  11.575
21614W        W90008  36.668  18.238  10.661
21615W        W90009  25.706  14.833  10.604
21616W        W90010  21.546  26.462   5.378
21617W        W90011  19.670   7.613   4.160
21618W        W90012  11.297  44.473  11.782
21619W        W90013  15.779  41.658   3.268
21620W        W90014  44.441  24.033   5.008
21621W        W90015  15.552  17.652  14.449
21622W        W90016  16.377   0.963  13.011
21623W        W90017  36.376   1.325   4.149
21624W        W90018  23.138   7.850   3.369
21625W        W90019  40.309  29.345   0.037
21626W        W90020  33.151   1.383   2.729
21627W        W90021  21.447  33.500  11.081
21628W        W90022  34.456  11.667  10.478
21629W        W90023   5.968  42.233   0.817
21630W        W90024  30.972   6.719   2.270
21631W        W90025  19.125  41.719  11.598
21632W        W90026  41.564  30.642  11.586
21633W        W90027  17.709   1.416   1.235
21634W        W90028   8.661  38.900  12.596
21635W        W90029  20.667  23.527  13.827
21636W        W90030   5.427  37.643   0.255
21637W        W90031  14.707   6.120   4.140
21638W        W90032  16.645   8.632  10.664
21639W        W90033  43.721  13.518  12.758
21640W        W90034  37.011  17.735   4.723
21641W        W90035   5.230  37.037  14.710
21642W        W90036  16.057  20.450   3.846
21643W        W90037  40.385  31.425  14.927
21644W        W90038  18.249  10.014  13.360
21645W        W90039  24.179  21.730  14.517
21646W        W90040  14.793  32.411  12.954
21647W        W90041  33.450  22.574  12.521
21648W        W90042  33.554   9.247   1.791
21649W        W90043  14.748   6.924   3.023
21650W        W90044  34.457  19.242   2.151
21651W        W90045  28.052  18.759   1.957
21652W        W90046  28.514  43.090  10.621
21653W        W90047  31.817  25.949  14.884
21654W        W90048   6.106  17.141   1.756
21655W        W90049  38.068   5.800  11.334
21656W        W90050  44.338   9.853   1.484
21657W        W90051  40.024  42.021   2.768
21658W        W90052  42.413  30.952   2.273
21659W        W90053  33.200  16.155  13.806
21660W        W90054  11.779  14.732   3.296
21661W        W90055  37.971  38.305  11.145
21662W        W90056  27.172  35.618   0.965
21663W        W90057  40.356  12.138   2.325
21664W        W90058   7.330  18.963   2.184
21665W        W90059  24.748  30.382   4.100
21666W        W90060  28.138  38.100  14.348
21667W        W90061  43.308  43.792  11.580
21668W        W90062   2.673  27.686   3.781
21669W        W90063  30.376  17.736  12.273
21670W        W90064  16.548  21.572  12.686
21671W        W90065   9.792  12.927   3.375
21672W        W90066   7.474  36.022   0.997
21673W        W90067   7.978   8.854   4.723
21674W        W90068  22.346   0.010  11.521
21675W        W90069  20.854   7.820   1.028
21676W        W90070  30.056   5.197   2.450
21677W        W90071  14.085  23.007  12.988
21678W        W90072   7.807  17.102  13.579
21679W        W90073  40.533  22.006   2.345
21680W        W90074  18.147  11.097   0.408
21681W        W90075  42.366  12.164   2.297
21682W        W90076   5.833  26.846  14.194
21683W        W90077   3.117   3.797  14.658
21684W        W90078  41.054  18.751   0.680
21685W        W90079  23.028  23.575   0.935
21686W        W90080   7.714   8.640   3.727
21687W        W90081   8.126  42.847  12.206
21688W        W90082  33.117  41.829  13.397
21689W        W90083  32.612  12.199   1.332
21690W        W90084  38.436  39.233   0.809
21691W        W90085  10.336   6.214  11.120
21692W        W90086  18.607  21.017   4.569
21693W        W90087  18.251  33.677  13.605
21694W        W90088  16.186  20.772   2.882
21695W        W90089  40.546   6.982   4.277
21696W        W90090  29.760   0.735   1.336
21697W        W90091  14.638  18.477   1.221
21698W        W90092  11.806   6.507  10.259
21699W        W90093  26.378   8.872   3.210
21700W        W90094  33.446  13.676   5.060
21701W        W90095   8.488  31.448   3.282
21702W        W90096  36.875  38.761  14.516
21703W        W90097  33.743  33.848   3.332
21704W        W90098  35.947  25.452   0.975
21705W        W90099  16.671  44.768   2.601
21706W        W90100  35.593  14.249   3.624
21707W        W90101  42.331  40.326  14.412
21708W        W90102  19.241   2.962  14.796
21709W        W90103  39.252   0.970   1.385
21710W        W90104  20.057  11.575  11.990
21711W        W90105  32.907  27.288   2.834
21712W        W90106  40.364  38.320  11.175
21713W        W90107  40.506  13.197  14.992
21714W        W90108  33.859  28.969  12.421
21715W        W90109  12.517   9.168   3.820
21716W        W90110   1.881  39.614  11.835
21717W        W90111  40.452  10.871  11.739
21718W        W90112  43.639  29.662  14.925
21719W        W90113  23.305   1.197  13.766
21720W        W90114  27.414  12.393  11.527
21721W        W90115  38.158  27.457  13.908
21722W        W90116  15.591   8.417   1.282
21723W        W90117  35.783  17.979   4.306
21724W        W90118  13.749   1.757   4.088
21725W        W90119  14.785   5.029   0.747
21726W        W90120  14.653  27.110   3.362
21727W        W90121  41.295  42.887   0.381
21728W        W90122  21.633  40.085   3.907
21729W        W90123  17.334   5.818   4.999
21730W        W90124  33.445  33.605  12.881
21731W        W90125  28.227   3.382  11.157
21732W        W90126   9.373  19.539   1.910
21733W        W90127   0.526   6.323   3.709
21734W        W90128   0.807  35.342  14.747
21735W        W90129  33.347  17.912   2.261
21736W        W90130  21.257  27.677   2.608
21737W        W90131  32.300  13.811   0.380
21738W        W90132   5.083   8.951  11.022
21739W        W90133   6.772   7.141  11.697
21740W        W90134  14.093   9.392  14.312
21741W        W90135  12.834  30.676  14.898
21742W        W90136  39.314  23.966   3.218
21743W        W90137  29.077  18.153   1.848
21744W        W90138  36.463  44.312   2.383
21745W        W90139  36.101  37.202   2.377
21746W        W90140  27.672  37.625   1.375
21747W        W90141  10.049  40.809   4.932
21748W        W90142  43.344  28.447  12.865
21749W        W90143  31.340  11.427   2.927
21750W        W90144  26.876   8.232   3.817
21751W        W90145  42.100   1.929  13.830
21752W        W90146   6.822  40.042  12.858
21753W        W90147  35.802  39.296  14.374
21754W        W90148   7.124  33.496   3.694
21755W        W90149  38.653  20.013   3.708
21756W        W90150  26.606   3.671   3.264
21757W        W90151  12.041  23.588   2.181
21758W        W90152  21.529  18.528   4.612
21759W        W90153  44.955   1.745   4.262
21760W        W90154  36.053  26.561  11.219
21761W        W90155   5.371   6.218   2.822
21762W        W90156  39.182   7.921   1.777
21763W        W90157  21.039  18.506   1.390
21764W        W90158  30.683  24.587  14.482
21765W        W90159  15.131   9.346   4.464
21766W        W90160  38.875  21.272  13.097
21767W        W90161  23.262  11.719  13.440
21768W        W90162  41.251  16.605   2.685
21769W        W90163  32.391  30.604  12.521
21770W        W90164  27.677  20.353  12.899
21771W        W90165  24.812  30.422  11.848
21772W        W90166  34.617  39.934  10.681
21773W        W90167  22.107  26.521   2.736
21774W        W90168  26.256  20.809  14.020
21775W        W90169  32.349  23.444   1.859
21776W        W90170  27.926   0.254  13.391
21777W        W90171  41.409   7.036   0.886
21778W        W90172   7.241   6.453  11.109
21779W        W90173  37.587  22.953  12.201
21780W        W90174  40.016  40.867   1.921
21781W        W90175  26.341  13.991  12.500
21782W        W90176  22.799  32.862  12.820
21783W        W90177  21.276   6.638  13.769
21784W        W90178  26.122   6.236  14.261
21785W        W90179  43.411  36.954  12.834
21786W        W90180  33.859  27.009  13.741
21787W        W90181  18.281  36.019  13.861
21788W        W90182  12.750   8.195  13.848
21789W        W90183  17.055  20.456   9.677
21790W        W90184  34.321  42.344   4.167
21791W        W90185  33.241  10.592  12.005
21792W        W90186  30.579   3.420  11.791
21793W        W90187  38.589  38.642  12.947
21794W        W90188  21.210  26.267   2.835
21795W        W90189  40.104  25.075   0.252
21796W        W90190  32.099  37.074  13.996
21797W        W90191  31.438  15.378  11.623
21798W        W90192  25.642   9.955  11.095
21799W        W90193  15.053  34.159  12.020
21800W        W90194  42.036   5.708   2.177
21801W        W90195  10.354  36.921  14.391
21802W        W90196   9.607  20.984  14.574
21803W        W90197  15.178  29.979   4.363
21804W        W90198  35.997  35.328   1.952
21805W        W90199  39.272  25.672   4.409
21806W        W90200  26.430   9.662  10.597
21807W        W90201  12.834  39.511   3.675
21808W        W90202  20.783   9.780  11.169
21809W        W90203  22.011  10.838  13.316
21810W        W90204  29.479  14.565  11.591
21811W        W90205  41.947  12.624   2.609
21812W        W90206  37.053  16.891  13.220
21813W        W90207  40.802  25.308   3.094
21814W        W90208  29.323  39.022  12.129
21815W        W90209  14.746   3.419   2.261
21816W        W90210   4.352  44.072   0.962
21817W        W90211   9.722  29.482   3.752
21818W        W90212  18.206   6.355   4.927
21819W        W90213  44.859  20.655  11.916
21820W        W90214  18.203  23.820  10.708
21821W        W90215  19.029  22.707  11.970
21822W        W90216   2.694  12.523   2.788
21823W        W90217  19.042  32.773   3.836
21824W        W90218  15.986  40.882  14.417
21825W        W90219  40.018  33.531  12.988
21826W        W90220  20.316  41.405  12.862
21827W        W90221   9.873   4.883  13.967
21828W        W90222  13.341  29.877   0.650
21829W        W90223  35.231  25.515  13.880
21830W        W90224  30.228   3.434   2.278
21831W        W90225  29.345  42.595   0.066
21832W        W90226  32.613  24.076  11.694
21833W        W90227  29.075  36.376   2.558
21834W        W90228  27.210  43.919  11.050
21835W        W90229   3.313  24.911   2.777
21836W        W90230  33.953   1.703  14.066
21837W        W90231  19.778   3.285   4.696
21838W        W90232  41.803   4.355  10.702
21839W        W90233  33.326  32.203   5.037
21840W        W90234   8.125   9.242  13.358
21841W        W90235  21.465  17.524  14.417
21842W        W90236  10.136  34.209  12.069
21843W        W90237   6.269  24.285  13.420
21844W        W90238   9.325  39.879   3.123
21845W        W90239  31.144  22.526  14.115
21846W        W90240  36.555   9.787   3.118
21847W        W90241  35.821   1.839   4.528
21848W        W90242  22.206  36.013  13.930
21849W        W90243  28.028  41.422   4.733
21850W        W90244  20.705  20.867  12.066
21851W        W90245  25.732  25.710   1.948
21852W        W90246  39.032  14.412  10.582
21853W        W90247  38.697  23.817   3.433
21854W        W90248   9.307   0.836  12.374
21855W        W90249  29.332  44.841  14.890
21856W        W90250  18.582  13.322   0.744
21857W        W90251   5.883  26.021   2.799
21858W        W90252  25.243   4.023  11.196
21859W        W90253  28.035   5.888  13.878
21860W        W90254   5.776  12.287  14.830
21861W        W90255  11.861   3.836   4.248
21862W        W90256  24.986   3.323  14.962
21863W        W90257  37.837  33.439   5.085
21864W        W90258  26.326  34.544   0.475
21865W        W90259  33.100  37.098  10.648
21866W        W90260  22.916  39.572  12.424
21867W        W90261  17.129   9.324   2.847
21868W        W90262  19.893  26.111   2.387
21869W        W90263   0.948  23.700  10.699
21870W        W90264  24.269  35.541  14.469
21871W        W90265  13.408  10.274  14.500
21872W        W90266  17.336  14.843  14.714
21873W        W90267  17.333  20.188   3.250
21874W        W90268  32.178   4.400  13.627
21875W        W90269   7.143  44.315   2.864
21876W        W90270  35.991  16.759   3.274
21877W        W90271  19.030  37.215  13.066
21878W        W90272  10.217  41.673   3.700
21879W        W90273  37.886  13.126  11.191
21880W        W90274  31.006  16.124   0.488
21881W        W90275   7.234  22.962  14.281
21882W        W90276  17.607  13.930  14.445
21883W        W90277  22.578   6.396  10.436
21884W        W90278   8.582   5.800   2.649
21885W        W90279   7.882  21.743  12.065
21886W        W90280   5.452   5.260  13.900
21887W        W90281   2.352  34.571  13.288
21888W        W90282   3.310  32.532   2.124
21889W        W90283   6.334  28.514  13.863
21890W        W90284  28.691  43.566   4.905
21891W        W90285  32.488  20.497  14.455
21892W        W90286  29.371  28.638   0.154
21893W        W90287  15.630  22.956   0.521
21894W        W90288  19.825  26.007  10.276
21895W        W90289  43.423  18.694  13.374
21896W        W90290  39.838  42.032  13.915
21897W        W90291   4.436   4.474   5.177
21898W        W90292  23.096  27.037  14.032
21899W        W90293  34.406  18.090   3.653
21900W        W90294  19.529  25.733  13.870
21901W        W90295  20.066  21.152   0.303
21902W        W90296  40.284  42.288  12.129
21903W        W90297  25.184   6.366   4.522
21904W        W90298  11.901   8.920   0.042
21905W        W90299  43.946  10.419   4.857
21906W        W90300  16.786  18.153  12.002
21907W        W90301  13.857  22.765  10.543
21908W        W90302  17.795  26.410  11.655
21909W        W90303  40.931  22.996  12.547
21910W        W90304   0.191  25.199  12.206
21911W        W90305   2.441  17.606  11.447
21912W        W90306  28.062  38.362  10.653
21913W        W90307  24.081  22.061   1.688
21914W        W90308  26.255  28.948   2.783
21915W        W90309  40.491   7.690   2.317
21916W        W90310  16.321   1.776  11.446
21917W        W90311   6.159   0.701   3.737
21918W        W90312  30.688   6.031   9.708
21919W        W90313  14.385  17.320   4.141
21920W        W90314   4.774   7.285   2.966
21921W        W90315  39.044  22.114  12.960
21922W        W90316  42.835  32.599  14.972
21923W        W90317  27.631  17.614   1.234
21924W        W90318   0.709  39.121   3.100
21925W        W90319   0.829  12.901  13.516
21926W        W90320  19.277  40.725  11.666
21927W        W90321  28.151  30.033   0.129
21928W        W90322  42.598  12.927   4.899
21929W        W90323  16.673   5.957   1.768
21930W        W90324   9.685  40.538   1.895
21931W        W90325  37.042  32.745   1.256
21932W        W90326  28.444   6.440  10.895
21933W        W90327  17.188  32.613   3.807
21934W        W90328  40.412  16.073   4.413
21935W        W90329   3.050   7.982  12.451
21936W        W90330  21.013   8.198   4.335
21937W        W90331  28.637  16.191  11.683
21938W        W90332   8.080  33.937   1.332
21939W        W90333   5.060   1.155  13.473
21940W        W90334  14.664   7.904   1.732
21941W        W90335  13.262   2.328   0.338
21942W        W90336  19.652  35.349   5.031
21943W        W90337  33.564  18.572   3.562
21944W        W90338  29.628  17.066   0.953
21945W        W90339  21.580  18.313   0.801
21946W        W90340  34.114  29.120  14.581
21947W        W90341   8.888  33.698   3.173
21948W        W90342  17.503  19.275   4.984
21949W        W90343  16.169  33.367  11.860
21950W        W90344   1.456   8.863   2.622
21951W        W90345  41.500  10.604  11.477
21952W        W90346  41.516  17.563   2.717
21953W        W90347  19.052  12.096  12.917
21954W        W90348  24.136  18.072   2.745
21955W        W90349  38.931  31.479   0.820
21956W        W90350  20.429   4.735  11.415
21957W        W90351  14.575  44.339   2.742
21958W        W90352  38.251  37.106   2.864
21959W        W90353   7.790  39.670  10.312
21960W        W90354  30.364  22.133   4.833
21961W        W90355  18.787  40.353  10.610
21962W        W90356  13.962  35.874  14.420
21963W        W90357  39.523  29.962   1.294
21964W        W90358   6.424   9.103  14.491
21965W        W90359  21.505  42.039   0.866
21966W        W90360  27.025  14.434  12.502
21967W        W90361  35.995   6.647  14.170
21968W        W90362   4.428   0.000   2.572
21969W        W90363  24.615   8.868  10.446
21970W        W90364  28.574  24.626  14.747
21971W        W90365   0.486  44.877  14.744
21972W        W90366  33.410  36.469  10.032
21973W        W90367  11.856   5.220   0.003
21974W        W90368   2.667  33.371  11.770
21975W        W90369  37.508   9.296  11.609
21976W        W90370  31.148  35.975   2.396
21977W        W90371  44.493  25.015   4.591
21978W        W90372  42.706  20.896  11.522
21979W        W90373   7.548   9.045   4.027
21980W        W90374  32.547  13.850   4.757
21981W        W90375  40.260  21.209  11.150
21982W        W90376   8.205   4.024  12.138
21983W        W90377  20.336   2.372   3.240
21984W        W90378  42.407  24.702  14.155
21985W        W90379  15.293   4.306   4.133
21986W        W90380  24.876  29.954  12.436
21987W        W90381  23.106   0.615   1.871
21988W        W90382  24.469   4.798  14.351
21989W        W90383  30.176  33.070   2.837
21990W        W90384  39.813  35.872  12.472
21991W        W90385   6.121   7.229  13.096
21992W        W90386   1.460  36.607   1.778
21993W        W90387  22.274  30.641   0.905
21994W        W90388  16.036  41.448   4.222
21995W        W90389   7.903  43.816  14.386
21996W        W90390   3.515  13.352  12.672
21997W        W90391  26.528  26.017  14.029
21998W        W90392  11.294   2.656   2.055
21999W        W90393  37.870  42.915  11.822
22000W        W90394  37.499  34.818  10.575
22001W        W90395  13.616   6.310   2.818
22002W        W90396  14.253  30.532   1.923
22003W        W90397  25.112  36.385   4.570
22004W        W90398   9.941  10.996  13.110
22005W        W90399  14.641  34.527  13.576
22006W        W90400  12.650  17.554  12.829
22007W        W90401   4.718   2.138   4.579
22008W        W90402  12.850  16.167  11.524
22009W        W90403  35.324  36.399  13.611
22010W        W90404  24.186  28.270  12.964
22011W        W90405  13.589   6.773  12.121
22012W        W90406  40.795  37.871  14.774
22013W        W90407   3.684  10.715  13.870
22014W        W90408  21.532  10.438  12.502
22015W        W90409  39.608  41.459  13.101
22016W        W90410  21.462  42.878  11.194
22017W        W90411   1.233  10.351  12.909
22018W        W90412  37.048  38.490  12.072
22019W        W90413  40.123  16.006  14.494
22020W        W90414  41.907   2.452  13.839
22021W        W90415  30.530   4.161   0.774
22022W        W90416   1.929  42.322  11.407
22023W        W90417   5.383  43.366   0.918
22024W        W90418  12.558   4.223   3.296
22025W        W90419  18.575  40.321  14.841
22026W        W90420   9.649   3.670   2.843
22027W        W90421  31.604  19.760  14.246
22028W        W90422  36.307  39.261   2.926
22029W        W90423  32.087  19.854   2.268
22030W        W90424  35.044  20.638  14.121
22031W        W90425  31.075   6.939   0.869
22032W        W90426  33.428   8.635  10.248
22033W        W90427  24.160  12.675  12.586
22034W        W90428  27.070  14.098   5.056
22035W        W90429  26.585  10.399  13.390
22036W        W90430  30.628   0.446   3.309
22037W        W90431  13.252   6.145   1.890
22038W        W90432  28.924  40.953   3.412
22039W        W90433  37.568  38.654  12.962
22040W        W90434  31.155  38.638   1.423
22041W        W90435   0.832  21.650  12.964
22042W        W90436  43.101  25.702   0.598
22043W        W90437  38.199  16.574   1.185
22044W        W90438  20.617   3.129   3.186
22045W        W90439  37.047  40.993  12.417
22046W        W90440   6.536  28.258   1.068
22047W        W90441   7.208  35.398   1.438
22048W        W90442  35.633  27.598  13.715
22049W        W90443  10.899  24.109   4.213
22050W        W90444   4.040   4.775  11.552
22051W        W90445  26.572  27.341  11.414
22052W        W90446  24.930  20.502  11.163
22053W        W90447   2.252  35.704  11.642
22054W        W90448  34.828  25.997   1.177
22055W        W90449   3.924  13.165  12.905
22056W        W90450  26.032  41.021  14.694
22057W        W90451   9.565  10.411   4.253
22058W        W90452  41.046  24.681  13.674
22059W        W90453  13.205  17.201   1.404
22060W        W90454  19.556   8.945  10.750
22061W        W90455  34.314  44.014  14.481
22062W        W90456  41.923   7.826  14.315
22063W        W90457  36.659  19.890   3.632
22064W        W90458   6.278  38.612   0.422
22065W        W90459   4.671  28.985   2.785
22066W        W90460  36.275   6.504  10.768
22067W        W90461  15.140  10.727  10.734
22068W        W90462  43.983  40.215  12.219
22069W        W90463   4.894  22.991   0.092
22070W        W90464  34.843  41.344   3.525
22071W        W90465  21.373  17.078   3.618
22072W        W90466  13.625  13.289   2.615
22073W        W90467   0.654  38.554  13.410
22074W        W90468  31.895   7.427  13.017
22075W        W90469  23.012  18.712  14.461
22076W        W90470  41.229   1.140   2.619
22077W        W90471   3.685   8.555  12.889
22078W        W90472  11.141  34.160  12.376
22079W        W90473  44.729   3.661   4.112
22080W        W90474   0.781  25.880  12.948
22081W        W90475  28.936  23.688   0.909
22082W        W90476  44.000  14.703   1.722
22083W        W90477  42.882  17.062   4.629
22084W        W90478  21.662  28.116  12.268
22085W        W90479  39.560  33.323   0.405
22086W        W90480  42.824  19.518   3.066
22087W        W90481  43.528   7.225  10.732
22088W        W90482   2.727  16.239   2.783
22089W        W90483   1.777  38.661   0.938
22090W        W90484   9.679  10.321   0.914
22091W        W90485  20.819  35.017  13.508
22092W        W90486  39.200  20.642   4.857
22093W        W90487  27.095  35.587  11.515
22094W        W90488  32.654  27.429  14.601
22095W        W90489   0.578  17.691   0.348
22096W        W90490  16.139  12.033   1.323
22097W        W90491  43.610  43.680   4.742
22098W        W90492  17.973  35.171  10.559
22099W        W90493  36.581  37.162  12.465
22100W        W90494  43.835  28.147  13.928
22101W        W90495  32.528  12.373   3.870
22102W        W90496  18.701  23.705   0.280
22103W        W90497  35.128  38.639  13.312
22104W        W90498  34.046  14.562  11.253
22105W        W90499  43.843  18.605   0.203
22106W        W90500  28.898  29.662   2.069
22107W        W90501  26.159  34.081   0.259
22108W        W90502  36.543  14.178  14.870
22109W        W90503  24.844  15.216  10.781
22110W        W90504  22.665  36.907  13.873
22111W        W90505   1.370  32.472  12.181
22112W        W90506  31.146   2.860  11.390
22113W        W90507  19.492   3.449   0.709
22114W        W90508  12.284  10.322   3.222
22115W        W90509   8.846  35.600  10.875
22116W        W90510  39.552  33.466  11.564
22117W        W90511   1.150  11.358  12.490
22118W        W90512  21.211  30.408  11.633
22119W        W90513  10.480  32.909   3.823
22120W        W90514  22.999  18.241  12.595
22121W        W90515   6.348  23.226   9.614
22122W        W90516   2.868  18.181  14.789
22123W        W90517  26.350  25.651  13.231
22124W        W90518  31.154  23.533  12.162
22125W        W90519  43.442  32.516  10.624
22126W        W90520   4.854  21.173   3.332
22127W        W90521  21.749  38.848  11.101
22128W        W90522  36.476  12.597   4.982
22129W        W90523  26.488   8.914  11.185
22130W        W90524  31.415  23.114   4.589
22131W        W90525  14.761  10.687  14.922
22132W        W90526   4.979  19.036  11.225
22133W        W90527   8.599  18.754   1.984
22134W        W90528  39.453   4.860  10.702
22135W        W90529   2.405   9.096  11.183
22136W        W90530  25.119  35.800  10.737
22137W        W90531  32.423   3.759   2.938
22138W        W90532  11.820  38.706   0.785
22139W        W90533   6.208  15.386   2.364
22140W        W90534   3.596  44.358   2.753
22141W        W90535  19.412   6.371  11.279
22142W        W90536   2.992   8.965  12.481
22143W        W90537  23.411  19.934  13.045
22144W        W90538  44.410  38.750   1.276
22145W        W90539  20.584  18.745   4.343
22146W        W90540  37.547  19.527   4.788
22147W        W90541  33.384  27.019   0.057
22148W        W90542  29.831   2.707   2.656
22149W        W90543  18.641   1.802  10.622
22150W        W90544  23.532  25.057  10.695
22151W        W90545  20.973  22.550   3.439
22152W        W90546  17.306  13.325   2.268
22153W        W90547  35.310  27.658   3.765
22154W        W90548  23.166  24.086  12.906
22155W        W90549   6.433  37.727  12.443
22156W        W90550  29.861  26.011   1.750
22157W        W90551   8.642  12.385  14.740
22158W        W90552  36.807  44.316   0.862
22159W        W90553  21.746  30.138  14.127
22160W        W90554   6.629  18.746   0.591
22161W        W90555  19.851  20.061  13.423
22162W        W90556   0.723  24.109  11.300
22163W        W90557   7.365   2.420   3.350
22164W        W90558  29.084  19.706   3.583
22165W        W90559  25.108  13.390  13.006
22166W        W90560  20.326   2.954   0.734
22167W        W90561   9.253  26.725   4.622
22168W        W90562  12.707  23.274  11.354
22169W        W90563  11.331  18.514  13.566
22170W        W90564  19.156  15.022   4.069
22171W        W90565  24.611  25.692   3.697
22172W        W90566  43.607  25.755   0.684
22173W        W90567   2.032  33.726  13.826
22174W        W90568  29.144  12.400  12.906
22175W        W90569  20.786  40.304   3.164
22176W        W90570  11.842  20.763   3.666
22177W        W90571  29.031   7.818  10.611
22178W        W90572   3.881  35.821  14.511
22179W        W90573  36.289  25.755   2.720
22180W        W90574  15.452  43.328  10.938
22181W        W90575   6.117  42.228   0.289
22182W        W90576  17.070   0.377  12.445
22183W        W90577  19.644  20.615  10.534
22184W        W90578   3.279  17.687   0.409
22185W        W90579  33.994  41.069   5.014
22186W        W90580  17.007  33.140  13.113
22187W        W90581   2.520   3.894  12.338
22188W        W90582   8.096  27.827  10.538
22189W        W90583   1.218  19.294   3.410
22190W        W90584  21.618   1.208  11.141
22191W        W90585  22.177   5.576   0.330
22192W        W90586   8.514  40.286   3.130
22193W        W90587  22.006  38.307  11.628
22194W        W90588   5.418  19.105  12.927
22195W        W90589   0.707   6.325   2.764
22196W        W90590  15.884  37.038  13.556
22197W        W90591  28.204   6.227  13.491
22198W        W90592  39.391  35.973  10.718
22199W        W90593  43.466  37.625  12.502
22200W        W90594  44.510  38.538   4.055
22201W        W90595   1.419  21.494   3.568
22202W        W90596  25.507  29.604  14.417
22203W        W90597  12.376  18.332   2.899
22204W        W90598   3.460  16.289  10.958
22205W        W90599  34.353  12.447  10.718
22206W        W90600  29.193  18.741   4.759
22207W        W90601  44.032  12.515   1.687
22208W        W90602  44.347   7.109   2.673
22209W        W90603  27.133  19.579   2.255
22210W        W90604  29.683   6.908   2.283
22211W        W90605  38.264  16.283   2.165
22212W        W90606  43.754  28.086  11.252
22213W        W90607  24.735   5.139  13.033
22214W        W90608  35.019  33.792  14.832
22215W        W90609   4.932  16.913  10.796
22216W        W90610  16.558  31.562   0.341
22217W        W90611  18.279   8.085  13.870
22218W        W90612  18.228  20.774  11.722
22219W        W90613  33.392  42.441   0.853
22220W        W90614  37.427  37.510   9.986
22221W        W90615  41.872  28.830  12.003
22222W        W90616  42.782  18.131  12.475
22223W        W90617   3.892   2.471   2.551
22224W        W90618  15.351  16.045  13.056
22225W        W90619   6.027  19.034  14.484
22226W        W90620  37.383  38.297  14.797
22227W        W90621  34.521  22.660  12.989
22228W        W90622  19.023   8.197  12.496
22229W        W90623  27.107  13.209   2.700
22230W        W90624  42.439   0.844  11.818
22231W        W90625  30.449   6.717   3.579
22232W        W90626   5.199  26.095  10.707
22233W        W90627  29.128  43.900  14.027
22234W        W90628  38.619   3.981  10.776
22235W        W90629  22.220  12.833   5.174
22236W        W90630   2.260  26.025  14.777
22237W        W90631  23.068  33.583  13.559
22238W        W90632  31.927  19.035   1.988
22239W        W90633   6.363   5.121  12.517
22240W        W90634   9.156  39.943   4.610
22241W        W90635  38.282  17.516  10.566
22242W        W90636  31.101  31.019   3.381
22243W        W90637  24.053  18.841   3.564
22244W        W90638  44.340  26.077   3.747
22245W        W90639  43.802   1.779  11.929
22246W        W90640  23.250   9.225  11.462
22247W        W90641  37.812  16.244   3.431
22248W        W90642  35.935  27.609  14.855
22249W        W90643   1.734  31.704   1.689
22250W        W90644  22.130  44.352  12.170
22251W        W90645   1.330  15.148  12.300
22252W        W90646  22.343   2.930   0.746
22253W        W90647  26.440   2.933  12.118
22254W        W90648  21.156  41.520  14.848
22255W        W90649  43.389  31.899  11.997
22256W        W90650   4.875  38.480   4.302
22257W        W90651  34.332  23.216   0.438
22258W        W90652  16.848  32.482   3.397
22259W        W90653  31.646   8.668   2.284
22260W        W90654  20.256  44.344   0.687
22261W        W90655   2.249   0.739   0.392
22262W        W90656  32.477   6.195   1.372
22263W        W90657   9.335  17.984  13.316
22264W        W90658   8.351   4.155  13.421
22265W        W90659   2.960  35.485   2.784
22266W        W90660   8.553  40.425   5.121
22267W        W90661  29.672  21.711   0.828
22268W        W90662  40.317  43.607   2.471
22269W        W90663  21.285  34.555  11.672
22270W        W90664  16.629  31.396  14.409
22271W        W90665  29.021  25.092   2.372
22272W        W90666  34.644  24.394   2.920
22273W        W90667  21.169  10.762  10.282
22274W        W90668  24.702  38.598  10.726
22275W        W90669  39.524  13.168  12.665
22276W        W90670  33.829  10.763   0.258
22277W        W90671  29.685  11.018  11.950
22278W        W90672   8.925  23.540  14.030
22279W        W90673  20.637   7.815   0.554
22280W        W90674  23.565  37.535  11.022
22281W        W90675   4.314  30.721  13.864
22282W        W90676   5.507  31.396   2.011
22283W        W90677  43.914  17.293  14.395
22284W        W90678  34.924   2.241   3.395
22285W        W90679   8.795   2.345   2.385
22286W        W90680  19.123   0.382   3.706
22287W        W90681   9.770  24.205   3.612
22288W        W90682  22.761   4.757   2.328
22289W        W90683  15.581  17.989   3.263
22290W        W90684  23.231  25.727  13.517
22291W        W90685  17.840  39.335  12.941
22292W        W90686  17.797  42.070  12.435
22293W        W90687   0.521   1.387  12.368
22294W        W90688  11.688  44.314  12.099
22295W        W90689  42.630  24.553   1.250
22296W        W90690  43.240   0.600   4.455
22297W        W90691  15.154  21.043   5.132
22298W        W90692  29.055  16.613  12.070
22299W        W90693  42.343  37.864  11.927
22300W        W90694  16.152  29.688  13.110
22301W        W90695  37.015   0.476   4.998
22302W        W90696   7.185  13.000   3.732
22303W        W90697  26.973  40.076   0.431
22304W        W90698  37.314   4.542  13.040
22305W        W90699   5.794  21.337   3.951
22306W        W90700  31.665   6.900  14.253
22307W        W90701  38.947   3.732  14.519
22308W        W90702  20.848  42.952  11.105
22309W        W90703  27.096  28.875   2.202
22310W        W90704  12.378  16.748  11.651
22311W        W90705  24.591  16.844   2.830
22312W        W90706   7.881  22.909   2.550
22313W        W90707  30.898  29.172  14.149
22314W        W90708  44.580  41.930   0.384
22315W        W90709  13.930  43.993   4.871
22316W        W90710  18.188  42.534   4.014
22317W        W90711   6.744   6.960   4.944
22318W        W90712   8.706  44.473   0.372
22319W        W90713  35.324  28.574   4.126
22320W        W90714  44.884  11.879  12.082
22321W        W90715  12.339  40.015   4.112
22322W        W90716  19.154  23.005   4.219
22323W        W90717  15.719   5.773  14.482
22324W        W90718   5.601  39.565   3.619
22325W        W90719  11.039  44.893  13.253
22326W        W90720   3.403  38.891   0.463
22327W        W90721  29.133  32.564   0.059
22328W        W90722  23.560  44.556   3.982
22329W        W90723  14.811  22.817  14.554
22330W        W90724   4.187  31.099   3.784
22331W        W90725  17.344   1.201  11.538
22332W        W90726  29.151  11.305   2.659
22333W        W90727  37.023  36.482  11.057
22334W        W90728  36.951  25.328   0.828
22335W        W90729  32.615  22.405   4.219
22336W        W90730   0.056   1.603  12.312
22337W        W90731  29.060  33.618   2.761
22338W        W90732   5.857  36.497   2.389
22339W        W90733  13.283  28.550   0.058
22340W        W90734  26.497   6.420   3.518
22341W        W90735  18.220  43.825  11.505
22342W        W90736  23.830  39.907   1.752
22343W        W90737  26.110  38.926  14.009
22344W        W90738  34.686  29.634   0.259
22345W        W90739  20.043   7.747   2.182
22346W        W90740  11.214  22.309   1.403
22347W        W90741   1.347  14.989   4.576
22348W        W90742   6.923  31.069  10.519
22349W        W90743   3.746  27.032  11.658
22350W        W90744  12.898  13.111  11.253
22351W        W90745  17.563  19.835   4.148
22352W        W90746  42.339  22.268   0.730
22353W        W90747  22.243  37.053   4.224
22354W        W90748  35.035  10.070  11.685
22355W        W90749  27.512  25.900   0.040
22356W        W90750  32.968  26.254  11.546
22357W        W90751  16.066  37.457   0.386
22358W        W90752  20.616   5.970   0.778
22359W        W90753   5.787  33.839   1.873
22360W        W90754  40.800   4.186   1.280
22361W        W90755  28.865  16.003   2.786
22362W        W90756   2.984  39.842  11.150
22363W        W90757  11.313  26.559   2.015
22364W        W90758  36.667  42.590   4.172
22365W        W90759  18.014  21.053  14.549
22366W        W90760  23.017   6.959  12.991
22367W        W90761   7.292  25.886   5.437
22368W        W90762  38.804  34.557   4.715
22369W        W90763  25.087  26.336   2.006
22370W        W90764  11.182  16.050  12.097
22371W        W90765  41.508  21.788  13.599
22372W        W90766  18.296  23.091  11.541
22373W        W90767  44.423   9.467  13.297
22374W        W90768   6.167  21.114  12.828
22375W        W90769   8.038   2.835   0.703
22376W        W90770  33.869  34.896  10.877
22377W        W90771  39.902  12.850   0.499
22378W        W90772   8.201  23.262  12.961
22379W        W90773  44.432  37.928   2.199
22380W        W90774  15.586  16.326   2.607
22381W        W90775  14.314  36.655  14.742
22382W        W90776  32.078   5.650  12.465
22383W        W90777  16.715  11.767  13.735
22384W        W90778  19.524  27.207   1.633
22385W        W90779  39.395  33.904   3.155
22386W        W90780   6.459   8.247   0.059
22387W        W90781  16.659  41.595   3.280
22388W        W90782  41.235  42.930  14.839
22389W        W90783  14.317   2.336  12.885
22390W        W90784  14.635  20.814  13.918
22391W        W90785  17.079   1.724  10.681
22392W        W90786  40.294  31.927  11.587
22393W        W90787  37.111  33.345   3.470
22394W        W90788   8.755   9.256  10.661
22395W        W90789  41.770  18.219   1.020
22396W        W90790  29.085  41.325   2.283
22397W        W90791   8.774  30.320   0.414
22398W        W90792  13.942   2.805  14.006
22399W        W90793  29.223  30.207  10.713
22400W        W90794   7.802  40.942  13.434
22401W        W90795  24.492  10.739  13.397
22402W        W90796  38.508  34.372   3.176
22403W        W90797  29.968  26.949  11.606
22404W        W90798   8.563  42.773  14.436
22405W        W90799  13.715  44.604   3.450
22406W        W90800   1.842  42.075   3.634
22407W        W90801   9.331   2.362   4.846
22408W        W90802  16.831  34.463  13.023
22409W        W90803   2.907  27.016   1.609
22410W        W90804   5.758  35.424  14.779
22411W        W90805  31.996  26.466   2.235
22412W        W90806  25.229  27.026  14.898
22413W        W90807  37.030  13.596   3.665
22414W        W90808  36.336  39.504  11.385
22415W        W90809  24.151  16.234   0.019
22416W        W90810   5.026  43.894  11.210
22417W        W90811  28.462   7.824  14.943
22418W        W90812  33.489   7.488  11.208
22419W        W90813  13.669   5.266  11.132
22420W        W90814   9.299   4.871   3.216
22421W        W90815   6.237  11.085   0.272
22422W        W90816   5.637  28.008   1.294
22423W        W90817  31.329  13.646   4.569
22424W        W90818  35.809   7.605   2.369
22425W        W90819   0.028  35.999   2.659
22426W        W90820  14.753  22.067  12.627
22427W        W90821  35.621   7.178  13.025
22428W        W90822  35.296  17.715  14.708
22429W        W90823  39.038   4.642   1.710
22430W        W90824  11.205  44.214  10.801
22431W        W90825  13.403  13.508   4.488
22432W        W90826  19.044  22.667   3.130
22433W        W90827  32.939  35.077   3.235
22434W        W90828  32.324  35.431   3.605
22435W        W90829  30.577  44.909   4.590
22436W        W90830   0.869   8.617   1.952
22437W        W90831  32.563  25.362   4.755
22438W        W90832   9.805   2.214  13.065
22439W        W90833  33.952  25.986  10.687
22440W        W90834   1.396   4.425   2.298
22441W        W90835  41.305  25.099   3.106
22442W        W90836  21.819   9.424   0.371
22443W        W90837  10.760  15.213   1.881
22444W        W90838  32.684  31.626  13.503
22445W        W90839   2.889  38.362  13.900
22446W        W90840  13.524   6.537  11.656
22447W        W90841  13.652  26.982  11.099
22448W        W90842  37.118  39.327   3.184
22449W        W90843  11.392  43.530  13.072
22450W        W90844  33.384   6.579   3.346
22451W        W90845  18.824   6.135  12.139
22452W        W90846  11.729   7.480   1.431
22453W        W90847  43.488  44.535  13.956
22454W        W90848  12.772  34.510   4.203
22455W        W90849  35.339  39.257   3.538
22456W        W90850   8.196  14.640   3.559
22457W        W90851  19.328  26.277  13.855
22458W        W90852  37.878   7.410   1.028
22459W        W90853  31.855  10.903  13.214
22460W        W90854  28.895  32.083  14.357
22461W        W90855  38.847  27.691   0.895
22462W        W90856   2.807  17.307   1.001
22463W        W90857   2.194  31.299   3.587
22464W        W90858  27.071  22.557  10.657
22465W        W90859  29.210  29.484   2.450
22466W        W90860  24.300   2.889  14.401
22467W        W90861  40.547   5.665   4.719
22468W        W90862   8.815  22.986  14.500
22469W        W90863  37.859  27.402   4.026
22470W        W90864  20.557  26.008  14.410
22471W        W90865  44.343  36.942  13.207
22472W        W90866  15.345   9.517  14.829
22473W        W90867  20.529  30.965  14.700
22474W        W90868  28.425  38.370  13.057
22475W        W90869   5.219   1.288  12.160
22476W        W90870  13.276   7.833  11.071
22477W        W90871  43.531  35.290   4.136
22478W        W90872  32.279  30.058   4.661
22479W        W90873  27.605   6.344   4.338
22480W        W90874  41.232   7.797   1.613
22481W        W90875   1.402  34.278  12.374
22482W        W90876   1.655  20.958   5.023
22483W        W90877  12.697   7.251   9.745
22484W        W90878  22.341  43.351   2.259
22485W        W90879  34.174  27.992  11.105
22486W        W90880  11.464  42.188   2.447
22487W        W90881  36.111  30.908   2.923
22488W        W90882  22.489  13.744   0.301
22489W        W90883  31.358  21.242  12.544
22490W        W90884   9.709  39.290  14.376
22491W        W90885  31.205  11.347   3.705
22492W        W90886  27.677  17.786  12.145
22493W        W90887   9.858  33.092  10.798
22494W        W90888  19.995  19.995   9.792
22495W        W90889  42.854  26.252   3.396
22496W        W90890  44.502   7.695  14.444
22497W        W90891   8.042  29.441   4.108
22498W        W90892   8.638  39.515  12.403
22499W        W90893   4.661   6.476   3.282
22500W        W90894  39.474  14.125   1.721
22501W        W90895  13.213   9.848   3.120
22502W        W90896  44.432   1.785   3.007
22503W        W90897   9.381  10.400  12.338
22504W        W90898  16.779  36.294  13.817
22505W        W90899  30.938  21.873  11.863
22506W        W90900  36.522  14.738  13.663
22507W        W90901   7.355  44.698  12.019
22508W        W90902  14.867  13.408   3.189
22509W        W90903  21.726  36.350   2.868
22510W        W90904  31.911  43.671   4.647
22511W        W90905  37.850  28.205  14.207
22512W        W90906  38.465   2.059  11.590
22513W        W90907   4.728  35.710  13.943
22514W        W90908   4.736  10.683  13.266
22515W        W90909  26.400   5.881  13.443
22516W        W90910  32.260  21.240  14.362
22517W        W90911  21.301   7.840  11.667
22518W        W90912  35.483  20.505  10.813
22519W        W90913  19.194  40.528   2.243
22520W        W90914   9.703  37.730  14.825
22521W        W90915  17.547  18.716  14.665
22522W        W90916  30.898  40.527   4.652
22523W        W90917   4.436  35.532   4.685
22524W        W90918  35.512  40.727   3.674
22525W        W90919  20.712   9.880  13.449
22526W        W90920  13.242  27.684   2.186
22527W        W90921  17.191   6.936   4.088
22528W        W90922  15.655  16.045   0.386
22529W        W90923  30.067  18.051   3.951
22530W        W90924  25.137  38.263   2.420
22531W        W90925  40.896  36.999   1.458
22532W        W90926  40.854   4.219  12.192
22533W        W90927  21.610  44.832   3.594
22534W        W90928  13.368  29.465   0.945
22535W        W90929   3.254   4.134  13.718
22536W        W90930   3.730   9.255   2.311
22537W        W90931   8.638  21.463   2.747
22538W        W90932  25.170  25.758   2.760
22539W        W90933  10.805  21.562   1.768
22540W        W90934  28.770  34.651   3.278
22541W        W90935  33.993  34.941  11.400
22542W        W90936  29.829  33.929  13.928
22543W        W90937  40.905  11.788  11.054
22544W        W90938  37.025   9.743  13.080
22545W        W90939  16.599  29.613   4.222
22546W        W90940  43.196  25.032  14.409
22547W        W90941  43.462  10.533   1.860
22548W        W90942  20.989  32.012  13.507
22549W        W90943   3.962  16.178  13.387
22550W        W90944  34.047  38.551  13.330
22551W        W90945  26.476  36.388  12.646
22552W        W90946  34.993  36.623  14.388
22553W        W90947   3.343  33.934   3.585
22554W        W90948  35.165  23.099  14.993
22555W        W90949  11.603  32.234   3.229
22556W        W90950  40.265   0.920   0.227
22557W        W90951  33.981   2.061   3.468
22558W        W90952  12.017  11.508  14.273
22559W        W90953   7.170   2.422  14.395
22560W        W90954  40.992  19.116   0.187
22561W        W90955  42.163  32.269   2.808
22562W        W90956  44.964  19.551  14.960
22563W        W90957  35.945  23.183  10.735
22564W        W90958   3.401  26.630  11.656
22565W        W90959   1.339  44.965   0.219
22566W        W90960  35.563  20.656  13.898
22567W        W90961  29.113  22.737   2.451
22568W        W90962  37.334  38.919   0.400
22569W        W90963  15.693   9.027   1.894
22570W        W90964   5.232   7.649  11.766
22571W        W90965   0.186   8.616  10.673
22572W        W90966  28.049   6.289  11.640
22573W        W90967  27.939  34.286  12.486
22574W        W90968   9.073  17.148  12.079
22575W        W90969  20.158  22.623   2.676
22576W        W90970  32.736   1.340   4.134
22577W        W90971  14.586  12.632   4.506
22578W        W90972  38.037  24.870   0.246
22579W        W90973  11.224   8.778   3.829
22580W        W90974  33.143  19.791   2.997
22581W        W90975   5.376  41.578  14.558
22582W        W90976   1.703   0.081   1.970
22583W        W90977  27.718   4.477  12.363
22584W        W90978  26.204   8.613  11.507
22585W        W90979  33.782  21.138   2.734
22586W        W90980  44.035  38.147   1.894
22587W        W90981  26.690  35.118  10.696
22588W        W90982  25.398  35.625  12.882
22589W        W90983  10.938   6.291  14.267
22590W        W90984  43.738   5.874   2.942
22591W        W90985  19.071   6.135  10.992
22592W        W90986  38.797  36.388  10.102
22593W        W90987   5.745  41.538  12.864
22594W        W90988  33.123  30.084   0.700
22595W        W90989   7.963  18.136   3.281
22596W        W90990  30.869  14.862  12.501
22597W        W90991  40.819  25.904   1.416
22598W        W90992  23.099  37.550  13.680
22599W        W90993  34.886   5.892   1.014
22600W        W90994  33.874   7.313  14.920
22601W        W90995   6.190  21.012   3.140
22602W        W90996  33.141  25.239   3.062
22603W        W90997   5.698   8.252   0.265
22604W        W90998   5.279  15.817  12.145
22605W        W90999  21.986  11.748  11.126
22606W        W91000  32.423  17.645  12.436
22607W        W91001  39.582  19.247   3.172
22608W        W91002  32.237   4.885  13.776
22609W        W91003  32.967  41.719   1.838
22610W        W91004  25.289  36.275   0.126
22611W        W91005  39.787   0.938   2.774
22612W        W91006  16.607   0.257   0.291
22613W        W91007   3.456   8.691  13.334
22614W        W91008  27.611  25.542   2.153
22615W        W91009  38.934  21.670   3.117
22616W        W91010  12.569  41.307  13.425
22617W        W91011  28.463  28.441   2.392
22618W        W91012  17.058   6.457  14.338
22619W        W91013   6.750  43.441   4.952
22620W        W91014  17.337  31.110   3.594
22621W        W91015  21.773  34.145   4.166
22622W        W91016  14.925   1.405  13.993
22623W        W91017  33.491  38.404   0.456
22624W        W91018  22.508   1.262  12.707
22625W        W91019  44.376   9.726  14.531
22626W        W91020  23.508   3.848  10.654
22627W        W91021  33.402  12.912  11.562
22628W        W91022  12.915  21.235   1.242
22629W        W91023   0.424   0.755   0.948
22630W        W91024  22.750   0.648   4.668
22631W        W91025  32.572  13.703  14.951
22632W        W91026  44.756  33.283  13.507
22633W        W91027   5.805  36.521   0.813
22634W        W91028  31.016  32.559  13.559
22635W        W91029  16.089  19.018   3.304
22636W        W91030  25.464  14.872   0.866
22637W        W91031   5.890  43.220   3.180
22638W        W91032  40.251  33.539  11.126
22639W        W91033  28.465  15.899   0.670
22640W        W91034   8.280   2.941   1.822
22641W        W91035  22.896  19.054  10.636
22642W        W91036   4.378  11.271   2.405
22643W        W91037  19.814  38.506   1.440
22644W        W91038  43.499  14.745  13.254
22645W        W91039   5.805  20.278   3.805
22646W        W91040  12.084  29.401  10.747
22647W        W91041  16.534  15.237  12.111
22648W        W91042  15.644  24.558  14.728
22649W        W91043  13.884  11.551   2.809
22650W        W91044  22.422  16.266  12.328
22651W        W91045   6.893  25.948   1.928
22652W        W91046  26.764  26.967  13.711
22653W        W91047  26.981   0.834  14.380
22654W        W91048  44.113  39.316   2.406
22655W        W91049   2.938  17.237  13.769
22656W        W91050  10.186  40.637   3.670
22657W        W91051   7.720  25.222   0.738
22658W        W91052  40.892  40.507  14.943
22659W        W91053  25.596  14.426  12.071
22660W        W91054  34.772  29.179  11.984
22661W        W91055   6.967  10.814   3.700
22662W        W91056   2.777  29.578   4.174
22663W        W91057  24.968  41.969   3.652
22664W        W91058   8.317  29.082  10.621
22665W        W91059   9.264  39.199   2.859
22666W        W91060  14.626  25.077  10.471
22667W        W91061  29.134  43.520   0.423
22668W        W91062  31.626  28.463   4.702
22669W        W91063  10.298  38.988   4.542
22670W        W91064  37.056  27.508   1.228
22671W        W91065  23.032  18.207  11.228
22672W        W91066  29.356  27.635  12.668
22673W        W91067  35.351  35.753   2.288
22674W        W91068   7.436  32.854   3.119
22675W        W91069   8.190  39.891   3.074
22676W        W91070  43.902  26.862  12.557
22677W        W91071   6.646  17.142   1.385
22678W        W91072  32.449  31.841  11.452
22679W        W91073  40.921  39.719  13.066
22680W        W91074  37.895  41.909  11.599
22681W        W91075  29.139  42.410  11.962
22682W        W91076  23.669  25.539   1.384
22683W        W91077  41.982  31.426  10.599
22684W        W91078  15.811  14.368  14.942
22685W        W91079  16.813  17.165   0.749
22686W        W91080  18.662   7.218  11.129
22687W        W91081   3.754   2.444  14.325
22688W        W91082  32.622  23.653  11.026
22689W        W91083  33.468   2.489   4.351
22690W        W91084  29.875  35.846   5.176
22691W        W91085  37.316  30.911  14.061
22692W        W91086  36.171  27.478   1.296
22693W        W91087  28.051  39.508   0.970
22694W        W91088  31.634   8.826  11.171
22695W        W91089  27.873  28.442   4.152
22696W        W91090  25.517  20.509  12.470
22697W        W91091  38.314  16.831  12.866
22698W        W91092   2.262  35.283  11.356
22699W        W91093  30.681  33.991  13.515
22700W        W91094  17.090  28.597   0.982
22701W        W91095  33.334  35.846   3.207
22702W        W91096  23.154  21.550  10.773
22703W        W91097  19.966   9.199   3.598
22704W        W91098   3.779  34.469   1.815
22705W        W91099  18.621  30.401  11.632
22706W        W91100  25.049  26.853  10.364
22707W        W91101  13.369  23.725   1.279
22708W        W91102  18.043  12.647   4.153
22709W        W91103  27.229  40.275  14.046
22710W        W91104  22.476  41.349   0.477
22711W        W91105  27.993   1.922  11.573
22712W        W91106  31.879  27.039  13.889
22713W        W91107  35.445  38.425  10.582
22714W        W91108   0.023  18.275  11.146
22715W        W91109  31.519  39.197  14.405
22716W        W91110  42.942   4.892   0.031
22717W        W91111  41.908   1.291   4.662
22718W        W91112   6.156  11.318   0.729
22719W        W91113  12.244   7.390   0.697
22720W        W91114  10.846  44.935   3.602
22721W        W91115  35.363  33.421  14.721
22722W        W91116   3.830  23.455   4.891
22723W        W91117  34.924  42.398   4.776
22724W        W91118  26.734  37.878   1.815
22725W        W91119  38.443  21.561  11.551
22726W        W91120   9.949   7.063  14.356
22727W        W91121  10.598   9.307   3.226
22728W        W91122  17.278  37.845  13.013
22729W        W91123   8.893   1.980  14.270
22730W        W91124  23.887   5.631  11.134
22731W        W91125  18.797  17.908  10.920
22732W        W91126   6.714  24.395  10.758
22733W        W91127   9.019   0.602  14.442
22734W        W91128   7.229  26.171   2.445
22735W        W91129  22.082   3.414   0.714
22736W        W91130  31.964  39.726   3.213
22737W        W91131   8.237  29.021  14.125
22738W        W91132  28.686   3.984  11.690
22739W        W91133   0.259  15.907   1.797
22740W        W91134   5.363   6.304   4.621
22741W        W91135  18.735   1.651   0.325
22742W        W91136  12.741   1.277   2.256
22743W        W91137   0.383   8.869   1.944
22744W        W91138  44.221  32.628  13.319
22745W        W91139  10.901  43.455   3.692
22746W        W91140  14.652  27.189   0.981
22747W        W91141  41.728  20.155   1.318
22748W        W91142   8.155  25.071   3.089
22749W        W91143  37.499   1.362   1.630
22750W        W91144  13.142   2.610  13.688
22751W        W91145  19.755   8.930   1.248
22752W        W91146  25.679  11.999   5.004
22753W        W91147  40.438  25.402  14.992
22754W        W91148  10.252  37.825  12.502
22755W        W91149   9.210   0.705  10.044
22756W        W91150   0.030  39.448   5.022
22757W        W91151  13.192  15.369  13.071
22758W        W91152   1.224  23.552   9.929
22759W        W91153  27.881  30.480   5.092
22760W        W91154  27.995  20.530  14.385
22761W        W91155  33.652  22.146   0.683
22762W        W91156  42.542  11.836  14.010
22763W        W91157   3.271  42.852  11.895
22764W        W91158  16.232  37.330  14.888
22765W        W91159  23.146  37.239  11.193
22766W        W91160  42.763  19.002  14.896
22767W        W91161  32.367  39.347   1.351
22768W        W91162   1.805   2.748  13.096
22769W        W91163  18.754   6.238  13.096
22770W        W91164  17.707  42.042  14.168
22771W        W91165  35.622  15.444   0.327
22772W        W91166  11.598   6.457   1.238
22773W        W91167  27.556   3.722   0.910
22774W        W91168   9.180  23.157   0.918
22775W        W91169  20.125   3.752   0.356
22776W        W91170  26.424  17.268  14.394
22777W        W91171  31.364   8.767   0.747
22778W        W91172  14.852  44.126   1.215
22779W        W91173  26.455  37.117  12.050
22780W        W91174  14.321  22.298  14.791
22781W        W91175  32.378  43.776   2.782
22782W        W91176  29.619  34.099   4.767
22783W        W91177  33.132  35.132  11.400
22784W        W91178  36.955  26.721   0.509
22785W        W91179  11.870   8.400   1.786
22786W        W91180  12.107  21.639   2.609
22787W        W91181  30.937  12.692   4.884
22788W        W91182   2.515  31.716   3.687
22789W        W91183  16.690  40.269  12.877
22790W        W91184   7.246  36.164  12.965
22791W        W91185   5.053  13.002   4.544
22792W        W91186  39.321  42.017  14.939
22793W        W91187   9.675  12.486   3.612
22794W        W91188  34.243   1.201  14.387
22795W        W91189  44.546  35.812  12.638
22796W        W91190  21.464   1.222   4.191
22797W        W91191  24.503   0.700   0.035
22798W        W91192  13.326  24.148  12.585
22799W        W91193  18.301   2.723   1.866
22800W        W91194  32.462  35.004  13.610
22801W        W91195  34.628  20.163   4.179
22802W        W91196  14.740  22.844   3.611
22803W        W91197  10.266  27.404   3.362
22804W        W91198   0.039  38.834  13.817
22805W        W91199   7.574   2.256  12.674
22806W        W91200  41.419  16.357   1.421
22807W        W91201  14.314  21.398   0.030
22808W        W91202  36.150  39.909  10.776
22809W        W91203   5.710   5.942   0.765
22810W        W91204  38.665  19.790  11.243
22811W        W91205  37.310  31.814   3.136
22812W        W91206  18.468  20.519   3.758
22813W        W91207  15.174  29.632   3.601
22814W        W91208  11.977  42.413  13.797
22815W        W91209   6.678   6.738   2.622
22816W        W91210  15.067   2.167  13.894
22817W        W91211  19.539  33.734   0.877
22818W        W91212   3.922  28.526  12.811
22819W        W91213  29.980  44.949   2.327
22820W        W91214  11.238   2.755   3.084
22821W        W91215  19.120   2.775   3.261
22822W        W91216  33.587   9.192   3.598
22823W        W91217  41.358  17.780  10.757
22824W        W91218  33.130  44.484   3.726
22825W        W91219   6.368  37.336   3.268
22826W        W91220   0.758  40.101   1.821
22827W        W91221  38.088  13.938   2.221
22828W        W91222  31.204  13.198   4.303
22829W        W91223  32.514  41.977   3.363
22830W        W91224  29.055  40.881   0.817
22831W        W91225  20.118  41.893  12.889
22832W        W91226  20.440  19.315  11.048
22833W        W91227  22.562  19.026  12.748
22834W        W91228  38.981   7.924  10.678
22835W        W91229  44.264   3.108   2.449
22836W        W91230  39.615  32.824  14.009
22837W        W91231  12.543   4.662   3.675
22838W        W91232  18.086  29.068   0.117
22839W        W91233  31.972  12.155  13.489
22840W        W91234  18.446  33.747   0.395
22841W        W91235  19.585  30.372   3.708
22842W        W91236   8.110   1.735   1.132
22843W        W91237  43.704  33.512   3.685
22844W        W91238  22.527  33.654   3.759
22845W        W91239  36.052   5.462   4.917
22846W        W91240  44.963   4.786   4.117
22847W        W91241  39.763  27.166   1.068
22848W        W91242  10.152   6.821   4.867
22849W        W91243  37.941  11.064   0.844
22850W        W91244  42.789  42.323  10.783
22851W        W91245   2.185   3.655  10.460
22852W        W91246  33.336   4.176   3.234
22853W        W91247  10.373  14.522   2.466
22854W        W91248  17.548   7.917  11.664
22855W        W91249   7.586   2.541   4.090
22856W        W91250  20.678  16.473  14.960
22857W        W91251  40.512  39.985  11.509
22858W        W91252  17.225   2.004   1.003
22859W        W91253  44.045  20.006  12.928
22860W        W91254  32.249   1.554   3.468
22861W        W91255   6.887  22.210   0.303
22862W        W91256  15.092  28.945   1.356
22863W        W91257  23.482  42.993   3.583
22864W        W91258  32.471  23.179   4.940
22865W        W91259  10.086   9.202   4.122
22866W        W91260  29.068  18.306  14.866
22867W        W91261   2.305  11.849  11.698
22868W        W91262  10.398  17.415  11.548
22869W        W91263  43.007  28.836   4.615
22870W        W91264  26.181  35.493   2.941
22871W        W91265  17.612  37.577  14.944
22872W        W91266  25.492   3.501   3.364
22873W        W91267  11.334  28.532   0.892
22874W        W91268  39.041  20.596   4.108
22875W        W91269  43.286   4.902  12.067
22876W        W91270  37.618  23.503   1.491
22877W        W91271  31.415  21.768  12.408
22878W        W91272  29.108  17.154  12.115
22879W        W91273  40.378   8.417   2.737
22880W        W91274  11.326  44.854   3.361
22881W        W91275   4.934   2.370  13.419
22882W        W91276  10.217   8.118   1.442
22883W        W91277  35.052  44.457   3.711
22884W        W91278  11.154  13.326   2.673
22885W        W91279  19.820  12.033  10.581
22886W        W91280   6.197   4.698   0.329
22887W        W91281   2.419  34.124   2.711
22888W        W91282   3.808   9.595  13.053
22889W        W91283  17.105   4.404   3.110
22890W        W91284   3.996  15.212   4.523
22891W        W91285  25.253  36.093   1.899
22892W        W91286   9.542   4.445  10.275
22893W        W91287  20.982  13.757  14.503
22894W        W91288  16.108  24.999   5.105
22895W        W91289  26.211  26.683  11.656
22896W        W91290  22.012  40.838   1.233
22897W        W91291  22.131  16.757   2.384
22898W        W91292   4.328  44.718   4.196
22899W        W91293  18.661  21.035  12.769
22900W        W91294  13.300   2.424   0.904
22901W        W91295  29.399  25.876   2.390
22902W        W91296  11.827  30.423   2.437
22903W        W91297  43.041  36.374  11.666
22904W        W91298  35.343  44.405   3.278
22905W        W91299   3.686  28.994   1.354
22906W        W91300  12.907   0.926   3.704
22907W        W91301   4.798   2.547  12.489
22908W        W91302   1.991  19.147   4.129
22909W        W91303  29.379  36.458  12.408
22910W        W91304  36.181  35.838  14.345
22911W        W91305  17.733  41.349  11.928
22912W        W91306  16.148  24.145   0.431
22913W        W91307  35.961  12.322  14.941
22914W        W91308  41.077  42.527   1.341
22915W        W91309  17.121  10.282  14.431
22916W        W91310  15.180  38.968   1.738
22917W        W91311  18.884  11.245   1.151
22918W        W91312  10.724  23.819   3.769
22919W        W91313  37.559  15.281   0.870
22920W        W91314  27.633  25.152  14.408
22921W        W91315  42.854   6.122   3.723
22922W        W91316   3.302  14.575   1.931
22923W        W91317  37.454  35.867   1.227
22924W        W91318   2.246  11.712  13.105
22925W        W91319  28.315   0.726   3.160
22926W        W91320  41.406  26.082  11.935
22927W        W91321  28.209  11.398  12.130
22928W        W91322  32.826  27.561   4.536
22929W        W91323  20.286  42.932  11.951
22930W        W91324  26.676   6.504  11.081
22931W        W91325  32.002  24.922  10.577
22932W        W91326  25.912  27.488  13.552
22933W        W91327  32.022   3.489  13.532
22934W        W91328  43.337  29.373  13.065
22935W        W91329   2.308   0.418   2.773
22936W        W91330   6.003  14.320  11.001
22937W        W91331   6.036   5.806  11.573
22938W        W91332  34.089  44.405  13.835
22939W        W91333  13.270  27.335   3.593
22940W        W91334  24.107   9.403   9.533
22941W        W91335  31.771  22.025   2.404
22942W        W91336  12.156  36.310   0.301
22943W        W91337  24.439  24.070  10.437
22944W        W91338  22.499   0.600  13.346
22945W        W91339   2.150   7.735  12.505
22946W        W91340  41.067  21.531   2.877
22947W        W91341  15.125  13.255   2.742
22948W        W91342  11.525  11.516   9.942
22949W        W91343  37.612  26.081   2.157
22950W        W91344  19.100  31.078  14.875
22951W        W91345  43.345  31.066  14.756
22952W        W91346  40.004   4.241  14.984
22953W        W91347   5.509   2.996   0.975
22954W        W91348  13.754   2.328   4.539
22955W        W91349   9.433   6.316  12.083
22956W        W91350  22.749  41.735  14.333
22957W        W91351  14.886   7.786  14.252
22958W        W91352   8.637   3.380   3.393
22959W        W91353  36.579   5.789   3.097
22960W        W91354   2.328  12.294  10.982
22961W        W91355  18.674  35.237   1.699
22962W        W91356   9.642  21.803   3.150
22963W        W91357  29.424  29.126  14.286
22964W        W91358  40.275   8.111  12.124
22965W        W91359   5.340  36.600   2.259
22966W        W91360  38.513  20.117   3.216
22967W        W91361  14.831  23.803   0.682
22968W        W91362   8.647  22.217  10.666
22969W        W91363  18.812   2.741  14.980
22970W        W91364  15.758  22.407  13.031
22971W        W91365   2.771  40.856   3.242
22972W        W91366  30.731   0.418   2.313
22973W        W91367  24.984  33.598  12.446
22974W        W91368   2.041  25.721  13.576
22975W        W91369  40.336   5.908  13.805
22976W        W91370  42.033  44.556   1.261
22977W        W91371  18.827  23.653   3.686
22978W        W91372  32.057  39.693   4.033
22979W        W91373  22.846  27.479  13.422
22980W        W91374  31.369  25.727   0.025
22981W        W91375   6.270  22.551  10.794
22982W        W91376  40.871  44.997   2.224
22983W        W91377   8.277  25.756  13.912
22984W        W91378  24.237  36.303  12.957
22985W        W91379   4.319   0.970  10.635
22986W        W91380  12.679  29.953   2.328
22987W        W91381  24.927  12.167  14.852
22988W        W91382   5.183  14.124  14.352
22989W        W91383   3.378  21.737  13.885
22990W        W91384  25.219  35.461  13.370
22991W        W91385  41.296  38.362  13.516
22992W        W91386  20.373  29.137   2.847
22993W        W91387  20.614  16.673   5.160
22994W        W91388  23.720  30.616   1.016
22995W        W91389  43.251  28.653   3.535
22996W        W91390  25.655  40.509   3.818
22997W        W91391  26.553  41.327   1.863
22998W        W91392  38.611  42.348  14.427
22999W        W91393  35.141  10.885  14.121
23000W        W91394  10.297  10.695   0.401
23001W        W91395   9.785  12.518  14.935
23002W        W91396  21.002   6.746   3.214
23003W        W91397  35.429  24.500   4.062
23004W        W91398   0.905  38.591   1.446
23005W        W91399  40.066   5.499  13.580
23006W        W91400  17.701  13.044   4.494
23007W        W91401  41.012  19.951   1.870
23008W        W91402  18.348  36.548   1.904
23009W        W91403  13.216  43.300  13.003
23010W        W91404   4.692  29.864   3.259
23011W        W91405  37.474  39.415  10.991
23012W        W91406   2.980  20.264   2.264
23013W        W91407  43.677   8.786   4.881
23014W        W91408  34.445   8.669   3.089
23015W        W91409  22.585   0.920  11.233
23016W        W91410  24.054   0.171  12.584
23017W        W91411  23.046  34.461  12.825
23018W        W91412  37.852  38.218  12.892
23019W        W91413   3.910  43.535   2.949
23020W        W91414  26.158  25.598   4.771
23021W        W91415  29.264   1.888   2.869
23022W        W91416  38.569   6.353  13.792
23023W        W91417  37.367   3.695  13.601
23024W        W91418  13.291  28.051   1.780
23025W        W91419  35.638  23.764  13.889
23026W        W91420  28.414  37.563  12.971
23027W        W91421  42.061  32.309  11.075
23028W        W91422  16.596  40.845   1.178
23029W        W91423  17.710  25.250  10.923
23030W        W91424  36.711   3.308   4.295
23031W        W91425  35.954  18.568   2.102
23032W        W91426  21.691   6.982  13.708
23033W        W91427  10.289  22.765   1.282
23034W        W91428  39.078  28.552   3.289
23035W        W91429  18.743   6.224  14.015
23036W        W91430  38.121  17.337  12.936
23037W        W91431  21.280  43.778   3.801
23038W        W91432  32.622  26.714  10.480
23039W        W91433  16.254  18.805   0.516
23040W        W91434  41.255  30.221  13.091
23041W        W91435   0.730  17.057   2.262
23042W        W91436   9.582   5.772   0.875
23043W        W91437  32.480  35.072  13.101
23044W        W91438   4.430  27.704  11.160
23045W        W91439  44.106  33.984  13.975
23046W        W91440  12.443  40.290   0.217
23047W        W91441  32.468  12.276  14.906
23048W        W91442   7.399  24.500  13.941
23049W        W91443   5.783  23.497   2.411
23050W        W91444  27.425  29.851  13.963
23051W        W91445  36.322  18.109  13.916
23052W        W91446  37.285  14.346   0.309
23053W        W91447  31.677  12.236   3.995
23054W        W91448  28.703   5.891   1.789
23055W        W91449   2.940  40.702  11.643
23056W        W91450  13.226  33.926  13.981
23057W        W91451   5.743  40.532  13.073
23058W        W91452  23.573  33.922  10.941
23059W        W91453  23.552  17.050  11.091
23060W        W91454   7.738   0.952  10.711
23061W        W91455  20.639  14.613   3.567
23062W        W91456   4.412   7.730   1.423
23063W        W91457  14.260   7.186  12.697
23064W        W91458  12.225  41.385  11.590
23065W        W91459  17.210  39.623   1.375
23066W        W91460   3.938  27.580  12.550
23067W        W91461  30.242   4.461  13.487
23068W        W91462  29.448  36.802   0.826
23069W        W91463  10.400  14.905   3.326
23070W        W91464  19.069  39.388  11.878
23071W        W91465  37.599   8.123  12.901
23072W        W91466   8.301  35.354  11.211
23073W        W91467  13.292  14.567   1.756
23074W        W91468  37.989  12.192   4.203
23075W        W91469  12.478   5.700  11.245
23076W        W91470  13.121   7.132  10.481
23077W        W91471  29.760  30.359   2.146
23078W        W91472   5.811  38.715   4.147
23079W        W91473  30.452  21.023   3.970
23080W        W91474  16.788  30.471  11.578
23081W        W91475  35.458  10.363  11.587
23082W        W91476  10.606  41.448   0.247
23083W        W91477  36.997  40.989   3.897
23084W        W91478  25.976  34.672  10.958
23085W        W91479  42.399  29.901   0.309
23086W        W91480  21.500  26.517   1.133
23087W        W91481  44.292   4.088   1.659
23088W        W91482  14.849  42.347   1.875
23089W        W91483  44.065   4.171  13.807
23090W        W91484  43.296   3.777   3.223
23091W        W91485   8.855  26.522  13.014
23092W        W91486  37.803  37.057  11.581
23093W        W91487  29.570  42.542   3.226
23094W        W91488  26.886  30.889  12.503
23095W        W91489   4.855  35.636   3.979
23096W        W91490  30.353  28.072   3.303
23097W        W91491   5.139  27.319   3.675
23098W        W91492  37.238  23.703  12.890
23099W        W91493  43.341  26.034  13.653
23100W        W91494  12.204   2.412  13.938
23101W        W91495  10.191  42.842   0.371
23102W        W91496  20.634  11.116  10.688
23103W        W91497  32.993   9.964   1.505
23104W        W91498  36.335  38.871  10.150
23105W        W91499  42.758   6.427   0.046
23106W        W91500  36.071  25.419  10.992
23107W        W91501  39.292  15.051  14.975
23108W        W91502   9.132  10.361   1.671
23109W        W91503  20.290   3.368   1.139
23110W        W91504  43.415  44.242   3.871
23111W        W91505  30.671   7.428   0.006
23112W        W91506  13.382  27.253  13.694
23113W        W91507  34.127   1.922  12.543
23114W        W91508  42.576   8.361  12.213
23115W        W91509   4.821  15.240   4.139
23116W        W91510  20.937  39.307  11.045
23117W        W91511  23.548  31.176   3.292
23118W        W91512  34.028  32.325  10.523
23119W        W91513  19.189  35.945  10.124
23120W        W91514  15.381  25.047  10.224
23121W        W91515  37.279  39.089  12.869
23122W        W91516   8.284   5.017  11.548
23123W        W91517   7.155  27.569   3.857
23124W        W91518  20.724   5.678  14.474
23125W        W91519  37.089  22.409   4.173
23126W        W91520   6.872  30.532   4.548
23127W        W91521   3.525  44.844   4.870
23128W        W91522  28.884  44.839   2.121
23129W        W91523  33.645  44.320   3.675
23130W        W91524   6.861  35.448  11.858
23131W        W91525   7.347  24.111   4.257
23132W        W91526   2.361  35.346  12.323
23133W        W91527  37.287  13.139  13.453
23134W        W91528  18.160  34.357  11.092
23135W        W91529  28.316   0.060   0.027
23136W        W91530   1.154  35.635  11.551
23137W        W91531  41.287  34.006   1.752
23138W        W91532  36.903   0.485   2.300
23139W        W91533  32.348  38.209  13.091
23140W        W91534  16.586   3.846  13.093
23141W        W91535   2.811  26.645  11.885
23142W        W91536  40.175   0.633   3.738
23143W        W91537   0.747  17.681   0.914
23144W        W91538   5.960   9.255  11.708
23145W        W91539   7.305  17.501   2.411
23146W        W91540  14.789  11.919   4.022
23147W        W91541   9.812   6.883   1.640
23148W        W91542  21.609  20.867  10.369
23149W        W91543  23.989  21.673  13.110
23150W        W91544  44.486  21.518   4.297
23151W        W91545  12.216   6.830  10.353
23152W        W91546  37.977  39.831   1.137
23153W        W91547  35.110  37.592  12.042
23154W        W91548  34.569  37.095  11.527
23155W        W91549  30.573  18.251  12.582
23156W        W91550   0.912  35.925  10.227
23157W        W91551  31.906  28.471  11.142
23158W        W91552  35.624  13.371  11.698
23159W        W91553  31.342   5.355   1.616
23160W        W91554  23.868   6.645   2.687
23161W        W91555  37.682  19.082  13.976
23162W        W91556  37.073  14.163  14.861
23163W        W91557  14.236  21.338   4.507
23164W        W91558   7.584  34.328  14.486
23165W        W91559  27.471  26.031   3.862
23166W        W91560  30.137  38.613  12.245
23167W        W91561  32.430  39.927   4.383
23168W        W91562  24.506   8.097   2.308
23169W        W91563  17.619  19.560   0.292
23170W        W91564  41.281  43.813  14.534
23171W        W91565  13.038  38.090   1.885
23172W        W91566  23.566   6.415  13.392
23173W        W91567  22.550  43.971   3.273
23174W        W91568  18.564   2.834   2.316
23175W        W91569  37.138  10.203   4.085
23176W        W91570  26.554  26.973   4.820
23177W        W91571  29.675  26.794  12.492
23178W        W91572  11.682   6.628   3.272
23179W        W91573  25.722  10.726   3.371
23180W        W91574  18.535   4.257  10.721
23181W        W91575  40.845  11.218   1.221
23182W        W91576  36.678   9.844  13.480
23183W        W91577   4.764  43.880  14.222
23184W        W91578   6.551   2.426   4.952
23185W        W91579  19.898  35.603   1.136
23186W        W91580  14.293  24.918  10.837
23187W        W91581  11.308   0.956   1.446
23188W        W91582  19.275  31.516  10.988
23189W        W91583  23.529   2.134   0.355
23190W        W91584  39.426  35.635   4.252
23191W        W91585  33.050  24.072   1.650
23192W        W91586  24.480   7.969  12.054
23193W        W91587  38.110  18.651  11.621
23194W        W91588  28.174   0.367  10.730
23195W        W91589  10.629  30.970  13.948
23196W        W91590  27.430  43.681  14.811
23197W        W91591  20.126  21.242   3.094
23198W        W91592  29.700   3.500   2.353
23199W        W91593   1.654   7.929  14.103
23200W        W91594  35.250  41.320   4.333
23201W        W91595  43.873  35.317  13.131
23202W        W91596  10.947  41.304  11.414
23203W        W91597  15.609  15.320   2.833
23204W        W91598  22.411  33.170   0.648
23205W        W91599  42.566  34.275  14.471
23206W        W91600  10.172  18.220  12.108
23207W        W91601  16.949  17.638  13.473
23208W        W91602  29.591   1.877   3.268
23209W        W91603  22.667  40.697   4.544
23210W        W91604  19.076  22.631  10.398
23211W        W91605  21.212  18.322  13.516
23212W        W91606  43.347  29.428  11.493
23213W        W91607  40.507   2.636   2.144
23214W        W91608  43.021  20.780   1.454
23215W        W91609   7.370  26.469   1.504
23216W        W91610  33.377  33.373  13.333
23217W        W91611  19.654  11.896   3.676
23218W        W91612  13.090   2.175   2.205
23219W        W91613  38.461  26.675  13.116
23220W        W91614  39.562  14.462  12.455
23221W        W91615  42.024  23.940   3.417
23222W        W91616  12.753  18.297  13.342
23223W        W91617  12.226  16.673   0.551
23224W        W91618  27.766   7.215  14.910
23225W        W91619  12.546  28.098  11.691
23226W        W91620  38.000  35.568  14.783
23227W        W91621  39.047  29.608  13.464
23228W        W91622  30.081  31.817   1.261
23229W        W91623  15.115   0.780  14.789
23230W        W91624  33.092  16.864   4.700
23231W        W91625  12.877  24.720  13.839
23232W        W91626  15.482  17.237   2.567
23233W        W91627  35.024  12.796   0.944
23234W        W91628  15.029  31.071   2.698
23235W        W91629  13.780  25.747  14.070
23236W        W91630  11.441   2.304  14.568
23237W        W91631   6.441   6.832  12.968
23238W        W91632  18.956   6.492   0.547
23239W        W91633  40.577  24.213  14.343
23240W        W91634   9.800  44.648  11.437
23241W        W91635  39.588  41.762  12.679
23242W        W91636  26.559   5.727  10.723
23243W        W91637  31.858  26.846   0.982
23244W        W91638  41.288  17.571  14.872
23245W        W91639  32.508  19.285   0.786
23246W        W91640  20.097   3.515  11.927
23247W        W91641  22.528  25.166   1.798
23248W        W91642  13.304  11.711  12.414
23249W        W91643  14.861   6.914  11.100
23250W        W91644  41.459   1.370   3.499
23251W        W91645  42.320  37.369   0.825
23252W        W91646  30.005   5.372  13.363
23253W        W91647  22.567  32.386  12.409
23254W        W91648  17.689  40.331   4.651
23255W        W91649  17.458  10.370   0.212
23256W        W91650  16.228  38.429  11.338
23257W        W91651   3.651  35.830  10.632
23258W        W91652  38.798   2.447  10.642
23259W        W91653  10.759   9.238   1.758
23260W        W91654   8.358  34.344  11.917
23261W        W91655   0.740  18.363   1.289
23262W        W91656  13.353  44.817   0.425
23263W        W91657  25.186   5.307  11.139
23264W        W91658   7.612  30.335  10.532
23265W        W91659   7.296   3.355  12.044
23266W        W91660  40.556  43.701  11.160
23267W        W91661  15.059  25.245  14.877
23268W        W91662  21.177  25.450   0.012
23269W        W91663  28.430  33.302  10.752
23270W        W91664  32.937  31.383   2.388
23271W        W91665  15.759  23.223   2.688
23272W        W91666  24.971  29.458  13.481
23273W        W91667  41.284  35.872  12.604
23274W        W91668   9.903   0.459  11.736
23275W        W91669  25.102  24.117   0.549
23276W        W91670   4.042  14.535  10.817
23277W        W91671   1.425   4.934   2.365
23278W        W91672  38.917  41.620  12.002
23279W        W91673  17.180  36.080   1.033
23280W        W91674  21.667  33.413   9.836
23281W        W91675  43.759  34.369  14.101
23282W        W91676  44.367  13.243  11.212
23283W        W91677  37.801  28.637  11.612
23284W        W91678  34.234   7.405  11.656
23285W        W91679   5.369   4.289  11.643
23286W        W91680  22.586  29.673  10.919
23287W        W91681  31.873  25.977  12.684
23288W        W91682  21.155  10.228   3.948
23289W        W91683  10.835  34.482  14.921
23290W        W91684  35.702  41.427   3.431
23291W        W91685   6.053  13.700   3.258
23292W        W91686  12.065  13.659  14.891
23293W        W91687   7.362  42.461   0.451
23294W        W91688  21.829   7.772  11.626
23295W        W91689  29.826  35.317  11.190
23296W        W91690  37.044  17.028   0.467
23297W        W91691  17.538  31.248   2.333
23298W        W91692  33.442  16.498  11.944
23299W        W91693  24.191  42.205  12.614
23300W        W91694   0.509  36.473  11.420
23301W        W91695  38.062  28.159  11.883
23302W        W91696  37.034  41.930   1.588
23303W        W91697   1.018   8.896  14.456
23304W        W91698  10.970  21.194   0.308
23305W        W91699  25.765   1.603  12.629
23306W        W91700   3.251  30.025   3.113
23307W        W91701  32.873  16.915   1.590
23308W        W91702  16.020  26.557   2.547
23309W        W91703  37.187  14.585   4.534
23310W        W91704  20.107   5.700  11.428
23311W        W91705   5.800  28.695  13.980
23312W        W91706   3.975  12.558   4.990
23313W        W91707  16.356  33.169  10.867
23314W        W91708  25.624  39.188  13.855
23315W        W91709  42.219   7.445  11.208
23316W        W91710   1.527  18.831   2.148
23317W        W91711  30.601  34.426  10.744
23318W        W91712  37.506  30.195   3.589
23319W        W91713  42.402  40.424  10.149
23320W        W91714  41.292   3.747   4.144
23321W        W91715   0.561  36.874  10.626
23322W        W91716  35.001  14.898   4.524
23323W        W91717  37.019  28.755  12.019
23324W        W91718  43.409  23.019  11.696
23325W        W91719   5.679  21.015  12.914
23326W        W91720  16.872  14.522   2.067
23327W        W91721  27.711  28.498   2.773
23328W        W91722   8.310  16.219   3.217
23329W        W91723  31.018   6.877  13.836
23330W        W91724  41.311   6.421  14.319
23331W        W91725   3.895  14.051   2.577
23332W        W91726   7.711  16.781  12.198
23333W        W91727  43.383   2.677   1.381
23334W        W91728   9.216  43.733  12.040
23335W        W91729  29.675  32.984  14.973
23336W        W91730  16.801  18.028  14.554
23337W        W91731  37.447  36.120  13.859
23338W        W91732  36.277  14.232   2.658
23339W        W91733  44.542   9.561  14.994
23340W        W91734  19.944   8.612  11.622
23341W        W91735  16.130  29.619   2.450
23342W        W91736  21.452  30.595   4.745
23343W        W91737  32.618  29.173   1.175
23344W        W91738  18.232  30.166   0.900
23345W        W91739   5.254   9.455   1.718
23346W        W91740  17.219  39.585   2.850
23347W        W91741  24.390  38.744   3.255
23348W        W91742   0.279  39.411   3.263
23349W        W91743   4.864  43.091  13.373
23350W        W91744  43.879   5.714  12.378
23351W        W91745  13.531   7.836  12.349
23352W        W91746  31.456  12.199  13.345
23353W        W91747  28.224   3.979  14.012
23354W        W91748   1.712  24.975   1.688
23355W        W91749  34.485  32.027   3.611
23356W        W91750  35.890  44.367  10.645
23357W        W91751  13.356  11.993   3.578
23358W        W91752   2.466  11.328   1.622
23359W        W91753  28.634  42.411  10.231
23360W        W91754   5.006  32.169   2.853
23361W        W91755  15.912  35.170   2.140
23362W        W91756  38.337  29.395   3.226
23363W        W91757  37.797  12.485   2.690
23364W        W91758   7.245   6.762  12.471
23365W        W91759  26.135  38.381   1.235
23366W        W91760  25.694   0.862  14.382
23367W        W91761  22.183   6.210  10.768
23368W        W91762  18.354  10.397  11.063
23369W        W91763   7.207  40.116  12.547
23370W        W91764  16.248  26.399   1.334
23371W        W91765  36.241   9.967  10.032
23372W        W91766  34.476   7.184  12.042
23373W        W91767   8.105  15.637  12.625
23374W        W91768  25.617  13.178   4.088
23375W        W91769   4.403  17.103  13.858
23376W        W91770  20.193  14.532  13.145
23377W        W91771  42.398  41.598  14.852
23378W        W91772   4.758  17.242   2.307
23379W        W91773   1.044  16.801   0.834
23380W        W91774  42.570  25.967  10.767
23381W        W91775  31.130  42.823   0.748
23382W        W91776  22.124   3.051  14.012
23383W        W91777  27.778   5.474   1.597
23384W        W91778  29.105  44.831  13.856
23385W        W91779   6.172  40.062   3.822
23386W        W91780  19.270  22.524   4.110
23387W        W91781  35.034  13.154   1.341
23388W        W91782   2.950  16.153   2.311
23389W        W91783  36.401  34.559   0.438
23390W        W91784  39.357  37.999  12.192
23391W        W91785  39.344  41.983   2.209
23392W        W91786  41.116  39.080   4.141
23393W        W91787  37.475  11.466  10.224
23394W        W91788   7.411   0.038   1.248
23395W        W91789  38.913  21.253  14.989
23396W        W91790   9.946  44.303  11.069
23397W        W91791   7.241  19.025   4.566
23398W        W91792  43.038  24.969  11.160
23399W        W91793   4.577   9.053   3.303
23400W        W91794  17.402  34.521  12.944
23401W        W91795   2.336   8.359   1.780
23402W        W91796  36.007  17.590  11.632
23403W        W91797  12.106  23.531   1.686
23404W        W91798  41.800  10.734   0.389
23405W        W91799   1.522  36.924   1.210
23406W        W91800  40.519  16.692  13.369
23407W        W91801  22.227  13.156   4.600
23408W        W91802  36.890  10.877  11.622
23409W        W91803   7.260  22.852  12.534
23410W        W91804   1.297  23.503  11.004
23411W        W91805   6.854  44.510   3.892
23412W        W91806   6.568  42.272   0.048
23413W        W91807  23.721   1.510  10.572
23414W        W91808  31.943   3.667   3.624
23415W        W91809  33.650   1.381   1.810
23416W        W91810   3.670  35.936  11.746
23417W        W91811  22.853  37.335   0.846
23418W        W91812  15.878  22.848   2.317
23419W        W91813   0.001  29.488   2.800
23420W        W91814  25.517  44.559   0.271
23421W        W91815  18.753  25.860  11.574
23422W        W91816  28.022  35.821  10.902
23423W        W91817   0.701  12.664  13.073
23424W        W91818  17.540  15.767   3.720
23425W        W91819  37.640   8.014  11.329
23426W        W91820  28.427  27.517  11.953
23427W        W91821  22.141  13.266  12.243
23428W        W91822  17.547  44.638   0.716
23429W        W91823  31.962  30.371  13.298
23430W        W91824  10.618   4.189  10.742
23431W        W91825  26.923  21.794  13.052
23432W        W91826  26.479  30.646   0.283
23433W        W91827  10.684  17.848  11.557
23434W        W91828  29.564   8.474   4.571
23435W        W91829  24.097  15.405   1.896
23436W        W91830  33.372  12.441   2.229
23437W        W91831  24.060  39.973  11.443
23438W        W91832  38.481   5.322   0.560
23439W        W91833  20.237  21.608   1.755
23440W        W91834   6.070   1.844   0.007
23441W        W91835  23.738  39.823   4.770
23442W        W91836  12.843   6.482   5.039
23443W        W91837  24.175   8.679   5.100
23444W        W91838  44.086  17.160  11.907
23445W        W91839  27.449   2.096  12.897
23446W        W91840  18.255  41.497  13.020
23447W        W91841  40.788  13.208  10.993
23448W        W91842  39.082  18.340   3.223
23449W        W91843   0.394  23.068  13.877
23450W        W91844  22.453  10.474  10.640
23451W        W91845  21.121  37.558  14.796
23452W        W91846   5.620   1.620  12.069
23453W        W91847  24.578  43.007  12.486
23454W        W91848  34.513  42.046  14.547
23455W        W91849   4.426  12.102   2.409
23456W        W91850  30.456  37.600  10.910
23457W        W91851  22.450  26.227  13.841
23458W        W91852  35.625  20.604  12.224
23459W        W91853  14.214  44.244  14.425
23460W        W91854  41.242  19.235  14.043
23461W        W91855  18.771  11.097  10.729
23462W        W91856  31.947  20.071  10.598
23463W        W91857   6.580   2.744  11.408
23464W        W91858  29.195  17.716   4.334
23465W        W91859  22.260  42.363  14.117
23466W        W91860  37.490  18.027  13.593
23467W        W91861  12.297  14.132  12.446
23468W        W91862  22.761  30.147   4.641
23469W        W91863   3.289  10.366  13.051
23470W        W91864   1.214  20.068  11.593
23471W        W91865   3.769  34.460   3.663
23472W        W91866  24.149  40.007   1.342
23473W        W91867  23.830  12.081   0.773
23474W        W91868  15.107   5.728  11.614
23475W        W91869  30.442  35.983   2.707
23476W        W91870  23.063  25.413  13.160
23477W        W91871  27.749  15.170   0.929
23478W        W91872  33.992   7.254   2.342
23479W        W91873  14.488  30.823  13.021
23480W        W91874  44.799  19.938  14.540
23481W        W91875  24.536  22.786   4.125
23482W        W91876  22.757  19.986  11.961
23483W        W91877  44.643  29.498   0.095
23484W        W91878   6.986   9.415   2.865
23485W        W91879  18.552  24.638  10.681
23486W        W91880  40.827   2.785   0.367
23487W        W91881  39.854  37.524  11.028
23488W        W91882  16.720  32.599   2.903
23489W        W91883  34.175   2.921   4.638
23490W        W91884  10.317   3.351   3.995
23491W        W91885  40.618  44.896   2.652
23492W        W91886  34.531  40.636   1.418
23493W        W91887   4.680  19.035   3.696
23494W        W91888  41.968  31.404   1.997
23495W        W91889   9.231  41.037  11.639
23496W        W91890  42.091  31.287   0.789
23497W        W91891  22.610  36.078   3.022
23498W        W91892  26.636  18.128  12.492
23499W        W91893  14.371  35.114  11.813
23500W        W91894  13.979   8.688  14.897
23501W        W91895   9.777  33.583  12.498
23502W        W91896  15.546  14.860   1.296
23503W        W91897  27.258   8.802   0.414
23504W        W91898  25.719  20.383   4.697
23505W        W91899  38.455   6.268  11.945
23506W        W91900  14.796  18.314   0.226
23507W        W91901  19.851  27.422  11.656
23508W        W91902   3.930  45.000  14.280
23509W        W91903  40.124  30.290   0.373
23510W        W91904  29.115  28.429  11.138
23511W        W91905  29.298   0.385  10.197
23512W        W91906  22.215  43.971  12.499
23513W        W91907  44.845   9.323   3.403
23514W        W91908  30.366  26.490   2.296
23515W        W91909   2.312  18.326  14.544
23516W        W91910   1.462  40.881  13.952
23517W        W91911  18.149  16.304   3.699
23518W        W91912  25.106  17.038   0.116
23519W        W91913  31.199  32.905  13.124
23520W        W91914  19.737  23.022  10.436
23521W        W91915  21.821   4.369  10.378
23522W        W91916   1.751  24.200   5.007
23523W        W91917  37.068  35.366   4.180
23524W        W91918  12.765  35.019   1.187
23525W        W91919  40.306  40.909   1.503
23526W        W91920  29.695   6.354   2.348
23527W        W91921   1.244   9.545  11.073
23528W        W91922  20.417  31.011   3.307
23529W        W91923  44.340  33.175  11.391
23530W        W91924  16.290  33.937  10.720
23531W        W91925  26.535  27.437   4.581
23532W        W91926  12.416  29.022  10.742
23533W        W91927  44.804  21.928  10.671
23534W        W91928   5.366   2.697  11.112
23535W        W91929   1.218  43.850  13.830
23536W        W91930  32.026   8.464  12.973
23537W        W91931   3.891  39.347  10.394
23538W        W91932  34.096   1.765  13.553
23539W        W91933  29.219  25.720  14.937
23540W        W91934   9.112  13.334  13.966
23541W        W91935  30.557   4.953  11.128
23542W        W91936  37.485  28.493   3.341
23543W        W91937   2.554  42.123   4.345
23544W        W91938  33.477  35.226  15.000
23545W        W91939  20.368   2.742   2.663
23546W        W91940  25.227  28.150   4.255
23547W        W91941  17.105   2.291  11.477
23548W        W91942  14.142  44.338   1.482
23549W        W91943  13.859  27.050  11.580
23550W        W91944  26.433  25.561  10.690
23551W        W91945  27.512  42.535   1.493
23552W        W91946  12.432  29.926   0.356
23553W        W91947   4.967   7.300  11.480
23554W        W91948  24.908  27.622   3.268
23555W        W91949  12.909   5.174  14.594
23556W        W91950  16.421  37.567   4.586
23557W        W91951  20.007  13.481   3.236
23558W        W91952  29.676  30.980   4.583
23559W        W91953  36.398   4.959   2.159
23560W        W91954  20.447  43.042  10.770
23561W        W91955  39.966  29.095  13.537
23562W        W91956   8.569  24.971  14.411
23563W        W91957  39.844  11.282   3.165
23564W        W91958   0.934  20.870   0.805
23565W        W91959  42.345  21.443   4.368
23566W        W91960  11.423  22.690   4.162
23567W        W91961   5.893   1.734  13.575
23568W        W91962  11.713  39.939  11.572
23569W        W91963  30.025   0.016  12.887
23570W        W91964  41.042  29.176   3.737
23571W        W91965   5.908  14.782  10.271
23572W        W91966  35.842  39.311  12.529
23573W        W91967  18.021  38.891   2.274
23574W        W91968  36.435  24.777  13.366
23575W        W91969  35.473  23.972  14.355
23576W        W91970  33.125  11.824   1.679
23577W        W91971  31.449  34.544   0.196
23578W        W91972  20.635  12.875  11.180
23579W        W91973  19.363   8.877   1.809
23580W        W91974  31.628  44.064   1.451
23581W        W91975  11.135  28.406  12.676
23582W        W91976  20.628  23.118  14.783
23583W        W91977  34.438  24.789   0.335
23584W        W91978  19.238  44.371  10.175
23585W        W91979  32.679  17.984  12.104
23586W        W91980  13.828   0.772   1.711
23587W        W91981  27.206  39.042   2.412
23588W        W91982  27.067   5.963   1.097
23589W        W91983   3.897  41.993   0.475
23590W        W91984  25.137  37.727   0.946
23591W        W91985  21.581  30.068   1.971
23592W        W91986  28.060  19.588   0.930
23593W        W91987  41.245   6.152  11.193
23594W        W91988   8.611  27.702   0.023
23595W        W91989  31.398   7.102   3.853
23596W        W91990  20.941  24.221  14.008
23597W        W91991  29.113  25.172   4.278
23598W        W91992  11.364   3.259   4.581
23599W        W91993  34.446  12.379   2.701
23600W        W91994  11.662  12.964   1.806
23601W        W91995  40.029   6.460  11.526
23602W        W91996   7.890  37.645  14.898
23603W        W91997  22.764   5.306   3.543
23604W        W91998  41.186  14.516   0.126
23605W        W91999   3.708  11.657  11.517
23606W        W92000  16.763  37.863   2.679
23607W        W92001   9.821  39.777   1.736
23608W        W92002  13.781   4.093   2.626
23609W        W92003  41.957  36.508   3.837
23610W        W92004   0.927  35.474   0.227
23611W        W92005  21.630  12.253   0.416
23612W        W92006   7.875  40.521   0.318
23613W        W92007  17.633   0.521   0.413
23614W        W92008   9.630  37.521   2.420
23615W        W92009  18.853   3.850  10.605
23616W        W92010   5.796  39.647  12.087
23617W        W92011  24.657  12.313  13.485
23618W        W92012   6.492   9.273   2.980
23619W        W92013   2.713  21.172   4.531
23620W        W92014   5.962  39.812   2.445
23621W        W92015  37.029  43.935   3.967
23622W        W92016  15.343  42.763   2.747
23623W        W92017  37.153   9.942  12.575
23624W        W92018  39.897  17.805   0.171
23625W        W92019   6.435   5.842  12.533
23626W        W92020   2.180   8.794  10.820
23627W        W92021  20.249  14.796  13.609
23628W        W92022  38.092  25.675  13.735
23629W        W92023  21.034  20.559   2.249
23630W        W92024  38.447  12.567   4.413
23631W        W92025  38.268  31.474   4.636
23632W        W92026   5.237  11.895   0.511
23633W        W92027   0.320  27.445   4.606
23634W        W92028  19.003  26.929  14.200
23635W        W92029  32.300   8.726  13.480
23636W        W92030  25.044  17.387   3.327
23637W        W92031  24.528  42.196   3.188
23638W        W92032   1.945  36.585   1.206
23639W        W92033   2.187  32.511   4.225
23640W        W92034  41.047   0.221   0.928
23641W        W92035  17.468  16.414   4.551
23642W        W92036  15.049  37.398   1.325
23643W        W92037  14.686   1.962  13.568
23644W        W92038   8.841  29.684  13.921
23645W        W92039   1.777  32.547   1.910
23646W        W92040  10.920  21.520  12.104
23647W        W92041  11.929   9.641  10.639
23648W        W92042  30.043  12.721   3.341
23649W        W92043  30.535  18.731   3.571
23650W        W92044   8.092  27.651   0.041
23651W        W92045  15.147  12.300  13.486
23652W        W92046   3.933  44.727   2.633
23653W        W92047   8.165  12.272  10.753
23654W        W92048  40.980   4.725  12.201
23655W        W92049  35.069   8.800   2.348
23656W        W92050  26.023  19.703   4.179
23657W        W92051   1.767  10.893   3.385
23658W        W92052  11.871  35.965   4.508
23659W        W92053  29.443  27.021   2.726
23660W        W92054  26.973  28.077  11.762
23661W        W92055   1.443  15.563   2.312
23662W        W92056  24.399  43.457   4.947
23663W        W92057   9.324  37.907  14.517
23664W        W92058  12.799  21.380  11.997
23665W        W92059  20.930  35.853   1.428
23666W        W92060  17.550   3.926  12.935
23667W        W92061  40.972  20.573  13.929
23668W        W92062  21.491   7.117  10.797
23669W        W92063  38.183   1.891  12.987
23670W        W92064  39.847  31.182   4.121
23671W        W92065   0.222  19.209  12.508
23672W        W92066   3.858  35.525   3.900
23673W        W92067  31.184  41.021   1.717
23674W        W92068  17.992   6.272   0.291
23675W        W92069  35.412   1.030   4.490
23676W        W92070   2.202  25.531  14.036
23677W        W92071  38.120  21.491   2.836
23678W        W92072  11.695  17.059   3.625
23679W        W92073  13.625  17.381  12.836
23680W        W92074  19.312  37.052  10.181
23681W        W92075  31.802  15.139  14.867
23682W        W92076  21.702  26.993  10.653
23683W        W92077  18.405  27.771  11.208
23684W        W92078   3.973   5.277  11.183
23685W        W92079  10.769   9.030   0.292
23686W        W92080  27.242  22.042  13.393
23687W        W92081  30.165  40.062  10.485
23688W        W92082  24.721  34.957   3.341
23689W        W92083  23.378  21.135   0.401
23690W        W92084  34.296  26.892   2.853
23691W        W92085  39.011  36.059  11.410
23692W        W92086   5.912   0.400   1.978
23693W        W92087  42.294  10.611   0.299
23694W        W92088  40.119  23.193  10.988
23695W        W92089   3.714  16.155  13.872
23696W        W92090   3.182  17.535  12.097
23697W        W92091  15.156  21.659  10.657
23698W        W92092   4.496  40.442   4.097
23699W        W92093   9.906  30.742   4.088
23700W        W92094  38.910  27.707   0.004
23701W        W92095  11.282  12.443   0.963
23702W        W92096   4.522   7.164  13.478
23703W        W92097  19.639  41.407   4.726
23704W        W92098  15.225  38.638  12.918
23705W        W92099   5.716  16.410  14.070
23706W        W92100  25.161   4.896  10.643
23707W        W92101   7.246  19.560  10.599
23708W        W92102  33.512  34.144  11.939
23709W        W92103  42.823  10.135   3.110
23710W        W92104   3.376   8.136  10.822
23711W        W92105   0.963   5.824   4.870
23712W        W92106  22.604  36.409   1.708
23713W        W92107   2.281  35.940  13.018
23714W        W92108  22.282  13.290   3.689
23715W        W92109  21.148  38.312   3.505
23716W        W92110  14.353  25.626   4.316
23717W        W92111  40.062  33.456   4.385
23718W        W92112  10.981  36.941  10.732
23719W        W92113  31.072  25.732  14.575
23720W        W92114  42.662  42.975  13.204
23721W        W92115  13.503  16.536  13.349
23722W        W92116  17.371   1.463  11.097
23723W        W92117  33.334  11.736   4.646
23724W        W92118  32.861  28.092  10.518
23725W        W92119  20.792   9.842  12.575
23726W        W92120   4.364   7.000   2.829
23727W        W92121  19.883   5.330   0.875
23728W        W92122  20.074  14.679   0.865
23729W        W92123  43.885  31.619  12.824
23730W        W92124   0.680   2.986   1.224
23731W        W92125   3.701  41.436   1.841
23732W        W92126   4.175  28.272   0.070
23733W        W92127   5.111  19.319  12.571
23734W        W92128  15.323  20.101  10.728
23735W        W92129  33.847   4.479  11.029
23736W        W92130  14.869   4.645   0.402
23737W        W92131  19.552  27.553   2.467
23738W        W92132  37.878  26.993  12.615
23739W        W92133  31.373  31.477   3.130
23740W        W92134  12.670  26.694  13.332
23741W        W92135  11.872   4.348   4.185
23742W        W92136   1.457  24.036   0.521
23743W        W92137   1.227   8.101  14.333
23744W        W92138  32.968  22.676   3.394
23745W        W92139  13.609  38.551   1.485
23746W        W92140  38.031  26.128   3.365
23747W        W92141  37.333  30.523   0.905
23748W        W92142   2.740  25.962   1.350
23749W        W92143  42.920  14.035  12.548
23750W        W92144  42.044  20.724  10.759
23751W        W92145   3.426  42.507   4.764
23752W        W92146  21.643   1.911   4.584
23753W        W92147  33.111  41.973  12.473
23754W        W92148  43.003   8.395  13.542
23755W        W92149  23.847  18.847  11.296
23756W        W92150  34.844  22.707  14.254
23757W        W92151   6.836  19.042   3.768
23758W        W92152  32.013  32.572   3.605
23759W        W92153  23.599  20.917   1.181
23760W        W92154  13.223  18.930  10.663
23761W        W92155  42.380  35.386  12.382
23762W        W92156  23.411  10.164  13.009
23763W        W92157  36.159  40.375   4.925
23764W        W92158  31.321  29.034  11.599
23765W        W92159  18.829   5.293  14.914
23766W        W92160  25.188  33.361   2.025
23767W        W92161  24.539  29.936   4.385
23768W        W92162  44.289  36.473  12.083
23769W        W92163   9.726  32.318   1.717
23770W        W92164  24.478   3.203   0.200
23771W        W92165   7.232   2.375   0.806
23772W        W92166   9.770   3.157   1.760
23773W        W92167  13.855   8.375   1.646
23774W        W92168   9.171  22.282  14.015
23775W        W92169  25.444   9.675   4.087
23776W        W92170   9.364  16.340   3.723
23777W        W92171  33.178  22.157   3.361
23778W        W92172  15.612  27.470   4.492
23779W        W92173   2.782  23.518   4.568
23780W        W92174  13.824   8.809  13.606
23781W        W92175   2.738   9.136  12.900
23782W        W92176  23.013  43.874   4.986
23783W        W92177  37.913  20.585  10.736
23784W        W92178  34.732  43.704   0.764
23785W        W92179  21.041   5.863  11.411
23786W        W92180  41.117  37.312   3.657
23787W        W92181  35.621  32.575  14.772
23788W        W92182   1.126   0.152   0.645
23789W        W92183  27.626  21.383   4.139
23790W        W92184  22.781  10.771  12.644
23791W        W92185  35.608  18.609   1.255
23792W        W92186  41.268  29.398   0.903
23793W        W92187  29.876  44.638   2.741
23794W        W92188  37.830  26.127   1.640
23795W        W92189  10.504  14.094   4.178
23796W        W92190  19.309   4.720   2.724
23797W        W92191  17.127  22.701   0.768
23798W        W92192  13.841  13.021  12.739
23799W        W92193  37.116  32.499   3.039
23800W        W92194  35.081  10.103   4.196
23801W        W92195  17.873   7.292  12.413
23802W        W92196  40.841   2.924  10.792
23803W        W92197  41.595  25.692  12.501
23804W        W92198  31.044  16.392  12.559
23805W        W92199  19.135  33.653  13.275
23806W        W92200  19.556  31.811   1.146
23807W        W92201  12.226  26.173   1.842
23808W        W92202  43.364  21.681  11.561
23809W        W92203  30.804  39.623   1.199
23810W        W92204  17.554  12.591   3.198
23811W        W92205  41.761   7.941   3.885
23812W        W92206  30.022  42.819  13.415
23813W        W92207   9.173  19.974   3.166
23814W        W92208  13.322  28.314  11.156
23815W        W92209  11.760   5.303  13.175
23816W        W92210  12.628  36.805  11.576
23817W        W92211  21.280  12.846   4.406
23818W        W92212  20.838  31.675   2.226
23819W        W92213  27.988  38.574   2.311
23820W        W92214  43.049  40.508  10.325
23821W        W92215   1.194  10.870   4.856
23822W        W92216  23.100  25.449  12.149
23823W        W92217  29.239  34.784  10.532
23824W        W92218   2.961   4.172   3.998
23825W        W92219   6.415  29.065   4.893
23826W        W92220  23.700  41.075   2.316
23827W        W92221  41.347  30.427  12.644
23828W        W92222  27.178  30.650   0.804
23829W        W92223  10.408  29.067   4.523
23830W        W92224   1.376  28.234   4.409
23831W        W92225  28.528   5.402   1.249
23832W        W92226   3.366  29.687   1.892
23833W        W92227  30.535   3.339  12.827
23834W        W92228  40.707  14.765  12.975
23835W        W92229  13.300   3.487  13.983
23836W        W92230  39.467  27.069  13.843
23837W        W92231   3.929  16.843  10.237
23838W        W92232  40.439  25.657  12.464
23839W        W92233  39.283  31.610   2.967
23840W        W92234  19.758   2.917  14.362
23841W        W92235  29.657  34.806  13.064
23842W        W92236  30.472  21.971  12.098
23843W        W92237  28.535  24.718   0.446
23844W        W92238  40.455   1.280   1.995
23845W        W92239  22.560  23.460  13.488
23846W        W92240  32.844  42.459  12.424
23847W        W92241  25.814  28.421  12.896
23848W        W92242  20.308  44.342  10.833
23849W        W92243  11.702  12.881  12.885
23850W        W92244  11.158  19.545   2.800
23851W        W92245  39.352  20.072   0.394
23852W        W92246  43.032  23.419   3.694
23853W        W92247  17.234  26.684   2.689
23854W        W92248  12.774  19.867   2.743
23855W        W92249   3.827  19.746   0.927
23856W        W92250  19.424  24.730   2.873
23857W        W92251  26.905   3.302  10.788
23858W        W92252  42.484  30.343  12.485
23859W        W92253  11.689  28.481  13.986
23860W        W92254  40.270  15.612  12.948
23861W        W92255  17.137  21.958   1.942
23862W        W92256  30.689  21.662  14.084
23863W        W92257  17.655  10.307   3.639
23864W        W92258  12.803  33.763   1.240
23865W        W92259   5.276  42.580  14.782
23866W        W92260  39.658  37.593  10.482
23867W        W92261  44.018  27.531  13.241
23868W        W92262  30.684  35.129   4.694
23869W        W92263   1.871   9.779   4.444
23870W        W92264  35.003  41.771   3.248
23871W        W92265  32.069  25.057   2.252
23872W        W92266  29.927  20.988  11.609
23873W        W92267  27.781  39.336   4.644
23874W        W92268   1.272  29.925   0.985
23875W        W92269  23.545  25.468   0.828
23876W        W92270  18.371  30.009   2.766
23877W        W92271  15.851  10.603  14.176
23878W        W92272  12.882   0.465  11.670
23879W        W92273  33.104  26.816   5.107
23880W        W92274  14.377  14.396   3.035
23881W        W92275  22.938  26.744  12.439
23882W        W92276  17.743  41.362   0.395
23883W        W92277  26.456  15.274   0.399
23884W        W92278  15.560  14.719  12.656
23885W        W92279  35.471  40.792  14.437
23886W        W92280  28.640  40.350   1.022
23887W        W92281   4.411   8.288   3.229
23888W        W92282  33.580  18.904  13.813
23889W        W92283   5.747  31.405  12.588
23890W        W92284  10.382  12.785   0.748
23891W        W92285   2.212   6.387  10.722
23892W        W92286  10.881  35.497   0.113
23893W        W92287  13.299  44.018   4.596
23894W        W92288   9.234  34.883   2.240
23895W        W92289  42.085   0.070  12.442
23896W        W92290  15.210  43.400   0.223
23897W        W92291   1.793  19.622   4.357
23898W        W92292   9.933  21.654   4.171
23899W        W92293   2.650  21.817  14.356
23900W        W92294  25.966  43.148   2.577
23901W        W92295  27.264  23.327  11.323
23902W        W92296  14.384   9.525  10.947
23903W        W92297  28.971  12.072   3.199
23904W        W92298  30.644  14.069  13.404
23905W        W92299  26.459  15.208  12.782
23906W        W92300  12.208  26.868  11.102
23907W        W92301  28.925  17.360   2.285
23908W        W92302  12.516  21.196  12.447
23909W        W92303   5.232   2.502  14.233
23910W        W92304   3.676  36.122   0.306
23911W        W92305  22.560   3.812   1.252
23912W        W92306  39.909  38.586   1.305
23913W        W92307  34.539   1.845  13.804
23914W        W92308  12.773  39.548  10.521
23915W        W92309   3.485  32.147   2.856
23916W        W92310   7.734   2.581  14.545
23917W        W92311  17.691  25.993  13.558
23918W        W92312  12.303  36.214   4.429
23919W        W92313  32.990  17.287   2.601
23920W        W92314  29.090  39.818   2.313
23921W        W92315  44.039  35.848  12.019
23922W        W92316   9.391  16.653   9.910
23923W        W92317  31.830  11.595   1.317
23924W        W92318  16.646  29.422   3.734
23925W        W92319  20.907  10.845  11.918
23926W        W92320  38.263  39.757   0.096
23927W        W92321  19.328   2.276   3.212
23928W        W92322  37.237   1.055   4.220
23929W        W92323  26.557  33.155   0.456
23930W        W92324  16.790  14.193   1.258
23931W        W92325  21.359  22.798  11.599
23932W        W92326  25.662  13.067  13.000
23933W        W92327  42.291  38.105  10.863
23934W        W92328  24.473  23.221   1.181
23935W        W92329  10.397  33.991  11.686
23936W        W92330  11.832  22.750   1.288
23937W        W92331   0.993  10.163  13.768
23938W        W92332  44.887  13.155  12.453
23939W        W92333  42.345  32.007   1.800
23940W        W92334   8.795  30.569  14.912
23941W        W92335  40.495  21.934  12.870
23942W        W92336  31.157   8.659   2.428
23943W        W92337  15.709  35.050  12.032
23944W        W92338  23.237  18.183   4.163
23945W        W92339  14.745  15.550  12.012
23946W        W92340   7.132   4.420  14.441
23947W        W92341  40.312  32.433  11.526
23948W        W92342   7.275  11.057   4.623
23949W        W92343   7.284  21.542  14.991
23950W        W92344   2.054   3.005   4.263
23951W        W92345  35.636  17.800   3.572
23952W        W92346   7.892  20.677  10.814
23953W        W92347  34.105  41.551   0.414
23954W        W92348  28.755  20.668   0.886
23955W        W92349  33.002   0.260  14.964
23956W        W92350   4.572  29.629  12.905
23957W        W92351  27.371   5.902  13.264
23958W        W92352  33.378  30.392  12.290
23959W        W92353  34.052  28.085   4.172
23960W        W92354  13.633  41.828  11.717
23961W        W92355  32.616  24.669  14.047
23962W        W92356   2.578  44.976   2.309
23963W        W92357  19.635  13.875  11.912
23964W        W92358  31.780  16.696   0.242
23965W        W92359  13.860  20.150   4.463
23966W        W92360  13.789  26.693  10.682
23967W        W92361  16.303  28.857   2.624
23968W        W92362  14.869  32.119  12.511
23969W        W92363  24.503  34.655   1.713
23970W        W92364   6.287  18.979   0.311
23971W        W92365  23.944   4.710  14.255
23972W        W92366   3.485  29.670   2.409
23973W        W92367   0.005  36.416  10.274
23974W        W92368   5.810  12.777   2.794
23975W        W92369  32.243  35.350  14.290
23976W        W92370   9.106  23.562  13.497
23977W        W92371  11.448  35.368  13.912
23978W        W92372  27.363  32.095  10.527
23979W        W92373  34.812   6.077  11.531
23980W        W92374  26.759  40.531   3.184
23981W        W92375  40.714  37.738  11.612
23982W        W92376  21.235  41.439   2.352
23983W        W92377  15.104  44.292   2.883
23984W        W92378  22.810   7.723   4.319
23985W        W92379  15.903  41.314  12.197
23986W        W92380  14.619   2.696  14.330
23987W        W92381   6.375  17.675  14.791
23988W        W92382  35.590  33.502  11.621
23989W        W92383  11.194   6.916   1.760
23990W        W92384  18.645  23.606  14.743
23991W        W92385  20.727   9.395   2.882
23992W        W92386  14.618  29.929   3.078
23993W        W92387  33.758   1.142  12.491
23994W        W92388  30.849  43.333   0.757
23995W        W92389   4.446  19.726   1.814
23996W        W92390  10.857  14.741  13.368
23997W        W92391  11.781   3.867   1.965
23998W        W92392  36.038   4.224   2.387
23999W        W92393  36.076  18.575   4.641
24000W        W92394  12.717  41.773   0.783
24001W        W92395  25.171  23.228  12.979
24002W        W92396  30.703   5.697  13.877
24003W        W92397  18.065  10.058   1.381
24004W        W92398   5.423  31.740   0.615
24005W        W92399  28.209  11.392   2.321
24006W        W92400  12.109  43.274   0.277
24007W        W92401  38.427  17.451   4.632
24008W        W92402   5.921  44.418  12.934
24009W        W92403  28.591  29.544   3.059
24010W        W92404  29.345  23.494  14.301
24011W        W92405   4.900  16.031  11.651
24012W        W92406   4.879  44.828   0.720
24013W        W92407   3.463  23.267   2.184
24014W        W92408  41.966  20.695   1.313
24015W        W92409  14.784  10.354  13.861
24016W        W92410  36.673   3.478  14.350
24017W        W92411   7.726   8.643  11.298
24018W        W92412  32.026   1.043   2.588
24019W        W92413   8.481  12.748   4.531
24020W        W92414  28.525  11.743   4.338
24021W        W92415   0.272  17.504   0.878
24022W        W92416  44.480  40.425  13.096
24023W        W92417  41.470   7.973   2.536
24024W        W92418   8.321   9.598   1.435
24025W        W92419  39.004  36.297   2.279
24026W        W92420  10.630   5.739  13.546
24027W        W92421  35.515  17.329   0.034
24028W        W92422  15.835   2.914  14.195
24029W        W92423  14.147  30.980   4.779
24030W        W92424  41.442   1.883  11.106
24031W        W92425  43.727  38.594  11.625
24032W        W92426  15.605  26.185   4.141
24033W        W92427  28.295   3.399  12.890
24034W        W92428   1.487  28.496   1.730
24035W        W92429  26.744  28.822   2.624
24036W        W92430  43.645  32.609   0.314
24037W        W92431  31.167  42.799   1.268
24038W        W92432  28.628  16.162   0.265
24039W        W92433  18.717  43.470  10.866
24040W        W92434   4.175  19.755  11.422
24041W        W92435  25.515  36.277  12.451
24042W        W92436  27.040  27.533   4.530
24043W        W92437  17.854  43.836  13.025
24044W        W92438  11.134  13.590  12.501
24045W        W92439  26.975  29.908   1.121
24046W        W92440  12.270   7.332   3.244
24047W        W92441  31.154  25.274  13.481
24048W        W92442  27.738  29.566   1.348
24049W        W92443  40.527   1.750   2.229
24050W        W92444  35.349  31.221  12.974
24051W        W92445   0.407  16.293  12.392
24052W        W92446  26.250   9.941   0.828
24053W        W92447  41.977  13.543  10.951
24054W        W92448  38.865  44.317   3.068
24055W        W92449  40.576   2.931  12.955
24056W        W92450  43.057  19.824  13.548
24057W        W92451   0.912  43.883  11.587
24058W        W92452   6.850  22.520   3.774
24059W        W92453   4.076   3.156   0.520
24060W        W92454   8.860   0.291  11.904
24061W        W92455  29.625  44.959  12.120
24062W        W92456  38.666  35.461   3.372
24063W        W92457  13.004  41.900   5.026
24064W        W92458  18.725  24.712   2.230
24065W        W92459  42.561  43.898  12.162
24066W        W92460   5.402  15.404  13.110
24067W        W92461  29.742  12.547  13.026
24068W        W92462   1.765  43.997   0.889
24069W        W92463  44.259   8.816   0.525
24070W        W92464  33.584  26.249   2.220
24071W        W92465  42.540  38.539  10.269
24072W        W92466  30.386  20.405  13.670
24073W        W92467  36.022  29.985   1.915
24074W        W92468  40.216  36.079  10.654
24075W        W92469  23.769   4.784   3.220
24076W        W92470  18.440   6.570   1.823
24077W        W92471  17.769  42.217  11.017
24078W        W92472  32.210  37.188  14.484
24079W        W92473  28.878   2.069  14.899
24080W        W92474   7.122  33.010   2.695
24081W        W92475  26.447  43.309   1.856
24082W        W92476   5.150  29.180   3.216
24083W        W92477  30.399  31.016  14.131
24084W        W92478  11.232  15.326   0.739
24085W        W92479  30.668   7.677   3.845
24086W        W92480  34.840  24.492  13.483
24087W        W92481  39.268  33.650   1.409
24088W        W92482   9.276  43.224   3.705
24089W        W92483  22.562  19.912  10.591
24090W        W92484  22.664   5.457   4.039
24091W        W92485   0.795  30.666   1.991
24092W        W92486  34.848  20.131   1.701
24093W        W92487  38.308   2.312   0.031
24094W        W92488  38.462  41.536   2.557
24095W        W92489  20.722  26.610  14.077
24096W        W92490   3.287  37.935  14.248
24097W        W92491   1.006  29.118  13.324
24098W        W92492  22.089  24.996   0.849
24099W        W92493  21.974  38.270  13.391
24100W        W92494  32.508  36.596   3.698
24101W        W92495  35.517  23.938   1.614
24102W        W92496  11.254   1.465  14.116
24103W        W92497  42.023  18.815  12.510
24104W        W92498  29.432  10.631  13.900
24105W        W92499  17.201  33.124   1.952
24106W        W92500  30.918  44.541  12.029
24107W        W92501  23.638   5.440   2.388
24108W        W92502   3.000  23.057   0.426
24109W        W92503  37.414   7.723  13.852
24110W        W92504  24.750  21.128  12.137
24111W        W92505  44.891  20.015   1.106
24112W        W92506  41.189  33.359   3.585
24113W        W92507   6.683  44.036  12.051
24114W        W92508  41.127   1.383  11.136
24115W        W92509  32.156  35.022   0.470
24116W        W92510  29.717   2.206   4.163
24117W        W92511  42.116  28.999  11.213
24118W        W92512  24.156  30.928  14.283
24119W        W92513  44.509  18.772  14.974
24120W        W92514   8.861   7.469   3.778
24121W        W92515  33.380  23.660  10.568
24122W        W92516  18.863  35.435  12.833
24123W        W92517  31.058  34.937   2.317
24124W        W92518  12.729  36.432   3.332
24125W        W92519  29.034  30.040  11.178
24126W        W92520  14.544  32.544  11.612
24127W        W92521  30.447   6.207   3.641
24128W        W92522   2.205  12.300  11.469
24129W        W92523  36.279  17.734  14.715
24130W        W92524  18.559   2.725   1.008
24131W        W92525   5.142  10.937   1.808
24132W        W92526  16.076  11.830   2.322
24133W        W92527   8.938  35.064   0.741
24134W        W92528  32.399  20.607   0.463
24135W        W92529   9.125  12.838  12.417
24136W        W92530  40.873  23.625   0.412
24137W        W92531  10.295  42.634   2.252
24138W        W92532  21.743  14.723   2.392
24139W        W92533  42.961  41.359   2.838
24140W        W92534  34.116   1.262   0.434
24141W        W92535  39.483  31.836  10.623
24142W        W92536   3.880  31.089   0.513
24143W        W92537  21.761  18.708  10.420
24144W        W92538  38.391  18.434   4.712
24145W        W92539  41.245  22.200   3.447
24146W        W92540  44.238  39.529  13.897
24147W        W92541  11.640  41.529  10.800
24148W        W92542  24.048  20.705  11.625
24149W        W92543   1.411  39.626   1.600
24150W        W92544  33.589  17.269  14.504
24151W        W92545   8.598  33.882  11.241
24152W        W92546   0.354   1.255  14.210
24153W        W92547  20.189  19.569  10.668
24154W        W92548  13.541  18.356   1.951
24155W        W92549  37.415  12.792  11.222
24156W        W92550  24.833  42.698   1.709
24157W        W92551  31.076  33.317   1.774
24158W        W92552  31.405  42.470  13.571
24159W        W92553  14.366  19.774  12.469
24160W        W92554  10.744  34.791   2.634
24161W        W92555  34.964  21.711  10.812
24162W        W92556  40.549   1.737  11.669
24163W        W92557   5.139   9.773   3.240
24164W        W92558   4.447   3.118   4.580
24165W        W92559   3.035   6.235   0.971
24166W        W92560  14.934  36.193  12.968
24167W        W92561  11.102   1.969   1.381
24168W        W92562   9.737  20.157  14.289
24169W        W92563  15.761  29.503   4.247
24170W        W92564  13.896   9.571  14.881
24171W        W92565   8.237  13.557   2.783
24172W        W92566  40.378  35.903  13.545
24173W        W92567   0.354  23.794   1.291
24174W        W92568   7.241  22.340  12.481
24175W        W92569  43.069  18.854   2.784
24176W        W92570  22.735  33.505   0.302
24177W        W92571  12.345   5.861   2.823
24178W        W92572  34.093   1.502   0.888
24179W        W92573  29.489  22.415  14.039
24180W        W92574  21.806  40.340  14.449
24181W        W92575  10.169  28.181  14.279
24182W        W92576   2.121  31.429   0.413
24183W        W92577  11.839  17.157  14.333
24184W        W92578   9.229  14.060   1.699
24185W        W92579  29.309  30.656   4.311
24186W        W92580  28.979   5.456  14.981
24187W        W92581  44.875  41.144  11.617
24188W        W92582   4.937  42.218  13.134
24189W        W92583  11.255  21.173  14.812
24190W        W92584  22.678   4.433  12.851
24191W        W92585  13.346  28.928  10.323
24192W        W92586  29.180   4.395   0.348
24193W        W92587   7.954  16.575   0.210
24194W        W92588   1.326   8.353   1.908
24195W        W92589  35.840   5.660  12.884
24196W        W92590  12.397  44.098   4.581
24197W        W92591  30.224  25.589  11.535
24198W        W92592  20.577  23.289   4.385
24199W        W92593  38.541  12.694  14.336
24200W        W92594   7.859  25.431  14.829
24201W        W92595  26.527  13.704  11.255
24202W        W92596  23.226  14.232  10.696
24203W        W92597  44.559  24.882  10.191
24204W        W92598  39.842  35.107  12.910
24205W        W92599  36.366  35.169   3.272
24206W        W92600  18.888  28.587  14.894
24207W        W92601  25.854  33.758  14.392
24208W        W92602  15.112  16.755   0.801
24209W        W92603   9.994  38.306   1.361
24210W        W92604  27.198  19.219   4.481
24211W        W92605  35.822  15.350  12.095
24212W        W92606  34.394  19.127   1.194
24213W        W92607  34.073  29.763   4.081
24214W        W92608  40.879   5.817  13.028
24215W        W92609  11.756   0.873   0.109
24216W        W92610  27.025  30.829  11.464
24217W        W92611  24.103  15.849   0.642
24218W        W92612  44.361  34.291   9.975
24219W        W92613   3.355  37.487  14.558
24220W        W92614   2.285  25.773   2.873
24221W        W92615  33.122  31.640  12.033
24222W        W92616  35.359  27.986  13.961
24223W        W92617   7.631  34.028  11.165
24224W        W92618  14.628  39.897  13.972
24225W        W92619  35.890  17.236   3.484
24226W        W92620   9.660  41.490  11.862
24227W        W92621  40.271  37.377  14.274
24228W        W92622   1.679   1.779   4.702
24229W        W92623  25.622   9.430  14.743
24230W        W92624  38.611  17.843  11.270
24231W        W92625  12.213  24.969   2.291
24232W        W92626  39.559  22.872   4.303
24233W        W92627   4.791  44.791   1.643
24234W        W92628  27.895   4.393  13.895
24235W        W92629   2.258  40.492   1.948
24236W        W92630  44.429  17.006  12.577
24237W        W92631  11.667  33.155  12.959
24238W        W92632  30.624   7.097   0.410
24239W        W92633  11.207  30.115  14.918
24240W        W92634  17.643   3.989  14.372
24241W        W92635   4.869  25.486  11.839
24242W        W92636  30.380  36.339  12.520
24243W        W92637  14.401  30.109  11.004
24244W        W92638  28.368   7.259   5.003
24245W        W92639  35.007  18.599  10.688
24246W        W92640   3.439  31.578  14.480
24247W        W92641  44.801  23.280   4.318
24248W        W92642  12.797   3.667  10.335
24249W        W92643  28.923  44.416  12.154
24250W        W92644  25.207  35.629  11.440
24251W        W92645  29.883  34.132   4.110
24252W        W92646  43.072   5.964  13.539
24253W        W92647  25.055  22.112  13.060
24254W        W92648  42.981  31.267  12.486
24255W        W92649  26.025   0.026   1.391
24256W        W92650  28.559  37.482   1.822
24257W        W92651  15.669  32.069   3.237
24258W        W92652  22.603  16.567  13.054
24259W        W92653  31.121  36.173  13.960
24260W        W92654  37.870  40.725   3.993
24261W        W92655  31.292  32.582   1.258
24262W        W92656  34.918  27.568  10.702
24263W        W92657  13.077  32.873   0.791
24264W        W92658  14.707  23.721  13.799
24265W        W92659   3.459   8.367  12.010
24266W        W92660  28.994  11.067   0.789
24267W        W92661   0.284  37.541  10.047
24268W        W92662   5.801   3.422   2.201
24269W        W92663  17.792   2.715   1.833
24270W        W92664  12.371  40.452   3.826
24271W        W92665  20.433   8.800  11.619
24272W        W92666   8.763  13.539  11.036
24273W        W92667  11.186  23.473   2.591
24274W        W92668   6.678  34.130   2.762
24275W        W92669  34.093  17.219  14.576
24276W        W92670  10.905  27.534   0.808
24277W        W92671   4.777  15.803   1.212
24278W        W92672  21.202  36.476   0.807
24279W        W92673  16.502  28.237  11.944
24280W        W92674  15.536  21.459   3.192
24281W        W92675  35.340  17.824   4.066
24282W        W92676   3.967  24.100   0.796
24283W        W92677  30.506  17.253   3.611
24284W        W92678  44.359  44.552  12.814
24285W        W92679  27.988  43.276   2.706
24286W        W92680  13.797  35.027  13.121
24287W        W92681   6.756  19.760   0.259
24288W        W92682  13.589   5.340   2.835
24289W        W92683  34.206   0.376  12.952
24290W        W92684  12.860  41.109   3.202
24291W        W92685  19.671   2.384   4.498
24292W        W92686   9.271  42.981  10.801
24293W        W92687  14.211  39.782  11.483
24294W        W92688  14.909  21.035  13.497
24295W        W92689  19.789   6.970   3.624
24296W        W92690   2.023  42.879   4.638
24297W        W92691  38.857   6.498   0.438
24298W        W92692   9.181  11.258   3.529
24299W        W92693  39.954  23.411   2.169
24300W        W92694   5.288  38.557   2.869
24301W        W92695  35.464   9.521  12.897
24302W        W92696   0.024  15.787   4.087
24303W        W92697  17.540  20.642   1.295
24304W        W92698  29.020  15.819   0.834
24305W        W92699  11.907  33.865   0.719
24306W        W92700  31.570  37.259  11.107
24307W        W92701  26.671  18.729  12.059
24308W        W92702  31.212   2.962   3.485
24309W        W92703  15.366   1.353  14.275
24310W        W92704   7.496  12.591   3.605
24311W        W92705   4.383  16.611   1.406
24312W        W92706  14.786  13.707  12.084
24313W        W92707  36.069  26.992  10.650
24314W        W92708   2.418  40.084  14.353
24315W        W92709  25.953  17.083  14.440
24316W        W92710   1.203  23.636   2.549
24317W        W92711  13.702  40.586   4.177
24318W        W92712  43.878  30.087   1.450
24319W        W92713  42.675  20.648   0.234
24320W        W92714  21.316  16.229   3.213
24321W        W92715  40.213   9.811  14.441
24322W        W92716  29.279   4.747  13.511
24323W        W92717  34.089   0.378   2.722
24324W        W92718  22.511  37.338   3.893
24325W        W92719  15.295  30.607  12.919
24326W        W92720  31.529  13.202  13.899
24327W        W92721   4.996  29.697   1.396
24328W        W92722  41.853  32.528  12.909
24329W        W92723  44.332  21.453  13.821
24330W        W92724  28.995  32.548  14.046
24331W        W92725   7.804  23.084   3.046
24332W        W92726  32.117   8.634   4.714
24333W        W92727  27.819  37.546  11.650
24334W        W92728  42.883  33.268   1.906
24335W        W92729  24.307  25.220  14.047
24336W        W92730  19.542   7.200   1.090
24337W        W92731   6.909  30.651   1.780
24338W        W92732  35.502  17.373   3.794
24339W        W92733  38.381  24.021  10.857
24340W        W92734   7.465   5.099  13.159
24341W        W92735  12.376  14.401   2.190
24342W        W92736  30.066  16.647   0.035
24343W        W92737  32.898  40.029  13.070
24344W        W92738  21.618  41.046  11.278
24345W        W92739  24.468  25.366  10.665
24346W        W92740  31.449  21.722   0.372
24347W        W92741  28.516  15.700   3.634
24348W        W92742   9.311   3.381   0.481
24349W        W92743  10.892  40.037  11.822
24350W        W92744   0.598  20.551   4.140
24351W        W92745  43.450  27.612  11.937
24352W        W92746  30.278  16.847  12.190
24353W        W92747  25.556  24.743   4.643
24354W        W92748  29.570  37.747   2.801
24355W        W92749  14.164  32.727   1.077
24356W        W92750  11.883  11.751  13.283
24357W        W92751   8.725   9.907  14.999
24358W        W92752  43.022  10.094   0.422
24359W        W92753  29.045   7.928  13.845
24360W        W92754  11.904  24.010   4.527
24361W        W92755   0.957  39.582  12.621
24362W        W92756  38.643  34.339   1.309
24363W        W92757  13.247  10.892  13.927
24364W        W92758  17.770  11.526   2.340
24365W        W92759  31.194  13.305  14.481
24366W        W92760  37.029  21.583   2.236
24367W        W92761  12.916  26.485   0.717
24368W        W92762   3.958  35.021  12.937
24369W        W92763  37.260  19.201   2.763
24370W        W92764  26.157  17.508   1.200
24371W        W92765  14.284  36.003   0.812
24372W        W92766  20.679   4.268  11.408
24373W        W92767  23.648  19.239   3.692
24374W        W92768   9.040  16.420  12.282
24375W        W92769  42.048   6.821   2.736
24376W        W92770  29.035  38.360   4.550
24377W        W92771  17.791  27.892   1.512
24378W        W92772  33.828  15.918  10.075
24379W        W92773  13.362  14.132  13.453
24380W        W92774   6.710  23.394   4.509
24381W        W92775  25.949  42.404  14.521
24382W        W92776  27.054  35.095   4.891
24383W        W92777   5.671  24.434   3.724
24384W        W92778   4.389  21.227  14.879
24385W        W92779   2.509  23.230  13.973
24386W        W92780  27.172  15.660  10.591
24387W        W92781  20.910  15.024   3.761
24388W        W92782   9.732  33.584  14.593
24389W        W92783  26.232  41.254  11.859
24390W        W92784  10.562  36.043   1.863
24391W        W92785  20.213   7.352   2.478
24392W        W92786  41.324   4.658   0.746
24393W        W92787  39.247   0.317  10.690
24394W        W92788  44.501   4.847   2.153
24395W        W92789   8.661  42.680  14.930
24396W        W92790  13.811  21.034  14.913
24397W        W92791  23.159  14.657  13.425
24398W        W92792   8.131  35.034   4.236
24399W        W92793  17.578   9.330  14.064
24400W        W92794   4.138  41.518  13.953
24401W        W92795  23.036  42.583   0.516
24402W        W92796  19.587  10.177   0.691
24403W        W92797  23.510   1.311   2.650
24404W        W92798  18.258  15.534  12.485
24405W        W92799  36.908  11.133   2.809
24406W        W92800  28.867  23.013   4.558
24407W        W92801  37.563   7.711  12.298
24408W        W92802  17.126  43.393  11.941
24409W        W92803  35.811  19.438  12.621
24410W        W92804  13.600  39.919   1.902
24411W        W92805  13.327  29.053   1.710
24412W        W92806  13.700  35.379  13.920
24413W        W92807  30.677   3.086  11.414
24414W        W92808  19.552   3.279  13.497
24415W        W92809  39.357  38.873   1.035
24416W        W92810  13.295   1.460   4.045
24417W        W92811   8.326   9.298   1.852
24418W        W92812  17.057  20.786  13.906
24419W        W92813  32.843  38.632   3.759
24420W        W92814  34.350   4.457   2.324
24421W        W92815  14.140  27.245  14.353
24422W        W92816  11.582  12.037   9.951
24423W        W92817  43.396  14.284  13.085
24424W        W92818  44.728  41.523   2.659
24425W        W92819  18.837   5.052   1.380
24426W        W92820   9.240  37.358  11.083
24427W        W92821  18.618   1.623  13.278
24428W        W92822   0.484  23.453  12.271
24429W        W92823  38.545  22.909  10.289
24430W        W92824   0.016  19.323  13.832
24431W        W92825  30.136  24.152  14.690
24432W        W92826  10.859  22.741   4.578
24433W        W92827   2.657  27.138  12.656
24434W        W92828  34.563  42.523  13.007
24435W        W92829  33.101  39.432   3.304
24436W        W92830  20.283  28.090   1.343
24437W        W92831  42.288  15.034   3.804
24438W        W92832  24.977  12.441  10.295
24439W        W92833  18.723  32.917   4.764
24440W        W92834  36.807  38.459   1.835
24441W        W92835  43.469  18.934   4.929
24442W        W92836  26.588  23.771   2.268
24443W        W92837  14.016  11.779  14.510
24444W        W92838  24.177  24.848  12.069
24445W        W92839  34.827  40.882  12.412
24446W        W92840  15.278  10.855  12.530
24447W        W92841  15.202  34.634  14.283
24448W        W92842  33.770   6.896   3.278
24449W        W92843  18.048   8.467  14.820
24450W        W92844   0.906   6.705   3.765
24451W        W92845  40.367  31.807  13.977
24452W        W92846  34.379  41.127   2.308
24453W        W92847  40.630   3.352   0.695
24454W        W92848  14.247  20.608  11.210
24455W        W92849   9.470   3.510   4.146
24456W        W92850   8.382  27.990  13.383
24457W        W92851  14.557  27.160  12.164
24458W        W92852  25.252   2.678  14.270
24459W        W92853   6.705   0.596  11.730
24460W        W92854   6.722  39.297   4.254
24461W        W92855  36.518  24.454  11.643
24462W        W92856  15.892   9.864   4.980
24463W        W92857  26.070  34.859   1.810
24464W        W92858  34.069  44.313   2.142
24465W        W92859   6.267  36.338   4.631
24466W        W92860  40.606  43.228   4.861
24467W        W92861   4.442   6.359   2.032
24468W        W92862   1.916  29.206   2.407
24469W        W92863  22.339  17.381  13.365
24470W        W92864  16.202  24.157   2.365
24471W        W92865   4.830  42.374  11.590
24472W        W92866  25.255  16.988   3.764
24473W        W92867  33.834   6.391   4.675
24474W        W92868   0.684  35.986  10.694
24475W        W92869  40.256  16.058  11.041
24476W        W92870  21.475   8.775  11.438
24477W        W92871   8.917  36.864  12.917
24478W        W92872  34.888  20.236   3.069
24479W        W92873  33.350   1.782  12.097
24480W        W92874  25.689  12.281  10.916
24481W        W92875   4.697  25.065  11.539
24482W        W92876  10.584  43.017   1.788
24483W        W92877   2.989  24.403   1.361
24484W        W92878   5.916  14.251   2.905
24485W        W92879  39.519   8.959  12.961
24486W        W92880  41.702  36.667  11.120
24487W        W92881   3.162  30.502  12.175
24488W        W92882  30.541  18.463   0.869
24489W        W92883  18.248  10.601  12.127
24490W        W92884  12.834   6.441   3.270
24491W        W92885   4.711  35.585   2.953
24492W        W92886  26.558  27.395  14.519
24493W        W92887   1.776  18.218   4.207
24494W        W92888  20.240  16.634  14.757
24495W        W92889   1.954  40.506   1.484
24496W        W92890   6.164  27.550   4.763
24497W        W92891  26.894   8.696   4.096
24498W        W92892  16.620  13.815  11.636
24499W        W92893  11.628  26.475  11.730
24500W        W92894  32.583  28.671  12.563
24501W        W92895  24.623  23.623  10.664
24502W        W92896  17.096  39.332   0.962
24503W        W92897   2.338  31.357   2.604
24504W        W92898  42.793   0.993  14.029
24505W        W92899  13.986  38.967  14.784
24506W        W92900  30.185  13.771   2.438
24507W        W92901  32.612  40.881  10.755
24508W        W92902  42.253   4.541   1.802
24509W        W92903  21.592  23.774   2.664
24510W        W92904  32.379  20.121   3.206
24511W        W92905  41.237  24.508   4.115
24512W        W92906  37.283  14.172   2.258
24513W        W92907  13.994  17.011   1.147
24514W        W92908  18.194  38.137  11.996
24515W        W92909  13.043  41.274  10.651
24516W        W92910  19.100  21.286   2.243
24517W        W92911  15.934  33.695  11.086
24518W        W92912  32.863  10.842  13.337
24519W        W92913  11.131   4.167  12.412
24520W        W92914   1.712  30.598  13.570
24521W        W92915  37.638  44.562  13.966
24522W        W92916  25.178  26.956   1.942
24523W        W92917  23.322  18.016  13.895
24524W        W92918   4.548  15.232   3.243
24525W        W92919  30.669  35.849  14.086
24526W        W92920   1.935  29.013  11.113
24527W        W92921   9.733  39.588  14.811
24528W        W92922  40.828  16.856   4.078
24529W        W92923  40.666  35.933   0.872
24530W        W92924  32.565  37.404   2.428
24531W        W92925  32.902   6.589  12.362
24532W        W92926  25.273  10.310  10.933
24533W        W92927  33.908  34.866  14.030
24534W        W92928  14.312   3.692  12.618
24535W        W92929  20.898   7.215   4.035
24536W        W92930  26.695  22.733   4.666
24537W        W92931  35.552  20.033   1.122
24538W        W92932  40.403   4.681  13.337
24539W        W92933  12.800  22.659   5.154
24540W        W92934  20.644  34.895   1.209
24541W        W92935  39.541  28.642  11.865
24542W        W92936  17.847  30.059   0.474
24543W        W92937   4.042  30.988   1.010
24544W        W92938  11.611   0.277   2.998
24545W        W92939  20.501  19.099  10.593
24546W        W92940  10.718  28.873  13.372
24547W        W92941  12.224   1.650  12.960
24548W        W92942  26.936  33.240  13.338
24549W        W92943   7.416   2.287  10.497
24550W        W92944  22.467  38.015  11.599
24551W        W92945  16.667  26.474  10.204
24552W        W92946  31.320  11.775   0.708
24553W        W92947  25.657  44.305   1.871
24554W        W92948  12.324  30.502   0.562
24555W        W92949  18.066  38.088   2.634
24556W        W92950  43.483  40.142   0.177
24557W        W92951  30.327  18.742   5.036
24558W        W92952  17.101  43.384   2.955
24559W        W92953   5.130  37.453   3.796
24560W        W92954  38.463   5.362   4.646
24561W        W92955   6.097  31.106   2.808
24562W        W92956  37.900  10.212  10.152
24563W        W92957  29.360   6.574  10.716
24564W        W92958  24.258  31.981   5.037
24565W        W92959   1.647  42.614  13.027
24566W        W92960  18.893   9.741  13.402
24567W        W92961  37.966  30.045   3.384
24568W        W92962  12.825   7.989   0.352
24569W        W92963  10.638  27.091   0.966
24570W        W92964  36.023  19.464   4.260
24571W        W92965   5.402  21.204  11.267
24572W        W92966  15.611  40.344   1.100
24573W        W92967  17.499  33.325   3.414
24574W        W92968  20.024   3.950  12.875
24575W        W92969  24.061  24.123   2.465
24576W        W92970  27.086  33.951  13.630
24577W        W92971  17.745  42.360  11.947
24578W        W92972  21.443  14.718   4.633
24579W        W92973   7.372   5.133   2.222
24580W        W92974  16.315  10.727   2.348
24581W        W92975  18.123  43.279   4.501
24582W        W92976  11.109  44.960  11.732
24583W        W92977  40.223  15.976  13.966
24584W        W92978   5.820  41.102  12.018
24585W        W92979   2.714  20.672   0.397
24586W        W92980  34.382  11.330  12.596
24587W        W92981  36.444   8.739  11.517
24588W        W92982  15.212  15.931  12.419
24589W        W92983  10.141  35.851   0.035
24590W        W92984  44.446   8.515  10.549
24591W        W92985  24.090  26.659   1.235
24592W        W92986  40.682  11.052   1.678
24593W        W92987  26.533  18.303  11.162
24594W        W92988  19.273  11.247   4.669
24595W        W92989  37.099   4.873  10.044
24596W        W92990  10.944   5.882  13.156
24597W        W92991  43.346  28.894  14.899
24598W        W92992  16.912  42.551   4.865
24599W        W92993  31.545  10.710   0.847
24600W        W92994  34.154   0.004   1.367
24601W        W92995   9.369  16.134  14.415
24602W        W92996  25.495  25.692  13.986
24603W        W92997  13.078  40.067  11.886
24604W        W92998  38.349  19.001   4.603
24605W        W92999   4.144  38.586  12.555
24606W        W93000  10.228   2.101  12.771
24607W        W93001  36.483  19.876  12.975
24608W        W93002  29.130  38.047   2.749
24609W        W93003   9.298  28.960  12.408
24610W        W93004  19.087  20.312   4.372
24611W        W93005  20.664  39.880  14.831
24612W        W93006  14.729  37.611  10.182
24613W        W93007   7.107  27.440   3.319
24614W        W93008  21.173   2.115  11.626
24615W        W93009  36.373  43.822  14.262
24616W        W93010   4.383   6.458   2.815
24617W        W93011  18.744  15.060   1.320
24618W        W93012  16.695  27.941   3.677
24619W        W93013  15.053  16.652   3.208
24620W        W93014  38.381  31.616  11.533
24621W        W93015  13.554  32.540  11.613
24622W        W93016  15.282  19.661   3.485
24623W        W93017   5.467  22.443  10.293
24624W        W93018  21.963  27.424  10.635
24625W        W93019  42.705  40.612  13.047
24626W        W93020  39.822   1.875   1.486
24627W        W93021  15.796  17.476  14.030
24628W        W93022  22.431  18.608  13.008
24629W        W93023  24.610  36.799  12.595
24630W        W93024  44.859  20.267   2.134
24631W        W93025  20.315  43.471   1.284
24632W        W93026  39.341  10.592   4.747
24633W        W93027  21.211  40.013   1.824
24634W        W93028  31.383  31.716  13.387
24635W        W93029  16.313  26.610   4.047
24636W        W93030  19.677  12.124   2.412
24637W        W93031  39.179  41.657   9.822
24638W        W93032  32.740  35.823  10.652
24639W        W93033  38.046   3.369  11.984
24640W        W93034  39.947  33.479  10.650
24641W        W93035  30.500  28.742   2.913
24642W        W93036  26.551  34.264  13.447
24643W        W93037  36.529  23.467  11.544
24644W        W93038   0.271  11.135  14.888
24645W        W93039  27.944  18.646  12.511
24646W        W93040  28.000  34.044   2.369
24647W        W93041  35.975   8.363  10.946
24648W        W93042  36.888  29.193  14.426
24649W        W93043   5.045  42.961  14.481
24650W        W93044  44.516  10.785   3.757
24651W        W93045  40.948   4.984   4.116
24652W        W93046  41.028  14.977  10.778
24653W        W93047  41.409   5.816  13.028
24654W        W93048   6.346   9.152   2.097
24655W        W93049  36.070  31.888   2.340
24656W        W93050  19.757  29.866   3.748
24657W        W93051  11.018  23.808  11.145
24658W        W93052  11.803  21.211  12.957
24659W        W93053  12.711  35.993   3.038
24660W        W93054  44.879  39.776   3.588
24661W        W93055  18.336  23.236  13.899
24662W        W93056  37.830   6.284  12.025
24663W        W93057  40.212  43.786   3.721
24664W        W93058  32.508  26.022  11.557
24665W        W93059  41.512  28.440   3.179
24666W        W93060  31.106  18.555   4.564
24667W        W93061  21.453  13.133  10.987
24668W        W93062  18.561  44.802  10.693
24669W        W93063   3.527   7.320  11.185
24670W        W93064  11.520   7.325  11.609
24671W        W93065  32.113  18.577  11.127
24672W        W93066  43.040  15.834  13.883
24673W        W93067  13.075  25.034  14.358
24674W        W93068   0.780  24.018   2.732
24675W        W93069  34.511  30.508   1.531
24676W        W93070  15.592  33.649  13.826
24677W        W93071   2.715  42.010  10.714
24678W        W93072  38.857   5.526  13.540
24679W        W93073  44.480   4.374  14.556
24680W        W93074  39.554  26.943  12.440
24681W        W93075  24.222  23.084   2.099
24682W        W93076  32.926  25.753  11.636
24683W        W93077  17.626  19.224  13.854
24684W        W93078  29.958  34.728  12.031
24685W        W93079  14.125   8.441  12.173
24686W        W93080  39.000  11.342  12.101
24687W        W93081  12.460  33.054   2.035
24688W        W93082   0.924  38.737   0.520
24689W        W93083  15.801  39.884  11.653
24690W        W93084   6.480  27.051   5.044
24691W        W93085  37.103   5.103   1.327
24692W        W93086  41.847  15.979  12.478
24693W        W93087  18.940  40.810  12.024
24694W        W93088  17.550  28.386   0.817
24695W        W93089  20.069  19.360   5.168
24696W        W93090   2.277  15.643  10.378
24697W        W93091  23.513  33.425   1.351
24698W        W93092  33.902  14.091   2.424
24699W        W93093  42.890  29.036  13.996
24700W        W93094  12.044  10.699   0.271
24701W        W93095   3.353  40.415   0.518
24702W        W93096   2.356  16.611  14.876
24703W        W93097  11.433  26.070   1.073
24704W        W93098  36.440  36.344   5.244
24705W        W93099  42.277  10.989  13.027
24706W        W93100   3.347  40.958   2.299
24707W        W93101  43.288  30.068  12.067
24708W        W93102  24.920  20.440   1.970
24709W        W93103  11.875  23.183  13.793
24710W        W93104  40.851  14.674   0.490
24711W        W93105  38.593  31.546  13.531
24712W        W93106  28.327  21.658   1.726
24713W        W93107  28.898  14.645  13.357
24714W        W93108   9.065  19.517  13.998
24715W        W93109  22.622  24.114   2.909
24716W        W93110  19.357  15.649  13.255
24717W        W93111   4.780  41.377   3.680
24718W        W93112  28.975   2.367   3.678
24719W        W93113  10.171  28.110  13.774
24720W        W93114  43.011  30.228  12.481
24721W        W93115  22.627  14.805  14.366
24722W        W93116  32.297  22.383   1.822
24723W        W93117  21.713  30.197   3.795
24724W        W93118  44.047  10.250   0.348
24725W        W93119  20.102   9.635  11.525
24726W        W93120  40.370  11.665  13.651
24727W        W93121  32.041  14.389  14.987
24728W        W93122   8.062  41.095   3.138
24729W        W93123  35.381   4.516   2.245
24730W        W93124  23.355  43.224  12.133
24731W        W93125  11.618  27.591  10.695
24732W        W93126   6.658  10.123  12.021
24733W        W93127   8.931   5.937  10.748
24734W        W93128  43.913  23.419  11.015
24735W        W93129   4.316  17.105   1.238
24736W        W93130   4.723  29.133  13.898
24737W        W93131  28.927   6.771  13.112
24738W        W93132  38.097  40.193   0.462
24739W        W93133  34.444  23.947   2.102
24740W        W93134   1.372  19.367   4.796
24741W        W93135  26.780   1.792   4.456
24742W        W93136  11.752  35.261   2.776
24743W        W93137  31.903   0.907  10.907
24744W        W93138  32.827  21.654   1.630
24745W        W93139  41.940  17.102   4.582
24746W        W93140  28.705  34.006   4.545
24747W        W93141   2.350  12.179   0.227
24748W        W93142  17.712  26.568   2.881
24749W        W93143   8.868  39.515   4.717
24750W        W93144  44.446   2.394  13.419
24751W        W93145  30.091  10.685   0.587
24752W        W93146  34.471   2.562  13.300
24753W        W93147  28.982  44.962  10.764
24754W        W93148   8.038  30.812   4.887
24755W        W93149  25.101  14.251  12.115
24756W        W93150  11.166  26.712   1.185
24757W        W93151   3.966   2.806  14.008
24758W        W93152   3.732  27.100  11.145
24759W        W93153  25.516  37.789  12.568
24760W        W93154  16.216  10.085  11.581
24761W        W93155  11.551  41.789   4.607
24762W        W93156  16.045   3.226   3.023
24763W        W93157   4.668  21.648  12.499
24764W        W93158  27.714  38.497   4.176
24765W        W93159  39.934  28.357  11.093
24766W        W93160  35.557   0.230  14.898
24767W        W93161   4.293  39.629   1.202
24768W        W93162   8.662  34.840   0.300
24769W        W93163  26.367   3.262   1.761
24770W        W93164  29.898  43.803  13.490
24771W        W93165  31.946  36.873  11.113
24772W        W93166  26.623  35.398   4.874
24773W        W93167  15.296   2.854   3.356
24774W        W93168   3.506   0.292  14.496
24775W        W93169   4.681  39.468   3.323
24776W        W93170  17.244   2.868   4.523
24777W        W93171  32.970   3.860  14.723
24778W        W93172  31.179  30.960  14.852
24779W        W93173   1.923   6.304   3.854
24780W        W93174  34.441  43.748   3.840
24781W        W93175   3.721  25.735  12.899
24782W        W93176  30.599  44.679  12.559
24783W        W93177  35.978  40.937  14.278
24784W        W93178  31.073  42.378  11.464
24785W        W93179  39.341  41.553  13.528
24786W        W93180  10.291   3.143   2.227
24787W        W93181  43.396  29.373  10.454
24788W        W93182  32.931  36.031  14.827
24789W        W93183  18.334  44.279   4.583
24790W        W93184  44.133  24.551   2.574
24791W        W93185  36.925  24.440  14.395
24792W        W93186  25.047  14.903   0.573
24793W        W93187  28.655  37.044   4.527
24794W        W93188  38.967   1.424   2.778
24795W        W93189  31.302  12.522  12.962
24796W        W93190  15.348  23.771   0.082
24797W        W93191  40.903  40.749   3.310
24798W        W93192  32.675  21.172  13.090
24799W        W93193  27.668  25.536   1.637
24800W        W93194  33.128  32.129  14.052
24801W        W93195   9.754  41.343  10.477
24802W        W93196  20.475   0.765   3.741
24803W        W93197  16.667  16.812  14.995
24804W        W93198  43.463  40.601   0.427
24805W        W93199  20.050  22.751  11.837
24806W        W93200  16.424  43.286   2.161
24807W        W93201  41.478  43.659  14.090
24808W        W93202  15.825  36.978  14.817
24809W        W93203  15.813  32.600  12.922
24810W        W93204  20.651   7.875  11.509
24811W        W93205  15.270  15.664  11.963
24812W        W93206   7.175  18.417  12.017
24813W        W93207  29.851  23.289  14.853
24814W        W93208  13.805  41.403   4.554
24815W        W93209  39.816  40.954   2.731
24816W        W93210  10.174  16.597  14.772
24817W        W93211  23.132  27.973  14.037
24818W        W93212  11.189  43.199  10.744
24819W        W93213  33.120  41.426  13.007
24820W        W93214  21.787  41.347  12.489
24821W        W93215  22.208  29.198   2.580
24822W        W93216  25.650  12.176   0.237
24823W        W93217  32.053  44.603  13.015
24824W        W93218   5.043   9.264   3.212
24825W        W93219  32.618  31.609   1.715
24826W        W93220  36.466   4.226   2.646
24827W        W93221  41.271  12.733   2.909
24828W        W93222  39.007  23.783   0.100
24829W        W93223  15.607  39.756   0.528
24830W        W93224   4.970  21.523   1.013
24831W        W93225  39.150  43.672   1.882
24832W        W93226   3.274  39.468   2.245
24833W        W93227  41.306  24.132   2.013
24834W        W93228  27.387   0.898   0.854
24835W        W93229  10.236  37.537  10.771
24836W        W93230   3.440  40.994  12.383
24837W        W93231  33.426  13.426   0.940
24838W        W93232  15.720  10.355  14.823
24839W        W93233  37.542  14.218   4.681
24840W        W93234  38.805  37.494  14.580
24841W        W93235  34.352   3.818  10.696
24842W        W93236  21.942  15.767   2.260
24843W        W93237  30.114  30.949   3.890
24844W        W93238   3.820   2.690  14.818
24845W        W93239  18.121   8.766   4.851
24846W        W93240  39.778  25.510   1.135
24847W        W93241   5.755   3.155  14.734
24848W        W93242  26.638  21.186  14.054
24849W        W93243  37.268  10.345   2.621
24850W        W93244  23.192  27.185   1.278
24851W        W93245  20.106  21.530  12.051
24852W        W93246  24.987   1.558  10.132
24853W        W93247  33.619  28.432  10.705
24854W        W93248   7.910  30.419   2.023
24855W        W93249  27.197  14.107   4.548
24856W        W93250  22.523   1.746  14.501
24857W        W93251   0.946  27.559  11.572
24858W        W93252  28.531   9.154   2.794
24859W        W93253  20.126  35.934   4.508
24860W        W93254  32.109  41.980   0.532
24861W        W93255  33.956  15.845  14.367
24862W        W93256   6.805  22.327  14.629
24863W        W93257  12.827  30.712  12.986
24864W        W93258  16.178  11.351   4.552
24865W        W93259  28.897  41.514   2.797
24866W        W93260   3.808  15.472  10.722
24867W        W93261  21.429  27.843  11.374
24868W        W93262   4.547  35.832  12.779
24869W        W93263  40.414  10.835   1.304
24870W        W93264  23.097  43.807   2.652
24871W        W93265  15.192  39.564   4.568
24872W        W93266  26.651  17.518   1.228
24873W        W93267  30.556  15.624  12.419
24874W        W93268  19.306  33.399  14.950
24875W        W93269  14.881  10.592  12.320
24876W        W93270  23.338  34.409   2.256
24877W        W93271  42.931  32.052  11.140
24878W        W93272  27.855  33.831  14.871
24879W        W93273  10.271  37.613   3.192
24880W        W93274   6.678   7.940  10.696
24881W        W93275   3.706  33.576   1.912
24882W        W93276  38.475   0.169  14.862
24883W        W93277  17.125  39.914   2.459
24884W        W93278  13.954   4.209  11.795
24885W        W93279  21.999  11.156   1.348
24886W        W93280  22.891  19.936  13.165
24887W        W93281  22.742   6.872  10.610
24888W        W93282   8.419   6.533  14.845
24889W        W93283   3.371  19.596   4.258
24890W        W93284  22.120  25.563  12.763
24891W        W93285  42.121  29.744   2.671
24892W        W93286  27.315  44.188  14.802
24893W        W93287  27.056  35.552  10.728
24894W        W93288   9.326  37.473   0.994
24895W        W93289  11.889  34.924   3.216
24896W        W93290  33.124  15.696  13.515
24897W        W93291  42.774  36.678   3.545
24898W        W93292   0.960  38.086   4.191
24899W        W93293   5.545   8.606   0.947
24900W        W93294  41.834  11.134  10.336
24901W        W93295   2.529  35.960  13.494
24902W        W93296  44.236  11.555   5.068
24903W        W93297  18.331   9.081   1.449
24904W        W93298  41.917   1.463   2.743
24905W        W93299  28.476   9.649   1.940
24906W        W93300  31.537  41.862  14.770
24907W        W93301  17.575  44.736   1.813
24908W        W93302  40.918  15.622   0.446
24909W        W93303  38.587  21.198   5.205
24910W        W93304  40.174  44.032  13.561
24911W        W93305  27.220  33.326  12.185
24912W        W93306  17.649  40.400  12.442
24913W        W93307  30.349  43.449   0.786
24914W        W93308  14.888  10.692   1.711
24915W        W93309  23.375   1.601   0.360
24916W        W93310  26.639  10.325   2.718
24917W        W93311  28.243   5.902   0.816
24918W        W93312   7.570   3.278   2.357
24919W        W93313   6.875  20.574   1.747
24920W        W93314  36.176  11.652   1.433
24921W        W93315  31.415   4.433   0.216
24922W        W93316  34.607  44.870   3.295
24923W        W93317  32.391  31.933   3.665
24924W        W93318   1.402   3.346  12.437
24925W        W93319  13.135  17.162   3.663
24926W        W93320  15.154  18.501   2.902
24927W        W93321  42.065  17.684   0.416
24928W        W93322  10.722   9.699  12.436
24929W        W93323  16.169  44.561  12.897
24930W        W93324  30.031  25.956  13.516
24931W        W93325  28.763   6.878   3.747
24932W        W93326   7.763  12.504   1.743
24933W        W93327  15.253  30.913  12.487
24934W        W93328  20.628  10.196  10.784
24935W        W93329  31.395  15.269   0.873
24936W        W93330  35.874  34.379   3.700
24937W        W93331  13.437  22.268  11.134
24938W        W93332  13.128   0.438   3.689
24939W        W93333  33.119  30.152  11.130
24940W        W93334  26.452  11.548   5.180
24941W        W93335  43.424  12.088  14.047
24942W        W93336  40.003   8.604  13.973
24943W        W93337   1.980  10.131   4.033
24944W        W93338   8.677  38.052   3.143
24945W        W93339  42.980   9.370   4.936
24946W        W93340   0.703  18.783   3.720
24947W        W93341  18.713  24.704   3.402
24948W        W93342   7.514  42.028  14.794
24949W        W93343  39.431  24.331   3.999
24950W        W93344  44.252  16.629   4.322
24951W        W93345  39.979  39.505   4.162
24952W        W93346  17.145  32.591  11.196
24953W        W93347  35.291  13.440   2.277
24954W        W93348   3.201  34.960   2.291
24955W        W93349  39.411  20.079   3.013
24956W        W93350  24.891  26.519   3.380
24957W        W93351   3.770   4.030  12.555
24958W        W93352  19.010  24.458  12.090
24959W        W93353  20.751  36.004   1.884
24960W        W93354  42.634   5.215  11.495
24961W        W93355  41.074   7.232   3.126
24962W        W93356  34.389   0.335  13.436
24963W        W93357  13.831   4.482   3.329
24964W        W93358  23.064  20.478  14.919
24965W        W93359  40.330  38.706  10.276
24966W        W93360  12.420   7.922   2.566
24967W        W93361  42.923   3.799  11.897
24968W        W93362  24.242   1.501  14.760
24969W        W93363  27.487   5.830   3.027
24970W        W93364  21.541  37.365  13.937
24971W        W93365  32.601  21.388  14.805
24972W        W93366  21.064  19.761  14.808
24973W        W93367  34.704  42.287   0.524
24974W        W93368  33.978  38.331   0.297
24975W        W93369  30.673   9.413   0.168
24976W        W93370  34.469  15.251  10.785
24977W        W93371  14.247  43.349  14.790
24978W        W93372  20.089  15.877   2.405
24979W        W93373  37.350  19.642  11.627
24980W        W93374   6.132  16.121  14.220
24981W        W93375  43.449  39.721   5.067
24982W        W93376  44.829  32.340   2.845
24983W        W93377  38.463  19.676  12.942
24984W        W93378   1.749  18.311   1.522
24985W        W93379  14.191  11.236  12.158
24986W        W93380  39.292   6.959  10.670
24987W        W93381  29.312   1.484   0.409
24988W        W93382  15.577  18.168   3.747
24989W        W93383  10.114  30.966  12.403
24990W        W93384   3.943   5.977   1.445
24991W        W93385  37.005  13.850  13.093
24992W        W93386   1.635  16.728   3.215
24993W        W93387  13.354  14.110   1.310
24994W        W93388  39.385  36.555   3.598
24995W        W93389  21.192  44.966  10.988
24996W        W93390  34.453  37.726  12.841
24997W        W93391  33.585  38.624  14.495
24998W        W93392  19.599  40.899  10.752
24999W        W93393  41.892  31.607   2.477
25000W        W93394   0.535  44.012   0.315
25001W        W93395  35.927  10.418   2.361
25002W        W93396  32.584  23.286   0.167
25003W        W93397   2.853  23.054   3.789
25004W        W93398  39.410  17.643   0.050
25005W        W93399  30.013  15.079   4.153
25006W        W93400  21.115  36.322   3.696
25007W        W93401  32.729  10.374   4.462
25008W        W93402  31.838  35.484   3.807
25009W        W93403   9.804   7.702  12.022
25010W        W93404  33.427  20.028   3.374
25011W        W93405   4.425  21.784  14.917
25012W        W93406   0.383  24.848  11.150
25013W        W93407  41.616  41.097   0.395
25014W        W93408  39.250  35.847   2.201
25015W        W93409  42.547  23.693   2.753
25016W        W93410  39.664  27.562   2.214
25017W        W93411   4.237  42.576  14.850
25018W        W93412  25.655   5.671  10.575
25019W        W93413   1.639  34.475   3.770
25020W        W93414  35.863  13.226   1.917
25021W        W93415  15.108  40.327  12.536
25022W        W93416   3.950  44.679   4.587
25023W        W93417  36.270  12.263   0.833
25024W        W93418  42.970  12.139  14.292
25025W        W93419  18.657  36.569   2.315
25026W        W93420  42.220  26.097  14.241
25027W        W93421   9.933  14.196   2.282
25028W        W93422  15.856  40.644   3.313
25029W        W93423  32.673  26.992  13.606
25030W        W93424  22.560   6.754   3.302
25031W        W93425  19.812   5.584  14.483
25032W        W93426  41.292  15.279   0.357
25033W        W93427  26.125  31.705  13.149
25034W        W93428  41.608  29.699  14.440
25035W        W93429  42.992  15.168   0.291
25036W        W93430   1.967  36.977  12.701
25037W        W93431  37.098  36.013  14.919
25038W        W93432  31.509  13.847   3.187
25039W        W93433  13.896  29.548  12.134
25040W        W93434  41.573  33.426   0.027
25041W        W93435  21.752  20.809  12.969
25042W        W93436  16.600   2.988  13.468
25043W        W93437  38.349  28.709   2.339
25044W        W93438   2.788  15.607   0.776
25045W        W93439  31.166  21.793  11.382
25046W        W93440  18.702  17.527  11.247
25047W        W93441   6.790  18.051   4.032
25048W        W93442  43.099  18.971  14.476
25049W        W93443  30.349  39.597  11.208
25050W        W93444  39.266   4.229   4.715
25051W        W93445   0.473  30.428   4.560
25052W        W93446  19.029   9.773  13.939
25053W        W93447  17.828  39.647  14.712
25054W        W93448  18.755  14.773  13.028
25055W        W93449  12.307  14.111   0.030
25056W        W93450  42.327  18.624   1.703
25057W        W93451  15.857  10.153   1.259
25058W        W93452  32.630  29.162   1.693
25059W        W93453  16.404   2.204   3.737
25060W        W93454   1.523  28.470  14.327
25061W        W93455  37.822  17.548  11.043
25062W        W93456  25.205   1.466   3.217
25063W        W93457  41.493   2.922  14.244
25064W        W93458  31.375  36.927   0.737
25065W        W93459  31.003   2.220   4.128
25066W        W93460  28.166  10.313   0.971
25067W        W93461  17.235  42.877   2.183
25068W        W93462  38.714   3.749   1.679
25069W        W93463   1.236  12.628   9.809
25070W        W93464  40.861  17.546   3.225
25071W        W93465   7.400  16.197   2.865
25072W        W93466  44.598  22.280  12.816
25073W        W93467  19.911  12.112   3.297
25074W        W93468  33.098  11.435   2.009
25075W        W93469  24.061  27.176   1.190
25076W        W93470  33.525  28.114  13.971
25077W        W93471  28.039   7.367   0.923
25078W        W93472   5.926  11.557  13.658
25079W        W93473  35.697  27.968   2.931
25080W        W93474  28.047  20.062  14.597
25081W        W93475   3.521  31.068   0.897
25082W        W93476   5.442  40.861  11.098
25083W        W93477  12.718  32.013  13.447
25084W        W93478  32.047  30.276  12.779
25085W        W93479   3.132  27.913  11.456
25086W        W93480   5.878  19.696   0.581
25087W        W93481  44.323  24.989  14.445
25088W        W93482   4.350   3.996   0.328
25089W        W93483  42.396  17.737  11.925
25090W        W93484  42.262  43.294  11.589
25091W        W93485  14.115   7.882   4.325
25092W        W93486  25.689  13.089   1.260
25093W        W93487  27.925  17.586   0.824
25094W        W93488  28.156  32.896   1.862
25095W        W93489  17.807   6.201  10.543
25096W        W93490  22.261   6.240  12.921
25097W        W93491   7.893  11.949  11.045
25098W        W93492  19.169   8.833   0.907
25099W        W93493  37.957  33.464   2.431
25100W        W93494  13.153  42.961  13.392
25101W        W93495  34.444   4.697   3.690
25102W        W93496  14.939   1.820  11.233
25103W        W93497  38.694  17.740  13.754
25104W        W93498   6.166   2.903  14.942
25105W        W93499   2.638  16.559   2.319
25106W        W93500   6.777  16.200   4.828
25107W        W93501  29.080  21.975  12.590
25108W        W93502  19.119  29.232   1.670
25109W        W93503  36.485  42.718   1.410
25110W        W93504  24.060  15.344  14.023
25111W        W93505  27.465  30.573  12.948
25112W        W93506  41.770  11.270   0.365
25113W        W93507   3.476  11.880  12.054
25114W        W93508   5.813  16.842  12.057
25115W        W93509  22.559  38.496   0.897
25116W        W93510   3.335   6.890   4.570
25117W        W93511  35.298  17.248  12.978
25118W        W93512  21.685  32.375  14.824
25119W        W93513  22.121  41.849   3.388
25120W        W93514  25.126  12.402  12.333
25121W        W93515  27.853  25.014   2.873
25122W        W93516  16.259   3.160  14.969
25123W        W93517  30.842  34.791   4.293
25124W        W93518  29.669   9.227  14.779
25125W        W93519  36.443  44.707  10.194
25126W        W93520  10.460  43.505   0.847
25127W        W93521  20.770  43.258  13.027
25128W        W93522   4.825   2.752   1.461
25129W        W93523  24.546  40.857   0.059
25130W        W93524  14.857  20.658   1.796
25131W        W93525  44.566   9.674  10.048
25132W        W93526  28.555   8.176  12.558
25133W        W93527   3.824   3.844   2.562
25134W        W93528   8.836   9.890   1.306
25135W        W93529  19.813   9.667  12.464
25136W        W93530  44.300  20.701   3.145
25137W        W93531  19.386  17.249   4.046
25138W        W93532  33.316  22.386  14.429
25139W        W93533  35.262  10.844   0.249
25140W        W93534  36.835   2.758   2.601
25141W        W93535   4.907  30.481  10.211
25142W        W93536   3.745  39.211   2.328
25143W        W93537  10.443  32.690  13.317
25144W        W93538  19.990   0.922   4.319
25145W        W93539  28.743   7.742   3.624
25146W        W93540   2.875  37.335   1.118
25147W        W93541   6.307  36.945  10.734
25148W        W93542  44.055  26.561  13.023
25149W        W93543  24.650  25.214   3.382
25150W        W93544  27.129   7.481   4.465
25151W        W93545  42.849  22.712  11.342
25152W        W93546  14.758   9.280  12.972
25153W        W93547  24.670  17.750  14.905
25154W        W93548  29.505  22.012   1.302
25155W        W93549  35.647  28.058  12.462
25156W        W93550  44.912   0.632  12.397
25157W        W93551  24.748  13.579  11.253
25158W        W93552  41.445   6.242   0.266
25159W        W93553  23.890  10.172  11.500
25160W        W93554  40.331   2.205   4.203
25161W        W93555  37.347  39.819   2.207
25162W        W93556  18.843  10.248  13.552
25163W        W93557  20.776  20.099   2.393
25164W        W93558   1.173   1.342  13.003
25165W        W93559   7.083  30.056  14.926
25166W        W93560  39.200  29.411   3.310
25167W        W93561  35.313   1.986   3.203
25168W        W93562  12.580  14.201   0.961
25169W        W93563  13.120  25.292  11.742
25170W        W93564   6.997   1.840  14.378
25171W        W93565  24.022  33.653  11.138
25172W        W93566   7.752  17.769   2.206
25173W        W93567  24.617  43.516   4.479
25174W        W93568  28.256   1.444   5.201
25175W        W93569  24.288  15.252  11.245
25176W        W93570  40.647  27.640   2.155
25177W        W93571   3.055  44.423  13.981
25178W        W93572  14.200  23.103   1.691
25179W        W93573  44.970  35.862  10.255
25180W        W93574  33.641  25.198   3.238
25181W        W93575   0.320  27.186  14.394
25182W        W93576  38.420  26.109   4.467
25183W        W93577   0.657   4.870  13.824
25184W        W93578  32.178  44.364   2.035
25185W        W93579  14.622  10.924  11.981
25186W        W93580   2.736  32.979  12.567
25187W        W93581   7.934  16.581  14.410
25188W        W93582  14.860   4.273   1.271
25189W        W93583  27.715  24.996  12.399
25190W        W93584  24.550  18.958   3.689
25191W        W93585  17.287   3.368  12.020
25192W        W93586  29.938  18.470   0.427
25193W        W93587  16.834   2.280  14.851
25194W        W93588  11.929  13.578   1.779
25195W        W93589   6.674  29.527   3.700
25196W        W93590  17.432  43.459   1.977
25197W        W93591  16.489  36.797   1.352
25198W        W93592  24.528  20.636  10.216
25199W        W93593  15.405   0.742  14.351
25200W        W93594  33.115  43.782   0.783
25201W        W93595  32.901  36.572   1.746
25202W        W93596  14.068  43.428  12.904
25203W        W93597  13.332  27.161   1.283
25204W        W93598  34.376  41.354   4.848
25205W        W93599   1.474  15.143  14.916
25206W        W93600  23.481  24.983   2.759
25207W        W93601   6.214  33.913   2.781
25208W        W93602   3.684  31.587  13.280
25209W        W93603  41.307   9.896   2.407
25210W        W93604  28.606  14.309   3.348
25211W        W93605  12.883   7.935  14.575
25212W        W93606  40.315   3.650   2.207
25213W        W93607  17.312   8.840   2.892
25214W        W93608  39.926  30.138  14.907
25215W        W93609   1.817   5.478  10.681
25216W        W93610  35.833  18.547   4.176
25217W        W93611  39.029   7.082  11.098
25218W        W93612  31.007   1.350  13.901
25219W        W93613  22.951  21.475   3.565
25220W        W93614  21.667  36.832   3.049
25221W        W93615  10.804   8.300  10.748
25222W        W93616  43.407  31.540   0.505
25223W        W93617  10.928   4.441  11.195
25224W        W93618  25.342  13.234  12.571
25225W        W93619  34.847   4.750   4.621
25226W        W93620   7.070  35.203   1.910
25227W        W93621   5.364  26.511   3.194
25228W        W93622  11.633  36.529   1.220
25229W        W93623  40.820   4.268   2.798
25230W        W93624   2.423  23.747  13.965
25231W        W93625   5.988   8.888   0.863
25232W        W93626  15.393  27.082  12.496
25233W        W93627  44.194  43.178  11.489
25234W        W93628  34.128  20.639   3.589
25235W        W93629   9.478  23.800  10.044
25236W        W93630  35.309  34.693   4.129
25237W        W93631  19.236  38.309   4.187
25238W        W93632  28.574  29.534  13.405
25239W        W93633  24.097  37.081   1.897
25240W        W93634  31.441  35.000  14.883
25241W        W93635  20.533  34.097   2.750
25242W        W93636  12.332  29.612  14.935
25243W        W93637  31.083  43.225  13.796
25244W        W93638  40.122  38.469  11.924
25245W        W93639  21.512  26.594  10.402
25246W        W93640  13.135   8.585  12.954
25247W        W93641  10.186  41.317   2.797
25248W        W93642  17.854   2.312   3.120
25249W        W93643  35.296  30.462  13.576
25250W        W93644   3.100  29.119   0.671
25251W        W93645   4.855  17.002   4.596
25252W        W93646   2.285  24.000  13.533
25253W        W93647  10.347  13.582  10.941
25254W        W93648   6.793  13.568   1.462
25255W        W93649  42.352  39.048  13.830
25256W        W93650   1.018  44.440   3.520
25257W        W93651  21.303  37.147  14.357
25258W        W93652  22.026  23.700  12.646
25259W        W93653  12.873   5.311  10.485
25260W        W93654   5.072  42.484  13.912
25261W        W93655  20.057  20.414  10.126
25262W        W93656   1.228  26.922   1.842
25263W        W93657  23.794   5.907   1.358
25264W        W93658  35.371  40.368  13.613
25265W        W93659  36.371  15.313  12.815
25266W        W93660   9.840  25.072   4.137
25267W        W93661  17.740  43.504  11.224
25268W        W93662  15.845   4.950  13.461
25269W        W93663   1.751  22.942  10.776
25270W        W93664  28.497  18.259   0.469
25271W        W93665  19.236   6.828   0.858
25272W        W93666  29.839  21.544   2.239
25273W        W93667   7.106  30.011  12.575
25274W        W93668  19.314  21.260   3.146
25275W        W93669   1.330  34.606   3.296
25276W        W93670   6.246  36.623  12.299
25277W        W93671   1.723   1.359  11.158
25278W        W93672  32.407  11.886  11.559
25279W        W93673  26.082  35.365  11.571
25280W        W93674  19.183  18.358   0.167
25281W        W93675   4.310  36.583  10.688
25282W        W93676  43.776  43.444  11.718
25283W        W93677  34.465   4.328   4.094
25284W        W93678  28.072  43.480  11.918
25285W        W93679   5.642  32.660   0.752
25286W        W93680  43.779  22.646  10.596
25287W        W93681  32.655  22.546  12.445
25288W        W93682  38.524  24.960  10.380
25289W        W93683  27.033  10.911  11.356
25290W        W93684  31.342  32.604  13.970
25291W        W93685  21.376  14.710  12.334
25292W        W93686  25.040   4.031  14.962
25293W        W93687   5.289  38.611   4.681
25294W        W93688  21.969  34.566   3.108
25295W        W93689   9.018  27.231   4.930
25296W        W93690  35.203   6.676   1.490
25297W        W93691  16.531   3.897  12.055
25298W        W93692  42.349  30.348  14.320
25299W        W93693  44.592  23.067   3.326
25300W        W93694   4.362  44.253  10.513
25301W        W93695  32.511  25.943  14.479
25302W        W93696   5.903  11.372   2.797
25303W        W93697   5.362   5.620   3.919
25304W        W93698  10.703  27.140   1.845
25305W        W93699  31.594  36.525  11.926
25306W        W93700  20.282  18.017  14.427
25307W        W93701   3.621  27.912  11.655
25308W        W93702  18.819   8.860   5.009
25309W        W93703   1.905   4.948   3.416
25310W        W93704  32.317  43.208  14.929
25311W        W93705  35.117  28.078  10.713
25312W        W93706  15.062  38.581  10.234
25313W        W93707  29.588  42.258   2.782
25314W        W93708  36.239  20.326  11.189
25315W        W93709   3.752  38.447   2.243
25316W        W93710  36.127  20.989  14.928
25317W        W93711  16.656  22.284  11.094
25318W        W93712   4.470  40.647   1.766
25319W        W93713  43.834  34.405   2.075
25320W        W93714  15.113  27.138  12.052
25321W        W93715  24.427  24.517  14.820
25322W        W93716  16.774  30.678   4.267
25323W        W93717  43.829  44.945  12.378
25324W        W93718  42.407  42.739   0.393
25325W        W93719   1.205   4.165   1.869
25326W        W93720  16.062  23.707   4.076
25327W        W93721  32.893  20.111   3.314
25328W        W93722  34.614  22.033  11.416
25329W        W93723  42.057  14.185   2.745
25330W        W93724  33.559  20.647  13.408
25331W        W93725  41.359  18.865  11.595
25332W        W93726   9.612  36.141  12.674
25333W        W93727  38.339  19.561  11.580
25334W        W93728  10.120  30.641   3.316
25335W        W93729  20.631  10.841   2.941
25336W        W93730  35.441  18.449  11.135
25337W        W93731  21.479  22.717  12.101
25338W        W93732  33.829  21.256  10.065
25339W        W93733  24.663  16.311  14.680
25340W        W93734   5.720   6.601  12.604
25341W        W93735  17.739  12.961   2.203
25342W        W93736   8.580  16.101   0.738
25343W        W93737  23.649  21.076  14.246
25344W        W93738   5.575  42.202   3.367
25345W        W93739  29.886  33.168  14.524
25346W        W93740  24.506   8.401  12.361
25347W        W93741  32.073  21.598   2.450
25348W        W93742  44.210  40.320   2.164
25349W        W93743   9.314   3.243   3.739
25350W        W93744  44.119   4.503  11.069
25351W        W93745  37.435  22.637   3.660
25352W        W93746  44.733  20.837  14.915
25353W        W93747   2.648  42.189  12.417
25354W        W93748  33.544   5.983  12.120
25355W        W93749   4.112  29.651   5.064
25356W        W93750   2.765  16.309   1.854
25357W        W93751  25.438  16.526  14.245
25358W        W93752   4.904   7.623   0.156
25359W        W93753  40.971  41.261   3.833
25360W        W93754  35.166  22.089  10.450
25361W        W93755  39.815  22.607   3.332
25362W        W93756  42.410   7.829   2.173
25363W        W93757  14.149  26.689  13.323
25364W        W93758  17.793  41.264  12.916
25365W        W93759   8.960   6.471  12.537
25366W        W93760  36.831  26.896   2.941
25367W        W93761  41.458   8.178   4.224
25368W        W93762  20.803   6.790  11.266
25369W        W93763  39.945  31.227   2.224
25370W        W93764  22.116  15.127   2.915
25371W        W93765  24.694  32.430  12.371
25372W        W93766  16.852   3.669   0.851
25373W        W93767  32.248  28.258  12.440
25374W        W93768  43.799  18.676  12.560
25375W        W93769  42.617  39.712   9.841
25376W        W93770  31.676   0.922   0.449
25377W        W93771  42.247  33.226   4.928
25378W        W93772  44.367   7.202   4.608
25379W        W93773   7.723  17.327   3.729
25380W        W93774   5.902  13.403  12.152
25381W        W93775  21.651   1.857   2.301
25382W        W93776  12.622  33.268  12.901
25383W        W93777  41.212  42.043   0.394
25384W        W93778   2.972  21.025  14.723
25385W        W93779   5.565   5.186   4.068
25386W        W93780  36.738  12.903  10.240
25387W        W93781  11.227   4.189   1.347
25388W        W93782  26.443  44.607  12.682
25389W        W93783  32.373   9.199  14.404
25390W        W93784  23.735  35.987   0.885
25391W        W93785  38.975  34.296  11.620
25392W        W93786  14.238  36.553   0.635
25393W        W93787  31.131  39.891  11.615
25394W        W93788  31.182  17.439  12.530
25395W        W93789   2.775   3.761   2.121
25396W        W93790   3.394  18.324  10.756
25397W        W93791   1.765  37.324  13.893
25398W        W93792  44.931   6.634  12.453
25399W        W93793  43.458  30.424  11.662
25400W        W93794  40.856  16.732  14.394
25401W        W93795  13.782  18.106  14.728
25402W        W93796  12.952  29.875   0.291
25403W        W93797  21.234  29.491  10.724
25404W        W93798  36.945  40.456  10.608
25405W        W93799  34.339  44.484  14.290
25406W        W93800   9.869   5.529   2.305
25407W        W93801  22.597  21.114   1.466
25408W        W93802  22.382  43.005   1.366
25409W        W93803  34.384   0.828  14.044
25410W        W93804  30.374   5.702   0.929
25411W        W93805   6.169  22.236   4.290
25412W        W93806  19.517   5.900  12.723
25413W        W93807   1.501   6.743   2.536
25414W        W93808  15.749  13.676  12.576
25415W        W93809  12.425  21.381  13.486
25416W        W93810  25.107  28.935   0.404
25417W        W93811  13.039  19.600  10.214
25418W        W93812  29.824  23.024   2.788
25419W        W93813  14.141   6.500  13.813
25420W        W93814  18.028  16.157   2.762
25421W        W93815  43.242  19.619  13.089
25422W        W93816   2.842   4.802   3.262
25423W        W93817  15.217  30.859   1.144
25424W        W93818  34.648   3.814   0.839
25425W        W93819  20.364  28.866   2.403
25426W        W93820   7.807  34.194   0.252
25427W        W93821  25.449   1.260   3.781
25428W        W93822  18.211  31.497  11.000
25429W        W93823  24.637  10.282  12.067
25430W        W93824  23.787   2.353  13.851
25431W        W93825  36.022  12.498  14.442
25432W        W93826  29.680  14.341   3.354
25433W        W93827  43.602   7.292   1.997
25434W        W93828  23.540   5.840   4.302
25435W        W93829  16.108  26.970  12.945
25436W        W93830  22.538   9.829  11.888
25437W        W93831   2.214  20.631   2.424
25438W        W93832  14.265   1.298  12.003
25439W        W93833   0.811   1.501   2.206
25440W        W93834  10.441  14.347  10.794
25441W        W93835   2.832   5.911   2.610
25442W        W93836  29.910   9.692   0.811
25443W        W93837  35.896  13.292   2.798
25444W        W93838  25.395  36.966  10.509
25445W        W93839  37.744  13.081   1.447
25446W        W93840  42.906  31.831  10.255
25447W        W93841  29.562  28.065   4.840
25448W        W93842  23.636   7.146  11.634
25449W        W93843   7.661  31.513   2.887
25450W        W93844  39.714   2.852   4.105
25451W        W93845  26.400  15.923  12.224
25452W        W93846  33.375  29.136  12.545
25453W        W93847  22.534  11.199  12.850
25454W        W93848   6.133  17.056   0.564
25455W        W93849  12.581  25.646   1.398
25456W        W93850  28.503  13.289   4.517
25457W        W93851  36.067   3.964   0.987
25458W        W93852  20.977  44.096  12.533
25459W        W93853  11.126  34.967  14.071
25460W        W93854   9.169  10.207  10.706
25461W        W93855   6.802  10.614   0.638
25462W        W93856  10.080  32.583  12.472
25463W        W93857   0.196  10.740  13.439
25464W        W93858  43.837  19.634   4.176
25465W        W93859  44.851  42.278   4.534
25466W        W93860  39.418  23.232  13.595
25467W        W93861  16.868  36.911   5.499
25468W        W93862  15.825   0.703  12.356
25469W        W93863   5.862  15.330   1.412
25470W        W93864  33.472  32.959  12.864
25471W        W93865  35.984  42.503  12.031
25472W        W93866  25.456  29.602   3.274
25473W        W93867  26.663   6.942   3.313
25474W        W93868  39.982  19.632   1.875
25475W        W93869  32.131  24.418   3.622
25476W        W93870  41.020  10.865   2.473
25477W        W93871   2.318  12.644  13.839
25478W        W93872  35.853  19.095   2.958
25479W        W93873  13.286  13.682   1.007
25480W        W93874  38.871   2.406  11.996
25481W        W93875   9.865  34.420   4.645
25482W        W93876  25.975  17.730   0.772
25483W        W93877  37.441  23.164   0.517
25484W        W93878  39.915  29.412  12.425
25485W        W93879  25.765   4.879   4.443
25486W        W93880  37.737  12.565   1.512
25487W        W93881  38.058  34.562  12.591
25488W        W93882  31.936  34.930  14.966
25489W        W93883  16.593  44.580  11.351
25490W        W93884  19.351   9.807   4.107
25491W        W93885  30.367  15.762   1.589
25492W        W93886  22.829  19.647   4.590
25493W        W93887  14.222  34.085   0.997
25494W        W93888  16.306  14.023  14.218
25495W        W93889  17.531  28.397   4.201
25496W        W93890   6.311   6.672  13.442
25497W        W93891  10.102  17.003   2.430
25498W        W93892  28.035  10.534   5.155
25499W        W93893  44.126   6.259  12.784
25500W        W93894  23.125   4.649  14.305
25501W        W93895  18.095  25.046   3.150
25502W        W93896  31.445  15.713  13.900
25503W        W93897   0.956  39.654   2.284
25504W        W93898  31.910  35.587   3.261
25505W        W93899  39.570   3.802   4.677
25506W        W93900  22.627  40.301   2.643
25507W        W93901   4.112  24.685  10.123
25508W        W93902  23.053  35.054   1.706
25509W        W93903  38.340  15.304   2.654
25510W        W93904  31.835  29.139  12.906
25511W        W93905  21.287  43.154  12.950
25512W        W93906  11.381  17.089   4.050
25513W        W93907   2.954  35.233   1.448
25514W        W93908  36.080  42.726  12.497
25515W        W93909   7.285  10.131  13.386
25516W        W93910  39.086   8.627  12.097
25517W        W93911  39.508  15.990  13.581
25518W        W93912  19.769  34.436  13.926
25519W        W93913  31.187  11.636  13.979
25520W        W93914   3.676  13.077   2.892
25521W        W93915   4.613  43.240  10.474
25522W        W93916  11.845  43.392  11.978
25523W        W93917  24.171  40.717  14.341
25524W        W93918  41.798   3.848  11.589
25525W        W93919  28.746   5.734   0.892
25526W        W93920  21.536  21.749  13.019
25527W        W93921  12.623  39.833   1.908
25528W        W93922  31.076   3.893  14.028
25529W        W93923  36.832  14.306   3.035
25530W        W93924  30.047  21.710  14.258
25531W        W93925  11.161  18.104  10.703
25532W        W93926  44.825  19.047  10.619
25533W        W93927   0.278  14.638   2.358
25534W        W93928  35.502  38.980   3.112
25535W        W93929  28.050  44.214  13.274
25536W        W93930  29.688  30.456  10.694
25537W        W93931  14.266  37.262  12.442
25538W        W93932  40.533  28.977  10.857
25539W        W93933   1.531   9.324   4.615
25540W        W93934  11.531   0.734   2.484
25541W        W93935  20.889  43.756  11.172
25542W        W93936  42.935  17.561   4.873
25543W        W93937  39.150  40.896  13.498
25544W        W93938   1.476  23.923   1.025
25545W        W93939  29.785  34.394  11.643
25546W        W93940  24.976  15.359   0.349
25547W        W93941   7.810  44.974  11.925
25548W        W93942  13.341  13.274   3.287
25549W        W93943  22.014  44.037   1.297
25550W        W93944  27.937   7.257   0.420
25551W        W93945   5.455  43.945  14.519
25552W        W93946  28.240  38.887   4.854
25553W        W93947  24.243  16.312   2.818
25554W        W93948  42.871  26.111  13.424
25555W        W93949   1.470   3.402  11.403
25556W        W93950  23.102  25.000   4.686
25557W        W93951  32.228   7.763  13.371
25558W        W93952  38.119  31.017   4.423
25559W        W93953  38.450  36.998  12.197
25560W        W93954  17.193  18.243   2.114
25561W        W93955  42.278  43.774  11.719
25562W        W93956  38.150  32.347   1.303
25563W        W93957  15.595  39.700  13.537
25564W        W93958   5.242  13.631  14.021
25565W        W93959   1.681  29.006   0.875
25566W        W93960  15.884   9.804   2.832
25567W        W93961  10.653  18.692   1.840
25568W        W93962  43.907  42.401   2.768
25569W        W93963  17.900  17.371  14.151
25570W        W93964  44.476   4.950   1.126
25571W        W93965  29.613  10.341  14.338
25572W        W93966  44.595   2.913   3.868
25573W        W93967   3.504  34.863   2.724
25574W        W93968   3.628  43.392  10.566
25575W        W93969   4.528  16.504   4.543
25576W        W93970  21.944  37.566  12.968
25577W        W93971  10.673   6.733   4.706
25578W        W93972  35.867  27.878   1.851
25579W        W93973  38.960  24.086   2.783
25580W        W93974   8.116  20.519  12.581
25581W        W93975   2.723  13.389   5.439
25582W        W93976  18.414  41.715   3.490
25583W        W93977   2.627  37.944  13.473
25584W        W93978  31.958  38.184  10.862
25585W        W93979   9.761  39.793  14.304
25586W        W93980  29.664  40.885  11.131
25587W        W93981  33.082   6.935  14.051
25588W        W93982  37.100  16.734  10.677
25589W        W93983  20.641  31.212   2.374
25590W        W93984  36.062  22.937   2.899
25591W        W93985  14.982   6.847  10.342
25592W        W93986  15.325  19.123   0.255
25593W        W93987  27.064   4.435   4.581
25594W        W93988  29.815  43.287  13.587
25595W        W93989   4.807  35.505   0.466
25596W        W93990  16.814   9.868   3.763
25597W        W93991   4.790  40.929  14.444
25598W        W93992  29.792  18.302   3.118
25599W        W93993  38.263  40.272   2.284
25600W        W93994  22.907  31.624  14.933
25601W        W93995  33.669  34.936   1.364
25602W        W93996  39.395  41.267  12.614
25603W        W93997  30.597  15.330  12.008
25604W        W93998  30.925  33.716  12.861
25605W        W93999  21.293  22.686   3.043
25606W        W94000  43.030   1.052   4.248
25607W        W94001   3.448  42.229  12.918
25608W        W94002  19.805   4.123   3.663
25609W        W94003  23.042  19.253   4.942
25610W        W94004  31.568  43.402  12.898
25611W        W94005  23.422  11.071   2.242
25612W        W94006  34.599  30.163   4.663
25613W        W94007  14.891  30.501  14.767
25614W        W94008  42.920  41.340  12.013
25615W        W94009  36.209  20.655   3.584
25616W        W94010  23.841  21.292   3.817
25617W        W94011  42.448  15.475   1.352
25618W        W94012  19.744  30.102  14.856
25619W        W94013  35.588  31.709   1.195
25620W        W94014  38.446  27.688  14.534
25621W        W94015   3.999  34.142  13.803
25622W        W94016  44.740  17.721   4.755
25623W        W94017  13.603  14.979   3.313
25624W        W94018   9.794  44.777  10.429
25625W        W94019   0.958   1.743   0.716
25626W        W94020  36.163  39.540  12.173
25627W        W94021   3.256  39.332  14.440
25628W        W94022  16.350  26.585  14.048
25629W        W94023  23.600  14.180  13.050
25630W        W94024  12.295  38.029  12.413
25631W        W94025  41.109  19.791  11.282
25632W        W94026  16.327  17.068  13.645
25633W        W94027   3.305   1.966   3.155
25634W        W94028  38.933  10.448   2.255
25635W        W94029  18.493  17.888  13.471
25636W        W94030  30.620  31.347  10.676
25637W        W94031   6.706  25.203  10.727
25638W        W94032   5.339  19.607   2.720
25639W        W94033  32.188  29.769  12.324
25640W        W94034   8.276  35.000  13.197
25641W        W94035   3.113  20.026  13.861
25642W        W94036  40.774  16.546  13.880
25643W        W94037  44.455  24.017   3.654
25644W        W94038  30.977  36.610   0.735
25645W        W94039  23.722   5.201   0.029
25646W        W94040  33.010  36.686  14.196
25647W        W94041  19.131   2.252  14.355
25648W        W94042   9.258  20.588  10.164
25649W        W94043  38.504  20.662   0.954
25650W        W94044  10.317  36.857   0.935
25651W        W94045  22.763  15.146  12.226
25652W        W94046   6.957  43.513  12.957
25653W        W94047   6.803  43.383   4.290
25654W        W94048  21.571   5.291  11.860
25655W        W94049   7.700  29.766   2.185
25656W        W94050  28.471  44.944  10.765
25657W        W94051  16.319  41.290   1.075
25658W        W94052   1.669  30.395  12.277
25659W        W94053  11.254   8.231  11.509
25660W        W94054  39.255  42.882  14.713
25661W        W94055  17.662  14.182  10.361
25662W        W94056  30.568  24.632   1.977
25663W        W94057   9.919  29.265   2.217
25664W        W94058  23.761  15.850   1.218
25665W        W94059   5.674  19.109  11.824
25666W        W94060  13.746  25.107  12.643
25667W        W94061   7.661   2.998  13.872
25668W        W94062  24.012   0.939   3.376
25669W        W94063  43.306  15.526  14.482
25670W        W94064  19.323  16.745   4.187
25671W        W94065  16.270   7.926  12.945
25672W        W94066  33.551   4.977   2.237
25673W        W94067  16.204   5.690  12.336
25674W        W94068  39.437  36.488   2.719
25675W        W94069   3.731  31.009   1.804
25676W        W94070  35.023  17.372  12.580
25677W        W94071  34.446   9.615   4.538
25678W        W94072  43.400   2.937  12.829
25679W        W94073  31.042  18.132  13.367
25680W        W94074  42.819   6.831  10.436
25681W        W94075  40.212   7.687   1.847
25682W        W94076  24.586  37.804  11.146
25683W        W94077  33.686  30.222   0.109
25684W        W94078  22.035  41.376  13.175
25685W        W94079  26.748  13.307   3.641
25686W        W94080  15.625  20.976   0.321
25687W        W94081  36.113  11.141  10.548
25688W        W94082  21.729   5.845   0.168
25689W        W94083  24.467  20.991  11.507
25690W        W94084  34.538   8.688  11.023
25691W        W94085  17.642  31.210   1.317
25692W        W94086  25.612  35.509   2.388
25693W        W94087  44.477  40.375  10.596
25694W        W94088  17.548  26.122  10.313
25695W        W94089   2.331  30.862  11.204
25696W        W94090  35.883   4.711   2.271
25697W        W94091  25.739  31.495   1.809
25698W        W94092  42.028  39.115   0.915
25699W        W94093  27.432  42.969  12.070
25700W        W94094  33.663  40.268  13.694
25701W        W94095  22.503  18.968  10.957
25702W        W94096  43.920  11.812   1.731
25703W        W94097  34.485  19.489  12.502
25704W        W94098  34.782  19.736  14.427
25705W        W94099   4.859  24.680  11.198
25706W        W94100   1.346  41.927  13.543
25707W        W94101   7.215   6.615   0.998
25708W        W94102  30.961  10.552   2.310
25709W        W94103  11.802  15.530  11.581
25710W        W94104  30.053  27.418   0.421
25711W        W94105   2.213  31.866   1.683
25712W        W94106   3.223   0.133   3.088
25713W        W94107   8.793  26.211   4.287
25714W        W94108  40.951  10.919  11.584
25715W        W94109  27.266  42.434  12.912
25716W        W94110  30.408   7.094   0.886
25717W        W94111  17.668  41.460   1.355
25718W        W94112  30.153  18.303   1.737
25719W        W94113  17.839  16.108   2.170
25720W        W94114  30.715  40.424  12.718
25721W        W94115   4.924   9.785  14.734
25722W        W94116   5.203  11.259  10.854
25723W        W94117   5.794  31.346   0.316
25724W        W94118  19.360  44.296  14.493
25725W        W94119  16.741   4.780  13.399
25726W        W94120   5.403  24.048  14.811
25727W        W94121  42.516  21.582   2.117
25728W        W94122   4.855   9.315   3.687
25729W        W94123  38.058  32.017  14.763
25730W        W94124  42.495  16.822   3.764
25731W        W94125  35.720  26.195   3.372
25732W        W94126  37.520   5.924  14.939
25733W        W94127  41.617  17.757   1.242
25734W        W94128   4.273  19.246   4.004
25735W        W94129   9.308   9.972   2.822
25736W        W94130  24.700  18.279  14.805
25737W        W94131   7.324  21.966  13.798
25738W        W94132  26.235  28.105  14.121
25739W        W94133   8.748  42.823   1.418
25740W        W94134   8.225  10.305   2.704
25741W        W94135  31.817  11.603   3.035
25742W        W94136   2.921  43.090  11.223
25743W        W94137  25.017  42.352  11.066
25744W        W94138   5.426   6.694   3.059
25745W        W94139  27.135  17.030   3.867
25746W        W94140  11.707   4.429  12.498
25747W        W94141   8.282  35.842   0.575
25748W        W94142  38.058  20.576  11.642
25749W        W94143  44.596  20.048   4.980
25750W        W94144  26.684  15.681   4.047
25751W        W94145   5.887  25.205  11.142
25752W        W94146  24.706  38.392  12.493
25753W        W94147  29.474  23.786   0.992
25754W        W94148  39.506   8.238   0.428
25755W        W94149  22.114  11.296  11.589
25756W        W94150  26.646  10.300   1.681
25757W        W94151  32.082  20.234   3.646
25758W        W94152  29.784  39.944   0.327
25759W        W94153  43.923   9.195   4.258
25760W        W94154  44.426  14.298   0.749
25761W        W94155  29.159  25.475  12.480
25762W        W94156  11.176  24.050  14.843
25763W        W94157  42.308   0.957   4.687
25764W        W94158  29.001   3.344  14.255
25765W        W94159  11.353  31.866  12.857
25766W        W94160  30.035  18.474  11.661
25767W        W94161  15.230  14.367  12.358
25768W        W94162  44.083   7.477   2.119
25769W        W94163  15.586  29.103  12.551
25770W        W94164  23.571  39.914   3.694
25771W        W94165  35.399  37.483  10.494
25772W        W94166  20.549  23.719   3.198
25773W        W94167  15.994  25.666   3.798
25774W        W94168  18.529   8.194   3.355
25775W        W94169  27.010  37.965  11.604
25776W        W94170  33.426  26.491   1.809
25777W        W94171  30.238  19.811  14.891
25778W        W94172  33.764  13.060   0.749
25779W        W94173  21.798  25.069   2.352
25780W        W94174  18.023  42.093  10.188
25781W        W94175  29.928  31.943   2.688
25782W        W94176  17.656   1.702   0.812
25783W        W94177   3.207  16.247  13.819
25784W        W94178  38.293  26.591   3.306
25785W        W94179  17.511  38.023   3.836
25786W        W94180   5.660  17.252   2.352
25787W        W94181   2.493  20.616  12.904
25788W        W94182  19.278   3.214  11.082
25789W        W94183  14.172  31.596   1.836
25790W        W94184  24.365  26.297  12.417
25791W        W94185  23.511  32.199   0.347
25792W        W94186  43.081  40.817   1.347
25793W        W94187  27.237  21.752   1.164
25794W        W94188  35.857  18.945  14.954
25795W        W94189  44.364  16.781   2.205
25796W        W94190   3.365  29.060   3.654
25797W        W94191  27.999   7.282  12.424
25798W        W94192  27.737  41.555  12.873
25799W        W94193   8.986  40.961   3.994
25800W        W94194  11.673  11.844   1.903
25801W        W94195   3.446  26.616   3.198
25802W        W94196  38.528  22.777  11.897
25803W        W94197  31.127  29.784   2.074
25804W        W94198  42.960  36.808   2.279
25805W        W94199   4.607  18.414  11.550
25806W        W94200  21.091  21.731   3.349
25807W        W94201  14.246  42.301   4.515
25808W        W94202  31.845  28.389  13.306
25809W        W94203  39.100   0.130   2.707
25810W        W94204  41.245  27.034  13.068
25811W        W94205  10.074  23.019   4.243
25812W        W94206  17.341  25.637  12.490
25813W        W94207  17.323   9.148   0.059
25814W        W94208  16.143   3.968  12.890
25815W        W94209  17.223   7.966   1.388
25816W        W94210  37.460  34.591   2.723
25817W        W94211   6.959  34.534   2.222
25818W        W94212   4.097  37.366   3.687
25819W        W94213  14.229   3.457   4.622
25820W        W94214   1.095   6.762   4.254
25821W        W94215  39.003  44.249   1.301
25822W        W94216  41.262   9.217  12.455
25823W        W94217  31.998  31.182   3.738
25824W        W94218  27.565  29.511  11.245
25825W        W94219  22.605  33.782  13.436
25826W        W94220  14.183  18.350  14.481
25827W        W94221  15.877  27.467  12.944
25828W        W94222  21.003  26.537   3.690
25829W        W94223  18.725  38.828   2.714
25830W        W94224  22.556  17.203  10.600
25831W        W94225  39.103  21.507  13.513
25832W        W94226   8.219  34.107   4.294
25833W        W94227  28.062  27.487  10.644
25834W        W94228  26.164  44.378   3.278
25835W        W94229   5.848  19.636   0.067
25836W        W94230  36.945   9.228   1.355
25837W        W94231  18.089  20.627   2.859
25838W        W94232  29.004   7.272  13.237
25839W        W94233  32.346   3.035  11.057
25840W        W94234  13.630  42.890  11.232
25841W        W94235  35.005  16.840   4.303
25842W        W94236   1.793   7.253   3.784
25843W        W94237  29.059  21.239   0.343
25844W        W94238   0.580   5.156   2.361
25845W        W94239  16.765  18.657   4.619
25846W        W94240   9.159  16.178  11.324
25847W        W94241  39.685  39.396   0.919
25848W        W94242  37.612  42.325  14.462
25849W        W94243   2.217  44.606   2.388
25850W        W94244  18.145  34.093   3.659
25851W        W94245   1.551  42.237   4.048
25852W        W94246  29.827   4.761   0.915
25853W        W94247   3.818   5.745   9.839
25854W        W94248  10.684  27.639   3.589
25855W        W94249  21.775   9.917  10.165
25856W        W94250  29.481  16.861  14.224
25857W        W94251  20.155  20.514  11.587
25858W        W94252   4.384  36.884   1.791
25859W        W94253  13.209  19.517   3.183
25860W        W94254  42.052  36.529   1.260
25861W        W94255   1.984  19.045   2.887
25862W        W94256   2.258  25.355  12.589
25863W        W94257  31.046  25.247  14.400
25864W        W94258  20.143  33.793   2.416
25865W        W94259  18.421  20.255  13.091
25866W        W94260  32.936   6.976  10.744
25867W        W94261  17.831  21.420   1.823
25868W        W94262  31.097  42.912  10.714
25869W        W94263  42.071  34.862  11.932
25870W        W94264  19.772   3.214   2.118
25871W        W94265   0.377  13.294   4.775
25872W        W94266  14.592  28.016  14.812
25873W        W94267  10.566  11.559  14.518
25874W        W94268   3.900  30.188  11.590
25875W        W94269  16.770  27.006   2.392
25876W        W94270  34.966   1.375   3.771
25877W        W94271  17.468  26.048   1.651
25878W        W94272  40.752  30.412  10.715
25879W        W94273   8.778  17.087  11.175
25880W        W94274  36.776  11.573   0.883
25881W        W94275  29.067  27.526   1.863
25882W        W94276  14.914  36.594  12.618
25883W        W94277   5.906  19.118   1.965
25884W        W94278  10.044  21.244   3.716
25885W        W94279  40.991  22.095   4.883
25886W        W94280  18.171   6.168   2.622
25887W        W94281  36.822  34.860  11.949
25888W        W94282   0.277  12.417   0.855
25889W        W94283   7.460  43.012  11.529
25890W        W94284   8.301   6.758   1.198
25891W        W94285  26.189  21.716   3.618
25892W        W94286  25.484  22.815  12.454
25893W        W94287  23.420  43.475   4.196
25894W        W94288  29.681  12.733  10.703
25895W        W94289   2.786  41.608  14.097
25896W        W94290  22.579  39.658   0.374
25897W        W94291   1.996   8.375   4.786
25898W        W94292  35.162  40.803  10.645
25899W        W94293  35.495  22.251  13.577
25900W        W94294  19.463  26.629   2.403
25901W        W94295  10.011   4.809  11.075
25902W        W94296  26.900  16.340  11.603
25903W        W94297  14.791  24.475  13.248
25904W        W94298  31.641  28.153   0.702
25905W        W94299  11.941  23.121  11.948
25906W        W94300  42.905  19.380  11.954
25907W        W94301  19.615  27.447   0.281
25908W        W94302   2.507  11.811   1.384
25909W        W94303  13.332  28.043   0.364
25910W        W94304  30.465   8.424  11.188
25911W        W94305  36.918  44.056   2.694
25912W        W94306  25.973  13.634  11.997
25913W        W94307  24.315  15.677  11.569
25914W        W94308   7.725  10.136   2.794
25915W        W94309  44.168  16.481   4.819
25916W        W94310   6.624  17.802   1.585
25917W        W94311  28.861  42.879   1.218
25918W        W94312  26.148  10.389  13.645
25919W        W94313  15.379   8.738   9.890
25920W        W94314  24.315  25.317  11.954
25921W        W94315  34.254  38.174  14.082
25922W        W94316  20.443  25.975   1.764
25923W        W94317  13.406  14.119   3.227
25924W        W94318   7.315  37.419   2.081
25925W        W94319  37.074  27.880   2.761
25926W        W94320  14.865   7.002   0.734
25927W        W94321  23.516  30.825   1.963
25928W        W94322  19.153  32.558  11.219
25929W        W94323   3.303  17.872   4.811
25930W        W94324  17.418  32.918  12.928
25931W        W94325  16.159  26.661  10.161
25932W        W94326  34.258   5.455  11.162
25933W        W94327  29.538  20.632  11.269
25934W        W94328  37.302   0.872   0.078
25935W        W94329   6.699   0.541   3.268
25936W        W94330  35.377  19.240  11.097
25937W        W94331  38.022  11.557   0.688
25938W        W94332  21.537  30.966   5.121
25939W        W94333  11.243  15.646  14.870
25940W        W94334  34.533  30.909   1.168
25941W        W94335  44.317   2.253   0.421
25942W        W94336   5.132  25.465   2.746
25943W        W94337  20.531  12.583   0.775
25944W        W94338  36.799   3.332   1.882
25945W        W94339   5.431  29.286  13.344
25946W        W94340  41.640   9.082   1.786
25947W        W94341   8.659  23.140   2.425
25948W        W94342  17.193  10.475   1.391
25949W        W94343  19.576  18.545   1.891
25950W        W94344  12.792  39.799  11.005
25951W        W94345   9.444  10.350   3.223
25952W        W94346  40.979  33.093  14.214
25953W        W94347  20.969  44.785  13.120
25954W        W94348  20.636  15.804   1.946
25955W        W94349  28.602  41.959   2.761
25956W        W94350   3.305  41.179  10.309
25957W        W94351  30.528  36.123   4.605
25958W        W94352  33.116  38.009  12.146
25959W        W94353  11.141  44.356   3.285
25960W        W94354  41.079  11.859  12.083
25961W        W94355  19.101  31.508   1.503
25962W        W94356  25.383  41.513  11.164
25963W        W94357  10.074  11.883  12.963
25964W        W94358  26.156   0.347  12.066
25965W        W94359   4.946   7.257   1.971
25966W        W94360  27.151  31.644  14.579
25967W        W94361  24.952   1.175  14.586
25968W        W94362  25.636  22.920  13.508
25969W        W94363  25.593   5.930   0.681
25970W        W94364  37.617  17.177  14.774
25971W        W94365   7.095  29.510  11.430
25972W        W94366  27.078   9.170  13.148
25973W        W94367  25.354  31.066   3.145
25974W        W94368  14.823  37.402  10.654
25975W        W94369  13.855  36.022   2.186
25976W        W94370   5.507  29.249   5.008
25977W        W94371  12.139   8.443  14.947
25978W        W94372  18.924  33.610  12.402
25979W        W94373   4.725  14.488  14.260
25980W        W94374  24.234   7.479   2.517
25981W        W94375  19.685   0.291   3.723
25982W        W94376  23.730  10.230   1.845
25983W        W94377   1.012  24.020   0.799
25984W        W94378  32.843  37.065   0.978
25985W        W94379  41.620   2.477   0.745
25986W        W94380  35.619  24.929  13.298
25987W        W94381  28.450   0.929   0.678
25988W        W94382   7.856  24.244   2.845
25989W        W94383  19.164  45.000   2.458
25990W        W94384   2.529  22.972  13.497
25991W        W94385   8.049   2.172   0.264
25992W        W94386  32.063  13.492  10.729
25993W        W94387  29.514  33.804   3.931
25994W        W94388  34.264  40.054   3.265
25995W        W94389  10.236  43.099  12.441
25996W        W94390  28.617  14.829   2.574
25997W        W94391   2.483  22.258  11.628
25998W        W94392  24.052  38.876  12.946
25999W        W94393  40.200  16.538   4.997
26000W        W94394  11.543   3.307  10.586
26001W        W94395  12.194  40.329   3.363
26002W        W94396  13.449  16.151  12.409
26003W        W94397   2.028  13.704   0.380
26004W        W94398  31.387   4.172   2.184
26005W        W94399   2.579  38.254   0.401
26006W        W94400   8.265  11.379   4.831
26007W        W94401  44.120  37.094   1.595
26008W        W94402  19.479   7.313  10.581
26009W        W94403  17.625  39.385  12.473
26010W        W94404  16.618  19.704  11.019
26011W        W94405   0.161  21.430  10.673
26012W        W94406   5.766  17.824   1.508
26013W        W94407  27.931  39.171  13.415
26014W        W94408  28.579  22.602  12.178
26015W        W94409  28.670  38.486  11.884
26016W        W94410  38.510   8.454  14.532
26017W        W94411  12.446  25.866   0.860
26018W        W94412  27.766  41.895   0.272
26019W        W94413  12.608  32.378   0.050
26020W        W94414  13.045  25.763   1.728
26021W        W94415  28.586  33.803   2.891
26022W        W94416   4.878  35.115  11.697
26023W        W94417  10.803   8.863  12.381
26024W        W94418  31.458  33.637   4.388
26025W        W94419   8.653  34.350  12.473
26026W        W94420   1.297  43.954   4.075
26027W        W94421  28.407  35.089  13.490
26028W        W94422  26.351   5.767   0.307
26029W        W94423   7.813  29.181  13.853
26030W        W94424  21.650  44.480  12.868
26031W        W94425   8.776  35.466  13.474
26032W        W94426  23.190  19.759  12.140
26033W        W94427  43.319   1.060   4.686
26034W        W94428  18.777  35.599   0.148
26035W        W94429  30.591  42.554  12.809
26036W        W94430  25.653  34.372  11.219
26037W        W94431  13.703  29.060  12.018
26038W        W94432  37.852  25.233   1.652
26039W        W94433   8.656   9.728   3.408
26040W        W94434  34.888  12.295   2.928
26041W        W94435  36.599  23.962  11.595
26042W        W94436  22.253  19.272   1.317
26043W        W94437  25.721  35.107  11.916
26044W        W94438  23.125  25.004  12.388
26045W        W94439   4.367  29.982  12.610
26046W        W94440  41.785  18.516  10.715
26047W        W94441  16.297  18.859   1.813
26048W        W94442  24.950   0.730   1.811
26049W        W94443  36.547  41.834  12.994
26050W        W94444  32.488  22.437  14.730
26051W        W94445  19.944  20.098  11.390
26052W        W94446   8.143  43.776   1.197
26053W        W94447  40.942  27.033  11.527
26054W        W94448  36.539  12.507  13.686
26055W        W94449  17.256   1.910   4.652
26056W        W94450  33.966  34.437  12.625
26057W        W94451  30.381  20.075  14.467
26058W        W94452  18.673  25.022   0.040
26059W        W94453  40.190  21.286   0.146
26060W        W94454  42.910   4.973   3.979
26061W        W94455  25.140  37.581  14.913
26062W        W94456  28.092  19.025   2.396
26063W        W94457   1.783  35.461   4.594
26064W        W94458  33.831  19.045   2.845
26065W        W94459  23.541   1.963  11.751
26066W        W94460  16.540   1.860  14.836
26067W        W94461   9.976  13.419   3.257
26068W        W94462  23.257  37.205  11.711
26069W        W94463  38.070  26.617   1.662
26070W        W94464  13.275  25.508  14.739
26071W        W94465  32.334  44.771  12.133
26072W        W94466  27.073  13.627   4.368
26073W        W94467   9.280  18.122   2.825
26074W        W94468  16.427  42.844  13.199
26075W        W94469  32.869  24.247  12.139
26076W        W94470  24.077   0.776   0.396
26077W        W94471   0.463  42.582   4.426
26078W        W94472   9.329  35.319   3.358
26079W        W94473   6.918  18.567  14.715
26080W        W94474  39.123  15.750  13.875
26081W        W94475   4.905   3.339  13.261
26082W        W94476  38.262  28.162  14.514
26083W        W94477  32.758  21.097  14.373
26084W        W94478  35.499  12.124  14.121
26085W        W94479   0.833  15.191   1.908
26086W        W94480  30.633   8.951   3.778
26087W        W94481   7.570   6.256  10.705
26088W        W94482  28.383  42.220   1.021
26089W        W94483  21.041  28.798  13.514
26090W        W94484  25.478  24.556   3.244
26091W        W94485   6.350  21.073   4.972
26092W        W94486  30.335  24.095  10.482
26093W        W94487  32.060  37.397  11.095
26094W        W94488  19.714  29.906   2.800
26095W        W94489  38.132  39.548   4.452
26096W        W94490   3.856  36.031  13.546
26097W        W94491  13.623   3.459   1.858
26098W        W94492  12.037   6.727   1.443
26099W        W94493  20.833   9.324  14.324
26100W        W94494  12.261  37.363   4.256
26101W        W94495   6.818  14.824   0.969
26102W        W94496  10.445  14.239  14.798
26103W        W94497  32.561   2.094   4.206
26104W        W94498  33.988   5.909   4.559
26105W        W94499  13.220  21.720   4.094
26106W        W94500  42.476  17.860  14.352
26107W        W94501  43.523   5.755   2.483
26108W        W94502  24.299  33.484  11.554
26109W        W94503   9.765  23.113   0.265
26110W        W94504  40.288  17.084  12.877
26111W        W94505  37.814  32.647   0.720
26112W        W94506   8.110  25.998   2.110
26113W        W94507   3.673  24.425   2.657
26114W        W94508  11.853  27.518   3.741
26115W        W94509   7.757  30.528   1.524
26116W        W94510   0.463  21.262  13.036
26117W        W94511   0.037  35.840  12.489
26118W        W94512  33.380   1.730  11.217
26119W        W94513  23.715  35.902  13.805
26120W        W94514  35.356   6.776  14.874
26121W        W94515  17.863   8.180   4.184
26122W        W94516   4.673   6.610  10.549
26123W        W94517   2.702   9.581   1.601
26124W        W94518  34.410  43.422   3.056
26125W        W94519  36.827  22.476  12.362
26126W        W94520   1.969  26.713   2.028
26127W        W94521  38.012  32.590  12.435
26128W        W94522  22.049  40.347   4.402
26129W        W94523  27.996  29.523   3.636
26130W        W94524  30.472  12.967   3.102
26131W        W94525   0.455  36.443   2.435
26132W        W94526  14.174  37.293   2.438
26133W        W94527  24.472  36.719   4.963
26134W        W94528   4.085  26.089   3.854
26135W        W94529  22.871  29.636   4.710
26136W        W94530  15.992   4.850  12.052
26137W        W94531   4.700   0.645  11.591
26138W        W94532  19.133  44.455   2.180
26139W        W94533  39.763   7.174  10.790
26140W        W94534  14.695  23.641   4.637
26141W        W94535  18.849  32.877  14.853
26142W        W94536  21.739   5.885  12.478
26143W        W94537  30.919  30.505  14.825
26144W        W94538  42.267   7.616   3.103
26145W        W94539   8.206   6.997  14.886
26146W        W94540  43.266  24.532   4.194
26147W        W94541   2.825  25.290  13.338
26148W        W94542  43.824  18.171  12.548
26149W        W94543   1.243   8.879   4.699
26150W        W94544  16.312  23.525   1.924
26151W        W94545  17.087  10.338   2.909
26152W        W94546  38.419  20.143   0.826
26153W        W94547  21.741  32.584   2.627
26154W        W94548  19.583   4.769  11.085
26155W        W94549  12.694  12.262  13.927
26156W        W94550  24.346  14.481  11.155
26157W        W94551  15.308   1.711  13.848
26158W        W94552  26.325  24.516   0.003
26159W        W94553  13.832  10.699   4.625
26160W        W94554  22.270  31.926   2.343
26161W        W94555   8.348   2.910   4.190
26162W        W94556  13.600  18.251  13.735
26163W        W94557   6.980   8.337   2.867
26164W        W94558  11.879  17.070   1.652
26165W        W94559  15.424  27.741  13.018
26166W        W94560  29.011  24.715  14.997
26167W        W94561  23.293  38.578   1.434
26168W        W94562   5.391  22.930  10.477
26169W        W94563  43.892  11.323  13.886
26170W        W94564  18.735  42.280   0.946
26171W        W94565  17.469   7.250  10.751
26172W        W94566  39.866   3.010   3.216
26173W        W94567  39.015   3.670  10.800
26174W        W94568  41.491  14.337  11.483
26175W        W94569   5.660   3.880   3.124
26176W        W94570  30.893  11.814   0.418
26177W        W94571  13.898   1.154  12.508
26178W        W94572  15.035   7.989  12.583
26179W        W94573   0.296  38.891  11.025
26180W        W94574  12.476  34.340  12.508
26181W        W94575  24.628  15.432   4.228
26182W        W94576  40.898  16.036   2.335
26183W        W94577  37.042  20.125  10.772
26184W        W94578   3.849  37.464   0.304
26185W        W94579   1.912   5.891   4.656
26186W        W94580  28.640  42.375   4.094
26187W        W94581  21.304  25.629   5.097
26188W        W94582   0.816  17.172   4.732
26189W        W94583  21.697  17.200   1.718
26190W        W94584   5.608   8.311   2.018
26191W        W94585  16.564  44.049   4.403
26192W        W94586  20.809   6.757   2.312
26193W        W94587  42.739   9.794  10.649
26194W        W94588  39.071   7.675   4.701
26195W        W94589  14.743   4.847  14.487
26196W        W94590  41.005  18.492  11.479
26197W        W94591  34.350   0.993  11.584
26198W        W94592  33.299  30.146  13.441
26199W        W94593   2.878  29.878   4.598
26200W        W94594   8.761  34.034   3.594
26201W        W94595  27.981   3.353  11.618
26202W        W94596  42.263  31.938  14.024
26203W        W94597  31.435  24.541   1.888
26204W        W94598  37.495   8.638  10.566
26205W        W94599   4.876  36.384  11.733
26206W        W94600  39.026   4.824  10.427
26207W        W94601  21.247  28.926   2.274
26208W        W94602  39.629  21.478  14.947
26209W        W94603  14.082  31.624  13.088
26210W        W94604   2.487   5.876   3.809
26211W        W94605   5.457  35.711   1.013
26212W        W94606   3.582  11.977   1.844
26213W        W94607   6.798  20.499  12.282
26214W        W94608  37.591  23.070  12.701
26215W        W94609  11.086  39.352   3.996
26216W        W94610  43.268  37.551  12.986
26217W        W94611  37.228  32.431  13.352
26218W        W94612  17.529  22.618  12.215
26219W        W94613  13.609  15.100   2.808
26220W        W94614  25.566  24.251   4.596
26221W        W94615  41.002  16.505  13.333
26222W        W94616  10.976  18.799   3.111
26223W        W94617   9.590  22.145   2.312
26224W        W94618  24.641  17.273   0.088
26225W        W94619  29.008  18.696  10.699
26226W        W94620  39.970  39.082  10.156
26227W        W94621  18.000  32.637   2.399
26228W        W94622  32.295   8.650   4.233
26229W        W94623  14.203   4.681   1.890
26230W        W94624  42.508   7.396  13.938
26231W        W94625   7.629  43.407  10.640
26232W        W94626  23.502  37.908   0.029
26233W        W94627  22.294  38.381   2.192
26234W        W94628   7.123  10.280  10.757
26235W        W94629  23.501   0.015   1.339
26236W        W94630  16.200  13.217   4.751
26237W        W94631  41.830   7.356   4.595
26238W        W94632  32.297  35.523  12.614
26239W        W94633  13.313  13.066  10.659
26240W        W94634  29.610  40.373  13.454
26241W        W94635  42.026  23.500   3.670
26242W        W94636  42.567  16.438   0.558
26243W        W94637  42.014  20.215  10.649
26244W        W94638  44.845  11.146   1.277
26245W        W94639  44.333  36.628  13.645
26246W        W94640  36.163  15.425   5.026
26247W        W94641  39.000  34.545  13.843
26248W        W94642  34.327  44.319  12.509
26249W        W94643   0.811  37.346   3.110
26250W        W94644   4.264  43.539  12.078
26251W        W94645  42.491  11.545  14.835
26252W        W94646  11.441  16.047  13.114
26253W        W94647  30.271  16.505  13.495
26254W        W94648  12.461  22.265   3.777
26255W        W94649  32.133   0.484  10.698
26256W        W94650  14.357  27.155  13.467
26257W        W94651  41.538  43.367   3.714
26258W        W94652  37.943   5.747   3.130
26259W        W94653  12.228  20.774  14.217
26260W        W94654  41.396  19.707   2.622
26261W        W94655  11.148  15.673   4.524
26262W        W94656   6.221  40.340  10.644
26263W        W94657  40.941  36.134  12.861
26264W        W94658  38.042  26.344   4.730
26265W        W94659   5.150  19.349  13.824
26266W        W94660   8.654  42.680  13.881
26267W        W94661  38.534   6.559  12.362
26268W        W94662   6.733   3.520  14.898
26269W        W94663  42.662  40.578   5.063
26270W        W94664  40.902  35.474   0.719
26271W        W94665   8.684  33.495  12.166
26272W        W94666  19.697  18.675   3.278
26273W        W94667   5.007  44.956   2.418
26274W        W94668   2.170  25.243   1.695
26275W        W94669   3.456  31.633   4.947
26276W        W94670  33.997  14.552   3.364
26277W        W94671  30.812  43.222  11.002
26278W        W94672  41.815  12.064  10.650
26279W        W94673   6.318  35.581   2.015
26280W        W94674  19.286  11.247  10.676
26281W        W94675  19.496   0.089  14.026
26282W        W94676  28.688  24.589   1.815
26283W        W94677  26.202  34.637   3.200
26284W        W94678  35.580  26.709  12.828
26285W        W94679   7.712  40.991   4.539
26286W        W94680  10.791  36.578   0.785
26287W        W94681  37.877  14.116  12.151
26288W        W94682   6.169   7.715   3.561
26289W        W94683   4.416  14.245   2.866
26290W        W94684  15.256  23.036  11.117
26291W        W94685  21.215  43.784  11.581
26292W        W94686  20.887  10.891   1.931
26293W        W94687  37.964   9.414  10.716
26294W        W94688  25.478  12.748  12.560
26295W        W94689   3.267  18.768  14.375
26296W        W94690  38.083  34.921   0.377
26297W        W94691  37.742  33.180   0.817
26298W        W94692   9.613  15.290  14.807
26299W        W94693  30.283  19.875  13.589
26300W        W94694  16.177  32.062  13.856
26301W        W94695  16.768   7.427   3.150
26302W        W94696   2.950  18.533  12.054
26303W        W94697  36.798  21.654  14.279
26304W        W94698  24.373  36.862   2.600
26305W        W94699  21.664   2.008  14.099
26306W        W94700  35.464  15.644   4.395
26307W        W94701   8.588   4.249   3.288
26308W        W94702   1.402  44.933   4.523
26309W        W94703   3.887  27.903   3.616
26310W        W94704  40.354  31.180   0.395
26311W        W94705  33.483   1.527  13.868
26312W        W94706  43.138  17.842  11.238
26313W        W94707  11.835  18.280  14.905
26314W        W94708  22.081  31.752  11.117
26315W        W94709  44.084  21.586  12.548
26316W        W94710  41.840  44.315  10.343
26317W        W94711  24.711  41.033   1.520
26318W        W94712  18.836  32.703  12.995
26319W        W94713  28.513  40.899  12.845
26320W        W94714  16.836  23.979   4.140
26321W        W94715  19.071  40.401   3.699
26322W        W94716  23.356  41.051   3.545
26323W        W94717  35.957   2.479  11.596
26324W        W94718  42.888  17.515   1.422
26325W        W94719  36.938  40.643   2.301
26326W        W94720  27.046   9.860   2.351
26327W        W94721  27.196  13.299   3.205
26328W        W94722   9.572  27.161  13.873
26329W        W94723  32.499   2.990   3.379
26330W        W94724  25.505   3.780   3.833
26331W        W94725  22.726  36.277  12.083
26332W        W94726   4.963  25.896  13.334
26333W        W94727   7.288  22.622   1.424
26334W        W94728  15.426  23.968  13.385
26335W        W94729   6.645   2.204   5.411
26336W        W94730  32.358  28.177  10.628
26337W        W94731   9.678  25.931  12.817
26338W        W94732  39.060  25.663   3.369
26339W        W94733  25.702  20.186  12.061
26340W        W94734   2.322  34.410  14.806
26341W        W94735  10.125  24.514   5.019
26342W        W94736  22.993  19.212  12.344
26343W        W94737  44.010   4.207   3.092
26344W        W94738  43.940  13.902  11.092
26345W        W94739  38.055   3.152  11.502
26346W        W94740  42.087  21.141   4.915
26347W        W94741  28.804  39.838   1.891
26348W        W94742  34.478  36.025  12.023
26349W        W94743  23.904  35.208  12.035
26350W        W94744  33.320  36.474  12.147
26351W        W94745  11.302   3.125   0.319
26352W        W94746  44.732  19.479   2.191
26353W        W94747  14.084   7.968  13.937
26354W        W94748  10.773  10.755   0.925
26355W        W94749   6.584   3.545   2.302
26356W        W94750  16.855   5.355   3.289
26357W        W94751  38.767  25.718   4.307
26358W        W94752  43.820  38.578   3.743
26359W        W94753  29.920  41.066  14.485
26360W        W94754  31.378   3.844   2.877
26361W        W94755   2.822   8.825  11.062
26362W        W94756  35.906  35.815   4.128
26363W        W94757  12.933   6.470   1.252
26364W        W94758  37.839  31.334  12.030
26365W        W94759   4.410  43.083   0.727
26366W        W94760   6.977  36.157  10.757
26367W        W94761  41.929  38.999  12.549
26368W        W94762  37.920  37.556   3.639
26369W        W94763  35.273  17.120  11.868
26370W        W94764  21.003   4.929  13.463
26371W        W94765  16.737  27.833   1.881
26372W        W94766   1.398  39.523   3.217
26373W        W94767  25.433  22.856   4.999
26374W        W94768   7.916  42.544   0.493
26375W        W94769  39.373  43.786  11.544
26376W        W94770  24.759  22.953   0.840
26377W        W94771  38.008  21.606  12.635
26378W        W94772   2.378  39.834   0.470
26379W        W94773  41.017  36.414  10.674
26380W        W94774   9.570  32.568  12.486
26381W        W94775  24.366  18.627   4.583
26382W        W94776  25.243  29.915   4.961
26383W        W94777  13.719  30.969  14.477
26384W        W94778  11.400  29.978   1.330
26385W        W94779  21.068  29.810   4.182
26386W        W94780   2.332  13.347   3.792
26387W        W94781  17.494   7.589  13.375
26388W        W94782   4.595   5.814  14.052
26389W        W94783  35.298  32.936  14.985
26390W        W94784   3.166  16.743   2.386
26391W        W94785   8.603   1.975   2.755
26392W        W94786   9.550   1.383   4.531
26393W        W94787  24.051   2.283   0.395
26394W        W94788  34.554  15.331  10.264
26395W        W94789  30.072   4.006  13.778
26396W        W94790  12.918  44.290   3.674
26397W        W94791  21.306   0.321   3.578
26398W        W94792  43.006  39.472  13.270
26399W        W94793  17.799  21.817   4.555
26400W        W94794   7.429  30.844  12.219
26401W        W94795  24.945  27.811   2.188
26402W        W94796  39.440   0.415  12.330
26403W        W94797  22.009  12.845   2.048
26404W        W94798  38.055  13.822  13.986
26405W        W94799  39.960  31.512  10.808
26406W        W94800  15.372  11.868  12.507
26407W        W94801  25.453  28.731   4.917
26408W        W94802  38.567   5.331  13.985
26409W        W94803   7.006  20.832   3.315
26410W        W94804  28.667  23.904   4.129
26411W        W94805  35.919  21.560   3.436
26412W        W94806   5.398  20.490  14.486
26413W        W94807  11.659  27.592   3.279
26414W        W94808  22.608  24.948  10.705
26415W        W94809  17.510   0.951   1.126
26416W        W94810  23.150  12.911  13.053
26417W        W94811  25.000  44.796  10.216
26418W        W94812  22.730  34.882   0.306
26419W        W94813   1.813  15.823  10.227
26420W        W94814   5.647  17.217  10.502
26421W        W94815  27.563  32.129   1.347
26422W        W94816  21.041  43.774   3.251
26423W        W94817  14.958  32.525   0.721
26424W        W94818  25.175  13.718   1.041
26425W        W94819   3.470  30.748  13.462
26426W        W94820  26.030  38.198   2.813
26427W        W94821  19.147  14.294   0.256
26428W        W94822  32.949  21.656   2.129
26429W        W94823  14.257  29.543   3.176
26430W        W94824   5.337  28.567   4.307
26431W        W94825  20.671   4.149  13.499
26432W        W94826  29.721   3.242   4.983
26433W        W94827   7.121  27.882   0.008
26434W        W94828   9.626   1.456   3.146
26435W        W94829  19.200  29.737   2.712
26436W        W94830  32.805  13.665  11.187
26437W        W94831  42.721  28.170  11.133
26438W        W94832  21.348  44.444   2.702
26439W        W94833  16.449  20.154   0.828
26440W        W94834   2.981  38.968   2.784
26441W        W94835  36.813  10.776   4.301
26442W        W94836  37.487  17.630   2.917
26443W        W94837  39.433  29.387  14.995
26444W        W94838  20.613  21.468  10.640
26445W        W94839  30.733  30.620   4.180
26446W        W94840  36.148  41.393   4.642
26447W        W94841  39.344  30.519   4.202
26448W        W94842  44.419  20.172   1.859
26449W        W94843  32.895  26.072  13.530
26450W        W94844  43.748  39.102  11.122
26451W        W94845  26.160  43.464   4.056
26452W        W94846  24.277   0.621  13.805
26453W        W94847  21.596  27.466   0.862
26454W        W94848   1.434  11.976  12.987
26455W        W94849  22.147  20.521  13.994
26456W        W94850  29.852   9.979   2.148
26457W        W94851   1.779   0.637  11.264
26458W        W94852  43.566  29.005  12.712
26459W        W94853   0.102  25.290  11.700
26460W        W94854  29.066  29.692   2.901
26461W        W94855   9.680  10.476  14.173
26462W        W94856  35.455  35.908  13.457
26463W        W94857  18.233  40.584   0.832
26464W        W94858  18.564  43.366  14.004
26465W        W94859  39.937  26.215  11.981
26466W        W94860  26.871  11.585  10.244
26467W        W94861  10.316  44.042   2.171
26468W        W94862  28.018  25.883   1.741
26469W        W94863  35.864  36.993  13.576
26470W        W94864  24.461  40.051  12.980
26471W        W94865  11.116   4.257  10.745
26472W        W94866  13.976  24.497  12.167
26473W        W94867  10.132  21.600  13.419
26474W        W94868  24.571  39.963   0.527
26475W        W94869  33.028  38.442   0.220
26476W        W94870  14.080   9.743   2.319
26477W        W94871  10.299  26.772   1.734
26478W        W94872  11.633  20.528  11.658
26479W        W94873   1.710  27.485   2.405
26480W        W94874  20.622  10.624   1.143
26481W        W94875  37.293  19.238  14.370
26482W        W94876  19.242   4.460   1.959
26483W        W94877  25.239  20.520  12.032
26484W        W94878  39.982  29.904   3.860
26485W        W94879  20.020  43.178  12.856
26486W        W94880   7.313  26.455  11.002
26487W        W94881  22.792  35.113  13.429
26488W        W94882  27.556  39.859  12.345
26489W        W94883  30.900   5.368  12.862
26490W        W94884  42.746  32.121  13.465
26491W        W94885  24.029  21.697  14.996
26492W        W94886  38.479   6.939   4.666
26493W        W94887   7.906  34.425   1.259
26494W        W94888  44.588   7.927  11.143
26495W        W94889   0.429  37.794  12.185
26496W        W94890  38.071  27.619   2.554
26497W        W94891   0.733   7.627  14.947
26498W        W94892  40.741  19.232  12.477
26499W        W94893  24.973  40.630  11.552
26500W        W94894  27.617  40.768  13.498
26501W        W94895  19.224   7.835  13.908
26502W        W94896  20.857  29.126  11.601
26503W        W94897  27.727  24.543  13.320
26504W        W94898  18.045  24.844  12.130
26505W        W94899   7.760  16.823  14.001
26506W        W94900  38.103  28.238   3.826
26507W        W94901  25.214  36.827  10.974
26508W        W94902  38.534  25.615   3.300
26509W        W94903  22.878  17.129   1.386
26510W        W94904   8.085  33.950   1.881
26511W        W94905  27.860  20.491  14.879
26512W        W94906   7.553  42.907   0.675
26513W        W94907   0.449  44.487   4.223
26514W        W94908  35.399  28.634   1.917
26515W        W94909  29.061  22.772  11.348
26516W        W94910  26.166  35.546  14.181
26517W        W94911  11.198  22.185  13.472
26518W        W94912  20.308  24.078  11.988
26519W        W94913   5.940  31.637   0.715
26520W        W94914   4.279  19.417   2.826
26521W        W94915   0.781  38.312   3.776
26522W        W94916  41.961  36.621  14.203
26523W        W94917  38.747  29.023  14.285
26524W        W94918  15.714  37.681  11.501
26525W        W94919  19.820  42.962  13.659
26526W        W94920  23.513  33.350   2.240
26527W        W94921  26.529  38.681  10.319
26528W        W94922  17.554  10.014   2.212
26529W        W94923  12.173   4.831   2.113
26530W        W94924  16.667  19.421  12.466
26531W        W94925  28.366  33.902  14.845
26532W        W94926  28.984  34.532   0.755
26533W        W94927  37.352  28.106  13.016
26534W        W94928   5.646  24.143   0.279
26535W        W94929   9.868  34.202  12.506
26536W        W94930  27.266  35.450   3.561
26537W        W94931  30.567  43.761   3.714
26538W        W94932  28.592  31.814   3.861
26539W        W94933  15.687  15.793  10.568
26540W        W94934  29.022  39.076  14.102
26541W        W94935  20.595   4.240   4.742
26542W        W94936  41.261  37.144  13.041
26543W        W94937  39.830   4.217  13.024
26544W        W94938  12.733   9.928  12.304
26545W        W94939   5.920  28.460  12.962
26546W        W94940   1.586  21.166   1.833
26547W        W94941  40.903  38.801   4.562
26548W        W94942  41.408  24.574   1.212
26549W        W94943  16.584  39.326   0.427
26550W        W94944  37.863  42.149   1.914
26551W        W94945   4.914   5.114  12.912
26552W        W94946  37.835   7.301  12.399
26553W        W94947  43.035  14.116   0.336
26554W        W94948  11.359  40.737  12.920
26555W        W94949  15.076  28.164  11.813
26556W        W94950  42.103  35.533   4.160
26557W        W94951  39.770   6.665  10.729
26558W        W94952  12.205   4.281   3.769
26559W        W94953  30.975  25.076  12.421
26560W        W94954  44.149  16.851  13.784
26561W        W94955  30.399  15.105  14.337
26562W        W94956  10.208  32.469   3.742
26563W        W94957  39.044  12.792  10.199
26564W        W94958  16.161   4.861   0.358
26565W        W94959  11.147  12.319  11.273
26566W        W94960   5.738   0.754  10.956
26567W        W94961  19.235  38.855   2.760
26568W        W94962  35.584  28.249  14.601
26569W        W94963  42.024  14.628   0.475
26570W        W94964   5.571  16.778  13.441
26571W        W94965  37.201  13.782  10.890
26572W        W94966  38.870  31.081  12.989
26573W        W94967   9.573  15.253   3.068
26574W        W94968  29.196  14.566  12.068
26575W        W94969  35.454  25.906   3.754
26576W        W94970  40.607   0.358   4.788
26577W        W94971  34.107  31.869   1.323
26578W        W94972  21.562  13.096   1.777
26579W        W94973  31.058  19.782  13.986
26580W        W94974  28.040  15.641  10.765
26581W        W94975  44.007   6.988   2.286
26582W        W94976  40.538  28.895  14.916
26583W        W94977  41.450  40.063   4.189
26584W        W94978  12.797  43.773  14.725
26585W        W94979  34.962  30.485   1.792
26586W        W94980  14.528   1.960   2.289
26587W        W94981  36.341  37.787   0.964
26588W        W94982  24.625  31.022  10.704
26589W        W94983  32.626  28.431  13.944
26590W        W94984  40.286  11.366  11.099
26591W        W94985  18.133   5.245  13.583
26592W        W94986   8.265  10.867  12.909
26593W        W94987  15.122  41.590   0.818
26594W        W94988  30.953   4.247  11.304
26595W        W94989  29.897  41.195   4.968
26596W        W94990  26.558  36.049   3.575
26597W        W94991  41.261  43.069   4.117
26598W        W94992  30.238  29.966  13.129
26599W        W94993  42.940  19.539   0.782
26600W        W94994  30.380  20.174  11.199
26601W        W94995  18.200  27.885  11.661
26602W        W94996   2.306  43.814   3.589
26603W        W94997   6.023  32.956  11.085
26604W        W94998  39.422  16.841   4.485
26605W        W94999  28.100   8.651  14.655
26606W        W95000  30.029  33.370  12.385
26607W        W95001  11.955  18.021  12.321
26608W        W95002  16.157  29.501   2.963
26609W        W95003   6.658   2.360   1.158
26610W        W95004   4.814  42.742  10.641
26611W        W95005  36.158  26.157   4.347
26612W        W95006  11.951   3.862   4.973
26613W        W95007  42.590  27.181   4.223
26614W        W95008   0.361  36.333  12.863
26615W        W95009  36.783   0.187  10.431
26616W        W95010   4.973  11.762   4.108
26617W        W95011  42.979  36.658  11.188
26618W        W95012  21.521   3.225  11.124
26619W        W95013  10.711   8.408  12.580
26620W        W95014  37.776  21.910   0.914
26621W        W95015  18.163  19.714   3.188
26622W        W95016  30.788   2.741  13.419
26623W        W95017  29.356  21.658   0.418
26624W        W95018  37.135  21.904   4.332
26625W        W95019  22.094  39.884   4.681
26626W        W95020   7.771  18.618   3.306
26627W        W95021  17.065  10.092  14.952
26628W        W95022  12.923  44.350  12.910
26629W        W95023  14.792  38.017  14.461
26630W        W95024   2.467   3.235   4.472
26631W        W95025  17.679  42.395  10.499
26632W        W95026   8.140  12.922  13.989
26633W        W95027  29.060  16.000   3.660
26634W        W95028   6.365   6.304   5.119
26635W        W95029  10.795  26.154  11.447
26636W        W95030  30.243   0.522  12.963
26637W        W95031  42.900   6.916   2.556
26638W        W95032  41.863   4.882  12.895
26639W        W95033  38.296  34.919  13.995
26640W        W95034   1.434  42.533  10.908
26641W        W95035  31.688  28.889   3.798
26642W        W95036  38.051   4.326  13.964
26643W        W95037   6.372  29.181  12.414
26644W        W95038  34.816   8.178  12.570
26645W        W95039  40.455  17.838   3.163
26646W        W95040  27.547  38.835   0.674
26647W        W95041  30.948  29.615   3.072
26648W        W95042  23.660  10.201  13.492
26649W        W95043  10.795  22.628   1.331
26650W        W95044  27.017  26.999   1.258
26651W        W95045  16.845  42.984  12.096
26652W        W95046  13.720   7.791   3.975
26653W        W95047  18.312  30.275   0.378
26654W        W95048  29.947  31.538  11.212
26655W        W95049  36.930  25.222  13.994
26656W        W95050  13.737  24.964   0.407
26657W        W95051  31.409   8.278  12.103
26658W        W95052  40.278  13.865  12.558
26659W        W95053   9.343  17.928  10.981
26660W        W95054  12.782   3.265  12.485
26661W        W95055   0.810  30.104  12.884
26662W        W95056  24.392  10.906   3.686
26663W        W95057  15.354   0.080  11.873
26664W        W95058  39.536  13.815  14.504
26665W        W95059  30.128   4.173   2.999
26666W        W95060  29.996   5.461  12.455
26667W        W95061  39.057  39.070  13.759
26668W        W95062  34.150  13.238   0.274
26669W        W95063  39.841  37.842   4.282
26670W        W95064  11.634   7.037  14.487
26671W        W95065  22.160  15.781   0.234
26672W        W95066   5.663   0.303   4.512
26673W        W95067  42.511  42.908   2.060
26674W        W95068  21.050  38.529   2.675
26675W        W95069   6.689  40.317  10.913
26676W        W95070  20.622  26.843  13.528
26677W        W95071   6.807  24.687   2.232
26678W        W95072  18.130  31.658   3.297
26679W        W95073  40.923  38.082   0.234
26680W        W95074  28.926  30.035   2.420
26681W        W95075  34.647   8.266  14.328
26682W        W95076   0.482  33.074  14.381
26683W        W95077  22.318  11.266  14.869
26684W        W95078  34.042  21.493   1.343
26685W        W95079   6.368   7.729   0.835
26686W        W95080   0.970  17.273  11.224
26687W        W95081   1.987  27.573   4.505
26688W        W95082  40.440   6.776  14.294
26689W        W95083  16.658  20.714   1.688
26690W        W95084  16.688  43.878  12.500
26691W        W95085  36.048  16.043  10.746
26692W        W95086  40.963  33.489   2.386
26693W        W95087   0.988   2.546   2.339
26694W        W95088  13.989  31.511  13.585
26695W        W95089   5.155  20.563  10.771
26696W        W95090  24.098  39.115  13.524
26697W        W95091  18.709  32.459   4.049
26698W        W95092   9.615  17.849   4.010
26699W        W95093  27.872  13.892   3.352
26700W        W95094  35.169  31.451  10.717
26701W        W95095  43.388  30.595  13.994
26702W        W95096  17.086  41.866   3.427
26703W        W95097  36.906  12.564  14.848
26704W        W95098   4.928  40.103   3.243
26705W        W95099  42.412   6.092   4.584
26706W        W95100  34.325   5.462  12.009
26707W        W95101  30.021  36.936  13.825
26708W        W95102  42.492   7.440   3.740
26709W        W95103  11.162   5.986   4.149
26710W        W95104  24.542  26.967   0.391
26711W        W95105  21.583  30.857   0.344
26712W        W95106   8.325   6.262  13.461
26713W        W95107   9.740  40.505  10.750
26714W        W95108  35.376   9.793  12.421
26715W        W95109  25.076  23.198   4.807
26716W        W95110  15.644  32.625   3.257
26717W        W95111  10.877  17.131  13.149
26718W        W95112  12.582   0.660  10.764
26719W        W95113  34.576   3.721   4.351
26720W        W95114  39.940   1.431   0.233
26721W        W95115  29.053  37.546   2.751
26722W        W95116  30.585  28.011  11.354
26723W        W95117  30.650  25.549  14.215
26724W        W95118  43.431  38.707   0.336
26725W        W95119  43.258  39.670   9.878
26726W        W95120  13.749  42.217  12.518
26727W        W95121  29.457  39.551   3.151
26728W        W95122  18.687  38.905  13.609
26729W        W95123   7.753  35.985  14.385
26730W        W95124  23.520  16.322   3.808
26731W        W95125  10.759   0.221   2.423
26732W        W95126  20.508   6.723  13.034
26733W        W95127  17.967  35.035   1.263
26734W        W95128  16.748  26.949   3.643
26735W        W95129  10.695   4.974   4.689
26736W        W95130  33.320  13.660   0.501
26737W        W95131  11.297   8.809  12.477
26738W        W95132  27.512  17.392   3.823
26739W        W95133   4.116  10.787   4.303
26740W        W95134  29.204  33.189   1.363
26741W        W95135  23.807  12.855   0.382
26742W        W95136  40.377   1.484   0.998
26743W        W95137  22.261  14.794   1.251
26744W        W95138  21.660  10.676   0.362
26745W        W95139   2.204  40.548  12.138
26746W        W95140   1.008  15.589  10.683
26747W        W95141  20.971  19.034   3.185
26748W        W95142  14.622  11.855   0.875
26749W        W95143  25.631  14.525  11.002
26750W        W95144  10.693  13.174  13.067
26751W        W95145  22.020   1.223  12.857
26752W        W95146  13.148  36.573  13.434
26753W        W95147  16.435  41.960   1.793
26754W        W95148   9.250  11.456   3.073
26755W        W95149  42.072  34.373   0.698
26756W        W95150   0.034  19.070  14.288
26757W        W95151   7.002   6.186  11.573
26758W        W95152  44.484  40.468   1.746
26759W        W95153   1.477  43.582   0.823
26760W        W95154  16.584  34.868  13.776
26761W        W95155  12.899  31.223   4.464
26762W        W95156  39.477  13.593  10.883
26763W        W95157  20.182   4.768   1.648
26764W        W95158  14.134  28.674  14.533
26765W        W95159  41.865  38.818   2.955
26766W        W95160  22.211   9.431  10.621
26767W        W95161  41.896   1.461   4.154
26768W        W95162   4.793   5.834  13.478
26769W        W95163  14.035   4.542   2.806
26770W        W95164  30.616  42.299   2.835
26771W        W95165  27.998  26.162   0.799
26772W        W95166   0.280  38.969  14.289
26773W        W95167  40.751  10.233  10.818
26774W        W95168  33.459  37.445   5.048
26775W        W95169   8.859  30.982   0.939
26776W        W95170   6.662  40.062  10.470
26777W        W95171   1.757  24.246  11.994
26778W        W95172  43.522  34.117   4.481
26779W        W95173  41.319   8.159  12.119
26780W        W95174   9.935  33.924   2.227
26781W        W95175  36.131  24.728   4.555
26782W        W95176  18.936  29.361   4.131
26783W        W95177  36.843  20.118   0.151
26784W        W95178  25.042  37.844  12.911
26785W        W95179  26.196  12.158   1.378
26786W        W95180  17.827  33.402   3.797
26787W        W95181   7.652  37.051   2.237
26788W        W95182  35.946  31.478   2.849
26789W        W95183  44.962   5.868  14.508
26790W        W95184   2.315  28.021   4.384
26791W        W95185  41.938  32.977   4.148
26792W        W95186  37.424  12.910  12.068
26793W        W95187  10.282  27.910   3.253
26794W        W95188  23.145  10.629   4.221
26795W        W95189  18.251  35.462   0.419
26796W        W95190  18.239  25.139  13.008
26797W        W95191   5.911   4.358   3.164
26798W        W95192  40.597  21.299   2.936
26799W        W95193   2.995  39.804   4.311
26800W        W95194  35.354  11.657   3.190
26801W        W95195  21.658   6.363  10.783
26802W        W95196   1.379   0.024  12.154
26803W        W95197  31.673  20.098  12.994
26804W        W95198  20.308   8.640   1.922
26805W        W95199  25.858  19.427   2.320
26806W        W95200  39.816  44.918  12.651
26807W        W95201   4.640  22.026   2.317
26808W        W95202  29.555   1.810  11.326
26809W        W95203   2.563   8.108   0.816
26810W        W95204   5.929  22.066  12.075
26811W        W95205   4.218  18.834   3.680
26812W        W95206  38.288  15.279   4.146
26813W        W95207  43.366   5.440   0.710
26814W        W95208  29.517  14.809   3.187
26815W        W95209  34.759  31.431  12.479
26816W        W95210  10.551  37.887   0.129
26817W        W95211  34.845  13.762   4.946
26818W        W95212  42.365  39.109   4.614
26819W        W95213  32.448  11.156   0.848
26820W        W95214  23.518  13.676   5.137
26821W        W95215  32.834  14.229  14.753
26822W        W95216  16.829  20.012  13.412
26823W        W95217  43.718  21.194   0.792
26824W        W95218  27.694  10.383  11.016
26825W        W95219   2.879  21.537  12.157
26826W        W95220  39.798  27.115  13.437
26827W        W95221  37.755  35.600   0.644
26828W        W95222   0.584  10.728  13.085
26829W        W95223  10.838  36.533  13.465
26830W        W95224  43.359  17.992  14.411
26831W        W95225  18.073  21.447   1.298
26832W        W95226  31.899  19.590  12.921
26833W        W95227  41.677  20.761  12.203
26834W        W95228  17.749  29.196   2.143
26835W        W95229  36.165  27.896   0.293
26836W        W95230  17.906  43.660   3.234
26837W        W95231   9.422   6.415  11.208
26838W        W95232  31.098  16.840  10.701
26839W        W95233   4.473  25.147  13.048
26840W        W95234  41.729   8.315   0.802
26841W        W95235   5.652   0.283  11.908
26842W        W95236   8.177  40.298   4.809
26843W        W95237  11.132   6.718   1.270
26844W        W95238  28.975   3.461   1.837
26845W        W95239   8.327  35.826   2.260
26846W        W95240   9.205  13.872  14.004
26847W        W95241  15.239  42.243  12.548
26848W        W95242  37.065   5.635   3.085
26849W        W95243   2.883  37.261  13.913
26850W        W95244  12.354  13.817   0.479
26851W        W95245  11.693  30.805  10.476
26852W        W95246  18.666  33.405  13.404
26853W        W95247  34.051  37.142   1.009
26854W        W95248  18.134  28.134  13.502
26855W        W95249  30.222  41.792  13.292
26856W        W95250  42.869  32.863   0.430
26857W        W95251  14.765  44.489  14.035
26858W        W95252   2.452  44.680  10.704
26859W        W95253  32.868  18.788  14.538
26860W        W95254  16.298  27.252  14.849
26861W        W95255  10.423   2.751   0.430
26862W        W95256  23.004  11.314   1.301
26863W        W95257  10.974  39.355  11.729
26864W        W95258  35.053  23.212  11.270
26865W        W95259   7.220  44.457  14.439
26866W        W95260  43.423  14.500   3.302
26867W        W95261  29.443  26.672   3.224
26868W        W95262  38.064   1.110  10.806
26869W        W95263   6.290  24.784  13.153
26870W        W95264   5.938  40.705  11.176
26871W        W95265  44.033  41.315  10.652
26872W        W95266  29.120  37.584  11.923
26873W        W95267  43.296  15.167   4.323
26874W        W95268  33.031  16.112  14.308
26875W        W95269  32.636   9.567   4.094
26876W        W95270  38.962   3.992   1.272
26877W        W95271   3.245  19.551  10.830
26878W        W95272   0.413  38.168   5.469
26879W        W95273  29.899  37.163  13.365
26880W        W95274  34.955  15.934   0.643
26881W        W95275  42.029  35.862  11.147
26882W        W95276  25.671   4.480   3.749
26883W        W95277  17.016   4.736  10.275
26884W        W95278  11.782  24.593   2.708
26885W        W95279  39.377  19.260  12.972
26886W        W95280  26.653  31.038  14.956
26887W        W95281   3.910  30.065  12.896
26888W        W95282  19.003  31.885   3.741
26889W        W95283   7.461  23.169   0.278
26890W        W95284  20.710   1.788   2.744
26891W        W95285  28.767  11.773  10.732
26892W        W95286   5.745  13.925  13.544
26893W        W95287   3.709   9.702  10.508
26894W        W95288  38.981  27.852   2.773
26895W        W95289  14.301   3.832   1.509
26896W        W95290  40.976  25.015  11.210
26897W        W95291  33.154  12.699   2.635
26898W        W95292  25.739  20.747   1.683
26899W        W95293  11.130  19.695   4.880
26900W        W95294  27.477  11.813  13.303
26901W        W95295   9.715  31.990  14.362
26902W        W95296  17.305   9.954   1.352
26903W        W95297  13.669  42.799   3.342
26904W        W95298  11.912  30.190   4.497
26905W        W95299   1.336   7.010   3.845
26906W        W95300  17.316   8.560  13.842
26907W        W95301  33.629  18.544  12.324
26908W        W95302  41.937  41.020  10.762
26909W        W95303  19.670  13.782   3.905
26910W        W95304  42.021  20.127   4.246
26911W        W95305   0.861  44.327   4.493
26912W        W95306  41.828  28.067   3.318
26913W        W95307  29.365  16.814   3.870
26914W        W95308  39.985  30.136   0.859
26915W        W95309  43.030  44.514  12.913
26916W        W95310  26.872  25.240   3.200
26917W        W95311  30.480   1.490   4.117
26918W        W95312  10.902  29.132   4.951
26919W        W95313  37.120  29.250  12.820
26920W        W95314  10.468  32.654  10.146
26921W        W95315   9.940   6.234  12.132
26922W        W95316   0.707  15.660  11.136
26923W        W95317   9.022  42.960   4.411
26924W        W95318   9.687  28.175  14.025
26925W        W95319  33.233  27.118   3.233
26926W        W95320  12.764  25.714  10.695
26927W        W95321  35.985   3.133   2.363
26928W        W95322  42.960   7.590   0.847
26929W        W95323  35.343  39.122   0.355
26930W        W95324  23.112  34.318  12.340
26931W        W95325   0.452  34.419   3.020
26932W        W95326  25.012  11.711  12.183
26933W        W95327   6.350  25.224   2.839
26934W        W95328  13.275   4.690  11.199
26935W        W95329  15.061   5.771  13.362
26936W        W95330   3.096  19.358   1.938
26937W        W95331   7.157  16.415  11.451
26938W        W95332   0.462  28.195   4.059
26939W        W95333  17.039  26.640  11.688
26940W        W95334   6.363  15.594   4.089
26941W        W95335  42.371  18.007  13.460
26942W        W95336  14.316  11.385   3.691
26943W        W95337  14.042   8.708   4.138
26944W        W95338  41.862  23.033   1.764
26945W        W95339  10.161  19.966   1.621
26946W        W95340  16.599  28.532  14.455
26947W        W95341  11.205  22.485  13.057
26948W        W95342  44.426  35.236   1.362
26949W        W95343  32.638  26.503   4.519
26950W        W95344   2.830  44.603   1.182
26951W        W95345  32.041   3.592  12.559
26952W        W95346  36.342  42.949   2.386
26953W        W95347  43.115  43.599   4.617
26954W        W95348  26.399  21.187  11.011
26955W        W95349  33.465  31.935   0.842
26956W        W95350  15.151  42.004   4.131
26957W        W95351  25.098  13.601  13.472
26958W        W95352  44.484  15.629  11.632
26959W        W95353  16.056  31.705   1.464
26960W        W95354   8.221  28.626   1.743
26961W        W95355   6.300  23.884  12.679
26962W        W95356  20.411  23.674   1.324
26963W        W95357  25.160  39.480   0.548
26964W        W95358  17.241   6.275  14.917
26965W        W95359   4.452   5.328  12.143
26966W        W95360  28.165  26.573  10.764
26967W        W95361  21.623   6.649  11.509
26968W        W95362  36.549  34.354  11.066
26969W        W95363  20.503   8.133   0.162
26970W        W95364  14.304  16.126   2.175
26971W        W95365  32.116  32.120  11.983
26972W        W95366  13.136  38.272  12.453
26973W        W95367  37.337  28.859  14.492
26974W        W95368  38.140  31.417   3.131
26975W        W95369  15.493  11.962  13.291
26976W        W95370  36.709  25.677  12.668
26977W        W95371  11.597  29.232  10.992
26978W        W95372  31.639  42.116   1.303
26979W        W95373  44.287   0.479   4.692
26980W        W95374   8.453  20.336  13.927
26981W        W95375  32.189  20.150  13.006
26982W        W95376   9.767  13.763   4.062
26983W        W95377  42.859  37.777   1.382
26984W        W95378  33.881   8.394  12.884
26985W        W95379  39.516   4.925  10.181
26986W        W95380   4.727  41.849  10.873
26987W        W95381  39.098  35.060   3.083
26988W        W95382  36.675  34.487   4.194
26989W        W95383  13.777  28.604   4.639
26990W        W95384  44.929  39.111  12.039
26991W        W95385  10.744   4.358  14.807
26992W        W95386  14.228  15.558  11.989
26993W        W95387  38.130  10.244   4.089
26994W        W95388  12.286  35.079   1.432
26995W        W95389  31.548   2.482  12.942
26996W        W95390  27.984  39.541  12.067
26997W        W95391  36.950   0.757  11.668
26998W        W95392  31.895   2.275  10.928
26999W        W95393   5.429  13.141   2.808
27000W        W95394  29.085   5.927  10.887
27001W        W95395  44.796  10.623  10.836
27002W        W95396  36.474  14.113  10.483
27003W        W95397   4.234  43.489  11.072
27004W        W95398  37.347  13.198   4.117
27005W        W95399  21.096  43.909   1.673
27006W        W95400  39.027  38.358   2.836
27007W        W95401  37.869  16.728  14.793
27008W        W95402  22.402   6.026  11.221
27009W        W95403  20.521  33.968  12.918
27010W        W95404  15.822  42.588   2.887
27011W        W95405  20.629  32.537   3.149
27012W        W95406  12.733  20.209  12.369
27013W        W95407  35.422  16.628   0.780
27014W        W95408  44.804  42.293  13.159
27015W        W95409  38.067  36.075  11.540
27016W        W95410  28.346  29.108  13.567
27017W        W95411  44.937   0.257  11.456
27018W        W95412  13.687  20.049   1.601
27019W        W95413  26.625  40.250   4.587
27020W        W95414  11.288  26.322   1.532
27021W        W95415  24.368  25.019  12.864
27022W        W95416  23.426  28.552  13.983
27023W        W95417  41.762  14.233  12.169
27024W        W95418  16.547  41.366  13.839
27025W        W95419  35.437  36.086   1.874
27026W        W95420  35.957  20.466   4.179
27027W        W95421  38.319  20.146   2.197
27028W        W95422  20.739  10.221   3.621
27029W        W95423  33.893   9.728   2.797
27030W        W95424   9.293  21.485   3.395
27031W        W95425  34.412  14.832   2.116
27032W        W95426  18.287  26.046   0.416
27033W        W95427  12.327  41.436   2.726
27034W        W95428  42.236  20.255   1.986
27035W        W95429  39.091  41.564   0.017
27036W        W95430  38.852  42.068  13.840
27037W        W95431  21.657  30.133   4.653
27038W        W95432  18.568  41.053   1.432
27039W        W95433  41.775  31.012   1.080
27040W        W95434  34.513  27.897   1.277
27041W        W95435   8.419   8.716  12.075
27042W        W95436  36.270  42.271  14.444
27043W        W95437  13.714  28.732  13.753
27044W        W95438  25.503  28.355  14.012
27045W        W95439  19.410   5.067  11.585
27046W        W95440  22.233  20.098   0.379
27047W        W95441   2.378   2.465  14.534
27048W        W95442  34.919  25.215  11.654
27049W        W95443  17.694  26.936  14.839
27050W        W95444  27.971   6.358  10.630
27051W        W95445  34.580  28.146  11.422
27052W        W95446   1.133   2.351   1.642
27053W        W95447  16.200  40.934   3.669
27054W        W95448  29.197  44.604   5.023
27055W        W95449   6.796  36.875  12.563
27056W        W95450  35.924  36.363  11.057
27057W        W95451  42.508  26.394  12.917
27058W        W95452  16.707  32.370   0.077
27059W        W95453  10.765   4.902   1.638
27060W        W95454  24.410  30.047   1.362
27061W        W95455  13.202   1.874   2.622
27062W        W95456  20.393  29.798  11.317
27063W        W95457  44.972   5.671   4.616
27064W        W95458  39.023  23.262  12.412
27065W        W95459   4.457  25.287  12.071
27066W        W95460  11.641  17.064  12.027
27067W        W95461   0.219  26.544  14.888
27068W        W95462  24.752  22.490  12.089
27069W        W95463  18.513  21.728  11.366
27070W        W95464  12.665  38.577   1.277
27071W        W95465  22.881   4.623   4.173
27072W        W95466  22.423  21.182   9.742
27073W        W95467  30.212  16.551   0.933
27074W        W95468  34.570  44.844   4.533
27075W        W95469  26.461  39.475  14.930
27076W        W95470  41.582  29.985  12.546
27077W        W95471  20.134   2.285  12.730
27078W        W95472  10.097  22.734  10.937
27079W        W95473  33.825   9.207   2.249
27080W        W95474  42.342  10.602  12.480
27081W        W95475   2.777  42.398   0.410
27082W        W95476  44.559  22.079  11.991
27083W        W95477  30.674  12.289   0.418
27084W        W95478  29.947  29.555   0.198
27085W        W95479  12.802  42.920  11.100
27086W        W95480   8.670  43.073  13.519
27087W        W95481  29.194   5.461  12.526
27088W        W95482  19.683  11.512   1.218
27089W        W95483   3.564  37.883   0.180
27090W        W95484  34.905  37.462  10.281
27091W        W95485  30.489  39.977  12.827
27092W        W95486   4.298   4.439   4.014
27093W        W95487  16.341   7.388   0.984
27094W        W95488   9.853  44.998  14.606
27095W        W95489   7.096  42.266   0.012
27096W        W95490  43.856  38.578  11.128
27097W        W95491   4.403   8.937   1.243
27098W        W95492  14.609  29.818   0.300
27099W        W95493  25.935  40.328  14.453
27100W        W95494  14.745  34.138  12.594
27101W        W95495  39.990  30.816   0.476
27102W        W95496  23.520  23.305  10.774
27103W        W95497  37.505  42.665  13.589
27104W        W95498  14.530  26.406  10.224
27105W        W95499   4.698  44.276  11.517
27106W        W95500  21.570   7.249  12.396
27107W        W95501  10.282  13.028  11.452
27108W        W95502  32.297   3.450  12.087
27109W        W95503   3.744   0.838  14.031
27110W        W95504  33.590  17.680   1.847
27111W        W95505   1.505   2.717   2.851
27112W        W95506  10.632  39.640  13.305
27113W        W95507  33.020  11.291   2.950
27114W        W95508   1.053  24.459  12.822
27115W        W95509  11.559  33.997  13.949
27116W        W95510  39.310  23.706   2.732
27117W        W95511   8.440  15.292   4.199
27118W        W95512  44.519  15.718   0.063
27119W        W95513  10.707  20.623  14.121
27120W        W95514  42.256  33.372   2.154
27121W        W95515  20.496   3.107  13.428
27122W        W95516  21.158  10.470   1.612
27123W        W95517  17.775  34.484  12.004
27124W        W95518  11.672   7.968  12.465
27125W        W95519  44.011  10.305  12.500
27126W        W95520  21.734  11.610  14.293
27127W        W95521  43.114  20.232   1.895
27128W        W95522   7.154  42.267  13.585
27129W        W95523  11.165  44.132  13.263
27130W        W95524  42.517  16.865   0.856
27131W        W95525  37.395  24.531   4.083
27132W        W95526   1.790  38.061   1.316
27133W        W95527  31.292   2.687   2.637
27134W        W95528   2.624  44.882   1.594
27135W        W95529  37.342  23.707  14.667
27136W        W95530  27.476  44.975  13.343
27137W        W95531  22.943  40.470   1.350
27138W        W95532  37.861   5.156   2.316
27139W        W95533  28.245   0.400  12.072
27140W        W95534  19.309  15.583  10.671
27141W        W95535  43.265  27.378  13.908
27142W        W95536   0.656  20.217  14.799
27143W        W95537  44.399  30.127   1.376
27144W        W95538  10.892   4.916  13.894
27145W        W95539  37.533  17.183   4.361
27146W        W95540  28.005  35.931  14.922
27147W        W95541   6.871  26.109   0.502
27148W        W95542  25.777   6.477   0.014
27149W        W95543  21.119  20.296  14.886
27150W        W95544  27.912  11.777   3.164
27151W        W95545  31.400   1.360   0.362
27152W        W95546  11.701  22.900   3.282
27153W        W95547  34.421  43.891   2.211
27154W        W95548   5.525  44.955  12.294
27155W        W95549  20.268   2.786  10.622
27156W        W95550  29.486  30.560   3.317
27157W        W95551  25.733  29.075   3.703
27158W        W95552  23.119  35.902  14.500
27159W        W95553  36.175  26.620   1.096
27160W        W95554  44.743  11.739  14.547
27161W        W95555  33.899  14.391   4.290
27162W        W95556  34.602   0.467  10.964
27163W        W95557  28.934   6.336  14.861
27164W        W95558  44.839   8.236  10.783
27165W        W95559  26.102  29.364   1.177
27166W        W95560  23.562  12.125  13.021
27167W        W95561  20.265  40.818  13.945
27168W        W95562  18.527  14.361  14.914
27169W        W95563   8.174  27.219  14.778
27170W        W95564  14.333  18.159  10.478
27171W        W95565  25.144  44.213   2.558
27172W        W95566  33.882  29.090   2.848
27173W        W95567  20.187   4.745   2.973
27174W        W95568   9.692   1.951   4.869
27175W        W95569  18.332  15.830  11.514
27176W        W95570   5.305  21.682   3.158
27177W        W95571   2.229  30.605  10.525
27178W        W95572  14.368  39.473   1.861
27179W        W95573  36.051  28.977   0.111
27180W        W95574  39.434  10.087  13.007
27181W        W95575   0.260   6.227  12.475
27182W        W95576  25.697  40.013  12.934
27183W        W95577  39.078  21.919   4.192
27184W        W95578  26.378  17.037   4.190
27185W        W95579  15.586  11.339  11.162
27186W        W95580  31.502  10.820   3.188
27187W        W95581  32.092  12.136   3.698
27188W        W95582  31.576  17.829  10.684
27189W        W95583  24.979   0.353  14.259
27190W        W95584  39.863  38.835  12.789
27191W        W95585  34.972  32.665   2.585
27192W        W95586  40.261  44.272   1.787
27193W        W95587  36.355  39.975  13.913
27194W        W95588  39.491  34.638   3.905
27195W        W95589  24.660   2.754   0.500
27196W        W95590  31.369  23.859  11.387
27197W        W95591  21.492  32.172  14.403
27198W        W95592   7.692   2.218   3.694
27199W        W95593  15.729  13.082   5.040
27200W        W95594   0.415  28.121  12.990
27201W        W95595  14.275  20.801  14.933
27202W        W95596  26.400  41.985   5.421
27203W        W95597  22.038  41.777   3.880
27204W        W95598  24.269  23.179   2.596
27205W        W95599   7.367   5.822   3.914
27206W        W95600  25.364   7.797   0.713
27207W        W95601  17.482  39.508  13.286
27208W        W95602   9.677   2.827  12.973
27209W        W95603   6.431  43.236   3.154
27210W        W95604   4.946  30.070   3.684
27211W        W95605  21.951  11.538  12.041
27212W        W95606  15.173   3.208  10.731
27213W        W95607  40.918  20.718   1.342
27214W        W95608  39.116  20.050  11.996
27215W        W95609  32.999  15.287   0.652
27216W        W95610  25.205  31.496  12.585
27217W        W95611  38.827   9.965   3.257
27218W        W95612  23.027  35.827  11.344
27219W        W95613  17.443   3.768   4.858
27220W        W95614  10.261   1.089   0.124
27221W        W95615  40.016  12.137  12.495
27222W        W95616  30.525  12.641   2.712
27223W        W95617  19.134  10.809  12.562
27224W        W95618  16.294   4.011   0.008
27225W        W95619  11.252  36.991  11.585
27226W        W95620  32.464  41.853  14.794
27227W        W95621  14.768  20.731   2.681
27228W        W95622  37.080  15.097   1.341
27229W        W95623   6.368   1.911   1.241
27230W        W95624  33.613  14.789  10.916
27231W        W95625  30.536  31.862   1.496
27232W        W95626   6.428  27.579  10.648
27233W        W95627  31.647  11.746  14.167
27234W        W95628   3.990  35.336   2.757
27235W        W95629  30.449  40.468   2.142
27236W        W95630   1.603  32.163  14.140
27237W        W95631  35.274  34.244  12.064
27238W        W95632  36.042  33.892   1.605
27239W        W95633  35.358  34.515   0.233
27240W        W95634   9.372  38.957   3.734
27241W        W95635   8.452  29.579   4.499
27242W        W95636  12.090  33.125   1.194
27243W        W95637  35.421   3.683  12.786
27244W        W95638   2.389  44.789   3.789
27245W        W95639  30.084  22.928   2.342
27246W        W95640  41.841   1.974  14.864
27247W        W95641  32.687  16.179   3.729
27248W        W95642   2.858  40.348  14.898
27249W        W95643  37.544  27.643   2.848
27250W        W95644  15.850   8.280   4.126
27251W        W95645  12.910  13.250  11.734
27252W        W95646  13.743  18.256  14.222
27253W        W95647  18.243  30.382  14.073
27254W        W95648   9.674  38.846   1.775
27255W        W95649  14.811   9.251   4.059
27256W        W95650  17.658   5.455  11.217
27257W        W95651   5.876  35.176  11.512
27258W        W95652   0.768  16.378  14.849
27259W        W95653  14.378   4.800   0.463
27260W        W95654  11.366  26.415  13.902
27261W        W95655  21.644  20.643   4.547
27262W        W95656  18.518  30.511   2.824
27263W        W95657  44.549   6.597  13.501
27264W        W95658  41.423  12.107  11.693
27265W        W95659  38.927  28.177  14.751
27266W        W95660   2.904  19.841   4.091
27267W        W95661   2.260  12.762  10.757
27268W        W95662   3.957  23.497   3.707
27269W        W95663  41.887   5.423  14.987
27270W        W95664  34.877  15.831  14.749
27271W        W95665  38.363  44.330  13.390
27272W        W95666   3.800   5.840  14.568
27273W        W95667  35.644  25.662  11.088
27274W        W95668  22.213  33.409  13.429
27275W        W95669   1.118  15.789   4.939
27276W        W95670  17.981   0.200   0.227
27277W        W95671   4.971  39.342   1.795
27278W        W95672  17.616  38.614   2.098
27279W        W95673  16.535  34.844   1.321
27280W        W95674  16.417  10.279  12.393
27281W        W95675  30.356  39.743  12.034
27282W        W95676  32.624  13.671   2.154
27283W        W95677   2.807  38.754   2.327
27284W        W95678   6.100   7.102   4.100
27285W        W95679  34.441   7.339  11.178
27286W        W95680  36.083  37.908  11.048
27287W        W95681  10.747  33.806   2.888
27288W        W95682   2.693   0.412  13.306
27289W        W95683  38.406  17.714   2.873
27290W        W95684  22.261  28.451   0.007
27291W        W95685  40.003   4.720  14.786
27292W        W95686  41.141  13.735  13.497
27293W        W95687  14.806   1.501   2.310
27294W        W95688  25.189  30.133  12.870
27295W        W95689  10.257   3.924  13.956
27296W        W95690  11.169  31.631  13.507
27297W        W95691   7.445   7.236   3.769
27298W        W95692  14.801  17.180   0.782
27299W        W95693   0.898  35.103  14.312
27300W        W95694  16.354  38.119   1.013
27301W        W95695  13.586  23.675   3.214
27302W        W95696   7.122   8.429  10.606
27303W        W95697  13.418  44.861  14.143
27304W        W95698  38.351  14.239  11.974
27305W        W95699  39.631  15.826   3.716
27306W        W95700  26.254  26.921  14.821
27307W        W95701   0.362  22.038  12.401
27308W        W95702  22.799   3.485  11.446
27309W        W95703  43.359  39.897   1.682
27310W        W95704  16.085   0.922   0.663
27311W        W95705  29.488  26.592   4.135
27312W        W95706  36.699  27.024   4.694
27313W        W95707  43.629   6.489  13.943
27314W        W95708  15.381  34.479  13.354
27315W        W95709  36.681  11.819   3.276
27316W        W95710  10.118   9.810  11.600
27317W        W95711  18.088  26.438   2.303
27318W        W95712   4.456  34.287   1.788
27319W        W95713  11.302  10.425   3.212
27320W        W95714  35.259  14.210  12.120
27321W        W95715  36.948  31.542  11.129
27322W        W95716  40.164  36.502  10.929
27323W        W95717   4.635  23.750  11.180
27324W        W95718  20.432   0.031   0.890
27325W        W95719  23.986  16.058  11.618
27326W        W95720  40.803  11.876  10.550
27327W        W95721  39.520  15.172   2.484
27328W        W95722  41.439  12.174  13.494
27329W        W95723  14.188  21.670   1.531
27330W        W95724  22.566   9.451  14.909
27331W        W95725   6.636  33.566   2.201
27332W        W95726  14.339  11.027  10.797
27333W        W95727  40.618  15.552   3.722
27334W        W95728  25.751  35.469  14.989
27335W        W95729   9.112  11.077   1.297
27336W        W95730  44.501  22.530  13.779
27337W        W95731  26.005  13.219  11.166
27338W        W95732   3.426   4.233   4.749
27339W        W95733  10.955  37.520  12.003
27340W        W95734  35.656  25.121  14.479
27341W        W95735   4.501   9.127   1.720
27342W        W95736  30.756  26.063  13.901
27343W        W95737  41.031  32.021  12.084
27344W        W95738  27.195   5.392   0.318
27345W        W95739  15.190  41.071  10.998
27346W        W95740  31.613  20.519   4.572
27347W        W95741  41.573   0.968  12.010
27348W        W95742  16.577   5.157   2.302
27349W        W95743  27.112  44.183   1.267
27350W        W95744   1.788  44.865   3.281
27351W        W95745   7.808  40.663  11.398
27352W        W95746  27.647   3.845  10.541
27353W        W95747   7.982  36.871  10.672
27354W        W95748  13.208   7.141   0.264
27355W        W95749  16.164   4.176   4.085
27356W        W95750  19.610  42.922  10.188
27357W        W95751  40.980   7.458   0.779
27358W        W95752  28.793  23.536  14.377
27359W        W95753  24.116  44.720  11.565
27360W        W95754  38.666  42.726   1.152
27361W        W95755  43.508  44.570   4.461
27362W        W95756  37.783  20.554   4.316
27363W        W95757  18.552  31.343   3.390
27364W        W95758  13.906   5.058  12.817
27365W        W95759  35.174  31.690  13.482
27366W        W95760   4.347  38.276   0.863
27367W        W95761  16.194  11.215   1.735
27368W        W95762  31.449  37.513  11.912
27369W        W95763  15.742  25.651  13.418
27370W        W95764  24.461  12.382   4.722
27371W        W95765   0.884   5.305  12.609
27372W        W95766   1.352  28.000  10.669
27373W        W95767   3.712  41.516   3.728
27374W        W95768  37.494  33.421  10.458
27375W        W95769  31.684  36.056  10.524
27376W        W95770  11.297   8.507  12.886
27377W        W95771  35.400   9.867   1.651
27378W        W95772  16.245  18.857   2.606
27379W        W95773  22.528  38.087   0.260
27380W        W95774  30.519  42.788  13.251
27381W        W95775  25.959  38.935  10.939
27382W        W95776  40.900  37.497  12.026
27383W        W95777  29.194  21.452   1.679
27384W        W95778  31.859  21.218  10.173
27385W        W95779  14.237  10.994  14.814
27386W        W95780  27.677   0.350   0.874
27387W        W95781  16.061  37.287  11.593
27388W        W95782  44.077   9.831  13.321
27389W        W95783  24.145  41.309  11.434
27390W        W95784  10.745  14.198  12.179
27391W        W95785  12.605  27.517   1.410
27392W        W95786  39.783  41.971  11.595
27393W        W95787  32.390  15.361   1.242
27394W        W95788  14.553  33.839  11.471
27395W        W95789  39.912  33.202   2.210
27396W        W95790  34.959   7.372  11.988
27397W        W95791   6.486  23.606   4.090
27398W        W95792   3.396   8.614  12.449
27399W        W95793  43.389  12.700   1.714
27400W        W95794  16.911  31.911   0.195
27401W        W95795  14.217  13.089  10.971
27402W        W95796  38.556  26.136   3.357
27403W        W95797  37.441  12.834  10.705
27404W        W95798  20.507  18.440  14.649
27405W        W95799  28.619  34.830  13.906
27406W        W95800  44.433  25.054   1.305
27407W        W95801  21.219  40.873  11.617
27408W        W95802  39.935   9.900  14.896
27409W        W95803  36.397  27.897  14.433
27410W        W95804  21.300  13.898   4.202
27411W        W95805  36.056  42.319   2.268
27412W        W95806  38.750   8.880  10.603
27413W        W95807  36.542   7.196  12.076
27414W        W95808  37.007   2.233   1.849
27415W        W95809  30.585  14.056   2.322
27416W        W95810   6.644   1.220  12.648
27417W        W95811  19.610  13.329   0.829
27418W        W95812  40.326  22.686  12.096
27419W        W95813  21.224  37.902   0.547
27420W        W95814  42.477  20.698   2.209
27421W        W95815   6.691   5.968  13.839
27422W        W95816  10.877   7.467  11.213
27423W        W95817   8.275  44.311  13.562
27424W        W95818   4.226  25.707  10.517
27425W        W95819  26.456  35.971  14.885
27426W        W95820  12.092  11.781   3.296
27427W        W95821  20.311   8.319   3.535
27428W        W95822  28.250  25.505  13.892
27429W        W95823  38.087  34.182  14.866
27430W        W95824   3.702  32.854   2.372
27431W        W95825  24.841   3.260   0.552
27432W        W95826   5.317  31.116  12.414
27433W        W95827  39.495  10.693  14.875
27434W        W95828  25.049   5.178   0.687
27435W        W95829   3.627  14.677   2.798
27436W        W95830  42.804  29.996   2.994
27437W        W95831  38.316  22.434   4.212
27438W        W95832  36.337  36.572   1.248
27439W        W95833   3.239   9.244   2.096
27440W        W95834  40.605  28.016  12.898
27441W        W95835  21.406  39.130  13.472
27442W        W95836   1.989  20.096   1.289
27443W        W95837  44.494  19.835  14.953
27444W        W95838  25.022  36.109  14.596
27445W        W95839  12.798  18.193  14.361
27446W        W95840  29.494  29.451  14.678
27447W        W95841  20.838   3.152  13.828
27448W        W95842  36.055  38.330  14.098
27449W        W95843   6.368  32.753   0.471
27450W        W95844  28.565   4.987   2.860
27451W        W95845  26.545   0.766  13.525
27452W        W95846  36.515  16.535  12.416
27453W        W95847  37.886  10.261  14.078
27454W        W95848  25.355   8.687  11.550
27455W        W95849  24.663  23.304   1.651
27456W        W95850  12.860  38.962  13.798
27457W        W95851  30.247   0.702  11.219
27458W        W95852  15.320  27.277  10.631
27459W        W95853  27.261  20.684   3.605
27460W        W95854  32.907   6.220   1.827
27461W        W95855  37.393  24.099   4.419
27462W        W95856  22.302  16.308   1.707
27463W        W95857  14.266  22.648   1.965
27464W        W95858  35.122  16.773   1.254
27465W        W95859  42.363   1.967   2.823
27466W        W95860  38.476   7.251   0.445
27467W        W95861  15.622  28.861   1.403
27468W        W95862  32.848  40.342  14.397
27469W        W95863   9.622  31.815  13.450
27470W        W95864  42.297   4.326  11.477
27471W        W95865  16.032   9.255  13.559
27472W        W95866  42.277  26.145  11.728
27473W        W95867  34.579  44.295  12.069
27474W        W95868   0.199   3.662  14.374
27475W        W95869  10.233  30.901   1.771
27476W        W95870  22.104   3.555   1.215
27477W        W95871  38.582  42.257   0.457
27478W        W95872  27.880  41.970   3.342
27479W        W95873   9.817  42.489  12.055
27480W        W95874   8.340  34.321  11.407
27481W        W95875  42.618  29.119  11.142
27482W        W95876   3.802  15.512   2.193
27483W        W95877  19.735  18.552  14.926
27484W        W95878  24.187  34.646   0.345
27485W        W95879   8.851   5.429   4.673
27486W        W95880  12.085   7.891   0.759
27487W        W95881   1.529  20.237   3.226
27488W        W95882  30.268  21.506  13.838
27489W        W95883  22.969  26.500  10.227
27490W        W95884  19.639   7.379   3.334
27491W        W95885  14.599  21.742   2.767
27492W        W95886  40.099  11.685   2.228
27493W        W95887   8.772   7.283   2.068
27494W        W95888  30.393  22.635  12.963
27495W        W95889  10.497   8.234  13.917
27496W        W95890   5.878   9.663  12.027
27497W        W95891   8.735  21.262  14.558
27498W        W95892  36.788  33.464   5.010
27499W        W95893   4.984  40.794   2.627
27500W        W95894  24.450  42.381   4.950
27501W        W95895  20.580  13.235  10.784
27502W        W95896  24.632   9.670   4.751
27503W        W95897   4.435   3.965  14.219
27504W        W95898  24.468   3.535   2.331
27505W        W95899  10.802  36.023  14.379
27506W        W95900  16.301  41.836  14.090
27507W        W95901  20.022   6.461   4.648
27508W        W95902   3.533  36.941   0.358
27509W        W95903  27.588   7.454  14.491
27510W        W95904  38.978  44.592   4.270
27511W        W95905  21.676  31.852   0.715
27512W        W95906   6.274  36.874   4.709
27513W        W95907  20.739  43.770  13.879
27514W        W95908  44.323  30.721  12.434
27515W        W95909  20.530  22.906  10.514
27516W        W95910  20.588   2.125  13.083
27517W        W95911   0.352  34.670  11.178
27518W        W95912  41.282  19.545   0.334
27519W        W95913  41.435  32.277   2.750
27520W        W95914   7.941   1.693  14.280
27521W        W95915  34.058  28.517  11.963
27522W        W95916  22.088   1.032   2.168
27523W        W95917  22.595  15.294   1.132
27524W        W95918  27.573  18.358  11.255
27525W        W95919   2.373  33.059  13.489
27526W        W95920  17.451   6.155   5.368
27527W        W95921  31.145  39.545   0.275
27528W        W95922  40.409  39.702   2.670
27529W        W95923  42.000  18.058   0.034
27530W        W95924  42.498   0.835  10.380
27531W        W95925  30.052  20.700   3.148
27532W        W95926  22.152  29.915  11.678
27533W        W95927  15.573   7.986   1.867
27534W        W95928   1.650  38.298  13.563
27535W        W95929   5.745  24.234  11.007
27536W        W95930  19.998  34.893   1.697
27537W        W95931   9.443   0.345   3.766
27538W        W95932  33.124  34.769   0.462
27539W        W95933   0.440  27.090   0.755
27540W        W95934  27.889   3.820   2.237
27541W        W95935  25.977  20.699  13.507
27542W        W95936  16.838   1.269   2.877
27543W        W95937  24.224  37.077  14.325
27544W        W95938  38.403  30.667  12.670
27545W        W95939  39.789  44.816  14.821
27546W        W95940   0.141  37.373   5.601
27547W        W95941  15.075  20.490  13.029
27548W        W95942  41.081  15.187  14.818
27549W        W95943  12.024   1.599  13.885
27550W        W95944  30.032   1.012  12.936
27551W        W95945  14.489  37.415  11.571
27552W        W95946  42.224  41.252   1.840
27553W        W95947  10.936   3.453  13.852
27554W        W95948  10.979  42.510   2.815
27555W        W95949  16.638  16.693   0.891
27556W        W95950  24.104  35.826  13.042
27557W        W95951  43.550  29.676  13.482
27558W        W95952   3.681  12.157  11.641
27559W        W95953   1.373  20.513   0.415
27560W        W95954   2.827  41.280  12.672
27561W        W95955   0.719   6.533  14.575
27562W        W95956   2.387   4.052   1.869
27563W        W95957  44.397  18.531  10.591
27564W        W95958   4.768  36.779  12.792
27565W        W95959  44.370  22.825   5.052
27566W        W95960  44.777  30.992  11.122
27567W        W95961  39.377  15.550  13.310
27568W        W95962  19.049   8.808  11.583
27569W        W95963  32.740   0.372  11.918
27570W        W95964  27.998  25.968  13.651
27571W        W95965  17.149  39.273   3.794
27572W        W95966  16.680  15.310  13.962
27573W        W95967  36.351  21.691   4.588
27574W        W95968  28.229   0.210  14.290
27575W        W95969  44.892  40.545  11.878
27576W        W95970  34.109  33.859   1.016
27577W        W95971  38.255  41.875   0.715
27578W        W95972   0.944  31.107  12.207
27579W        W95973  41.528  19.275  14.930
27580W        W95974  16.414  27.530   4.156
27581W        W95975  16.151  34.818  11.887
27582W        W95976  34.329   1.914   2.751
27583W        W95977  12.147  34.577   1.267
27584W        W95978  25.741  39.863  14.329
27585W        W95979  11.832  20.289   2.866
27586W        W95980  10.595  36.771   4.334
27587W        W95981  39.835  19.230   4.663
27588W        W95982   8.413  34.930   4.695
27589W        W95983  23.131  21.037  10.615
27590W        W95984  36.826   9.050   2.906
27591W        W95985   1.837  23.967   1.856
27592W        W95986  27.567  38.615   1.150
27593W        W95987  38.093  36.242   4.940
27594W        W95988  37.039  23.012   2.693
27595W        W95989  18.546  11.282  12.645
27596W        W95990  30.702  39.382   3.666
27597W        W95991   7.775  18.792   2.388
27598W        W95992  29.626   8.488   3.113
27599W        W95993   8.061  26.095  14.434
27600W        W95994  43.960  26.174  14.494
27601W        W95995   5.266  21.965  11.545
27602W        W95996  19.122   9.541   3.175
27603W        W95997  37.291  43.351  14.350
27604W        W95998  11.841  44.867   0.070
27605W        W95999   6.450  26.230  10.866
27606W        W96000  26.230  14.184  14.277
27607W        W96001  17.135  41.348   3.324
27608W        W96002  15.608   4.176   3.179
27609W        W96003   5.256  13.824   0.380
27610W        W96004  13.637  17.057   2.804
27611W        W96005  43.800  22.154  11.502
27612W        W96006  11.582  36.133  12.507
27613W        W96007  13.789  20.555  10.905
27614W        W96008  10.640  42.321   1.419
27615W        W96009   5.455  11.125   0.013
27616W        W96010  40.372   7.468   4.334
27617W        W96011   9.214  26.723   3.807
27618W        W96012  31.575  10.208  10.567
27619W        W96013  34.303  28.044  12.432
27620W        W96014  40.200  10.011   0.322
27621W        W96015  36.990  17.826  11.947
27622W        W96016  32.917   0.998   4.557
27623W        W96017   2.383   9.839   3.844
27624W        W96018   0.697   2.438   1.915
27625W        W96019   6.585   6.318  10.615
27626W        W96020   7.428  17.371  14.792
27627W        W96021  26.640  27.444   3.672
27628W        W96022  10.724  42.911  13.540
27629W        W96023  12.839  24.180  13.979
27630W        W96024  27.440   3.371  11.602
27631W        W96025   3.746  15.747   1.443
27632W        W96026  28.591  44.925  12.052
27633W        W96027   1.872  40.134   2.439
27634W        W96028  18.529   1.896   2.229
27635W        W96029  11.011  13.377   0.776
27636W        W96030  22.939  42.847  11.262
27637W        W96031  18.808   2.325   1.225
27638W        W96032  35.994  29.061   1.470
27639W        W96033  28.871  26.031  14.686
27640W        W96034  16.791   2.732  11.559
27641W        W96035  12.657  30.819   0.864
27642W        W96036  44.469   3.885   3.247
27643W        W96037   0.517  28.143   0.783
27644W        W96038  26.094  22.893  13.788
27645W        W96039   6.635  26.010   0.986
27646W        W96040  32.109  18.197   2.916
27647W        W96041   7.423   5.720   1.427
27648W        W96042  16.176  27.842  14.303
27649W        W96043  38.798  15.516   1.836
27650W        W96044   7.620  17.369  14.002
27651W        W96045  38.465  32.661  11.118
27652W        W96046  30.858  30.577  12.632
27653W        W96047  35.869  19.932  13.458
27654W        W96048   9.813   6.226   0.852
27655W        W96049  36.548   6.345   2.433
27656W        W96050  23.958  43.242  13.374
27657W        W96051  31.892  38.719   3.022
27658W        W96052   6.612  29.922  14.688
27659W        W96053   6.254  35.484   4.802
27660W        W96054  39.957  32.276   2.281
27661W        W96055  21.297  40.435  10.575
27662W        W96056   8.720  22.424   1.388
27663W        W96057  37.343   6.912   2.177
27664W        W96058  12.360   1.257   3.381
27665W        W96059  39.936  35.127  11.355
27666W        W96060   6.649   2.211  10.422
27667W        W96061  23.865  41.995   3.777
27668W        W96062  27.074  27.181  11.315
27669W        W96063   1.760  40.860  11.327
27670W        W96064  24.753   5.320  10.842
27671W        W96065   0.297  33.439  10.514
27672W        W96066  43.931   2.466   1.294
27673W        W96067  13.722  25.196  14.935
27674W        W96068  31.974  28.884   3.097
27675W        W96069  18.573   6.733  14.011
27676W        W96070  13.114  41.843   1.445
27677W        W96071  16.183  30.042  14.874
27678W        W96072  30.407  20.544   0.155
27679W        W96073  16.075   5.645  14.121
27680W        W96074  43.735  36.820  12.042
27681W        W96075  35.240  38.062   0.179
27682W        W96076  35.576  35.850   1.344
27683W        W96077   6.843  27.118   5.397
27684W        W96078   7.154  21.585   1.266
27685W        W96079  37.581   3.799   3.671
27686W        W96080   9.658   4.282  12.855
27687W        W96081   5.766  11.960  13.960
27688W        W96082  33.723  42.300  14.949
27689W        W96083  31.684  14.851  13.870
27690W        W96084  27.195   2.748  13.076
27691W        W96085   3.717  26.045  11.405
27692W        W96086  11.696   8.391   1.251
27693W        W96087   1.374  10.415   0.870
27694W        W96088  11.110  34.969  11.594
27695W        W96089   5.356  17.959   2.215
27696W        W96090  43.469  24.495  11.721
27697W        W96091  39.858  29.095  14.988
27698W        W96092   7.490  24.984   1.260
27699W        W96093  26.180   2.855  13.774
27700W        W96094   5.459  38.511   0.996
27701W        W96095  16.316   2.500   0.424
27702W        W96096   5.425   4.747   0.913
27703W        W96097  10.373  26.145  11.190
27704W        W96098  41.910  14.363   2.296
27705W        W96099   9.599  22.640   3.530
27706W        W96100   3.142  18.625   4.568
27707W        W96101  37.791  19.241   2.674
27708W        W96102  39.044  32.519   2.719
27709W        W96103  21.057  36.105   3.204
27710W        W96104  33.709  17.152   1.905
27711W        W96105  36.752  26.310  11.508
27712W        W96106  44.605   6.741   4.483
27713W        W96107   2.351  27.504  14.994
27714W        W96108  27.379   5.846   0.652
27715W        W96109  29.140  28.568   1.946
27716W        W96110   1.709  37.847  13.810
27717W        W96111  44.318  30.329  14.408
27718W        W96112   7.226   6.912  11.607
27719W        W96113  40.991  20.236   4.193
27720W        W96114   0.794  42.256  11.465
27721W        W96115   1.855  24.312   0.793
27722W        W96116   6.100  20.982  12.069
27723W        W96117   8.083  17.753   0.889
27724W        W96118  27.468  41.754  14.865
27725W        W96119  15.188  13.488   4.801
27726W        W96120   5.851  39.729   4.070
27727W        W96121  44.484  19.018  11.264
27728W        W96122  22.571   9.343  12.051
27729W        W96123  36.135  21.759  14.012
27730W        W96124   3.588  25.973   1.854
27731W        W96125  34.645   1.320  13.857
27732W        W96126   7.829  17.744   1.335
27733W        W96127  32.839  39.396  14.503
27734W        W96128  44.683  18.560  12.898
27735W        W96129  42.617  43.576  14.819
27736W        W96130  22.278  27.489  11.567
27737W        W96131  34.963  25.087   2.576
27738W        W96132  12.391  29.163  11.527
27739W        W96133  44.240  40.586  13.982
27740W        W96134   2.841  19.794  10.592
27741W        W96135  16.714  38.320   2.922
27742W        W96136  38.977   6.822   1.736
27743W        W96137  42.761   7.960  12.949
27744W        W96138   2.414  23.779  11.855
27745W        W96139  14.064  24.308  14.732
27746W        W96140   5.481   7.965  14.348
27747W        W96141   2.505  40.888   0.719
27748W        W96142  30.154   7.428   3.734
27749W        W96143  37.462  30.381  11.760
27750W        W96144  14.243  27.707  14.535
27751W        W96145  18.951  18.861  14.367
27752W        W96146  24.905   4.693   5.023
27753W        W96147  36.034  17.144   1.372
27754W        W96148  39.807   5.222  10.653
27755W        W96149  27.072   1.055   2.380
27756W        W96150  24.314  38.480  14.470
27757W        W96151   1.842  12.790   4.962
27758W        W96152   7.057   9.773   4.146
27759W        W96153  16.604  15.835   3.801
27760W        W96154  36.080  11.839   1.948
27761W        W96155  35.425   0.270   2.551
27762W        W96156  22.711  23.544   1.337
27763W        W96157   9.392  34.986  10.765
27764W        W96158  11.252   7.545   0.897
27765W        W96159   6.439  22.997  11.114
27766W        W96160   9.892   5.042   1.592
27767W        W96161   6.765  35.823  14.843
27768W        W96162  41.864   0.630   1.439
27769W        W96163  14.117  42.947  13.142
27770W        W96164  23.573  11.282  13.428
27771W        W96165  42.423  24.996  12.381
27772W        W96166  19.262  36.873   2.250
27773W        W96167  23.731  14.163  10.742
27774W        W96168  26.132   0.204   2.759
27775W        W96169  27.101  43.260   1.049
27776W        W96170   4.341   8.807  14.724
27777W        W96171  14.817  29.454  12.738
27778W        W96172  27.129  21.344   1.915
27779W        W96173  39.603  40.534  13.514
27780W        W96174  10.635  22.730   3.553
27781W        W96175   5.984   5.605  12.451
27782W        W96176   9.345  11.155  10.723
27783W        W96177  23.516  30.610   3.889
27784W        W96178   4.342   6.285  13.988
27785W        W96179   1.396  27.574  14.393
27786W        W96180  25.928  27.561   3.208
27787W        W96181  11.335  38.774   2.343
27788W        W96182   4.870  42.349  11.069
27789W        W96183  33.851   8.403  11.920
27790W        W96184  20.218  26.422   4.289
27791W        W96185  34.594   4.179  12.426
27792W        W96186  34.958   0.254   2.294
27793W        W96187  25.190  17.143  10.687
27794W        W96188   5.201  15.040  13.938
27795W        W96189   9.569  41.500   0.239
27796W        W96190  14.148  36.068  13.992
27797W        W96191   7.982  39.016  14.701
27798W        W96192  20.975  18.090   0.392
27799W        W96193   7.454   8.974   0.253
27800W        W96194  33.518  22.875  14.514
27801W        W96195  31.639  20.036   4.291
27802W        W96196  17.239  26.565   1.741
27803W        W96197  33.323  12.856   3.900
27804W        W96198   9.776   8.745  12.965
27805W        W96199  22.893  27.689   4.064
27806W        W96200  29.009  13.805   0.866
27807W        W96201  28.897  11.717  13.380
27808W        W96202  19.604  24.635   2.416
27809W        W96203  22.042   4.931   1.717
27810W        W96204  21.068   3.415   3.247
27811W        W96205  43.972  18.209   3.561
27812W        W96206   5.266  17.404   0.178
27813W        W96207  39.811  12.680  14.031
27814W        W96208  15.275  22.299  11.947
27815W        W96209  37.993  32.868  14.362
27816W        W96210  39.255  17.749   0.971
27817W        W96211  35.069   2.780   3.403
27818W        W96212  39.913  34.109  12.949
27819W        W96213  43.913  43.680   0.696
27820W        W96214  26.591  23.049  13.883
27821W        W96215  18.329  44.732  10.243
27822W        W96216  43.283  24.539  14.001
27823W        W96217   0.477  33.115   4.618
27824W        W96218  30.825  27.932  10.763
27825W        W96219  32.207  30.807   0.320
27826W        W96220  17.849  21.793  12.111
27827W        W96221   1.272  17.700  14.278
27828W        W96222   1.991  15.171  14.828
27829W        W96223  32.995   9.611   4.775
27830W        W96224   8.126  21.909   4.845
27831W        W96225  26.561  34.519   0.931
27832W        W96226  18.112  28.566  14.378
27833W        W96227  15.513  23.518   1.958
27834W        W96228  22.132   1.719   1.400
27835W        W96229  24.264  41.185  10.551
27836W        W96230  11.843   0.737   2.919
27837W        W96231   2.672  14.616   4.212
27838W        W96232   5.761  10.134   2.650
27839W        W96233   9.704  44.337   2.838
27840W        W96234   2.992  34.964   2.797
27841W        W96235  33.938  41.082   4.505
27842W        W96236   3.286  30.113  14.873
27843W        W96237  22.371  44.580   2.916
27844W        W96238   8.318  24.244  12.080
27845W        W96239  27.028  38.990  12.420
27846W        W96240  38.037  14.824  10.536
27847W        W96241  28.156  35.468   2.622
27848W        W96242  37.454   4.466  10.686
27849W        W96243   9.495   7.726  11.079
27850W        W96244  36.378  14.124   4.115
27851W        W96245  11.013   2.343   0.988
27852W        W96246  12.215  39.822   1.442
27853W        W96247   2.017  31.600   2.919
27854W        W96248  12.852   9.556   2.906
27855W        W96249  38.751   6.147  14.579
27856W        W96250  12.902   1.004   1.553
27857W        W96251  31.211  28.641  12.897
27858W        W96252  43.319  26.455   3.257
27859W        W96253  23.663  35.518   4.465
27860W        W96254   0.345  16.596   3.169
27861W        W96255  43.487  35.949   0.723
27862W        W96256  44.012  43.273   4.531
27863W        W96257  24.469   0.514  12.444
27864W        W96258  33.393  25.888  14.536
27865W        W96259  14.588   5.642  14.513
27866W        W96260   7.481   2.850  11.640
27867W        W96261   2.633  39.885  12.465
27868W        W96262  16.253   7.322  12.279
27869W        W96263  20.544  29.504  14.303
27870W        W96264   5.795  30.335   4.622
27871W        W96265   6.801   7.342  13.565
27872W        W96266  36.920  29.411  14.978
27873W        W96267  15.079  15.172  11.981
27874W        W96268  38.206  18.486   4.229
27875W        W96269  21.159  37.849  12.114
27876W        W96270  20.542   2.271   2.756
27877W        W96271   0.536  15.571   4.130
27878W        W96272  31.624   5.918  12.424
27879W        W96273  36.910  13.839  14.467
27880W        W96274  30.991  12.412   2.702
27881W        W96275   1.877  11.389   2.225
27882W        W96276  15.365  16.619   0.287
27883W        W96277  28.112  15.410   5.073
27884W        W96278  27.130  37.990   4.541
27885W        W96279  39.408  35.389   4.700
27886W        W96280  10.292  28.376  11.832
27887W        W96281   0.500  15.660  14.043
27888W        W96282  13.119  31.469  12.909
27889W        W96283  36.147  10.733  11.223
27890W        W96284  42.768  10.103  12.041
27891W        W96285  27.004  25.756   0.362
27892W        W96286  35.927  10.770  11.712
27893W        W96287   6.501  17.826  12.128
27894W        W96288   8.331  40.432   2.219
27895W        W96289   5.183  32.539   4.637
27896W        W96290   8.989  33.052  12.748
27897W        W96291  26.073  32.613   4.737
27898W        W96292  35.332   8.838  12.363
27899W        W96293  19.026  11.385  11.099
27900W        W96294  37.934  15.519  11.205
27901W        W96295   8.711  27.266  13.687
27902W        W96296  41.726  25.485  14.740
27903W        W96297  27.396  17.265   1.539
27904W        W96298  37.914  22.733   4.387
27905W        W96299  19.770  35.954  14.858
27906W        W96300  35.385  20.052  14.425
27907W        W96301  33.375  30.660   4.799
27908W        W96302  11.686  37.562  11.084
27909W        W96303   2.380   5.432   4.158
27910W        W96304  31.105   7.183  12.510
27911W        W96305  32.126  29.720  13.963
27912W        W96306  32.758   0.462  13.742
27913W        W96307  13.509   8.624   0.761
27914W        W96308  28.168   8.277   0.411
27915W        W96309  10.973  40.804   0.925
27916W        W96310   2.468   9.475   1.114
27917W        W96311  19.769   6.789  10.683
27918W        W96312  41.843  21.758  11.744
27919W        W96313  37.984   3.624  14.762
27920W        W96314   5.436  44.290   2.174
27921W        W96315  44.566  34.503  10.541
27922W        W96316  26.565   6.139   5.088
27923W        W96317   6.027  35.621   2.889
27924W        W96318  10.891  11.611   3.683
27925W        W96319  41.770  41.915   0.335
27926W        W96320  15.777  25.556   4.245
27927W        W96321  30.520   0.394   2.794
27928W        W96322  30.646   7.754  14.250
27929W        W96323  27.818  16.640  10.707
27930W        W96324  25.376  16.119  12.556
27931W        W96325  44.055  38.672   4.240
27932W        W96326  31.199   5.801  11.193
27933W        W96327  31.462   4.191   0.679
27934W        W96328  17.105  27.910   5.116
27935W        W96329  20.047  41.933  12.054
27936W        W96330  28.048   9.272   2.913
27937W        W96331  20.776  42.735  13.936
27938W        W96332  44.149  44.778  14.554
27939W        W96333  39.389  25.293   0.842
27940W        W96334  36.356  19.083   4.696
27941W        W96335  26.695  17.691   3.165
27942W        W96336  27.614  22.757  10.761
27943W        W96337  10.105  10.865   2.927
27944W        W96338  28.487  29.566  14.342
27945W        W96339   5.983  41.988   2.444
27946W        W96340   5.382  36.435   4.304
27947W        W96341   9.012  12.732   4.544
27948W        W96342  13.576  16.102   2.813
27949W        W96343  32.374  43.454   4.090
27950W        W96344   1.928  10.191  12.529
27951W        W96345   4.360  32.329  12.913
27952W        W96346   5.503   5.533  11.114
27953W        W96347  43.901  34.861  13.408
27954W        W96348  31.633  17.661   4.415
27955W        W96349  33.058  37.152   3.400
27956W        W96350   4.997   4.876  10.600
27957W        W96351  34.585  19.860  13.964
27958W        W96352  22.037  25.531  14.010
27959W        W96353   7.094  25.568  10.774
27960W        W96354   0.796  37.798   4.608
27961W        W96355  35.556  40.441  12.256
27962W        W96356  29.063  33.822  11.641
27963W        W96357  18.840  14.640  14.482
27964W        W96358  16.705  30.473   0.961
27965W        W96359  10.871  28.941  10.577
27966W        W96360  25.663  43.055  11.217
27967W        W96361  26.721  22.237  14.883
27968W        W96362  38.472  17.237  12.558
27969W        W96363  17.481  12.230  10.349
27970W        W96364  25.513   5.361   1.751
27971W        W96365  43.024  15.758   2.164
27972W        W96366  27.929  29.510   0.833
27973W        W96367  19.801   3.259   3.078
27974W        W96368   4.296  13.551   4.522
27975W        W96369  35.267  37.454   2.666
27976W        W96370   0.524  24.995   2.360
27977W        W96371   9.516   2.943  10.142
27978W        W96372  17.406   6.101   2.753
27979W        W96373   5.770   7.850   1.704
27980W        W96374  15.080  35.609   4.706
27981W        W96375  42.354  20.285   0.036
27982W        W96376  34.346  41.427   3.344
27983W        W96377  33.094  42.378  12.870
27984W        W96378   2.709  33.893  13.404
27985W        W96379  21.997  26.670  12.482
27986W        W96380   8.670  40.534   3.600
27987W        W96381  42.230   7.189  13.544
27988W        W96382   6.907   2.709   2.801
27989W        W96383  30.258   7.800  12.482
27990W        W96384  18.706  25.705   1.405
27991W        W96385   8.783  10.465  11.642
27992W        W96386  18.996  30.841  12.580
27993W        W96387   2.872  23.176  14.948
27994W        W96388  26.130   6.201   4.761
27995W        W96389  26.911  24.698  11.556
27996W        W96390  32.850  36.291  12.344
27997W        W96391  12.638   7.882  11.856
27998W        W96392   2.700  23.508   0.323
27999W        W96393   2.885  10.860   2.217
28000W        W96394  40.409  20.219  12.770
28001W        W96395  35.366  24.698  14.350
28002W        W96396  39.619   1.431  12.770
28003W        W96397  10.173  37.966  14.774
28004W        W96398  25.914   0.407  11.615
28005W        W96399  19.764  24.093  14.744
28006W        W96400   3.672  37.053   3.291
28007W        W96401   0.493  19.556  13.158
28008W        W96402   7.375  16.111   1.864
28009W        W96403   5.485   0.099   1.783
28010W        W96404   7.798  14.469   1.795
28011W        W96405  18.054  33.775   4.064
28012W        W96406   9.112  13.306   1.130
28013W        W96407   7.248  35.003  11.154
28014W        W96408   5.995   0.982   3.304
28015W        W96409  27.226  13.243   1.263
28016W        W96410  25.884  32.387  11.579
28017W        W96411   0.050  29.334   1.416
28018W        W96412  38.563  33.541   0.712
28019W        W96413  28.561  20.149  14.699
28020W        W96414  18.422  20.711   1.737
28021W        W96415  33.968   3.782   2.715
28022W        W96416  40.462   7.649  11.134
28023W        W96417  13.841  30.095  10.948
28024W        W96418  43.061  37.993   4.232
28025W        W96419  28.096  32.726   3.045
28026W        W96420  21.911  11.706   4.476
28027W        W96421  30.565  29.376  11.703
28028W        W96422  23.260  17.788   0.713
28029W        W96423  40.764  30.501  14.441
28030W        W96424  20.591  43.218   1.834
28031W        W96425  43.970  19.156  11.173
28032W        W96426  28.398  11.479  14.739
28033W        W96427  17.282  24.843  10.688
28034W        W96428  21.656  35.604   4.201
28035W        W96429  34.088  24.073  10.686
28036W        W96430   4.280  28.197  10.483
28037W        W96431   1.284  40.369  10.997
28038W        W96432  35.849   4.871   1.722
28039W        W96433  35.640  26.237  12.123
28040W        W96434   7.307  40.060  14.031
28041W        W96435  10.617   6.176   0.278
28042W        W96436  17.026  35.997   1.544
28043W        W96437  10.903  40.410  14.290
28044W        W96438  14.054  20.431  14.111
28045W        W96439   6.966  24.714  14.741
28046W        W96440   3.786   6.403   0.328
28047W        W96441  13.765  30.329  12.960
28048W        W96442  11.443   8.441   3.290
28049W        W96443  17.109  35.480   3.336
28050W        W96444  34.866  17.518   2.270
28051W        W96445   1.919  15.834  14.443
28052W        W96446  26.727  22.726  11.768
28053W        W96447  40.577  24.901   1.343
28054W        W96448  33.148  16.500  11.189
28055W        W96449  42.391   1.700  10.593
28056W        W96450  14.278  19.999  12.947
28057W        W96451  37.597   6.298  13.291
28058W        W96452  38.511  14.749   4.161
28059W        W96453  43.503  40.437  10.552
28060W        W96454  21.929   4.899  14.015
28061W        W96455  35.224  39.123  13.040
28062W        W96456   0.699  17.804  12.483
28063W        W96457  33.056  25.735   4.279
28064W        W96458  24.707   1.457  12.405
28065W        W96459  19.357  39.518  13.346
28066W        W96460  17.395  21.679  14.489
28067W        W96461  13.127  29.400   0.398
28068W        W96462   7.244   7.001  11.109
28069W        W96463  27.995   7.903  10.672
28070W        W96464  18.980  29.629   0.810
28071W        W96465  15.388   7.347   3.687
28072W        W96466  26.181  29.224  13.180
28073W        W96467  10.605  42.090   2.828
28074W        W96468  36.455   4.932  12.826
28075W        W96469  36.359   3.931  10.561
28076W        W96470  40.589  43.963   2.781
28077W        W96471   3.701  35.387   4.732
28078W        W96472  22.687  25.378   4.549
28079W        W96473  24.664  39.589   2.357
28080W        W96474  42.332  26.377   2.642
28081W        W96475  41.758  35.756   4.991
28082W        W96476  33.156  28.644  10.651
28083W        W96477  20.485  11.701   0.799
28084W        W96478  19.430  28.610   4.945
28085W        W96479  29.698  17.567   4.212
28086W        W96480  26.953  44.009   4.136
28087W        W96481   2.768  39.639   3.854
28088W        W96482   8.755  10.683   0.449
28089W        W96483  36.580   6.265  12.989
28090W        W96484  13.735  20.719   3.841
28091W        W96485  26.365  14.006  10.866
28092W        W96486  15.347  32.420  14.868
28093W        W96487   2.263  39.057  12.485
28094W        W96488  10.942  17.854   2.243
28095W        W96489   3.295  39.749   3.906
28096W        W96490  19.586   4.732  11.934
28097W        W96491   6.924  34.006   2.321
28098W        W96492  37.884   8.899  12.450
28099W        W96493  36.988   2.906   3.635
28100W        W96494  24.303  16.708   1.185
28101W        W96495   6.860  15.202  11.933
28102W        W96496  40.255  41.713   0.486
28103W        W96497  32.540  40.758  14.254
28104W        W96498   2.809  17.473   0.384
28105W        W96499  18.310   1.395  10.635
28106W        W96500  18.615   9.243   2.906
28107W        W96501  39.871  33.696   3.102
28108W        W96502  35.660  35.557   3.309
28109W        W96503  38.358   0.700   4.690
28110W        W96504  28.881  22.090   3.063
28111W        W96505  33.970  31.077   0.713
28112W        W96506   5.089  22.784   2.504
28113W        W96507   0.771   0.269   0.253
28114W        W96508  23.145  23.617  12.681
28115W        W96509  33.411  41.564  14.247
28116W        W96510  15.172  38.475   5.156
28117W        W96511   3.795  22.341  11.401
28118W        W96512   7.360  42.756   1.452
28119W        W96513  20.470  16.880   1.790
28120W        W96514  16.899  38.958  11.931
28121W        W96515  29.309   2.748  12.071
28122W        W96516  19.971   2.215  11.696
28123W        W96517  16.828   6.270   3.860
28124W        W96518  27.572  43.857  12.484
28125W        W96519   0.249  28.015   1.219
28126W        W96520  42.338  18.828  10.927
28127W        W96521  41.776   4.318  12.211
28128W        W96522   2.238  30.993  11.697
28129W        W96523   6.405  13.053   4.149
28130W        W96524  12.441  21.292   3.374
28131W        W96525  43.035  11.762   0.679
28132W        W96526  34.165  22.540   1.680
28133W        W96527  42.427  38.776   1.824
28134W        W96528  35.359  25.257  12.984
28135W        W96529  22.479   2.742   1.228
28136W        W96530  26.761   2.462  14.441
28137W        W96531  20.738  41.500  14.157
28138W        W96532  28.232   9.706  12.907
28139W        W96533   8.339  31.149  12.544
28140W        W96534   1.780  29.459  14.989
28141W        W96535  12.008  32.023   9.859
28142W        W96536   9.915   8.341   2.169
28143W        W96537  38.278  19.419  14.644
28144W        W96538  34.935  39.998  14.999
28145W        W96539  24.209   9.583  13.809
28146W        W96540  18.172  26.050   4.278
28147W        W96541  16.735   5.067   5.027
28148W        W96542  21.096  42.760  11.535
28149W        W96543  23.991  26.940   0.706
28150W        W96544   7.823   7.160  10.187
28151W        W96545  36.925  20.921  11.208
28152W        W96546  28.414  35.752   1.343
28153W        W96547  11.692  24.709   3.843
28154W        W96548  38.558  37.467  12.035
28155W        W96549  19.957  18.776  11.593
28156W        W96550  18.651  31.831   3.375
28157W        W96551   5.641  26.036  12.498
28158W        W96552  27.474  33.461   0.821
28159W        W96553  15.289  31.193  14.818
28160W        W96554  23.454  15.179  11.180
28161W        W96555  42.959   4.534   1.261
28162W        W96556  25.166  27.608   2.730
28163W        W96557  19.664  11.724   2.061
28164W        W96558  44.041  41.932  11.913
28165W        W96559  25.458  37.497   4.484
28166W        W96560   4.386  36.572  11.512
28167W        W96561  38.280  14.188  14.411
28168W        W96562   8.839  36.254  14.054
28169W        W96563  37.072  20.243  13.829
28170W        W96564  15.266  29.532  11.800
28171W        W96565  32.013  15.531   2.126
28172W        W96566  13.412  42.266   2.651
28173W        W96567   3.936   4.337   4.796
28174W        W96568   0.434   0.754   1.470
28175W        W96569  20.539  39.073  13.819
28176W        W96570  44.988  30.721  13.945
28177W        W96571  11.497  17.579   3.408
28178W        W96572  43.892  32.374  10.366
28179W        W96573  31.617  10.476   4.135
28180W        W96574  20.771  32.065   1.872
28181W        W96575  28.856  22.481   0.041
28182W        W96576  44.823   7.057  13.509
28183W        W96577  28.227  37.853   0.218
28184W        W96578  12.289  37.150  10.587
28185W        W96579   0.929  44.068  13.475
28186W        W96580  13.946  41.159  11.672
28187W        W96581  31.972  16.709  14.229
28188W        W96582  39.687  25.786  13.437
28189W        W96583   5.367  34.453   4.226
28190W        W96584  32.695  33.469   2.789
28191W        W96585  17.223  23.643   2.419
28192W        W96586  37.455  37.362   2.253
28193W        W96587  13.679  25.489   1.370
28194W        W96588  14.247  10.413   3.765
28195W        W96589  20.726  25.257   3.211
28196W        W96590  33.922  33.869   4.709
28197W        W96591  20.137   6.443   2.307
28198W        W96592  22.470  10.163   0.407
28199W        W96593  11.202   8.976  13.881
28200W        W96594   5.351  17.894   3.112
28201W        W96595  43.925  12.205   3.637
28202W        W96596   0.835   3.666  13.049
28203W        W96597  34.778  30.191   3.814
28204W        W96598  41.115  41.186   0.521
28205W        W96599  29.028  23.970  14.224
28206W        W96600  28.085  14.259   2.192
28207W        W96601  39.093  16.971  11.573
28208W        W96602  41.287  44.230   4.602
28209W        W96603  37.779   0.423  13.941
28210W        W96604  11.803   7.122   3.331
28211W        W96605  30.511  36.519   1.416
28212W        W96606  33.495  10.466   2.557
28213W        W96607   7.354  31.739   4.463
28214W        W96608  17.252  17.667   1.723
28215W        W96609  14.355  27.709   0.708
28216W        W96610  43.470  10.585  14.916
28217W        W96611  20.223  36.653   4.063
28218W        W96612  23.854  13.559   1.600
28219W        W96613   8.895  39.156   3.728
28220W        W96614  31.061  24.966  11.886
28221W        W96615  16.170  18.293   1.751
28222W        W96616  24.631  15.837  13.427
28223W        W96617  30.884  23.179  13.525
28224W        W96618  40.877   0.260  12.452
28225W        W96619  41.035  31.585  13.298
28226W        W96620  29.001  39.546   2.765
28227W        W96621  26.613   3.775  12.595
28228W        W96622   2.030  29.178   1.831
28229W        W96623  20.177  39.379  14.231
28230W        W96624  28.349  30.636   4.353
28231W        W96625  12.373  24.612   3.198
28232W        W96626  34.595  20.532  13.406
28233W        W96627  20.776  42.263   1.940
28234W        W96628  34.615  12.838   4.351
28235W        W96629  29.944  37.374   2.791
28236W        W96630  14.725  28.478   1.738
28237W        W96631  11.621   8.298  14.359
28238W        W96632   2.221  27.949   3.875
28239W        W96633  44.145   1.570  10.435
28240W        W96634   9.324  39.980  12.562
28241W        W96635  20.945  31.139  13.762
28242W        W96636  39.590  41.572   3.554
28243W        W96637  20.097  44.353   0.176
28244W        W96638  40.400  23.424   0.956
28245W        W96639  35.283  25.756  12.832
28246W        W96640  35.998  31.886   1.445
28247W        W96641  40.308  19.242   4.411
28248W        W96642  34.024  30.871   1.190
28249W        W96643  41.354  30.900  12.491
28250W        W96644   9.006  28.296  13.483
28251W        W96645   5.852  13.765   3.746
28252W        W96646  28.612  43.301   5.342
28253W        W96647  12.282  11.780   3.770
28254W        W96648  22.243  13.429   1.409
28255W        W96649  13.749   7.875  11.452
28256W        W96650  35.451   0.449  10.755
28257W        W96651  25.582  32.318  13.482
28258W        W96652   1.907   2.730   1.661
28259W        W96653  32.129  43.865   1.315
28260W        W96654  26.959  16.355  14.272
28261W        W96655  37.900  18.115   0.935
28262W        W96656  34.030  20.145  10.498
28263W        W96657  43.560   5.246   1.755
28264W        W96658  31.694   8.571  11.625
28265W        W96659   2.849  15.405  11.280
28266W        W96660  21.336  25.503  12.677
28267W        W96661  25.060  39.930   0.808
28268W        W96662  40.938   7.668  11.721
28269W        W96663   6.268  27.711  14.991
28270W        W96664  31.954  20.379  12.516
28271W        W96665  28.653  13.769  11.232
28272W        W96666  42.471  12.763  10.959
28273W        W96667  36.078   5.455   3.348
28274W        W96668   1.834   0.235   4.532
28275W        W96669   1.883   5.500   4.314
28276W        W96670  33.848  42.519   3.910
28277W        W96671  43.269  36.025   3.202
28278W        W96672  14.039  11.104  13.148
28279W        W96673  32.911  28.568  11.101
28280W        W96674   1.186  25.109  12.098
28281W        W96675  21.097  15.934   2.081
28282W        W96676  21.250  37.173  13.431
28283W        W96677  10.759  37.985  12.459
28284W        W96678  30.758  42.613   1.513
28285W        W96679  11.836  20.962  10.199
28286W        W96680  19.819   1.466   2.543
28287W        W96681  31.009  32.023   3.166
28288W        W96682  15.574  38.986  11.408
28289W        W96683   2.243   7.557   2.159
28290W        W96684   8.270  40.327  13.354
28291W        W96685  24.606  33.190   0.401
28292W        W96686  17.706  16.181   4.100
28293W        W96687   2.526  13.125   4.701
28294W        W96688   7.171  21.691  10.912
28295W        W96689   1.414  34.687   1.928
28296W        W96690  40.394  41.734   1.345
28297W        W96691  37.027  26.111  11.902
28298W        W96692  25.661  22.267   1.817
28299W        W96693  32.155  13.164   2.179
28300W        W96694  33.029  42.784  11.131
28301W        W96695  30.381  26.032   1.686
28302W        W96696  10.115  27.202  13.577
28303W        W96697  39.968   1.301   1.781
28304W        W96698  12.851  25.360   0.479
28305W        W96699   7.027  19.517   3.668
28306W        W96700  27.028  11.802   3.670
28307W        W96701  42.873  33.445  12.744
28308W        W96702  19.125  14.910   2.172
28309W        W96703  33.888  18.235  14.436
28310W        W96704  32.408  40.544   1.633
28311W        W96705   6.500  20.039   1.443
28312W        W96706  21.043  44.324   1.372
28313W        W96707  23.933   7.266   4.348
28314W        W96708  19.564  31.909   3.987
28315W        W96709  20.145  19.671  11.579
28316W        W96710  20.971  13.297  11.141
28317W        W96711  19.017  25.552  12.963
28318W        W96712  10.365  29.361  11.619
28319W        W96713  30.631  40.363   2.617
28320W        W96714   2.263   9.581  13.461
28321W        W96715  10.732   0.943  14.386
28322W        W96716  38.638  37.097  12.983
28323W        W96717  37.901  32.398  14.184
28324W        W96718  34.610   2.894  10.720
28325W        W96719   1.348  38.380   2.705
28326W        W96720  22.723   0.100  11.891
28327W        W96721  38.774  39.626   0.857
28328W        W96722  31.447  30.170   4.588
28329W        W96723  30.423   8.461   0.672
28330W        W96724  17.490  42.985   2.893
28331W        W96725  44.931  19.929   4.090
28332W        W96726  29.394  14.820   2.251
28333W        W96727  40.808  15.137   0.250
28334W        W96728  41.375  13.995  14.418
28335W        W96729   4.430  20.956   1.210
28336W        W96730  37.352  14.143  14.434
28337W        W96731  29.660  16.334   3.116
28338W        W96732   3.693  13.160   0.314
28339W        W96733  13.338  14.029   4.631
28340W        W96734  20.627  10.413   2.649
28341W        W96735  27.954  24.017   2.766
28342W        W96736   0.011  28.174   4.837
28343W        W96737  12.302  40.998   0.918
28344W        W96738  44.656  17.172  13.007
28345W        W96739  42.824  22.168  12.507
28346W        W96740  22.579  28.112   1.021
28347W        W96741  11.451  12.575  13.233
28348W        W96742  33.940  39.303  10.727
28349W        W96743  36.195   8.243   3.619
28350W        W96744  17.830   2.324  14.997
28351W        W96745   2.016  24.096  12.816
28352W        W96746  36.313  39.026   4.496
28353W        W96747  35.261  12.335  12.381
28354W        W96748  33.313  44.352   3.263
28355W        W96749  28.634  16.716   4.548
28356W        W96750  38.225  22.108   1.486
28357W        W96751  12.145  37.924   4.867
28358W        W96752  12.097  32.455  12.499
28359W        W96753  18.236  44.310   0.273
28360W        W96754   5.754  22.338  10.746
28361W        W96755  10.125  12.761   3.765
28362W        W96756   0.728  28.665   1.041
28363W        W96757   4.333  34.141  12.432
28364W        W96758  35.977  30.917  11.052
28365W        W96759   1.301  29.964   3.734
28366W        W96760  12.027  14.787  10.576
28367W        W96761  19.166  10.228   4.361
28368W        W96762  13.660  25.012   3.450
28369W        W96763  31.204  14.150  10.888
28370W        W96764  13.181  30.038  11.853
28371W        W96765  21.056  32.456  10.427
28372W        W96766  20.516  43.566   2.625
28373W        W96767  11.554  32.622  11.555
28374W        W96768  39.784  14.751  13.265
28375W        W96769  13.179  34.555  13.138
28376W        W96770  11.330  34.609  14.981
28377W        W96771  34.127   4.334   0.289
28378W        W96772   2.469  37.120  12.529
28379W        W96773  18.827  30.672   4.379
28380W        W96774  13.779   5.214  12.040
28381W        W96775  10.890   4.864  14.784
28382W        W96776  34.669  17.160   3.920
28383W        W96777  44.913   8.797   3.522
28384W        W96778  38.412  42.269   1.904
28385W        W96779   2.695  40.331   3.251
28386W        W96780  33.904   0.250   4.845
28387W        W96781  17.778   2.306  13.961
28388W        W96782  40.755   0.516  12.899
28389W        W96783  42.881  31.609  10.727
28390W        W96784  36.927  17.310  13.547
28391W        W96785  16.252  21.645   1.864
28392W        W96786  33.076   8.837  10.574
28393W        W96787  23.942  26.568  11.190
28394W        W96788  43.288  23.346   4.626
28395W        W96789   8.743   2.363  14.993
28396W        W96790  32.718  20.196   0.372
28397W        W96791  43.975   6.231  10.629
28398W        W96792  18.762  39.886   2.854
28399W        W96793  13.344  15.539   2.339
28400W        W96794   1.002  18.698  13.445
28401W        W96795  21.600  39.106  11.587
28402W        W96796   3.243   7.414   0.244
28403W        W96797  21.924  36.757   1.269
28404W        W96798  21.642  39.969   4.429
28405W        W96799  12.070  32.596  11.601
28406W        W96800  25.646  25.943   2.796
28407W        W96801  13.178  44.843   2.949
28408W        W96802  14.000   8.487  13.989
28409W        W96803  29.327  37.444   4.643
28410W        W96804  23.880  31.717   2.750
28411W        W96805  17.838   2.976  12.870
28412W        W96806  25.524  43.311   1.433
28413W        W96807  40.087  38.338   0.367
28414W        W96808  44.635  24.362  13.172
28415W        W96809  36.892  41.784   3.448
28416W        W96810  30.932  20.099  10.531
28417W        W96811   2.852  27.706  14.814
28418W        W96812  10.844  37.507  13.334
28419W        W96813  21.067  23.535  10.622
28420W        W96814  34.430  23.898  12.852
28421W        W96815  21.814  29.631   4.617
28422W        W96816  14.648  35.001   1.302
28423W        W96817  13.633  24.455  13.457
28424W        W96818  15.064  32.609   1.267
28425W        W96819  19.078   4.389  12.599
28426W        W96820  28.250  35.051   1.949
28427W        W96821  25.762  14.134   4.466
28428W        W96822  34.401  37.415   4.020
28429W        W96823   4.409  13.580  10.751
28430W        W96824  20.686   0.749  10.811
28431W        W96825  22.120   1.408  11.085
28432W        W96826  37.883   3.647   0.689
28433W        W96827  41.296  12.253   2.234
28434W        W96828  20.609  40.292  12.247
28435W        W96829  28.495  44.025  14.998
28436W        W96830  23.991   7.124  14.126
28437W        W96831  14.165  38.738   3.288
28438W        W96832   3.297  12.074   0.947
28439W        W96833  24.604  22.830   1.843
28440W        W96834  24.007  19.499   4.091
28441W        W96835  43.039  12.297  12.004
28442W        W96836  10.219  36.302   3.648
28443W        W96837  41.896  12.089   4.039
28444W        W96838   3.585   8.270   1.249
28445W        W96839  30.476   3.374  12.293
28446W        W96840  18.234  37.311  10.808
28447W        W96841  40.565  16.858  11.119
28448W        W96842   6.301  19.250   4.623
28449W        W96843   5.587   2.805   0.511
28450W        W96844  23.096  29.306  13.560
28451W        W96845   5.824  19.981  13.688
28452W        W96846  39.382  35.036   3.554
28453W        W96847  19.897  15.167   3.709
28454W        W96848  29.225  17.156   3.214
28455W        W96849  14.391   5.998   2.707
28456W        W96850  44.033   7.270  10.671
28457W        W96851  23.606  42.414  11.751
28458W        W96852  37.294   3.889   3.231
28459W        W96853  18.747  13.258   2.711
28460W        W96854  28.679  25.243  12.499
28461W        W96855  42.119   3.888   3.720
28462W        W96856  24.519  24.203   3.188
28463W        W96857   2.869   4.750  11.001
28464W        W96858  34.756   4.902   1.472
28465W        W96859   3.208  10.902  13.970
28466W        W96860  38.570   6.364  13.260
28467W        W96861   4.767  37.780   3.054
28468W        W96862  11.296  14.085  12.447
28469W        W96863   9.860  26.791  11.070
28470W        W96864  33.536  39.106  12.347
28471W        W96865  15.184  44.406  14.304
28472W        W96866  21.075  38.857   0.948
28473W        W96867  43.368  28.063  11.668
28474W        W96868  42.806  36.614  13.386
28475W        W96869  21.605  42.257   0.400
28476W        W96870  13.338  24.936  13.937
28477W        W96871  33.433  41.072   0.254
28478W        W96872  33.123  22.239   4.279
28479W        W96873  19.565  40.543   0.885
28480W        W96874  39.721  31.893  11.066
28481W        W96875   1.006  35.277   3.365
28482W        W96876  36.015  29.506  12.200
28483W        W96877  36.927  32.549   1.727
28484W        W96878  20.116  27.555   1.241
28485W        W96879  41.586  35.641  11.326
28486W        W96880   3.505   4.717  11.603
28487W        W96881  21.552   9.348   4.520
28488W        W96882   3.763  26.587   1.242
28489W        W96883   7.310  41.866   1.255
28490W        W96884  34.034  31.965   3.384
28491W        W96885  21.191  41.329  12.817
28492W        W96886   4.932  34.693  13.058
28493W        W96887  22.532  15.998  14.872
28494W        W96888  28.189   6.858   0.694
28495W        W96889  16.848  42.506   4.352
28496W        W96890   7.740  19.807   2.302
28497W        W96891  27.384  30.673  12.456
28498W        W96892  38.948  44.997   2.226
28499W        W96893   2.896  37.570   5.060
28500W        W96894  27.969  27.586  11.665
28501W        W96895  34.443  21.699   3.588
28502W        W96896  19.545  44.241  13.469
28503W        W96897  36.939  17.728   1.641
28504W        W96898   6.325  11.088  11.131
28505W        W96899   5.889   7.697  13.028
28506W        W96900  18.199   7.580  10.431
28507W        W96901  17.696  15.591   2.183
28508W        W96902  34.358   4.955   4.598
28509W        W96903   3.698  10.120   3.874
28510W        W96904   7.897  16.038   2.791
28511W        W96905  38.681  33.263   5.145
28512W        W96906   3.151   5.200  10.773
28513W        W96907  40.490  10.942   3.211
28514W        W96908  26.867  34.848  11.115
28515W        W96909  29.390  15.917  14.745
28516W        W96910  32.437   0.657   3.830
28517W        W96911  16.938  34.272  11.545
28518W        W96912  41.882  24.584  14.922
28519W        W96913  37.562  35.852   3.386
28520W        W96914   1.796   0.098  14.077
28521W        W96915  20.299  24.976  14.961
28522W        W96916   9.722  16.190  10.950
28523W        W96917  18.168   0.224  14.739
28524W        W96918   7.338  32.826  11.479
28525W        W96919   0.257  39.906  13.857
28526W        W96920  16.546   0.927  11.749
28527W        W96921  27.065  23.408   2.837
28528W        W96922   2.835  17.994   0.279
28529W        W96923  27.950  12.283  11.610
28530W        W96924  18.422   4.234   1.342
28531W        W96925  42.089   9.407   2.898
28532W        W96926  22.969  19.073  14.948
28533W        W96927  19.924  29.748  11.125
28534W        W96928  26.357  33.816  14.346
28535W        W96929  38.688  10.609   3.682
28536W        W96930  13.639  13.625  13.518
28537W        W96931  37.460  29.509   4.405
28538W        W96932  27.505  39.599   1.745
28539W        W96933  43.954  22.882   4.317
28540W        W96934  41.262   0.231  11.624
28541W        W96935   3.975  39.479   1.954
28542W        W96936  11.871   5.256   2.152
28543W        W96937  13.744  15.146   4.546
28544W        W96938  19.685  40.594  11.403
28545W        W96939  34.853  16.127   2.592
28546W        W96940  32.074  41.876  12.503
28547W        W96941  10.494  30.438  10.319
28548W        W96942  19.290   4.836  10.663
28549W        W96943  17.321   8.109  12.963
28550W        W96944   9.807  26.234   4.144
28551W        W96945  27.144   1.928  13.559
28552W        W96946  28.914  27.465  11.206
28553W        W96947  20.539  11.008   1.512
28554W        W96948   2.701  27.459   1.800
28555W        W96949  27.647  28.752   4.523
28556W        W96950  31.050  26.280  13.369
28557W        W96951  17.375   2.541   3.124
28558W        W96952   7.381  21.809   3.684
28559W        W96953  26.831  24.744  12.412
28560W        W96954   6.270  10.774   0.932
28561W        W96955  27.242   7.862   0.661
28562W        W96956  17.476  12.825  10.680
28563W        W96957   6.895  39.750  14.854
28564W        W96958  30.529   2.898   0.969
28565W        W96959  28.458  27.978  10.712
28566W        W96960  30.221  23.590   2.258
28567W        W96961  40.132  31.351  12.943
28568W        W96962  26.282  20.399   0.307
28569W        W96963  19.989   0.325   3.287
28570W        W96964   2.262  44.010  11.164
28571W        W96965  25.266  42.588   1.980
28572W        W96966   6.198  12.167   3.747
28573W        W96967  44.988   8.694   1.638
28574W        W96968  10.650  21.902   3.258
28575W        W96969  14.231  26.497   0.661
28576W        W96970  36.300  30.146   2.347
28577W        W96971  37.459  31.315  12.360
28578W        W96972  23.078  37.912  12.385
28579W        W96973  17.673  25.946  14.871
28580W        W96974  20.040  23.913   2.302
28581W        W96975  20.945  26.059   1.694
28582W        W96976  42.336  21.249  12.953
28583W        W96977  14.087   1.935   3.703
28584W        W96978   1.777  41.958  14.420
28585W        W96979  41.352  15.657   3.666
28586W        W96980  11.743   3.541   3.298
28587W        W96981  44.864  13.693  13.165
28588W        W96982  36.658  34.638   1.278
28589W        W96983  41.233  28.930   1.247
28590W        W96984  37.866  20.358  11.197
28591W        W96985   7.720  43.487  13.482
28592W        W96986   9.224  17.612   4.386
28593W        W96987  10.253  18.703   0.878
28594W        W96988  16.637  36.800   3.617
28595W        W96989  18.764  24.766   1.246
28596W        W96990  33.063   3.235   2.943
28597W        W96991  31.611  41.553   4.335
28598W        W96992  36.384  10.111   2.723
28599W        W96993  41.835  31.551   1.184
28600W        W96994  41.829   3.932  12.621
28601W        W96995  16.298  25.984  13.036
28602W        W96996  15.698  27.087   3.705
28603W        W96997  22.172  28.815  12.455
28604W        W96998  37.574   4.975   4.284
28605W        W96999  36.567  21.783   2.100
28606W        W97000  17.984  32.768  10.641
28607W        W97001  17.680  10.406  12.331
28608W        W97002  17.184  40.036  12.940
28609W        W97003  15.600   7.269  12.913
28610W        W97004  16.625  39.512   3.225
28611W        W97005  40.802  28.176   1.000
28612W        W97006  26.701  27.509   2.734
28613W        W97007   8.382   8.796   0.080
28614W        W97008   6.928  23.584  14.500
28615W        W97009  11.149  12.807  13.663
28616W        W97010  28.277  15.079   0.901
28617W        W97011   1.494  27.219   4.034
28618W        W97012  41.911  29.996   1.116
28619W        W97013  11.088  29.871  10.996
28620W        W97014  39.975  15.949   1.976
28621W        W97015  11.209  26.228   2.399
28622W        W97016   7.363  33.084  11.034
28623W        W97017   4.964  17.591  11.562
28624W        W97018  22.277  32.894  13.519
28625W        W97019  22.045  41.195  14.939
28626W        W97020  25.161  40.309   2.324
28627W        W97021  22.088  36.031  11.159
28628W        W97022  26.429   8.967  12.427
28629W        W97023  16.877  36.957   0.407
28630W        W97024  15.551  29.176   1.864
28631W        W97025   8.421  42.993  12.609
28632W        W97026  19.743  38.418   2.287
28633W        W97027  34.508   2.028  13.330
28634W        W97028  21.017  16.852  13.329
28635W        W97029  20.397  10.929   4.204
28636W        W97030   9.235  21.789   3.818
28637W        W97031  14.159  40.027   3.691
28638W        W97032   4.875  18.031   1.899
28639W        W97033  15.007  41.762  12.444
28640W        W97034  41.699   5.754   1.340
28641W        W97035  37.066  40.053  11.529
28642W        W97036  15.281   0.711   4.306
28643W        W97037  23.995   1.814  10.912
28644W        W97038  23.470   3.536  12.351
28645W        W97039  29.352  18.058   1.410
28646W        W97040  32.448  32.053   4.571
28647W        W97041  23.205  43.505   0.798
28648W        W97042   0.189  15.122  14.283
28649W        W97043  39.771  43.787  14.987
28650W        W97044  17.530  27.434  14.794
28651W        W97045   3.725   5.001   2.996
28652W        W97046   9.423  34.140  13.442
28653W        W97047  21.019   7.693   4.184
28654W        W97048  44.446  20.564   4.981
28655W        W97049  23.094  21.022   1.321
28656W        W97050   2.272  40.514   1.024
28657W        W97051  37.865  11.115   1.685
28658W        W97052  28.052  12.379  14.341
28659W        W97053  27.273  11.299   3.671
28660W        W97054   4.698  38.061   4.593
28661W        W97055  19.766  32.702   2.189
28662W        W97056  17.011  18.618  11.964
28663W        W97057  42.263  44.264  14.344
28664W        W97058  12.881  41.323  11.154
28665W        W97059   9.859  34.584   2.125
28666W        W97060  35.731  43.565  12.429
28667W        W97061   5.263  22.316   3.536
28668W        W97062   8.765  35.600  11.850
28669W        W97063  26.569   4.908   3.822
28670W        W97064  31.052   9.144   5.048
28671W        W97065  42.222  28.066  11.156
28672W        W97066   0.504  17.470   2.900
28673W        W97067  29.407  37.068  11.206
28674W        W97068  33.821  25.703  11.524
28675W        W97069  34.364  14.711   4.164
28676W        W97070   9.000   7.215   2.523
28677W        W97071  39.062  33.640  10.458
28678W        W97072  14.266  44.997  11.085
28679W        W97073  13.161  13.318  13.033
28680W        W97074  34.892  41.486   4.017
28681W        W97075  20.229   8.738   1.412
28682W        W97076  34.136   6.327   0.235
28683W        W97077  33.894  25.209  11.457
28684W        W97078  13.251  44.386   0.162
28685W        W97079  27.942  22.177   3.272
28686W        W97080  11.710   0.321  12.225
28687W        W97081  31.956  13.691  12.513
28688W        W97082  35.112  20.897   1.081
28689W        W97083  36.920  43.796  13.978
28690W        W97084  11.879   7.234  12.909
28691W        W97085  30.859  10.708  10.601
28692W        W97086  34.904   5.422   4.145
28693W        W97087  10.678  41.954  12.216
28694W        W97088  38.580  37.989   1.760
28695W        W97089  28.658  19.075   4.169
28696W        W97090  16.174  20.710   1.971
28697W        W97091  28.958   3.768  13.461
28698W        W97092  21.106   7.309  12.915
28699W        W97093  20.286  40.806   0.772
28700W        W97094   6.683  36.836   0.804
28701W        W97095  42.956  37.573  11.225
28702W        W97096  43.436   0.382  14.969
28703W        W97097   0.982  26.812   4.482
28704W        W97098  14.267  12.168  13.602
28705W        W97099  15.857  29.573  13.537
28706W        W97100  20.552  14.799   1.803
28707W        W97101  44.927  31.126  13.086
28708W        W97102  13.277  15.610   3.673
28709W        W97103  27.933  14.619   3.905
28710W        W97104  21.731   3.351   4.852
28711W        W97105  42.636  29.857  12.581
28712W        W97106  36.453  38.293  14.814
28713W        W97107   5.987   4.221  12.170
28714W        W97108   3.545  27.515  10.788
28715W        W97109  42.990  11.497  13.371
28716W        W97110   2.712  25.138  12.435
28717W        W97111  31.514  17.569   3.417
28718W        W97112   3.035  42.477  10.807
28719W        W97113   0.372   1.868   3.988
28720W        W97114   7.327   6.026  13.319
28721W        W97115  31.900  12.441  10.802
28722W        W97116  24.633  43.475   0.332
28723W        W97117  43.271  22.153   3.218
28724W        W97118   8.715   2.470  11.989
28725W        W97119   5.856  16.110  12.941
28726W        W97120  43.970  42.349  10.665
28727W        W97121   7.331  20.348  12.136
28728W        W97122  12.186  16.070  13.601
28729W        W97123  42.346  19.247  14.120
28730W        W97124  21.490  28.372  12.695
28731W        W97125  18.487  11.743  14.884
28732W        W97126  44.077  12.306  11.030
28733W        W97127  13.572   7.311  12.149
28734W        W97128  29.474   1.215   4.116
28735W        W97129  22.003  20.688  14.455
28736W        W97130  29.305  21.596  13.122
28737W        W97131  23.015  28.084   2.870
28738W        W97132  15.788  26.707   4.070
28739W        W97133  35.969  33.522  10.988
28740W        W97134  28.260  17.586   4.115
28741W        W97135  32.958  10.915   1.897
28742W        W97136  10.245  12.283   3.594
28743W        W97137  36.515  26.200   1.105
28744W        W97138  44.919  22.357   3.877
28745W        W97139  32.994  17.650  11.894
28746W        W97140  19.678  23.799   1.760
28747W        W97141  36.566  14.882   1.318
28748W        W97142  17.075  35.903   0.101
28749W        W97143   7.387  10.142   1.093
28750W        W97144  21.483  33.854  14.263
28751W        W97145  15.070  39.896  14.284
28752W        W97146  26.440  37.352   1.787
28753W        W97147  38.839  13.694  12.506
28754W        W97148  23.033  42.516   1.027
28755W        W97149  11.660   2.638   2.775
28756W        W97150   2.773  30.169  14.014
28757W        W97151  30.431  12.278  12.025
28758W        W97152   6.805   4.078  11.781
28759W        W97153  29.193  24.275   1.291
28760W        W97154  37.980  42.500  12.657
28761W        W97155  35.353  30.715  13.104
28762W        W97156  31.654   9.682   1.855
28763W        W97157  28.171   3.334   1.433
28764W        W97158   3.301  10.728   0.291
28765W        W97159  21.715  27.275  13.457
28766W        W97160  34.156  20.194  13.884
28767W        W97161  32.139  23.140  14.480
28768W        W97162  27.765  18.189   3.346
28769W        W97163  13.329  34.325   3.340
28770W        W97164   0.971   6.290   5.115
28771W        W97165  40.688  24.567  11.235
28772W        W97166  42.671  25.383   3.212
28773W        W97167  34.418  13.351  11.001
28774W        W97168   9.345   7.014  11.656
28775W        W97169  18.143  28.672  11.124
28776W        W97170  30.952  16.957  13.382
28777W        W97171  41.442   2.429  14.042
28778W        W97172  34.891  10.977  10.920
28779W        W97173   9.202  22.929   1.887
28780W        W97174   7.395  22.962  14.786
28781W        W97175   1.874  31.582  14.353
28782W        W97176  40.291  19.256   3.848
28783W        W97177  15.742   3.205   0.029
28784W        W97178  43.728  31.480   2.304
28785W        W97179  14.548  36.022   3.118
28786W        W97180  33.158  44.956   2.788
28787W        W97181  15.571   5.153  12.064
28788W        W97182  14.732  30.908   0.342
28789W        W97183   1.973  31.446  10.464
28790W        W97184  15.599  28.918   2.348
28791W        W97185   3.965  27.026   2.341
28792W        W97186   6.102  14.202   3.541
28793W        W97187   0.035   0.671   3.882
28794W        W97188   0.090  12.343  11.996
28795W        W97189  41.830  43.398  13.433
28796W        W97190  35.505  14.762   2.885
28797W        W97191  15.880   2.477  13.859
28798W        W97192  38.905   0.828   4.599
28799W        W97193   2.787  39.240   2.121
28800W        W97194   5.786   2.783   1.342
28801W        W97195  35.317   8.662   5.148
28802W        W97196  29.507  43.889  14.904
28803W        W97197   4.229  12.098  13.352
28804W        W97198  19.055  11.723   4.148
28805W        W97199  31.032  33.176   2.883
28806W        W97200   3.816   1.623  13.040
28807W        W97201  41.392  21.253  12.858
28808W        W97202  20.530  36.122   0.502
28809W        W97203   1.572  14.191   2.684
28810W        W97204   5.214  21.820  13.881
28811W        W97205  41.982  10.238   0.513
28812W        W97206  35.851   8.083   2.216
28813W        W97207  29.644  33.061  12.482
28814W        W97208  22.052  23.668   2.431
28815W        W97209  34.931  10.320  14.557
28816W        W97210  32.981  39.376  11.173
28817W        W97211   4.104   4.402   1.699
28818W        W97212  33.790   7.094   2.795
28819W        W97213  11.484  35.645   1.422
28820W        W97214  32.080  26.985  11.947
28821W        W97215   1.394  14.640  12.309
28822W        W97216  25.706   0.812  11.368
28823W        W97217   5.754  40.484   0.286
28824W        W97218  11.254   0.451  11.964
28825W        W97219  21.124  24.098   0.832
28826W        W97220  41.319   9.350  14.272
28827W        W97221  29.973  40.361   3.331
28828W        W97222  28.467  16.249   4.354
28829W        W97223  17.812  17.647   0.546
28830W        W97224   2.915   0.103  11.545
28831W        W97225  10.339   8.313   1.894
28832W        W97226  25.732  39.974  14.841
28833W        W97227  20.033  44.242   4.029
28834W        W97228  25.531  31.620   1.310
28835W        W97229   5.749  29.897   4.332
28836W        W97230   1.468  42.075  11.504
28837W        W97231  33.253  18.016  12.153
28838W        W97232  36.250  33.093  10.771
28839W        W97233  44.418  12.746  11.787
28840W        W97234  23.968  43.325  12.844
28841W        W97235   9.619  41.966  12.089
28842W        W97236  42.262  13.030   2.325
28843W        W97237   0.757  22.421   3.294
28844W        W97238  22.983  21.945   0.866
28845W        W97239   7.585  23.301   5.081
28846W        W97240  14.605   1.255  11.593
28847W        W97241  13.325  22.233   4.119
28848W        W97242   3.233   8.837  12.900
28849W        W97243   7.215  13.188   2.103
28850W        W97244  41.889  33.587   4.772
28851W        W97245  33.949  23.456   1.254
28852W        W97246  19.337  23.800   0.802
28853W        W97247  28.583  25.464   1.859
28854W        W97248  23.132   5.022  10.528
28855W        W97249  12.351  41.336   4.372
28856W        W97250  12.437  29.768   3.687
28857W        W97251  41.687  22.815   2.182
28858W        W97252  42.441  31.109  10.639
28859W        W97253   8.343  29.605  10.463
28860W        W97254  44.060  34.894   1.490
28861W        W97255  18.429   0.215   4.554
28862W        W97256  28.915  22.256   2.178
28863W        W97257  40.517  17.009  13.790
28864W        W97258   8.790  23.483   0.427
28865W        W97259  20.465  41.303   2.879
28866W        W97260   9.859  15.747   1.736
28867W        W97261  10.646  16.554   1.754
28868W        W97262  37.319  32.411  11.419
28869W        W97263  29.660  24.916  10.693
28870W        W97264  37.290  36.949   1.331
28871W        W97265  13.347  13.230   2.011
28872W        W97266  27.250  11.498  12.355
28873W        W97267  33.427  34.093   1.842
28874W        W97268  44.254   6.327   3.729
28875W        W97269  23.146   1.796   4.289
28876W        W97270   1.521   5.868   2.782
28877W        W97271  25.619  32.467   4.502
28878W        W97272  28.247  39.434   4.812
28879W        W97273  31.557  20.490   1.934
28880W        W97274  31.489  12.035  12.825
28881W        W97275  16.268  40.495  13.587
28882W        W97276   4.676  43.383   1.690
28883W        W97277  33.628  23.652  11.021
28884W        W97278  10.808   4.959   2.145
28885W        W97279   1.875  17.160   0.558
28886W        W97280  36.803  13.700  10.574
28887W        W97281  11.745   9.884  12.451
28888W        W97282  11.687   4.748   1.918
28889W        W97283  41.009  16.645  12.556
28890W        W97284  12.084  30.414  14.584
28891W        W97285  41.446   5.673  11.338
28892W        W97286   9.743   6.023  11.155
28893W        W97287  22.647  41.080  11.192
28894W        W97288  44.734  28.036   0.268
28895W        W97289  23.438  16.803  11.527
28896W        W97290  19.129  33.181   4.634
28897W        W97291  22.643  38.539  10.801
28898W        W97292  26.269  11.308   3.711
28899W        W97293   0.745  34.034   2.359
28900W        W97294  26.336  22.930   2.378
28901W        W97295  16.344  21.482   4.714
28902W        W97296  21.181  16.008  10.506
28903W        W97297  44.668  33.889   9.769
28904W        W97298  24.463  20.461  11.425
28905W        W97299   3.418  13.956   2.762
28906W        W97300  44.631   6.325  12.725
28907W        W97301  21.747  31.400  10.827
28908W        W97302  28.779  36.663  10.702
28909W        W97303   8.718  44.895  13.265
28910W        W97304  20.064  12.638  14.989
28911W        W97305   7.719  44.314  14.495
28912W        W97306  37.683  41.792  12.371
28913W        W97307  29.537  18.802   0.390
28914W        W97308   7.682  42.547  12.951
28915W        W97309  13.041   1.389   2.670
28916W        W97310  11.605  26.130  13.442
28917W        W97311  20.030  14.353   0.297
28918W        W97312  33.994   6.712   2.337
28919W        W97313  34.405  22.919  12.561
28920W        W97314  39.381  44.882   4.441
28921W        W97315   9.355  25.711   0.407
28922W        W97316   1.832   6.827   0.697
28923W        W97317  28.143  22.402  13.488
28924W        W97318   7.664  27.565  10.317
28925W        W97319  21.475   7.317   1.917
28926W        W97320   7.082  28.137  13.440
28927W        W97321  34.018  33.422   0.316
28928W        W97322   9.838  22.927  10.199
28929W        W97323  39.315  26.147  11.108
28930W        W97324  41.969   6.154   0.435
28931W        W97325  44.809   0.064   1.808
28932W        W97326  16.407  39.131  12.061
28933W        W97327  38.211  20.151  11.942
28934W        W97328  28.166   0.493   4.591
28935W        W97329  22.780  35.493   1.860
28936W        W97330  11.858   9.786   1.486
28937W        W97331  43.227  32.851   3.707
28938W        W97332  24.040  39.894  10.934
28939W        W97333  17.756   0.221  10.664
28940W        W97334  36.885   9.299  10.796
28941W        W97335  16.277   8.781   1.753
28942W        W97336  36.400  42.374   4.684
28943W        W97337  16.199  18.455  10.717
28944W        W97338  27.325  13.012  11.575
28945W        W97339  32.511   4.877   3.215
28946W        W97340   4.625  27.260   3.648
28947W        W97341  22.067   0.007  13.300
28948W        W97342  25.517  40.814   4.661
28949W        W97343  25.414   6.767   4.798
28950W        W97344  12.936  25.953   0.678
28951W        W97345  34.112  42.636  14.432
28952W        W97346   2.758  40.547   1.812
28953W        W97347   2.182  23.543   0.402
28954W        W97348  41.393  16.240  12.504
28955W        W97349  42.270  24.979  10.742
28956W        W97350  18.245  37.474   0.511
28957W        W97351  31.628   9.276  13.953
28958W        W97352  39.053  28.411   2.766
28959W        W97353   1.490   5.896   0.481
28960W        W97354  29.501   6.238  13.055
28961W        W97355  12.709  14.921   4.564
28962W        W97356  12.651  13.823  10.739
28963W        W97357  28.795   2.358  13.610
28964W        W97358  33.965  41.502  12.491
28965W        W97359  24.159  38.760   0.946
28966W        W97360  27.162  25.475   4.388
28967W        W97361   1.817  28.714   4.285
28968W        W97362  35.981  21.909  11.137
28969W        W97363  29.021  11.607   2.234
28970W        W97364  19.520  31.698   0.278
28971W        W97365  39.439  13.557   3.343
28972W        W97366   2.134  41.842   4.506
28973W        W97367  41.885   6.791   4.728
28974W        W97368   7.957  39.041  12.036
28975W        W97369   0.408  29.923  13.844
28976W        W97370   6.367  37.809   4.285
28977W        W97371   7.649  22.148   0.800
28978W        W97372  37.306  25.142  14.825
28979W        W97373  37.860   2.375   4.706
28980W        W97374  18.643  16.852   0.838
28981W        W97375  34.102  39.022   4.612
28982W        W97376  40.452   5.135   4.110
28983W        W97377  16.028   3.126   2.517
28984W        W97378  14.636  24.534   4.694
28985W        W97379  38.887   3.537   3.339
28986W        W97380  16.667  39.873  12.544
28987W        W97381  35.441  38.659  12.904
28988W        W97382  43.610  21.241  13.359
28989W        W97383  29.787  31.340  11.643
28990W        W97384  22.760  30.563   3.173
28991W        W97385   7.850   3.062  14.373
28992W        W97386  41.475  30.201   1.278
28993W        W97387  43.646  35.497   4.983
28994W        W97388  35.168  41.877  12.415
28995W        W97389  25.271  40.559   2.817
28996W        W97390  40.567   4.063   0.604
28997W        W97391  17.218  35.326  11.647
28998W        W97392   2.984   3.786   3.062
28999W        W97393  25.373  42.009  10.832
29000W        W97394  15.085  40.625  12.968
29001W        W97395  30.839  44.974   2.646
29002W        W97396   4.901  44.369   2.210
29003W        W97397  40.541  37.885   3.610
29004W        W97398  34.644   7.999   3.623
29005W        W97399  17.944  33.059  12.370
29006W        W97400  21.579  12.530   4.719
29007W        W97401  27.946  38.054  12.391
29008W        W97402  11.505  41.272  10.345
29009W        W97403  37.000  26.995   1.428
29010W        W97404  41.776   4.890   4.629
29011W        W97405  11.577  24.301   3.088
29012W        W97406  40.744  28.435   2.255
29013W        W97407   2.962  25.201   0.872
29014W        W97408   7.528  38.525  12.830
29015W        W97409   8.480  28.608   0.875
29016W        W97410  43.511  14.321   2.696
29017W        W97411  19.046   3.530  13.404
29018W        W97412  28.953  30.983  11.601
29019W        W97413  22.829  12.691   1.820
29020W        W97414   4.343  24.231   9.942
29021W        W97415   0.554  38.974  12.071
29022W        W97416  38.774  41.904   0.790
29023W        W97417   0.969  31.565   2.206
29024W        W97418  13.079   9.454   4.620
29025W        W97419  36.002   0.761  12.933
29026W        W97420  26.009  36.328   2.366
29027W        W97421   1.976  22.180   4.566
29028W        W97422  12.131  31.012  10.724
29029W        W97423  34.116  35.439  13.187
29030W        W97424  12.679   4.297  13.928
29031W        W97425  38.953  22.091  11.319
29032W        W97426  35.439  39.463   4.300
29033W        W97427   6.230  19.386   4.132
29034W        W97428  31.627   2.264   2.713
29035W        W97429   9.163   8.610   0.775
29036W        W97430  15.364  44.744   2.892
29037W        W97431   4.176   3.673  14.909
29038W        W97432  12.809  13.832  13.886
29039W        W97433  36.515  24.690  14.831
29040W        W97434  18.236  10.117  14.176
29041W        W97435  42.377  33.419   3.621
29042W        W97436  19.278  39.874  11.985
29043W        W97437  24.650   0.179  11.076
29044W        W97438  32.068   9.618   2.174
29045W        W97439   2.644   7.716  13.408
29046W        W97440  26.524  17.254   4.635
29047W        W97441  15.194  40.860   2.835
29048W        W97442  26.148   2.109   1.191
29049W        W97443  13.324  29.024   1.201
29050W        W97444  40.371  32.106   1.339
29051W        W97445   2.359  44.897   2.797
29052W        W97446  21.502   3.616   3.434
29053W        W97447  13.383  19.056  13.411
29054W        W97448  29.183   6.391   4.543
29055W        W97449  44.583   2.834   2.854
29056W        W97450  10.572  18.193   0.711
29057W        W97451  24.181  15.747  11.074
29058W        W97452  28.438   1.107  11.414
29059W        W97453  14.599  16.544  14.535
29060W        W97454  43.279  17.279  13.831
29061W        W97455  13.518  21.171   9.909
29062W        W97456  16.054  38.969  11.197
29063W        W97457  13.395  30.469  10.684
29064W        W97458  32.715  10.351   1.247
29065W        W97459  35.996   8.815   4.871
29066W        W97460  26.944  35.324   2.217
29067W        W97461  42.977  16.541   3.746
29068W        W97462  16.339  33.013   2.754
29069W        W97463  32.653  27.717  13.279
29070W        W97464  28.124  16.770   4.351
29071W        W97465   0.306  38.941  10.178
29072W        W97466  28.387  38.283  14.787
29073W        W97467  27.298  28.320  12.066
29074W        W97468   3.299  13.881   0.610
29075W        W97469  31.135  22.602  10.673
29076W        W97470  16.778  21.577   1.822
29077W        W97471  43.765   6.689  12.982
29078W        W97472   3.004  37.090  14.393
29079W        W97473  23.491   0.841  12.405
29080W        W97474  44.881   8.423  10.279
29081W        W97475  43.000  14.299   3.717
29082W        W97476   8.276  44.024  13.990
29083W        W97477   8.399  35.021  10.334
29084W        W97478  12.918  44.257  12.061
29085W        W97479  11.209  24.660  13.445
29086W        W97480  12.145  22.700   3.090
29087W        W97481   1.410  39.310   1.187
29088W        W97482  38.569  40.474   3.432
29089W        W97483  40.545  41.389   2.328
29090W        W97484  28.438  30.712  11.145
29091W        W97485  30.060  29.408  14.506
29092W        W97486  44.535  41.288  12.423
29093W        W97487  15.260  39.084   0.227
29094W        W97488  28.885   5.025  10.919
29095W        W97489  12.674   2.195   4.362
29096W        W97490  31.396  24.010   0.296
29097W        W97491   8.296  28.509  13.989
29098W        W97492  23.908   4.101   1.868
29099W        W97493  32.685  19.951   2.789
29100W        W97494  33.838   9.494  11.207
29101W        W97495  34.038  44.111   1.168
29102W        W97496   3.004  35.929  12.519
29103W        W97497   5.427  44.829  11.801
29104W        W97498  32.862  35.931  11.968
29105W        W97499  13.071   5.398   2.945
29106W        W97500   9.933  42.979   3.088
29107W        W97501  17.400  15.730  11.063
29108W        W97502   8.923   7.126   0.283
29109W        W97503  22.554   7.526   2.743
29110W        W97504  33.463   0.937   3.283
29111W        W97505  26.458  14.593  14.545
29112W        W97506   8.438  35.919  13.619
29113W        W97507  40.490  12.677   3.217
29114W        W97508  44.740   9.818   3.165
29115W        W97509  32.444  27.195  13.181
29116W        W97510  22.089  37.842   1.310
29117W        W97511  19.861   2.370  10.757
29118W        W97512  35.565  39.923   3.424
29119W        W97513  41.433  43.531  13.127
29120W        W97514  16.218  16.534   3.817
29121W        W97515   3.443  35.627  12.547
29122W        W97516   9.611  35.124   0.258
29123W        W97517  39.527   0.083  11.039
29124W        W97518  25.457   0.071  10.264
29125W        W97519  26.405  41.825  14.931
29126W        W97520  30.603  33.003   3.112
29127W        W97521  37.585   8.901  11.249
29128W        W97522   2.698   6.632   0.949
29129W        W97523  34.155   6.350  14.724
29130W        W97524   2.731   6.208   0.062
29131W        W97525   7.295   9.401  13.887
29132W        W97526  27.908  20.260   2.882
29133W        W97527  21.763  15.061   0.401
29134W        W97528   8.242  38.421   0.773
29135W        W97529  34.288   7.181   2.846
29136W        W97530  31.976  23.279   2.783
29137W        W97531  34.620  43.874  14.874
29138W        W97532  32.038  29.318  14.266
29139W        W97533  19.116  39.852   4.243
29140W        W97534  11.737  23.264   4.160
29141W        W97535  37.248   0.470   1.248
29142W        W97536  12.814  29.763   1.744
29143W        W97537  31.276  28.009   1.641
29144W        W97538  13.618   2.745  14.444
29145W        W97539  17.229  13.248   3.755
29146W        W97540  22.400   1.771  13.547
29147W        W97541  16.518  40.915  14.396
29148W        W97542  30.106  43.538   1.938
29149W        W97543  22.667  20.969  13.310
29150W        W97544   0.491   8.728   3.390
29151W        W97545  33.069  35.383  14.070
29152W        W97546  35.443  32.899   4.637
29153W        W97547  16.672  19.841   2.276
29154W        W97548  35.116   5.369   0.305
29155W        W97549   1.108  21.047  10.340
29156W        W97550  38.459   2.298   1.252
29157W        W97551  32.295  32.015  10.605
29158W        W97552  27.949  16.293  13.925
29159W        W97553  43.832   1.387   4.074
29160W        W97554  15.794  15.203  13.554
29161W        W97555  16.934  27.566  10.376
29162W        W97556  32.911  33.889   3.696
29163W        W97557  43.707  10.345  12.076
29164W        W97558  19.113   3.130   4.603
29165W        W97559  27.856  33.327  12.461
29166W        W97560  14.261  15.085  12.973
29167W        W97561   8.299  41.961   3.099
29168W        W97562  35.665  16.222  12.426
29169W        W97563  39.367  13.660  12.367
29170W        W97564  26.081  34.505  10.479
29171W        W97565   8.823  41.032   1.749
29172W        W97566  10.709  27.546  14.025
29173W        W97567  32.547  37.088  13.252
29174W        W97568   0.315  34.905   2.164
29175W        W97569   0.499   8.860  12.611
29176W        W97570  16.837   6.977   0.471
29177W        W97571  35.101   3.607  10.384
29178W        W97572  38.473   3.749  14.310
29179W        W97573  35.572  18.372  10.616
29180W        W97574  35.071  42.628  11.864
29181W        W97575  31.467  42.174  11.756
29182W        W97576  19.765  37.037  11.039
29183W        W97577  31.386  36.792  11.176
29184W        W97578  35.546   2.260   0.026
29185W        W97579  14.121  31.894   4.925
29186W        W97580  19.572  13.829   1.763
29187W        W97581  31.436  33.994  13.940
29188W        W97582  18.131  34.615   3.710
29189W        W97583  34.994  28.797   1.583
29190W        W97584  31.191  21.123  14.346
29191W        W97585   1.313  37.138  14.847
29192W        W97586  44.481  12.771  13.041
29193W        W97587  20.837  21.270   0.838
29194W        W97588  44.464   6.959   4.042
29195W        W97589   4.851  17.267  13.068
29196W        W97590  33.628   4.788  12.532
29197W        W97591  25.041  43.377   3.159
29198W        W97592  18.705  35.917  12.984
29199W        W97593  19.592  29.648  12.556
29200W        W97594  40.467  25.673   4.683
29201W        W97595  14.372  16.584  11.869
29202W        W97596  16.767  37.608  14.260
29203W        W97597  10.234   5.751  12.422
29204W        W97598  21.750  23.262  11.014
29205W        W97599  25.691  38.211   1.944
29206W        W97600  36.385   1.997   1.922
29207W        W97601  31.622   9.160   0.977
29208W        W97602  42.663  32.159   2.797
29209W        W97603  44.849  12.734   0.121
29210W        W97604  36.306  16.388   2.828
29211W        W97605   5.855  14.286   1.440
29212W        W97606  27.625  25.941   2.503
29213W        W97607  41.491  42.781  10.926
29214W        W97608  39.120  35.475  12.165
29215W        W97609  22.755   6.235   2.311
29216W        W97610  39.880  41.420  11.133
29217W        W97611  34.935  10.842   3.217
29218W        W97612  20.069  13.524  11.170
29219W        W97613  22.859  39.440  11.436
29220W        W97614  12.612  32.549  14.573
29221W        W97615  30.061  21.254  13.441
29222W        W97616   6.738  31.824   2.314
29223W        W97617  31.590  18.105   2.861
29224W        W97618   5.148   4.293   9.830
29225W        W97619  11.643   9.274  13.873
29226W        W97620   9.938   0.489  14.455
29227W        W97621  36.880  32.572  14.245
29228W        W97622  19.847   1.480  13.951
29229W        W97623  13.229  13.178   1.290
29230W        W97624  22.697  25.091   5.000
29231W        W97625  15.288  18.214   9.649
29232W        W97626  29.306   1.781  14.961
29233W        W97627  38.859  35.040   3.600
29234W        W97628  25.421   0.429   1.436
29235W        W97629  38.408  10.318   1.597
29236W        W97630  41.412  14.845  14.315
29237W        W97631   7.366   7.757   3.961
29238W        W97632  32.657  23.753  13.748
29239W        W97633   4.373   4.868   1.792
29240W        W97634   7.170  25.669   2.896
29241W        W97635  18.516  25.634   2.345
29242W        W97636  44.717   5.725   1.678
29243W        W97637  21.296  31.089  14.966
29244W        W97638  24.246  44.377   2.415
29245W        W97639  35.618  33.184  12.767
29246W        W97640  22.528  14.862   3.120
29247W        W97641   5.525  32.156   5.351
29248W        W97642  29.851  17.864  11.031
29249W        W97643  14.680  16.566  14.023
29250W        W97644   9.301  19.838  12.848
29251W        W97645  38.737  13.419  14.475
29252W        W97646  33.851  27.524   2.294
29253W        W97647  25.564  30.727   0.358
29254W        W97648   2.433  24.226  11.548
29255W        W97649   8.247   3.157   4.659
29256W        W97650   8.347  26.434  12.538
29257W        W97651  41.538  28.439  11.914
29258W        W97652  19.530  25.045  10.773
29259W        W97653  27.432  15.162  13.922
29260W        W97654  18.148  23.133   4.129
29261W        W97655  27.201  27.207  10.815
29262W        W97656  31.423  18.544  14.752
29263W        W97657  27.196  18.752   2.750
29264W        W97658  11.740  20.350  14.998
29265W        W97659  18.632  33.009  11.753
29266W        W97660  29.402   7.115   1.867
29267W        W97661  36.411  37.271   1.090
29268W        W97662  43.859  33.471  14.880
29269W        W97663  13.224   7.155  14.741
29270W        W97664  18.320   9.566   0.478
29271W        W97665   2.230  25.428   0.363
29272W        W97666   1.217   2.997   2.453
29273W        W97667  44.468  43.536   4.646
29274W        W97668   7.640  16.355  11.200
29275W        W97669  41.470  28.010   4.635
29276W        W97670   4.266  13.747   3.037
29277W        W97671  40.419   3.436   1.743
29278W        W97672  21.019  14.543  10.635
29279W        W97673   9.448  32.895   4.075
29280W        W97674   6.747  43.845   4.596
29281W        W97675  37.786  43.441   1.126
29282W        W97676  24.632  11.908  10.910
29283W        W97677  35.614  36.153  13.003
29284W        W97678   9.903  27.002  11.544
29285W        W97679   3.666   2.283  11.981
29286W        W97680  38.063   1.995  14.303
29287W        W97681  23.037  28.053  10.131
29288W        W97682  22.152  23.546   0.007
29289W        W97683  43.917  24.227  11.583
29290W        W97684   8.243  21.845  13.830
29291W        W97685  11.830   5.948   4.865
29292W        W97686  21.436  28.841   4.986
29293W        W97687  26.117  14.498  10.718
29294W        W97688   8.380  43.744   3.559
29295W        W97689  33.915  30.627  14.218
29296W        W97690  36.826  35.926   4.073
29297W        W97691  32.442  10.898   4.353
29298W        W97692  17.586   3.532   3.273
29299W        W97693  25.274  43.849  14.506
29300W        W97694   5.180  29.209   1.408
29301W        W97695  28.295  18.874  11.144
29302W        W97696   8.467   7.520  13.044
29303W        W97697   4.201  31.012  10.849
29304W        W97698  24.031   4.904  14.712
29305W        W97699  25.502   8.241   0.017
29306W        W97700   7.038  15.850   2.727
29307W        W97701  21.202  28.397   2.184
29308W        W97702  29.916  39.865   3.157
29309W        W97703  43.840  23.097   1.631
29310W        W97704  25.118  25.107  14.998
29311W        W97705   7.116  20.224  12.677
29312W        W97706  31.324  17.748   0.832
29313W        W97707   3.496  41.177  13.277
29314W        W97708  26.893  13.711   3.355
29315W        W97709  41.258  16.289  11.969
29316W        W97710   4.518  11.707   5.005
29317W        W97711   1.715  25.986   1.728
29318W        W97712   6.954  30.136   1.599
29319W        W97713  28.654  38.361   3.159
29320W        W97714  43.808  26.629   4.173
29321W        W97715   6.261  15.930  13.232
29322W        W97716  21.963  40.467   0.328
29323W        W97717  20.484   4.100   0.482
29324W        W97718  17.642  10.288  14.180
29325W        W97719  13.642   0.451   4.582
29326W        W97720  11.924  23.087   3.720
29327W        W97721  19.000   6.674  12.833
29328W        W97722  39.629  32.833   0.222
29329W        W97723  43.453  29.268   0.845
29330W        W97724  43.759  39.813  13.977
29331W        W97725  42.727  42.496  11.269
29332W        W97726  31.815  31.137  13.179
29333W        W97727   1.685  21.540  13.447
29334W        W97728  29.978  10.946   2.408
29335W        W97729  17.534   5.884   0.835
29336W        W97730  20.707  21.806   2.967
29337W        W97731   2.432  20.355   1.414
29338W        W97732   1.766  17.562   3.054
29339W        W97733  23.572  34.863  11.798
29340W        W97734  23.953  25.356  10.709
29341W        W97735  22.654  34.827  10.710
29342W        W97736   8.988  23.598  11.130
29343W        W97737  32.091  23.004   0.489
29344W        W97738   5.274   3.499   4.035
29345W        W97739  15.056  23.781  11.660
29346W        W97740   7.256  11.355  13.854
29347W        W97741  39.179  37.981   0.829
29348W        W97742   6.009  42.760   0.899
29349W        W97743  18.590  16.846  12.540
29350W        W97744  30.210  30.136  12.622
29351W        W97745  33.956  42.878   2.746
29352W        W97746  25.152  18.566  13.941
29353W        W97747  26.870  28.995   0.650
29354W        W97748  20.508  11.255  12.084
29355W        W97749   8.387  22.620   4.098
29356W        W97750   9.227  19.321  13.021
29357W        W97751  17.033  34.593   1.347
29358W        W97752  29.637   3.234  12.423
29359W        W97753  41.943  26.430   0.873
29360W        W97754  32.128   9.895   0.972
29361W        W97755  44.512  23.743  11.957
29362W        W97756   8.918  12.543  13.368
29363W        W97757  34.461  30.710  13.056
29364W        W97758  12.958  25.604  11.154
29365W        W97759  21.287  13.998   3.289
29366W        W97760  24.261  33.530  14.297
29367W        W97761  12.997  27.041   4.156
29368W        W97762  37.481  22.205  11.168
29369W        W97763  38.322   6.890  13.096
29370W        W97764   0.969  29.602   2.712
29371W        W97765   3.803  41.042  14.979
29372W        W97766  29.815   4.440  11.170
29373W        W97767   1.508  25.182  11.118
29374W        W97768  26.794  22.523  11.114
29375W        W97769  28.903  17.000   4.116
29376W        W97770   8.932  32.188   2.815
29377W        W97771  17.188  19.095   0.799
29378W        W97772  40.783  15.329  12.972
29379W        W97773  12.341  24.650   2.674
29380W        W97774  32.156  20.571  12.047
29381W        W97775   3.432  18.497   4.998
29382W        W97776   8.815  22.610  10.958
29383W        W97777  10.692  38.477   0.795
29384W        W97778  17.679  36.028   9.754
29385W        W97779   7.704   5.874  13.662
29386W        W97780   2.532  37.029   3.666
29387W        W97781  21.251  34.711   4.998
29388W        W97782  32.469  21.350  11.561
29389W        W97783  11.053  35.287   1.458
29390W        W97784   5.731  26.267   0.930
29391W        W97785  35.644  33.463  13.319
29392W        W97786  42.340  19.143   1.746
29393W        W97787  32.047  12.532   1.224
29394W        W97788   3.219  19.340  11.650
29395W        W97789   3.703  12.728   1.137
29396W        W97790  13.028  37.092   3.588
29397W        W97791  19.750  11.934   0.424
29398W        W97792  23.669  26.950  11.715
29399W        W97793   2.535  12.546  14.868
29400W        W97794  44.249  38.134  11.592
29401W        W97795  33.459  19.672  14.769
29402W        W97796  27.206  14.867  11.705
29403W        W97797   6.731  38.314  14.822
29404W        W97798   9.797  26.613  14.720
29405W        W97799  33.726  10.859   0.802
29406W        W97800  32.498  42.295   0.397
29407W        W97801  30.036   8.725  11.162
29408W        W97802   8.886   9.983  14.512
29409W        W97803   3.585  36.115  12.618
29410W        W97804   8.161   5.486   1.802
29411W        W97805   3.519  20.784   3.618
29412W        W97806  41.957   3.494  10.746
29413W        W97807  36.674  44.103   3.232
29414W        W97808  31.338  28.907   4.671
29415W        W97809  38.342  34.317   4.618
29416W        W97810  13.693  43.964  13.163
29417W        W97811  44.663  17.160   1.856
29418W        W97812  14.096  16.595   2.122
29419W        W97813  26.615  42.841   1.889
29420W        W97814  10.795   6.753   0.868
29421W        W97815  30.768   2.676   2.676
29422W        W97816   7.283  29.359   2.842
29423W        W97817  18.527  29.534  13.935
29424W        W97818   0.200  28.399  14.933
29425W        W97819   2.946   4.298  14.701
29426W        W97820  42.958  23.705  12.475
29427W        W97821  39.432  32.104   3.278
29428W        W97822  16.044  10.695   2.821
29429W        W97823  16.030   6.205  14.426
29430W        W97824  31.565  27.456   0.117
29431W        W97825  18.813  21.184   1.045
29432W        W97826  23.436  27.314  11.049
29433W        W97827  18.533  44.154  12.574
29434W        W97828  40.262   8.853   5.199
29435W        W97829  34.601   9.725   2.310
29436W        W97830  41.759   6.278   1.325
29437W        W97831  44.481   3.255  12.942
29438W        W97832  21.257  25.060   1.258
29439W        W97833  37.405  16.057   2.195
29440W        W97834   0.381  43.271  12.580
29441W        W97835  31.671  41.795   2.235
29442W        W97836  44.002  44.436   2.388
29443W        W97837  42.667  29.402  14.669
29444W        W97838  37.441  28.624   4.374
29445W        W97839  10.287  24.831  11.647
29446W        W97840  23.063   8.839  10.602
29447W        W97841  24.533  33.003  10.662
29448W        W97842  41.535   4.236   4.124
29449W        W97843  22.251  41.901  14.353
29450W        W97844  36.015  29.589  10.837
29451W        W97845  39.494   1.436  14.264
29452W        W97846  35.048  29.641  12.077
29453W        W97847  39.797  37.967   2.928
29454W        W97848  21.510   4.745  14.250
29455W        W97849  36.173  26.479  14.861
29456W        W97850  34.344   1.208   1.260
29457W        W97851  23.951  30.478   0.536
29458W        W97852  24.563  33.950  10.700
29459W        W97853  39.042  28.638   0.060
29460W        W97854  16.388   7.267   0.493
29461W        W97855  27.203  44.442  11.142
29462W        W97856  28.632   6.403   4.524
29463W        W97857   9.420  25.107  12.316
29464W        W97858  43.839  15.761  12.350
29465W        W97859  14.238  23.611  10.607
29466W        W97860  35.113   7.597   1.889
29467W        W97861  41.837   7.094  11.125
29468W        W97862   5.829  19.204   0.363
29469W        W97863  40.380  20.225  13.281
29470W        W97864  29.664  43.475   3.335
29471W        W97865  22.024  31.253  11.252
29472W        W97866  33.830   7.336  13.339
29473W        W97867  14.537  36.369   2.733
29474W        W97868  23.484   4.420   3.965
29475W        W97869  35.837   3.399  11.377
29476W        W97870  24.926   6.686   2.662
29477W        W97871  30.854  27.918  13.393
29478W        W97872  37.130   6.803  12.454
29479W        W97873  28.969   9.538   3.029
29480W        W97874  20.991  42.317  14.251
29481W        W97875  29.116  36.407   3.068
29482W        W97876  11.474  37.539  12.004
29483W        W97877  28.478  27.527  10.944
29484W        W97878   0.065  36.184  12.067
29485W        W97879  29.805  35.465   4.766
29486W        W97880  22.766  12.342   2.613
29487W        W97881   3.602  17.187   4.179
29488W        W97882  44.478   6.325   0.045
29489W        W97883  20.450  41.921   2.289
29490W        W97884  12.312  37.591  11.762
29491W        W97885   3.209  21.727  10.439
29492W        W97886  11.135  41.949  11.998
29493W        W97887  35.556  24.372  12.448
29494W        W97888  29.678  31.976  13.985
29495W        W97889  15.140  19.422  14.725
29496W        W97890   5.740   5.447   0.882
29497W        W97891  24.468   6.144  11.027
29498W        W97892  31.467  26.072   3.773
29499W        W97893  32.185  30.494   1.904
29500W        W97894  35.853   5.782  14.683
29501W        W97895  30.607  14.324  12.089
29502W        W97896  33.093  44.545   0.403
29503W        W97897   6.962  34.450   4.895
29504W        W97898  24.728  21.554   0.885
29505W        W97899  16.983  27.995   3.219
29506W        W97900   9.660  27.855  12.990
29507W        W97901   5.055  10.239  10.619
29508W        W97902  20.192  17.088   0.540
29509W        W97903  35.924  27.914  12.973
29510W        W97904  25.210  13.407   5.102
29511W        W97905  31.007  32.638   0.376
29512W        W97906  22.924  31.635   2.780
29513W        W97907  32.636  30.827   4.084
29514W        W97908  44.186  25.067   2.844
29515W        W97909  31.085  17.972   4.980
29516W        W97910   5.598  11.623  12.658
29517W        W97911   6.624  15.589   3.180
29518W        W97912   0.030  21.122  11.081
29519W        W97913  24.453  20.713   1.997
29520W        W97914   7.897  44.721  10.960
29521W        W97915   3.424  41.501  10.730
29522W        W97916  31.598  35.680   2.392
29523W        W97917   2.430  24.631  14.964
29524W        W97918  19.325  38.032  11.153
29525W        W97919  24.979  34.624   4.136
29526W        W97920   2.016   2.779   2.862
29527W        W97921  26.644  27.015   0.494
29528W        W97922  38.835  39.994  12.117
29529W        W97923  22.942   2.437  12.836
29530W        W97924   0.265  22.765   1.257
29531W        W97925  16.187  40.122  13.026
29532W        W97926  42.786  21.951   2.371
29533W        W97927   2.880   6.394   1.803
29534W        W97928  28.532   3.154  11.889
29535W        W97929  15.302   9.898   2.709
29536W        W97930  39.554  30.864  14.827
29537W        W97931  25.228  43.362  10.806
29538W        W97932  21.479  36.082   4.102
29539W        W97933  35.599   3.835   1.246
29540W        W97934  15.109  40.033  11.164
29541W        W97935  15.048   0.934   0.691
29542W        W97936   8.386  13.721  12.050
29543W        W97937   7.658   6.686   5.140
29544W        W97938  40.846  26.263   0.016
29545W        W97939  33.576  20.101  12.867
29546W        W97940   9.337   9.602   3.812
29547W        W97941  21.621  43.458   3.554
29548W        W97942   1.320  38.290   1.287
29549W        W97943  12.766  37.046   2.606
29550W        W97944  31.197  12.233   0.408
29551W        W97945  25.092  35.991  12.623
29552W        W97946  27.478   0.889   2.748
29553W        W97947  19.145  35.605  10.528
29554W        W97948   8.246   1.260   1.307
29555W        W97949  36.241  31.982  14.098
29556W        W97950   1.702  20.447  13.212
29557W        W97951  24.030  12.304   1.210
29558W        W97952  42.871  32.121   4.673
29559W        W97953  15.475  41.322   1.379
29560W        W97954   9.830   4.938   0.664
29561W        W97955  26.788  28.903   4.756
29562W        W97956   3.868   4.073   0.149
29563W        W97957  36.444  31.450   1.218
29564W        W97958  15.811  39.939  14.031
29565W        W97959  24.498  25.017   2.901
29566W        W97960   2.871  23.065   4.330
29567W        W97961  40.400  38.305  14.024
29568W        W97962  10.378  24.250   4.580
29569W        W97963  10.973  33.052   3.747
29570W        W97964   7.755  28.891   1.838
29571W        W97965  34.440  40.124  14.879
29572W        W97966  21.637  36.509  11.561
29573W        W97967  14.151   4.515   4.536
29574W        W97968  43.143  30.597  12.073
29575W        W97969   3.762  29.445  11.190
29576W        W97970  37.303  13.259   1.248
29577W        W97971   7.960  22.035   2.957
29578W        W97972  23.594  43.334   0.428
29579W        W97973  28.427   2.867   5.002
29580W        W97974  44.026  35.895   3.679
29581W        W97975   8.276  31.934   3.266
29582W        W97976  15.314  10.572  12.049
29583W        W97977  26.205  11.284  13.436
29584W        W97978   8.671  22.597  13.353
29585W        W97979  28.105  16.329  12.462
29586W        W97980   5.697  38.878  14.841
29587W        W97981  38.614  32.021   5.099
29588W        W97982  15.844  39.881   0.977
29589W        W97983  10.914   6.594   0.357
29590W        W97984  19.304  30.957  14.400
29591W        W97985   9.703   7.229  14.803
29592W        W97986  42.813  31.494   2.118
29593W        W97987   8.470  25.943  12.580
29594W        W97988  11.864   9.776  13.804
29595W        W97989  17.577  39.342   0.247
29596W        W97990  31.374  21.727  10.902
29597W        W97991  37.171  41.459   2.192
29598W        W97992  36.672  41.688  12.008
29599W        W97993  38.466  25.624  11.254
29600W        W97994  34.653  11.392  11.750
29601W        W97995  18.902   3.318   4.149
29602W        W97996  44.110  29.801  12.512
29603W        W97997  15.451  44.408   3.798
29604W        W97998  11.821   9.612   1.986
29605W        W97999  37.130   7.719  12.594
29606W        W98000  15.541  15.304  10.557
29607W        W98001  24.369  35.833  11.365
29608W        W98002  14.817  36.496  10.898
29609W        W98003  40.338  38.596  13.441
29610W        W98004   8.828   4.615   0.890
29611W        W98005  39.042  21.029   3.825
29612W        W98006  10.070  38.881   0.264
29613W        W98007  40.368  21.142   0.629
29614W        W98008   8.290  35.304   3.643
29615W        W98009  26.429  38.442   4.523
29616W        W98010   7.874  25.034  12.916
29617W        W98011   1.343  23.147   2.425
29618W        W98012  22.261  31.065  13.904
29619W        W98013  17.929  44.287   0.699
29620W        W98014  12.189   1.886   0.627
29621W        W98015  40.828   4.499  10.799
29622W        W98016   3.773   6.785   1.697
29623W        W98017  23.515  20.603   3.493
29624W        W98018  18.500   1.180   0.365
29625W        W98019  37.035  39.377  13.300
29626W        W98020  23.942   3.243   0.308
29627W        W98021  13.108  10.334  13.534
29628W        W98022   4.368  41.933   4.213
29629W        W98023  35.114  14.659  13.472
29630W        W98024  23.273  24.527   4.967
29631W        W98025  24.926  29.774   4.046
29632W        W98026  31.334  27.602  13.519
29633W        W98027  32.431  19.757  13.767
29634W        W98028  15.070  28.055   4.212
29635W        W98029  35.964   7.926   4.568
29636W        W98030  40.414  33.654   1.070
29637W        W98031  30.557  32.077  12.878
29638W        W98032  31.105  22.558   1.508
29639W        W98033  11.103  12.507   1.450
29640W        W98034  15.118  25.206  10.644
29641W        W98035  26.423  11.249   1.752
29642W        W98036   6.764  35.705  10.877
29643W        W98037  12.165  23.527  10.580
29644W        W98038  18.974  29.568  11.496
29645W        W98039  24.724  17.700   0.431
29646W        W98040  43.818   3.773   3.997
29647W        W98041  42.483  29.300  14.187
29648W        W98042  30.971  36.283   3.869
29649W        W98043  19.070  43.508  14.343
29650W        W98044  39.591   6.423   2.147
29651W        W98045  42.982  18.544   1.093
29652W        W98046  29.668  13.069  12.939
29653W        W98047   1.652  37.007  11.737
29654W        W98048  37.955  22.148   2.251
29655W        W98049  28.733  21.419   4.578
29656W        W98050  20.256  15.087   2.883
29657W        W98051   1.966  16.662  11.474
29658W        W98052   1.701   2.462   0.805
29659W        W98053  17.891  21.569  14.485
29660W        W98054  37.829  26.897   4.156
29661W        W98055  39.107   1.445  12.825
29662W        W98056  32.407   4.656   2.753
29663W        W98057   6.129   4.300  14.476
29664W        W98058  34.879  43.219   0.815
29665W        W98059  40.424   9.757   2.396
29666W        W98060  12.370  44.699   1.454
29667W        W98061  21.435  18.504  14.511
29668W        W98062  35.233  34.506  12.517
29669W        W98063  36.752   7.414  13.442
29670W        W98064  39.133  38.674   4.698
29671W        W98065   9.652   0.696  10.697
29672W        W98066  24.361  26.162   0.621
29673W        W98067  26.673   7.236  10.562
29674W        W98068  37.861  10.199  14.591
29675W        W98069  20.528  37.747   1.273
29676W        W98070  17.675  20.014   1.902
29677W        W98071  27.004   9.874  14.476
29678W        W98072   7.428   4.279   3.858
29679W        W98073  15.693   5.528   4.141
29680W        W98074  23.867  25.612   3.279
29681W        W98075  33.680   3.661   5.069
29682W        W98076  31.905  30.944   1.829
29683W        W98077  23.983  14.422  11.490
29684W        W98078  43.963  37.730   2.213
29685W        W98079   1.901  10.826  10.395
29686W        W98080  38.891  36.038   1.200
29687W        W98081   7.761  22.095   2.487
29688W        W98082   1.844  32.849  10.751
29689W        W98083  24.077   9.974  14.144
29690W        W98084  15.170  24.004   3.072
29691W        W98085   2.210  29.559   3.307
29692W        W98086  35.563  36.940  14.058
29693W        W98087   8.080   6.319  10.678
29694W        W98088  25.654  37.309   3.611
29695W        W98089  13.578   9.097   0.051
29696W        W98090  28.564   2.188  12.054
29697W        W98091  42.914  30.011   1.550
29698W        W98092   5.491  18.476   2.260
29699W        W98093  36.111  20.512  14.735
29700W        W98094   2.279   0.093   4.204
29701W        W98095   5.642  10.229   2.129
29702W        W98096  37.495  33.675   2.881
29703W        W98097  33.999   6.878  13.999
29704W        W98098  23.542  41.507   3.788
29705W        W98099  20.989  22.393   2.684
29706W        W98100  42.976  13.801   3.878
29707W        W98101  15.243  35.781  13.136
29708W        W98102  13.488  19.755   0.615
29709W        W98103  24.535   3.433  13.731
29710W        W98104  29.184   7.711  14.745
29711W        W98105   4.415   1.530   0.292
29712W        W98106   5.268  14.906   3.127
29713W        W98107   1.752  41.491   0.506
29714W        W98108  20.015   8.679  10.759
29715W        W98109   3.724  19.551   3.658
29716W        W98110  10.325  43.361   4.207
29717W        W98111  39.305   3.502  10.398
29718W        W98112   1.074  27.490   4.165
29719W        W98113  27.165  36.254  12.966
29720W        W98114  28.042  33.670   2.880
29721W        W98115  32.372  42.617  11.493
29722W        W98116  20.331  31.483  12.094
29723W        W98117  30.553  25.795  14.661
29724W        W98118   4.385  17.041  12.330
29725W        W98119  31.793  10.830   2.750
29726W        W98120  12.210  19.516   4.739
29727W        W98121  41.899  18.261  11.408
29728W        W98122  25.042   1.223  12.066
29729W        W98123  38.573  26.512  11.295
29730W        W98124   1.395  11.896  13.772
29731W        W98125  23.765   4.071  13.923
29732W        W98126  32.468  18.102  11.174
29733W        W98127  33.501  27.469   1.871
29734W        W98128   1.348  38.804   1.236
29735W        W98129   8.864  43.393  13.125
29736W        W98130  15.834  37.909   0.248
29737W        W98131  10.214  36.071   1.487
29738W        W98132  19.015  35.037   1.316
29739W        W98133  10.654  36.995   1.750
29740W        W98134  30.461  35.101  11.713
29741W        W98135  41.251  27.650   1.154
29742W        W98136  43.323  34.486   1.382
29743W        W98137  28.530  44.359  13.401
29744W        W98138   3.305   2.556  14.636
29745W        W98139  22.814  34.524  13.776
29746W        W98140  26.482  31.155   0.428
29747W        W98141   9.769  20.094   3.128
29748W        W98142  21.263  28.914  14.060
29749W        W98143  22.116  21.990  11.093
29750W        W98144  12.880  26.757  10.689
29751W        W98145  37.028   3.363   3.884
29752W        W98146  34.794  36.873  11.976
29753W        W98147  34.579  28.583   4.578
29754W        W98148  20.096  28.650  11.184
29755W        W98149  39.409  38.456  13.468
29756W        W98150  18.287  20.084  12.434
29757W        W98151  34.257  20.662   0.759
29758W        W98152   9.360  38.256  12.941
29759W        W98153   2.504  28.187  12.234
29760W        W98154   6.088  10.310  10.769
29761W        W98155   5.603  22.636  14.890
29762W        W98156  10.572  16.472  14.269
29763W        W98157  25.510  39.513   0.949
29764W        W98158  38.583  43.553  10.306
29765W        W98159  40.704  32.970   2.375
29766W        W98160  39.863   6.794   4.579
29767W        W98161   6.693  23.516  13.517
29768W        W98162  39.192  28.482   2.181
29769W        W98163   0.974  33.177   4.853
29770W        W98164  39.201  43.878   0.901
29771W        W98165   6.530  15.438   0.306
29772W        W98166  11.799  38.153   4.180
29773W        W98167  24.639  36.979   1.156
29774W        W98168  18.192  24.604   0.778
29775W        W98169  28.472  35.952   3.166
29776W        W98170  11.250  27.085   4.604
29777W        W98171  23.223   1.734  13.237
29778W        W98172  31.113  41.068  11.149
29779W        W98173   7.525  35.127  13.913
29780W        W98174   1.002  20.196   0.276
29781W        W98175  36.699  11.609   1.443
29782W        W98176  23.080  11.920  12.995
29783W        W98177  22.438  35.374   4.798
29784W        W98178  13.306   4.998  12.041
29785W        W98179  36.339  35.364   0.791
29786W        W98180  33.088  23.992   3.108
29787W        W98181  33.081   0.398   4.505
29788W        W98182  43.327   7.006  12.156
29789W        W98183  29.526   1.890  12.330
29790W        W98184   9.273  30.559  12.177
29791W        W98185  13.635  16.593   1.854
29792W        W98186  28.188  20.828   3.863
29793W        W98187  30.594  34.375   3.090
29794W        W98188  36.049  10.702   4.848
29795W        W98189  35.903  22.690  10.624
29796W        W98190   9.375  39.596   4.928
29797W        W98191   9.328  30.522   4.847
29798W        W98192   0.466  25.835  14.368
29799W        W98193  37.435  35.075   5.064
29800W        W98194   7.319  22.966   2.790
29801W        W98195  31.148  34.308  13.611
29802W        W98196   4.297  15.306  14.266
29803W        W98197  35.146  11.206   1.486
29804W        W98198  34.451  28.316   2.694
29805W        W98199  10.127  23.146  10.548
29806W        W98200   2.878  25.841   2.183
29807W        W98201   6.532  28.952  14.128
29808W        W98202   1.931   1.370   3.883
29809W        W98203   7.212  17.709   3.431
29810W        W98204  22.484  13.372  14.363
29811W        W98205  35.117  37.741   1.495
29812W        W98206  10.945  41.239   4.082
29813W        W98207  32.129  10.005  13.081
29814W        W98208  39.666  44.245  12.357
29815W        W98209  13.288  19.341   3.717
29816W        W98210  11.296  41.245  12.999
29817W        W98211  32.471  12.672  12.519
29818W        W98212   1.289  27.061   0.343
29819W        W98213  33.419  43.403   4.069
29820W        W98214   3.335   9.300   4.145
29821W        W98215  35.698  44.755   4.144
29822W        W98216  31.018   6.795   4.023
29823W        W98217  13.205  22.665  13.969
29824W        W98218  19.685  24.246   3.765
29825W        W98219  13.764   7.533  13.555
29826W        W98220   3.402   6.230   1.903
29827W        W98221  10.318  33.466  11.645
29828W        W98222  30.124  29.141  12.168
29829W        W98223  31.059  36.696  13.942
29830W        W98224  12.672   7.457  12.159
29831W        W98225  35.374   0.520   2.099
29832W        W98226  12.201   6.877   0.752
29833W        W98227  18.809  27.511  12.425
29834W        W98228  18.689  23.551  10.699
29835W        W98229  20.800  39.773   3.811
29836W        W98230  12.559  43.534   3.063
29837W        W98231  27.871  14.352   0.338
29838W        W98232  32.043  44.656  13.735
29839W        W98233  12.223  42.031   1.965
29840W        W98234  28.623  34.823   1.661
29841W        W98235  21.550  15.010  11.498
29842W        W98236  32.871   8.300   0.853
29843W        W98237  19.278  44.800  14.457
29844W        W98238   7.250  37.999  11.634
29845W        W98239  39.477  35.969   4.654
29846W        W98240  38.025  26.578  11.369
29847W        W98241  20.262  41.837  14.874
29848W        W98242  39.976  29.440  11.915
29849W        W98243   1.963  18.267  11.838
29850W        W98244  14.678   5.209  11.978
29851W        W98245   8.485  31.830   2.345
29852W        W98246  15.251   5.164   1.206
29853W        W98247  35.032  14.105   1.298
29854W        W98248  42.281  15.693  14.322
29855W        W98249   3.248  19.193   0.034
29856W        W98250   7.419   0.260   2.606
29857W        W98251  21.644  41.423   1.512
29858W        W98252  18.557  24.478  11.591
29859W        W98253   9.175   4.138   4.855
29860W        W98254  21.104   7.690   0.332
29861W        W98255   9.797  19.653   2.217
29862W        W98256  26.222  12.265  11.012
29863W        W98257  30.777  24.921  10.985
29864W        W98258  27.641  25.547   4.601
29865W        W98259  29.981  31.898   3.203
29866W        W98260   0.766  44.422  10.370
29867W        W98261   9.358  20.600  10.988
29868W        W98262  17.278  25.078  11.137
29869W        W98263  11.589  23.613   4.506
29870W        W98264  18.874  39.563   1.334
29871W        W98265  12.067  14.131   0.959
29872W        W98266  31.175  13.572  13.099
29873W        W98267  44.552  25.814   4.205
29874W        W98268  38.546  17.083  10.710
29875W        W98269  36.771  11.541  13.988
29876W        W98270  25.160  42.936  13.909
29877W        W98271  43.566  40.539  12.141
29878W        W98272  35.109  42.543  11.055
29879W        W98273  33.232   5.687  11.043
29880W        W98274  18.056  34.609   4.541
29881W        W98275  15.643   5.965   0.372
29882W        W98276  32.520  31.523  12.623
29883W        W98277  19.704   7.891  11.930
29884W        W98278  10.798  34.897   1.761
29885W        W98279  10.853   7.296   3.054
29886W        W98280  34.895  30.094  11.014
29887W        W98281  21.199  24.964  14.726
29888W        W98282  43.441  15.027  14.575
29889W        W98283  30.692  18.575  11.980
29890W        W98284   9.797   6.345  12.625
29891W        W98285  44.114  23.270   3.170
29892W        W98286  43.313  25.153   2.772
29893W        W98287  43.768  27.679  10.584
29894W        W98288   6.450  19.199  13.526
29895W        W98289  11.233  29.639   4.226
29896W        W98290  13.040   4.475   2.774
29897W        W98291   9.346   2.887   1.239
29898W        W98292  24.013  29.721   3.753
29899W        W98293  24.680  42.471  12.560
29900W        W98294  10.111  15.571   1.252
29901W        W98295  14.248  36.807   2.297
29902W        W98296  14.231   6.154   1.538
29903W        W98297  19.305  36.283   0.720
29904W        W98298  44.985  25.524   4.254
29905W        W98299  15.751  27.988  11.474
29906W        W98300  30.405  37.987   0.911
29907W        W98301  44.543  40.989  13.794
29908W        W98302  35.007  34.130   1.415
29909W        W98303  17.592  21.518  14.949
29910W        W98304  20.943   2.960  14.681
29911W        W98305  29.385  37.269   3.520
29912W        W98306   9.268   1.618   4.927
29913W        W98307  34.938  33.098  11.398
29914W        W98308  19.568  14.623   2.241
29915W        W98309   4.983   5.932  11.694
29916W        W98310  20.256  15.338   5.098
29917W        W98311  21.934   4.493   1.383
29918W        W98312  35.602  19.694  11.160
29919W        W98313  33.399  40.257  10.842
29920W        W98314  20.426  31.225  13.907
29921W        W98315  13.250  38.485  13.450
29922W        W98316  13.622  36.822   0.010
29923W        W98317  29.206  22.743   4.918
29924W        W98318   5.883  16.871   3.332
29925W        W98319  41.978  31.091   4.598
29926W        W98320   7.191  21.811  12.348
29927W        W98321  14.707   5.992  11.451
29928W        W98322   5.903  32.223   3.616
29929W        W98323  34.908  27.401   1.959
29930W        W98324  24.205   8.250  13.333
29931W        W98325  20.697   8.579   3.067
29932W        W98326  21.452  35.764  14.600
29933W        W98327  36.359   1.717   0.975
29934W        W98328  28.470  35.153  14.306
29935W        W98329   3.742  25.068   4.275
29936W        W98330  23.602   5.476   4.667
29937W        W98331  10.696  16.065   0.504
29938W        W98332  15.831  20.300  14.847
29939W        W98333  23.252   3.920   0.532
29940W        W98334  34.731  40.329   2.141
29941W        W98335  26.448   9.357   4.064
29942W        W98336  38.849  43.915  12.430
29943W        W98337  23.075   0.522  12.485
29944W        W98338  10.468  40.751   1.704
29945W        W98339  24.643  42.737  12.051
29946W        W98340   0.321  30.198  14.733
29947W        W98341   1.351  25.439   3.073
29948W        W98342   1.666  14.377   4.015
29949W        W98343  23.056  38.936  14.133
29950W        W98344  34.943  22.455  11.390
29951W        W98345  18.543  16.127   2.809
29952W        W98346   3.194  38.849   1.419
29953W        W98347  25.182   6.236  11.001
29954W        W98348  39.689  36.010  13.905
29955W        W98349  34.496   5.399   1.305
29956W        W98350   5.201  22.351  13.972
29957W        W98351   0.775   3.112  11.273
29958W        W98352   7.936  13.234   1.022
29959W        W98353  20.041  14.147   0.908
29960W        W98354  15.749   0.794   3.237
29961W        W98355  21.586   7.862  11.188
29962W        W98356  29.026  15.100   0.470
29963W        W98357  25.919   9.902   9.860
29964W        W98358   2.461  35.831  12.496
29965W        W98359  20.155  13.169  12.920
29966W        W98360  16.780  33.595  13.064
29967W        W98361  24.151  23.678  14.974
29968W        W98362  32.858  40.444   1.929
29969W        W98363  43.328  17.657  14.802
29970W        W98364   0.877  30.066  11.964
29971W        W98365  31.103   4.782  10.180
29972W        W98366   3.973  40.943  12.060
29973W        W98367  16.747   1.579  13.407
29974W        W98368  31.712   7.988   2.681
29975W        W98369  26.051  10.828  11.833
29976W        W98370  44.700   4.014  11.631
29977W        W98371  38.461  26.535   3.802
29978W        W98372  29.110  22.885  12.617
29979W        W98373   6.829   4.332  14.026
29980W        W98374  43.228  29.744   0.818
29981W        W98375  19.102  14.811  11.149
29982W        W98376  20.531  27.215   3.981
29983W        W98377  13.211   6.751   4.068
29984W        W98378  41.295  35.484   4.607
29985W        W98379  22.122  21.644  11.477
29986W        W98380  30.371  28.382   3.720
29987W        W98381  35.510   5.311  10.586
29988W        W98382  18.091  41.022   4.159
29989W        W98383  28.377  12.266   2.424
29990W        W98384   7.244  30.487   0.708
29991W        W98385   8.151  38.651  14.013
29992W        W98386   5.705  16.775   4.283
29993W        W98387   4.411  12.153   0.269
29994W        W98388  24.630  16.784  14.888
29995W        W98389  18.439  37.714   1.376
29996W        W98390  20.657  10.201   4.133
29997W        W98391  29.814   7.340   0.109
29998W        W98392   8.749  22.758   0.017
29999W        W98393   4.400   2.688   3.875
30000W        W98394  33.338   4.875   2.805
30001W        W98395  15.802   5.484  14.935
30002W        W98396   9.902  18.344  11.697
30003W        W98397   4.155  42.317  14.386
30004W        W98398  32.505  16.236   1.191
30005W        W98399  27.503  24.663  14.241
30006W        W98400  30.052  44.215   3.056
30007W        W98401  37.556  20.350  12.010
30008W        W98402  42.972  27.910   4.172
30009W        W98403  43.280  41.007   3.633
30010W        W98404   2.806  10.580   2.649
30011W        W98405   2.070   0.984  11.048
30012W        W98406   6.383  19.711  12.304
30013W        W98407   6.103  16.660   1.591
30014W        W98408  11.655  34.899  14.060
30015W        W98409  10.844  15.124   3.800
30016W        W98410  18.223  41.727  11.634
30017W        W98411  11.670  32.020  11.039
30018W        W98412   9.558  24.001  13.484
30019W        W98413  19.812   8.325   3.661
30020W        W98414   0.944   6.550   3.241
30021W        W98415   8.733  39.629  11.094
30022W        W98416   7.067  21.790  10.405
30023W        W98417   4.945  18.579  11.915
30024W        W98418  34.618  37.977   0.211
30025W        W98419   7.607  18.446  14.259
30026W        W98420  40.273   1.955  13.094
30027W        W98421  41.906  14.573  10.365
30028W        W98422  18.033  18.176  13.801
30029W        W98423  13.758  11.762  12.652
30030W        W98424   1.778  13.315  12.477
30031W        W98425  30.371  28.472  11.192
30032W        W98426  13.412  33.163   4.196
30033W        W98427  17.487  29.585   5.231
30034W        W98428  32.877  20.722  14.756
30035W        W98429  14.523  30.179  10.452
30036W        W98430  14.837  23.536   1.455
30037W        W98431  34.855  32.579  12.459
30038W        W98432  36.461  24.057  13.982
30039W        W98433  18.088   2.969  12.324
30040W        W98434  12.304  31.610   1.786
30041W        W98435  35.043  41.921   1.302
30042W        W98436   0.850  21.837  12.496
30043W        W98437   5.263  14.651   0.843
30044W        W98438  42.840  44.702  11.258
30045W        W98439  39.340  29.280  10.294
30046W        W98440  35.867  43.088  14.020
30047W        W98441  30.672  24.286   2.355
30048W        W98442   5.197  35.279   1.094
30049W        W98443   9.621   4.465  14.324
30050W        W98444  15.664  13.307   1.179
30051W        W98445  33.878  17.700   0.756
30052W        W98446  41.831  35.865   1.755
30053W        W98447   5.442   4.271   3.577
30054W        W98448  21.969  26.566  10.623
30055W        W98449  36.448  34.066   1.361
30056W        W98450  17.213   7.213   4.938
30057W        W98451  35.092  28.130  14.391
30058W        W98452  10.428  25.165   4.597
30059W        W98453  11.887  10.452  12.279
30060W        W98454   0.283  34.470  14.055
30061W        W98455  20.139  39.456   1.379
30062W        W98456  14.822   8.640  13.540
30063W        W98457  35.091   9.796   0.751
30064W        W98458  13.533  44.313   2.988
30065W        W98459  29.432  21.216  12.475
30066W        W98460  35.469   7.578  12.093
30067W        W98461  24.112  21.522   4.198
30068W        W98462  25.445  24.107  10.330
30069W        W98463  30.626  13.192   0.290
30070W        W98464  43.276  33.974  12.090
30071W        W98465  17.058   9.581  14.990
30072W        W98466  28.362  16.726  12.649
30073W        W98467  40.924  40.011   0.495
30074W        W98468  27.218   0.111   1.405
30075W        W98469   6.326   9.038  13.976
30076W        W98470   7.343   9.342  11.951
30077W        W98471  42.526  44.779  12.533
30078W        W98472  17.869  36.599   0.767
30079W        W98473  20.575  10.839  11.529
30080W        W98474  28.760   2.359   1.302
30081W        W98475  35.174  27.457  14.937
30082W        W98476  21.736  29.142  10.621
30083W        W98477  37.228  22.782   3.176
30084W        W98478  35.140  36.285  11.040
30085W        W98479  20.170  43.692  12.531
30086W        W98480   5.642   2.305   0.413
30087W        W98481  17.470  22.191   4.732
30088W        W98482  17.537  27.612  11.550
30089W        W98483   3.172  41.883   2.407
30090W        W98484  43.307  26.227   4.635
30091W        W98485   1.868  43.973  10.761
30092W        W98486  30.785  41.507   2.511
30093W        W98487  39.753  36.421   1.206
30094W        W98488  17.494   6.361  13.388
30095W        W98489  42.877  13.642   2.205
30096W        W98490  38.288  39.733   2.362
30097W        W98491  39.083  34.158   2.236
30098W        W98492   6.021   3.200   2.600
30099W        W98493  32.528   4.704  14.931
30100W        W98494  16.540  28.672   0.341
30101W        W98495  44.567  18.576  14.092
30102W        W98496   9.358  24.898   4.060
30103W        W98497  23.846  33.100  14.123
30104W        W98498  19.638  25.646   2.405
30105W        W98499   2.844  42.762   4.245
30106W        W98500  17.525   8.102   1.829
30107W        W98501  16.304  42.154   0.832
30108W        W98502  35.609   4.222  13.558
30109W        W98503  31.312  14.930  13.490
30110W        W98504   4.867  28.450   0.742
30111W        W98505  10.847   1.466  14.473
30112W        W98506  43.275  16.122   1.834
30113W        W98507   0.073  20.936  14.344
30114W        W98508  29.033  40.078   2.765
30115W        W98509  19.699   5.978   3.327
30116W        W98510  21.082   8.691   0.506
30117W        W98511  15.107  22.207   2.310
30118W        W98512  15.784   2.347   5.067
30119W        W98513  17.061   2.767  14.686
30120W        W98514   1.600  16.905  11.701
30121W        W98515   0.497   5.198  12.296
30122W        W98516  44.792  43.888   3.821
30123W        W98517   0.052  34.565   0.410
30124W        W98518  24.270  30.585   0.913
30125W        W98519   7.600   4.855   4.007
30126W        W98520  42.422  28.823   2.866
30127W        W98521  26.262  42.957   4.753
30128W        W98522  13.251  12.574   2.892
30129W        W98523  20.732   1.233   1.908
30130W        W98524  30.993   4.248   1.853
30131W        W98525  36.092  43.945  11.450
30132W        W98526  39.245   6.300  14.492
30133W        W98527  17.301  30.502   2.348
30134W        W98528  35.042  24.882  10.245
30135W        W98529  39.898  17.935   2.224
30136W        W98530  17.706  38.757  12.870
30137W        W98531  21.006  34.291   1.722
30138W        W98532  30.194  40.468  12.111
30139W        W98533   2.067  21.204   0.170
30140W        W98534  16.730   4.514  14.769
30141W        W98535   8.552  43.512   3.088
30142W        W98536  31.794  37.438  10.651
30143W        W98537  33.960  22.945   1.385
30144W        W98538   3.308  38.353   1.417
30145W        W98539  14.880  30.396  11.905
30146W        W98540  13.741   6.638   4.112
30147W        W98541  39.030  26.216  14.801
30148W        W98542  23.083   3.284  12.674
30149W        W98543  10.475  19.715   4.757
30150W        W98544  33.910  15.909   3.325
30151W        W98545  35.798  41.244   1.138
30152W        W98546  27.424  17.171   1.025
30153W        W98547  29.156  12.554   0.468
30154W        W98548  15.331  18.539   3.386
30155W        W98549  34.408  22.763  14.756
30156W        W98550  38.016  19.056  11.321
30157W        W98551  34.440  16.339  12.060
30158W        W98552  26.497  29.872   0.920
30159W        W98553  43.244  19.620  13.982
30160W        W98554  43.497  19.234   2.652
30161W        W98555  28.971  33.887   3.241
30162W        W98556  30.854  30.930  14.441
30163W        W98557  17.648   6.728   4.371
30164W        W98558  36.728  13.332  11.525
30165W        W98559  27.474  10.103  13.539
30166W        W98560  17.573  42.024   3.298
30167W        W98561  40.574  15.091  13.384
30168W        W98562   3.994  11.591   5.095
30169W        W98563   9.611  11.133  11.152
30170W        W98564  24.166   8.727  13.566
30171W        W98565  33.215   7.040  11.183
30172W        W98566   0.600  37.928   9.857
30173W        W98567  21.628  43.930  10.642
30174W        W98568  29.487  12.820   0.804
30175W        W98569  42.190  31.416  13.588
30176W        W98570   9.982  30.649   2.345
30177W        W98571  20.197   7.984  12.077
30178W        W98572  32.077  34.429  12.561
30179W        W98573  18.844  22.663  14.943
30180W        W98574  39.374  33.406   3.195
30181W        W98575  24.263  38.469  10.987
30182W        W98576  33.022   8.164   3.282
30183W        W98577   6.212  10.793  11.573
30184W        W98578   6.633   3.900   1.919
30185W        W98579  39.451  13.263  13.160
30186W        W98580  43.092  37.272  12.557
30187W        W98581  31.848  22.726   1.792
30188W        W98582  38.998  35.524   4.989
30189W        W98583  37.423  25.955   0.723
30190W        W98584   5.190  36.134  13.335
30191W        W98585  24.773  36.004   0.847
30192W        W98586  22.990  25.530   0.919
30193W        W98587  23.122  40.881  14.420
30194W        W98588  18.682  15.828  13.569
30195W        W98589  29.841  37.374   3.795
30196W        W98590  36.481  10.901  14.387
30197W        W98591  39.812   6.392   3.820
30198W        W98592  43.490  10.611   2.372
30199W        W98593  21.796  28.090  14.698
30200W        W98594  12.477   6.630   4.528
30201W        W98595  34.072  36.772  14.295
30202W        W98596  10.127   1.394   3.312
30203W        W98597  23.449  44.765   2.661
30204W        W98598  17.318  23.271   3.566
30205W        W98599  15.127  17.058  13.035
30206W        W98600  16.793  17.754  14.032
30207W        W98601  37.338  32.617  11.977
30208W        W98602  35.580  25.782   2.328
30209W        W98603  28.876  35.954   1.241
30210W        W98604   8.486  30.033  11.811
30211W        W98605  42.947  23.096  14.776
30212W        W98606  20.083  12.335  14.540
30213W        W98607  34.877  22.359  10.042
30214W        W98608  18.314   5.300  13.082
30215W        W98609   9.825  32.870  11.251
30216W        W98610  39.299  41.538   0.502
30217W        W98611  42.970  33.979  10.760
30218W        W98612  35.975  15.204  11.288
30219W        W98613  42.527  35.954   1.094
30220W        W98614  38.412   8.685   4.097
30221W        W98615  17.079  16.012   0.999
30222W        W98616  38.538  39.355   3.189
30223W        W98617   3.424  21.094  14.992
30224W        W98618  22.142  20.457  13.473
30225W        W98619  38.776  13.066   2.816
30226W        W98620  21.758  43.482  10.438
30227W        W98621   1.411  14.092   4.928
30228W        W98622  11.391  27.265   2.551
30229W        W98623  26.217   6.199  11.980
30230W        W98624  40.431  24.013   1.151
30231W        W98625  19.459  26.380  10.651
30232W        W98626   9.361  11.676  13.325
30233W        W98627  32.482   4.349  12.804
30234W        W98628  28.909  12.191   2.344
30235W        W98629  12.404  36.385   1.616
30236W        W98630  34.311   2.261   0.195
30237W        W98631  21.860  13.218  13.589
30238W        W98632  12.751   5.683  12.189
30239W        W98633  44.699  33.716  12.223
30240W        W98634  14.595  14.842   3.332
30241W        W98635  42.722  20.299  12.260
30242W        W98636  32.827  35.920   4.102
30243W        W98637  19.789   4.843   2.621
30244W        W98638  26.018  11.465   0.727
30245W        W98639  38.351  38.424  14.732
30246W        W98640  38.503   2.813  13.963
30247W        W98641  41.381  22.175   2.932
30248W        W98642  43.185   3.603   3.709
30249W        W98643  44.288  18.918  12.647
30250W        W98644   6.278  36.509  11.055
30251W        W98645  40.308  42.061   0.911
30252W        W98646   8.910  37.503  13.501
30253W        W98647  14.823  27.749   3.876
30254W        W98648   0.383  31.634  11.177
30255W        W98649  38.012  43.661  11.376
30256W        W98650   4.085  20.034   4.463
30257W        W98651   6.452   2.707  10.530
30258W        W98652  43.065  32.576  11.230
30259W        W98653   6.695  41.239   4.283
30260W        W98654  34.878  20.625  11.651
30261W        W98655   8.098  30.814  12.216
30262W        W98656  38.905   0.784  14.536
30263W        W98657  23.769  24.920   2.248
30264W        W98658   4.297  35.950   2.921
30265W        W98659   7.116  11.132  12.024
30266W        W98660  14.854  32.312   2.316
30267W        W98661  23.257  31.367  13.805
30268W        W98662  44.343  33.532   4.338
30269W        W98663  21.221  38.673  10.404
30270W        W98664   5.729  38.540   0.339
30271W        W98665  30.836  36.863   1.613
30272W        W98666   2.767   8.620  12.882
30273W        W98667  36.472   5.708   0.824
30274W        W98668  22.736  18.681   0.829
30275W        W98669  35.621   4.415  10.718
30276W        W98670  23.327  26.142   2.272
30277W        W98671  17.420  27.547  10.589
30278W        W98672  16.528  27.767   3.198
30279W        W98673  19.390  44.610   1.736
30280W        W98674   7.172   7.142  14.562
30281W        W98675  15.919  33.049   1.934
30282W        W98676   9.844  42.754  12.643
30283W        W98677  15.774  28.364   1.458
30284W        W98678  13.350  44.819   1.375
30285W        W98679  25.445  29.064   4.140
30286W        W98680  25.463  36.958  11.904
30287W        W98681  20.425  36.394  11.114
30288W        W98682  38.501   9.312   4.770
30289W        W98683   3.917  23.050   4.501
30290W        W98684  15.906  43.319   2.217
30291W        W98685  13.173  11.840   2.282
30292W        W98686  15.709  35.737   0.381
30293W        W98687   0.385   2.701   4.127
30294W        W98688  20.200  36.448  14.799
30295W        W98689  29.042  24.900  10.949
30296W        W98690  22.059  20.990  13.487
30297W        W98691  42.753  19.669  12.989
30298W        W98692  24.596  33.070  13.585
30299W        W98693  29.980   4.329   1.949
30300W        W98694  36.999  11.258   4.470
30301W        W98695   6.156   3.421  14.940
30302W        W98696  27.993   7.967   3.321
30303W        W98697  16.509  10.826  11.489
30304W        W98698   5.770  12.656  11.015
30305W        W98699  40.425   1.967   0.782
30306W        W98700  37.593  23.759  13.282
30307W        W98701   1.499   8.840   3.637
30308W        W98702  24.260  11.337  12.087
30309W        W98703   1.831  37.403  12.029
30310W        W98704  31.448  38.474  13.189
30311W        W98705  26.498   7.792  13.065
30312W        W98706  41.899  16.637  14.370
30313W        W98707  25.778  26.229   1.825
30314W        W98708  41.835   4.909  14.475
30315W        W98709  18.644  35.153  11.674
30316W        W98710  42.878  43.268   4.891
30317W        W98711   5.151  10.795  12.856
30318W        W98712  13.029   8.747   3.121
30319W        W98713   7.030  25.667  12.480
30320W        W98714   0.168  35.437  10.525
30321W        W98715   2.390   1.948  10.257
30322W        W98716  40.970  39.460  13.710
30323W        W98717  38.897   5.091  14.365
30324W        W98718  30.167  23.238  11.967
30325W        W98719  35.732  33.105  10.718
30326W        W98720  23.698  10.676  11.492
30327W        W98721  16.154  18.628  13.273
30328W        W98722  31.024   2.169   0.544
30329W        W98723  16.577   0.310   3.729
30330W        W98724  30.047  18.316   0.924
30331W        W98725  33.118  18.214  13.427
30332W        W98726  10.259  25.729   3.245
30333W        W98727  27.434  37.859   3.801
30334W        W98728  25.550  20.539   3.360
30335W        W98729  44.222   2.716   4.943
30336W        W98730  37.208   0.516  13.903
30337W        W98731  28.170   4.364   0.323
30338W        W98732  35.148   5.226  14.053
30339W        W98733  29.428   7.718   0.214
30340W        W98734   2.907   6.088  10.682
30341W        W98735  24.693  10.612   2.314
30342W        W98736  18.523  23.545  11.551
30343W        W98737  22.259   5.811   3.226
30344W        W98738  36.083  17.836  11.185
30345W        W98739  10.146  26.218   3.169
30346W        W98740   2.051   8.561  13.547
30347W        W98741  14.649  39.797  12.039
30348W        W98742  21.641  39.543   4.106
30349W        W98743   1.674  42.074  12.085
30350W        W98744  36.314  34.243  13.410
30351W        W98745  35.293  11.177   4.962
30352W        W98746  33.034  37.765  12.583
30353W        W98747  40.405  32.765   4.655
30354W        W98748   8.345  39.886  14.257
30355W        W98749   9.898  26.049  11.861
30356W        W98750  33.140  23.612   3.469
30357W        W98751  11.183   8.443  14.612
30358W        W98752  43.452   1.685  11.520
30359W        W98753  21.227   1.317   1.786
30360W        W98754   2.477  16.665  11.494
30361W        W98755   3.522   2.480  11.131
30362W        W98756  13.319  12.254   1.746
30363W        W98757  23.764  37.460  14.832
30364W        W98758  30.267   7.984   3.723
30365W        W98759   6.183   1.239  12.466
30366W        W98760  28.155  39.834   3.368
30367W        W98761  21.133  43.263  11.635
30368W        W98762  24.222  44.917  12.083
30369W        W98763  15.518  42.685  12.535
30370W        W98764  40.424   6.473   2.831
30371W        W98765   1.081  36.525   0.894
30372W        W98766  35.978  31.878  11.265
30373W        W98767   1.947  21.840   2.359
30374W        W98768   0.672   1.379  12.889
30375W        W98769  12.121  32.659  14.419
30376W        W98770  37.541  11.822   1.429
30377W        W98771   8.772   3.495  12.333
30378W        W98772  14.703   2.936   1.544
30379W        W98773  10.312  40.870   2.616
30380W        W98774  43.312  39.539   0.864
30381W        W98775  42.292  29.848   0.808
30382W        W98776   5.794  23.151   2.020
30383W        W98777  33.544  15.400  13.875
30384W        W98778  20.911  33.061  14.591
30385W        W98779   4.016  12.628  10.393
30386W        W98780  11.398  29.036   1.062
30387W        W98781   2.465  16.959  10.591
30388W        W98782  14.743  16.270  10.519
30389W        W98783  13.761   7.900  10.935
30390W        W98784  12.142   0.489  12.011
30391W        W98785   3.316  11.463  14.853
30392W        W98786  15.994  22.984   0.928
30393W        W98787  23.980  33.671  12.412
30394W        W98788  18.198   0.052   2.431
30395W        W98789  13.416  16.146  14.921
30396W        W98790  35.418  37.380  11.672
30397W        W98791   1.278   1.752   4.416
30398W        W98792  32.997  21.758   3.616
30399W        W98793  11.796  40.773   0.105
30400W        W98794  41.339  22.768  12.341
30401W        W98795   2.644  25.935  13.034
30402W        W98796  11.322  29.810  12.950
30403W        W98797  27.923  40.055  12.010
30404W        W98798   9.476  22.749   1.057
30405W        W98799   4.081  34.527   4.484
30406W        W98800  22.653  39.844   3.086
30407W        W98801  44.809  22.002  11.552
30408W        W98802  26.119   2.881   5.039
30409W        W98803   7.882  20.977  11.542
30410W        W98804  36.306  43.408   2.661
30411W        W98805   7.076  19.731  11.522
30412W        W98806  34.912  13.234  14.621
30413W        W98807  12.160  28.948   0.336
30414W        W98808  37.648  17.121  13.268
30415W        W98809  24.291  20.314   1.262
30416W        W98810  24.464   2.818   3.366
30417W        W98811   5.826  13.974   0.997
30418W        W98812  33.330  44.895  14.114
30419W        W98813  39.353   7.637   3.661
30420W        W98814  38.129  18.910   1.513
30421W        W98815  32.377   9.234  13.481
30422W        W98816  12.105  24.506  12.066
30423W        W98817  38.383  36.646   2.681
30424W        W98818  10.274  11.765  14.937
30425W        W98819  39.639   9.305   2.267
30426W        W98820  10.712  39.513  13.808
30427W        W98821  17.976  34.071  13.881
30428W        W98822  44.854  38.309  14.925
30429W        W98823  26.423  41.330  12.585
30430W        W98824   7.744  38.556   0.684
30431W        W98825  23.301   2.414   3.787
30432W        W98826   6.255   0.652   2.291
30433W        W98827  12.646  13.326  12.987
30434W        W98828   4.648  36.962  10.622
30435W        W98829  29.055  42.887  11.146
30436W        W98830  34.346  27.164  14.987
30437W        W98831  27.875  14.750  13.302
30438W        W98832  36.519   1.733  12.419
30439W        W98833  18.805  11.967   1.142
30440W        W98834  26.597  35.168   0.240
30441W        W98835  35.094  36.789   4.738
30442W        W98836   2.441  31.591   3.194
30443W        W98837  12.635   5.726  14.084
30444W        W98838  12.566  12.338  14.797
30445W        W98839   0.296  40.841  10.851
30446W        W98840  31.526  14.786  10.751
30447W        W98841  41.121  14.269   0.727
30448W        W98842  15.120  19.555   1.252
30449W        W98843  42.153  24.489  12.049
30450W        W98844  31.457  43.875  12.096
30451W        W98845  12.935  43.574   0.178
30452W        W98846  31.818  35.556  11.687
30453W        W98847   4.079  29.974  12.092
30454W        W98848  13.205  33.563   3.929
30455W        W98849  18.680  40.564   1.386
30456W        W98850  36.987  37.905   0.702
30457W        W98851  38.984  24.688   3.642
30458W        W98852  34.566  38.020  10.708
30459W        W98853   4.695  41.111  14.904
30460W        W98854  22.683  42.590  12.446
30461W        W98855  29.916  33.063  10.749
30462W        W98856  20.021  34.870  10.495
30463W        W98857  16.667   9.423  12.028
30464W        W98858  21.344  23.693  12.407
30465W        W98859   7.089  41.509  10.702
30466W        W98860  27.248  11.765  12.783
30467W        W98861   9.774  11.890   2.005
30468W        W98862   7.262  31.489  11.154
30469W        W98863  39.287  42.440  12.931
30470W        W98864   9.207  28.765   3.484
30471W        W98865  10.363   4.924  13.855
30472W        W98866  12.652   4.425  11.473
30473W        W98867  27.389  28.011  14.845
30474W        W98868  36.585  26.169  13.831
30475W        W98869  35.363  29.299   2.462
30476W        W98870  15.244  26.909   2.358
30477W        W98871  32.675  31.715  10.764
30478W        W98872  30.911  11.123  12.618
30479W        W98873  12.202  26.505  13.413
30480W        W98874   1.282  35.520  10.679
30481W        W98875  14.697  23.464  10.431
30482W        W98876   7.642  27.361   2.419
30483W        W98877  30.127   4.314  14.973
30484W        W98878  16.186  32.558   1.838
30485W        W98879  37.946  26.978   2.430
30486W        W98880  31.917  25.351   2.689
30487W        W98881  21.138  42.774   3.094
30488W        W98882   0.323  25.239  10.810
30489W        W98883   3.724  16.646   3.261
30490W        W98884   5.998  42.469   3.649
30491W        W98885   5.691  40.409   4.656
30492W        W98886  25.524  25.131   3.365
30493W        W98887  44.431  15.828   1.712
30494W        W98888  44.979  36.469   1.004
30495W        W98889   8.916  20.566   1.807
30496W        W98890  30.991  17.116   3.408
30497W        W98891  28.283   4.254  12.971
30498W        W98892  19.076  44.428  13.518
30499W        W98893  16.182  42.858   0.264
30500W        W98894  11.894  42.102   2.816
30501W        W98895  30.842   8.217   3.967
30502W        W98896  43.911  10.803  13.950
30503W        W98897  16.876  40.391   0.292
30504W        W98898  43.252  27.595  13.432
30505W        W98899  24.525  31.338   3.287
30506W        W98900  13.595  11.116   2.814
30507W        W98901  32.068  44.323  11.525
30508W        W98902  41.017   9.049  12.876
30509W        W98903   6.710  22.494  13.093
30510W        W98904  15.623  14.605   0.820
30511W        W98905  17.163  25.724  10.305
30512W        W98906  21.141  35.361   2.498
30513W        W98907  34.547  29.549  14.780
30514W        W98908  40.553  15.573   5.253
30515W        W98909  40.860  36.530  13.921
30516W        W98910  14.509   2.389   3.374
30517W        W98911  44.428  27.647   0.410
30518W        W98912   5.304  23.981  13.261
30519W        W98913   5.361  43.627  14.987
30520W        W98914   0.270  10.666   4.655
30521W        W98915  36.138  20.224  13.855
30522W        W98916  15.668  42.221   4.252
30523W        W98917  44.297  22.942  12.173
30524W        W98918  37.041  25.045  12.071
30525W        W98919  23.013  25.268  10.525
30526W        W98920  43.741  27.913   3.505
30527W        W98921  12.868  10.047  11.435
30528W        W98922  28.136   2.795  10.648
30529W        W98923  14.122   9.177   1.690
30530W        W98924  43.406  23.956  12.599
30531W        W98925  26.344   1.276  14.804
30532W        W98926  14.860  13.093  12.503
30533W        W98927  19.450  14.143   3.038
30534W        W98928  20.675   6.254   3.391
30535W        W98929   4.677   4.498   0.387
30536W        W98930   3.513  13.401  13.875
30537W        W98931  12.623  10.634   1.388
30538W        W98932  40.302  35.503   4.643
30539W        W98933  23.904   7.885   2.730
30540W        W98934  16.410  26.419   2.905
30541W        W98935  32.377  27.121  14.019
30542W        W98936  19.465  28.118   2.473
30543W        W98937  15.619  35.053  11.524
30544W        W98938  23.995  34.064   3.569
30545W        W98939  13.106  16.732  11.191
30546W        W98940  32.181  37.424  13.360
30547W        W98941  28.636  40.347   4.159
30548W        W98942   7.382  32.107  14.748
30549W        W98943  15.135  42.597  13.903
30550W        W98944  27.966  18.236  12.190
30551W        W98945  24.525  34.500  12.593
30552W        W98946   2.447  32.888  11.164
30553W        W98947  32.136  38.456  14.789
30554W        W98948   8.959  26.647   3.182
30555W        W98949  17.826  23.950  14.651
30556W        W98950   2.927  30.894  13.465
30557W        W98951  25.172  35.972  12.099
30558W        W98952   8.436  34.986  13.694
30559W        W98953  25.718  40.595  10.645
30560W        W98954  28.044  42.883  13.120
30561W        W98955   2.285  37.066  13.835
30562W        W98956  37.361  24.691   2.758
30563W        W98957  38.787  18.501   0.386
30564W        W98958  16.305  28.636  11.711
30565W        W98959  23.413  23.693  14.543
30566W        W98960  19.770   2.004   4.165
30567W        W98961  27.956  26.397   1.776
30568W        W98962   1.814  13.895   4.094
30569W        W98963   2.736   1.484  11.132
30570W        W98964   3.941   0.019  10.682
30571W        W98965  24.479  18.161  14.332
30572W        W98966  20.669  10.672  11.005
30573W        W98967  10.145   0.314  14.896
30574W        W98968  41.311  44.413  10.485
30575W        W98969   9.315  35.660   3.770
30576W        W98970  42.478  19.633   1.671
30577W        W98971  43.362  22.274  14.323
30578W        W98972  31.107  11.553   2.453
30579W        W98973  23.885  18.970   4.029
30580W        W98974  30.363  23.314  14.763
30581W        W98975   5.303  44.698   1.489
30582W        W98976   5.424  37.942  14.828
30583W        W98977   1.407  36.449  13.901
30584W        W98978  10.604  22.246   4.206
30585W        W98979  10.358  20.927  11.725
30586W        W98980   9.489  23.793  11.054
30587W        W98981  17.906  34.273  12.944
30588W        W98982  27.948  21.721   2.999
30589W        W98983  42.910  19.516  12.469
30590W        W98984  18.095   2.136  10.450
30591W        W98985  16.222  14.638   4.918
30592W        W98986   5.812  42.709   4.069
30593W        W98987   9.044   7.444  11.645
30594W        W98988  18.482  25.470  10.298
30595W        W98989  24.640  39.055   2.306
30596W        W98990  31.411  10.241  13.779
30597W        W98991  15.579  19.328   1.326
30598W        W98992  15.331   4.252  14.943
30599W        W98993   4.463  10.544  14.512
30600W        W98994  19.609  31.760  11.996
30601W        W98995   2.642  15.370  13.838
30602W        W98996  37.810  19.263  13.346
30603W        W98997  35.439  18.800   4.375
30604W        W98998  39.490   6.297  12.082
30605W        W98999  43.655  40.839   1.817
30606W        W99000  11.276  39.601   0.271
30607W        W99001  31.019  26.859   2.846
30608W        W99002   4.779  37.387   5.111
30609W        W99003  17.790  29.659  14.625
30610W        W99004  21.715  11.831   3.080
30611W        W99005   4.225  28.618   2.235
30612W        W99006  10.821  32.081   1.883
30613W        W99007  35.162   0.592  10.352
30614W        W99008  15.463  31.243   0.876
30615W        W99009  41.729   0.679  12.974
30616W        W99010  42.767  10.203   2.576
30617W        W99011  36.083  14.327   1.291
30618W        W99012   4.889  22.818  14.397
30619W        W99013  24.867   4.948  10.146
30620W        W99014  30.173  42.970  12.912
30621W        W99015  43.451  23.678  12.109
30622W        W99016  35.894  25.459  12.227
30623W        W99017  38.883  42.582  11.128
30624W        W99018  23.345  16.463   2.071
30625W        W99019  13.806  40.694   2.663
30626W        W99020  23.431  28.802   2.735
30627W        W99021  14.633  18.203  12.459
30628W        W99022  41.817  37.116  11.342
30629W        W99023  35.022  44.593   1.870
30630W        W99024   1.576  37.901   3.592
30631W        W99025  24.216  21.630   2.202
30632W        W99026   7.255   1.421  13.339
30633W        W99027  44.462  12.324   1.907
30634W        W99028   2.259  43.007   9.886
30635W        W99029  18.598   0.471  12.838
30636W        W99030  15.980  28.275  11.977
30637W        W99031  31.905  21.148   2.684
30638W        W99032  14.329  34.210   1.506
30639W        W99033  13.486  27.110   4.149
30640W        W99034  10.218   2.161   1.082
30641W        W99035  15.674  41.787  10.961
30642W        W99036  13.353   8.727  12.494
30643W        W99037  35.982  12.951  11.323
30644W        W99038   5.243  35.857  14.149
30645W        W99039   1.793   4.148   0.283
30646W        W99040  29.539  16.079  12.889
30647W        W99041   6.817  43.963  10.777
30648W        W99042  24.163   7.438  14.500
30649W        W99043  17.226  43.826  11.259
30650W        W99044  23.601  10.097  12.511
30651W        W99045  15.246  32.390  10.988
30652W        W99046  35.130  43.982  11.710
30653W        W99047   9.048  33.902   4.748
30654W        W99048  20.228  29.130   4.197
30655W        W99049  16.833  31.964  10.734
30656W        W99050  34.483  27.627  14.822
30657W        W99051  24.664  32.003  10.299
30658W        W99052  13.266  36.021  10.776
30659W        W99053  15.771  37.849   0.782
30660W        W99054  44.633  30.584   1.432
30661W        W99055  34.887  31.080  10.479
30662W        W99056  19.167  41.447  11.171
30663W        W99057  10.349  10.794  13.365
30664W        W99058  43.472  41.506  13.900
30665W        W99059   8.065  31.864   4.989
30666W        W99060   3.850   9.872  14.523
30667W        W99061   8.043  39.595  13.976
30668W        W99062  15.256  37.581  11.738
30669W        W99063  15.839  27.955  10.546
30670W        W99064   1.441   9.331  10.619
30671W        W99065  25.550   6.763   2.404
30672W        W99066  26.918  12.810   3.558
30673W        W99067  28.612  41.029  11.948
30674W        W99068  34.064  13.078   1.193
30675W        W99069  26.749   2.754   3.488
30676W        W99070  27.137   9.611   2.811
30677W        W99071  34.389  39.788  13.107
30678W        W99072  34.181  32.988  11.937
30679W        W99073  39.964   1.298   0.754
30680W        W99074  15.674  17.941  12.630
30681W        W99075  42.974   0.759  11.934
30682W        W99076  21.027  16.234   2.771
30683W        W99077   6.162  39.528   1.229
30684W        W99078  38.511  21.305   0.315
30685W        W99079  12.876  30.493   3.302
30686W        W99080  15.055  17.238  11.195
30687W        W99081  16.669  35.813   5.072
30688W        W99082  36.994  36.467   1.769
30689W        W99083  16.733  42.254  14.832
30690W        W99084   4.641  20.189  11.865
30691W        W99085  38.339  33.730  14.764
30692W        W99086   6.992   2.593  10.464
30693W        W99087  20.010  21.908  14.915
30694W        W99088  43.319   3.779  12.243
30695W        W99089   6.436  39.617   4.591
30696W        W99090  18.547  44.840   1.858
30697W        W99091  17.651  37.398   4.065
30698W        W99092   5.333  23.080   2.838
30699W        W99093  14.677  24.230  10.836
30700W        W99094  37.601  18.818   2.887
30701W        W99095  29.132  24.440  12.492
30702W        W99096  44.885  32.066  11.184
30703W        W99097   5.190   2.049   2.118
30704W        W99098  43.451  28.488   1.331
30705W        W99099  24.725  21.109  12.655
30706W        W99100  32.682  10.682   0.777
30707W        W99101   8.413  30.478   2.191
30708W        W99102  43.954   5.743  12.896
30709W        W99103  18.359  18.460   2.662
30710W        W99104   3.758  24.545  13.502
30711W        W99105  23.509  31.663   1.165
30712W        W99106  24.166  26.872   4.938
30713W        W99107  19.471  39.371   0.244
30714W        W99108  26.697  30.268  13.614
30715W        W99109  43.489  43.731  14.900
30716W        W99110  34.201  31.522  10.870
30717W        W99111  28.016  10.725   3.385
30718W        W99112  42.064  12.752   1.133
30719W        W99113  36.118   2.164   2.339
30720W        W99114   3.682  41.975   2.276
30721W        W99115   5.496  34.445  13.799
30722W        W99116  43.537   2.040  12.866
30723W        W99117  17.299  30.072  10.934
30724W        W99118  44.285   7.196   3.190
30725W        W99119  44.919  36.807   4.914
30726W        W99120   8.620   0.443  11.060
30727W        W99121  32.356  19.306   0.256
30728W        W99122   5.270  32.142  13.819
30729W        W99123  13.743  12.334  13.992
30730W        W99124  43.306   2.323   0.437
30731W        W99125  24.200   7.708   4.512
30732W        W99126  37.048  20.037   2.671
30733W        W99127   2.471  36.646   4.248
30734W        W99128  19.914  40.307   2.159
30735W        W99129  17.202  17.008  12.419
30736W        W99130  33.590  11.428   2.221
30737W        W99131  43.366  38.047  12.823
30738W        W99132   2.776  33.213   3.365
30739W        W99133   8.919  37.311   1.910
30740W        W99134  18.229   0.185  13.338
30741W        W99135  15.613  11.841  12.031
30742W        W99136  31.521   8.783  13.822
30743W        W99137  14.636  38.964   3.112
30744W        W99138   2.366  26.914  14.377
30745W        W99139  42.933   3.439   2.713
30746W        W99140  38.535  15.216  14.421
30747W        W99141  25.982  22.006   2.297
30748W        W99142  44.508  32.970   3.653
30749W        W99143  37.818  34.630   3.115
30750W        W99144  13.093  23.651   3.061
30751W        W99145  20.930  13.082   1.687
30752W        W99146  13.233  41.636  10.967
30753W        W99147  30.529   1.162  14.131
30754W        W99148  31.211  18.170   1.820
30755W        W99149  14.651  17.810   2.727
30756W        W99150  11.223   8.275  12.422
30757W        W99151  36.933  25.591  12.124
30758W        W99152  21.846  44.897  13.772
30759W        W99153  21.365   2.361   1.402
30760W        W99154   9.630  16.906  14.222
30761W        W99155  15.720  21.225   1.199
30762W        W99156  30.627  35.141   1.189
30763W        W99157  26.036  24.981   2.225
30764W        W99158  32.112  10.331  11.516
30765W        W99159  37.864  30.839   1.681
30766W        W99160  29.516   3.380   0.438
30767W        W99161  43.847  43.920  12.447
30768W        W99162  28.931   0.592  12.622
30769W        W99163  14.177  18.712   1.238
30770W        W99164  25.399   8.589   3.220
30771W        W99165  31.087  37.060  11.558
30772W        W99166  35.967  32.684  11.638
30773W        W99167  17.791  38.005   3.273
30774W        W99168  11.389  22.609   0.525
30775W        W99169  30.911   6.911  12.920
30776W        W99170  15.811  34.730   0.398
30777W        W99171   7.600  36.839   0.575
30778W        W99172  23.123  23.013  10.927
30779W        W99173  40.055  31.649  13.361
30780W        W99174   2.472  41.736  11.105
30781W        W99175  24.497  32.204   0.397
30782W        W99176  36.834  12.219   4.834
30783W        W99177  20.952  37.059  14.731
30784W        W99178  22.084  36.762  11.612
30785W        W99179   7.180  40.815  13.117
30786W        W99180  17.644  17.539  14.911
30787W        W99181  30.634  37.107  12.951
30788W        W99182  30.822  25.438  13.089
30789W        W99183   1.161  44.971  11.262
30790W        W99184  44.807  17.688   3.713
30791W        W99185  14.603   9.728  12.684
30792W        W99186   9.276  32.348  12.053
30793W        W99187  23.695  18.781  10.816
30794W        W99188  27.131  23.762   0.640
30795W        W99189  11.349  15.689   2.583
30796W        W99190  27.011  33.368   0.321
30797W        W99191  33.892  41.847  12.066
30798W        W99192   5.707  30.344  12.549
30799W        W99193   9.312  16.556   1.125
30800W        W99194   3.807  16.033   0.286
30801W        W99195  33.880  41.793  13.816
30802W        W99196   9.139  35.414  13.021
30803W        W99197   8.260  32.818  10.633
30804W        W99198  36.239  18.233   4.271
30805W        W99199   3.207  44.322  14.473
30806W        W99200  29.989  24.665   4.086
30807W        W99201  14.282  42.210   3.149
30808W        W99202   8.734  30.360  11.422
30809W        W99203  24.737   0.731  10.301
30810W        W99204  33.499  13.866  13.167
30811W        W99205  22.032  27.390  11.143
30812W        W99206   4.262  31.456   1.228
30813W        W99207  10.649  41.451  12.422
30814W        W99208  32.945  39.036   4.588
30815W        W99209  36.805  24.517   0.322
30816W        W99210  17.990  15.537   3.703
30817W        W99211  32.569  23.835   1.484
30818W        W99212  32.849   4.003  12.882
30819W        W99213   6.192  37.399  14.875
30820W        W99214  37.811  29.209   0.869
30821W        W99215  39.323   7.277  14.535
30822W        W99216  11.552  44.875  11.979
30823W        W99217  15.085  24.145   0.346
30824W        W99218  31.539  36.436  14.077
30825W        W99219  42.696  41.094   1.894
30826W        W99220  31.877  36.463  12.696
30827W        W99221  14.715  17.514  13.644
30828W        W99222  30.561  38.422  14.753
30829W        W99223   3.405  40.142  11.201
30830W        W99224  41.533  29.145   4.456
30831W        W99225  16.700  32.456  10.539
30832W        W99226   2.252  23.917  11.183
30833W        W99227  14.109  35.594   3.700
30834W        W99228   3.689  14.209   4.023
30835W        W99229   7.537  40.386  12.261
30836W        W99230   4.303  27.979   4.863
30837W        W99231  43.948  44.781  10.915
30838W        W99232   6.891   3.648   3.668
30839W        W99233  37.958  35.936   0.986
30840W        W99234  16.882  28.316  13.036
30841W        W99235  24.750  25.934   0.350
30842W        W99236  30.384  24.710  11.228
30843W        W99237  39.592  14.643  14.267
30844W        W99238   9.679  19.203   0.283
30845W        W99239  31.226  37.787   3.464
30846W        W99240  12.891  24.551   3.112
30847W        W99241   6.656  19.434  13.940
30848W        W99242  14.409   7.885   3.298
30849W        W99243  28.664  18.394  14.540
30850W        W99244  33.856  10.277   0.032
30851W        W99245  28.721  11.135  11.465
30852W        W99246  10.311   4.894   1.929
30853W        W99247  13.534   4.455   2.895
30854W        W99248  24.226  25.978   2.010
30855W        W99249  36.646  43.043  13.533
30856W        W99250  15.569  26.150  11.358
30857W        W99251  34.730   5.137  11.651
30858W        W99252  37.387   5.880  13.045
30859W        W99253  16.137  16.214   5.021
30860W        W99254   4.863  33.123  12.951
30861W        W99255  44.004   3.771   4.692
30862W        W99256   0.825  34.802   3.289
30863W        W99257   0.736  32.403   0.899
30864W        W99258  35.928  34.290   2.846
30865W        W99259  10.595  12.728  12.335
30866W        W99260  33.036  10.344  13.180
30867W        W99261  10.738  12.068   0.263
30868W        W99262  21.326   1.272  10.678
30869W        W99263  39.183  25.620  13.390
30870W        W99264  30.391  10.406   3.552
30871W        W99265  22.504   1.799   0.348
30872W        W99266  29.913  41.593   4.105
30873W        W99267  30.548  31.976   1.994
30874W        W99268  41.070   2.445  13.066
30875W        W99269   6.170  23.487   1.268
30876W        W99270  43.379  30.119  14.788
30877W        W99271  38.877  35.412  12.639
30878W        W99272   7.134  10.620  13.330
30879W        W99273  35.296   2.067   2.690
30880W        W99274  44.198  25.149   3.347
30881W        W99275  32.082   4.894   0.112
30882W        W99276  30.667  14.846   4.172
30883W        W99277  27.609  23.451  12.839
30884W        W99278   3.832  32.567   1.932
30885W        W99279   8.313  19.264  10.918
30886W        W99280  37.361  34.886   0.803
30887W        W99281  32.554  17.349  10.650
30888W        W99282  17.126  29.921   2.224
30889W        W99283  31.409  39.657  11.232
30890W        W99284  17.086  15.525   3.810
30891W        W99285   1.868  17.074   2.845
30892W        W99286  36.852  10.150   0.967
30893W        W99287  34.697   4.196   4.547
30894W        W99288  16.531   4.699   2.552
30895W        W99289  24.140   4.466   0.053
30896W        W99290   8.685  11.517  14.362
30897W        W99291  18.030  26.459   9.744
30898W        W99292   1.718   7.255  14.443
30899W        W99293  17.817  14.101  12.623
30900W        W99294  10.621  27.296  10.721
30901W        W99295  43.302  32.849  14.971
30902W        W99296  41.914   2.626  12.950
30903W        W99297  40.984   4.488  14.929
30904W        W99298   9.786  35.977  11.229
30905W        W99299  27.679  36.061   0.306
30906W        W99300   8.059  42.425   2.955
30907W        W99301   9.650  11.183  14.508
30908W        W99302  41.900  38.559  11.953
30909W        W99303  17.005  15.332   3.017
30910W        W99304  16.914  12.889  10.807
30911W        W99305  21.904  28.876  11.913
30912W        W99306   6.217  35.975  12.986
30913W        W99307  17.160  43.014   1.111
30914W        W99308   2.272  32.161  13.586
30915W        W99309   9.573  43.958   1.808
30916W        W99310  31.692  35.780   1.453
30917W        W99311  20.074  35.311  13.921
30918W        W99312  12.007  33.228   1.729
30919W        W99313  24.656   2.256  11.201
30920W        W99314   8.303   9.198   0.999
30921W        W99315  13.789  34.583   4.519
30922W        W99316   0.860   3.722  12.033
30923W        W99317  31.031  15.553  12.183
30924W        W99318   7.717  34.877   1.480
30925W        W99319  43.507  11.305  10.813
30926W        W99320   4.423   6.313   4.614
30927W        W99321  20.545  13.547   1.636
30928W        W99322  27.202  15.062   4.638
30929W        W99323   1.738   0.647   0.414
30930W        W99324   9.465  25.245  10.834
30931W        W99325  22.998  12.565   0.836
30932W        W99326  16.658  25.936  10.303
30933W        W99327  18.543   7.962   4.574
30934W        W99328   8.559  32.656  11.891
30935W        W99329  33.316  12.753   3.380
30936W        W99330  32.102  13.155  13.170
30937W        W99331  23.746  34.465   1.391
30938W        W99332  23.516  20.911   3.978
30939W        W99333   9.929  10.332   0.401
30940W        W99334  37.341  25.115  13.325
30941W        W99335  19.814  15.807  11.591
30942W        W99336   8.824  19.838   3.642
30943W        W99337  28.448   5.150  12.974
30944W        W99338  43.298  24.973  11.634
30945W        W99339  11.327  33.815  12.003
30946W        W99340  28.210  29.985  11.537
30947W        W99341  23.727  42.590  13.482
30948W        W99342   6.144  41.226   5.021
30949W        W99343  39.024  34.013  10.816
30950W        W99344  42.792  36.627   2.755
30951W        W99345  10.765  35.904  12.005
30952W        W99346  41.345  12.618  11.706
30953W        W99347  29.580   1.032   5.030
30954W        W99348  15.384  28.845   0.940
30955W        W99349   3.404  33.371  12.061
30956W        W99350   0.921  12.075  13.882
30957W        W99351  26.519   9.107  14.760
30958W        W99352  28.800   7.403   0.000
30959W        W99353  14.292   7.690   2.733
30960W        W99354  23.197  26.728  10.715
30961W        W99355  15.040  25.736   0.803
30962W        W99356   6.275   5.034  10.317
30963W        W99357  27.905  22.327   2.184
30964W        W99358  12.691  32.273  13.025
30965W        W99359   7.150  26.316   5.206
30966W        W99360  35.461  19.167   3.572
30967W        W99361  26.939   1.819   0.339
30968W        W99362  31.160   8.847   3.773
30969W        W99363  27.547  17.181  12.679
30970W        W99364  40.541  31.124  11.128
30971W        W99365  19.383  36.980   1.766
30972W        W99366  10.321  39.733  14.088
30973W        W99367  13.802  38.444   3.739
30974W        W99368  24.845  30.099   3.656
30975W        W99369  13.729   6.479   3.298
30976W        W99370  36.389  44.320  14.490
30977W        W99371  44.449  29.349  14.549
30978W        W99372  43.372  23.706  13.058
30979W        W99373  41.068  42.817   0.882
30980W        W99374  13.403  13.599  10.666
30981W        W99375  22.101   3.845  13.380
30982W        W99376  27.921   1.384   1.860
30983W        W99377   9.089  11.186  11.197
30984W        W99378  36.154  44.200  11.912
30985W        W99379  15.951   2.628  12.398
30986W        W99380   1.820  35.480  14.595
30987W        W99381  21.671  18.425   3.255
30988W        W99382  19.438  21.975  12.749
30989W        W99383  17.746  27.937   1.010
30990W        W99384  32.972   3.119   3.945
30991W        W99385  33.959  30.075  14.209
30992W        W99386  27.115  19.320  13.519
30993W        W99387  41.507  31.913  10.605
30994W        W99388  10.805   1.031  13.403
30995W        W99389  35.429  23.541   3.625
30996W        W99390  41.715  33.497  12.042
30997W        W99391  43.056  24.486   0.701
30998W        W99392   1.264  43.045   1.714
30999W        W99393  42.344  22.344   1.673
31000W        W99394  36.674  34.938   4.899
31001W        W99395   9.285   7.287  11.220
31002W        W99396  12.228  44.243  11.238
31003W        W99397   6.580  21.829   0.472
31004W        W99398  35.303   8.428  13.029
31005W        W99399  16.270   6.937   2.226
31006W        W99400   4.277   8.695  12.891
31007W        W99401  31.383   3.616  13.568
31008W        W99402  37.982  25.823   4.776
31009W        W99403  21.986  28.467   4.169
31010W        W99404   4.198  39.535  14.225
31011W        W99405   0.991  10.922  13.550
31012W        W99406  14.577  28.550   0.799
31013W        W99407  16.637   1.510   2.451
31014W        W99408  44.256   7.309   0.822
31015W        W99409  36.479   1.690  14.890
31016W        W99410  27.677  43.510  12.888
31017W        W99411  30.527  29.614   0.403
31018W        W99412   3.357  21.284  12.133
31019W        W99413  21.528   0.852   2.860
31020W        W99414  41.936  37.107  11.824
31021W        W99415  13.653  24.538   4.779
31022W        W99416  18.057  30.379   2.613
31023W        W99417  35.507  17.287  10.533
31024W        W99418  29.100  35.152  12.101
31025W        W99419   5.362  28.827  11.939
31026W        W99420   8.775   7.666   4.274
31027W        W99421  13.846  23.187   4.397
31028W        W99422  25.792  33.723   0.308
31029W        W99423   9.623  37.162   0.620
31030W        W99424  12.125   0.519  10.958
31031W        W99425  12.836  29.075  12.042
31032W        W99426  36.453   0.467  12.080
31033W        W99427  16.316   1.258  13.454
31034W        W99428  10.699  29.816  12.087
31035W        W99429   2.249  38.319   1.264
31036W        W99430  23.050  40.624   3.384
31037W        W99431  35.492  16.893   3.376
31038W        W99432  38.237  44.478  14.410
31039W        W99433  30.590  31.836   2.913
31040W        W99434  27.823  42.028   4.152
31041W        W99435   2.499  29.964  14.408
31042W        W99436   8.998  27.575  14.598
31043W        W99437  11.116  15.723   0.373
31044W        W99438  36.828  10.339  12.497
31045W        W99439  32.905  38.104  13.950
31046W        W99440  27.184  34.032   2.728
31047W        W99441  44.441  41.612   0.763
31048W        W99442  13.585   8.865  12.984
31049W        W99443  19.096   7.363   1.415
31050W        W99444  10.055   2.876  11.503
31051W        W99445  37.372  16.223   3.123
31052W        W99446   4.865  39.823   1.951
31053W        W99447  34.631  17.266  11.688
31054W        W99448  13.594  29.878   1.779
31055W        W99449  11.931  25.028  13.804
31056W        W99450  33.660  42.492  12.017
31057W        W99451  26.270  29.521   1.659
31058W        W99452  43.534  27.198  12.628
31059W        W99453   6.432   1.428  10.245
31060W        W99454  17.343  15.067   1.400
31061W        W99455  21.983  33.583   1.532
31062W        W99456   6.660  17.148  11.676
31063W        W99457  19.893   9.753  14.863
31064W        W99458  17.275   8.453   3.769
31065W        W99459  18.878  28.028   3.543
31066W        W99460  20.076  13.847   3.606
31067W        W99461  14.977   3.359   1.808
31068W        W99462  37.944   8.713   3.813
31069W        W99463  20.709  31.576  10.711
31070W        W99464  38.791  41.263  14.740
31071W        W99465   2.840  23.797   0.759
31072W        W99466  35.875  34.440   0.378
31073W        W99467  36.291  21.213  11.729
31074W        W99468  37.829  11.289  14.995
31075W        W99469  22.116  30.750  12.971
31076W        W99470  18.967   7.271  10.663
31077W        W99471  11.857  12.877  14.862
31078W        W99472   3.345  36.919  12.632
31079W        W99473  15.775   5.929  12.507
31080W        W99474  23.255  39.611   2.719
31081W        W99475  36.947  11.858  11.588
31082W        W99476  41.536  25.400  12.955
31083W        W99477  32.931   4.796  11.991
31084W        W99478  36.025   1.019   2.736
31085W        W99479   7.244   4.266   1.171
31086W        W99480   6.250  32.481   1.405
31087W        W99481   0.836  41.886   2.714
31088W        W99482  40.290  41.082  11.542
31089W        W99483  29.550  42.256  13.904
31090W        W99484  11.425  11.417  13.877
31091W        W99485  31.917  24.971   3.738
31092W        W99486  23.745  23.756   3.373
31093W        W99487  19.797   3.269   3.619
31094W        W99488   8.238  27.086  13.820
31095W        W99489  10.292  39.559   2.395
31096W        W99490   5.665  13.465  13.739
31097W        W99491  43.813  33.492   0.978
31098W        W99492  21.504  18.730   1.417
31099W        W99493  25.428  18.160   2.832
31100W        W99494  43.773  16.308   2.697
31101W        W99495  37.953  14.537  12.438
31102W        W99496  38.121  26.848   4.608
31103W        W99497  36.725   5.452   3.869
31104W        W99498  32.859  29.004   2.972
31105W        W99499  19.353  16.518  10.302
31106W        W99500   6.427  25.363  11.134
31107W        W99501   7.648  11.746  10.302
31108W        W99502  25.912   0.800  11.959
31109W        W99503  17.877  29.657  12.870
31110W        W99504  26.060  23.979  11.607
31111W        W99505  28.170  16.917   0.314
31112W        W99506   2.830   0.035   4.636
31113W        W99507   4.818  34.164  12.563
31114W        W99508   6.412  39.894  14.990
31115W        W99509  32.932  37.553   5.142
31116W        W99510   3.730  42.234   1.392
31117W        W99511  35.995  21.833  14.521
31118W        W99512  27.141  41.305  12.144
31119W        W99513   0.376  39.863   0.343
31120W        W99514  11.753  29.283   1.811
31121W        W99515  40.570  12.285   0.584
31122W        W99516  36.069  38.593   0.052
31123W        W99517  38.912  19.960   0.678
31124W        W99518  37.973   5.702   2.138
31125W        W99519   4.111   4.280   2.597
31126W        W99520   8.852  36.342   4.156
31127W        W99521  12.216  31.890  13.906
31128W        W99522  22.245  20.181  11.237
31129W        W99523  10.677  16.083  10.853
31130W        W99524  10.126   4.066  10.394
31131W        W99525  32.245  26.212  14.856
31132W        W99526  15.617  23.310  12.695
31133W        W99527  11.687  25.501  12.061
31134W        W99528  14.113  10.642  10.527
31135W        W99529  14.251  17.483   1.262
31136W        W99530   7.206   3.821   4.031
31137W        W99531  18.702   7.452   2.849
31138W        W99532  10.942  33.754   2.398
31139W        W99533  30.933  12.407  11.740
31140W        W99534  36.024  39.019  13.416
31141W        W99535  30.499  38.561   1.751
31142W        W99536  11.711   4.982  11.365
31143W        W99537  21.149   8.327  10.929
31144W        W99538  19.645  15.867  10.200
31145W        W99539  23.557  43.992  11.644
31146W        W99540  19.984   6.731   3.134
31147W        W99541  16.551  38.183   3.874
31148W        W99542  31.149  11.115  12.146
31149W        W99543  32.165   9.821   4.182
31150W        W99544  15.820  44.293   4.769
31151W        W99545  13.178   6.139   5.272
31152W        W99546  20.101  34.473  11.722
31153W        W99547  41.994   1.973   4.016
31154W        W99548  37.327  44.408   0.284
31155W        W99549   2.148   6.031   5.099
31156W        W99550  42.598  30.450   1.386
31157W        W99551  12.137   9.610   0.354
31158W        W99552   1.296  33.526  14.267
31159W        W99553  32.849  37.368  12.934
31160W        W99554  42.072   3.558   1.425
31161W        W99555  28.151  43.364  13.316
31162W        W99556  10.287   0.208  13.060
31163W        W99557  41.986  19.824   1.692
31164W        W99558   4.513  31.082   2.328
31165W        W99559  28.763   8.193   3.155
31166W        W99560  44.423  39.960  12.375
31167W        W99561  36.029   2.915   0.269
31168W        W99562  43.182  34.469  10.645
31169W        W99563   1.009  31.210  13.139
31170W        W99564   9.734   9.294   3.254
31171W        W99565   5.082  41.257  14.021
31172W        W99566  12.576  17.724  10.632
31173W        W99567  29.546  28.009   3.756
31174W        W99568  12.312  33.417  14.871
31175W        W99569  25.309  22.022   4.239
31176W        W99570  35.897  20.946  13.434
31177W        W99571  20.536   1.915   1.117
31178W        W99572  38.273   9.869   1.341
31179W        W99573  31.920  38.059  12.181
31180W        W99574  18.140  23.189   1.172
31181W        W99575   4.460  43.310   2.977
31182W        W99576  22.022  27.684   3.637
31183W        W99577  15.375  41.789  11.965
31184W        W99578   8.158  28.077   1.713
31185W        W99579  24.777  39.215   1.423
31186W        W99580  27.649  30.820  13.771
31187W        W99581   5.196  32.382  11.938
31188W        W99582  12.212  41.095  14.827
31189W        W99583  10.570   3.340  10.453
31190W        W99584  43.033  23.972   2.367
31191W        W99585  22.779  37.863  11.970
31192W        W99586  11.622  20.439  11.144
31193W        W99587  28.493  21.611  10.671
31194W        W99588  15.756  10.303  13.770
31195W        W99589  17.748  17.621   4.407
31196W        W99590  18.554  30.555  12.558
31197W        W99591  38.997   0.583   4.019
31198W        W99592   5.147   9.222  12.824
31199W        W99593   8.229  11.222   1.492
31200W        W99594  10.397  12.973  14.439
31201W        W99595   9.223   1.738  11.028
31202W        W99596   5.123  13.385   3.114
31203W        W99597   3.837  41.031   3.562
31204W        W99598   3.018  13.170  12.555
31205W        W99599  31.978  14.538  10.701
31206W        W99600  29.650  20.567   4.421
31207W        W99601  33.867   4.740   2.579
31208W        W99602  34.053  12.324   0.265
31209W        W99603   2.237  13.895  11.155
31210W        W99604  12.871   7.833   3.760
31211W        W99605  12.350  24.804   0.950
31212W        W99606   1.956  14.218   2.302
31213W        W99607  34.645  33.955   1.750
31214W        W99608  16.447  28.960  14.916
31215W        W99609  31.439  44.351   1.866
31216W        W99610  26.193  42.740   0.297
31217W        W99611  21.971  44.417   4.697
31218W        W99612   1.035  32.506   1.308
31219W        W99613   2.153  15.706   1.896
31220W        W99614  40.986  10.219   1.631
31221W        W99615  41.770   6.175  12.525
31222W        W99616   8.104  20.711   2.238
31223W        W99617  11.105  22.325   4.351
31224W        W99618   2.284   3.483  14.911
31225W        W99619   3.218   2.209  13.413
31226W        W99620  30.361  10.240   2.022
31227W        W99621  18.230  42.563  12.061
31228W        W99622  44.723  38.941  13.360
31229W        W99623  39.990  21.081  13.083
31230W        W99624   1.232  31.396   0.780
31231W        W99625   6.415  14.023  11.115
31232W        W99626  34.446  42.007  10.698
31233W        W99627  17.228  28.640  13.581
31234W        W99628  25.734  10.530   0.812
31235W        W99629   1.368   8.344   2.852
31236W        W99630  14.064  39.951  10.064
31237W        W99631  44.430  37.432   2.364
31238W        W99632   5.394   8.763  14.701
31239W        W99633   1.137  16.864  11.502
31240W        W99634  39.808  13.684  14.940
31241W        W99635  26.421  39.358   2.647
31242W        W99636  11.637   0.239   2.482
31243W        W99637  32.556   3.250   2.803
31244W        W99638  19.211   6.451  11.955
31245W        W99639  19.583  34.623  11.719
31246W        W99640   4.733  14.092   1.658
31247W        W99641   7.913  40.095  13.998
31248W        W99642  36.001   8.602   1.513
31249W        W99643  12.889  34.125  12.708
31250W        W99644  38.299  15.160  14.900
31251W        W99645  22.073  33.889  13.483
31252W        W99646  27.617   2.820  14.768
31253W        W99647   7.888   0.202   2.828
31254W        W99648  34.524  41.885   2.177
31255W        W99649  29.410   7.257  13.563
31256W        W99650  38.806   2.240   0.863
31257W        W99651  23.044  22.348  13.873
31258W        W99652  40.363  35.457  11.360
31259W        W99653  31.552   4.339  10.618
31260W        W99654  41.797   3.404  12.634
31261W        W99655   1.267  36.571  12.549
31262W        W99656  25.228  12.307  13.867
31263W        W99657  32.169  40.324  12.701
31264W        W99658   9.666  19.517  12.584
31265W        W99659   4.452  37.472  10.727
31266W        W99660  14.857   2.406   2.405
31267W        W99661  20.963  29.225   3.052
31268W        W99662   1.103  13.104  11.008
31269W        W99663  40.703  24.698   0.759
31270W        W99664  19.244   6.862  14.850
31271W        W99665  39.255  19.718   0.016
31272W        W99666  38.999  31.005   1.058
31273W        W99667  28.899   1.568  14.706
31274W        W99668   6.203  34.587   3.642
31275W        W99669  36.145  40.787  10.711
31276W        W99670  37.457  10.340  13.768
31277W        W99671   4.559  19.378  14.019
31278W        W99672  20.109  25.155   4.249
31279W        W99673  16.234  20.342  10.374
31280W        W99674   0.628  26.623  10.684
31281W        W99675  10.553  16.149  10.360
31282W        W99676   0.859  36.843  14.839
31283W        W99677   6.852  16.745   0.070
31284W        W99678  41.285  23.668   2.268
31285W        W99679  17.174  44.618   3.907
31286W        W99680  44.046  19.659  13.333
31287W        W99681  44.865  30.135   1.766
31288W        W99682  36.501   2.746   3.461
31289W        W99683   0.134  32.806  13.455
31290W        W99684  31.170  25.432   0.503
31291W        W99685  27.999  28.421   0.397
31292W        W99686   0.362  33.935  10.782
31293W        W99687   4.910  39.091  10.359
31294W        W99688   5.412   7.474   1.834
31295W        W99689  27.227  41.479  12.945
31296W        W99690  29.537   2.351   0.181
31297W        W99691  31.488  26.265  10.944
31298W        W99692  40.773   5.866   1.877
31299W        W99693   7.824  37.149  11.108
31300W        W99694   7.832  10.819  11.857
31301W        W99695  26.960  41.938   9.898
31302W        W99696   0.070  11.620   1.334
31303W        W99697  32.773   7.811   4.858
31304W        W99698   9.672  44.715  10.920
31305W        W99699   7.934  43.957  11.688
31306W        W99700  14.162  13.805   3.330
31307W        W99701  39.487  11.282   0.716
31308W        W99702  13.170  35.515  10.886
31309W        W99703   8.047  43.007   0.713
31310W        W99704  40.066  31.004  14.069
31311W        W99705  14.912  14.740  14.240
31312W        W99706  16.228  38.266  14.814
31313W        W99707   6.676  29.012   3.199
31314W        W99708  22.104  29.622   2.888
31315W        W99709  11.629  20.515   3.279
31316W        W99710  11.789  43.547   1.677
31317W        W99711  41.346  21.297  13.848
31318W        W99712  30.529  30.032   0.985
31319W        W99713  15.706  39.295   0.345
31320W        W99714  10.373  41.424  14.771
31321W        W99715  43.227  23.442  10.175
31322W        W99716   2.229   8.868   1.850
31323W        W99717  40.945  18.783  11.056
31324W        W99718   2.420  42.288  11.970
31325W        W99719  28.198  38.044   0.720
31326W        W99720  14.599   4.162  11.984
31327W        W99721  41.237  21.748  14.068
31328W        W99722  29.073   4.187  10.753
31329W        W99723  14.532  43.333   1.915
31330W        W99724  43.393  40.004   1.153
31331W        W99725   2.796  33.134   2.470
31332W        W99726  40.425  35.267  13.861
31333W        W99727  17.292  41.492  13.221
31334W        W99728  17.831  11.868   3.678
31335W        W99729   6.701  43.982  12.890
31336W        W99730  42.035  32.410  13.797
31337W        W99731  21.527   6.825  14.186
31338W        W99732   4.025  20.691   1.841
31339W        W99733  38.788   6.296   2.601
31340W        W99734   0.878  10.660  12.667
31341W        W99735   2.563  40.359   4.528
31342W        W99736  23.432  23.512   4.862
31343W        W99737  34.100   9.118   3.813
31344W        W99738  29.221  31.434   0.371
31345W        W99739   9.149  43.935   1.509
31346W        W99740  40.557  20.725   2.733
31347W        W99741   5.816  23.999   2.335
31348W        W99742   3.295   7.245   3.670
31349W        W99743  33.547  30.896  13.121
31350W        W99744   2.381   8.583  12.531
31351W        W99745  40.030  18.764   4.587
31352W        W99746  23.013  31.868  13.022
31353W        W99747  10.210  20.821  12.746
31354W        W99748  13.423  37.010  13.487
31355W        W99749  29.983  34.413   4.542
31356W        W99750  15.836  43.567  13.000
31357W        W99751  16.340   4.824   4.779
31358W        W99752  39.112  19.626   1.015
31359W        W99753  27.181  39.959   2.406
31360W        W99754   7.342  12.995  11.070
31361W        W99755  12.486  42.397  13.860
31362W        W99756   8.405  33.123   0.865
31363W        W99757   0.339  18.499   2.906
31364W        W99758   7.778  19.717  14.329
31365W        W99759  23.793  35.254  11.057
31366W        W99760   4.322  11.908  12.859
31367W        W99761  31.490  17.270  11.828
31368W        W99762   1.310  27.428   0.773
31369W        W99763  39.991  37.073  10.073
31370W        W99764   4.172  41.796  13.526
31371W        W99765  32.783  38.493  12.967
31372W        W99766   9.237  14.884  14.872
31373W        W99767  26.109   6.458  11.535
31374W        W99768  27.908  14.760  14.803
31375W        W99769  27.553   8.190  12.437
31376W        W99770  24.454  42.572   2.255
31377W        W99771  19.165  12.223  14.290
31378W        W99772   1.351   4.841   4.182
31379W        W99773  42.377  39.006   5.124
31380W        W99774  41.977  41.813  11.214
31381W        W99775  38.800  17.337   3.306
31382W        W99776  17.120   6.503   1.340
31383W        W99777  12.320  31.993  10.401
31384W        W99778  34.609  36.870  13.004
31385W        W99779  28.473   1.334  14.539
31386W        W99780  26.910  14.673  14.836
31387W        W99781  28.234  14.692   1.428
31388W        W99782  22.188  23.733  14.507
31389W        W99783   0.932   9.204   3.771
31390W        W99784  33.370  42.427   0.311
31391W        W99785  32.429   2.697  10.665
31392W        W99786  26.671  29.512   4.674
31393W        W99787   0.319   2.279  14.846
31394W        W99788  30.889   3.789   0.876
31395W        W99789   9.064  21.071  10.180
31396W        W99790   1.581  21.968   3.631
31397W        W99791  25.545  19.489   0.046
31398W        W99792  14.169  13.209  13.139
31399W        W99793  38.633  42.710  10.650
31400W        W99794  12.206  15.148  12.840
31401W        W99795   3.243  24.959   4.502
31402W        W99796  31.950  27.002   3.597
31403W        W99797  33.032   2.793   4.362
31404W        W99798  31.055  34.930  13.466
31405W        W99799  25.313  18.161  14.418
31406W        W99800  32.466  22.802  10.699
31407W        W99801  33.608  18.271  13.163
31408W        W99802  44.956  38.406   1.780
31409W        W99803   8.302  31.499   4.714
31410W        W99804  22.688   6.540  12.943
31411W        W99805  15.882  13.267   3.252
31412W        W99806   7.859  13.698  12.298
31413W        W99807  35.061   7.031  10.774
31414W        W99808  39.686  38.403   4.896
31415W        W99809   5.337   8.103  13.502
31416W        W99810  26.452   2.974   1.326
31417W        W99811  33.925  17.318   4.935
31418W        W99812  43.170  38.135   2.789
31419W        W99813  24.243  12.401  14.871
31420W        W99814  44.896  32.733   1.714
31421W        W99815  24.883  20.686  14.212
31422W        W99816  32.162  41.475   0.681
31423W        W99817  32.745  24.478   4.211
31424W        W99818  28.952  19.215  14.834
31425W        W99819  30.607  10.167  14.614
31426W        W99820  39.066  42.839   3.828
31427W        W99821  27.593   2.431   2.831
31428W        W99822  20.218  36.442   0.805
31429W        W99823  20.116  12.609  13.572
31430W        W99824  17.560  11.095  13.568
31431W        W99825  30.451  28.739   0.011
31432W        W99826  35.524  15.656   2.801
31433W        W99827  38.482  13.849  11.138
31434W        W99828  29.071   8.167  12.591
31435W        W99829  35.781  20.721   4.637
31436W        W99830  14.242  14.556   0.352
31437W        W99831   0.922  26.486   4.089
31438W        W99832  19.050   5.761  13.884
31439W        W99833   2.506  40.561  14.596
31440W        W99834  11.883  24.546  14.906
31441W        W99835  18.974  12.193  10.742
31442W        W99836   7.086  43.005   0.509
31443W        W99837  39.812  29.209   0.845
31444W        W99838   2.020  12.263  10.146
31445W        W99839   4.669  25.143   0.350
31446W        W99840  18.156  41.213  11.595
31447W        W99841  34.368  35.754   3.324
31448W        W99842  16.597  23.010  12.400
31449W        W99843  15.215  36.939  12.946
31450W        W99844  23.454   8.342  13.092
31451W        W99845  15.575   5.868  13.454
31452W        W99846  39.000  41.971   0.331
31453W        W99847   1.041  12.782   2.396
31454W        W99848   3.232  33.563   2.468
31455W        W99849  40.409  18.262   0.899
31456W        W99850  41.845  13.338   2.292
31457W        W99851  35.335  21.051   0.332
31458W        W99852  25.048   1.339  10.964
31459W        W99853   4.746  10.364   1.738
31460W        W99854  28.182   5.328   4.157
31461W        W99855  38.727  36.207   1.657
31462W        W99856  28.449   3.857  14.496
31463W        W99857  40.927   8.223   4.068
31464W        W99858  16.349   4.208   4.563
31465W        W99859  18.776  36.105  14.831
31466W        W99860  23.273  12.474   5.120
31467W        W99861   3.225  26.687  10.620
31468W        W99862   0.549   9.243  11.569
31469W        W99863  30.248  27.269  13.136
31470W        W99864  27.263  36.570   3.797
31471W        W99865  29.065  25.812   3.257
31472W        W99866  15.034  40.094   3.184
31473W        W99867  14.764  22.562   4.491
31474W        W99868  40.729  23.858  14.711
31475W        W99869  32.976  19.100  11.684
31476W        W99870   3.272   4.947  11.225
31477W        W99871  34.957  40.311   0.710
31478W        W99872   6.370  35.976   4.976
31479W        W99873  37.559  22.132   4.568
31480W        W99874  29.650  36.909  12.564
31481W        W99875  25.370   4.339  12.337
31482W        W99876  42.352   2.432   3.537
31483W        W99877  15.730   5.502   1.308
31484W        W99878  36.350   0.292  11.617
31485W        W99879  39.573  27.137   3.237
31486W        W99880  21.536  20.892   0.246
31487W        W99881  28.861  39.339   2.304
31488W        W99882  24.587  44.455  13.369
31489W        W99883  23.061  20.021   0.896
31490W        W99884  17.105  21.217   0.542
31491W        W99885  38.728  42.931   2.917
31492W        W99886  33.114  39.995   2.059
31493W        W99887  16.879   9.780   2.902
31494W        W99888  42.474  38.794  13.102
31495W        W99889  35.100  41.953   4.090
31496W        W99890   7.844  24.694   0.770
31497W        W99891  30.981  12.712   1.678
31498W        W99892  16.740  39.766  13.037
31499W        W99893  13.810  43.244  12.454
31500W        W99894  26.175  14.847   0.404
31501W        W99895  44.880   7.612   0.472
31502W        W99896  40.810  23.603   2.437
31503W        W99897  24.407   3.987  12.299
31504W        W99898   8.963  30.517   2.274
31505W        W99899  37.182  25.823   4.955
31506W        W99900  38.346  34.580  10.927
31507W        W99901  31.076   5.836   3.227
31508W        W99902   9.187   5.857  11.933
31509W        W99903  20.683  19.549   4.925
31510W        W99904  38.632  41.825  12.464
31511W        W99905  31.949  17.246  13.341
31512W        W99906   1.225   0.347  12.523
31513W        W99907  37.568  31.001   1.014
31514W        W99908  13.746   9.787   1.288
31515W        W99909  31.427  28.437   3.840
31516W        W99910  23.820  29.282   0.242
31517W        W99911  28.502  25.329   2.360
31518W        W99912  32.463  27.753   9.983
31519W        W99913  37.476  36.113   2.912
31520W        W99914  12.235  22.441   1.386
31521W        W99915  34.689  26.991   3.191
31522W        W99916  32.592  33.021   1.572
31523W        W99917  36.326  19.033  13.394
31524W        W99918  30.909  40.398  13.912
31525W        W99919   5.831   2.202  11.836
31526W        W99920  21.079   3.889  13.316
31527W        W99921  17.279  20.258   0.586
31528W        W99922  30.998   1.799  12.531
31529W        W99923  10.221  16.234  11.185
31530W        W99924  17.690  16.804  12.409
31531W        W99925  17.886  39.830   1.524
31532W        W99926   1.063  12.316  13.019
31533W        W99927  15.854  38.615   1.862
31534W        W99928   2.238   5.403  12.466
31535W        W99929  13.787  25.643  10.702
31536W        W99930  13.629  41.792  12.227
31537W        W99931  14.358   6.647   0.773
31538W        W99932  11.458   2.316   1.215
31539W        W99933  43.545  20.128   4.105
31540W        W99934   7.296  41.494  11.590
31541W        W99935  23.283  29.479   3.335
31542W        W99936  18.058  15.280  14.280
31543W        W99937  11.174  13.108   1.512
31544W        W99938  28.693   1.298   1.481
31545W        W99939   1.221  20.279   2.800
31546W        W99940  32.671   2.771   2.489
31547W        W99941  32.154  39.017  14.814
31548W        W99942  29.265   9.297  14.397
31549W        W99943  40.508  28.725  14.412
31550W        W99944  41.035  27.336  14.987
31551W        W99945  10.960  18.565   1.390
31552W        W99946  43.998  20.101   2.183
31553W        W99947   2.281  24.548  13.563
31554W        W99948   2.787   8.453  14.423
31555W        W99949  13.292  17.652   3.677
31556W        W99950  30.250  25.730  13.933
31557W        W99951  12.222   1.238  11.561
31558W        W99952  20.632  15.610  14.750
31559W        W99953  12.253  12.263   2.117
31560W        W99954  24.467  17.095  14.021
31561W        W99955  33.166   7.830   4.500
31562W        W99956  10.160   7.720   3.193
31563W        W99957  21.029  16.204  13.875
31564W        W99958  26.067  39.359  11.998
31565W        W99959  29.378  11.151  14.799
31566W        W99960  21.771   4.521   3.589
31567W        W99961  21.588   3.021  13.860
31568W        W99962  19.855  28.706   1.290
31569W        W99963  31.422   5.983  14.324
31570W        W99964  35.983  26.492  13.067
31571W        W99965  25.990  43.838   3.165
31572W        W99966   8.252  34.438   0.414
31573W        W99967  43.861   4.344  13.376
31574W        W99968  20.017  38.116   3.299
31575W        W99969   9.890  32.126   0.419
31576W        W99970  44.422  12.402  12.640
31577W        W99971  29.948  44.443  12.939
31578W        W99972  19.236   2.191  11.178
31579W        W99973  36.921  20.697  10.745
31580W        W99974  22.525  28.856  13.294
31581W        W99975   8.189  10.775   2.897
31582W        W99976  12.063  26.123  10.643
31583W        W99977   2.478  13.810   3.605
31584W        W99978  44.864  32.851   2.817
31585W        W99979  18.515  40.668   2.302
31586W        W99980  27.038  39.018  14.922
31587W        W99981  32.444  12.959   4.800
31588W        W99982  36.337  10.621   2.805
31589W        W99983  43.471  14.152   3.871
31590W        W99984  11.718  36.279  13.027
31591W        W99985   0.362   5.438   3.184
31592W        W99986  41.969  10.377  11.632
31593W        W99987  26.005  41.538   2.406
31594W        W99988  31.438   0.482  13.990
31595W        W99989   1.980  43.361  13.366
31596W        W99990  28.638  22.651  13.584
31597W        W99991   4.908  30.954   0.891
31598W        W99992  32.901  20.046  13.818
31599W        W99993  12.252  20.356  12.464
31600W        W99994  35.607  41.703   1.379
31601W        W99995  13.653  35.040   2.287
31602W        W99996  22.919   1.357  11.545
31603W        W99997  13.919  10.311  14.464
31604W        W99998  29.685   1.079  13.640
31605W        W99999   0.332  25.306  14.471
31606W        W    0  42.732  24.721   4.700
31607W        W    1   6.861   6.323  10.110
31608W        W    2  26.981  39.269   1.992
31609W        W    3  17.173  25.081   0.520
31610W        W    4  39.184  39.321   0.762
31611W        W    5  21.262   5.669   0.790
31612W        W    6  33.552  13.560  13.595
31613W        W    7   2.404  43.084   0.848
31614W        W    8  19.882  13.895   0.061
31615W        W    9  13.226  40.178   2.191
31616W        W   10  30.479  39.952   2.313
31617W        W   11  16.231   2.745   2.813
31618W        W   12  39.401  10.351  12.532
31619W        W   13  33.491  14.626   0.270
31620W        W   14  18.351  21.098   5.024
31621W        W   15  32.619  26.682  14.019
31622W        W   16  37.525   3.028   4.129
31623W        W   17  23.618  34.124  13.793
31624W        W   18  20.299  27.032   2.296
31625W        W   19  10.240   5.207  12.401
31626W        W   20   8.398  43.778   2.630
31627W        W   21  41.804  15.765   3.902
31628W        W   22  13.077  26.646  12.432
31629W        W   23  38.923  11.240   1.734
31630W        W   24  25.701   4.786  12.393
31631W        W   25  24.482  40.464  13.298
31632W        W   26   7.211  30.472  13.563
31633W        W   27  43.891  11.578   3.811
31634W        W   28   5.281  38.365  14.539
31635W        W   29   2.357   3.379   3.602
31636W        W   30   5.884  32.891   0.314
31637W        W   31  28.049  17.098  11.385
31638W        W   32  18.124  26.173   0.894
31639W        W   33  13.410   4.321  10.716
31640W        W   34   2.265  41.801   1.447
31641W        W   35  20.270  44.455  12.107
31642W        W   36  42.328  36.914   2.788
31643W        W   37  15.341   8.989  10.342
31644W        W   38  43.772  31.587   0.879
31645W        W   39  36.250  26.621   2.348
31646W        W   40   4.983  21.341   3.812
31647W        W   41   8.826  34.592   3.590
31648W        W   42  41.838  21.976  13.217
31649W        W   43   7.613  10.816  11.393
31650W        W   44  33.400  39.307   4.329
31651W        W   45  38.377  11.638   3.426
31652W        W   46  13.956  33.992   0.264
31653W        W   47  43.464  12.863  14.536
31654W        W   48  36.134  43.511  13.866
31655W        W   49  21.900  10.632   2.791
31656W        W   50   1.499   7.299  12.035
31657W        W   51  35.478  33.835   2.412
31658W        W   52   4.148   8.880   4.538
31659W        W   53  18.584  18.746  13.113
31660W        W   54  26.236  14.503   3.229
31661W        W   55  44.922  43.510  11.735
31662W        W   56  24.022  17.640   4.535
31663W        W   57  44.348  23.575   2.635
31664W        W   58  15.908  19.823   1.693
31665W        W   59   7.763  15.309  12.881
31666W        W   60  28.031  25.918   4.706
31667W        W   61  34.941   2.139   0.867
31668W        W   62  27.466  38.622   2.175
31669W        W   63  40.325  43.455  10.616
31670W        W   64  28.234   6.897   3.707
31671W        W   65   4.191  32.769   0.700
31672W        W   66  10.136  26.418   0.341
31673W        W   67   6.375  40.762  10.906
31674W        W   68  40.362  18.174  14.439
31675W        W   69  33.087  21.722   4.151
31676W        W   70  21.293  35.957   0.938
31677W        W   71  19.745  11.619  12.422
31678W        W   72   7.933   4.295   4.063
31679W        W   73  34.201  15.656  11.497
31680W        W   74  36.181  36.071  11.476
31681W        W   75  21.844   0.246   1.910
31682W        W   76  40.086  22.991  11.462
31683W        W   77  39.557  18.684   4.888
31684W        W   78  39.895  22.672  13.286
31685W        W   79   0.954   9.604   1.838
31686W        W   80  31.136  35.403   4.629
31687W        W   81  32.372  43.387   3.156
31688W        W   82  19.847  14.221   2.658
31689W        W   83  28.419  16.031  14.806
31690W        W   84  27.896  24.330  11.683
31691W        W   85   4.637  23.192  14.139
31692W        W   86  10.001  21.317  10.239
31693W        W   87  13.101  31.647  13.402
31694W        W   88  34.816  44.385   4.540
31695W        W   89  38.906  44.411  11.777
31696W        W   90  41.521  29.142   3.926
31697W        W   91  16.314  37.807  14.525
31698W        W   92  20.146  42.193  10.678
31699W        W   93  11.409  15.832   0.799
31700W        W   94  31.013  28.949  13.265
31701W        W   95  25.598  12.627   0.473
31702W        W   96  35.133  44.722   4.220
31703W        W   97   6.756  11.949  11.652
31704W        W   98   4.243  39.463   0.711
31705W        W   99  39.496  30.454  14.079
31706W        W  100   9.876  13.155  12.794
31707W        W  101   0.843   7.686  13.512
31708W        W  102  11.306   7.482  12.042
31709W        W  103  37.390  37.257   1.760
31710W        W  104  22.215  12.134  13.921
31711W        W  105  22.717  23.252  11.176
31712W        W  106  35.113   0.443  12.886
31713W        W  107  27.002  16.156   1.187
31714W        W  108  43.240  33.536  10.788
31715W        W  109  16.435  28.864   3.638
31716W        W  110  17.624  15.058  11.587
31717W        W  111  16.543  14.100   4.981
31718W        W  112   0.731  32.144  14.731
31719W        W  113  28.040  11.925   4.536
31720W        W  114  34.778  26.542   1.195
31721W        W  115  20.711  12.982  10.329
31722W        W  116  44.440  14.797   3.306
31723W        W  117  25.636  38.426   0.064
31724W        W  118  13.174  39.982  12.393
31725W        W  119  21.039  27.584  12.862
31726W        W  120  34.190  15.745   1.974
31727W        W  121  37.072  25.700  11.134
31728W        W  122   7.357  18.568   2.583
31729W        W  123  24.235  40.840   1.460
31730W        W  124  27.765   1.424   3.748
31731W        W  125  32.868  20.000   0.966
31732W        W  126  30.680  36.546   4.824
31733W        W  127   1.528  11.761  10.645
31734W        W  128  41.301  29.054   1.738
31735W        W  129  21.177   8.379  12.935
31736W        W  130   1.993  28.077   0.816
31737W        W  131  36.666  17.215  14.478
31738W        W  132   0.604  22.231   2.102
31739W        W  133   2.383  13.181  12.089
31740W        W  134  14.133  36.861   0.200
31741W        W  135  19.333  40.801   3.533
31742W        W  136  31.741  17.277   5.122
31743W        W  137  31.680  30.981  14.843
31744W        W  138  39.571  20.665  13.983
31745W        W  139  21.826  26.280   3.935
31746W        W  140   4.435  13.237  13.460
31747W        W  141   7.733  22.530   2.887
31748W        W  142  32.000   9.200   0.232
31749W        W  143  22.016   6.936  14.121
31750W        W  144  25.976  10.152   1.306
31751W        W  145  28.164   3.508  14.780
31752W        W  146  20.323  38.913  12.014
31753W        W  147   7.219   7.927   2.655
31754W        W  148  19.811   6.647   4.032
31755W        W  149  38.093  11.686   1.210
31756W        W  150  28.148  12.140   3.517
31757W        W  151  25.923  33.010   1.724
31758W        W  152  35.553   1.348  11.607
31759W        W  153  39.489  37.868   0.091
31760W        W  154   2.815  19.652  14.606
31761W        W  155  22.288   5.668  10.443
31762W        W  156   4.510  22.464   4.621
31763W        W  157  30.680  31.169  11.186
31764W        W  158   4.449  34.345   0.519
31765W        W  159  12.081  14.388   3.099
31766W        W  160   1.087  22.112  12.944
31767W        W  161  19.197  40.939  14.310
31768W        W  162  12.052   3.776   3.773
31769W        W  163  40.815  36.543   2.991
31770W        W  164  26.004   3.439   0.976
31771W        W  165  18.551  18.793   1.291
31772W        W  166  14.458  28.155   3.245
31773W        W  167   3.096  11.821  14.357
31774W        W  168  37.766  28.105  14.704
31775W        W  169  12.724  14.160  14.282
31776W        W  170  39.994  33.975  10.395
31777W        W  171   8.173  33.513  12.919
31778W        W  172   0.737  16.521   2.173
31779W        W  173  11.362  29.593  11.673
31780W        W  174   5.196   8.545  11.790
31781W        W  175  18.355  26.265   1.349
31782W        W  176  20.163  28.951   1.627
31783W        W  177  23.538  10.381   1.289
31784W        W  178  43.897   6.210  12.311
31785W        W  179  14.825   8.981  10.572
31786W        W  180  24.698  39.395  12.301
31787W        W  181  38.255  19.747  12.461
31788W        W  182   2.881   5.254   4.893
31789W        W  183  40.531  29.038   4.304
31790W        W  184  36.211  29.084   2.458
31791W        W  185  30.552   1.470   3.225
31792W        W  186   6.062  36.071  11.195
31793W        W  187  28.157  26.933  13.182
31794W        W  188  29.043  18.112   4.065
31795W        W  189   3.443   7.611   1.712
31796W        W  190  12.729   2.411  14.012
31797W        W  191  15.036   3.877  11.959
31798W        W  192   3.692   3.353   3.810
31799W        W  193  30.492  10.730  10.958
31800W        W  194   0.383   7.914  13.581
31801W        W  195  44.878  38.340  11.677
31802W        W  196  33.834  43.772  11.881
31803W        W  197   8.820   0.394   2.673
31804W        W  198   1.391  36.145  13.486
31805W        W  199  23.105   3.388   4.936
31806W        W  200  13.526  21.611   2.704
31807W        W  201  23.575  30.593  12.830
31808W        W  202  42.898  43.967   4.951
31809W        W  203  29.498  36.459   0.423
31810W        W  204   9.626  39.029   4.218
31811W        W  205  14.734  35.462   0.252
31812W        W  206  34.784   9.794  10.536
31813W        W  207  38.932  15.050   2.580
31814W        W  208  29.471  32.607  13.260
31815W        W  209  17.152  13.675   3.506
31816W        W  210  39.142  25.670   3.905
31817W        W  211  42.880  42.891   4.079
31818W        W  212  14.377  37.850   5.473
31819W        W  213  41.312  37.983   1.263
31820W        W  214  19.540  11.854   1.581
31821W        W  215  30.635  44.974   3.119
31822W        W  216  35.514  43.750  11.090
31823W        W  217  13.862  16.064  13.103
31824W        W  218  28.573  13.430  10.842
31825W        W  219  44.279  32.839   1.641
31826W        W  220   6.541  18.548   2.104
31827W        W  221  28.904  35.840   2.375
31828W        W  222   2.568   0.968  11.192
31829W        W  223  44.804  23.430   0.597
31830W        W  224  26.526  37.723  14.959
31831W        W  225  44.045  29.046  14.525
31832W        W  226   9.239   5.934   4.143
31833W        W  227   8.364   7.803  13.454
31834W        W  228  44.483  19.982   2.382
31835W        W  229   1.501  21.641   0.803
31836W        W  230  23.724  38.614   1.168
31837W        W  231  16.106  33.923   0.220
31838W        W  232  27.046  18.702   4.564
31839W        W  233   7.770  32.960   1.814
31840W        W  234  38.703  24.945  13.366
31841W        W  235  16.291  43.563   1.270
31842W        W  236   0.768   1.952   9.937
31843W        W  237  25.140  36.856   1.230
31844W        W  238  24.944  31.226   1.957
31845W        W  239  14.241  14.660   1.291
31846W        W  240  21.070   5.892  12.891
31847W        W  241  21.150  12.487   0.219
31848W        W  242  35.948  11.162   4.623
31849W        W  243  33.698  43.360   4.494
31850W        W  244  32.425  31.147  14.379
31851W        W  245   5.353  44.697   0.925
31852W        W  246  14.765  21.263   2.636
31853W        W  247  17.863  27.187  12.310
31854W        W  248  42.030  34.088   4.713
31855W        W  249  34.088  14.357   1.248
31856W        W  250  31.515  21.023   1.974
31857W        W  251  24.036  12.000   5.463
31858W        W  252   3.629  25.040  14.210
31859W        W  253   4.147  12.760   5.418
31860W        W  254  17.288   0.562  14.035
31861W        W  255  26.209  25.033   0.780
31862W        W  256  10.090  44.907  13.662
31863W        W  257   2.423  10.347   3.803
31864W        W  258  34.094  34.865   3.762
31865W        W  259  23.679  24.710  12.028
31866W        W  260  30.932  22.057  12.368
31867W        W  261   1.528  43.594   2.697
31868W        W  262   6.675  18.744  10.643
31869W        W  263  34.413  15.382  12.341
31870W        W  264   2.349   1.322   4.674
31871W        W  265  14.879  29.957  12.586
31872W        W  266  22.074  41.009  14.297
31873W        W  267   6.603  19.759   4.031
31874W        W  268  30.184  32.911  14.913
31875W        W  269  16.211  19.328   4.656
31876W        W  270  18.634  34.837   2.717
31877W        W  271   1.919  39.160   0.928
31878W        W  272  18.946  16.218  11.401
31879W        W  273  11.531  19.217  12.984
31880W        W  274  40.298  29.028   2.812
31881W        W  275  20.918  35.997  10.371
31882W        W  276  15.522   6.192   0.953
31883W        W  277  38.850  31.518  11.790
31884W        W  278  30.300  11.259   3.937
31885W        W  279  13.841  15.332   0.283
31886W        W  280  36.928  33.479   4.075
31887W        W  281   7.000  26.458  14.816
31888W        W  282  19.264  16.775  11.615
31889W        W  283  22.534  29.598  10.413
31890W        W  284   7.811  42.083   3.291
31891W        W  285  37.696  40.148   0.862
31892W        W  286  24.322  39.150  11.524
31893W        W  287  27.316   1.741  10.986
31894W        W  288  21.230  29.170   0.873
31895W        W  289  17.554   7.823   2.273
31896W        W  290  10.729   6.295  12.921
31897W        W  291  11.547  20.294  13.122
31898W        W  292  35.140  13.359   0.079
31899W        W  293   9.620  21.473   1.001
31900W        W  294   1.722  18.233  11.397
31901W        W  295  16.317  17.469  14.018
31902W        W  296  31.029   1.411  12.873
31903W        W  297  26.273  23.685   4.381
31904W        W  298  22.791  26.166   2.314
31905W        W  299  15.377  10.592  14.398
31906W        W  300   6.791   1.957  13.881
31907W        W  301  34.174  24.197  12.505
31908W        W  302   0.693  19.740  10.417
31909W        W  303  13.212   1.960   1.186
31910W        W  304  22.165  22.193   3.208
31911W        W  305   7.429   5.623  13.003
31912W        W  306  44.855  26.409  11.118
31913W        W  307   5.173  16.191   0.670
31914W        W  308  15.206  14.912  14.708
31915W        W  309  31.697  20.351  13.453
31916W        W  310  21.600  34.379   0.973
31917W        W  311  29.949  14.330  12.468
31918W        W  312  37.541  16.233  10.799
31919W        W  313  28.576  28.962   4.117
31920W        W  314  35.619  30.644  13.986
31921W        W  315   8.510  14.705   2.621
31922W        W  316   0.859  26.654  14.068
31923W        W  317   3.637  28.155  13.517
31924W        W  318  14.631  12.623  13.768
31925W        W  319   3.864   4.529  14.871
31926W        W  320  22.791  16.268   2.708
31927W        W  321  33.364  11.829   3.756
31928W        W  322   2.191   6.556  14.838
31929W        W  323  36.109  28.973  11.502
31930W        W  324   4.069   5.856  12.298
31931W        W  325  15.556  19.287  13.547
31932W        W  326  42.730   4.431  11.215
31933W        W  327   4.979   3.174   2.358
31934W        W  328   9.022  33.299   2.375
31935W        W  329   1.283   9.243  12.135
31936W        W  330  31.142  20.097   0.463
31937W        W  331  18.264  15.672   0.782
31938W        W  332  12.355  33.434  13.981
31939W        W  333  35.023  40.546   3.764
31940W        W  334  36.894   8.796   1.664
31941W        W  335  26.470  41.976  10.044
31942W        W  336  34.638   5.399   4.638
31943W        W  337   3.899  16.980  10.728
31944W        W  338  38.954   4.708  11.469
31945W        W  339   0.427  31.406  13.044
31946W        W  340   1.294  10.739   4.351
31947W        W  341  15.370  24.325   5.010
31948W        W  342  29.609  27.037  14.318
31949W        W  343  39.862  43.989  11.546
31950W        W  344  15.922  23.353   2.221
31951W        W  345  40.530  15.166  14.743
31952W        W  346  20.707  43.702  12.301
31953W        W  347  31.391  38.213   3.827
31954W        W  348  25.798  25.808   1.421
31955W        W  349  17.613  39.427   1.672
31956W        W  350  44.548   3.503  13.407
31957W        W  351  27.879  44.809  11.365
31958W        W  352  27.165   5.411  13.878
31959W        W  353   4.791  15.320   1.890
31960W        W  354   3.868  41.902   4.060
31961W        W  355   7.280  14.039  11.192
31962W        W  356   2.958  18.141   4.552
31963W        W  357  23.587   2.687   4.609
31964W        W  358  44.412  18.194  13.756
31965W        W  359   5.815  35.125   0.340
31966W        W  360  28.611  27.949   0.809
31967W        W  361  12.769   0.030   2.683
31968W        W  362  26.263  31.026   1.432
31969W        W  363  31.591  20.355   0.001
31970W        W  364  38.970   8.816  13.894
31971W        W  365   5.150  33.171   2.306
31972W        W  366   3.683  38.964  13.446
31973W        W  367   2.818  35.853   4.201
31974W        W  368  27.975  18.504  13.024
31975W        W  369   2.186   5.918   4.216
31976W        W  370  28.261  37.381  13.850
31977W        W  371  13.982   6.883  11.670
31978W        W  372  41.809  30.503   1.044
31979W        W  373  28.043   5.032  11.660
31980W        W  374   7.644  41.289   4.112
31981W        W  375  28.697  29.151   0.259
31982W        W  376  18.831  41.092  10.988
31983W        W  377   4.794  19.525  12.241
31984W        W  378  28.153  26.994  10.431
31985W        W  379  20.804   8.063   1.947
31986W        W  380  39.795  21.506   3.698
31987W        W  381  34.999  20.243  12.065
31988W        W  382  18.149  13.768   0.940
31989W        W  383  19.313  27.853   0.459
31990W        W  384  15.077  22.714   2.150
31991W        W  385  31.925   4.008  14.394
31992W        W  386  35.953  12.268  10.688
31993W        W  387  42.916  13.693   4.912
31994W        W  388  35.016  11.784   2.299
31995W        W  389   1.924   7.229  13.599
31996W        W  390  10.855  27.181  12.459
31997W        W  391   4.413  17.591   0.751
31998W        W  392  36.542  20.290  10.768
31999W        W  393   5.753  25.748  11.877
32000W        W  394  28.421  19.797   0.450
32001W        W  395  41.891  14.454   0.004
32002W        W  396  14.374  19.301   0.732
32003W        W  397  21.209  16.735  11.939
32004W        W  398  22.234  11.259   4.524
32005W        W  399  19.786  10.674  11.136
32006W        W  400  30.510  44.235   1.847
32007W        W  401  35.706   7.067  14.628
32008W        W  402  34.891   7.196   2.195
32009W        W  403  27.077   2.425  11.613
32010W        W  404  20.461   4.943  13.523
32011W        W  405  20.618  18.025  11.160
32012W        W  406  26.433  35.419   0.638
32013W        W  407  10.502  39.282   1.081
32014W        W  408  35.647  36.485   4.252
32015W        W  409  37.007  34.518  10.656
32016W        W  410   6.679   5.760   2.861
32017W        W  411  31.548  27.437  13.998
32018W        W  412  43.893   5.454   0.918
32019W        W  413  14.103  41.935   3.622
32020W        W  414  12.557  14.659  14.070
32021W        W  415  22.129  19.025  13.084
32022W        W  416  44.903  34.881   2.810
32023W        W  417   0.390   0.274   1.196
32024W        W  418  33.242   3.884  11.587
32025W        W  419   2.520  18.101   3.685
32026W        W  420   3.722   0.998   3.684
32027W        W  421  12.907   3.842  13.966
32028W        W  422   3.449  14.673  14.358
32029W        W  423   9.915  13.155   2.444
32030W        W  424  40.465  27.522  13.834
32031W        W  425  33.951  19.802   4.093
32032W        W  426  19.564  16.907   0.841
32033W        W  427  37.565  25.601   2.372
32034W        W  428  11.053  28.099   4.484
32035W        W  429  27.585  25.025  11.038
32036W        W  430  22.067  30.857   2.223
32037W        W  431  34.147   5.907  12.749
32038W        W  432   4.244  20.215   1.855
32039W        W  433  34.881  34.115  10.511
32040W        W  434  20.559  21.920  14.768
32041W        W  435   1.207  24.943   3.132
32042W        W  436  43.772  20.260  14.738
32043W        W  437  36.656  40.513  13.063
32044W        W  438   6.606  30.002   4.949
32045W        W  439   8.818   5.625   3.336
32046W        W  440  27.568  12.751  13.163
32047W        W  441  31.792  16.258  14.946
32048W        W  442  44.896  13.922  13.613
32049W        W  443  12.845  27.307  10.733
32050W        W  444  15.656  28.634   0.488
32051W        W  445  31.329  33.112   4.501
32052W        W  446  24.195  44.338   2.925
32053W        W  447  15.270  23.583   3.410
32054W        W  448  34.987  41.303  11.625
32055W        W  449  35.511  21.304  13.462
32056W        W  450  39.381  26.074   1.668
32057W        W  451  37.498  28.189   2.858
32058W        W  452   7.752  12.671   0.159
32059W        W  453  24.327  28.072  11.671
32060W        W  454   0.819   4.946   2.778
32061W        W  455   6.909  17.997  13.862
32062W        W  456   9.832  38.257  11.068
32063W        W  457  12.710   0.515   1.599
32064W        W  458  33.936  14.681   3.863
32065W        W  459  31.548  31.965   3.200
32066W        W  460   9.915  21.150  13.589
32067W        W  461  22.971   2.439   2.936
32068W        W  462  23.026  39.477  14.273
32069W        W  463  16.847  18.640   1.347
32070W        W  464  27.122  17.746  14.271
32071W        W  465   2.349  14.087   2.005
32072W        W  466  20.995  17.495   0.638
32073W        W  467  28.402  15.208   4.336
32074W        W  468  19.194  26.430  11.964
32075W        W  469   8.311  20.076  12.280
32076W        W  470  43.114  13.569  13.292
32077W        W  471  40.066   2.938   3.739
32078W        W  472  20.515   8.340   0.647
32079W        W  473  17.013  18.151   1.635
32080W        W  474  12.995   2.903   1.706
32081W        W  475  43.490  25.208   0.699
32082W        W  476  37.489  31.857   4.506
32083W        W  477   9.716  20.049   1.137
32084W        W  478   5.938  21.690   3.596
32085W        W  479  28.283  15.245   2.761
32086W        W  480  23.141  19.999  14.779
32087W        W  481  16.081  25.245   2.416
32088W        W  482   1.416   9.067  11.047
32089W        W  483  42.737  21.138   2.296
32090W        W  484  40.216   5.197   3.256
32091W        W  485   2.230   8.620  11.300
32092W        W  486  12.357   4.957  10.458
32093W        W  487  20.208  29.974  10.757
32094W        W  488  33.121  23.521   2.304
32095W        W  489  26.756   3.790  14.980
32096W        W  490  24.095  12.359  13.945
32097W        W  491  21.324  17.724  10.740
32098W        W  492  14.301   9.227   9.752
32099W        W  493  43.984  34.817  14.315
32100W        W  494   3.960   0.229   2.648
32101W        W  495  24.012  24.966  13.501
32102W        W  496   0.921  23.187  10.617
32103W        W  497  42.000  32.933   0.722
32104W        W  498  31.822   9.160   2.348
32105W        W  499  19.264  11.755  10.744
32106W        W  500   0.109   1.833   0.366
32107W        W  501  20.691  31.986  14.852
32108W        W  502  12.335  26.610  13.900
32109W        W  503  21.035  18.152  13.977
32110W        W  504   4.898   6.567   4.701
32111W        W  505   6.369   8.073  12.560
32112W        W  506  13.276  10.295   1.319
32113W        W  507  44.945  25.056   4.046
32114W        W  508  34.990   7.136   1.670
32115W        W  509  25.476  44.056  12.403
32116W        W  510   7.685  33.124  11.831
32117W        W  511  10.717  42.200   0.703
32118W        W  512  21.914  35.417   0.281
32119W        W  513   9.536   0.403  13.125
32120W        W  514  15.086  12.739  11.540
32121W        W  515  17.379  34.892   4.133
32122W        W  516  31.346  10.867  14.590
32123W        W  517  36.671  26.251   4.315
32124W        W  518   1.725   3.994  14.139
32125W        W  519  41.959  18.998  14.852
32126W        W  520  22.436  15.954   2.298
32127W        W  521  28.697  38.787   4.574
32128W        W  522   3.133  10.681  11.552
32129W        W  523  36.300  25.242   2.701
32130W        W  524   9.566   7.350   0.845
32131W        W  525  19.952  14.871   0.280
32132W        W  526  28.987   9.606   1.841
32133W        W  527  39.396  36.180   3.160
32134W        W  528  37.540  42.810  12.645
32135W        W  529  26.700  10.915   4.467
32136W        W  530   6.172  30.094  12.864
32137W        W  531   3.960  14.786  11.268
32138W        W  532  11.556   3.652   3.799
32139W        W  533   9.390   0.355  12.069
32140W        W  534  22.052  41.018  10.886
32141W        W  535  36.276  31.852  10.669
32142W        W  536  35.201  28.904  10.304
32143W        W  537  34.088  26.033  11.190
32144W        W  538   8.140  34.937   0.276
32145W        W  539  19.550  33.937  11.673
32146W        W  540  16.035   5.368  11.976
32147W        W  541  11.132  13.417  12.991
32148W        W  542  21.290  39.454   3.114
32149W        W  543   5.914  27.459  13.418
32150W        W  544  44.077  35.431  11.687
32151W        W  545  17.792  11.669  13.060
32152W        W  546  19.690  11.550  14.519
32153W        W  547  10.909  30.095  13.113
32154W        W  548  25.672   0.389   3.783
32155W        W  549   5.305  12.600  11.183
32156W        W  550  39.079  42.832   3.298
32157W        W  551  20.289  43.059  13.386
32158W        W  552  27.443  20.268   0.924
32159W        W  553  26.354  35.096  11.106
32160W        W  554  30.428  34.198   1.020
32161W        W  555  16.524   3.991  14.106
32162W        W  556  16.150  23.688  14.722
32163W        W  557  11.264  24.458   4.005
32164W        W  558  20.912  17.170   4.584
32165W        W  559  39.021  36.332  11.849
32166W        W  560   1.269  43.987   3.529
32167W        W  561  29.023  14.056  12.208
32168W        W  562  27.195   5.184  14.357
32169W        W  563  27.657  36.990   4.365
32170W        W  564  15.801  44.559   2.665
32171W        W  565  42.976  29.841  14.590
32172W        W  566  37.654  16.173  11.737
32173W        W  567   4.978  22.722   4.569
32174W        W  568  21.802  22.550   3.128
32175W        W  569  29.083  11.377   1.188
32176W        W  570  12.800  29.944  10.398
32177W        W  571  33.396   8.156  12.071
32178W        W  572   0.110   7.969   2.349
32179W        W  573   2.461  33.006   0.997
32180W        W  574  21.656  44.158   1.691
32181W        W  575  30.111  12.300  13.383
32182W        W  576  32.500   9.064  11.726
32183W        W  577  39.271   6.771  14.112
32184W        W  578  12.518  36.535   2.857
32185W        W  579  19.763   0.328  10.523
32186W        W  580   2.403  15.468  10.994
32187W        W  581   2.278   1.486   1.016
32188W        W  582  22.176   3.966   1.604
32189W        W  583  20.229  16.171  14.496
32190W        W  584  27.645  18.525  14.917
32191W        W  585  42.542  40.043   1.238
32192W        W  586  29.495   8.347   0.988
32193W        W  587  19.073  12.052   1.666
32194W        W  588  24.130   7.081   2.828
32195W        W  589  42.728  40.760  10.663
32196W        W  590  44.822  36.403  13.957
32197W        W  591   2.916   9.520  14.459
32198W        W  592  42.126  16.605  11.927
32199W        W  593  34.954  24.914  14.739
32200W        W  594  17.586   0.396   3.657
32201W        W  595  12.380  19.627   1.889
32202W        W  596  10.236   5.586   1.229
32203W        W  597  37.991  13.510   1.282
32204W        W  598  24.037   5.414   3.642
32205W        W  599  29.661  33.228   1.645
32206W        W  600   3.749  44.215  12.187
32207W        W  601  43.416  40.842  13.198
32208W        W  602  26.249   0.576   4.656
32209W        W  603  30.036  15.848  11.536
32210W        W  604  24.220  19.279   4.904
32211W        W  605  18.817   7.289   2.365
32212W        W  606  17.734  22.602   3.676
32213W        W  607  18.109   5.327  14.512
32214W        W  608  41.366  29.117   2.691
32215W        W  609  42.572  31.910   3.827
32216W        W  610  34.355  26.927  13.541
32217W        W  611  27.806  35.805   1.845
32218W        W  612  21.340  11.782   3.553
32219W        W  613  17.923   8.378  10.202
32220W        W  614  18.184  14.098   1.775
32221W        W  615  11.751  12.107   0.125
32222W        W  616  34.893  11.442   1.870
32223W        W  617   1.580  34.358   1.498
32224W        W  618   8.417   1.713   3.152
32225W        W  619  12.721   7.617  10.430
32226W        W  620  37.390  19.877   1.598
32227W        W  621  10.297   8.851  14.485
32228W        W  622  24.048   4.764   2.783
32229W        W  623   3.700  24.997  11.748
32230W        W  624  38.530   5.477  13.034
32231W        W  625  12.377   8.303   1.802
32232W        W  626  44.507   3.980   2.146
32233W        W  627  35.889  35.620  13.630
32234W        W  628  34.893   8.843  12.029
32235W        W  629  36.859  10.357  14.927
32236W        W  630  24.649   9.865   0.123
32237W        W  631  43.771  34.356   0.692
32238W        W  632  21.233  21.547   1.698
32239W        W  633  37.879  43.294  14.042
32240W        W  634  14.318   2.042   0.526
32241W        W  635  17.802  11.275   3.751
32242W        W  636  13.835  23.644  11.416
32243W        W  637  16.086   1.064  13.876
32244W        W  638  25.987  23.541   1.929
32245W        W  639  31.757   8.984  10.672
32246W        W  640  28.112   4.846   2.154
32247W        W  641  11.180  30.172  13.548
32248W        W  642   5.975  37.028  12.127
32249W        W  643   9.140   9.387   1.992
32250W        W  644   4.544  30.803  10.468
32251W        W  645  26.298  35.330   3.866
32252W        W  646   3.739  33.164   1.393
32253W        W  647  36.989  38.915   0.910
32254W        W  648  34.898  34.525   4.385
32255W        W  649  15.527  31.909  14.794
32256W        W  650   2.510  22.091   4.480
32257W        W  651  33.540  25.475  10.718
32258W        W  652  34.427  16.127   3.967
32259W        W  653  29.659  38.536  12.079
32260W        W  654  41.000  31.670   0.911
32261W        W  655  22.481   3.713  12.455
32262W        W  656  33.079  28.438  12.938
32263W        W  657  16.449  28.237  11.081
32264W        W  658  18.315  22.475  12.529
32265W        W  659  24.682  29.312  11.627
32266W        W  660  33.126   4.713  13.965
32267W        W  661   5.610  40.284  11.240
32268W        W  662  33.687   6.864  11.170
32269W        W  663   2.823  29.062   2.462
32270W        W  664  30.252   1.471   3.661
32271W        W  665  18.011  22.058   2.076
32272W        W  666  35.575  23.135  11.991
32273W        W  667  44.656   3.415  14.728
32274W        W  668  30.557  33.421   1.838
32275W        W  669  24.926  36.833  13.905
32276W        W  670  13.061   2.421   3.882
32277W        W  671  30.972  44.212  11.141
32278W        W  672  13.087   7.705   0.793
32279W        W  673  32.032  44.434   3.317
32280W        W  674   7.087  25.232  13.573
32281W        W  675  44.849   0.584  11.082
32282W        W  676  29.740  17.599   2.709
32283W        W  677   5.916  26.538   4.544
32284W        W  678   2.395  43.912  14.622
32285W        W  679   3.091   7.216   2.302
32286W        W  680  44.836  11.083  11.120
32287W        W  681  32.387   3.895   1.008
32288W        W  682  27.514   1.634   5.002
32289W        W  683  22.589  23.468  14.320
32290W        W  684   2.765  18.529  11.565
32291W        W  685  15.679  35.623   2.197
32292W        W  686   6.944  30.448   3.687
32293W        W  687   8.406  25.639   3.677
32294W        W  688  17.941  23.161   3.642
32295W        W  689   8.623   3.436   1.373
32296W        W  690  35.495  44.395   1.943
32297W        W  691  20.336   9.911  12.839
32298W        W  692  32.834  13.037  13.300
32299W        W  693  43.746  10.128   3.935
32300W        W  694  37.631  30.115   0.969
32301W        W  695  22.217   1.886  11.669
32302W        W  696   4.144  42.316  12.665
32303W        W  697  42.735  16.214  14.842
32304W        W  698  15.397  36.022  11.004
32305W        W  699  44.910   4.885   4.712
32306W        W  700   7.662  22.526  14.937
32307W        W  701  12.260  44.263   0.325
32308W        W  702  14.273  32.072  14.426
32309W        W  703   6.237  17.468  11.562
32310W        W  704  25.483  22.068   2.460
32311W        W  705  15.935  20.206  12.592
32312W        W  706  32.881   0.164  14.146
32313W        W  707  35.330   7.362   2.439
32314W        W  708  43.580  37.567   3.499
32315W        W  709  36.037  13.811   1.876
32316W        W  710  12.699  43.055   3.275
32317W        W  711  42.365  19.291   3.183
32318W        W  712  23.428   8.641   1.821
32319W        W  713  21.030  23.554   4.142
32320W        W  714  24.825  24.555  11.584
32321W        W  715  12.484   3.945  10.669
32322W        W  716  34.184  10.241   1.021
32323W        W  717  14.099  28.564   3.260
32324W        W  718  14.658  23.647  11.385
32325W        W  719   8.677  32.555  13.475
32326W        W  720  16.223  43.230  11.427
32327W        W  721  15.377  14.416  10.666
32328W        W  722  12.195  10.442   4.159
32329W        W  723  30.437  41.812   2.753
32330W        W  724  20.088  25.017  10.738
32331W        W  725  26.006   3.184   0.446
32332W        W  726  29.932  15.857   1.908
32333W        W  727  26.905  44.278  11.957
32334W        W  728   7.403  28.426   0.859
32335W        W  729  33.358  10.903  10.374
32336W        W  730  30.926  11.074   4.213
32337W        W  731  23.550   7.328   3.965
32338W        W  732  25.700  20.675   2.875
32339W        W  733  43.420   7.560  12.249
32340W        W  734  39.960  23.971  12.833
32341W        W  735   6.417  28.394   2.805
32342W        W  736  44.821  21.643  13.821
32343W        W  737  39.821  12.748  14.957
32344W        W  738   8.894   9.154   2.673
32345W        W  739  41.537   3.299  13.055
32346W        W  740  26.099   9.638   3.613
32347W        W  741  29.700  39.106  12.969
32348W        W  742  21.530  29.204   1.548
32349W        W  743  29.971   0.744  13.370
32350W        W  744  21.534  16.778  13.307
32351W        W  745  13.592  37.357  11.676
32352W        W  746   6.425  42.120   2.206
32353W        W  747   1.871  16.610  14.701
32354W        W  748  43.006  16.157  14.316
32355W        W  749   0.681   1.269   2.838
32356W        W  750   2.917  19.043   0.411
32357W        W  751  32.928  40.329   2.421
32358W        W  752  21.517   6.351  12.501
32359W        W  753   5.932  35.996   3.206
32360W        W  754  26.108  42.089   0.881
32361W        W  755  21.164   6.801   4.136
32362W        W  756  26.992  21.978   3.330
32363W        W  757   6.204   7.948   1.354
32364W        W  758  19.682  38.514  13.012
32365W        W  759  30.720   8.010  12.549
32366W        W  760  30.041  25.469  12.476
32367W        W  761  30.046   0.337  10.897
32368W        W  762  16.649  18.494   1.789
32369W        W  763  23.731   8.294  11.538
32370W        W  764  25.242  41.098  11.454
32371W        W  765  33.190  40.942  14.801
32372W        W  766  21.241  38.168   2.980
32373W        W  767  23.981  44.123   4.704
32374W        W  768  37.914  15.787   3.698
32375W        W  769  36.937   2.883   3.115
32376W        W  770  20.945  27.972   2.327
32377W        W  771  14.192  25.666   0.254
32378W        W  772  39.599  31.214   3.084
32379W        W  773  34.848  16.798  14.832
32380W        W  774  19.163  11.263   2.622
32381W        W  775  33.267  15.610  11.826
32382W        W  776  21.130  37.402  11.608
32383W        W  777  35.870  38.799  11.527
32384W        W  778  30.707  37.817  13.545
32385W        W  779   3.951  44.366   2.183
32386W        W  780   5.638  25.597   2.632
32387W        W  781  24.678  35.058  13.329
32388W        W  782  44.975  33.987   1.739
32389W        W  783  34.489  10.403   2.636
32390W        W  784  37.832  25.483  10.659
32391W        W  785   2.737  10.934   1.394
32392W        W  786  24.696  35.495   4.556
32393W        W  787  27.443   2.873   2.620
32394W        W  788   3.947   5.813  10.613
32395W        W  789   6.186  28.119  13.553
32396W        W  790  23.401  40.609  13.002
32397W        W  791  39.008  17.310  10.645
32398W        W  792  24.588  25.491  12.934
32399W        W  793  35.413  40.537  11.759
32400W        W  794   3.266  25.236   2.349
32401W        W  795  23.175  12.432  12.825
32402W        W  796  13.185  20.517  13.981
32403W        W  797  18.635  22.667  11.601
32404W        W  798  43.019  29.535   2.383
32405W        W  799  26.994  15.264   4.187
32406W        W  800   4.402  26.903   9.432
32407W        W  801  40.304  25.156   1.719
32408W        W  802  34.890  40.361  10.662
32409W        W  803  16.686   6.487   3.426
32410W        W  804   0.450  28.450   0.379
32411W        W  805  42.955  17.097  10.465
32412W        W  806  13.589  34.558  14.482
32413W        W  807  11.322  29.570  14.807
32414W        W  808  15.037  23.050   3.228
32415W        W  809  37.123  31.649  10.630
32416W        W  810  41.316  34.445   2.018
32417W        W  811   1.866  26.075  10.720
32418W        W  812  32.687  27.954   0.871
32419W        W  813   7.407   3.969  14.397
32420W        W  814  42.226  29.947  11.220
32421W        W  815  31.050  31.138  12.439
32422W        W  816  42.243  11.334  13.833
32423W        W  817  32.526  32.967  13.336
32424W        W  818  23.791  22.477  14.425
32425W        W  819   2.545  40.073   1.914
32426W        W  820   2.994  21.549   4.759
32427W        W  821  11.327  14.736   3.045
32428W        W  822   6.609   7.789   0.275
32429W        W  823  28.079   6.056  12.987
32430W        W  824  20.460  15.035  11.263
32431W        W  825   1.378   7.512   3.972
32432W        W  826  12.881  11.286   2.242
32433W        W  827  10.220  27.641  11.758
32434W        W  828  10.886  10.196  12.434
32435W        W  829  26.488  20.743   2.077
32436W        W  830  26.163   7.667   3.814
32437W        W  831  11.324   7.491   4.659
32438W        W  832  39.112  39.921  13.560
32439W        W  833  32.031  14.599  12.177
32440W        W  834  15.175  22.157   3.357
32441W        W  835   6.642  25.662   2.888
32442W        W  836  18.180  19.229   5.292
32443W        W  837  16.751   1.377  14.846
32444W        W  838   9.392   0.031   4.164
32445W        W  839  42.262  27.201  11.684
32446W        W  840  33.645  13.055   1.770
32447W        W  841   4.476  26.925  13.487
32448W        W  842  16.674  14.771  10.681
32449W        W  843  27.636   1.350   0.205
32450W        W  844  26.005  17.059   3.322
32451W        W  845  34.843  34.520   0.116
32452W        W  846  31.296  31.640  11.626
32453W        W  847  31.008  19.844   1.779
32454W        W  848  32.871  13.289  14.964
32455W        W  849   4.014  11.360   3.182
32456W        W  850  25.090  28.581   3.273
32457W        W  851   6.378   0.493  12.112
32458W        W  852  20.764  19.148  11.584
32459W        W  853  25.268  14.304   2.940
32460W        W  854  43.845  39.491   3.616
32461W        W  855   1.924  44.315  14.837
32462W        W  856  31.946  26.240   3.910
32463W        W  857  18.141  30.650   1.163
32464W        W  858   1.553  16.681  10.529
32465W        W  859   1.752   2.151  12.780
32466W        W  860  25.582  24.750  13.847
32467W        W  861   5.334  14.368   0.352
32468W        W  862  34.672   4.752  10.762
32469W        W  863  15.692  38.269  13.932
32470W        W  864  24.563  42.229  14.397
32471W        W  865  32.935  41.904   4.197
32472W        W  866  40.020   5.866   4.505
32473W        W  867  34.103   6.689   2.842
32474W        W  868  15.603  29.445   2.310
32475W        W  869   2.588  34.605  11.364
32476W        W  870  31.862   0.757   2.990
32477W        W  871  27.275   7.738  12.485
32478W        W  872  31.517   1.998  13.860
32479W        W  873  16.058  40.480  14.078
32480W        W  874   6.292  18.106   2.215
32481W        W  875  24.239  42.619  12.341
32482W        W  876   1.396   8.876  12.462
32483W        W  877   2.352  33.651  11.509
32484W        W  878  36.788  23.628  11.962
32485W        W  879  10.593  38.756   2.484
32486W        W  880  22.315   6.217   2.576
32487W        W  881   5.808  16.459   1.943
32488W        W  882  36.400   8.052  10.804
32489W        W  883  19.142  13.864  11.161
32490W        W  884  23.101  12.382   3.201
32491W        W  885  33.680  38.288   4.596
32492W        W  886  40.539  31.630  13.519
32493W        W  887   1.785  33.365  14.142
32494W        W  888  34.810  24.341   4.103
32495W        W  889  26.294   8.198  14.793
32496W        W  890   0.521   0.341  14.379
32497W        W  891  27.199   6.291  13.546
32498W        W  892  20.687  37.552  11.375
32499W        W  893  22.754  30.558  14.982
32500W        W  894   9.016  31.884   2.402
32501W        W  895   6.352  43.820  11.668
32502W        W  896  24.097  43.470   0.704
32503W        W  897   9.472  18.465  13.268
32504W        W  898  28.196  18.013  11.802
32505W        W  899  10.301  41.770   4.230
32506W        W  900   1.788   1.760   4.192
32507W        W  901   3.846  32.473   0.390
32508W        W  902   1.924  13.394   4.115
32509W        W  903  24.676  32.135  14.910
32510W        W  904  11.515  14.622  10.505
32511W        W  905  37.521   8.495   3.351
32512W        W  906   4.540  35.475  13.393
32513W        W  907  24.517  36.457  12.080
32514W        W  908  43.890  17.375   4.791
32515W        W  909   7.097  42.693   4.489
32516W        W  910   0.956  38.672  12.018
32517W        W  911  28.725  32.384   0.846
32518W        W  912   6.070  31.712  14.748
32519W        W  913  26.215  31.684   0.945
32520W        W  914  24.739  19.451   1.161
32521W        W  915  34.474  39.247  12.135
32522W        W  916  43.863   8.043  12.798
32523W        W  917  37.944   3.214  12.913
32524W        W  918  22.543  28.605   2.454
32525W        W  919   4.357   9.682  14.578
32526W        W  920  34.545  30.438  11.660
32527W        W  921  32.654  23.621   3.661
32528W        W  922  39.337  34.290   3.506
32529W        W  923  41.817  43.795   1.301
32530W        W  924  23.981  28.750  10.330
32531W        W  925  16.369   2.449   3.283
32532W        W  926  33.916  13.939  12.510
32533W        W  927  37.338   2.018   4.131
32534W        W  928  39.024  29.933   0.911
32535W        W  929  36.552  12.853   3.842
32536W        W  930  27.618  22.555  11.677
32537W        W  931  39.118  40.064  10.306
32538W        W  932  26.233  40.015   3.044
32539W        W  933  40.910  22.161  10.593
32540W        W  934  24.425   7.380  10.688
32541W        W  935  17.598  18.573   2.167
32542W        W  936   1.460  23.898  10.726
32543W        W  937  14.898  29.570  12.229
32544W        W  938  28.265  39.146  14.307
32545W        W  939  13.824  42.314   3.461
32546W        W  940  35.261  43.890   2.637
32547W        W  941  28.704  40.764  14.359
32548W        W  942  29.198  29.470  12.039
32549W        W  943   8.513  22.299  12.067
32550W        W  944  36.144  39.329   1.708
32551W        W  945  29.731  36.869   2.880
32552W        W  946  36.159  39.858   1.706
32553W        W  947  19.897  27.464   0.729
32554W        W  948  41.291  24.473  12.925
32555W        W  949  23.218  13.879   0.578
32556W        W  950   3.326   3.750  12.482
32557W        W  951  11.984  10.730   3.108
32558W        W  952   7.560  10.085  12.928
32559W        W  953  31.002  14.685  14.750
32560W        W  954  21.804  42.369   4.145
32561W        W  955  38.461  17.923   1.686
32562W        W  956  43.860   2.953   3.564
32563W        W  957  28.432  24.117   2.966
32564W        W  958  30.629  36.443   4.218
32565W        W  959  16.725  37.504   1.827
32566W        W  960  15.768  39.627   3.589
32567W        W  961  18.864  29.604  11.993
32568W        W  962  25.662   3.600   0.388
32569W        W  963   8.572  44.349   4.109
32570W        W  964  25.067  38.215   0.751
32571W        W  965  39.662   0.759   3.767
32572W        W  966  19.066  35.150   3.996
32573W        W  967  15.103   9.362   1.396
32574W        W  968   1.637  29.921  12.509
32575W        W  969   0.245  19.644  12.197
32576W        W  970  43.748  13.242   0.999
32577W        W  971   0.210  24.814  11.842
32578W        W  972  25.014  34.782  11.295
32579W        W  973  31.648  38.817   1.285
32580W        W  974  10.893  13.754   4.364
32581W        W  975  20.117   5.758   3.061
32582W        W  976  39.469   7.170  13.060
32583W        W  977  33.432  10.914  11.644
32584W        W  978  27.005  26.881  14.198
32585W        W  979  30.588  16.766  14.035
32586W        W  980  22.730  31.687   2.305
32587W        W  981  31.358  17.118  13.822
32588W        W  982  42.683  24.928   2.945
32589W        W  983  33.150  12.148   0.421
32590W        W  984  29.297   8.095   3.177
32591W        W  985  39.160  32.506   3.388
32592W        W  986  44.258  17.287   2.155
32593W        W  987  22.654  41.964   2.148
32594W        W  988  16.743  44.710   3.126
32595W        W  989  25.150  43.558   0.283
32596W        W  990  30.447  32.454   4.440
32597W        W  991  30.550  13.200   1.228
32598W        W  992   9.326  39.898   3.643
32599W        W  993   7.411  26.924  12.874
32600W        W  994  39.021  18.710  12.340
32601W        W  995   9.698  27.465   1.759
32602W        W  996  26.958   4.915   0.088
32603W        W  997  20.247  11.733  10.648
32604W        W  998  41.524  38.458   2.354
32605W        W  999  35.129  18.213   0.912
32606W        W 1000  26.193  21.988   2.796
32607W        W 1001  28.685  32.076  14.860
32608W        W 1002   3.987  20.025   2.709
32609W        W 1003  43.808  12.385  11.467
32610W        W 1004  22.074  10.580  12.021
32611W        W 1005  26.459   2.889   3.011
32612W        W 1006  25.733  24.466   1.411
32613W        W 1007   0.891  40.170   5.044
32614W        W 1008   9.254  39.405   2.327
32615W        W 1009  19.537  39.809   3.335
32616W        W 1010  32.048   0.862   4.574
32617W        W 1011  27.626  21.266  10.275
32618W        W 1012   3.486  25.599  11.969
32619W        W 1013  20.729   4.274   0.898
32620W        W 1014   3.899  17.489   0.582
32621W        W 1015  17.125  21.817  14.052
32622W        W 1016  40.634  11.608  12.207
32623W        W 1017  29.190  27.216   2.292
32624W        W 1018  39.363  35.071   0.757
32625W        W 1019  30.123  33.918  10.634
32626W        W 1020  34.621  37.577   3.557
32627W        W 1021  28.594  41.935  14.268
32628W        W 1022  15.856  23.220  13.565
32629W        W 1023  19.558  10.660   0.888
32630W        W 1024  31.596  42.800  11.123
32631W        W 1025  39.926  38.060  14.760
32632W        W 1026  14.916   8.201  14.905
32633W        W 1027   8.259   0.919  12.929
32634W        W 1028   2.657  43.393  11.707
32635W        W 1029  34.129   3.991  12.549
32636W        W 1030  18.678  29.492   1.797
32637W        W 1031   6.514  17.934  13.458
32638W        W 1032  13.766  44.012   1.652
32639W        W 1033  38.607   0.826   3.686
32640W        W 1034  38.849  27.561   3.719
32641W        W 1035  29.068  18.772   3.329
32642W        W 1036  23.645   5.634  13.986
32643W        W 1037  23.671  13.707  12.122
32644W        W 1038  13.959  43.402   2.751
32645W        W 1039  32.564  36.039   4.531
32646W        W 1040  40.765  22.699  11.673
32647W        W 1041   9.870  30.960   4.554
32648W        W 1042  38.572  10.592  14.829
32649W        W 1043  33.249  21.881  14.322
32650W        W 1044  25.829  42.539  13.090
32651W        W 1045  28.517  43.354   2.787
32652W        W 1046  36.007  30.112   3.353
32653W        W 1047  21.802  35.351  11.670
32654W        W 1048   5.752  28.910  13.490
32655W        W 1049   5.230  38.440  12.564
32656W        W 1050  42.756  25.680   4.400
32657W        W 1051  19.582  41.495   3.741
32658W        W 1052  15.290  30.271   0.002
32659W        W 1053  29.622  25.587   1.959
32660W        W 1054  23.574  25.706  10.678
32661W        W 1055  42.469  33.983  14.879
32662W        W 1056  28.860  33.876  13.959
32663W        W 1057   8.577   7.500   1.220
32664W        W 1058  25.134  27.677   0.823
32665W        W 1059  29.013  12.595   3.224
32666W        W 1060  24.615  40.864  14.546
32667W        W 1061  16.176  15.152   4.073
32668W        W 1062  14.532  37.231   3.920
32669W        W 1063  34.941   2.189  13.598
32670W        W 1064  30.450   5.250  12.611
32671W        W 1065  15.460  40.734   4.114
32672W        W 1066  37.215  42.441   4.152
32673W        W 1067  34.395  19.822  10.711
32674W        W 1068  26.363   9.087  10.210
32675W        W 1069  39.729  26.727  11.827
32676W        W 1070  34.875  13.982  11.437
32677W        W 1071  18.606  22.215  11.150
32678W        W 1072  37.863  21.165   1.391
32679W        W 1073   7.336  18.134  11.578
32680W        W 1074  38.844  17.666  14.491
32681W        W 1075  26.218  15.104   0.850
32682W        W 1076  14.636   9.699   3.850
32683W        W 1077  39.627  16.171   1.669
32684W        W 1078  19.022   4.347  10.601
32685W        W 1079  17.345  34.467   0.300
32686W        W 1080  23.253  32.933   2.416
32687W        W 1081  18.096  39.166  13.866
32688W        W 1082  37.895  41.807  14.780
32689W        W 1083  30.982  24.268   3.584
32690W        W 1084   3.754  33.912  13.408
32691W        W 1085  18.001  12.109  10.393
32692W        W 1086  22.083  10.919  10.699
32693W        W 1087  19.504  34.935   3.223
32694W        W 1088  37.741   3.794  12.010
32695W        W 1089   1.799  31.331  12.408
32696W        W 1090  33.411  32.989   3.648
32697W        W 1091  36.070  11.912  11.093
32698W        W 1092  15.843   6.850   0.321
32699W        W 1093  23.698  28.136   0.784
32700W        W 1094  32.566  23.171   1.247
32701W        W 1095  19.101  14.187   3.432
32702W        W 1096  44.057  33.547  11.050
32703W        W 1097  19.303  17.213   2.229
32704W        W 1098  14.767  10.716  12.803
32705W        W 1099  27.977  30.835  11.758
32706W        W 1100   4.766  14.185  11.077
32707W        W 1101  30.430   9.905  13.894
32708W        W 1102  31.617  12.184  14.464
32709W        W 1103  13.125  25.739   0.204
32710W        W 1104  35.821   6.631   2.202
32711W        W 1105   2.739  40.550  12.110
32712W        W 1106  27.435  37.446   3.057
32713W        W 1107  24.713  22.973  12.898
32714W        W 1108  14.571  44.475  12.636
32715W        W 1109  22.315  32.054   4.187
32716W        W 1110  16.252   6.101  12.655
32717W        W 1111  18.524  27.472  12.842
32718W        W 1112  43.373  39.046  12.444
32719W        W 1113  27.634  36.151   2.191
32720W        W 1114   1.797  22.291   3.277
32721W        W 1115  26.310  21.622  11.530
32722W        W 1116  15.385  14.730   4.320
32723W        W 1117  26.410   0.355  12.504
32724W        W 1118  37.275   0.523  12.627
32725W        W 1119  19.458  34.988  10.644
32726W        W 1120  30.581  27.265   1.456
32727W        W 1121  14.484  40.092   2.818
32728W        W 1122  27.448   2.453  10.682
32729W        W 1123  39.898  30.579  11.007
32730W        W 1124   0.817  23.074   2.201
32731W        W 1125  37.656   3.252   0.985
32732W        W 1126  17.599   9.554   5.096
32733W        W 1127  16.916  28.043  11.113
32734W        W 1128  44.823   1.595  11.155
32735W        W 1129   6.194   4.784   3.376
32736W        W 1130   5.603  16.214   2.353
32737W        W 1131  20.664  42.365   2.445
32738W        W 1132  35.546  12.753  13.031
32739W        W 1133  33.397  36.997  12.327
32740W        W 1134  11.206  16.645   0.010
32741W        W 1135  43.707  27.632  11.497
32742W        W 1136  41.579  38.811  10.362
32743W        W 1137  20.406  19.130  13.651
32744W        W 1138  37.978  13.054   2.003
32745W        W 1139  44.322  21.144  12.378
32746W        W 1140  28.652  22.579   2.599
32747W        W 1141   2.769  38.534  10.691
32748W        W 1142  10.074   0.873  11.465
32749W        W 1143   3.203  28.659  12.115
32750W        W 1144  22.552  40.432   0.700
32751W        W 1145  14.018  15.184  11.659
32752W        W 1146  30.318   5.229   3.616
32753W        W 1147  27.511   0.486  14.849
32754W        W 1148  23.055  31.017  14.300
32755W        W 1149   0.979  31.710  12.294
32756W        W 1150   3.246   6.583   3.711
32757W        W 1151  39.425  36.013   0.393
32758W        W 1152  15.282  18.770   1.886
32759W        W 1153  32.975   8.834  11.575
32760W        W 1154  43.253  16.740  14.002
32761W        W 1155  24.124  11.570  11.645
32762W        W 1156  14.228  11.116  11.287
32763W        W 1157  10.129  11.989   3.178
32764W        W 1158  36.052  42.051   2.760
32765W        W 1159  41.424  41.498   1.345
32766W        W 1160  42.489  27.706   0.215
32767W        W 1161  42.022   2.931  12.555
32768W        W 1162  41.970   5.773  13.018
32769W        W 1163  42.253  26.659  12.539
32770W        W 1164  21.706  17.895   2.322
32771W        W 1165  14.746  35.049  13.611
32772W        W 1166  26.788  31.039   1.344
32773W        W 1167  29.690  22.247   0.873
32774W        W 1168  26.525  43.370  13.894
32775W        W 1169  42.606   8.342  11.669
32776W        W 1170  35.329   9.108   4.346
32777W        W 1171  21.705  24.383  13.386
32778W        W 1172   0.328  44.875  14.257
32779W        W 1173  41.972  42.407  14.430
32780W        W 1174  24.314   7.775   3.996
32781W        W 1175  30.354   7.829   3.252
32782W        W 1176   4.060  20.199  14.418
32783W        W 1177  21.648  39.940   4.973
32784W        W 1178  36.311  41.140   1.764
32785W        W 1179  30.106  31.510   4.245
32786W        W 1180  28.044  40.904   3.248
32787W        W 1181  20.509   7.224  11.517
32788W        W 1182  17.465   5.807   2.288
32789W        W 1183  27.984  13.266  14.886
32790W        W 1184  35.622  32.932   3.731
32791W        W 1185  18.354  17.067   4.068
32792W        W 1186  16.190  22.523   0.815
32793W        W 1187   7.749   3.294  11.625
32794W        W 1188  15.198  43.781   1.071
32795W        W 1189  38.530  13.286  11.877
32796W        W 1190   8.677  39.880   4.405
32797W        W 1191  43.762  18.069   0.580
32798W        W 1192  35.012  21.161   3.146
32799W        W 1193  12.574  21.807  10.836
32800W        W 1194  22.645  37.970   1.234
32801W        W 1195  34.085  25.099   4.202
32802W        W 1196  32.097  36.004  13.538
32803W        W 1197  27.629  30.971  13.249
32804W        W 1198   8.944  15.062  14.474
32805W        W 1199  36.037  17.183   4.465
32806W        W 1200  39.012   2.075  11.602
32807W        W 1201  18.150  16.655   0.925
32808W        W 1202  16.282  28.619  12.239
32809W        W 1203  43.383  44.720  14.634
32810W        W 1204  20.622  20.056   3.849
32811W        W 1205   7.055  27.075   4.138
32812W        W 1206  11.249   8.914   4.390
32813W        W 1207  36.465  18.257   3.801
32814W        W 1208  42.948   6.975  12.989
32815W        W 1209  43.795   3.712   3.083
32816W        W 1210  41.530  24.741  11.627
32817W        W 1211  16.310  17.504   2.405
32818W        W 1212  39.449  43.030   4.182
32819W        W 1213  27.720  22.195   2.815
32820W        W 1214  19.147   2.469   3.680
32821W        W 1215   6.058  16.849  13.467
32822W        W 1216   9.229  41.415  12.599
32823W        W 1217  13.030  13.203   4.104
32824W        W 1218  38.109  38.838  13.978
32825W        W 1219  25.932  32.565   3.192
32826W        W 1220  43.790   1.848   2.862
32827W        W 1221   4.244   6.805   1.865
32828W        W 1222  37.462  23.877   0.151
32829W        W 1223  33.399  35.471   4.627
32830W        W 1224  32.505  32.149  14.395
32831W        W 1225   1.815  35.529  10.726
32832W        W 1226  22.021  23.175  12.693
32833W        W 1227  42.816   2.110   4.304
32834W        W 1228  40.552  38.341   4.588
32835W        W 1229  34.705   2.386  12.027
32836W        W 1230  19.821   9.108   4.094
32837W        W 1231  10.405  13.800  12.097
32838W        W 1232  29.486  43.002   4.131
32839W        W 1233  38.818  41.948  11.402
32840W        W 1234   4.341   4.891  10.501
32841W        W 1235  26.599  18.130  13.889
32842W        W 1236  15.293  33.529   4.086
32843W        W 1237  40.345  31.097   1.732
32844W        W 1238  42.578   4.914   2.609
32845W        W 1239  31.552  23.659   0.931
32846W        W 1240   6.872  19.598  13.478
32847W        W 1241  20.051  32.706   3.799
32848W        W 1242  12.175  18.467   4.697
32849W        W 1243  13.220  24.247   3.880
32850W        W 1244  14.204  21.406  13.727
32851W        W 1245   1.421   0.018   2.592
32852W        W 1246  28.986  35.568   4.768
32853W        W 1247  28.082  22.918  10.560
32854W        W 1248   9.895  41.834  10.553
32855W        W 1249  33.287  40.568   0.144
32856W        W 1250  20.532  40.674   2.883
32857W        W 1251   1.879  32.034   2.080
32858W        W 1252  22.102  17.260  12.922
32859W        W 1253  20.896  37.656   5.014
32860W        W 1254  22.462  35.588  14.821
32861W        W 1255  27.466  40.127   1.988
32862W        W 1256  33.206  13.850   3.313
32863W        W 1257  39.441  25.439   2.709
32864W        W 1258  43.996  22.309  13.860
32865W        W 1259  41.983  18.665   2.408
32866W        W 1260   8.157   9.836   3.361
32867W        W 1261  34.438  32.503  12.016
32868W        W 1262  43.621  14.875   4.708
32869W        W 1263  40.464  20.109   4.926
32870W        W 1264  30.035  11.107  11.160
32871W        W 1265   9.748  15.122  10.646
32872W        W 1266   6.252   4.399   4.580
32873W        W 1267  35.958  29.251   3.971
32874W        W 1268  32.955  13.844   2.842
32875W        W 1269  30.947  35.843   2.874
32876W        W 1270  35.254  32.100   0.427
32877W        W 1271  36.922   5.258   2.213
32878W        W 1272  44.822  44.601  13.191
32879W        W 1273  38.079  35.428   0.275
32880W        W 1274   6.294  35.622  14.961
32881W        W 1275  35.389  27.197   1.965
32882W        W 1276   6.773  15.672  10.097
32883W        W 1277   5.191  41.915  13.470
32884W        W 1278  34.737  17.879  10.952
32885W        W 1279  23.774   9.857  10.988
32886W        W 1280  23.341  21.930  13.963
32887W        W 1281  24.988  13.136  11.239
32888W        W 1282  32.157  12.219   4.198
32889W        W 1283  12.967   4.795   0.863
32890W        W 1284  36.213  19.586   0.668
32891W        W 1285  38.098   0.343   0.847
32892W        W 1286  25.145   3.368  14.476
32893W        W 1287   5.303   9.280   2.209
32894W        W 1288  32.605  27.896   2.149
32895W        W 1289  19.396  25.254  13.699
32896W        W 1290  43.372  33.843   3.484
32897W        W 1291  11.900  30.750  14.241
32898W        W 1292  43.099  40.519  13.440
32899W        W 1293  33.597   3.265  14.664
32900W        W 1294  21.180  14.264   0.296
32901W        W 1295  15.711  34.834   3.899
32902W        W 1296  38.429  10.259   4.523
32903W        W 1297  20.727  38.045  12.846
32904W        W 1298  15.224   7.646   4.093
32905W        W 1299  10.072  11.788  10.719
32906W        W 1300  25.625   2.169   2.207
32907W        W 1301  41.567  40.093  13.873
32908W        W 1302  43.354  16.579   2.815
32909W        W 1303  38.534  31.006   3.177
32910W        W 1304  36.328   6.720  12.873
32911W        W 1305  37.568  27.640  10.586
32912W        W 1306   8.314  40.819   1.686
32913W        W 1307  30.937  35.331   3.648
32914W        W 1308  14.368   4.672   1.351
32915W        W 1309  39.406  16.724   3.956
32916W        W 1310  32.220  32.979  12.881
32917W        W 1311  27.924  42.947  11.206
32918W        W 1312  26.164  25.643  11.137
32919W        W 1313  35.556   2.394  10.766
32920W        W 1314   5.927  26.625  11.397
32921W        W 1315  36.936  41.543   3.928
32922W        W 1316   9.468  20.292  13.808
32923W        W 1317  25.454  42.049  12.088
32924W        W 1318  11.694   0.457   3.475
32925W        W 1319   6.911  40.409  13.853
32926W        W 1320  30.175  13.735  12.912
32927W        W 1321  12.528  30.702  12.547
32928W        W 1322   3.745   4.811   0.394
32929W        W 1323  37.029  22.051   3.808
32930W        W 1324  37.347  34.855  11.069
32931W        W 1325  13.330  24.171  11.044
32932W        W 1326  11.124  14.554   4.660
32933W        W 1327   2.698  27.140   4.537
32934W        W 1328  13.821   1.064   2.888
32935W        W 1329  22.279   2.940   3.340
32936W        W 1330  28.802  27.851  11.614
32937W        W 1331   6.700   1.921   4.990
32938W        W 1332  39.837  35.657   0.549
32939W        W 1333  29.486  37.803  14.056
32940W        W 1334   6.700  38.752   0.766
32941W        W 1335  44.254   2.836   0.905
32942W        W 1336   6.774  39.865  13.781
32943W        W 1337  42.336   3.631  14.270
32944W        W 1338  27.081  27.847  13.987
32945W        W 1339  32.379  21.761  10.646
32946W        W 1340  32.260  36.576  14.010
32947W        W 1341  21.005  17.873  12.049
32948W        W 1342  37.434  11.828   1.966
32949W        W 1343  41.248  16.687  13.743
32950W        W 1344  40.894  15.032   4.921
32951W        W 1345  10.368   3.146   1.321
32952W        W 1346   5.926  21.546   1.007
32953W        W 1347  21.181   5.972   1.970
32954W        W 1348  40.342  40.720   0.484
32955W        W 1349  25.075  27.320   2.274
32956W        W 1350  25.490   7.210  10.741
32957W        W 1351  20.055  24.314  13.847
32958W        W 1352  29.158  43.115   1.607
32959W        W 1353  23.746  42.899   4.562
32960W        W 1354  23.061  44.664   0.283
32961W        W 1355  35.872  26.423  11.706
32962W        W 1356  25.210  24.781  10.817
32963W        W 1357   1.917   5.966  11.585
32964W        W 1358  23.630  32.095  11.938
32965W        W 1359  26.652  26.915  10.661
32966W        W 1360  27.949   4.273  10.656
32967W        W 1361  21.557  36.571   2.022
32968W        W 1362  29.673  31.076  14.877
32969W        W 1363  36.033  12.830  14.838
32970W        W 1364  11.374  37.561  14.971
32971W        W 1365  36.248   7.462  13.458
32972W        W 1366  34.536  43.004  14.330
32973W        W 1367  24.165  35.785  13.557
32974W        W 1368  43.513  10.273   0.379
32975W        W 1369   5.776  32.140  13.988
32976W        W 1370  20.331  15.570  11.989
32977W        W 1371   7.806  33.060  11.334
32978W        W 1372   2.051  29.520   4.640
32979W        W 1373   3.995  30.597  10.630
32980W        W 1374   6.251   3.373  11.116
32981W        W 1375  36.430  21.766  12.389
32982W        W 1376  30.504  16.703  11.404
32983W        W 1377   7.477  42.679  13.418
32984W        W 1378   3.529   6.830   3.106
32985W        W 1379  35.874  27.997   0.740
32986W        W 1380  38.293   6.639   0.404
32987W        W 1381   6.868  10.587  12.148
32988W        W 1382  38.764  18.367   1.209
32989W        W 1383  33.033  37.116  14.496
32990W        W 1384  28.533  12.363  13.990
32991W        W 1385  30.705  11.242   3.590
32992W        W 1386  23.926  31.023  12.536
32993W        W 1387   4.709  40.832   2.191
32994W        W 1388  23.827  23.664  10.561
32995W        W 1389  27.223  32.037   3.670
32996W        W 1390  23.013  24.478   2.062
32997W        W 1391  22.478  15.898   2.975
32998W        W 1392  28.036  41.065  12.061
32999W        W 1393  28.820  44.993  14.931
33000W        W 1394  11.164  32.699   2.152
33001W        W 1395  25.938  20.845   0.782
33002W        W 1396  31.986  32.945  12.423
33003W        W 1397  13.718  15.715   0.795
33004W        W 1398  22.723   7.933  14.938
33005W        W 1399  14.821  17.150   1.687
33006W        W 1400   3.376  29.534   3.402
33007W        W 1401  10.272  29.829   3.864
33008W        W 1402  17.308  15.188   3.422
33009W        W 1403  17.582  32.479  10.495
33010W        W 1404  44.895  44.652   0.510
33011W        W 1405  17.122  19.766  14.066
33012W        W 1406  23.457   3.992   4.237
33013W        W 1407  24.742  17.957   1.266
33014W        W 1408  15.224  26.249  10.687
33015W        W 1409  43.817   4.657   4.198
33016W        W 1410  16.588  22.183   2.679
33017W        W 1411  29.170   5.816  12.916
33018W        W 1412  36.921  19.125   1.660
33019W        W 1413  28.476  20.568   1.887
33020W        W 1414  26.746  35.546   3.270
33021W        W 1415  38.476  35.753  12.593
33022W        W 1416   1.352  22.593   0.434
33023W        W 1417  38.678  40.557   2.383
33024W        W 1418  25.219  14.757  10.726
33025W        W 1419  23.269  23.157  13.001
33026W        W 1420   8.953  44.216  11.234
33027W        W 1421   0.029  34.544  10.780
33028W        W 1422  42.256  24.244  13.441
33029W        W 1423  12.281  37.176   3.771
33030W        W 1424   8.440  15.269  10.332
33031W        W 1425  17.773  22.671   4.708
33032W        W 1426  15.664   3.356  14.433
33033W        W 1427  26.648   4.715  11.638
33034W        W 1428  34.650  15.731   3.636
33035W        W 1429   6.386  37.124  14.237
33036W        W 1430  28.431   7.126   0.278
33037W        W 1431  42.123  16.853   2.472
33038W        W 1432  37.966  36.343  11.098
33039W        W 1433  41.766  38.377   4.225
33040W        W 1434   2.994  30.887   2.175
33041W        W 1435  41.771   1.957   0.892
33042W        W 1436  20.666  34.282  13.338
33043W        W 1437  41.240   5.375   3.352
33044W        W 1438  41.522  23.973  11.918
33045W        W 1439  33.153  40.777   1.677
33046W        W 1440   9.041  33.396  10.235
33047W        W 1441   6.737  11.043  12.351
33048W        W 1442  17.194  27.263  13.584
33049W        W 1443  31.347  16.123  11.144
33050W        W 1444  37.349  11.568   4.189
33051W        W 1445  30.600  21.010   0.005
33052W        W 1446   5.756  36.368  12.195
33053W        W 1447   5.858  12.357  14.293
33054W        W 1448  23.213  39.043  11.341
33055W        W 1449  40.681   4.796  11.205
33056W        W 1450  40.332  32.966   2.839
33057W        W 1451   4.990  21.700   1.516
33058W        W 1452  35.050   0.906   0.087
33059W        W 1453  39.507  37.273   2.317
33060W        W 1454  23.542  42.098  13.487
33061W        W 1455   8.637  19.217   2.191
33062W        W 1456  31.619  25.352   0.286
33063W        W 1457  32.247  11.817   0.010
33064W        W 1458  36.546   0.364   4.153
33065W        W 1459   2.695  14.639  12.552
33066W        W 1460  11.089  29.577   1.520
33067W        W 1461  25.126  38.913  13.032
33068W        W 1462   9.351   9.139  11.304
33069W        W 1463  40.234  14.758   4.351
33070W        W 1464  40.418   6.416   0.183
33071W        W 1465   5.289   3.695   0.262
33072W        W 1466  16.732  36.210  14.318
33073W        W 1467  17.942   5.942   2.178
33074W        W 1468   1.019  42.400   3.392
33075W        W 1469   3.923  22.018   1.266
33076W        W 1470   4.479  40.621   0.937
33077W        W 1471   4.616  11.880  11.108
33078W        W 1472  13.318  41.003   1.841
33079W        W 1473  28.630  17.333  12.127
33080W        W 1474   6.280   3.186   2.130
33081W        W 1475  35.799  26.107  11.304
33082W        W 1476  17.236  39.240   5.041
33083W        W 1477  42.544  26.764  10.272
33084W        W 1478  41.259  21.132  11.472
33085W        W 1479  34.501  31.722   0.969
33086W        W 1480  24.262  13.884   4.065
33087W        W 1481   5.178  41.975   3.081
33088W        W 1482  22.621  20.138   4.617
33089W        W 1483  18.725   3.482  10.245
33090W        W 1484   8.188  31.215   1.684
33091W        W 1485  40.341  35.891  11.693
33092W        W 1486  14.712  30.815  11.657
33093W        W 1487  39.585  14.645  14.788
33094W        W 1488  15.328  13.710  11.228
33095W        W 1489  33.824  36.603  10.954
33096W        W 1490  10.399  30.067   2.873
33097W        W 1491  25.559  20.032   0.989
33098W        W 1492   2.133  30.781   3.710
33099W        W 1493  32.886  26.572   0.857
33100W        W 1494  37.139  44.626  13.934
33101W        W 1495  23.252   8.130   4.770
33102W        W 1496   0.779  36.547  12.375
33103W        W 1497  11.230  20.185   3.121
33104W        W 1498  40.546  41.920  14.460
33105W        W 1499   2.162  41.360   1.892
33106W        W 1500  30.793  27.950   4.258
33107W        W 1501  18.302  18.245   3.137
33108W        W 1502  14.055  42.688   0.333
33109W        W 1503   0.211  34.895  13.022
33110W        W 1504   1.737   6.326   2.840
33111W        W 1505  27.958   4.844   3.153
33112W        W 1506  10.727  12.263  14.245
33113W        W 1507  33.533   2.833  12.350
33114W        W 1508   9.406  13.746  12.006
33115W        W 1509   5.869  19.681  11.559
33116W        W 1510  18.379  13.836  14.787
33117W        W 1511  38.925  35.829  11.854
33118W        W 1512  14.613  31.936  13.832
33119W        W 1513   3.401  31.322  12.026
33120W        W 1514  39.043  12.367   2.180
33121W        W 1515  23.599  24.922   4.839
33122W        W 1516  25.228  39.039  11.578
33123W        W 1517  13.646   3.810  11.974
33124W        W 1518  41.418  26.711   2.126
33125W        W 1519  17.128  41.524   1.244
33126W        W 1520  39.055  42.052  14.335
33127W        W 1521  43.841   7.623  12.523
33128W        W 1522  26.669  37.066   1.383
33129W        W 1523  36.472  27.692  14.926
33130W        W 1524  24.198   9.760  11.522
33131W        W 1525  18.640   8.347  13.552
33132W        W 1526  18.004  19.559   4.162
33133W        W 1527  23.617  44.080  13.419
33134W        W 1528  14.516  29.113  14.357
33135W        W 1529   2.111  20.679  11.517
33136W        W 1530  16.256  40.938  13.940
33137W        W 1531  12.852  20.199   4.184
33138W        W 1532  15.273  22.522  12.423
33139W        W 1533  32.401   4.929  14.477
33140W        W 1534   0.858  40.164   3.226
33141W        W 1535  17.204   9.060  13.803
33142W        W 1536   3.994  24.142  10.306
33143W        W 1537  35.144  33.581  13.430
33144W        W 1538  44.860  18.541  11.676
33145W        W 1539  28.691  30.563   1.268
33146W        W 1540  26.185  15.071  14.526
33147W        W 1541  20.101  37.423  13.301
33148W        W 1542   6.607  43.490  10.643
33149W        W 1543   3.016  38.292   4.106
33150W        W 1544  10.256  37.296   5.001
33151W        W 1545  38.265  42.370   1.423
33152W        W 1546  17.244  33.160   4.764
33153W        W 1547  16.803  16.367  13.855
33154W        W 1548  17.161  19.725   3.435
33155W        W 1549   3.213  18.630   0.796
33156W        W 1550  27.849  29.479  12.486
33157W        W 1551  12.821  40.594   0.051
33158W        W 1552  19.611  42.987  12.617
33159W        W 1553   7.317   9.370   1.709
33160W        W 1554  22.764   7.485   9.997
33161W        W 1555  22.104   4.726   4.838
33162W        W 1556  13.742  25.640   2.826
33163W        W 1557  42.018  26.084   1.795
33164W        W 1558  32.594  41.489   4.289
33165W        W 1559  37.042  18.462   0.533
33166W        W 1560   7.697  19.965   4.270
33167W        W 1561   9.416  27.585   3.249
33168W        W 1562  32.606  16.007   4.624
33169W        W 1563  14.087  33.548   2.649
33170W        W 1564  34.416  25.694  12.797
33171W        W 1565  27.693  12.182  11.148
33172W        W 1566   2.366  30.799   5.026
33173W        W 1567  26.140   3.675   0.533
33174W        W 1568  27.959  23.736  13.903
33175W        W 1569  12.672  27.376   0.513
33176W        W 1570  35.101   0.378  13.817
33177W        W 1571  25.545  34.749   1.768
33178W        W 1572  16.851   1.399   0.783
33179W        W 1573   8.244   9.999  11.522
33180W        W 1574  27.953  10.283   4.159
33181W        W 1575   5.170  20.815   0.453
33182W        W 1576   7.113   8.105  13.071
33183W        W 1577  34.396  44.488   4.924
33184W        W 1578  42.383   6.741  14.863
33185W        W 1579  15.986  26.658   3.569
33186W        W 1580  23.668  17.490  14.305
33187W        W 1581  43.660  35.740  13.370
33188W        W 1582  39.959   4.955   0.670
33189W        W 1583  19.779  36.982   2.233
33190W        W 1584  24.166   7.546  12.090
33191W        W 1585  19.777   1.967  12.979
33192W        W 1586  33.090  17.919   1.816
33193W        W 1587  27.428  12.600   0.549
33194W        W 1588  20.046  21.146  10.725
33195W        W 1589   7.386  29.926  11.193
33196W        W 1590  10.830  23.984  12.868
33197W        W 1591   5.278  18.521  10.451
33198W        W 1592  38.631   8.414  13.028
33199W        W 1593  13.760  27.945  13.018
33200W        W 1594  27.883  26.977  14.643
33201W        W 1595  21.554  12.149   3.859
33202W        W 1596  23.194  39.321   3.154
33203W        W 1597  21.242  36.417  11.868
33204W        W 1598  37.918  43.250   0.137
33205W        W 1599  21.488   2.263  11.983
33206W        W 1600  10.360  17.745  11.150
33207W        W 1601   7.472  32.950  14.584
33208W        W 1602  22.116  35.375   4.112
33209W        W 1603   6.567   0.976  12.191
33210W        W 1604  31.357  31.571  12.361
33211W        W 1605   1.339  30.220   1.415
33212W        W 1606  19.705   6.226   4.304
33213W        W 1607  24.903  43.498  12.971
33214W        W 1608  44.836  21.969   2.974
33215W        W 1609  16.497  18.932  12.435
33216W        W 1610  36.348  31.318  12.072
33217W        W 1611  38.385  30.052   4.631
33218W        W 1612  13.412  40.352  13.869
33219W        W 1613  28.405  43.535  14.891
33220W        W 1614  10.251  25.097  12.110
33221W        W 1615  33.040  24.218   4.605
33222W        W 1616   9.491  44.536   4.159
33223W        W 1617   7.425  29.889   2.811
33224W        W 1618  30.159  36.553   4.014
33225W        W 1619  14.653  43.970  14.831
33226W        W 1620  33.984  39.011  14.605
33227W        W 1621  31.060   3.958  14.569
33228W        W 1622   7.504  23.079   1.620
33229W        W 1623  32.393  12.824  13.440
33230W        W 1624  43.054  33.185  10.152
33231W        W 1625  20.061   6.660   1.809
33232W        W 1626  30.470  24.970  13.017
33233W        W 1627  31.205   0.849  14.375
33234W        W 1628  41.104  39.571  10.888
33235W        W 1629   3.761  35.502  11.008
33236W        W 1630  38.035  37.358  11.982
33237W        W 1631  31.387   4.234  11.577
33238W        W 1632  40.394   5.441   2.827
33239W        W 1633   6.845  37.442  12.522
33240W        W 1634   9.393   8.722  14.824
33241W        W 1635  19.761  16.651   3.277
33242W        W 1636  39.026  13.038  14.942
33243W        W 1637  16.867  35.521   2.878
33244W        W 1638   6.490  25.695   2.168
33245W        W 1639  14.565   3.881   2.127
33246W        W 1640  42.305  37.278  12.846
33247W        W 1641  28.047  37.330   1.089
33248W        W 1642  33.117  38.870  12.598
33249W        W 1643  43.975  15.867   4.197
33250W        W 1644  37.301  23.663  11.976
33251W        W 1645  42.939  21.483   5.101
33252W        W 1646   9.427  33.690  14.208
33253W        W 1647  43.357  27.541   4.187
33254W        W 1648  15.055  15.323  10.738
33255W        W 1649  22.614  22.740  11.092
33256W        W 1650  38.379  32.598   2.640
33257W        W 1651  11.096  28.726   4.025
33258W        W 1652   4.745  30.771  14.491
33259W        W 1653  18.008  27.697   2.873
33260W        W 1654  13.630  26.520  12.486
33261W        W 1655  12.346   4.415   2.374
33262W        W 1656   0.199  33.013   1.371
33263W        W 1657   2.042  10.419  11.630
33264W        W 1658  31.125  18.684   3.151
33265W        W 1659  14.302  44.795   1.216
33266W        W 1660  28.120   9.319  12.551
33267W        W 1661   1.317  36.984  13.951
33268W        W 1662  31.500  32.308  10.582
33269W        W 1663  34.004  10.042  14.484
33270W        W 1664   9.197  17.779  12.871
33271W        W 1665   1.477  21.748  11.228
33272W        W 1666  27.150   9.194   0.827
33273W        W 1667  38.512   1.345   1.172
33274W        W 1668  21.527  10.609   2.419
33275W        W 1669  22.557  21.725   3.306
33276W        W 1670  19.137   0.750  11.646
33277W        W 1671  16.955  40.419  11.995
33278W        W 1672  29.501  21.189  10.018
33279W        W 1673   1.934  12.065   2.746
33280W        W 1674  20.412  10.597  13.917
33281W        W 1675  32.449  21.175  11.049
33282W        W 1676  18.167  31.901   2.841
33283W        W 1677  37.073  30.520  13.500
33284W        W 1678  17.321   3.468  13.024
33285W        W 1679   9.910  35.583  11.537
33286W        W 1680  23.757  38.165   1.483
33287W        W 1681  16.660  36.934   9.726
33288W        W 1682  33.173  29.516  12.270
33289W        W 1683  29.649  29.470  13.351
33290W        W 1684  39.699   1.901  13.977
33291W        W 1685  30.257  44.306  13.344
33292W        W 1686  40.163   7.567   2.734
33293W        W 1687   7.817   0.974   1.455
33294W        W 1688  32.508  10.135   4.987
33295W        W 1689  34.516  20.395   4.644
33296W        W 1690  34.159  39.972  11.834
33297W        W 1691  23.129  37.528  12.802
33298W        W 1692   3.008  33.338  13.805
33299W        W 1693  41.662  28.722  11.433
33300W        W 1694  30.664  38.414  10.554
33301W        W 1695  24.000   0.769  14.219
33302W        W 1696  36.848  34.081  11.438
33303W        W 1697  28.402   8.283   1.812
33304W        W 1698  18.184  41.398  11.080
33305W        W 1699  40.819  15.447  10.714
33306W        W 1700  26.083   5.684   3.318
33307W        W 1701  39.083  38.025  11.547
33308W        W 1702  10.676  25.563   2.931
33309W        W 1703  10.745  33.161  11.634
33310W        W 1704  16.971   1.230  10.839
33311W        W 1705  35.966  43.698   2.921
33312W        W 1706  11.664   3.431  13.398
33313W        W 1707   8.066  39.229   0.203
33314W        W 1708  23.707  11.922  12.556
33315W        W 1709  19.372  27.424   0.755
33316W        W 1710  11.855  39.932  12.615
33317W        W 1711  41.958  38.198   1.280
33318W        W 1712  38.478  17.941  14.716
33319W        W 1713  32.125  14.243  13.966
33320W        W 1714  44.666  39.340  14.443
33321W        W 1715  27.207   7.818   3.713
33322W        W 1716  24.485  24.033  10.943
33323W        W 1717   3.703  33.470  14.357
33324W        W 1718  33.463  10.066  10.200
33325W        W 1719  32.608  32.334   0.961
33326W        W 1720  27.584   7.406   2.914
33327W        W 1721  19.288  39.948   3.774
33328W        W 1722  31.140  40.352   2.769
33329W        W 1723  43.806   4.626   0.342
33330W        W 1724  12.142  30.183  11.732
33331W        W 1725  19.609   2.203  12.564
33332W        W 1726  19.772  26.107   0.993
33333W        W 1727  43.523   5.403  11.942
33334W        W 1728  24.679  35.019  10.955
33335W        W 1729  41.840  44.074  13.994
33336W        W 1730  18.129   5.709  13.370
33337W        W 1731  13.807  12.310   4.629
33338W        W 1732  30.254  20.460  12.494
33339W        W 1733  10.196  13.088   4.168
33340W        W 1734   7.597  40.420  10.975
33341W        W 1735   3.788  36.539   0.619
33342W        W 1736   8.249  15.280   0.515
33343W        W 1737  38.843  37.732   4.505
33344W        W 1738   7.447  34.624  13.834
33345W        W 1739  40.024  39.583   1.294
33346W        W 1740  30.986   7.792   0.206
33347W        W 1741  18.775  43.499   0.356
33348W        W 1742  33.976   7.865  14.017
33349W        W 1743   5.473  35.563  10.706
33350W        W 1744  11.176  23.670  14.496
33351W        W 1745   8.159   9.683  14.184
33352W        W 1746   5.549  15.470   3.074
33353W        W 1747   2.282  39.801   3.843
33354W        W 1748  29.474  39.331   1.435
33355W        W 1749   6.821  29.699  10.498
33356W        W 1750   3.407  41.789  12.026
33357W        W 1751  23.211  41.586  11.663
33358W        W 1752  39.525  15.882  11.411
33359W        W 1753  25.420  21.289  11.550
33360W        W 1754  33.220  28.130  11.149
33361W        W 1755  13.846  39.301  13.286
33362W        W 1756  34.049  33.187  12.406
33363W        W 1757  40.887   9.111   4.793
33364W        W 1758  41.327   7.887  14.342
33365W        W 1759   2.880  26.858   4.104
33366W        W 1760  11.453  18.791   3.990
33367W        W 1761  40.434  19.094   0.296
33368W        W 1762  15.822   8.817  10.226
33369W        W 1763  17.128  32.629  10.273
33370W        W 1764  29.360  17.785   3.782
33371W        W 1765  17.087  38.561   0.534
33372W        W 1766  33.103  29.068  10.969
33373W        W 1767  30.956  44.110  13.645
33374W        W 1768   3.712  42.392   1.886
33375W        W 1769   2.899  33.467   2.876
33376W        W 1770  31.439  12.396  11.070
33377W        W 1771   5.982  41.341  13.290
33378W        W 1772  36.823  12.418  12.574
33379W        W 1773  44.813  30.526  14.413
33380W        W 1774  16.309  29.704   3.414
33381W        W 1775  38.880  14.864  12.752
33382W        W 1776  12.861  10.802   2.960
33383W        W 1777  10.847  33.110  12.556
33384W        W 1778   3.876  32.062  13.083
33385W        W 1779   6.626  35.135   3.764
33386W        W 1780  30.574  26.660  11.266
33387W        W 1781  17.008  38.458  14.081
33388W        W 1782  16.847  22.976  10.753
33389W        W 1783   3.773  21.634  12.063
33390W        W 1784  23.197  32.023  14.786
33391W        W 1785  44.461  34.854  10.162
33392W        W 1786  31.361  35.484  14.415
33393W        W 1787   0.061  32.192   4.489
33394W        W 1788  12.214   8.663  12.570
33395W        W 1789   6.212  30.485   3.743
33396W        W 1790   6.952  42.590  11.054
33397W        W 1791  44.223  32.804   1.115
33398W        W 1792  20.699   8.509   2.293
33399W        W 1793  44.850  11.738  14.037
33400W        W 1794  22.690  22.824   4.666
33401W        W 1795  32.587  36.320  10.558
33402W        W 1796  16.944  41.819   4.547
33403W        W 1797  29.922  11.623  11.163
33404W        W 1798  18.982  32.485  12.039
33405W        W 1799  35.603  43.760  14.662
33406W        W 1800  41.317   4.854  12.785
33407W        W 1801  28.720  36.492  14.968
33408W        W 1802   2.460   8.060   2.184
33409W        W 1803   5.456  25.597   3.133
33410W        W 1804  21.818  39.329   3.062
33411W        W 1805  36.544  24.590  12.536
33412W        W 1806  29.253  40.571   2.767
33413W        W 1807  24.555  25.078   4.388
33414W        W 1808  22.581  41.803  12.113
33415W        W 1809  41.100  16.642   1.757
33416W        W 1810   5.836  27.539  14.734
33417W        W 1811  25.456  42.769  13.428
33418W        W 1812   4.154  25.196   5.068
33419W        W 1813   9.089  43.144   0.183
33420W        W 1814   2.791  26.660  12.418
33421W        W 1815  28.159  17.645   2.632
33422W        W 1816  23.796  22.672   0.843
33423W        W 1817  44.570  24.322  10.213
33424W        W 1818   8.946  19.510   3.264
33425W        W 1819   0.788  18.309   4.249
33426W        W 1820   8.183  29.989   2.210
33427W        W 1821  43.701  29.654  13.983
33428W        W 1822  32.339   5.589   1.901
33429W        W 1823  27.475  38.721  14.854
33430W        W 1824  18.651   1.532   5.006
33431W        W 1825  42.392   6.393   2.764
33432W        W 1826  24.476  34.336   3.863
33433W        W 1827   9.155   6.587   0.381
33434W        W 1828  37.390   2.447  11.617
33435W        W 1829  42.500  41.459   3.723
33436W        W 1830   6.212  20.853  11.578
33437W        W 1831  31.967  21.191  14.821
33438W        W 1832  36.055  32.625   3.201
33439W        W 1833   8.325  13.784  14.432
33440W        W 1834  31.837   3.849   4.491
33441W        W 1835  30.780  12.539  12.865
33442W        W 1836   9.983  25.853  11.375
33443W        W 1837  21.527  25.454  14.046
33444W        W 1838  29.952  36.980  14.657
33445W        W 1839  40.458   2.631  13.840
33446W        W 1840  41.426  32.235  12.866
33447W        W 1841  21.741  24.908  13.437
33448W        W 1842  38.079  36.925  14.635
33449W        W 1843  44.624   2.844  10.713
33450W        W 1844   4.145  44.550  14.466
33451W        W 1845  18.705   1.908   3.601
33452W        W 1846  22.401  33.303  12.589
33453W        W 1847  35.210  28.215  10.216
33454W        W 1848  27.174  19.076   2.359
33455W        W 1849   9.118  42.934  13.725
33456W        W 1850   5.296  18.314   1.810
33457W        W 1851  38.999  25.240  13.733
33458W        W 1852  36.470  24.514   4.941
33459W        W 1853  37.378  17.225  10.916
33460W        W 1854   3.745   8.344   2.445
33461W        W 1855  29.476  11.875  11.174
33462W        W 1856  17.718   9.177   4.117
33463W        W 1857  18.927  20.600   0.324
33464W        W 1858  21.950  14.664  11.522
33465W        W 1859  14.276  18.028  12.946
33466W        W 1860  12.708  44.808  12.847
33467W        W 1861  29.661  24.537   1.437
33468W        W 1862   0.482  29.144  14.793
33469W        W 1863   4.361   6.459   4.128
33470W        W 1864   9.139  30.401  11.079
33471W        W 1865  13.637   7.439  10.675
33472W        W 1866  24.552  34.470   3.373
33473W        W 1867  15.119  27.840   0.242
33474W        W 1868   9.792  17.868  14.542
33475W        W 1869  32.921  25.177  11.951
33476W        W 1870  26.995  12.346   2.861
33477W        W 1871  12.945  44.536  11.587
33478W        W 1872   4.596  17.305   4.126
33479W        W 1873  35.380  43.531  11.531
33480W        W 1874  39.469  10.802   3.222
33481W        W 1875  26.935  32.165  13.266
33482W        W 1876  26.867  43.591   1.855
33483W        W 1877   9.390  32.395   1.316
33484W        W 1878   6.990  31.177   3.849
33485W        W 1879  16.062  22.261  10.668
33486W        W 1880   6.316  32.395  13.926
33487W        W 1881  34.421  37.207  12.654
33488W        W 1882  10.291  36.404  11.321
33489W        W 1883  17.717  26.380   5.071
33490W        W 1884  20.216  12.658  14.097
33491W        W 1885  34.602   4.834   4.160
33492W        W 1886  20.694  12.141   0.976
33493W        W 1887  40.753   2.440   2.869
33494W        W 1888  23.748  34.896   0.048
33495W        W 1889  42.832  28.720  12.795
33496W        W 1890  39.833  19.554  12.865
33497W        W 1891  14.768  28.759   4.780
33498W        W 1892   8.082  18.748   4.694
33499W        W 1893   7.227  40.051  14.594
33500W        W 1894   4.873  36.861  14.380
33501W        W 1895   0.649  15.558   0.301
33502W        W 1896  21.066  29.219  10.306
33503W        W 1897  42.347  18.350   2.218
33504W        W 1898  15.118  36.619   1.864
33505W        W 1899  39.943  11.826  11.116
33506W        W 1900  15.499  12.941   4.171
33507W        W 1901  28.005   5.543  11.762
33508W        W 1902  12.257  15.316  14.237
33509W        W 1903   7.142  33.515   2.301
33510W        W 1904  21.073   3.975  14.979
33511W        W 1905   9.216   3.617  12.658
33512W        W 1906   9.733  14.483  12.759
33513W        W 1907  11.690  10.442  14.988
33514W        W 1908  42.632  36.951  12.511
33515W        W 1909  30.569  27.895   3.770
33516W        W 1910  24.265  15.355  13.334
33517W        W 1911  37.447  19.905  13.860
33518W        W 1912  33.915  37.898  11.618
33519W        W 1913  24.039  37.521   2.844
33520W        W 1914  24.484  31.041   2.835
33521W        W 1915  27.920  31.217   3.827
33522W        W 1916  21.983   9.258  11.038
33523W        W 1917  32.568  38.929  14.469
33524W        W 1918  20.002   5.239   3.036
33525W        W 1919  25.345  24.577   2.734
33526W        W 1920  40.582  24.074  12.588
33527W        W 1921  24.457  14.846  14.228
33528W        W 1922  33.468  34.395  13.379
33529W        W 1923  37.044  20.633  11.623
33530W        W 1924   3.466  43.707   1.258
33531W        W 1925  28.973  35.357   4.294
33532W        W 1926  23.279  10.383  14.418
33533W        W 1927   2.758   0.457  10.330
33534W        W 1928  26.893  19.787   3.245
33535W        W 1929  29.860  15.587  11.126
33536W        W 1930  24.048   6.814   1.277
33537W        W 1931  33.635  37.804  13.539
33538W        W 1932  30.478  19.703  11.449
33539W        W 1933  36.084  31.011   2.419
33540W        W 1934  19.702  20.262  14.086
33541W        W 1935  32.626   0.858   9.989
33542W        W 1936  30.381   9.383   1.659
33543W        W 1937  24.501  23.821   0.378
33544W        W 1938  17.905  23.455  11.585
33545W        W 1939   7.556  41.224   3.198
33546W        W 1940  20.947  10.821   0.725
33547W        W 1941   8.735  25.713  14.774
33548W        W 1942  28.745  40.515   2.753
33549W        W 1943  26.945  26.069   4.772
33550W        W 1944   3.239  11.940  11.195
33551W        W 1945  37.909  24.462  14.362
33552W        W 1946  35.464   8.573   3.641
33553W        W 1947   0.169  14.736  14.873
33554W        W 1948   6.124   6.486  14.336
33555W        W 1949  33.466  34.543  13.897
33556W        W 1950  26.711   5.256   2.195
33557W        W 1951  29.163  23.666   4.533
33558W        W 1952  20.040  13.613  12.607
33559W        W 1953  10.274  43.811  13.386
33560W        W 1954  20.145   7.441  11.204
33561W        W 1955  38.086  38.672  12.940
33562W        W 1956   2.797  20.206   0.166
33563W        W 1957  15.237  41.500  13.267
33564W        W 1958  17.082  22.551  12.959
33565W        W 1959  29.664   0.979   4.526
33566W        W 1960   7.704  39.513  11.957
33567W        W 1961  27.499  34.873  13.770
33568W        W 1962  15.125  20.476  11.109
33569W        W 1963  11.259   9.126  12.899
33570W        W 1964  13.194  10.479  12.989
33571W        W 1965  26.760  34.919   1.201
33572W        W 1966  15.315  21.092  10.731
33573W        W 1967  20.135  20.492  13.325
33574W        W 1968  18.189   7.143  14.940
33575W        W 1969  14.819   6.651  13.160
33576W        W 1970  16.312   6.654  11.031
33577W        W 1971  24.180  23.521   3.238
33578W        W 1972  18.237  39.348  14.865
33579W        W 1973  40.441  33.926  13.764
33580W        W 1974   6.000  14.835  14.954
33581W        W 1975  42.861  16.186  11.439
33582W        W 1976  42.413  39.470   0.973
33583W        W 1977  38.926  17.516  11.557
33584W        W 1978  19.727  21.804   1.738
33585W        W 1979  17.733  23.656   4.524
33586W        W 1980  28.209   5.218  14.438
33587W        W 1981  18.011  37.402   2.271
33588W        W 1982  35.589   8.069  14.787
33589W        W 1983  37.689  35.843   1.766
33590W        W 1984  28.870  16.848   2.312
33591W        W 1985  38.885   0.408   1.877
33592W        W 1986  33.128  25.805   0.147
33593W        W 1987  13.679  20.240   3.654
33594W        W 1988  42.426  14.620   3.345
33595W        W 1989  35.085  15.992  10.681
33596W        W 1990  28.400  10.400   3.223
33597W        W 1991  40.520  25.601   0.465
33598W        W 1992  25.406  31.309   2.695
33599W        W 1993   8.441  15.495   2.922
33600W        W 1994  28.646  20.552   4.576
33601W        W 1995  34.448  43.421  11.703
33602W        W 1996   7.829  43.546   4.384
33603W        W 1997  18.068   2.558  12.630
33604W        W 1998  29.099  17.713  12.020
33605W        W 1999  35.614  33.247  12.068
33606W        W 2000  16.189  42.896  12.000
33607W        W 2001  34.038  25.588   1.365
33608W        W 2002   7.918  30.308   0.056
33609W        W 2003  11.422   3.256  12.937
33610W        W 2004  24.140  18.027  11.566
33611W        W 2005   9.172  25.692  10.743
33612W        W 2006  30.133  36.199  12.091
33613W        W 2007  25.101   1.172  10.479
33614W        W 2008  30.411   2.953   0.269
33615W        W 2009   3.504  44.288   3.267
33616W        W 2010   4.460  24.707   2.323
33617W        W 2011  22.818   0.526   3.683
33618W        W 2012  16.197  12.333   4.908
33619W        W 2013  37.386  10.319   1.746
33620W        W 2014  20.249  24.160  10.591
33621W        W 2015  31.918  17.260   1.327
33622W        W 2016  28.654   6.210   2.291
33623W        W 2017   1.822  27.323  11.539
33624W        W 2018  16.780  25.331   1.297
33625W        W 2019  16.727  32.430   3.951
33626W        W 2020  43.423  18.448   2.869
33627W        W 2021  43.733  41.354   2.447
33628W        W 2022  29.370  16.939   2.196
33629W        W 2023  30.364  25.458   4.182
33630W        W 2024  43.870  41.875  12.400
33631W        W 2025  39.042  15.596   3.660
33632W        W 2026  30.968  13.416   0.993
33633W        W 2027   9.591   7.186  13.576
33634W        W 2028  27.020  18.587   2.257
33635W        W 2029  44.999  34.546   3.230
33636W        W 2030  22.555  12.571   3.329
33637W        W 2031  39.144  12.713  12.570
33638W        W 2032  34.188   4.253  11.451
33639W        W 2033  26.026   6.878   4.135
33640W        W 2034  33.531  17.644   4.972
33641W        W 2035  12.338  29.866  10.911
33642W        W 2036  34.422  38.103  12.451
33643W        W 2037  12.152  43.367   1.329
33644W        W 2038   3.878  26.395   1.714
33645W        W 2039  44.668  33.045   1.309
33646W        W 2040   5.048  14.609   3.514
33647W        W 2041  42.256  20.643  13.430
33648W        W 2042  12.713  26.942  12.083
33649W        W 2043  32.955  16.675  12.018
33650W        W 2044   9.207  16.021   3.341
33651W        W 2045  36.054  20.303   4.829
33652W        W 2046  16.629  43.251  11.730
33653W        W 2047  15.854  12.133   3.786
33654W        W 2048  24.789  14.145  10.712
33655W        W 2049  18.214  35.381  11.501
33656W        W 2050  20.792  32.975   3.907
33657W        W 2051  25.992  14.781   2.723
33658W        W 2052   5.594  19.775   3.670
33659W        W 2053   6.417   6.671   0.891
33660W        W 2054   8.708  18.199  12.147
33661W        W 2055  43.477  11.657   2.711
33662W        W 2056   0.707   3.053  10.238
33663W        W 2057  30.434  33.901  12.052
33664W        W 2058  18.236  43.271   5.002
33665W        W 2059   3.885  17.655   3.298
33666W        W 2060  21.585  19.416  11.464
33667W        W 2061  36.343  16.338  12.857
33668W        W 2062  40.942   9.575   4.588
33669W        W 2063  29.624  16.780  14.723
33670W        W 2064  34.337   6.291   1.578
33671W        W 2065  32.616  10.831  12.866
33672W        W 2066  44.475   3.395  10.058
33673W        W 2067  29.913   3.723   1.180
33674W        W 2068   1.544  12.475  12.966
33675W        W 2069  29.282  14.910  13.035
33676W        W 2070   2.391  34.041   1.031
33677W        W 2071  15.755   1.955  13.754
33678W        W 2072  29.917  34.618  14.458
33679W        W 2073  32.502  25.099   0.958
33680W        W 2074   3.430  39.932   3.438
33681W        W 2075  33.104   3.409  10.742
33682W        W 2076  30.398   1.932   0.804
33683W        W 2077   0.448  19.746   3.725
33684W        W 2078   0.978   8.134   2.236
33685W        W 2079  34.050  13.957   3.362
33686W        W 2080   7.124  36.427  13.916
33687W        W 2081  39.835  39.379   5.070
33688W        W 2082  40.835   7.294   4.621
33689W        W 2083  42.193   5.975   1.288
33690W        W 2084  15.095  35.778  12.632
33691W        W 2085   0.217  32.575  11.158
33692W        W 2086   9.462  18.948   4.335
33693W        W 2087  42.246   5.063   1.598
33694W        W 2088  40.625   7.212  14.513
33695W        W 2089  17.496   1.947   2.400
33696W        W 2090  10.850  44.392   1.863
33697W        W 2091  18.139  30.560  11.460
33698W        W 2092  39.222  26.592  11.951
33699W        W 2093  12.768  31.620   1.296
33700W        W 2094  36.607  43.385   4.573
33701W        W 2095  33.214  22.032   1.689
33702W        W 2096  18.804  14.696   0.249
33703W        W 2097  32.326  37.507  11.549
33704W        W 2098  34.234  42.059   0.508
33705W        W 2099   8.289   3.041   2.767
33706W        W 2100  21.506  14.135  12.523
33707W        W 2101   6.153  27.232   3.161
33708W        W 2102   4.987  10.770  10.158
33709W        W 2103  12.275  20.101   1.313
33710W        W 2104  38.908  39.022   3.326
33711W        W 2105  24.086  44.298  14.497
33712W        W 2106  19.755  28.328   3.594
33713W        W 2107  32.036  17.951  10.951
33714W        W 2108   5.806  44.870  13.132
33715W        W 2109  14.455   1.889   4.610
33716W        W 2110  35.393  16.085   1.418
33717W        W 2111  33.538   5.348   1.290
33718W        W 2112   8.404  20.628   4.861
33719W        W 2113  22.133  23.510   0.542
33720W        W 2114  43.367  23.523   0.502
33721W        W 2115  23.743  27.507  14.540
33722W        W 2116  42.937  21.639  14.999
33723W        W 2117   9.484  35.141   0.772
33724W        W 2118  36.433  16.667  14.125
33725W        W 2119   7.585  19.650  11.569
33726W        W 2120  30.389  16.755   3.691
33727W        W 2121   6.337  40.446   0.734
33728W        W 2122   2.921  41.355  14.600
33729W        W 2123   2.357  20.319   4.686
33730W        W 2124  25.207  37.045  13.511
33731W        W 2125   8.114   2.427   4.122
33732W        W 2126  36.492  41.276   3.741
33733W        W 2127  11.397  28.911   4.804
33734W        W 2128  27.442  12.595  14.161
33735W        W 2129  32.334  39.041  12.529
33736W        W 2130  16.034  26.328  14.374
33737W        W 2131  18.958  10.680  13.985
33738W        W 2132  21.331  21.638  13.848
33739W        W 2133  18.996  10.134   1.313
33740W        W 2134  10.718  37.061  14.763
33741W        W 2135  29.006  13.379  12.128
33742W        W 2136  18.547  21.468  14.007
33743W        W 2137  27.137  19.613  14.516
33744W        W 2138  42.444  37.575  11.186
33745W        W 2139  10.311  39.355   0.568
33746W        W 2140  12.855  41.316   4.072
33747W        W 2141  26.326  10.328   3.705
33748W        W 2142  20.982  19.514   0.442
33749W        W 2143  24.525  22.116  12.389
33750W        W 2144  13.134   3.300  14.869
33751W        W 2145  29.792   2.932  11.971
33752W        W 2146  31.422  13.232  14.955
33753W        W 2147  40.961  27.207  10.642
33754W        W 2148  14.809   9.274   0.693
33755W        W 2149  28.949  32.147   4.219
33756W        W 2150  24.008  38.033   2.845
33757W        W 2151  37.091  16.578  11.589
33758W        W 2152   5.707  21.008  14.754
33759W        W 2153   4.823   4.912  11.088
33760W        W 2154  17.261  21.710   4.619
33761W        W 2155   7.132  35.424   4.900
33762W        W 2156  29.333  14.257  14.582
33763W        W 2157   6.300  22.203  14.563
33764W        W 2158  42.104   2.338   3.086
33765W        W 2159  17.634  14.360   4.058
33766W        W 2160  39.351   6.880   3.215
33767W        W 2161   6.908  43.240  14.382
33768W        W 2162  44.874   8.905   4.492
33769W        W 2163  42.233  26.662  11.602
33770W        W 2164  40.216  24.519   0.989
33771W        W 2165   3.956  31.616  11.798
33772W        W 2166  17.123  16.886  14.494
33773W        W 2167  23.237  42.380  12.112
33774W        W 2168   9.406  25.833   3.412
33775W        W 2169  25.583   2.374  12.135
33776W        W 2170  38.623  21.013   3.094
33777W        W 2171   8.298  26.008   4.116
33778W        W 2172  38.073   2.998   2.500
33779W        W 2173  44.139   7.670   3.341
33780W        W 2174  33.562   3.364   2.910
33781W        W 2175  36.915   7.005   2.985
33782W        W 2176   7.529  15.613   5.011
33783W        W 2177  15.361  39.046   2.626
33784W        W 2178   1.958  20.386  12.331
33785W        W 2179  16.653  19.537   2.728
33786W        W 2180  10.754  20.305  13.414
33787W        W 2181  13.205   1.308  12.167
33788W        W 2182  40.079   8.369  13.478
33789W        W 2183  37.442  38.881   2.682
33790W        W 2184  42.968  15.087  12.583
33791W        W 2185  34.840  44.267  12.520
33792W        W 2186  41.754  44.839   4.629
33793W        W 2187  42.638   0.282   1.658
33794W        W 2188  20.002  39.761   0.849
33795W        W 2189  30.240  23.301  11.440
33796W        W 2190  39.336  28.652   1.340
33797W        W 2191  15.987  36.592   0.472
33798W        W 2192  18.064   7.382  12.900
33799W        W 2193   6.177  22.180   2.103
33800W        W 2194  16.808  42.730  10.633
33801W        W 2195  22.562  13.521   4.628
33802W        W 2196   7.443   6.281   3.680
33803W        W 2197   1.668  22.270   2.298
33804W        W 2198  39.240  39.541  14.416
33805W        W 2199  27.078  42.412  12.440
33806W        W 2200  31.626  23.730  13.631
33807W        W 2201  20.824  29.085   2.575
33808W        W 2202  30.479  39.825   3.823
33809W        W 2203  21.249  33.520   3.863
33810W        W 2204  14.046  28.456  14.086
33811W        W 2205   3.224  33.330  14.707
33812W        W 2206  12.866  27.848   0.532
33813W        W 2207  22.658  13.595   3.378
33814W        W 2208  17.197  37.608   4.174
33815W        W 2209   2.101  43.824   2.594
33816W        W 2210  40.129  14.445  10.853
33817W        W 2211  24.492  34.196  14.491
33818W        W 2212   8.297   6.257   1.262
33819W        W 2213  11.478  16.784  14.246
33820W        W 2214   3.907  34.157  12.143
33821W        W 2215  16.065  17.758   1.831
33822W        W 2216  35.021  21.413   1.211
33823W        W 2217  10.785   2.424   2.354
33824W        W 2218  36.306   5.421   2.875
33825W        W 2219  39.807  24.065  13.768
33826W        W 2220  25.149   2.849  11.479
33827W        W 2221  25.948  23.973   2.203
33828W        W 2222  32.456   7.035   0.220
33829W        W 2223  37.656  16.753   2.737
33830W        W 2224  29.096  29.539  13.454
33831W        W 2225  12.766  12.559   0.235
33832W        W 2226  37.117   8.317   0.464
33833W        W 2227  43.034  12.585   0.369
33834W        W 2228   9.259   9.285  10.786
33835W        W 2229  25.242  37.946  13.492
33836W        W 2230   6.372  28.240   3.645
33837W        W 2231  10.207  14.246   1.466
33838W        W 2232  32.819  22.193  14.352
33839W        W 2233  44.445  38.527  12.513
33840W        W 2234  42.407   0.749   1.884
33841W        W 2235  27.289   8.413   0.021
33842W        W 2236   1.177   1.890   4.958
33843W        W 2237   6.300   5.383  14.408
33844W        W 2238  27.211  30.560  14.268
33845W        W 2239   3.987  41.767  11.187
33846W        W 2240  36.745  25.489   2.718
33847W        W 2241  27.463   6.778  13.459
33848W        W 2242   1.831  11.693  11.857
33849W        W 2243  21.671   4.479  12.444
33850W        W 2244  20.642  37.849  12.347
33851W        W 2245   5.198  34.983   1.564
33852W        W 2246   3.306  27.904  12.586
33853W        W 2247  32.399  22.772   0.971
33854W        W 2248   9.164  27.988  10.570
33855W        W 2249   6.458  27.426  13.531
33856W        W 2250  31.495  16.635  14.007
33857W        W 2251   8.159  23.644   1.776
33858W        W 2252  18.681  37.557  10.785
33859W        W 2253  40.648  20.488   3.185
33860W        W 2254  29.981   7.815   1.316
33861W        W 2255  29.455  18.347  13.407
33862W        W 2256  35.439  11.786   0.338
33863W        W 2257  28.920  13.726  14.988
33864W        W 2258   9.424  38.652  11.433
33865W        W 2259  10.439  40.505   0.383
33866W        W 2260  20.801  37.905  13.854
33867W        W 2261  39.760   7.925  12.212
33868W        W 2262  15.095  38.378   3.843
33869W        W 2263  35.849  44.473   3.267
33870W        W 2264  40.828  23.999   1.486
33871W        W 2265  22.076  23.548  14.033
33872W        W 2266  14.283  23.516  12.113
33873W        W 2267  25.983  43.754   4.433
33874W        W 2268  14.269  44.443  12.082
33875W        W 2269  10.661  22.957  11.553
33876W        W 2270  13.830  17.521  12.367
33877W        W 2271   9.719  40.632  14.959
33878W        W 2272  38.518  14.677   0.198
33879W        W 2273  44.468  39.321   2.796
33880W        W 2274  22.251   9.299   3.254
33881W        W 2275   9.655  12.756   1.846
33882W        W 2276  44.852   4.258  12.810
33883W        W 2277  42.257  39.797  14.329
33884W        W 2278  14.686  40.298  11.101
33885W        W 2279   6.334   1.819   1.925
33886W        W 2280  22.524  19.429  10.757
33887W        W 2281  27.558  20.451   3.225
33888W        W 2282  41.004   6.451  10.841
33889W        W 2283  27.614   1.757  13.782
33890W        W 2284  31.735   2.361   3.672
33891W        W 2285  41.268  44.946  12.072
33892W        W 2286  43.470  18.716   0.983
33893W        W 2287  28.138   9.415  13.432
33894W        W 2288   8.410  29.876  12.294
33895W        W 2289  13.692   1.758  11.673
33896W        W 2290  14.683  40.866  12.070
33897W        W 2291  12.839  24.179  10.932
33898W        W 2292  20.036  38.940   1.211
33899W        W 2293   7.383  13.517  12.921
33900W        W 2294  38.877  42.930  13.402
33901W        W 2295  23.601  29.948   2.200
33902W        W 2296  27.972  16.567   0.638
33903W        W 2297  10.725  17.551   0.489
33904W        W 2298  29.110  18.376   3.644
33905W        W 2299  27.670  36.115  10.659
33906W        W 2300  30.841  38.021   0.018
33907W        W 2301  24.548   0.514  13.347
33908W        W 2302  40.955  39.453  11.367
33909W        W 2303  44.534  32.323   3.677
33910W        W 2304  39.363  17.310  13.164
33911W        W 2305  39.323  26.865   0.942
33912W        W 2306  20.031   1.743  11.943
33913W        W 2307   0.341   9.745  11.577
33914W        W 2308  34.654  24.434   2.031
33915W        W 2309  14.819  33.117   0.024
33916W        W 2310  35.994  42.114  14.947
33917W        W 2311  13.814   0.195   4.095
33918W        W 2312  17.361  36.680  10.200
33919W        W 2313  22.217  22.635  13.755
33920W        W 2314  20.247  18.977   1.333
33921W        W 2315   4.459  19.060  11.115
33922W        W 2316  13.050  22.469  11.454
33923W        W 2317  29.562  11.670   3.600
33924W        W 2318  43.575  30.961  12.162
33925W        W 2319   9.794  32.426  12.039
33926W        W 2320  27.099   9.221  11.238
33927W        W 2321  43.514  20.700  10.826
33928W        W 2322  29.131   2.072   0.374
33929W        W 2323  23.540  43.944   2.386
33930W        W 2324  28.517  21.101  13.324
33931W        W 2325  10.682   2.897  11.552
33932W        W 2326  10.243  15.332   0.813
33933W        W 2327  42.875  12.785  11.896
33934W        W 2328  30.665  19.703  13.297
33935W        W 2329   8.466  15.674   2.447
33936W        W 2330  19.254  16.908   0.398
33937W        W 2331  40.651  22.690   4.303
33938W        W 2332  21.001  26.427  13.652
33939W        W 2333   2.950  11.295  10.681
33940W        W 2334  37.888   2.955   5.026
33941W        W 2335   3.369  10.719   1.942
33942W        W 2336   6.603   4.938   2.565
33943W        W 2337  15.304   2.022   3.268
33944W        W 2338  41.324  41.558   3.198
33945W        W 2339  20.241   4.497  13.388
33946W        W 2340  42.739   0.266   2.169
33947W        W 2341  40.396  36.366   1.011
33948W        W 2342   1.016  29.533   4.602
33949W        W 2343  21.043  28.996   3.555
33950W        W 2344  17.647  26.704   2.376
33951W        W 2345   9.559  27.609  12.510
33952W        W 2346  33.473  28.211   3.861
33953W        W 2347  16.063  11.343   3.590
33954W        W 2348  34.977  20.568   1.458
33955W        W 2349   1.840   9.809   2.284
33956W        W 2350  15.121  16.154   0.281
33957W        W 2351  36.053   9.608   1.946
33958W        W 2352  20.222  11.757   0.348
33959W        W 2353  23.100  22.248  13.363
33960W        W 2354  39.334  26.683   2.332
33961W        W 2355  39.731   7.792  14.426
33962W        W 2356   6.784  35.585   1.195
33963W        W 2357  43.941   0.797  12.045
33964W        W 2358  15.803  40.809  11.559
33965W        W 2359  19.748  23.663  12.552
33966W        W 2360  28.086  42.807  12.614
33967W        W 2361  44.784  44.545  11.071
33968W        W 2362  44.420  28.350  10.691
33969W        W 2363  20.187  15.046   4.205
33970W        W 2364   2.376  20.888   1.546
33971W        W 2365  35.389  29.895   4.250
33972W        W 2366  14.796  20.095   4.563
33973W        W 2367  30.479  17.174   1.314
33974W        W 2368  42.965   3.938  14.508
33975W        W 2369  28.364   6.277   1.842
33976W        W 2370   7.721   1.223   3.786
33977W        W 2371  43.444  35.480  14.281
33978W        W 2372   3.304  18.788   3.709
33979W        W 2373  26.585  26.997   2.382
33980W        W 2374  37.246  13.350  11.500
33981W        W 2375   2.867  26.607   1.918
33982W        W 2376   1.957   0.874   2.679
33983W        W 2377   1.993  32.706  11.242
33984W        W 2378  31.421  13.611  13.569
33985W        W 2379  11.718  43.242   2.104
33986W        W 2380  30.483  44.468   4.347
33987W        W 2381  22.229  30.957  11.639
33988W        W 2382   1.876   5.392  13.948
33989W        W 2383  12.141   3.213   3.252
33990W        W 2384   9.998  15.685  14.901
33991W        W 2385  30.083   1.226  12.455
33992W        W 2386  24.064  12.915  14.023
33993W        W 2387  36.947  19.226   2.311
33994W        W 2388  22.473  28.638   4.109
33995W        W 2389  33.198  20.581  13.762
33996W        W 2390   3.405  30.600  12.621
33997W        W 2391  25.683  21.315  12.036
33998W        W 2392  13.061  31.411  11.031
33999W        W 2393   1.673  19.271  11.576
34000W        W 2394  22.330  32.472   2.439
34001W        W 2395  26.017  38.790  10.453
34002W        W 2396  26.964  17.607  13.805
34003W        W 2397   6.340  21.823   2.824
34004W        W 2398  38.890  39.069  12.974
34005W        W 2399  41.391  34.001  12.779
34006W        W 2400  42.289  24.519   0.836
34007W        W 2401  17.489   8.620   1.782
34008W        W 2402  12.081  13.560  13.424
34009W        W 2403  39.384  15.589  10.504
34010W        W 2404  30.682  17.874   4.062
34011W        W 2405   4.048  34.391   3.225
34012W        W 2406  44.923  29.065   4.278
34013W        W 2407  26.540  32.308   0.768
34014W        W 2408  34.638  27.388   4.358
34015W        W 2409  24.081  25.522   1.045
34016W        W 2410  28.594  18.533   3.674
34017W        W 2411  25.474   5.300   3.530
34018W        W 2412  41.310  11.912  10.768
34019W        W 2413  27.502  15.513   0.007
34020W        W 2414  43.809   9.835   1.476
34021W        W 2415  14.710  34.960   3.624
34022W        W 2416  36.342  23.803  14.990
34023W        W 2417  35.707  12.096  14.572
34024W        W 2418  12.720  42.330  12.351
34025W        W 2419  14.111  22.694   2.492
34026W        W 2420  44.795   3.280  10.476
34027W        W 2421  24.493  17.248  12.578
34028W        W 2422  37.492  21.263  14.305
34029W        W 2423  35.578  13.721  12.116
34030W        W 2424  15.738  31.151  11.171
34031W        W 2425   3.248  26.437  12.633
34032W        W 2426  28.936  20.134  11.276
34033W        W 2427   4.396  28.524   3.158
34034W        W 2428   8.592  36.582  12.120
34035W        W 2429   0.787  42.291   1.889
34036W        W 2430  31.923  42.383  11.572
34037W        W 2431  31.398  29.748  12.102
34038W        W 2432   1.281  32.343   0.862
34039W        W 2433  39.549  31.623  13.556
34040W        W 2434  43.226  11.524   2.275
34041W        W 2435  19.523   6.684   1.811
34042W        W 2436  22.605   0.169   4.572
34043W        W 2437   8.764  37.879  14.764
34044W        W 2438   2.762  34.971   1.056
34045W        W 2439  29.728  18.758  13.527
34046W        W 2440  34.593  43.192   0.168
34047W        W 2441  36.155   3.429  11.767
34048W        W 2442  14.755  22.536  12.374
34049W        W 2443  18.410  32.682   3.214
34050W        W 2444   2.112   2.554  14.974
34051W        W 2445  31.443   1.953   3.761
34052W        W 2446  19.551   7.130  11.499
34053W        W 2447  37.603  36.965   0.911
34054W        W 2448  40.814   8.693   4.506
34055W        W 2449  40.327  25.037  13.580
34056W        W 2450  29.625  38.156  13.077
34057W        W 2451  37.374   2.820  14.408
34058W        W 2452  30.410  36.290  11.665
34059W        W 2453  41.066  11.416  12.423
34060W        W 2454  21.165  44.855   3.280
34061W        W 2455  19.561  34.305  11.315
34062W        W 2456  30.047  15.722  14.809
34063W        W 2457  38.362  25.077  11.325
34064W        W 2458   1.632  19.143  13.021
34065W        W 2459  16.061  35.116  12.949
34066W        W 2460   5.346   7.169  11.902
34067W        W 2461  26.977  36.965   3.619
34068W        W 2462   7.647   2.176  12.172
34069W        W 2463  42.510  36.216   3.701
34070W        W 2464  11.897  34.393   3.356
34071W        W 2465  20.101   4.019  11.953
34072W        W 2466  20.246  18.369  11.115
34073W        W 2467  25.595  15.847   1.845
34074W        W 2468  35.276   1.960   1.251
34075W        W 2469  30.959   1.696   4.153
34076W        W 2470   2.305  33.781   9.687
34077W        W 2471  32.125  22.184  12.977
34078W        W 2472   1.713   6.215  13.095
34079W        W 2473  15.254  39.910   1.870
34080W        W 2474   0.309  13.337   0.364
34081W        W 2475  23.955  32.333  14.440
34082W        W 2476  38.486  11.761   0.871
34083W        W 2477  19.082  38.481  11.374
34084W        W 2478  20.941  11.748   2.621
34085W        W 2479  10.655  29.215  10.961
34086W        W 2480  13.374  43.827  11.384
34087W        W 2481   2.499  29.104  14.939
34088W        W 2482  13.370  13.510   3.753
34089W        W 2483  36.150  16.294  14.357
34090W        W 2484  38.553  28.496  14.952
34091W        W 2485  10.290  23.249  13.896
34092W        W 2486   8.924   9.045  11.576
34093W        W 2487  41.788  17.972  12.297
34094W        W 2488  20.101  43.898   2.684
34095W        W 2489  10.259  40.492  10.667
34096W        W 2490   7.758  14.201  13.606
34097W        W 2491  41.538   3.955   4.569
34098W        W 2492  14.556  29.213   4.665
34099W        W 2493  26.119  38.093  11.199
34100W        W 2494  33.396  20.506   3.184
34101W        W 2495  25.511  37.268  12.615
34102W        W 2496  15.678  18.218  11.113
34103W        W 2497  34.633  28.279   0.949
34104W        W 2498  44.663  34.030  12.986
34105W        W 2499  29.469  44.775   3.727
34106W        W 2500  30.002   4.926  11.192
34107W        W 2501  29.570   8.264   3.576
34108W        W 2502  22.794  35.684  12.621
34109W        W 2503  44.367  22.533  11.838
34110W        W 2504  18.717  17.729  12.978
34111W        W 2505  44.017  17.616   0.548
34112W        W 2506   7.827  17.159  10.986
34113W        W 2507  13.682  33.290   2.860
34114W        W 2508  28.675  35.533   3.432
34115W        W 2509  33.005  25.688   1.394
34116W        W 2510  35.519  39.928   2.907
34117W        W 2511   3.798  39.373  10.911
34118W        W 2512  12.390  24.979  12.039
34119W        W 2513  29.787  37.392  12.459
34120W        W 2514  35.088  37.710   4.297
34121W        W 2515   4.223  43.563   0.716
34122W        W 2516  29.495  22.955  14.006
34123W        W 2517  17.659  33.850   3.557
34124W        W 2518   5.941  10.281  11.398
34125W        W 2519   7.483   6.258   2.140
34126W        W 2520  19.819  11.466  11.554
34127W        W 2521   4.249  26.111   1.312
34128W        W 2522  34.164  27.957   2.249
34129W        W 2523  14.175   3.082   1.420
34130W        W 2524  29.206  29.704  10.813
34131W        W 2525  39.809  27.922   3.566
34132W        W 2526  44.488  37.301   2.904
34133W        W 2527  19.064  33.902   0.720
34134W        W 2528  12.146   7.902  11.655
34135W        W 2529  31.417  30.194   1.139
34136W        W 2530  40.765  16.720   3.579
34137W        W 2531  20.131  17.533  14.181
34138W        W 2532  38.374  10.145  10.385
34139W        W 2533  37.064  21.291   1.788
34140W        W 2534  35.919   5.929  13.323
34141W        W 2535  18.880  14.435  12.562
34142W        W 2536   5.221  24.294   3.529
34143W        W 2537  29.609   1.896   0.393
34144W        W 2538   5.215   3.183  11.080
34145W        W 2539  31.360  44.907   2.651
34146W        W 2540  32.176  20.447  10.853
34147W        W 2541  18.246  17.599  11.605
34148W        W 2542  43.733  34.412  13.201
34149W        W 2543  35.054  35.445   1.152
34150W        W 2544  43.777   7.921  12.087
34151W        W 2545  34.525  40.895   1.876
34152W        W 2546  25.720  42.817   3.970
34153W        W 2547  35.024  17.124   0.232
34154W        W 2548  26.262  31.400  14.168
34155W        W 2549  18.262  30.138   1.860
34156W        W 2550  18.573   3.742   4.175
34157W        W 2551  15.737  38.109   1.790
34158W        W 2552  35.480  16.648  14.438
34159W        W 2553  12.682  37.348   2.173
34160W        W 2554   5.482   9.963  12.192
34161W        W 2555  14.375  24.241  13.430
34162W        W 2556  16.626  29.705  14.898
34163W        W 2557  21.178  36.890   2.143
34164W        W 2558  30.518   6.751  12.466
34165W        W 2559  14.874  15.349   1.579
34166W        W 2560  29.315   6.816  14.475
34167W        W 2561  12.736  21.181   3.856
34168W        W 2562  44.453  23.498  11.508
34169W        W 2563  43.078  27.035   4.196
34170W        W 2564  20.089  25.408   5.202
34171W        W 2565  10.112   7.429  11.706
34172W        W 2566  43.838  34.926   0.710
34173W        W 2567  32.911  42.976   3.795
34174W        W 2568  36.305  35.802   1.957
34175W        W 2569  10.172   4.009  10.904
34176W        W 2570  26.694  41.026  12.978
34177W        W 2571  19.815  20.765  11.914
34178W        W 2572  39.860  15.377  10.452
34179W        W 2573  30.072  21.967   2.720
34180W        W 2574   8.363  32.138   1.285
34181W        W 2575   4.417   8.597  12.380
34182W        W 2576   4.000   3.406  12.020
34183W        W 2577  31.461  24.013   2.721
34184W        W 2578  41.488  40.546  11.264
34185W        W 2579  34.050  42.830   0.792
34186W        W 2580  17.592  43.495   2.857
34187W        W 2581  26.431  35.941  13.942
34188W        W 2582   7.722   8.300  13.599
34189W        W 2583  16.401  33.143  14.602
34190W        W 2584  29.653  42.385  11.938
34191W        W 2585   6.267  15.763   0.021
34192W        W 2586  19.716  13.276   2.661
34193W        W 2587  11.946  10.922  12.488
34194W        W 2588   9.100  29.731   0.365
34195W        W 2589  29.605  22.558   2.642
34196W        W 2590   6.001   6.660   0.283
34197W        W 2591  33.184   1.284   0.045
34198W        W 2592   6.191   1.906   2.843
34199W        W 2593  31.522  44.528   3.377
34200W        W 2594  43.803  26.576  14.818
34201W        W 2595  32.087  43.724   0.808
34202W        W 2596   5.416   5.697  14.473
34203W        W 2597  17.423  38.774   3.101
34204W        W 2598  35.773  36.493   3.342
34205W        W 2599   1.747  17.998  13.966
34206W        W 2600  17.989  38.508   1.764
34207W        W 2601  41.650   9.456   3.177
34208W        W 2602  42.967   9.916  11.090
34209W        W 2603   0.219   5.209   1.987
34210W        W 2604   7.569  28.664  11.533
34211W        W 2605  23.639  26.311   3.669
34212W        W 2606  29.334   7.990  12.182
34213W        W 2607   9.323  37.631   1.981
34214W        W 2608  35.028  33.073   4.888
34215W        W 2609   9.149  31.535  11.154
34216W        W 2610  27.892  20.151  12.032
34217W        W 2611  23.951  11.025  12.693
34218W        W 2612  21.114  24.542   4.712
34219W        W 2613   7.061  44.114  11.216
34220W        W 2614  23.629   9.215  14.551
34221W        W 2615  13.582  10.638  10.626
34222W        W 2616  41.440  31.614  13.607
34223W        W 2617  31.912  29.122  10.780
34224W        W 2618   3.512  12.617  10.300
34225W        W 2619  37.826  31.598  11.497
34226W        W 2620  20.585  15.478  10.110
34227W        W 2621  18.013  38.466  13.947
34228W        W 2622  22.877   9.204   2.150
34229W        W 2623  39.115   1.905   0.261
34230W        W 2624  34.818  16.244   3.641
34231W        W 2625  26.245  39.372  12.510
34232W        W 2626  26.394  44.801  14.159
34233W        W 2627   6.865  25.242   2.200
34234W        W 2628  35.910  41.812   2.198
34235W        W 2629   1.895  13.397   1.871
34236W        W 2630  31.190  36.642  10.717
34237W        W 2631  20.789  20.511   4.081
34238W        W 2632  42.503  17.413   0.325
34239W        W 2633  35.544   2.934   3.142
34240W        W 2634  25.544  15.293   1.927
34241W        W 2635  40.614  27.323  13.381
34242W        W 2636  27.628  20.814   2.200
34243W        W 2637   9.860  23.714  14.794
34244W        W 2638  44.949   6.890   3.637
34245W        W 2639  35.577  15.743   1.822
34246W        W 2640  22.443  25.768   0.716
34247W        W 2641  18.002  26.919   0.488
34248W        W 2642  28.647  15.143  10.382
34249W        W 2643  30.930  23.560  10.362
34250W        W 2644  23.115  37.323   0.394
34251W        W 2645  44.476  41.991  13.953
34252W        W 2646  38.762  33.994  13.104
34253W        W 2647   0.064   6.255  11.321
34254W        W 2648  12.184   9.388   1.695
34255W        W 2649   4.414   6.965  14.935
34256W        W 2650  36.401  38.418  10.970
34257W        W 2651  25.611   1.874  14.291
34258W        W 2652   1.178  34.384   2.382
34259W        W 2653   6.073  16.189   3.588
34260W        W 2654  37.861  32.881  12.058
34261W        W 2655  43.696   7.134  12.527
34262W        W 2656  29.414  44.426  12.878
34263W        W 2657  20.066  26.011   4.588
34264W        W 2658  23.744   7.163  14.748
34265W        W 2659  34.255  18.685   0.964
34266W        W 2660  20.608   7.372  10.611
34267W        W 2661  33.809  28.374  11.181
34268W        W 2662  39.381  39.054   3.725
34269W        W 2663   1.484  41.713   2.134
34270W        W 2664  12.097  42.026   3.785
34271W        W 2665   7.749   6.325   5.536
34272W        W 2666  19.794   5.874  13.577
34273W        W 2667  17.265  10.823  14.458
34274W        W 2668  22.667   1.157   4.750
34275W        W 2669   0.730  44.305   0.999
34276W        W 2670  39.712  10.263  10.676
34277W        W 2671  34.343  40.651  12.363
34278W        W 2672   9.830   3.408   0.402
34279W        W 2673  38.822   9.921  10.551
34280W        W 2674   3.425  18.569   2.326
34281W        W 2675   8.967   9.733  10.809
34282W        W 2676  32.154   2.293   4.459
34283W        W 2677  25.677  19.939   2.819
34284W        W 2678  13.704  34.095  13.774
34285W        W 2679  19.994   5.704  14.973
34286W        W 2680  16.685  37.042  14.896
34287W        W 2681  23.538  37.697   1.288
34288W        W 2682  15.990   3.908   2.166
34289W        W 2683  24.067  41.275   1.203
34290W        W 2684  35.193  26.907  13.853
34291W        W 2685  28.384  40.192   0.258
34292W        W 2686   2.388  31.109  13.244
34293W        W 2687  19.752  14.954  14.325
34294W        W 2688  31.552  25.583   2.395
34295W        W 2689  26.438  37.295   0.916
34296W        W 2690  11.537  38.585  13.469
34297W        W 2691  23.062  17.289  14.997
34298W        W 2692   5.322  13.647   0.946
34299W        W 2693   4.720  17.154   0.874
34300W        W 2694  17.509  43.246   3.840
34301W        W 2695   1.479  29.767  10.734
34302W        W 2696  35.440  21.169  12.485
34303W        W 2697  14.691  44.423  14.549
34304W        W 2698  11.185  28.339  13.994
34305W        W 2699  20.871  16.734   9.858
34306W        W 2700  34.640  37.934  14.344
34307W        W 2701  18.395  10.419  13.731
34308W        W 2702  31.819  32.510   1.401
34309W        W 2703   9.953   6.416   3.792
34310W        W 2704  44.422  22.049  13.998
34311W        W 2705  14.165  29.180   1.774
34312W        W 2706  24.482  15.821   1.918
34313W        W 2707  39.115   4.007   3.253
34314W        W 2708  25.063  12.320  14.364
34315W        W 2709  12.695  40.536   1.432
34316W        W 2710  35.870  44.419  11.519
34317W        W 2711  38.977  37.216   0.509
34318W        W 2712  40.524   4.452   1.996
34319W        W 2713  40.284  31.702   0.406
34320W        W 2714   5.282  30.963   1.767
34321W        W 2715  34.893  29.832   3.454
34322W        W 2716  25.203   2.794  10.524
34323W        W 2717  14.592  19.006   1.340
34324W        W 2718   5.033  31.456   0.838
34325W        W 2719   7.536   4.272   0.748
34326W        W 2720  42.940  38.375  13.521
34327W        W 2721  17.584  11.566   0.886
34328W        W 2722  36.382   4.865  14.834
34329W        W 2723  34.578   5.666  12.922
34330W        W 2724  39.576   3.925   2.901
34331W        W 2725  15.631  26.408   3.187
34332W        W 2726  19.073  24.428   3.164
34333W        W 2727  10.295  38.014   4.872
34334W        W 2728  15.279  21.125  14.851
34335W        W 2729  37.324  16.133  13.126
34336W        W 2730   6.511  10.828  13.929
34337W        W 2731  17.980  33.523   3.325
34338W        W 2732  42.480  22.678   3.118
34339W        W 2733  30.406   3.012   4.173
34340W        W 2734  22.720  31.135  10.717
34341W        W 2735   3.705   3.034  13.626
34342W        W 2736   7.724   2.169  14.864
34343W        W 2737  33.979  24.733  11.604
34344W        W 2738   7.976  43.512  13.048
34345W        W 2739   7.991  21.142  11.061
34346W        W 2740  35.703  38.583  12.065
34347W        W 2741   9.688   3.768   3.711
34348W        W 2742  40.711  40.825   2.448
34349W        W 2743  34.704  31.434  11.499
34350W        W 2744  25.042  25.138   4.189
34351W        W 2745  24.034  14.379  13.483
34352W        W 2746  26.587  42.989  12.501
34353W        W 2747  32.796   1.388  12.451
34354W        W 2748   3.977  41.399   4.168
34355W        W 2749   0.774  38.458   0.964
34356W        W 2750  38.838   6.913  13.804
34357W        W 2751  36.457  38.041   3.517
34358W        W 2752  38.570  18.190   3.089
34359W        W 2753   7.152  18.787   0.704
34360W        W 2754  12.900  42.439   3.857
34361W        W 2755  25.129  21.152   4.057
34362W        W 2756  36.995  24.594   4.675
34363W        W 2757   9.977  23.207   2.817
34364W        W 2758   2.938  22.216  10.939
34365W        W 2759  16.844  17.235  12.076
34366W        W 2760   0.853  38.154   2.433
34367W        W 2761  37.365  13.721  12.684
34368W        W 2762  20.770  42.302   0.311
34369W        W 2763  22.912  24.027   1.375
34370W        W 2764  26.470  14.749   4.437
34371W        W 2765  15.017  11.703  13.959
34372W        W 2766  22.627  44.785   0.830
34373W        W 2767  13.205   2.342   4.378
34374W        W 2768  42.522  18.638   4.610
34375W        W 2769  10.184   7.794   0.303
34376W        W 2770  35.909  37.854   1.776
34377W        W 2771  18.658  37.305   1.771
34378W        W 2772  36.623  42.044   4.297
34379W        W 2773  42.183  18.134  10.067
34380W        W 2774  27.570  44.790   1.168
34381W        W 2775  20.697  12.130   1.474
34382W        W 2776  13.031  17.214  11.002
34383W        W 2777  31.510   7.248   4.840
34384W        W 2778  31.602  42.828   3.557
34385W        W 2779   6.948   6.250   2.743
34386W        W 2780  41.317  12.504  14.939
34387W        W 2781  11.647  15.127  10.423
34388W        W 2782  16.818  25.732   4.155
34389W        W 2783  15.544  20.205  11.189
34390W        W 2784   8.618   1.482   1.005
34391W        W 2785  14.797   2.631   1.943
34392W        W 2786  30.584  41.985  13.668
34393W        W 2787  38.054  23.176   4.658
34394W        W 2788  25.076  39.455  14.560
34395W        W 2789  10.118   7.738  12.902
34396W        W 2790  12.370  14.349  10.730
34397W        W 2791  11.474  23.221  13.467
34398W        W 2792  23.721  26.147  14.302
34399W        W 2793  30.397  33.906   2.800
34400W        W 2794  12.278  43.507   4.854
34401W        W 2795  28.122  13.515   0.536
34402W        W 2796  12.267   3.141   0.066
34403W        W 2797  42.915  31.414   4.076
34404W        W 2798   9.124  44.914   3.738
34405W        W 2799  22.685   7.919   0.905
34406W        W 2800  21.646  24.164  10.736
34407W        W 2801  26.012  31.023   2.760
34408W        W 2802   6.955  11.429  14.606
34409W        W 2803   4.328  30.651   4.562
34410W        W 2804  31.126  37.124  10.867
34411W        W 2805  19.204   4.476   4.850
34412W        W 2806  42.685  34.468  14.947
34413W        W 2807  42.450  22.062  14.453
34414W        W 2808  23.135  17.694  12.569
34415W        W 2809  43.943   7.021  13.917
34416W        W 2810  43.350   2.426  14.083
34417W        W 2811  20.810  22.142   2.244
34418W        W 2812  21.290   8.545   3.853
34419W        W 2813  41.510  40.391   3.711
34420W        W 2814  16.500   2.970   0.399
34421W        W 2815  29.411  30.778  12.397
34422W        W 2816  42.946  28.557  14.735
34423W        W 2817  40.291   3.945  11.545
34424W        W 2818  33.552  38.028   2.538
34425W        W 2819  33.456  29.385  13.033
34426W        W 2820   4.702  25.054   1.251
34427W        W 2821  38.160  13.021  11.654
34428W        W 2822  35.134  22.315  14.464
34429W        W 2823  22.020  30.289  13.552
34430W        W 2824  44.942  36.352  13.450
34431W        W 2825   4.909  23.947   4.298
34432W        W 2826  38.079   0.100  11.096
34433W        W 2827  22.700  28.171   4.057
34434W        W 2828  17.092  36.480   5.310
34435W        W 2829   0.455  31.048   0.816
34436W        W 2830  21.820  41.917  13.315
34437W        W 2831  29.552  44.532   1.730
34438W        W 2832  35.352   5.001  13.203
34439W        W 2833  19.213  43.515  10.693
34440W        W 2834  33.645  45.000   1.471
34441W        W 2835   8.994  32.896  10.074
34442W        W 2836   7.850  26.607   1.382
34443W        W 2837  12.571  20.139   1.776
34444W        W 2838   4.867   0.146   2.869
34445W        W 2839  31.647  39.835   2.200
34446W        W 2840  36.293  35.596  13.301
34447W        W 2841  39.368  44.921  12.426
34448W        W 2842   1.908   7.201  13.064
34449W        W 2843  34.417  29.565   1.662
34450W        W 2844  28.169   0.476   0.694
34451W        W 2845  17.403  19.816  12.486
34452W        W 2846  34.340  10.181  14.845
34453W        W 2847  23.063  10.778  13.715
34454W        W 2848  13.252  36.619  11.578
34455W        W 2849   5.251  25.783  12.921
34456W        W 2850   9.297  22.448   3.130
34457W        W 2851   7.363  19.522  12.430
34458W        W 2852  17.621   3.902   1.294
34459W        W 2853  28.508  29.465   0.740
34460W        W 2854  23.325  38.937   1.807
34461W        W 2855   4.786  35.134   4.777
34462W        W 2856  33.088   4.757   2.099
34463W        W 2857  24.741   7.027   1.749
34464W        W 2858  32.834  24.631  14.535
34465W        W 2859  17.592  11.662  11.033
34466W        W 2860  32.972  23.671  14.176
34467W        W 2861  33.021  10.297  14.512
34468W        W 2862  31.117   0.777   2.306
34469W        W 2863  38.325   7.784   4.281
34470W        W 2864  11.941  36.395  14.068
34471W        W 2865   3.970  37.962   0.522
34472W        W 2866  40.352  26.401  14.838
34473W        W 2867   6.011  15.175   0.471
34474W        W 2868  19.068  20.753  13.468
34475W        W 2869   7.966  28.697   2.782
34476W        W 2870  11.843  40.274   1.644
34477W        W 2871  26.106  17.398   1.970
34478W        W 2872  41.751  28.989  14.323
34479W        W 2873   2.912  10.892  14.433
34480W        W 2874  31.597  22.631   4.824
34481W        W 2875  32.989  30.620  14.830
34482W        W 2876  18.688  38.403  14.218
34483W        W 2877   9.799  30.275  14.855
34484W        W 2878   3.830  21.111  12.054
34485W        W 2879  26.477   1.004   4.970
34486W        W 2880  42.958  37.803  12.640
34487W        W 2881  18.758   7.145  12.965
34488W        W 2882  43.854  32.138   2.727
34489W        W 2883  14.234  39.514  13.862
34490W        W 2884  38.464  27.980  14.966
34491W        W 2885  19.955   0.740   3.786
34492W        W 2886  34.418  12.289   4.513
34493W        W 2887   3.900  35.171   4.265
34494W        W 2888  33.882   9.177  14.296
34495W        W 2889   8.449  11.328  11.557
34496W        W 2890  36.658   2.100   5.016
34497W        W 2891   4.329  10.317   4.493
34498W        W 2892  11.003   8.074  12.868
34499W        W 2893  43.873   5.606   1.985
34500W        W 2894   1.585  29.763  14.385
34501W        W 2895  29.686  21.152  12.036
34502W        W 2896  18.642  14.642  10.912
34503W        W 2897  41.407  27.075  11.735
34504W        W 2898  24.731  40.797  11.958
34505W        W 2899   1.401   6.396   0.302
34506W        W 2900  44.049   0.423  11.640
34507W        W 2901  11.787  26.500   3.441
34508W        W 2902   6.611   5.251  13.380
34509W        W 2903  11.191  29.985  11.962
34510W        W 2904  41.485  34.416  13.886
34511W        W 2905  34.242  42.322   3.647
34512W        W 2906  24.881  10.659   3.700
34513W        W 2907  33.986   3.906  13.531
34514W        W 2908  31.191  31.908  14.875
34515W        W 2909  10.261  36.285   2.709
34516W        W 2910   8.785  23.130   3.795
34517W        W 2911   1.868  16.064   4.167
34518W        W 2912  38.699  15.453   0.789
34519W        W 2913  28.414  38.837  12.233
34520W        W 2914   7.798  22.104  13.935
34521W        W 2915  18.312  33.345  12.632
34522W        W 2916   7.887  23.058  14.949
34523W        W 2917  31.006  31.832   1.780
34524W        W 2918  25.134  30.676   1.692
34525W        W 2919  41.402  22.776   1.717
34526W        W 2920  35.002  23.436   4.159
34527W        W 2921   6.384  22.555  13.935
34528W        W 2922   4.430  20.003   1.093
34529W        W 2923   7.874   9.439   0.767
34530W        W 2924  20.858   6.645  13.452
34531W        W 2925  21.549  11.115  14.288
34532W        W 2926  44.232  24.105  14.201
34533W        W 2927  30.058  44.406   3.571
34534W        W 2928  25.350  39.333   1.399
34535W        W 2929   4.237  13.314  11.378
34536W        W 2930   7.593   2.430   1.190
34537W        W 2931  27.755  35.364   3.311
34538W        W 2932   0.531  40.382  13.080
34539W        W 2933  22.125   8.403  11.565
34540W        W 2934  17.406  40.379   0.227
34541W        W 2935  11.140   5.408  14.008
34542W        W 2936  13.206  11.137   0.243
34543W        W 2937   8.882   7.015  10.637
34544W        W 2938  22.124  36.003   0.025
34545W        W 2939  19.689  17.625  11.117
34546W        W 2940   8.772  12.160   3.658
34547W        W 2941   0.397  19.994   4.297
34548W        W 2942  35.862  43.038   4.256
34549W        W 2943   3.920  41.501  10.613
34550W        W 2944  26.070  39.014  14.530
34551W        W 2945  38.513   3.676  13.354
34552W        W 2946   6.648   8.940   5.023
34553W        W 2947  17.875   1.700  12.479
34554W        W 2948  22.613  13.662   3.885
34555W        W 2949  43.915  32.777  13.728
34556W        W 2950   9.405  39.358  12.146
34557W        W 2951   8.702   3.348   5.294
34558W        W 2952  42.429  19.296  12.186
34559W        W 2953   7.416  34.929   1.026
34560W        W 2954  18.722   1.401   3.339
34561W        W 2955   6.670   5.831  10.833
34562W        W 2956  35.527  14.420   2.070
34563W        W 2957  39.362  15.499  12.416
34564W        W 2958   4.956  29.045   3.693
34565W        W 2959  12.641  31.625   2.587
34566W        W 2960  24.179  27.941   4.491
34567W        W 2961  33.064   5.845  11.898
34568W        W 2962  19.175  40.428   1.229
34569W        W 2963   6.928   7.358   3.703
34570W        W 2964  10.370  26.189  10.643
34571W        W 2965  12.332  20.486   4.673
34572W        W 2966  34.340  13.542  12.127
34573W        W 2967  13.799  10.338  11.756
34574W        W 2968   6.728  11.395   2.622
34575W        W 2969  10.724   7.922   1.461
34576W        W 2970  12.864  39.286   4.127
34577W        W 2971  25.630  33.915   4.235
34578W        W 2972  12.075   6.590  11.180
34579W        W 2973  19.056   6.653  13.841
34580W        W 2974  44.006  39.073  10.660
34581W        W 2975  35.860  37.493  10.741
34582W        W 2976  16.711   4.747  10.747
34583W        W 2977  23.654   5.406   1.297
34584W        W 2978  12.205  16.242  14.463
34585W        W 2979  17.771  15.192   4.407
34586W        W 2980  44.408   0.878  11.099
34587W        W 2981   4.476  44.403  11.007
34588W        W 2982   6.182   2.158   5.635
34589W        W 2983   6.521   6.629   1.727
34590W        W 2984   6.198  37.874  13.553
34591W        W 2985   8.684   2.375   1.493
34592W        W 2986  37.319   9.897   1.302
34593W        W 2987  24.084  20.984   0.793
34594W        W 2988  36.367  22.674  12.554
34595W        W 2989  39.452  25.028   1.298
34596W        W 2990  41.048  29.078   4.228
34597W        W 2991  31.856  21.982   4.626
34598W        W 2992  13.306   2.490   1.820
34599W        W 2993   6.501  36.594  14.388
34600W        W 2994  11.560   7.983   4.850
34601W        W 2995  10.911  20.493   4.432
34602W        W 2996   5.314   9.781  10.646
34603W        W 2997   4.467   1.315  14.277
34604W        W 2998  12.487  33.938   3.605
34605W        W 2999   7.389  30.937  11.720
34606W        W 3000  34.512   2.871   0.878
34607W        W 3001  21.002  16.968   0.574
34608W        W 3002  35.631  43.094  11.386
34609W        W 3003  36.531  33.448   2.201
34610W        W 3004  37.609  20.528   0.676
34611W        W 3005  16.755  22.118   0.240
34612W        W 3006   6.694   4.985  12.948
34613W        W 3007  24.672  38.027   2.307
34614W        W 3008  35.562  17.595   1.387
34615W        W 3009  17.028  42.972   2.651
34616W        W 3010   4.715  12.859   2.892
34617W        W 3011  18.664  10.631   0.744
34618W        W 3012  11.235   9.792  12.395
34619W        W 3013   0.323  34.377   3.626
34620W        W 3014   8.072  32.720   0.829
34621W        W 3015  10.362  17.436   2.643
34622W        W 3016  32.758  35.447  12.860
34623W        W 3017  37.428  35.572  12.655
34624W        W 3018  39.775  31.353   1.299
34625W        W 3019  23.925  40.436   1.730
34626W        W 3020   4.114   4.115   5.380
34627W        W 3021  28.398  23.154   4.730
34628W        W 3022  42.707   7.906   5.012
34629W        W 3023  15.316   1.447  11.299
34630W        W 3024  28.084  35.109  10.092
34631W        W 3025   0.491  16.946   2.810
34632W        W 3026  34.871  12.317   4.249
34633W        W 3027  40.496  39.948  14.761
34634W        W 3028   6.422  16.609   4.887
34635W        W 3029  39.891  22.446  11.999
34636W        W 3030  39.072  40.907  14.465
34637W        W 3031  14.684  26.649  12.186
34638W        W 3032  37.957   8.725   1.602
34639W        W 3033  26.884   2.341   3.786
34640W        W 3034  16.170  12.347   2.295
34641W        W 3035  40.464  15.022  12.080
34642W        W 3036   1.178   5.797   3.976
34643W        W 3037   0.993  11.073   2.658
34644W        W 3038  25.474   1.888  12.307
34645W        W 3039  27.416  19.612   0.318
34646W        W 3040   4.482  19.907   2.797
34647W        W 3041  10.083  17.571  13.387
34648W        W 3042   2.068  21.098  10.566
34649W        W 3043  33.660  40.697  10.756
34650W        W 3044   0.854  14.678   1.747
34651W        W 3045  40.998  18.501   4.773
34652W        W 3046  27.002  34.953   3.162
34653W        W 3047  34.541  39.281   4.518
34654W        W 3048  31.242   2.507   3.754
34655W        W 3049  25.803  16.753  13.928
34656W        W 3050   4.406  43.797   4.305
34657W        W 3051  42.511  35.524  10.442
34658W        W 3052  31.585  31.930   0.233
34659W        W 3053  10.459   9.897   1.874
34660W        W 3054  11.203  36.370  14.510
34661W        W 3055   9.694  34.681  11.518
34662W        W 3056  41.914  42.908   4.918
34663W        W 3057  34.889   2.457  12.501
34664W        W 3058  25.430  20.591  11.176
34665W        W 3059  31.000  13.338  12.645
34666W        W 3060  24.100  16.207   3.305
34667W        W 3061  19.626  16.132  13.394
34668W        W 3062   3.276  18.053  12.061
34669W        W 3063   3.710  43.263  12.600
34670W        W 3064  20.406   9.754  10.618
34671W        W 3065  38.505  22.148  13.791
34672W        W 3066  26.179  22.230   1.854
34673W        W 3067  32.645   6.316   2.667
34674W        W 3068  13.907  23.488   0.254
34675W        W 3069  35.475   0.072   1.805
34676W        W 3070  41.782  38.354   3.703
34677W        W 3071   6.685  26.612  12.495
34678W        W 3072   4.058  40.736  11.035
34679W        W 3073   4.770  29.780   4.063
34680W        W 3074   6.587  16.862   1.814
34681W        W 3075  13.836   1.520  13.521
34682W        W 3076  10.377  11.653   0.424
34683W        W 3077   5.959  13.894  12.287
34684W        W 3078  12.739  15.782  11.903
34685W        W 3079  14.322  30.954  11.107
34686W        W 3080  14.660  34.177   4.255
34687W        W 3081  18.736  11.047   2.831
34688W        W 3082  16.746  32.862  14.881
34689W        W 3083   8.153  10.693  12.253
34690W        W 3084  30.534  27.580   3.249
34691W        W 3085  16.526   6.021  12.089
34692W        W 3086  13.905  10.570  14.924
34693W        W 3087   2.442  17.531  14.997
34694W        W 3088  36.077  30.068   2.836
34695W        W 3089  20.035  23.609   3.164
34696W        W 3090  39.908  30.779   3.130
34697W        W 3091   4.426  36.379   1.826
34698W        W 3092   4.836   8.930  13.482
34699W        W 3093   1.243   0.805   2.137
34700W        W 3094   6.496  15.875  12.787
34701W        W 3095   6.347  30.369   4.624
34702W        W 3096  44.824   2.866  14.048
34703W        W 3097  21.575  26.375  12.530
34704W        W 3098  18.217  34.144   2.322
34705W        W 3099  42.514  31.868  12.232
34706W        W 3100  33.621  20.620  12.014
34707W        W 3101  40.481  11.189  13.078
34708W        W 3102  11.444   7.948  14.026
34709W        W 3103   7.326   6.670   4.404
34710W        W 3104  31.024  28.452   2.930
34711W        W 3105  25.662   9.662   4.950
34712W        W 3106   9.876  19.038  12.477
34713W        W 3107  25.714   6.252   4.399
34714W        W 3108  19.334   7.714   0.393
34715W        W 3109  22.715  22.477  11.931
34716W        W 3110   8.909   3.839   3.145
34717W        W 3111  34.888  11.442  10.684
34718W        W 3112   6.380  28.954   1.963
34719W        W 3113  40.710  36.017  10.709
34720W        W 3114  21.301  32.966   4.649
34721W        W 3115  31.046  27.476   3.271
34722W        W 3116  19.830  19.243  12.497
34723W        W 3117  11.610  30.086  11.635
34724W        W 3118  18.085  29.990  14.983
34725W        W 3119  43.035  42.265   1.423
34726W        W 3120  29.207  10.711  13.434
34727W        W 3121  22.327  32.965   4.837
34728W        W 3122  20.244   1.710   0.227
34729W        W 3123   2.144  39.737  14.070
34730W        W 3124  17.350  37.152  13.545
34731W        W 3125  30.605  17.965  11.241
34732W        W 3126  22.898  15.299  12.673
34733W        W 3127  38.214  40.145  13.811
34734W        W 3128   0.757  32.399  13.992
34735W        W 3129  26.902  35.027   1.799
34736W        W 3130  23.526  28.081  12.287
34737W        W 3131  30.086  21.418   0.941
34738W        W 3132  37.296   2.470   0.154
34739W        W 3133   2.907   1.920  11.410
34740W        W 3134   5.206   6.408  12.863
34741W        W 3135  13.620  19.666  11.921
34742W        W 3136  40.234  40.787   3.746
34743W        W 3137   0.380   6.606   2.338
34744W        W 3138  27.841  40.428   1.711
34745W        W 3139  24.073  36.482  14.277
34746W        W 3140  12.723  15.043   2.702
34747W        W 3141  43.680   9.019   1.723
34748W        W 3142  40.044  14.313  12.432
34749W        W 3143   3.638   6.801   0.684
34750W        W 3144   3.181  34.921  13.003
34751W        W 3145  31.019  33.855  11.227
34752W        W 3146  31.620  11.369  12.108
34753W        W 3147  43.523  38.505   3.318
34754W        W 3148  43.917  28.598   0.232
34755W        W 3149   2.950  22.084  11.436
34756W        W 3150  23.813  38.387  14.664
34757W        W 3151  20.035  17.683   2.246
34758W        W 3152   8.785   1.003  12.258
34759W        W 3153  39.609  32.623  11.678
34760W        W 3154   0.862  40.063   0.443
34761W        W 3155  10.281   8.574  11.224
34762W        W 3156  10.177  27.259   1.647
34763W        W 3157  17.648   7.284  13.807
34764W        W 3158  36.940  17.472  11.048
34765W        W 3159  16.671   7.384  10.359
34766W        W 3160  24.797  40.002   1.963
34767W        W 3161  12.143  25.531   0.546
34768W        W 3162  39.394  34.832  14.029
34769W        W 3163   8.385  34.094  13.491
34770W        W 3164  29.539  16.672   1.774
34771W        W 3165  12.853   8.818  13.336
34772W        W 3166  14.781  39.281   4.693
34773W        W 3167   3.226   9.312  14.071
34774W        W 3168  10.752  22.933   2.596
34775W        W 3169  20.610   4.656  14.259
34776W        W 3170   4.414  17.055  12.838
34777W        W 3171  32.284   3.127  12.614
34778W        W 3172   7.758  10.661   2.635
34779W        W 3173   0.910  16.694   2.620
34780W        W 3174  35.341  22.456   2.648
34781W        W 3175  37.332  26.307  10.875
34782W        W 3176  37.870   2.562   2.334
34783W        W 3177  23.469  34.164   1.794
34784W        W 3178   7.953   4.936   1.391
34785W        W 3179  33.084  37.075   0.009
34786W        W 3180  38.370  30.748  14.980
34787W        W 3181   7.869  27.942  13.384
34788W        W 3182  29.591  23.624   2.743
34789W        W 3183   7.391  29.140  11.653
34790W        W 3184  27.145   0.712  12.919
34791W        W 3185  17.582  42.311   0.019
34792W        W 3186  26.434  26.024  10.937
34793W        W 3187  29.021  42.897   2.445
34794W        W 3188   1.461  12.731   1.558
34795W        W 3189  37.950  27.348   4.540
34796W        W 3190  12.594   8.491   3.295
34797W        W 3191  36.921   2.490   4.401
34798W        W 3192  24.237  36.421   1.274
34799W        W 3193  38.106  14.914  14.498
34800W        W 3194  34.538   6.115   2.024
34801W        W 3195  25.286  42.953   4.639
34802W        W 3196   9.718  28.435   4.598
34803W        W 3197  38.539  14.787   1.902
34804W        W 3198  18.261  17.722   0.826
34805W        W 3199  33.391  42.040  12.039
34806W        W 3200  22.130  22.528  13.276
34807W        W 3201  39.300   7.773  11.470
34808W        W 3202  21.769  11.845  13.341
34809W        W 3203  33.795  31.610  12.589
34810W        W 3204   1.338  14.852  11.030
34811W        W 3205  12.569  42.074   1.185
34812W        W 3206   3.213   7.861   4.583
34813W        W 3207  38.883   9.278  13.697
34814W        W 3208   0.516  19.580   4.578
34815W        W 3209  10.781   4.028   0.641
34816W        W 3210  20.666  43.064   1.302
34817W        W 3211  35.586  44.353   3.737
34818W        W 3212   5.796  10.895   0.791
34819W        W 3213  43.530  17.685  13.535
34820W        W 3214  35.312  29.424  12.494
34821W        W 3215  32.571   9.622   1.744
34822W        W 3216  33.573   4.153  14.711
34823W        W 3217  32.113  28.711   2.611
34824W        W 3218  32.097   8.419   3.748
34825W        W 3219  34.420  29.412  14.319
34826W        W 3220  14.277  34.617   1.167
34827W        W 3221  14.144  38.568   0.742
34828W        W 3222   4.003   8.624  11.889
34829W        W 3223  38.565  12.447   2.001
34830W        W 3224  10.483  20.053  12.191
34831W        W 3225   3.248  32.768  12.143
34832W        W 3226  17.198  26.577  10.113
34833W        W 3227   7.503   8.258   1.156
34834W        W 3228   4.336  18.513  12.612
34835W        W 3229  23.980  24.212  14.021
34836W        W 3230  24.841   7.293  13.527
34837W        W 3231   3.444  17.062  10.142
34838W        W 3232   3.494  39.374  11.621
34839W        W 3233   1.677   3.803   4.008
34840W        W 3234  29.400  33.606   0.704
34841W        W 3235  30.883   7.888  13.820
34842W        W 3236   3.455  44.230   2.259
34843W        W 3237  19.751  27.106  13.995
34844W        W 3238  36.469  15.983   2.275
34845W        W 3239  12.677   8.249   2.852
34846W        W 3240   4.404  41.073   0.645
34847W        W 3241  18.563  39.276   3.631
34848W        W 3242   2.943  29.828  11.608
34849W        W 3243  41.342  30.689   1.216
34850W        W 3244  17.426  32.866  13.819
34851W        W 3245  36.428  32.703   1.861
34852W        W 3246   8.217   1.978  13.921
34853W        W 3247   3.931  24.622   3.541
34854W        W 3248  23.625   1.830   1.987
34855W        W 3249  30.920   1.530  12.062
34856W        W 3250  42.352  43.315  10.729
34857W        W 3251  11.669  11.091  10.728
34858W        W 3252  25.480  19.078  13.318
34859W        W 3253  37.074  37.376  11.094
34860W        W 3254  37.491  15.546  14.343
34861W        W 3255  20.978  34.832  10.778
34862W        W 3256  11.589  26.646  14.327
34863W        W 3257   3.314  22.893   4.576
34864W        W 3258  13.766  38.920   0.693
34865W        W 3259  17.960   4.823   2.315
34866W        W 3260  18.935  19.295   2.165
34867W        W 3261  38.598  42.547   3.276
34868W        W 3262  44.637  31.319   3.586
34869W        W 3263  22.210  28.825  11.422
34870W        W 3264  44.186   3.890  13.403
34871W        W 3265  29.577  33.547  12.236
34872W        W 3266  26.262  41.856  11.041
34873W        W 3267  25.328  24.521  11.560
34874W        W 3268  21.657   2.726  11.104
34875W        W 3269  43.081  22.030  14.694
34876W        W 3270  18.871  17.013  14.286
34877W        W 3271   4.858   5.707  14.501
34878W        W 3272  15.537  18.876  11.116
34879W        W 3273  40.501  43.413  14.722
34880W        W 3274  22.706   9.856   4.520
34881W        W 3275   6.947  18.645  11.064
34882W        W 3276  23.558  43.040  12.602
34883W        W 3277  12.800  11.344  14.898
34884W        W 3278   9.740  39.742  11.137
34885W        W 3279  36.240  10.629   0.550
34886W        W 3280  19.759  44.451  12.065
34887W        W 3281  28.612  15.393   1.775
34888W        W 3282   9.693  24.046   1.415
34889W        W 3283  11.328   5.846  12.327
34890W        W 3284  23.120   1.279  14.391
34891W        W 3285  29.727   8.301  12.046
34892W        W 3286  18.734   1.832   2.712
34893W        W 3287  22.449  12.126   3.564
34894W        W 3288  42.939  22.686  12.533
34895W        W 3289  21.397  30.915   0.849
34896W        W 3290  15.842  26.017   1.337
34897W        W 3291  21.770   0.043   1.315
34898W        W 3292  24.461  17.153   2.416
34899W        W 3293   5.378  33.963  13.988
34900W        W 3294  25.904  36.775   2.689
34901W        W 3295   4.279  35.318  10.980
34902W        W 3296  31.960  14.625  11.669
34903W        W 3297  25.982  25.055   4.621
34904W        W 3298  18.490  38.001   4.073
34905W        W 3299  24.042  15.739   0.107
34906W        W 3300  41.386  34.526  14.380
34907W        W 3301   5.214  36.745  12.468
34908W        W 3302  26.881   5.578  14.347
34909W        W 3303   4.934  10.844   0.681
34910W        W 3304  12.132   0.262   3.760
34911W        W 3305   3.855  21.259  13.013
34912W        W 3306  20.578  13.116   0.734
34913W        W 3307  17.925  41.524   1.829
34914W        W 3308  27.626  31.130  10.667
34915W        W 3309  27.530  17.516  14.883
34916W        W 3310  19.716  21.704  11.717
34917W        W 3311  42.203  16.339   1.967
34918W        W 3312  38.607  41.646  12.990
34919W        W 3313  29.589  19.214  11.594
34920W        W 3314  15.097  16.754   1.917
34921W        W 3315   0.420  38.797  11.504
34922W        W 3316   4.582  28.942  12.656
34923W        W 3317  13.210  12.370   2.247
34924W        W 3318   1.275  34.121   4.150
34925W        W 3319  18.254  14.387  11.179
34926W        W 3320  16.809  26.549  12.610
34927W        W 3321  13.832  15.617   1.336
34928W        W 3322  21.157  43.456   0.702
34929W        W 3323  16.701  25.351   2.674
34930W        W 3324  14.203   7.196   1.410
34931W        W 3325  41.420   0.815  10.476
34932W        W 3326  17.224  41.965   2.444
34933W        W 3327  20.775  37.471  10.370
34934W        W 3328  19.319  36.123  13.872
34935W        W 3329  19.814  34.910   3.639
34936W        W 3330  12.388  28.156  12.630
34937W        W 3331  15.697  12.202   2.441
34938W        W 3332  19.425  10.254  14.337
34939W        W 3333  42.843  26.487   3.861
34940W        W 3334  19.394  14.251  10.927
34941W        W 3335  41.364  35.861   1.467
34942W        W 3336  29.310  43.308  10.956
34943W        W 3337   4.740  22.578  13.944
34944W        W 3338   5.895  20.675   0.438
34945W        W 3339  15.290  23.174  13.957
34946W        W 3340  19.071  43.082  10.966
34947W        W 3341   1.352  15.055   2.255
34948W        W 3342   4.671  14.075  13.469
34949W        W 3343  18.348  12.698   1.521
34950W        W 3344   7.791  12.782   3.204
34951W        W 3345  41.876   8.571  11.157
34952W        W 3346  28.937  10.713  12.998
34953W        W 3347  28.071  22.313   4.959
34954W        W 3348  44.531  24.758   3.399
34955W        W 3349  26.636  29.432  13.015
34956W        W 3350   3.825  23.459  13.457
34957W        W 3351  33.475   5.921  14.465
34958W        W 3352  42.463  34.493  11.377
34959W        W 3353  10.775  31.093  10.596
34960W        W 3354  25.604   0.984   1.021
34961W        W 3355  19.303  14.261   2.577
34962W        W 3356   8.270  21.339  13.833
34963W        W 3357  15.537   2.979   2.403
34964W        W 3358  33.733  22.554   5.105
34965W        W 3359  16.290  43.304   4.833
34966W        W 3360   4.439   1.964  14.979
34967W        W 3361  38.533   8.180  10.816
34968W        W 3362   1.996  11.165   1.773
34969W        W 3363   2.924  38.458   1.858
34970W        W 3364  38.604  17.202  13.087
34971W        W 3365   5.812  20.998   4.347
34972W        W 3366   7.397  20.633   3.000
34973W        W 3367  18.882  17.049   3.996
34974W        W 3368  14.409  41.332   2.445
34975W        W 3369  16.252  42.542  14.868
34976W        W 3370  39.885  40.333  14.427
34977W        W 3371  26.030  17.606  13.395
34978W        W 3372  41.928   9.171   0.978
34979W        W 3373  42.112  30.637   3.391
34980W        W 3374  33.029  36.657  10.354
34981W        W 3375  38.921  43.745   3.343
34982W        W 3376  38.879  22.373  13.372
34983W        W 3377   6.853  10.643   4.690
34984W        W 3378  22.633  32.616   1.325
34985W        W 3379  20.893   6.286  11.149
34986W        W 3380  32.502  10.234  14.385
34987W        W 3381  22.212  34.484  10.780
34988W        W 3382  11.761  10.171  11.312
34989W        W 3383  10.854  30.301   4.108
34990W        W 3384  17.756   5.974  13.638
34991W        W 3385  19.633  31.503   1.577
34992W        W 3386  21.406  10.776  12.090
34993W        W 3387  17.962   5.180   2.756
34994W        W 3388  29.076  17.857   2.298
34995W        W 3389  26.772  10.802   4.969
34996W        W 3390  27.684  35.881  14.163
34997W        W 3391  21.986   8.927   0.339
34998W        W 3392  26.515   2.784   2.490
34999W        W 3393   9.874  44.320   3.869
35000W        W 3394  19.038   5.778  14.925
35001W        W 3395  16.629   7.463  11.241
35002W        W 3396  32.463   2.774  13.585
35003W        W 3397  24.707  14.414  14.356
35004W        W 3398  43.997   3.755  12.059
35005W        W 3399   1.579  13.276  10.953
35006W        W 3400  35.148  39.090  11.094
35007W        W 3401  15.089  23.193  12.969
35008W        W 3402  38.495   6.681  14.575
35009W        W 3403  40.009  26.104  13.065
35010W        W 3404  27.664  10.376   1.922
35011W        W 3405  29.835   5.787  10.549
35012W        W 3406  28.697   2.008  10.975
35013W        W 3407   5.597   0.864  14.073
35014W        W 3408  33.804   0.296   0.274
35015W        W 3409  28.057  22.208   4.339
35016W        W 3410   2.971  44.463  10.599
35017W        W 3411  40.428  43.898   1.084
35018W        W 3412  41.829   3.447   3.734
35019W        W 3413  23.313  24.526  10.706
35020W        W 3414   1.427   5.231   4.606
35021W        W 3415  26.638  19.631   0.957
35022W        W 3416   8.336  17.191   1.720
35023W        W 3417   8.295  26.909   1.465
35024W        W 3418  31.558  34.709   2.224
35025W        W 3419  33.017  22.144   4.809
35026W        W 3420  34.809  11.784  14.419
35027W        W 3421  10.449  12.285   1.962
35028W        W 3422  19.267   3.481  13.873
35029W        W 3423   6.658  12.839   3.234
35030W        W 3424   5.211  39.513  13.958
35031W        W 3425   5.681  44.439  13.388
35032W        W 3426  34.007  24.490  12.882
35033W        W 3427  22.692   2.354  11.413
35034W        W 3428  33.516  34.228  14.880
35035W        W 3429  27.492  31.416  12.028
35036W        W 3430  17.103  30.992   3.130
35037W        W 3431   9.494  44.262  11.282
35038W        W 3432  17.007  36.897   5.002
35039W        W 3433   4.114  14.624   2.661
35040W        W 3434  19.579  15.391  14.091
35041W        W 3435   8.684  32.698   1.706
35042W        W 3436  29.873  15.800   2.434
35043W        W 3437  24.047  28.235  10.335
35044W        W 3438  43.304  16.080   2.719
35045W        W 3439  19.583  21.667  14.011
35046W        W 3440   6.652  11.071  14.378
35047W        W 3441  39.815   6.262   1.696
35048W        W 3442   7.751  29.509   2.665
35049W        W 3443  10.688   6.774  12.094
35050W        W 3444   9.545  27.799  10.274
35051W        W 3445  30.078  27.077   1.399
35052W        W 3446  25.046  23.551  11.428
35053W        W 3447   8.862  39.452   4.181
35054W        W 3448   7.869  11.413   0.914
35055W        W 3449   2.839   9.884  13.341
35056W        W 3450  20.793  35.900   3.612
35057W        W 3451  41.689  18.319   4.264
35058W        W 3452   4.550  38.694  10.331
35059W        W 3453  15.096   1.286  12.494
35060W        W 3454  38.866  11.878  13.029
35061W        W 3455  16.321  12.378   3.910
35062W        W 3456  26.753  44.937  12.415
35063W        W 3457  39.236  27.964  13.319
35064W        W 3458  19.724   7.115   4.210
35065W        W 3459  32.135  14.643  13.657
35066W        W 3460  20.047  25.156   9.837
35067W        W 3461  22.583  28.217  14.554
35068W        W 3462  41.506  19.782  14.864
35069W        W 3463  24.914  28.340   2.078
35070W        W 3464  27.566  37.979   4.277
35071W        W 3465  19.086   5.205   0.362
35072W        W 3466  39.326   8.795  11.657
35073W        W 3467  34.901  28.706   0.217
35074W        W 3468  27.580  27.172   0.420
35075W        W 3469   6.518  13.641   4.521
35076W        W 3470   6.748   6.762  14.724
35077W        W 3471  37.925  14.329  13.133
35078W        W 3472  13.438  37.542  13.553
35079W        W 3473  15.040   1.929   3.728
35080W        W 3474  29.405  42.890   1.205
35081W        W 3475  39.553  41.357   0.070
35082W        W 3476  32.904  41.480   3.884
35083W        W 3477  31.975  23.562  12.998
35084W        W 3478  36.119  25.544  12.705
35085W        W 3479  42.460  26.791   5.058
35086W        W 3480  22.338  34.894   4.203
35087W        W 3481  42.406  43.826  13.967
35088W        W 3482  41.682  39.413  14.541
35089W        W 3483  12.981  41.192   2.201
35090W        W 3484  33.481  43.608  13.796
35091W        W 3485  35.023  24.969  11.228
35092W        W 3486   0.041  11.136   3.074
35093W        W 3487   4.664  15.009  12.533
35094W        W 3488  37.140  23.042   3.607
35095W        W 3489   1.667   4.005  10.777
35096W        W 3490   8.944  33.421  14.050
35097W        W 3491  31.655  29.285  13.371
35098W        W 3492   8.855  40.791  12.338
35099W        W 3493  11.632  37.675  12.502
35100W        W 3494  37.871  29.844  12.610
35101W        W 3495  36.372  10.308  14.676
35102W        W 3496  36.332   9.779  10.594
35103W        W 3497  35.396  25.398  12.454
35104W        W 3498  44.239   2.096   2.643
35105W        W 3499  30.035  34.401   3.677
35106W        W 3500  23.508  36.659   1.627
35107W        W 3501  31.722   6.866  13.374
35108W        W 3502   7.213  31.139   3.394
35109W        W 3503  36.603  40.401   4.623
35110W        W 3504   7.158   3.829  12.363
35111W        W 3505  17.572  13.293   1.820
35112W        W 3506  36.392   0.815   4.359
35113W        W 3507  23.913  17.226  13.877
35114W        W 3508  36.538   9.648   3.649
35115W        W 3509  20.815  14.695   0.086
35116W        W 3510  10.679  26.953  12.920
35117W        W 3511  19.041  14.137   4.328
35118W        W 3512   7.209  11.252   2.763
35119W        W 3513  35.592  15.630  13.445
35120W        W 3514   2.672  33.396   3.889
35121W        W 3515  42.359  25.859   2.699
35122W        W 3516   6.036   0.271  13.434
35123W        W 3517  43.192  18.058   5.058
35124W        W 3518  30.082   5.989   3.099
35125W        W 3519  18.206  14.861  13.086
35126W        W 3520   6.858  31.091   0.870
35127W        W 3521  36.857   6.153  13.956
35128W        W 3522  17.095  18.639   2.442
35129W        W 3523  19.676   2.941  11.260
35130W        W 3524   6.639   1.617  11.535
35131W        W 3525   6.974  33.637   4.807
35132W        W 3526  10.417  17.311   0.880
35133W        W 3527  33.412  41.965   2.735
35134W        W 3528  23.011  27.143   3.063
35135W        W 3529  22.556   4.207   4.239
35136W        W 3530  31.127  39.109  11.945
35137W        W 3531  20.676  19.159   4.024
35138W        W 3532   7.404  20.552   1.260
35139W        W 3533  28.300  16.999   0.819
35140W        W 3534   3.228  10.872  10.592
35141W        W 3535  38.963  41.874  13.353
35142W        W 3536  25.272  36.447   1.516
35143W        W 3537  39.586  18.675  14.465
35144W        W 3538   6.469  13.085   0.928
35145W        W 3539   2.489  11.370   2.145
35146W        W 3540  23.551  36.493   0.694
35147W        W 3541  11.816  24.678   0.945
35148W        W 3542   2.391  30.641   3.277
35149W        W 3543  38.762  30.185   0.237
35150W        W 3544   1.639  41.283   1.905
35151W        W 3545  11.337  25.273   2.300
35152W        W 3546   3.312  16.288   4.561
35153W        W 3547  16.132   2.743  13.442
35154W        W 3548  33.575  31.529   1.813
35155W        W 3549  16.241  41.332  14.263
35156W        W 3550  45.000  14.004  12.363
35157W        W 3551  23.243  15.829  14.160
35158W        W 3552  14.354  23.798  12.548
35159W        W 3553  23.565   2.996  14.933
35160W        W 3554  39.408  26.142  12.047
35161W        W 3555  33.969   5.340  10.748
35162W        W 3556  37.955   6.977  13.882
35163W        W 3557  41.191  29.557  10.530
35164W        W 3558  40.846  30.092   3.411
35165W        W 3559   3.760   0.568  13.072
35166W        W 3560  28.633  11.637   0.199
35167W        W 3561   9.742  35.558  14.877
35168W        W 3562  20.738  40.787   3.364
35169W        W 3563  38.974  42.441  12.513
35170W        W 3564  37.538   4.276   1.184
35171W        W 3565  17.375  30.425  12.974
35172W        W 3566  12.436   6.411   1.391
35173W        W 3567  10.218   3.858  14.748
35174W        W 3568  31.803   2.736   2.808
35175W        W 3569   1.419   2.245   1.195
35176W        W 3570  28.693  38.963  14.544
35177W        W 3571  41.467  13.110  13.421
35178W        W 3572  16.362  25.629  14.322
35179W        W 3573   2.186  38.339   2.392
35180W        W 3574   8.860  44.880  14.861
35181W        W 3575   5.232  27.562   4.139
35182W        W 3576  12.306  21.329   4.179
35183W        W 3577  24.605  33.653   0.914
35184W        W 3578  41.012  41.985   1.858
35185W        W 3579  40.116  23.642   1.338
35186W        W 3580  41.020  24.112   0.549
35187W        W 3581  36.605   0.454   0.966
35188W        W 3582   2.543  39.855   3.390
35189W        W 3583  24.619   1.611   9.746
35190W        W 3584  21.071  31.500  13.303
35191W        W 3585  25.509  29.482   2.260
35192W        W 3586  15.003   8.888   2.333
35193W        W 3587   2.866  19.331   4.127
35194W        W 3588  36.942  25.920   3.940
35195W        W 3589  33.044   3.351   1.956
35196W        W 3590  15.057   7.940  12.050
35197W        W 3591  25.895  18.482   3.293
35198W        W 3592   9.345  18.637  12.036
35199W        W 3593   5.979   9.199  12.223
35200W        W 3594   3.926  34.837  10.339
35201W        W 3595  11.939  26.125   0.992
35202W        W 3596   4.155  19.056  14.894
35203W        W 3597   1.930  15.425  11.251
35204W        W 3598  24.970  37.396   3.084
35205W        W 3599   9.245  41.889   2.368
35206W        W 3600  13.088  16.464   0.164
35207W        W 3601  34.323   3.284  11.507
35208W        W 3602   1.829  31.971   0.158
35209W        W 3603  32.112  14.849   0.195
35210W        W 3604  16.630  13.728  14.493
35211W        W 3605  20.144  40.370  12.056
35212W        W 3606  29.321   6.152  10.435
35213W        W 3607  16.561  36.021   0.203
35214W        W 3608  32.563  25.153  14.914
35215W        W 3609  14.066  17.686  10.632
35216W        W 3610  42.896  44.404   2.676
35217W        W 3611   4.867  16.870  13.983
35218W        W 3612  39.940   4.748  13.050
35219W        W 3613  44.893  43.328  14.266
35220W        W 3614  15.894  18.675  10.271
35221W        W 3615  22.038  10.496   4.976
35222W        W 3616  43.843  22.023  10.704
35223W        W 3617  20.554  29.607   2.873
35224W        W 3618  21.237  38.326   1.356
35225W        W 3619   0.375  44.890  13.308
35226W        W 3620  24.916  43.062   3.839
35227W        W 3621  16.144  22.778  12.282
35228W        W 3622  38.769  20.521   3.682
35229W        W 3623   5.497  22.499  13.569
35230W        W 3624  28.554  43.940   3.644
35231W        W 3625   6.034  11.880  14.464
35232W        W 3626  33.433  28.705  11.111
35233W        W 3627  42.077  44.517  13.935
35234W        W 3628  26.687  12.120   1.697
35235W        W 3629   9.716  43.888   3.622
35236W        W 3630  29.240  33.904  10.059
35237W        W 3631   1.895  18.025  10.456
35238W        W 3632   5.435  41.164  12.609
35239W        W 3633  17.546   0.406  11.121
35240W        W 3634   7.921  37.384   1.445
35241W        W 3635  28.986  35.113   3.371
35242W        W 3636  30.536  40.768  10.762
35243W        W 3637   4.862  28.501   2.889
35244W        W 3638  38.036  15.332   2.241
35245W        W 3639  19.155  42.273   3.702
35246W        W 3640  43.332  34.436   2.325
35247W        W 3641  41.779  40.615   0.536
35248W        W 3642   1.855  20.305   0.307
35249W        W 3643  18.642  14.797  11.907
35250W        W 3644  29.222  39.541  14.153
35251W        W 3645  32.533  36.231  13.085
35252W        W 3646   3.660   0.709  11.434
35253W        W 3647   1.326   6.312  13.841
35254W        W 3648  40.259  20.747   0.305
35255W        W 3649  18.736  19.715   3.304
35256W        W 3650  15.757  26.667  12.655
35257W        W 3651  38.393  37.156   3.353
35258W        W 3652  35.462  28.165   1.552
35259W        W 3653  39.143  32.463  11.835
35260W        W 3654  24.444   7.318  13.883
35261W        W 3655   4.490  36.865  11.115
35262W        W 3656  41.744  16.395   0.977
35263W        W 3657  34.084  27.863   0.915
35264W        W 3658   9.208  37.884   2.418
35265W        W 3659  15.353  44.115  11.102
35266W        W 3660  15.886  16.749   5.490
35267W        W 3661   9.383  36.619  11.624
35268W        W 3662  34.110  32.540   4.103
35269W        W 3663  27.039  13.157  11.181
35270W        W 3664  22.104  36.746  13.203
35271W        W 3665  16.882  42.305  12.361
35272W        W 3666  36.987  28.115   1.289
35273W        W 3667  33.888  13.719  12.026
35274W        W 3668   2.400   9.835  13.874
35275W        W 3669  17.849  33.866  13.295
35276W        W 3670  40.457  35.881  10.260
35277W        W 3671  22.829   7.845  11.621
35278W        W 3672  16.762  31.608  12.639
35279W        W 3673   4.374  17.531   1.568
35280W        W 3674  15.683  24.638   2.663
35281W        W 3675  13.804  40.841   1.747
35282W        W 3676  25.865  42.578  11.484
35283W        W 3677  42.170  39.815  12.763
35284W        W 3678  20.647  16.977  14.826
35285W        W 3679   6.267  33.097  14.870
35286W        W 3680  27.753  37.525  10.751
35287W        W 3681  44.857  42.886  13.388
35288W        W 3682   4.911   3.886   0.697
35289W        W 3683  14.371  20.825   1.664
35290W        W 3684  20.248  26.791   1.839
35291W        W 3685  23.033  43.008  10.768
35292W        W 3686  24.032  28.760  11.206
35293W        W 3687  29.263  30.736  10.684
35294W        W 3688  34.427  39.007  14.321
35295W        W 3689  16.591  42.178   4.700
35296W        W 3690  18.831  25.659   3.264
35297W        W 3691   8.486  36.848   3.631
35298W        W 3692  23.238  18.107  14.805
35299W        W 3693   4.026   6.314  13.519
35300W        W 3694   5.037   3.238  11.899
35301W        W 3695  34.369  34.121  12.573
35302W        W 3696  12.156  11.211   0.354
35303W        W 3697   0.205  18.653  12.081
35304W        W 3698  27.985  25.728   1.235
35305W        W 3699  22.171  11.160   3.651
35306W        W 3700   9.157  22.885  11.523
35307W        W 3701  35.057  16.858  12.615
35308W        W 3702  37.901  25.362   1.153
35309W        W 3703   5.194   4.014   3.950
35310W        W 3704  24.716   0.213  12.965
35311W        W 3705  31.952  22.485   3.072
35312W        W 3706  26.849  24.197   0.889
35313W        W 3707  16.226  33.783  11.523
35314W        W 3708   6.420  35.208   2.364
35315W        W 3709  23.644  24.009  12.714
35316W        W 3710  36.612  32.896  13.619
35317W        W 3711  11.883  10.869   2.462
35318W        W 3712  20.370   2.549   1.500
35319W        W 3713  15.663   4.733   2.595
35320W        W 3714  38.398  24.661  14.360
35321W        W 3715  12.013   5.770  14.925
35322W        W 3716  19.192   0.441  13.555
35323W        W 3717  36.569  19.581   1.482
35324W        W 3718  33.099  16.074  12.900
35325W        W 3719  28.607  31.187  12.845
35326W        W 3720  40.935  34.214  11.951
35327W        W 3721  38.357   1.334   3.638
35328W        W 3722  26.633   1.222  14.344
35329W        W 3723  17.845  28.670   3.898
35330W        W 3724   4.795   2.240  14.111
35331W        W 3725  18.646   2.416   3.775
35332W        W 3726  36.056  42.068  11.175
35333W        W 3727  35.630  44.245  12.028
35334W        W 3728  10.679  42.240  14.801
35335W        W 3729  33.785  26.087  13.301
35336W        W 3730  40.212  10.178  10.744
35337W        W 3731  19.061   9.746  11.164
35338W        W 3732  37.323  39.261   2.196
35339W        W 3733  31.710  14.094   1.882
35340W        W 3734  14.791  13.828   0.576
35341W        W 3735  26.711  20.781   0.210
35342W        W 3736   9.507  29.036   3.795
35343W        W 3737  43.447  26.226   2.810
35344W        W 3738  25.419  31.970  10.714
35345W        W 3739  14.893  22.753  10.223
35346W        W 3740   2.560   6.139   0.789
35347W        W 3741  26.604   9.394  13.387
35348W        W 3742  11.991  21.117  13.434
35349W        W 3743  23.762   3.564  14.050
35350W        W 3744  36.386  19.847  11.664
35351W        W 3745  29.654  43.373   0.458
35352W        W 3746  39.966  34.419   1.356
35353W        W 3747  40.542  10.407   0.316
35354W        W 3748  41.849   0.205   2.339
35355W        W 3749  22.304  23.528   1.026
35356W        W 3750  32.951  31.010  14.368
35357W        W 3751  20.987   0.347  10.716
35358W        W 3752  19.239  18.031  11.193
35359W        W 3753  36.989  30.096   4.888
35360W        W 3754   5.173  19.015  11.695
35361W        W 3755  15.699   6.002  13.971
35362W        W 3756  12.783  38.791  12.009
35363W        W 3757   2.431  26.329   0.183
35364W        W 3758   0.952  10.446  13.342
35365W        W 3759   0.786  23.109  11.121
35366W        W 3760  11.653  13.781  10.744
35367W        W 3761  26.505  14.065   3.199
35368W        W 3762  16.123  17.706  14.877
35369W        W 3763  27.758  33.178   4.555
35370W        W 3764  14.752  26.462   1.407
35371W        W 3765  43.735  31.525  10.731
35372W        W 3766   2.513  19.326  13.559
35373W        W 3767  25.822   0.874   4.506
35374W        W 3768  15.604  13.223   1.809
35375W        W 3769  35.712  26.133  10.479
35376W        W 3770  12.127  33.497  13.009
35377W        W 3771  13.227  17.591  12.551
35378W        W 3772  10.692   0.582   1.419
35379W        W 3773  33.637  44.546  10.543
35380W        W 3774  16.673  31.702   1.256
35381W        W 3775  12.392  25.048  12.905
35382W        W 3776  34.513  10.793  11.215
35383W        W 3777  28.430  40.088   2.872
35384W        W 3778   1.501   1.474  14.302
35385W        W 3779   3.341  36.611   0.919
35386W        W 3780  10.500  13.308   0.757
35387W        W 3781  11.671  14.292  13.109
35388W        W 3782   1.887  39.386  12.291
35389W        W 3783   5.133  38.334   3.750
35390W        W 3784  17.867  24.857  13.237
35391W        W 3785   1.717  39.512  14.324
35392W        W 3786   3.417  43.051  11.425
35393W        W 3787  19.636  32.335   2.515
35394W        W 3788  27.381  23.529   1.888
35395W        W 3789  41.132   7.353  14.457
35396W        W 3790  38.578  24.919  10.886
35397W        W 3791   7.095   5.712   0.999
35398W        W 3792  35.375  23.610   0.724
35399W        W 3793  20.156  29.430   1.401
35400W        W 3794  40.018  21.997  12.991
35401W        W 3795  33.622  19.057   3.809
35402W        W 3796  26.054  27.223  14.441
35403W        W 3797  21.235  27.424  11.616
35404W        W 3798   4.288   2.913   2.869
35405W        W 3799  24.048  35.955   3.776
35406W        W 3800  43.704  35.989  14.810
35407W        W 3801   9.392  38.525  10.683
35408W        W 3802  26.289  15.564  11.590
35409W        W 3803  12.069  26.087   4.816
35410W        W 3804  11.831   6.151   3.325
35411W        W 3805  32.478  23.518  14.198
35412W        W 3806  34.091  37.264  14.052
35413W        W 3807   9.815  40.869   2.808
35414W        W 3808   1.372   0.449   4.339
35415W        W 3809   1.957  42.525  12.022
35416W        W 3810  31.883  34.023   3.672
35417W        W 3811  13.672  39.786   2.837
35418W        W 3812   1.866  19.180   1.373
35419W        W 3813   2.900  40.221   1.236
35420W        W 3814   9.601  11.241  13.634
35421W        W 3815  24.224  10.673   3.218
35422W        W 3816  29.070  14.542   3.213
35423W        W 3817  27.522  22.399   0.371
35424W        W 3818  20.029  33.023  11.440
35425W        W 3819  20.255   4.993  11.822
35426W        W 3820   9.832  13.762  14.359
35427W        W 3821  20.139  16.966   3.162
35428W        W 3822   7.292  43.585   4.324
35429W        W 3823  44.737  32.931  13.116
35430W        W 3824  41.764  36.889   1.489
35431W        W 3825  10.140   5.734  13.319
35432W        W 3826  14.343   0.501   3.314
35433W        W 3827  19.440  18.568   2.393
35434W        W 3828  39.456  20.662   4.416
35435W        W 3829  10.308   1.856  13.968
35436W        W 3830   7.693  43.384   1.988
35437W        W 3831  16.488  18.593  12.004
35438W        W 3832  19.982  16.140   0.773
35439W        W 3833  14.278  18.072  13.842
35440W        W 3834  11.344   3.384  11.073
35441W        W 3835  31.015  15.851  10.460
35442W        W 3836  14.166   0.232  13.259
35443W        W 3837  34.295  38.394   0.733
35444W        W 3838   3.941  37.481   3.166
35445W        W 3839  21.299   7.408  11.183
35446W        W 3840  23.997  12.831   3.205
35447W        W 3841  37.363  27.035  11.164
35448W        W 3842   4.388  41.196   2.442
35449W        W 3843  16.491   4.820  11.203
35450W        W 3844  25.951  18.409  14.737
35451W        W 3845   0.202  12.796   2.847
35452W        W 3846  22.714  23.916  12.232
35453W        W 3847  22.892   3.040   0.746
35454W        W 3848   5.852  35.517   4.434
35455W        W 3849   1.946  43.894  13.410
35456W        W 3850  41.605  13.643   0.314
35457W        W 3851   2.624  21.573   2.593
35458W        W 3852  23.504  41.875   4.717
35459W        W 3853  23.412  35.540   3.504
35460W        W 3854   1.701  12.795   0.399
35461W        W 3855  20.132   2.083  11.109
35462W        W 3856  21.262  44.806   1.369
35463W        W 3857  43.243  37.961  14.937
35464W        W 3858  38.979  22.044   1.729
35465W        W 3859  18.966   3.018   3.707
35466W        W 3860  33.061  30.471   3.381
35467W        W 3861  41.053  12.876   4.201
35468W        W 3862  27.381  29.652   0.400
35469W        W 3863  35.305  38.847   5.044
35470W        W 3864  22.789  26.620  13.909
35471W        W 3865  15.751   1.534   4.089
35472W        W 3866   8.975  24.514   3.994
35473W        W 3867  13.597  21.056   0.402
35474W        W 3868   1.656  35.247   1.820
35475W        W 3869  41.382  19.134   2.699
35476W        W 3870  23.266   4.477  13.847
35477W        W 3871  38.144  25.963  12.924
35478W        W 3872  25.241  20.484  12.905
35479W        W 3873   7.360  20.155  11.448
35480W        W 3874   9.358  23.090   4.776
35481W        W 3875  43.024   5.680  11.998
35482W        W 3876  40.763  22.562   1.349
35483W        W 3877  28.491  27.098   0.363
35484W        W 3878  38.248   9.710   0.338
35485W        W 3879  25.863  38.925   4.132
35486W        W 3880  14.048  10.743   0.412
35487W        W 3881  36.046  12.610   4.559
35488W        W 3882   4.270  10.528  10.864
35489W        W 3883  16.151  25.002   1.982
35490W        W 3884   8.791  41.843   3.203
35491W        W 3885  15.160  36.633   3.344
35492W        W 3886  33.358  44.129   5.135
35493W        W 3887  41.055   1.394  13.095
35494W        W 3888   5.657  30.096  10.575
35495W        W 3889  25.554  18.265   1.410
35496W        W 3890  37.556  14.703   1.590
35497W        W 3891   0.504  13.773  14.441
35498W        W 3892  16.069  17.070  13.184
35499W        W 3893   8.384   5.554  11.548
35500W        W 3894  12.805  38.940   3.697
35501W        W 3895   4.954   7.613   4.760
35502W        W 3896  21.093  17.248  11.960
35503W        W 3897  21.830  41.171   2.452
35504W        W 3898  43.315  39.502  13.912
35505W        W 3899  23.689  27.411  11.511
35506W        W 3900  26.947  41.774  14.837
35507W        W 3901  33.475  21.327   4.490
35508W        W 3902  12.329   5.271   4.616
35509W        W 3903  17.234  12.248   4.390
35510W        W 3904  11.119  44.023   0.995
35511W        W 3905   5.391  41.359   3.810
35512W        W 3906  22.707  32.027   5.013
35513W        W 3907  37.440  31.533   0.245
35514W        W 3908  35.313  44.326   4.639
35515W        W 3909  11.466  42.970   1.510
35516W        W 3910  22.868  25.309  11.701
35517W        W 3911   3.457  26.753  12.980
35518W        W 3912  10.711  34.924  10.601
35519W        W 3913  30.979  41.942   1.047
35520W        W 3914  36.788  28.242   0.823
35521W        W 3915  22.487  10.197  11.085
35522W        W 3916  25.833  27.577   4.115
35523W        W 3917  36.520   7.346  14.361
35524W        W 3918  23.532   6.460  14.334
35525W        W 3919  14.553  15.793  10.302
35526W        W 3920  44.380  21.082   4.597
35527W        W 3921  18.121  31.659  13.413
35528W        W 3922  31.463  41.968   4.641
35529W        W 3923  41.601  26.207  12.413
35530W        W 3924  37.402  22.256   0.782
35531W        W 3925  37.890  43.329   3.187
35532W        W 3926  35.454  21.490  12.982
35533W        W 3927   9.470  22.490  11.689
35534W        W 3928  18.316  32.186   3.272
35535W        W 3929  14.564  37.113  10.290
35536W        W 3930  32.421  23.313  10.653
35537W        W 3931  16.367  16.864   3.469
35538W        W 3932  19.110  13.746   5.103
35539W        W 3933  12.570  39.379   3.199
35540W        W 3934  24.687  22.986   2.931
35541W        W 3935  42.835  40.122   0.827
35542W        W 3936  22.218   5.926   0.741
35543W        W 3937  42.098  21.139  13.412
35544W        W 3938   3.067  27.687  10.980
35545W        W 3939  42.761   2.146  10.675
35546W        W 3940  18.825   2.442  12.922
35547W        W 3941   7.860  12.824  13.483
35548W        W 3942  15.682  21.009   2.330
35549W        W 3943  18.732  12.340   0.050
35550W        W 3944   2.548  43.731  12.104
35551W        W 3945  11.778   6.616   4.259
35552W        W 3946  40.450  41.512   3.246
35553W        W 3947  33.365  10.617   0.420
35554W        W 3948   8.954  38.019  13.456
35555W        W 3949  42.743  30.860  14.315
35556W        W 3950  37.513  15.162  12.994
35557W        W 3951   9.476  29.244   1.861
35558W        W 3952  44.816   2.402   4.672
35559W        W 3953  10.145  35.795   4.196
35560W        W 3954  37.605  31.823   1.976
35561W        W 3955  36.557  24.404   2.921
35562W        W 3956  14.081  34.014   2.879
35563W        W 3957  38.996  24.220  10.244
35564W        W 3958  27.624  29.983   2.888
35565W        W 3959   7.283   8.126   3.256
35566W        W 3960  32.093  28.543   4.901
35567W        W 3961  29.960  16.669  14.336
35568W        W 3962   5.220   6.276   0.134
35569W        W 3963  32.123  29.515  11.489
35570W        W 3964  20.584  39.393  11.430
35571W        W 3965  36.635  20.367   3.404
35572W        W 3966  27.981  33.933   1.415
35573W        W 3967  25.610  17.629   2.717
35574W        W 3968  27.127  42.905  10.273
35575W        W 3969  28.705  41.485   0.045
35576W        W 3970  43.479   5.768   4.128
35577W        W 3971   7.180  22.551  11.108
35578W        W 3972  38.590   9.911   0.920
35579W        W 3973  30.512  33.294   4.098
35580W        W 3974   7.338  20.823   1.715
35581W        W 3975  41.950   0.501   0.942
35582W        W 3976  13.351  37.113   1.820
35583W        W 3977   0.624  35.610  11.474
35584W        W 3978   2.756  32.376  10.760
35585W        W 3979  26.013  20.175  11.614
35586W        W 3980  11.194  29.113  13.517
35587W        W 3981  36.963  44.065   1.313
35588W        W 3982  29.112  33.594   3.659
35589W        W 3983  26.224   8.131   4.586
35590W        W 3984  13.597  12.765  10.318
35591W        W 3985   9.137  17.486  10.730
35592W        W 3986  22.732  15.587   5.062
35593W        W 3987  24.760  31.437   0.477
35594W        W 3988  25.238  38.521  14.734
35595W        W 3989  33.487  39.590   0.481
35596W        W 3990  24.752   4.045   2.444
35597W        W 3991  38.022  29.776  11.189
35598W        W 3992  35.512  36.100   3.544
35599W        W 3993  22.778  44.820  14.879
35600W        W 3994  27.496   0.730  12.068
35601W        W 3995  30.206  11.802  13.271
35602W        W 3996  13.813  14.261  11.594
35603W        W 3997  16.949   4.972   0.815
35604W        W 3998  12.767  10.821   2.456
35605W        W 3999  24.588   1.704   1.756
35606W        W 4000  43.228  22.412   1.243
35607W        W 4001  17.257  20.275  11.593
35608W        W 4002  20.746  18.926  11.107
35609W        W 4003   8.660  23.871  12.058
35610W        W 4004  31.039   7.811  10.801
35611W        W 4005  14.944  21.481  13.257
35612W        W 4006  17.097  38.281  11.629
35613W        W 4007   7.705   4.925  14.077
35614W        W 4008  25.057  25.638  14.791
35615W        W 4009  18.683  32.935   2.397
35616W        W 4010  37.589   4.814  11.086
35617W        W 4011  40.472  25.215   2.700
35618W        W 4012  19.697  15.809  13.814
35619W        W 4013  15.195  44.484   3.358
35620W        W 4014   7.029   3.920  14.745
35621W        W 4015  35.492  17.012   0.444
35622W        W 4016  21.727  30.382  12.943
35623W        W 4017  18.624  23.799   4.118
35624W        W 4018  22.170  29.935  10.759
35625W        W 4019  11.631  39.582  13.404
35626W        W 4020  19.310   4.335  12.115
35627W        W 4021  37.897   8.243  14.450
35628W        W 4022  16.336   1.269  12.568
35629W        W 4023  24.570  14.126  12.949
35630W        W 4024  19.295  30.021  10.271
35631W        W 4025  36.413  22.989   4.396
35632W        W 4026  16.862  16.840  10.817
35633W        W 4027   8.362  25.637   0.369
35634W        W 4028  27.517  42.775  10.680
35635W        W 4029  27.210  27.198  12.333
35636W        W 4030   6.218  23.512   3.621
35637W        W 4031  11.182  24.763   2.258
35638W        W 4032  11.159  20.600  13.867
35639W        W 4033  44.963  11.742  13.015
35640W        W 4034   6.363   0.699   4.626
35641W        W 4035  10.621   1.971  14.858
35642W        W 4036  44.932  16.322  14.452
35643W        W 4037  19.242  23.093  11.177
35644W        W 4038  22.175  18.278  10.996
35645W        W 4039   7.376  11.852   4.462
35646W        W 4040  14.812  24.303   0.807
35647W        W 4041  20.299   1.645   1.971
35648W        W 4042  21.730  27.850   1.795
35649W        W 4043  32.029  24.282  12.480
35650W        W 4044  31.834   6.284   0.443
35651W        W 4045   3.832  38.650  12.138
35652W        W 4046  28.013   6.300   1.477
35653W        W 4047  25.442  24.055   1.465
35654W        W 4048  43.364   6.194   3.803
35655W        W 4049  35.962  37.347   1.880
35656W        W 4050  31.503  28.779  13.309
35657W        W 4051  35.488   8.838  11.533
35658W        W 4052  17.554  21.754  11.175
35659W        W 4053  29.022  23.391   3.083
35660W        W 4054  25.435  21.125   3.611
35661W        W 4055  33.947   3.674   4.156
35662W        W 4056   7.677  21.728  12.546
35663W        W 4057   3.985  43.270  13.405
35664W        W 4058  28.148  29.173  14.958
35665W        W 4059  29.477  23.304   9.963
35666W        W 4060  15.145  12.728  13.809
35667W        W 4061   3.048   3.861   0.708
35668W        W 4062  12.756   1.877   1.412
35669W        W 4063  33.679  40.382  13.175
35670W        W 4064   7.782   1.273   1.017
35671W        W 4065   8.399   5.372   3.556
35672W        W 4066  17.574   9.836  13.924
35673W        W 4067  34.516  11.648   2.165
35674W        W 4068  44.491  29.684  11.270
35675W        W 4069   2.765  18.635  14.490
35676W        W 4070  21.098  34.636   3.105
35677W        W 4071  31.061   4.674   3.645
35678W        W 4072  43.016  25.042   0.820
35679W        W 4073  35.454  24.043   3.497
35680W        W 4074  34.881  21.505   1.695
35681W        W 4075  39.570  28.649   0.202
35682W        W 4076  28.386  36.916  14.802
35683W        W 4077  11.721  26.217   1.956
35684W        W 4078   0.985  12.304   4.673
35685W        W 4079  27.448  39.289  14.718
35686W        W 4080  29.534  15.588  10.713
35687W        W 4081  22.634   5.842   0.250
35688W        W 4082  25.429  42.010   1.232
35689W        W 4083  41.015   2.268  12.100
35690W        W 4084  44.455  21.173  11.840
35691W        W 4085  14.627  43.732  10.370
35692W        W 4086   4.194  10.272   2.191
35693W        W 4087  17.109  14.386  14.858
35694W        W 4088  12.267  26.996  13.107
35695W        W 4089  32.412   0.528  12.811
35696W        W 4090  12.920   8.636  14.767
35697W        W 4091  28.545  13.287  11.357
35698W        W 4092   2.916  42.576  13.978
35699W        W 4093  15.147  37.888   4.062
35700W        W 4094  21.481  12.261   1.904
35701W        W 4095  37.426  34.340  10.352
35702W        W 4096  14.630  40.265   3.669
35703W        W 4097  32.482  44.328  12.358
35704W        W 4098  40.169  20.198   0.286
35705W        W 4099   2.774  18.116  10.394
35706W        W 4100  19.352  34.972   2.252
35707W        W 4101  34.989  42.925   4.766
35708W        W 4102  31.229  22.302   1.956
35709W        W 4103  43.260   8.632  10.629
35710W        W 4104  14.226  15.658  10.981
35711W        W 4105   6.086  19.175   3.142
35712W        W 4106  29.181  30.032   1.826
35713W        W 4107  44.117  30.539  10.812
35714W        W 4108   5.402  43.796  13.410
35715W        W 4109  17.995  39.672   0.206
35716W        W 4110  35.381  15.616   0.829
35717W        W 4111  23.043  15.868  10.292
35718W        W 4112  13.294  23.430   1.708
35719W        W 4113   6.173  42.558   4.599
35720W        W 4114  27.232  31.715  13.409
35721W        W 4115   4.927  35.672  13.070
35722W        W 4116  22.735  11.176  13.938
35723W        W 4117  37.018  20.186   2.108
35724W        W 4118  31.450  31.754  14.403
35725W        W 4119  22.787  27.381   3.671
35726W        W 4120  12.566   0.190  12.016
35727W        W 4121  10.161  32.464   2.870
35728W        W 4122   7.416   5.788  12.515
35729W        W 4123  10.970  39.098   2.682
35730W        W 4124   7.819  20.312   3.720
35731W        W 4125  35.360   8.833  13.326
35732W        W 4126  33.141   2.429   1.246
35733W        W 4127  19.763  31.841   1.993
35734W        W 4128   4.190  11.857  11.644
35735W        W 4129  30.080  17.210  12.543
35736W        W 4130  26.065  41.278   5.046
35737W        W 4131   6.588  42.001  12.506
35738W        W 4132  29.277  33.438   4.198
35739W        W 4133  28.804  31.886  11.584
35740W        W 4134   6.804   0.354  14.097
35741W        W 4135  23.912  36.354   1.681
35742W        W 4136  34.480  17.591   4.134
35743W        W 4137   5.766  35.404  12.411
35744W        W 4138   0.346   4.217   2.937
35745W        W 4139  21.164  44.448  11.728
35746W        W 4140  26.230  21.787  11.029
35747W        W 4141  12.053  39.550  13.112
35748W        W 4142  31.065  30.539   2.079
35749W        W 4143   5.888   0.068   0.963
35750W        W 4144  28.235  28.049   3.182
35751W        W 4145  18.193  34.257  14.941
35752W        W 4146  41.211  44.348   3.291
35753W        W 4147   3.752   7.947   2.085
35754W        W 4148  33.358  35.022  10.242
35755W        W 4149  21.509   9.666  10.594
35756W        W 4150  41.546  27.708   4.223
35757W        W 4151  18.914  29.613  14.325
35758W        W 4152  20.460  32.672  12.021
35759W        W 4153  34.322  38.886   0.543
35760W        W 4154   1.822   6.116   0.107
35761W        W 4155  23.790   0.130  13.024
35762W        W 4156  16.246  30.373  11.651
35763W        W 4157  21.129   4.893  12.416
35764W        W 4158   4.973  29.838  14.516
35765W        W 4159  38.500  16.831   0.851
35766W        W 4160  17.307  17.280   4.127
35767W        W 4161  43.486  16.500  14.376
35768W        W 4162  31.361  19.148   3.395
35769W        W 4163   5.368   7.804  13.057
35770W        W 4164  39.073   1.155   5.027
35771W        W 4165  17.707  41.942   1.624
35772W        W 4166  34.524   0.775   1.501
35773W        W 4167  19.565  25.887  10.695
35774W        W 4168  14.590   8.783   4.214
35775W        W 4169  24.895  37.077  10.447
35776W        W 4170  42.379  42.823   1.172
35777W        W 4171  12.762  11.092  11.554
35778W        W 4172   1.248  38.081   1.763
35779W        W 4173  23.106  30.455   2.566
35780W        W 4174  14.582  17.715  10.668
35781W        W 4175   6.976  11.687  14.159
35782W        W 4176   2.477  22.279  12.688
35783W        W 4177  38.048  11.259  13.609
35784W        W 4178  21.172  40.752  13.921
35785W        W 4179  20.546  33.932   1.203
35786W        W 4180  20.172  38.680   4.123
35787W        W 4181  29.484  40.906   4.720
35788W        W 4182  13.726  30.130  10.447
35789W        W 4183  18.180  17.353  11.162
35790W        W 4184   2.858  39.754   2.150
35791W        W 4185  38.743   7.116  11.534
35792W        W 4186  14.738  27.418  11.724
35793W        W 4187  31.535  41.503   0.135
35794W        W 4188  16.578   9.437   5.506
35795W        W 4189  24.818  29.768  11.457
35796W        W 4190  41.216  27.994   0.762
35797W        W 4191  12.515  33.639   0.829
35798W        W 4192  32.400   2.804   1.361
35799W        W 4193  21.357   4.364   0.453
35800W        W 4194  27.072  17.835  13.374
35801W        W 4195  23.136  33.362   3.251
35802W        W 4196  28.163  39.914  11.432
35803W        W 4197  38.975   5.169   0.756
35804W        W 4198  33.158  42.288  11.168
35805W        W 4199  17.024   1.825   0.064
35806W        W 4200   5.658  36.367   1.798
35807W        W 4201  43.393  32.944   2.722
35808W        W 4202  33.915  12.897  12.402
35809W        W 4203  37.084  38.375   4.550
35810W        W 4204  44.483  19.507   0.348
35811W        W 4205  26.154   3.702   4.079
35812W        W 4206  20.077  21.273   2.579
35813W        W 4207  28.906   2.423  11.436
35814W        W 4208   1.020   9.360   4.732
35815W        W 4209  36.854  34.360   0.234
35816W        W 4210  20.276  12.379   1.360
35817W        W 4211   4.784  39.476   3.842
35818W        W 4212   7.727  35.815   3.921
35819W        W 4213  44.212  26.746  14.570
35820W        W 4214  37.577  25.995  11.684
35821W        W 4215  42.919  43.455   4.161
35822W        W 4216  11.979  34.251  11.212
35823W        W 4217  29.788   3.777  12.849
35824W        W 4218  42.516   4.942   1.165
35825W        W 4219  21.225  38.879  13.056
35826W        W 4220   3.785  18.151   4.095
35827W        W 4221  11.325  26.524   0.739
35828W        W 4222  26.369   2.284   2.595
35829W        W 4223  23.745   1.587  14.954
35830W        W 4224  41.557  24.168   3.407
35831W        W 4225  20.543  37.293   0.024
35832W        W 4226  10.564  21.308   1.237
35833W        W 4227  20.488  41.000   2.243
35834W        W 4228  32.280   4.387  14.577
35835W        W 4229   1.507  23.167   3.437
35836W        W 4230   1.844  24.894   4.267
35837W        W 4231  21.140  33.469  14.352
35838W        W 4232  29.896   9.669  14.944
35839W        W 4233  12.318   9.124   0.253
35840W        W 4234  11.210  21.732   3.848
35841W        W 4235   3.326  38.567  12.190
35842W        W 4236   9.847  16.716  12.210
35843W        W 4237   7.875  31.845   0.638
35844W        W 4238  29.121  14.573  14.249
35845W        W 4239   9.172  44.545  13.993
35846W        W 4240  14.220   4.956  12.003
35847W        W 4241  16.817  35.222   0.568
35848W        W 4242  37.629  38.469   3.020
35849W        W 4243  17.792  16.872  11.035
35850W        W 4244  22.484   8.918   3.537
35851W        W 4245  40.548   0.361  11.188
35852W        W 4246   9.917  25.776   2.542
35853W        W 4247  42.719  24.638   4.187
35854W        W 4248  41.458  11.108  11.585
35855W        W 4249  37.818  13.934  14.429
35856W        W 4250  32.953  27.543   1.847
35857W        W 4251  24.226  15.085   0.014
35858W        W 4252  31.409  44.859  13.104
35859W        W 4253  41.814  12.243   2.270
35860W        W 4254  30.421  35.416   3.956
35861W        W 4255  43.985  20.541   1.915
35862W        W 4256   5.320  36.634  11.609
35863W        W 4257  10.918  30.977   2.971
35864W        W 4258  11.811   6.931  12.495
35865W        W 4259  20.221  29.932   2.642
35866W        W 4260   3.372   2.046  11.608
35867W        W 4261  23.101   5.676  13.455
35868W        W 4262   1.158  14.232   4.116
35869W        W 4263  36.611  11.746   4.633
35870W        W 4264  38.803   4.110   4.988
35871W        W 4265  10.895  35.449  11.665
35872W        W 4266  24.556   3.805  10.621
35873W        W 4267   2.802  20.451  13.994
35874W        W 4268  24.955  15.841   0.145
35875W        W 4269  32.996  10.370   1.865
35876W        W 4270  40.305  31.706   3.854
35877W        W 4271  27.543  10.353  13.098
35878W        W 4272  16.069  11.163  11.154
35879W        W 4273   2.668  28.670  13.490
35880W        W 4274  44.371   5.764   2.079
35881W        W 4275   9.450  41.468  11.395
35882W        W 4276  33.528  24.468  11.546
35883W        W 4277  38.650  23.987  14.782
35884W        W 4278   3.194   5.228  11.677
35885W        W 4279  38.020  44.505   1.282
35886W        W 4280  29.610  19.767  11.261
35887W        W 4281  30.569   1.249  13.078
35888W        W 4282  28.754  21.574  14.851
35889W        W 4283   8.571  19.601  14.970
35890W        W 4284   1.431  33.760  11.611
35891W        W 4285  41.468  15.839   1.325
35892W        W 4286  42.536  33.878   2.227
35893W        W 4287  32.099  25.263   4.125
35894W        W 4288   9.343   5.311  13.349
35895W        W 4289  22.607  37.204   3.404
35896W        W 4290  43.028  13.389  10.712
35897W        W 4291  25.999  13.844   1.479
35898W        W 4292   1.511  13.347   2.868
35899W        W 4293   9.255  39.424  14.569
35900W        W 4294  23.298  35.060  11.115
35901W        W 4295  23.859  17.989   3.181
35902W        W 4296   2.797   1.966  13.765
35903W        W 4297   0.159  11.303  10.770
35904W        W 4298  28.901  34.187  12.987
35905W        W 4299   3.040  40.874   0.762
35906W        W 4300   1.285   0.748  14.722
35907W        W 4301  33.409  13.519   1.785
35908W        W 4302  41.953  43.643  10.743
35909W        W 4303  17.035  30.906  14.211
35910W        W 4304   9.859   1.807   4.402
35911W        W 4305   2.441   5.057  14.761
35912W        W 4306  40.932  36.787  13.407
35913W        W 4307  40.746  31.384  11.998
35914W        W 4308  27.568  15.229  11.163
35915W        W 4309  24.290  20.041   0.257
35916W        W 4310  36.144  43.938  10.431
35917W        W 4311  37.756  31.478   4.808
35918W        W 4312   4.849  19.866   3.177
35919W        W 4313  13.001  36.114  14.713
35920W        W 4314  28.566  17.134  11.515
35921W        W 4315  43.985  16.662   3.570
35922W        W 4316  19.048  29.534  13.824
35923W        W 4317  24.970  19.611  14.323
35924W        W 4318   4.427  12.318   5.535
35925W        W 4319  41.431  34.542  12.649
35926W        W 4320  19.153  36.557   0.309
35927W        W 4321  11.663   4.778  14.328
35928W        W 4322  16.608  11.746   1.398
35929W        W 4323  10.114  31.504  14.337
35930W        W 4324  34.712  31.421  13.565
35931W        W 4325  36.017  44.054  14.728
35932W        W 4326  11.049  19.474   1.293
35933W        W 4327  20.728  25.364   4.740
35934W        W 4328  36.968  15.308  13.439
35935W        W 4329   2.828  44.935  10.444
35936W        W 4330   0.326   9.275  12.922
35937W        W 4331  16.623  25.618  10.755
35938W        W 4332  37.048  12.275  14.389
35939W        W 4333  32.422  10.936   0.387
35940W        W 4334  11.679  28.056   2.223
35941W        W 4335  42.515  28.691   2.329
35942W        W 4336  24.243  14.161   1.383
35943W        W 4337  32.820  19.699  10.711
35944W        W 4338   5.675   6.723  13.932
35945W        W 4339  35.426  31.976  14.484
35946W        W 4340  13.100  12.740   4.934
35947W        W 4341  28.983  12.168   1.441
35948W        W 4342  38.473  26.925   2.574
35949W        W 4343  35.676   6.908   4.601
35950W        W 4344   9.229  21.468  10.981
35951W        W 4345  25.331  33.346   4.756
35952W        W 4346   5.402  12.068  12.004
35953W        W 4347  13.152  11.792   4.953
35954W        W 4348  32.929   8.270  12.884
35955W        W 4349  38.089  27.833   4.181
35956W        W 4350  44.536   2.390   0.869
35957W        W 4351  28.056  22.113   1.712
35958W        W 4352  22.198  26.103   3.025
35959W        W 4353  25.080  22.245  14.549
35960W        W 4354   8.463  43.831  13.530
35961W        W 4355  38.511   0.460  14.441
35962W        W 4356  21.999  26.130   1.888
35963W        W 4357  23.837  25.632   3.830
35964W        W 4358   2.076  18.234   2.483
35965W        W 4359  26.410   4.164  14.900
35966W        W 4360  13.409  13.762  13.075
35967W        W 4361  30.207  40.011   4.212
35968W        W 4362  18.453  14.662   1.199
35969W        W 4363   7.366  25.263   4.213
35970W        W 4364   3.898  44.881  14.809
35971W        W 4365  18.223  13.042   4.434
35972W        W 4366  11.930  30.938   2.732
35973W        W 4367  20.356  42.855  11.234
35974W        W 4368  26.209  11.924   4.873
35975W        W 4369  25.162   6.463   2.229
35976W        W 4370  15.712   6.989   1.199
35977W        W 4371   9.840  36.387  11.550
35978W        W 4372  38.762  37.313   4.224
35979W        W 4373  30.974  26.957   3.793
35980W        W 4374  22.286   6.842   3.749
35981W        W 4375  11.293  36.508  12.852
35982W        W 4376   4.979   3.791  12.859
35983W        W 4377  12.878  18.630   4.137
35984W        W 4378  17.686   8.951  12.533
35985W        W 4379   0.735  34.989  13.032
35986W        W 4380   4.013   0.538  10.663
35987W        W 4381  10.715  29.761   4.134
35988W        W 4382  13.170  35.447  13.052
35989W        W 4383  35.599   9.706   2.683
35990W        W 4384  16.846  27.453   3.787
35991W        W 4385  43.561  30.064  12.528
35992W        W 4386  18.955  27.904  12.113
35993W        W 4387  28.736  40.365  14.047
35994W        W 4388  12.685   0.375  13.820
35995W        W 4389  28.044   8.733   1.720
35996W        W 4390  20.284  31.693  14.696
35997W        W 4391  12.306  18.865  12.614
35998W        W 4392   2.103  29.612   2.143
35999W        W 4393   3.637   2.876  13.119
36000W        W 4394  25.625  32.283   2.863
36001W        W 4395  31.523  25.508  14.398
36002W        W 4396  13.735  21.303  13.896
36003W        W 4397  17.099  34.939   3.190
36004W        W 4398  16.971  31.869   4.171
36005W        W 4399  32.624  31.420   0.775
36006W        W 4400  25.968  35.541  10.648
36007W        W 4401   7.762  19.294   2.313
36008W        W 4402  27.998  18.040   4.162
36009W        W 4403  39.766  26.676   3.339
36010W        W 4404  37.271   3.483   2.917
36011W        W 4405  16.127   5.839   0.379
36012W        W 4406   4.311   5.737  11.869
36013W        W 4407   3.734  42.842   4.517
36014W        W 4408  13.122  13.902   2.509
36015W        W 4409  38.016   0.504   3.810
36016W        W 4410  16.293  37.331  11.123
36017W        W 4411  31.644  19.544   3.167
36018W        W 4412  37.802  35.151  13.388
36019W        W 4413  39.918  18.704  14.861
36020W        W 4414   8.656  39.711   3.208
36021W        W 4415  31.284  11.082  11.201
36022W        W 4416  11.599  40.060   1.242
36023W        W 4417  28.873  10.394   1.417
36024W        W 4418  40.527  39.344  12.964
36025W        W 4419   0.206   3.748  12.567
36026W        W 4420  41.815  41.727  14.780
36027W        W 4421  21.250  19.038  11.519
36028W        W 4422  40.415  36.856   1.342
36029W        W 4423  40.885  23.426  12.875
36030W        W 4424  26.214  18.644  13.393
36031W        W 4425   8.464  24.446   4.131
36032W        W 4426  43.349  43.558  10.943
36033W        W 4427  14.287   0.946   1.845
36034W        W 4428  18.466  16.765   1.827
36035W        W 4429   4.445  10.672  12.194
36036W        W 4430   8.748  16.526   1.693
36037W        W 4431  23.787  34.143   4.045
36038W        W 4432  27.741  17.942   1.613
36039W        W 4433  24.477  16.289  11.626
36040W        W 4434  18.595  22.195   4.576
36041W        W 4435  23.767  27.616   4.498
36042W        W 4436  18.790   2.317   2.407
36043W        W 4437  35.406   3.297   3.956
36044W        W 4438   7.416   6.660   2.925
36045W        W 4439   5.838  40.267   4.197
36046W        W 4440  23.247  42.973   0.230
36047W        W 4441  41.269   0.203   3.071
36048W        W 4442   7.316  31.086  13.031
36049W        W 4443  14.947  26.994   4.224
36050W        W 4444  36.596  29.737   2.140
36051W        W 4445  11.683  20.634   0.826
36052W        W 4446   4.220  24.541   1.884
36053W        W 4447  10.430   4.048  12.098
36054W        W 4448  29.921  41.153   3.176
36055W        W 4449  18.306  30.222  11.990
36056W        W 4450  12.187  35.974  14.269
36057W        W 4451   2.141  15.756  13.556
36058W        W 4452  33.521  18.280   1.257
36059W        W 4453   8.180  14.964   0.922
36060W        W 4454  10.638  17.445  14.986
36061W        W 4455  37.542  30.430  14.046
36062W        W 4456  37.411  12.318   3.586
36063W        W 4457  15.320  33.949  13.459
36064W        W 4458   3.504   6.711  12.994
36065W        W 4459  11.734  27.442   0.164
36066W        W 4460   8.861  30.254   2.847
36067W        W 4461  12.249  41.803   0.507
36068W        W 4462   7.639  34.389   2.765
36069W        W 4463  20.077   7.198  10.728
36070W        W 4464  19.397  11.273   0.072
36071W        W 4465   5.922  35.866   1.792
36072W        W 4466  32.117  28.398  13.770
36073W        W 4467  15.828  40.414   4.239
36074W        W 4468   4.166  20.193  11.680
36075W        W 4469  31.640  27.399   3.662
36076W        W 4470  39.415  23.099  14.090
36077W        W 4471  30.974  14.368   2.231
36078W        W 4472  23.129  29.430  14.589
36079W        W 4473   2.395  32.289   2.439
36080W        W 4474  35.383  11.322   3.584
36081W        W 4475  10.604  28.917   2.171
36082W        W 4476  18.686  36.388   1.369
36083W        W 4477  37.044  37.837   4.531
36084W        W 4478  24.684  16.339   4.106
36085W        W 4479  36.604  28.154   4.998
36086W        W 4480  28.584  15.236  11.471
36087W        W 4481  34.425   5.680   0.873
36088W        W 4482  23.546  38.453   1.868
36089W        W 4483  36.420  38.903   2.582
36090W        W 4484  40.888  38.622   1.163
36091W        W 4485  13.275  28.581   1.965
36092W        W 4486  11.627  38.927  10.614
36093W        W 4487  21.645  33.123   3.875
36094W        W 4488  10.223  31.149   4.203
36095W        W 4489  14.492  16.256  13.614
36096W        W 4490  34.358  12.230  11.713
36097W        W 4491   9.822  33.340   1.912
36098W        W 4492  39.475  30.596   3.707
36099W        W 4493  44.324  43.801  14.858
36100W        W 4494  13.407  40.496  11.351
36101W        W 4495  42.286   4.937  14.226
36102W        W 4496   4.209  14.374   0.828
36103W        W 4497  35.413  21.110  14.385
36104W        W 4498  21.933   7.002  14.946
36105W        W 4499  24.571  16.831   4.091
36106W        W 4500  18.059  18.809   0.382
36107W        W 4501  39.977  23.527  14.328
36108W        W 4502  26.161  11.267   2.233
36109W        W 4503  38.929  28.615   1.043
36110W        W 4504  20.045  37.074   1.371
36111W        W 4505   6.961   9.324   4.833
36112W        W 4506  15.821  15.880   1.107
36113W        W 4507  32.954  12.483  12.417
36114W        W 4508  33.537   7.794  12.414
36115W        W 4509  25.648   9.412   3.680
36116W        W 4510  11.777  10.630   3.555
36117W        W 4511  27.469   6.960  14.491
36118W        W 4512  16.853  38.846   3.900
36119W        W 4513   6.398  10.693  12.538
36120W        W 4514  34.653   1.633   1.305
36121W        W 4515   4.340  40.123   1.346
36122W        W 4516  22.184  38.391   3.717
36123W        W 4517  27.217  41.344  13.879
36124W        W 4518  29.932  14.830   2.212
36125W        W 4519  24.972  32.026  14.321
36126W        W 4520  30.187   2.116  13.362
36127W        W 4521  15.901  34.371  13.364
36128W        W 4522  33.415  13.366   3.942
36129W        W 4523  19.012  17.888  13.383
36130W        W 4524  41.330  24.199   2.881
36131W        W 4525  10.170   9.110   3.026
36132W        W 4526   7.156   0.698  13.923
36133W        W 4527  37.009   9.657  12.138
36134W        W 4528  29.933  15.157   3.181
36135W        W 4529  37.485   5.061   0.416
36136W        W 4530  43.504  18.300  10.669
36137W        W 4531  31.494  19.534  13.799
36138W        W 4532   6.465  31.557  14.265
36139W        W 4533   6.473   7.224   0.002
36140W        W 4534  15.176   6.855   3.701
36141W        W 4535  11.808  39.472  10.720
36142W        W 4536  19.065  31.024   2.338
36143W        W 4537   4.387   2.099  11.450
36144W        W 4538  13.634  34.991  11.431
36145W        W 4539   1.939   7.346   4.763
36146W        W 4540  27.738  16.396   1.390
36147W        W 4541   7.382  35.339  11.551
36148W        W 4542  25.948  29.671   2.051
36149W        W 4543  15.761  34.981  12.563
36150W        W 4544  21.619  15.101  10.744
36151W        W 4545  15.247  38.109   3.141
36152W        W 4546  38.302  16.827  13.820
36153W        W 4547  25.342  33.800  14.448
36154W        W 4548  23.141  16.555   3.400
36155W        W 4549  41.402  32.421  14.694
36156W        W 4550  22.598  16.983   2.315
36157W        W 4551  30.830  41.427   1.700
36158W        W 4552  41.579  27.204  12.706
36159W        W 4553  43.574   5.832   0.351
36160W        W 4554   2.701  29.378  11.560
36161W        W 4555  10.571  24.235   2.354
36162W        W 4556  20.560   9.118  14.725
36163W        W 4557  33.005  25.499  13.871
36164W        W 4558   1.943  18.365   2.003
36165W        W 4559  18.772  34.573   1.289
36166W        W 4560  26.653  31.595   4.117
36167W        W 4561   4.964  28.291  14.270
36168W        W 4562  28.192  33.624  11.946
36169W        W 4563  28.424  35.227   1.371
36170W        W 4564   6.426  16.313   1.799
36171W        W 4565   6.686  29.750   1.882
36172W        W 4566  43.836  19.720  12.403
36173W        W 4567  15.561   6.929   1.694
36174W        W 4568  15.541   9.149  13.559
36175W        W 4569  43.364  44.034  11.128
36176W        W 4570  33.101  18.135   3.292
36177W        W 4571  21.995  16.286  13.944
36178W        W 4572  42.225  23.844   1.811
36179W        W 4573  31.393  31.814   4.431
36180W        W 4574   9.109   1.924   2.259
36181W        W 4575  41.105  17.639   1.231
36182W        W 4576  13.207  17.673   0.867
36183W        W 4577  27.556  32.995   3.766
36184W        W 4578  28.086  25.748   4.192
36185W        W 4579  18.842  23.133  11.548
36186W        W 4580  36.870  35.762  12.003
36187W        W 4581  14.008   0.209   0.093
36188W        W 4582  38.035   2.115  13.786
36189W        W 4583  23.984  26.966   3.917
36190W        W 4584  24.231  26.222  12.934
36191W        W 4585  19.293   3.962  13.564
36192W        W 4586  11.431  19.024  11.680
36193W        W 4587  43.241   7.756   1.274
36194W        W 4588  25.122  30.158   0.730
36195W        W 4589  24.956  34.180  11.935
36196W        W 4590   0.016  38.521   2.652
36197W        W 4591  19.646  10.013   5.050
36198W        W 4592  44.943  13.682   3.621
36199W        W 4593   2.409  12.577   4.104
36200W        W 4594  37.469  14.085  13.111
36201W        W 4595  37.884  26.694  11.861
36202W        W 4596  36.843  21.143  14.469
36203W        W 4597  30.423  40.297   4.610
36204W        W 4598  19.468  28.510   1.010
36205W        W 4599  35.591  20.831   1.701
36206W        W 4600   9.227  31.628   3.771
36207W        W 4601   8.198  43.860   0.374
36208W        W 4602  12.391   8.244   0.459
36209W        W 4603  33.058  35.089   2.329
36210W        W 4604  10.755  19.161   2.742
36211W        W 4605  30.583  16.579  14.958
36212W        W 4606  26.902   8.776   0.036
36213W        W 4607   1.543  17.744  11.707
36214W        W 4608  33.545  22.816   4.278
36215W        W 4609  30.592  20.127  12.220
36216W        W 4610  30.968  36.378   3.340
36217W        W 4611   6.551  30.157   2.878
36218W        W 4612  43.291  24.971   0.282
36219W        W 4613   5.136   7.245   1.446
36220W        W 4614  42.815  39.337  12.417
36221W        W 4615   4.121   8.412   2.120
36222W        W 4616  32.011   2.244  13.009
36223W        W 4617  25.110   7.742   4.652
36224W        W 4618  38.520  33.830  12.437
36225W        W 4619  14.956  30.414   4.940
36226W        W 4620   1.636  35.933   1.307
36227W        W 4621   9.280   8.701  12.731
36228W        W 4622  34.880   6.866   3.333
36229W        W 4623  33.061  37.653  10.636
36230W        W 4624  24.172  13.334   4.348
36231W        W 4625  38.030  28.243   2.824
36232W        W 4626  38.014  29.161   2.879
36233W        W 4627  12.425  15.302   1.360
36234W        W 4628  21.057  44.423  13.521
36235W        W 4629  25.767  35.781   2.782
36236W        W 4630  25.262  22.179   1.502
36237W        W 4631  19.676  33.927   4.912
36238W        W 4632  21.884  11.861   3.561
36239W        W 4633  22.168  26.746   0.748
36240W        W 4634   8.423   4.566   4.117
36241W        W 4635  41.338  37.143   1.636
36242W        W 4636  36.799  41.835   0.580
36243W        W 4637  17.572  19.415  11.559
36244W        W 4638  14.385  41.541   3.720
36245W        W 4639   7.407  21.735   1.709
36246W        W 4640  28.206  32.132   0.772
36247W        W 4641  39.090  16.212  12.700
36248W        W 4642  39.161  25.376  14.235
36249W        W 4643  41.974  34.556  13.798
36250W        W 4644  30.407  25.240  11.169
36251W        W 4645  30.934  31.301   1.413
36252W        W 4646  13.270  10.363   2.239
36253W        W 4647  27.892  31.539  14.924
36254W        W 4648   9.123  42.450   4.479
36255W        W 4649  25.523  37.802  11.248
36256W        W 4650  44.787  19.477   3.159
36257W        W 4651   6.758   5.384   3.721
36258W        W 4652  25.040  34.618   1.692
36259W        W 4653  13.152  20.495   3.502
36260W        W 4654   9.021   2.662   5.155
36261W        W 4655  40.583  44.310   1.375
36262W        W 4656  17.568  20.047   2.804
36263W        W 4657  25.914  25.414   4.118
36264W        W 4658  25.185  22.595  10.342
36265W        W 4659  12.098   3.811  14.335
36266W        W 4660  23.987   1.745   3.330
36267W        W 4661   9.987  42.785  13.947
36268W        W 4662   0.953  28.903  14.863
36269W        W 4663  35.381  23.654  11.199
36270W        W 4664  42.298   9.863  11.982
36271W        W 4665  15.436  19.971  14.903
36272W        W 4666  27.023  14.129   3.084
36273W        W 4667  26.065  35.411   1.895
36274W        W 4668  25.120  19.300   3.145
36275W        W 4669   8.186  14.047   0.483
36276W        W 4670  35.529  21.654  14.730
36277W        W 4671  32.574  16.561   2.046
36278W        W 4672  33.825   6.732  13.083
36279W        W 4673  26.599  11.974  11.640
36280W        W 4674  10.860  38.673   0.332
36281W        W 4675  41.347  10.429  11.952
36282W        W 4676   9.431   6.180   3.746
36283W        W 4677   2.871  12.870   0.948
36284W        W 4678  15.888   8.833   1.413
36285W        W 4679   1.331  24.525  14.639
36286W        W 4680  11.290  18.141   1.404
36287W        W 4681  26.180  41.385   0.031
36288W        W 4682  28.156  15.491  10.256
36289W        W 4683  29.037   6.548   0.888
36290W        W 4684  41.528  16.282   0.523
36291W        W 4685  30.597   7.280   4.804
36292W        W 4686  24.122   0.061  11.145
36293W        W 4687  34.447  31.139   3.822
36294W        W 4688  28.479  26.618  11.961
36295W        W 4689  19.522  17.675   2.274
36296W        W 4690  20.527  44.878   2.696
36297W        W 4691  30.811  17.111   0.364
36298W        W 4692   6.187  38.086  11.710
36299W        W 4693   7.706  15.140   2.508
36300W        W 4694  14.108  15.672  11.472
36301W        W 4695  22.165  15.411   1.942
36302W        W 4696  38.359   9.335  14.550
36303W        W 4697  34.944  42.000   2.463
36304W        W 4698  22.644  33.428   3.128
36305W        W 4699  16.328  11.860  12.398
36306W        W 4700  39.405   7.449   0.925
36307W        W 4701  18.736  27.907  11.612
36308W        W 4702  22.178  17.079  10.942
36309W        W 4703  29.673  19.319   2.307
36310W        W 4704   9.414  17.192   1.717
36311W        W 4705  39.748  22.073   2.915
36312W        W 4706  35.771  30.899   1.548
36313W        W 4707  23.214  12.312  14.799
36314W        W 4708  44.809  22.330   2.212
36315W        W 4709   2.225  39.917  11.565
36316W        W 4710   3.827   8.895   3.345
36317W        W 4711   5.348  30.018   1.654
36318W        W 4712  18.581   8.384   2.880
36319W        W 4713   9.743  11.890  11.569
36320W        W 4714  15.525  44.848  13.357
36321W        W 4715  25.943  31.635   3.601
36322W        W 4716   4.924  11.109   4.129
36323W        W 4717  35.953  27.684   4.613
36324W        W 4718  18.750  43.821   2.863
36325W        W 4719  37.327  10.117   3.614
36326W        W 4720  27.139  40.936   2.279
36327W        W 4721  32.645   6.789  13.793
36328W        W 4722  16.254  10.696   3.295
36329W        W 4723   1.737  20.466   0.793
36330W        W 4724  41.570  14.843   0.341
36331W        W 4725  39.778  31.022   1.762
36332W        W 4726   5.224  32.585  14.589
36333W        W 4727   8.221  13.208   4.478
36334W        W 4728  41.116   5.462   4.253
36335W        W 4729  24.785   2.990   2.289
36336W        W 4730  19.226  43.962  11.482
36337W        W 4731  13.214  15.675  14.966
36338W        W 4732  43.979  37.345  11.124
36339W        W 4733  11.544   6.707  14.920
36340W        W 4734  44.526  42.610   3.226
36341W        W 4735  26.550  22.895  12.211
36342W        W 4736  37.714  30.100  12.142
36343W        W 4737  26.819  32.701   2.908
36344W        W 4738  32.521   6.447  11.553
36345W        W 4739  35.553   6.288  14.983
36346W        W 4740  22.651  20.329  10.949
36347W        W 4741   8.424   2.232   3.197
36348W        W 4742   9.922  20.251   2.629
36349W        W 4743   2.176  18.588   4.138
36350W        W 4744  39.817  27.703   0.027
36351W        W 4745   2.901  32.103  11.167
36352W        W 4746  42.419  27.266  14.951
36353W        W 4747  42.468   6.924   3.763
36354W        W 4748  29.503  36.997  13.706
36355W        W 4749  13.390  21.956   3.657
36356W        W 4750   7.929   0.184   3.736
36357W        W 4751  32.429  38.080  14.995
36358W        W 4752  43.166  26.283  12.580
36359W        W 4753  18.061  42.526  13.063
36360W        W 4754  14.795  21.024   1.374
36361W        W 4755  33.667  25.793  14.999
36362W        W 4756  34.689  21.126  11.540
36363W        W 4757  44.297   8.720  13.310
36364W        W 4758  29.938   9.826   3.432
36365W        W 4759  41.505  43.525  14.973
36366W        W 4760  26.964   6.439  13.982
36367W        W 4761  32.790  39.820   4.748
36368W        W 4762   6.872  20.524   3.692
36369W        W 4763  14.116  26.788  11.043
36370W        W 4764  42.547  11.948  14.507
36371W        W 4765   0.701   2.686  13.339
36372W        W 4766  10.278   1.959  11.503
36373W        W 4767  36.560  21.279  14.870
36374W        W 4768  43.795  21.171  12.461
36375W        W 4769  16.606  28.565   4.859
36376W        W 4770  16.045  41.032  12.987
36377W        W 4771  33.389  41.054  10.988
36378W        W 4772   8.318  37.887  14.314
36379W        W 4773  18.776  34.517   5.090
36380W        W 4774  41.417   1.915  14.206
36381W        W 4775  16.818  35.131  11.391
36382W        W 4776  34.946   1.898  14.110
36383W        W 4777  27.610  26.263   2.930
36384W        W 4778   2.898  13.703   3.887
36385W        W 4779  18.791  17.176   2.289
36386W        W 4780   0.262  21.800   4.816
36387W        W 4781   0.732  13.544   5.080
36388W        W 4782  29.397  38.862  10.770
36389W        W 4783  13.066  21.994  10.820
36390W        W 4784  22.638   7.222   3.680
36391W        W 4785  11.191   1.200   3.362
36392W        W 4786  12.602  21.207   1.655
36393W        W 4787  20.556   2.601  12.864
36394W        W 4788  40.432  37.601   1.939
36395W        W 4789  42.321  13.642   1.671
36396W        W 4790  35.103  31.094  14.387
36397W        W 4791  24.401  11.165   4.164
36398W        W 4792   6.412  33.885  14.181
36399W        W 4793  29.172  33.600  14.902
36400W        W 4794  43.293  23.497  14.909
36401W        W 4795   4.783  33.135  10.700
36402W        W 4796  28.701  41.989   3.742
36403W        W 4797   7.436  31.451  11.676
36404W        W 4798  26.784  22.514   4.207
36405W        W 4799  13.269  15.362  11.053
36406W        W 4800  33.528  26.583  10.244
36407W        W 4801  17.254   4.350  12.974
36408W        W 4802  32.152  34.884   1.383
36409W        W 4803   1.186  29.864  13.149
36410W        W 4804  18.374  13.351  11.145
36411W        W 4805  26.786   7.351   2.197
36412W        W 4806   9.721  29.634  13.841
36413W        W 4807   1.382  41.327  14.229
36414W        W 4808  19.319  34.491   4.224
36415W        W 4809  43.188  18.665  10.900
36416W        W 4810  11.903  40.837   0.605
36417W        W 4811  42.554  44.109  11.429
36418W        W 4812  35.985  26.102   2.452
36419W        W 4813   7.126   2.744   4.102
36420W        W 4814  41.330  42.463   0.057
36421W        W 4815   9.714  24.467   2.277
36422W        W 4816  10.715  35.875   4.887
36423W        W 4817  16.121  43.237   3.481
36424W        W 4818   7.132  11.599  11.042
36425W        W 4819  43.353  14.228  11.641
36426W        W 4820  37.781  37.802   0.988
36427W        W 4821  22.274   8.138  14.822
36428W        W 4822   5.409  29.846   2.695
36429W        W 4823  35.581  31.700  13.854
36430W        W 4824   1.349  19.059   0.199
36431W        W 4825  20.136  11.923   3.874
36432W        W 4826  19.094  10.877  12.002
36433W        W 4827  40.974  18.577  14.786
36434W        W 4828  26.040  43.683   2.662
36435W        W 4829  43.454  44.899   0.710
36436W        W 4830  38.149  26.123   2.166
36437W        W 4831  43.155  20.405  12.002
36438W        W 4832   2.931  17.236  10.270
36439W        W 4833  12.876  33.639  11.180
36440W        W 4834  41.703  10.246  11.170
36441W        W 4835  39.441  44.543   1.430
36442W        W 4836  43.630  35.203  11.626
36443W        W 4837  10.844  32.859   3.287
36444W        W 4838   2.926  41.576   2.780
36445W        W 4839  20.065  32.974  13.292
36446W        W 4840  13.159  28.983  13.312
36447W        W 4841  25.133  12.147   2.447
36448W        W 4842   8.608  15.706  12.818
36449W        W 4843  15.627   3.914  13.504
36450W        W 4844  30.699  21.814   3.353
36451W        W 4845  38.298  38.299   0.819
36452W        W 4846  16.705  34.407  14.529
36453W        W 4847   2.494   1.769  11.700
36454W        W 4848  26.395   8.658  14.984
36455W        W 4849   8.449   4.608   2.341
36456W        W 4850   3.871  23.873  11.065
36457W        W 4851  43.040  16.568   1.650
36458W        W 4852   2.440  15.843  14.013
36459W        W 4853  42.462   3.294   0.548
36460W        W 4854  28.894  38.964  13.632
36461W        W 4855  10.663  26.039   3.169
36462W        W 4856  23.622   6.896   0.440
36463W        W 4857  10.805  41.744   4.109
36464W        W 4858  26.583  37.411  13.126
36465W        W 4859  36.859  37.964  14.741
36466W        W 4860  40.485  34.892   3.394
36467W        W 4861  41.075  19.113  11.985
36468W        W 4862  17.472  40.641  10.235
36469W        W 4863   9.263  12.246  14.126
36470W        W 4864  33.483  29.472   4.580
36471W        W 4865  40.480  41.012  12.039
36472W        W 4866  24.052   5.450  14.732
36473W        W 4867  33.669  24.723  14.043
36474W        W 4868  39.221  21.683   0.855
36475W        W 4869   1.125  23.359  14.636
36476W        W 4870  19.429  36.979   0.352
36477W        W 4871  37.103  30.611   0.435
36478W        W 4872   0.727  33.373  13.429
36479W        W 4873  14.185  33.122  12.988
36480W        W 4874  33.117  25.965  13.033
36481W        W 4875  35.397   3.841  12.283
36482W        W 4876  15.171  36.129  11.447
36483W        W 4877  19.765   0.460   4.208
36484W        W 4878  11.605   6.982   1.280
36485W        W 4879  30.299  23.170  10.927
36486W        W 4880  29.426  17.194  11.452
36487W        W 4881   1.969  33.202  11.135
36488W        W 4882  44.974  13.929  14.455
36489W        W 4883  22.349  16.412   2.954
36490W        W 4884  23.530   4.887  14.522
36491W        W 4885  23.118  23.234  14.353
36492W        W 4886  27.983  27.805  12.638
36493W        W 4887  32.111  23.242   0.960
36494W        W 4888   1.927   2.337   1.286
36495W        W 4889  27.497  18.049   2.908
36496W        W 4890  23.598  39.732  10.744
36497W        W 4891  43.528  23.118   4.177
36498W        W 4892  41.103  32.002  14.375
36499W        W 4893   4.373   1.502   2.654
36500W        W 4894  22.290  36.642  12.576
36501W        W 4895  17.788  41.309   2.283
36502W        W 4896  38.861  43.443  12.652
36503W        W 4897  25.749   9.682  10.324
36504W        W 4898  26.951  22.006   2.445
36505W        W 4899  44.455  40.276  14.396
36506W        W 4900  33.929   1.992  14.981
36507W        W 4901  33.491  29.469   1.205
36508W        W 4902  26.157   8.113   2.672
36509W        W 4903  34.536   5.879  11.139
36510W        W 4904  39.511  29.896   2.299
36511W        W 4905  35.477  33.130   4.184
36512W        W 4906   3.439  29.940  11.529
36513W        W 4907  40.569   9.146   0.751
36514W        W 4908  23.522  22.204   3.240
36515W        W 4909  31.716   7.787  13.398
36516W        W 4910  22.150  12.230  10.429
36517W        W 4911  29.854  10.080   4.249
36518W        W 4912  21.392   4.468  10.075
36519W        W 4913  17.634  33.410  13.105
36520W        W 4914  29.200  31.867   1.842
36521W        W 4915  14.645  37.260   4.903
36522W        W 4916  22.895  29.446   0.874
36523W        W 4917   7.889  29.689  13.890
36524W        W 4918  44.448  33.428   3.431
36525W        W 4919  25.999  20.022   1.289
36526W        W 4920   2.710   7.357  11.665
36527W        W 4921  24.748  15.126   0.927
36528W        W 4922  15.226  33.660  12.197
36529W        W 4923   2.223  18.719  11.832
36530W        W 4924  29.225  30.607   1.290
36531W        W 4925  27.287   2.435  13.508
36532W        W 4926  41.000  23.683   3.570
36533W        W 4927   7.678  26.652   3.680
36534W        W 4928  14.133  12.532   2.667
36535W        W 4929  25.589  42.833   2.727
36536W        W 4930  30.568   5.654   1.815
36537W        W 4931   2.769  18.159   3.231
36538W        W 4932   3.418  35.066   4.096
36539W        W 4933  34.464  12.005   4.082
36540W        W 4934   3.889   3.327   2.329
36541W        W 4935  11.196   7.762  12.481
36542W        W 4936  14.433  16.143  12.147
36543W        W 4937  44.562  24.511  14.463
36544W        W 4938  22.845  25.734  12.510
36545W        W 4939  24.055  16.217   4.718
36546W        W 4940  32.463   7.399   2.995
36547W        W 4941  42.247  26.453   1.293
36548W        W 4942  23.728  18.185   3.678
36549W        W 4943  15.767  25.770   1.868
36550W        W 4944   9.140   3.564   2.761
36551W        W 4945  32.567  22.681   1.462
36552W        W 4946  37.586  28.897  11.191
36553W        W 4947  29.109  13.093   3.295
36554W        W 4948  26.583   1.821   2.297
36555W        W 4949  15.692  23.310   0.139
36556W        W 4950   5.994  40.679   2.366
36557W        W 4951  12.656  12.576   2.042
36558W        W 4952  25.810  31.283  13.415
36559W        W 4953  44.027  38.553   3.242
36560W        W 4954  21.751   8.427   4.161
36561W        W 4955  21.021  10.151  14.971
36562W        W 4956  12.442  43.700   0.339
36563W        W 4957  14.166   1.073  11.151
36564W        W 4958   2.840  42.553   3.638
36565W        W 4959  29.670  40.876  13.271
36566W        W 4960  43.203  10.183   2.234
36567W        W 4961  36.045  28.116  14.805
36568W        W 4962  20.796  28.164  14.316
36569W        W 4963  26.778  35.837   0.705
36570W        W 4964  44.988  24.530  11.417
36571W        W 4965   1.229   5.678   3.197
36572W        W 4966  24.723   6.892   0.834
36573W        W 4967  26.912  39.803  11.214
36574W        W 4968  19.222  34.479   2.192
36575W        W 4969  29.475  28.614   1.157
36576W        W 4970  20.480  13.812  14.580
36577W        W 4971  38.556  22.579   2.714
36578W        W 4972  17.312  25.950  13.909
36579W        W 4973  35.959  27.664  12.028
36580W        W 4974  11.428  22.554   2.216
36581W        W 4975   5.732  36.951   1.514
36582W        W 4976  34.570  33.722   1.262
36583W        W 4977  14.256  25.417  10.733
36584W        W 4978   2.843  19.278  10.637
36585W        W 4979  37.138  41.484   0.823
36586W        W 4980  17.812  34.718  12.660
36587W        W 4981   8.185  18.954   3.179
36588W        W 4982   9.643   3.628  12.038
36589W        W 4983  30.167  23.506   0.912
36590W        W 4984  30.947  10.014  13.821
36591W        W 4985   2.863  20.819  12.578
36592W        W 4986  43.089  31.406   0.107
36593W        W 4987  24.793  32.548   0.998
36594W        W 4988   1.232  30.410  13.349
36595W        W 4989   8.936  11.973  13.406
36596W        W 4990  25.525  38.197  12.206
36597W        W 4991  30.350   5.418   1.363
36598W        W 4992  26.971  28.452   4.473
36599W        W 4993  32.562  17.606   1.339
36600W        W 4994  29.992  33.576  13.586
36601W        W 4995  14.114   9.788   3.142
36602W        W 4996  13.575  15.741   1.810
36603W        W 4997  23.035   8.230   1.745
36604W        W 4998  13.095  19.023  14.791
36605W        W 4999  42.758  20.267  13.598
36606W        W 5000   8.895   7.668  11.200
36607W        W 5001   4.761   7.908   2.637
36608W        W 5002  43.885   3.217   0.749
36609W        W 5003  16.230  42.424   1.637
36610W        W 5004  42.354  26.445   4.617
36611W        W 5005  25.015  40.926   4.859
36612W        W 5006  33.571   0.785  11.090
36613W        W 5007  11.832  37.994  10.141
36614W        W 5008  24.480   4.494  12.360
36615W        W 5009   2.916  24.105   4.212
36616W        W 5010  38.468  14.543   3.342
36617W        W 5011  15.287   7.871   3.636
36618W        W 5012  10.370  41.865   0.014
36619W        W 5013   1.734  33.033  14.876
36620W        W 5014   5.464  30.008  11.860
36621W        W 5015  13.041  18.878  13.884
36622W        W 5016  18.634  36.468   3.725
36623W        W 5017  19.776  28.972  11.665
36624W        W 5018  24.178  28.275   5.108
36625W        W 5019  39.612   2.350   3.106
36626W        W 5020   8.533  12.441   1.352
36627W        W 5021  31.708   2.262  14.280
36628W        W 5022  43.814  20.201   1.173
36629W        W 5023  30.038   1.792   4.114
36630W        W 5024  39.982  25.127   4.193
36631W        W 5025  31.340  23.707  12.623
36632W        W 5026  44.175   4.484  12.023
36633W        W 5027  36.347   4.680   1.715
36634W        W 5028  24.088   5.214   4.193
36635W        W 5029  33.775  40.332   0.930
36636W        W 5030  37.946   9.292   2.466
36637W        W 5031  38.559   2.284  14.590
36638W        W 5032  16.538   3.190  11.610
36639W        W 5033  30.625  17.848   3.121
36640W        W 5034   3.723  28.713   2.426
36641W        W 5035  43.229   0.688  11.470
36642W        W 5036   6.280   5.024   4.764
36643W        W 5037  37.814   2.468   0.129
36644W        W 5038  10.194  10.165  11.975
36645W        W 5039   5.835   8.590  10.618
36646W        W 5040  43.484  16.002  14.426
36647W        W 5041   3.229  19.680   0.795
36648W        W 5042   5.654  14.695   2.818
36649W        W 5043  18.081  13.279   0.904
36650W        W 5044  15.718  10.203  11.661
36651W        W 5045  33.955  30.863  13.773
36652W        W 5046   5.204  18.041  13.688
36653W        W 5047  34.918  11.073  11.437
36654W        W 5048  35.815  41.107   1.637
36655W        W 5049  42.793  37.931   3.255
36656W        W 5050  18.543   5.961  13.542
36657W        W 5051   0.937  16.277   0.802
36658W        W 5052   2.229  40.994  14.319
36659W        W 5053  40.804  34.132   1.930
36660W        W 5054  22.340  18.331   1.235
36661W        W 5055  12.111  42.532   1.901
36662W        W 5056  17.711  23.996   3.107
36663W        W 5057  21.977  25.606  11.269
36664W        W 5058   0.795  41.874  12.404
36665W        W 5059  12.912  37.488   0.014
36666W        W 5060  24.221  15.140   4.335
36667W        W 5061  31.043  31.918   4.046
36668W        W 5062  21.027  18.814   3.657
36669W        W 5063  10.916   7.967   0.971
36670W        W 5064  11.415  40.297  12.548
36671W        W 5065  23.111   8.732   0.027
36672W        W 5066  20.069  34.024   1.411
36673W        W 5067   3.948  15.591   2.707
36674W        W 5068  24.508  39.014  14.990
36675W        W 5069   3.289  13.368   1.585
36676W        W 5070   8.837  27.423   2.825
36677W        W 5071  32.634  35.113  14.577
36678W        W 5072  31.688  10.716   1.795
36679W        W 5073  24.193   2.646  13.927
36680W        W 5074   4.769  41.910  12.387
36681W        W 5075  21.816  25.126  11.097
36682W        W 5076   9.386  29.659   4.888
36683W        W 5077   4.045  44.014  13.016
36684W        W 5078  34.368  25.774   1.795
36685W        W 5079  21.431  34.691   1.875
36686W        W 5080  43.598   0.716   1.391
36687W        W 5081  20.163  15.306  14.373
36688W        W 5082  40.776  35.517   4.440
36689W        W 5083  40.718  43.266  10.301
36690W        W 5084  16.247  10.943  10.438
36691W        W 5085  43.362  19.555   4.956
36692W        W 5086   9.859  14.760  13.570
36693W        W 5087  12.871  41.835   4.116
36694W        W 5088  12.304  16.253   1.806
36695W        W 5089  42.685  44.403   5.165
36696W        W 5090   6.684  39.869   2.916
36697W        W 5091  41.479  28.410   3.712
36698W        W 5092  11.284  23.630  10.725
36699W        W 5093  44.968  41.607   0.243
36700W        W 5094  21.958   2.576   4.183
36701W        W 5095  25.712  35.916   0.797
36702W        W 5096  12.278  34.669   4.536
36703W        W 5097   0.032  23.252  12.486
36704W        W 5098  35.382  42.939   4.409
36705W        W 5099  18.236  42.047  12.110
36706W        W 5100  41.989  34.443  11.094
36707W        W 5101  44.548  44.851   2.263
36708W        W 5102   7.638  12.682  13.948
36709W        W 5103  23.080  19.536  10.673
36710W        W 5104   0.050   9.327  11.678
36711W        W 5105   8.662  30.190  12.626
36712W        W 5106  28.138  11.616   3.599
36713W        W 5107  30.693  26.271   1.321
36714W        W 5108  32.969  34.966  12.874
36715W        W 5109   6.401  36.022   3.500
36716W        W 5110  23.450  35.178   0.357
36717W        W 5111   5.213  30.835   2.810
36718W        W 5112  39.107  15.571   1.408
36719W        W 5113  23.709  22.495   2.769
36720W        W 5114   6.666  32.557  12.652
36721W        W 5115   6.704  34.671  10.651
36722W        W 5116  35.253  39.913   0.947
36723W        W 5117  32.641  34.378   4.504
36724W        W 5118  40.862  28.078  11.340
36725W        W 5119   7.806  44.957   2.345
36726W        W 5120  25.639   4.462  14.271
36727W        W 5121   9.907  32.650   4.228
36728W        W 5122  40.677  22.589  13.396
36729W        W 5123   0.722  31.087   2.805
36730W        W 5124  36.066   4.395   4.849
36731W        W 5125   6.775   9.380   4.301
36732W        W 5126   2.548  10.428  10.702
36733W        W 5127   6.188  36.459  10.548
36734W        W 5128  11.155  35.000   4.510
36735W        W 5129  27.915  19.710   0.411
36736W        W 5130  18.240  21.978   0.411
36737W        W 5131  13.127  31.383   3.334
36738W        W 5132  39.075  12.862   1.222
36739W        W 5133   6.150  15.992  13.725
36740W        W 5134  16.594  41.149  11.675
36741W        W 5135  18.633  24.106  12.009
36742W        W 5136  40.807  10.837  13.287
36743W        W 5137  20.217  37.335  11.098
36744W        W 5138  28.385  19.239  14.090
36745W        W 5139  29.493   8.329  14.548
36746W        W 5140  31.892   8.362  11.199
36747W        W 5141  43.009  42.776   9.797
36748W        W 5142  23.509  24.612   3.605
36749W        W 5143  12.574  40.894   2.297
36750W        W 5144  23.116   5.334   0.817
36751W        W 5145   8.734  38.483   4.841
36752W        W 5146  29.053  13.680  13.991
36753W        W 5147  20.134   5.128   0.356
36754W        W 5148  16.319   1.261  11.422
36755W        W 5149  41.023   0.939   0.753
36756W        W 5150   5.304  33.666  13.150
36757W        W 5151  13.602  32.219  12.433
36758W        W 5152  42.901  20.052   0.780
36759W        W 5153   3.892   5.399  12.984
36760W        W 5154   9.646  25.883  10.944
36761W        W 5155  39.530   7.982   0.919
36762W        W 5156   0.947  38.662   2.358
36763W        W 5157  32.908  15.184  13.315
36764W        W 5158   6.764  34.192   1.851
36765W        W 5159   3.542  36.520  12.972
36766W        W 5160  18.536  31.735  12.671
36767W        W 5161  37.591   7.962  11.851
36768W        W 5162  40.908  33.834   4.075
36769W        W 5163  31.569   4.995  13.372
36770W        W 5164   8.869  42.314   0.681
36771W        W 5165  38.944  14.014   1.721
36772W        W 5166  15.555  20.662  10.881
36773W        W 5167   0.041  26.178  14.479
36774W        W 5168  29.514  12.650  11.201
36775W        W 5169  34.800   8.857  10.151
36776W        W 5170  23.727  37.040  14.249
36777W        W 5171  11.225  33.119  10.375
36778W        W 5172  15.800   7.300  14.931
36779W        W 5173  18.599  15.426  13.912
36780W        W 5174  39.876  10.261   3.943
36781W        W 5175  34.357  20.319   1.808
36782W        W 5176   1.785  37.534   3.899
36783W        W 5177   0.997   6.182  12.167
36784W        W 5178  40.132   0.020   2.607
36785W        W 5179  25.503  15.817  12.131
36786W        W 5180  26.606  41.001   3.332
36787W        W 5181  33.064  12.958  12.499
36788W        W 5182   0.479  15.575   3.234
36789W        W 5183  42.527  44.086  14.877
36790W        W 5184  16.029   3.231   4.559
36791W        W 5185  11.726  19.965  11.318
36792W        W 5186  16.177  32.851   3.208
36793W        W 5187  40.385  42.018   3.175
36794W        W 5188  39.514  19.338   4.147
36795W        W 5189  35.426  16.144  11.982
36796W        W 5190   3.683   8.934   4.288
36797W        W 5191  11.691   8.840   3.657
36798W        W 5192  11.190  25.717  10.648
36799W        W 5193  42.433   6.521   1.883
36800W        W 5194  14.663  27.667  11.155
36801W        W 5195  24.948   5.779  14.363
36802W        W 5196  22.639  28.393  11.405
36803W        W 5197  10.452  19.501   3.347
36804W        W 5198   7.790   6.683   4.127
36805W        W 5199  32.645   8.716   0.333
36806W        W 5200  14.130  38.718  13.365
36807W        W 5201   7.024  12.127   2.317
36808W        W 5202  17.477  14.570  11.417
36809W        W 5203  41.471  23.750  12.380
36810W        W 5204   8.262  34.069  14.499
36811W        W 5205  35.015  36.927  14.848
36812W        W 5206  20.673  36.019  14.084
36813W        W 5207  34.456  13.737  11.320
36814W        W 5208   0.518  40.026   0.838
36815W        W 5209  12.312  34.167  13.402
36816W        W 5210   3.425   9.602  14.439
36817W        W 5211  24.093  24.117   0.845
36818W        W 5212  13.437   0.866  12.361
36819W        W 5213  41.326  31.450  10.441
36820W        W 5214  35.321  15.528   4.891
36821W        W 5215  42.340   9.901   1.326
36822W        W 5216  25.425  23.724   0.637
36823W        W 5217  16.533   3.947  13.594
36824W        W 5218  24.781  13.872   4.222
36825W        W 5219  30.757  44.829  13.971
36826W        W 5220  19.803  31.194   4.603
36827W        W 5221   1.252  14.118  13.901
36828W        W 5222  38.796  19.144   3.665
36829W        W 5223  30.457  15.638  10.606
36830W        W 5224   9.694  26.676   0.424
36831W        W 5225  27.872  25.524  14.930
36832W        W 5226   0.871  25.663   1.392
36833W        W 5227  33.398   3.174  11.153
36834W        W 5228  16.937   5.706  12.018
36835W        W 5229   9.906  30.966  13.269
36836W        W 5230   7.816  37.941  14.457
36837W        W 5231   3.717   3.817  13.827
36838W        W 5232  40.970  15.171  13.865
36839W        W 5233   7.526  24.694  11.648
36840W        W 5234  40.906  12.712  11.064
36841W        W 5235  32.860  10.684  14.226
36842W        W 5236  39.139   1.585  11.626
36843W        W 5237  39.449   6.272  10.728
36844W        W 5238   0.065  42.790   2.310
36845W        W 5239  13.104  17.309  12.956
36846W        W 5240  43.063  21.215  13.368
36847W        W 5241  25.089  30.819  12.033
36848W        W 5242  42.495  17.925   0.240
36849W        W 5243  19.789   8.876  10.308
36850W        W 5244  30.117  30.040  14.054
36851W        W 5245  28.171  18.765   4.637
36852W        W 5246   2.432   3.488  12.000
36853W        W 5247  23.321  43.205  11.174
36854W        W 5248   3.199  10.679   4.309
36855W        W 5249  14.453  43.125  14.306
36856W        W 5250  13.119  25.018  13.467
36857W        W 5251   0.308   2.868  11.577
36858W        W 5252   7.420  11.800   2.235
36859W        W 5253  10.795   9.372  11.452
36860W        W 5254  24.942   9.383  14.269
36861W        W 5255  10.123  25.676  12.804
36862W        W 5256  41.895  32.274   3.978
36863W        W 5257   3.761  17.441  10.556
36864W        W 5258   7.428  32.216  13.806
36865W        W 5259  30.959  11.747   4.089
36866W        W 5260  10.837  24.303   3.700
36867W        W 5261  17.138   7.797   4.401
36868W        W 5262   8.765  21.667   4.412
36869W        W 5263   9.556  19.720  14.930
36870W        W 5264  33.929  34.485  14.625
36871W        W 5265  28.555   9.072  13.348
36872W        W 5266  25.839  22.082   4.171
36873W        W 5267   1.767  11.791  14.350
36874W        W 5268   8.265   9.153   3.267
36875W        W 5269   3.000  22.776  13.561
36876W        W 5270  44.256  33.126  13.552
36877W        W 5271   9.457  12.271   1.814
36878W        W 5272   4.546  29.946   1.407
36879W        W 5273   5.926  38.488   2.240
36880W        W 5274  11.352  23.942   2.797
36881W        W 5275   7.785   5.393  10.855
36882W        W 5276  33.978  30.594   3.388
36883W        W 5277  44.991  41.968  14.037
36884W        W 5278  40.515   7.312  13.596
36885W        W 5279   1.088  14.417  12.686
36886W        W 5280  16.679  43.403  11.247
36887W        W 5281  36.938   2.521   1.306
36888W        W 5282  32.726  11.139   2.398
36889W        W 5283   6.210  29.950   1.775
36890W        W 5284   2.217   1.834   2.324
36891W        W 5285  12.384  15.626   3.250
36892W        W 5286   5.424  44.969  14.568
36893W        W 5287   7.647  27.707  12.411
36894W        W 5288  32.211   3.919   2.099
36895W        W 5289  13.516   9.590   0.849
36896W        W 5290   9.784  44.588  14.304
36897W        W 5291   4.415   7.502   2.625
36898W        W 5292  21.992  11.784   0.705
36899W        W 5293  42.821  12.279   2.556
36900W        W 5294   5.523  22.797   3.919
36901W        W 5295  34.966   5.598  10.737
36902W        W 5296  15.473   9.481   1.762
36903W        W 5297  18.811  11.903   0.307
36904W        W 5298  30.192  42.492  14.497
36905W        W 5299  39.902   5.692  10.451
36906W        W 5300  16.238  21.979   0.860
36907W        W 5301  31.431  36.644   2.173
36908W        W 5302  23.256   9.250  14.915
36909W        W 5303  33.394  18.960  12.063
36910W        W 5304  31.152   0.749   1.436
36911W        W 5305  29.999  41.989  12.853
36912W        W 5306  27.537  37.389  11.196
36913W        W 5307  27.753  43.135   5.034
36914W        W 5308  24.056  28.076   1.151
36915W        W 5309  23.264  18.044  12.197
36916W        W 5310  32.547  17.559   4.672
36917W        W 5311  32.938  13.000   4.617
36918W        W 5312  35.251  30.486   0.759
36919W        W 5313  10.627   9.256   0.730
36920W        W 5314  35.909  19.005   4.452
36921W        W 5315  18.172  20.148  14.137
36922W        W 5316  33.977  15.527   0.450
36923W        W 5317  31.758  22.419  11.984
36924W        W 5318  23.122  31.503   3.235
36925W        W 5319  41.773  16.621   3.689
36926W        W 5320  37.468  39.326  13.589
36927W        W 5321   6.154  12.714  10.167
36928W        W 5322  22.217  27.194  13.325
36929W        W 5323  23.886  25.715  14.881
36930W        W 5324  12.241  41.306   1.428
36931W        W 5325  38.342   0.028   1.788
36932W        W 5326  13.646  39.994  12.633
36933W        W 5327  10.130  24.720   4.545
36934W        W 5328  21.357  13.782   2.145
36935W        W 5329  28.683  35.498   2.927
36936W        W 5330   9.613  16.607  13.444
36937W        W 5331  34.890   4.033   4.052
36938W        W 5332   4.613  14.179  11.570
36939W        W 5333  19.624  35.955   4.202
36940W        W 5334  41.368  42.969   1.289
36941W        W 5335  35.477   6.113   0.463
36942W        W 5336   4.407  40.058  13.871
36943W        W 5337  41.872  40.331  11.530
36944W        W 5338  10.632   1.722  11.767
36945W        W 5339   0.923  32.600  12.389
36946W        W 5340  40.276  38.841   3.662
36947W        W 5341   5.271  33.560  12.165
36948W        W 5342  29.498   9.189  12.813
36949W        W 5343  37.760  25.560   4.180
36950W        W 5344  31.163   7.712  14.732
36951W        W 5345  26.727  44.371   0.344
36952W        W 5346  36.979  17.512   0.297
36953W        W 5347  24.575  44.985  13.399
36954W        W 5348  26.156  27.099   3.352
36955W        W 5349  11.267  37.054  13.170
36956W        W 5350  30.900  13.669  13.563
36957W        W 5351  35.539   6.253   2.407
36958W        W 5352  13.693  10.691  12.138
36959W        W 5353  20.780  44.261  11.035
36960W        W 5354  15.792  16.857  11.518
36961W        W 5355  16.344  29.099  11.946
36962W        W 5356  26.859  39.137   2.819
36963W        W 5357  19.817  35.482  11.882
36964W        W 5358  20.091  30.564   3.236
36965W        W 5359  36.063  32.022   3.733
36966W        W 5360  16.493  34.245  14.983
36967W        W 5361   7.303  30.489  12.573
36968W        W 5362  39.961  33.917  10.902
36969W        W 5363   6.260  37.972  10.690
36970W        W 5364  21.723  14.299   3.332
36971W        W 5365   8.390  39.418   4.390
36972W        W 5366   4.433  33.114  12.421
36973W        W 5367   3.951  34.193  13.013
36974W        W 5368  22.062  16.690   4.748
36975W        W 5369   8.856  28.157  12.612
36976W        W 5370  29.613  26.112   1.309
36977W        W 5371  35.863  36.641  12.536
36978W        W 5372  43.115  37.801   2.331
36979W        W 5373  37.008   5.810   0.799
36980W        W 5374  16.060   3.625  12.485
36981W        W 5375  19.824  24.683  11.042
36982W        W 5376  32.639  15.355  14.428
36983W        W 5377  24.481  30.548   1.364
36984W        W 5378  14.143  27.746   0.033
36985W        W 5379  13.364  43.885   0.320
36986W        W 5380  19.201  24.614   3.667
36987W        W 5381  16.357  40.608   4.100
36988W        W 5382   8.799  42.834  10.986
36989W        W 5383  42.557  12.754   1.377
36990W        W 5384  32.944  13.178   2.647
36991W        W 5385   8.574  39.824  11.979
36992W        W 5386  26.659   9.457  11.457
36993W        W 5387  39.463  23.535   0.024
36994W        W 5388  17.470  43.898  10.411
36995W        W 5389  11.822  25.189   5.138
36996W        W 5390  23.861  41.315   4.163
36997W        W 5391  38.265  19.643   2.295
36998W        W 5392  39.240  20.633  12.078
36999W        W 5393  31.159   7.729  12.537
37000W        W 5394   6.620  37.126   1.272
37001W        W 5395  27.676  36.781   1.879
37002W        W 5396  21.924  19.759   4.103
37003W        W 5397  23.518  27.068  14.317
37004W        W 5398   0.741  10.370   5.010
37005W        W 5399  29.854   6.873   2.777
37006W        W 5400  35.154   2.729  12.845
37007W        W 5401  13.619  31.788  13.340
37008W        W 5402  37.370  23.742   1.879
37009W        W 5403  35.466   4.986   2.060
37010W        W 5404  42.593  28.918   4.928
37011W        W 5405  33.371  21.230   0.813
37012W        W 5406   6.427  11.768  10.336
37013W        W 5407  44.987  40.344   2.846
37014W        W 5408  21.072  43.506  14.783
37015W        W 5409  14.861  26.719   0.946
37016W        W 5410  39.274  44.857  14.849
37017W        W 5411  32.785  20.627   2.350
37018W        W 5412  39.460  40.365  12.705
37019W        W 5413  41.042  28.444   3.402
37020W        W 5414   0.809  32.236  13.370
37021W        W 5415   6.379  44.982  14.363
37022W        W 5416  44.452   4.684  10.700
37023W        W 5417  41.075  36.184   1.159
37024W        W 5418  42.960  17.070   3.752
37025W        W 5419  21.685  23.751  14.972
37026W        W 5420  24.599  41.016   0.588
37027W        W 5421  14.244   1.243  13.314
37028W        W 5422  34.597   3.393  11.080
37029W        W 5423   6.418   8.156  14.067
37030W        W 5424  30.330  31.049   1.783
37031W        W 5425  22.099   0.315   3.239
37032W        W 5426   0.105  29.733  10.655
37033W        W 5427   9.734   2.233   2.914
37034W        W 5428  19.355  13.831  14.973
37035W        W 5429  34.147  36.904  10.672
37036W        W 5430  21.046  21.268   3.060
37037W        W 5431  25.669  22.428   0.802
37038W        W 5432   1.255  39.072  11.391
37039W        W 5433  17.532  16.705   4.048
37040W        W 5434   9.122  22.213   1.076
37041W        W 5435  10.942  40.435  11.487
37042W        W 5436  19.821   6.222  13.963
37043W        W 5437  32.658  22.762  13.782
37044W        W 5438  38.813  33.444  13.343
37045W        W 5439  41.292   9.120  13.783
37046W        W 5440  40.621  37.873   3.075
37047W        W 5441  10.799  17.942   4.811
37048W        W 5442  19.091  35.684   2.429
37049W        W 5443   9.314  32.134  11.595
37050W        W 5444  10.579  11.754   4.050
37051W        W 5445  43.337  25.765  12.877
37052W        W 5446  41.554  11.645  14.587
37053W        W 5447  15.581  40.433  12.373
37054W        W 5448   9.182   2.861   4.685
37055W        W 5449   0.759  14.137   1.464
37056W        W 5450   3.952   2.210   1.555
37057W        W 5451   2.693  15.301  10.392
37058W        W 5452  41.019  30.435  13.968
37059W        W 5453  41.810  22.586  14.043
37060W        W 5454  33.877  33.319  12.922
37061W        W 5455   8.146  24.629  14.431
37062W        W 5456  34.611  40.848  14.228
37063W        W 5457  18.935  36.630  13.912
37064W        W 5458  39.627  36.097   4.169
37065W        W 5459  14.089  30.600  14.544
37066W        W 5460  15.827  27.006  10.970
37067W        W 5461  28.749  16.810   3.090
37068W        W 5462  29.135  42.766   0.797
37069W        W 5463  26.687  40.675   4.269
37070W        W 5464  34.838  42.702  12.580
37071W        W 5465  11.140  41.466   4.529
37072W        W 5466  32.513  29.353  13.963
37073W        W 5467   0.329  29.091   0.599
37074W        W 5468  27.646   1.334   0.717
37075W        W 5469  38.309   7.455  12.476
37076W        W 5470  29.581   8.342  11.158
37077W        W 5471  26.092  42.098  11.487
37078W        W 5472  31.146  26.480   4.554
37079W        W 5473  15.280  36.394  13.287
37080W        W 5474  26.681  16.272  11.146
37081W        W 5475  30.394  10.758  14.392
37082W        W 5476  17.727  30.327  13.976
37083W        W 5477  37.427  16.179  13.624
37084W        W 5478  28.568  15.325  11.996
37085W        W 5479   3.390  37.553   5.193
37086W        W 5480  26.020  30.064  14.435
37087W        W 5481  41.046  44.746  11.658
37088W        W 5482  11.221  42.844  14.358
37089W        W 5483  35.959  23.955   1.895
37090W        W 5484  10.335  29.240  13.251
37091W        W 5485   2.896  36.501  10.719
37092W        W 5486   7.304   5.775   4.397
37093W        W 5487  31.746  19.327  13.394
37094W        W 5488  36.814  36.948   4.108
37095W        W 5489  21.348  33.447   2.217
37096W        W 5490  33.463  34.497  14.413
37097W        W 5491  14.699  22.702  14.068
37098W        W 5492  44.489  42.205  10.771
37099W        W 5493  21.088  11.943  11.075
37100W        W 5494  11.308   1.249  13.172
37101W        W 5495  26.410  38.833   2.705
37102W        W 5496  40.112  28.036   4.424
37103W        W 5497  21.094   1.015   0.278
37104W        W 5498  33.637  24.754  14.957
37105W        W 5499   5.661   8.757   0.475
37106W        W 5500  29.068  23.152   2.137
37107W        W 5501   5.726  23.192   4.243
37108W        W 5502  19.006  15.164  14.927
37109W        W 5503   4.225  25.225   4.137
37110W        W 5504  12.790   6.458   4.159
37111W        W 5505  20.233  34.989  12.463
37112W        W 5506  22.199  17.260   2.155
37113W        W 5507  38.081  43.911  13.287
37114W        W 5508  20.353  20.315  14.259
37115W        W 5509  15.786   0.395  11.949
37116W        W 5510   6.441  38.644   4.947
37117W        W 5511  20.712  31.441   3.173
37118W        W 5512  20.687  15.523   0.263
37119W        W 5513   5.371  38.996  13.887
37120W        W 5514  10.643  35.647   2.230
37121W        W 5515  23.610  27.063   4.255
37122W        W 5516  12.880   1.216  10.739
37123W        W 5517   2.725  24.292  13.533
37124W        W 5518   6.573  20.665   4.087
37125W        W 5519  31.137  19.940  11.102
37126W        W 5520  15.110   4.928  12.038
37127W        W 5521  27.641  39.788  14.694
37128W        W 5522  29.840  41.491  13.538
37129W        W 5523  29.670  32.607  10.707
37130W        W 5524  17.288  22.272   1.566
37131W        W 5525  12.378  29.493  13.051
37132W        W 5526  13.909  17.430  14.801
37133W        W 5527  32.641   1.744  13.497
37134W        W 5528  41.005  32.513  11.958
37135W        W 5529  16.730  41.170  10.314
37136W        W 5530  18.471  11.871   0.715
37137W        W 5531   5.964  34.601   4.772
37138W        W 5532  43.452  17.644   0.700
37139W        W 5533  32.197   6.196   2.346
37140W        W 5534  22.468  21.204  13.816
37141W        W 5535  40.475  24.592  12.536
37142W        W 5536  23.673  43.233   0.925
37143W        W 5537   5.483  19.523  13.398
37144W        W 5538  28.169   2.900   3.741
37145W        W 5539  27.512  14.884   3.166
37146W        W 5540  35.907  44.464  13.456
37147W        W 5541  35.002  35.911   1.655
37148W        W 5542  14.081  19.953   2.835
37149W        W 5543  34.648   6.413  13.388
37150W        W 5544  38.406  41.833   4.386
37151W        W 5545  40.239  26.124   4.694
37152W        W 5546  34.790   5.421  11.210
37153W        W 5547  38.346  23.773   2.858
37154W        W 5548  37.756   6.604   1.988
37155W        W 5549  26.199  26.058   0.799
37156W        W 5550  25.611  33.093  13.015
37157W        W 5551  41.742  25.856  10.657
37158W        W 5552   4.221  23.171   3.203
37159W        W 5553  37.931  24.336   3.833
37160W        W 5554  19.104  32.023  13.144
37161W        W 5555  37.866   0.824  13.640
37162W        W 5556  33.886   1.845   1.818
37163W        W 5557  43.819  14.765  11.872
37164W        W 5558  44.429   1.222  14.682
37165W        W 5559   8.271   0.073  11.117
37166W        W 5560  44.770  34.340   3.655
37167W        W 5561  17.064  30.994   2.272
37168W        W 5562   0.846  35.228  11.728
37169W        W 5563  25.408  18.725  11.605
37170W        W 5564   4.187  12.906  11.682
37171W        W 5565  37.033  40.527  11.254
37172W        W 5566  41.008  17.041  14.004
37173W        W 5567  40.076  22.935   3.667
37174W        W 5568  40.129  22.181   3.250
37175W        W 5569  27.013  11.289  12.947
37176W        W 5570   1.362  39.014   0.735
37177W        W 5571  10.217  13.334   4.615
37178W        W 5572  25.873  41.773  11.858
37179W        W 5573  30.888  15.264  14.393
37180W        W 5574  16.317  28.067  13.855
37181W        W 5575  22.780  16.427  11.195
37182W        W 5576  24.718  28.779   4.814
37183W        W 5577  27.944   9.939  10.793
37184W        W 5578  40.533  28.591   1.740
37185W        W 5579  18.918   0.491   3.208
37186W        W 5580  14.293  12.366   3.305
37187W        W 5581   3.934  25.425   3.460
37188W        W 5582  13.802  10.229   3.592
37189W        W 5583   3.224  10.303  12.121
37190W        W 5584  41.055  12.870  13.072
37191W        W 5585  14.746  18.524   4.731
37192W        W 5586   8.181  20.192  11.339
37193W        W 5587  16.574   6.603  13.438
37194W        W 5588   6.235   4.887  10.814
37195W        W 5589  43.207  42.974   0.856
37196W        W 5590   5.776  17.293  13.544
37197W        W 5591  10.435   3.151   3.519
37198W        W 5592  17.882  43.112  12.273
37199W        W 5593  27.267  31.653   1.871
37200W        W 5594   4.531  31.369  13.093
37201W        W 5595  18.568  17.968   2.780
37202W        W 5596  39.983  34.621  12.862
37203W        W 5597  29.662   9.464   2.185
37204W        W 5598  12.605  13.232  13.879
37205W        W 5599  33.873   4.311   3.275
37206W        W 5600  43.928  10.670   2.116
37207W        W 5601  13.656  37.849   0.192
37208W        W 5602  14.731  30.771   1.261
37209W        W 5603  10.816  27.473  14.925
37210W        W 5604   0.711   5.992   1.863
37211W        W 5605  22.455  11.414   2.270
37212W        W 5606  32.381  19.507  14.695
37213W        W 5607  12.870  35.865  13.074
37214W        W 5608   4.067  40.029  12.560
37215W        W 5609   8.895  13.471  12.903
37216W        W 5610  12.051  19.159  12.952
37217W        W 5611  26.997  28.211   3.828
37218W        W 5612  11.560  10.138  13.218
37219W        W 5613  41.873  37.922   4.007
37220W        W 5614  16.772   3.171  14.888
37221W        W 5615  38.577   0.050   2.603
37222W        W 5616  35.094  37.109   1.826
37223W        W 5617  32.198  38.037  12.614
37224W        W 5618  41.830  42.732  13.011
37225W        W 5619  34.591  37.415  11.995
37226W        W 5620   8.307   0.941  14.830
37227W        W 5621  13.226  25.182   4.396
37228W        W 5622  15.123  37.297  10.227
37229W        W 5623  27.318   7.451   2.129
37230W        W 5624  40.807  26.532   3.398
37231W        W 5625   0.799  10.434   2.320
37232W        W 5626  39.792  40.068  11.081
37233W        W 5627  26.954  25.999  13.703
37234W        W 5628  35.833  10.300   4.587
37235W        W 5629  26.740   8.299  12.023
37236W        W 5630  20.167  34.594   4.528
37237W        W 5631  17.861  17.995   4.754
37238W        W 5632  23.754  41.341  12.482
37239W        W 5633  38.351   2.911   4.318
37240W        W 5634   2.184  13.845  14.895
37241W        W 5635  14.881   8.453  11.355
37242W        W 5636  34.409  12.758  14.566
37243W        W 5637  37.506  24.636   4.581
37244W        W 5638  24.634   2.345   4.331
37245W        W 5639  42.440  43.700   3.103
37246W        W 5640  12.811  32.126   4.958
37247W        W 5641  35.980   9.084   1.939
37248W        W 5642  15.641   5.699   0.825
37249W        W 5643  33.966  26.924   0.799
37250W        W 5644   1.440   1.822   1.871
37251W        W 5645  28.549  33.646  13.221
37252W        W 5646  44.307  35.960   4.148
37253W        W 5647   2.753  33.722   3.349
37254W        W 5648  43.248   1.060  12.880
37255W        W 5649  38.569   6.886   0.047
37256W        W 5650  25.124  42.878  12.106
37257W        W 5651  21.205  20.323  11.071
37258W        W 5652  38.956  18.768  11.131
37259W        W 5653  22.018  15.314   0.028
37260W        W 5654  21.603  24.398   3.828
37261W        W 5655  42.768  38.260  10.682
37262W        W 5656  19.225   6.457   4.223
37263W        W 5657  43.453  18.753   2.443
37264W        W 5658   2.828   5.001  12.009
37265W        W 5659   9.668  18.235   1.219
37266W        W 5660  27.974   5.470  12.494
37267W        W 5661  23.198  38.796  13.181
37268W        W 5662   2.299  14.786  11.854
37269W        W 5663   2.781  17.226  14.275
37270W        W 5664  15.361  39.447   1.581
37271W        W 5665   2.058  34.294   3.537
37272W        W 5666  25.529  33.189  10.923
37273W        W 5667   0.643  27.229   2.642
37274W        W 5668  13.882  22.056  12.714
37275W        W 5669   8.763  41.489  10.661
37276W        W 5670  18.254  17.533   2.698
37277W        W 5671  33.851  27.424  12.966
37278W        W 5672   7.960  10.267   4.674
37279W        W 5673  16.690  34.450   4.391
37280W        W 5674  39.142  16.248   3.113
37281W        W 5675  19.624  44.791   1.290
37282W        W 5676  39.593  31.972   4.906
37283W        W 5677   5.897  26.516  12.819
37284W        W 5678  30.007  35.914  14.795
37285W        W 5679  16.572  41.650  10.484
37286W        W 5680  19.755  13.877  14.052
37287W        W 5681  44.730  35.084  13.185
37288W        W 5682  16.783  28.110   2.329
37289W        W 5683  37.567   1.350  14.323
37290W        W 5684   3.972  29.671  12.560
37291W        W 5685  39.252  40.024   2.269
37292W        W 5686  37.421  30.461   4.871
37293W        W 5687   3.445  34.023   2.656
37294W        W 5688  34.386  36.031   4.105
37295W        W 5689   5.222  44.755  13.764
37296W        W 5690  32.883  21.144  11.822
37297W        W 5691   3.037  15.103  14.676
37298W        W 5692  34.081   2.317   1.992
37299W        W 5693  20.045  38.310   1.867
37300W        W 5694   6.934   9.010   1.667
37301W        W 5695   5.191  26.392  12.445
37302W        W 5696  32.150  15.688   3.240
37303W        W 5697   3.914  27.403  14.814
37304W        W 5698  17.638  19.152   9.904
37305W        W 5699  14.184  40.322   0.411
37306W        W 5700  22.640  33.297   4.106
37307W        W 5701  38.856  30.613  14.864
37308W        W 5702  33.011  33.602  13.629
37309W        W 5703  11.372  36.520   1.682
37310W        W 5704  16.876  24.194  14.899
37311W        W 5705  24.379  14.740  11.581
37312W        W 5706  26.428  22.467   3.220
37313W        W 5707  29.577  38.043   0.470
37314W        W 5708   2.562  14.583  13.920
37315W        W 5709  29.831  30.500  12.588
37316W        W 5710  40.702   3.918   2.436
37317W        W 5711  21.211  18.842  13.426
37318W        W 5712  13.359  16.906  11.586
37319W        W 5713  27.522  27.882   0.957
37320W        W 5714  32.102  44.759   1.157
37321W        W 5715  38.364  44.522   2.563
37322W        W 5716   4.638  27.676   2.183
37323W        W 5717   5.759  18.119  14.361
37324W        W 5718  38.461  22.312   0.516
37325W        W 5719  43.375  26.991   3.268
37326W        W 5720  22.992  33.893  11.621
37327W        W 5721  36.106  12.522   3.653
37328W        W 5722   6.647  32.397   0.203
37329W        W 5723  28.007  10.717   3.891
37330W        W 5724  16.712  35.857  14.733
37331W        W 5725  14.597  28.496  12.486
37332W        W 5726  11.351  42.031  12.462
37333W        W 5727  16.089  44.842   1.782
37334W        W 5728  20.001  37.323   0.900
37335W        W 5729  19.595   0.399  14.894
37336W        W 5730  18.877  16.175   4.195
37337W        W 5731  12.084  12.504   4.170
37338W        W 5732  28.410  36.268   1.295
37339W        W 5733  34.925  10.379   4.630
37340W        W 5734  19.553  17.760   3.184
37341W        W 5735  12.687  38.316  12.217
37342W        W 5736   4.526  21.392   4.499
37343W        W 5737   9.106   5.814  13.337
37344W        W 5738  43.529   8.354   3.752
37345W        W 5739  21.116  35.376  12.938
37346W        W 5740  22.327   8.409   4.377
37347W        W 5741   4.682  23.255  12.888
37348W        W 5742  11.225  15.512   1.222
37349W        W 5743   9.214   1.650  12.455
37350W        W 5744   5.460  44.777   4.683
37351W        W 5745  32.714   4.780  10.800
37352W        W 5746  23.322  28.065  13.567
37353W        W 5747  42.727  21.642   3.468
37354W        W 5748  25.254   9.838   1.694
37355W        W 5749   5.307  17.261  13.323
37356W        W 5750  31.450  10.258   1.218
37357W        W 5751   2.207  33.075   4.645
37358W        W 5752  22.709  13.202  13.035
37359W        W 5753  17.303  44.974  12.199
37360W        W 5754   6.730  26.521  13.270
37361W        W 5755  21.274  41.446   3.301
37362W        W 5756  27.396   8.737   4.121
37363W        W 5757   5.491   8.249  14.795
37364W        W 5758  21.751   2.359   2.375
37365W        W 5759  43.029  17.616  13.505
37366W        W 5760  21.501  16.138   2.627
37367W        W 5761  33.819   8.244  12.400
37368W        W 5762  27.917   8.375  13.721
37369W        W 5763  35.858   2.618   2.344
37370W        W 5764  44.429  35.685  11.433
37371W        W 5765  16.725  12.625  12.660
37372W        W 5766  36.548  13.856   3.649
37373W        W 5767  40.190  29.649   0.836
37374W        W 5768   8.754  37.883   4.083
37375W        W 5769  23.531   7.251  10.614
37376W        W 5770  37.019   4.854  10.622
37377W        W 5771  44.621  29.618  11.893
37378W        W 5772   5.957  22.743   4.169
37379W        W 5773  20.005  30.026  12.596
37380W        W 5774   4.780  32.096  13.091
37381W        W 5775   0.430  30.220  11.088
37382W        W 5776  16.301  44.298   5.012
37383W        W 5777   6.236  12.946   0.023
37384W        W 5778  17.990  36.047  14.687
37385W        W 5779  36.828   4.325  14.514
37386W        W 5780  16.859  28.623  14.913
37387W        W 5781  20.030  41.893  11.096
37388W        W 5782  21.679  42.195   2.184
37389W        W 5783  41.822  11.620   3.840
37390W        W 5784  27.977  44.416   1.146
37391W        W 5785  34.456  15.318   3.895
37392W        W 5786  18.506  29.726   4.162
37393W        W 5787  24.551  33.631  11.118
37394W        W 5788  18.587  26.444  14.598
37395W        W 5789  11.585  29.478   1.356
37396W        W 5790  18.096  11.920  13.422
37397W        W 5791   9.026  39.026   1.006
37398W        W 5792  20.747  34.021  11.130
37399W        W 5793  36.550  24.088  12.114
37400W        W 5794  31.527  36.551   4.700
37401W        W 5795   1.209   7.754  12.916
37402W        W 5796  25.399  28.558   2.703
37403W        W 5797  38.430  35.784  13.504
37404W        W 5798  22.532   1.307   2.247
37405W        W 5799   6.967  29.081   1.314
37406W        W 5800  20.539  42.051  11.484
37407W        W 5801  19.356  26.806  13.832
37408W        W 5802  18.081  11.157   3.315
37409W        W 5803   8.950  41.549   4.634
37410W        W 5804  31.180  37.702  13.720
37411W        W 5805   5.200  44.300   2.627
37412W        W 5806  19.613  22.581   5.006
37413W        W 5807  11.707  35.596  10.681
37414W        W 5808  29.952  16.366   1.767
37415W        W 5809  17.000  27.418   4.275
37416W        W 5810  35.376  20.477   2.965
37417W        W 5811  24.302  31.119   4.101
37418W        W 5812  38.268  21.084   0.707
37419W        W 5813  44.262  41.630   5.201
37420W        W 5814  24.685  25.584   1.732
37421W        W 5815  22.656   7.636  13.142
37422W        W 5816  14.699  41.487  12.846
37423W        W 5817  42.700  44.573  14.284
37424W        W 5818  15.193  34.351   1.137
37425W        W 5819  28.128  10.862   4.363
37426W        W 5820  24.528  29.711   3.702
37427W        W 5821  33.588   7.289   1.543
37428W        W 5822   6.513  37.044   3.676
37429W        W 5823  33.123   3.403  14.526
37430W        W 5824  14.783  36.044   4.562
37431W        W 5825  30.407  20.936  12.474
37432W        W 5826   1.266  32.582  14.091
37433W        W 5827  29.429  38.809   4.230
37434W        W 5828   3.451  20.853  14.529
37435W        W 5829  30.849  24.259  13.997
37436W        W 5830   3.833  17.630   4.111
37437W        W 5831  24.344  42.289  13.923
37438W        W 5832  15.462  40.893  14.442
37439W        W 5833  11.927   2.014   3.340
37440W        W 5834  15.329   0.374   0.953
37441W        W 5835  19.953  38.394  14.169
37442W        W 5836  40.744  32.782   3.105
37443W        W 5837  18.375   8.960  11.002
37444W        W 5838  35.656  17.535   0.490
37445W        W 5839  15.802   4.204  14.218
37446W        W 5840  25.662   7.402   0.895
37447W        W 5841  10.678  39.223   2.250
37448W        W 5842   8.474  44.160  12.563
37449W        W 5843  17.006  25.711   2.926
37450W        W 5844  11.701  19.601  11.675
37451W        W 5845   0.970  34.069   4.595
37452W        W 5846  23.670   6.355   4.300
37453W        W 5847  21.190  25.044  12.435
37454W        W 5848  21.357  25.932  12.401
37455W        W 5849   1.205  41.333  12.006
37456W        W 5850  20.212  18.801   1.841
37457W        W 5851  41.589  34.869   2.070
37458W        W 5852   2.198  34.985  12.989
37459W        W 5853  40.873  28.631  13.313
37460W        W 5854  44.919  33.148   0.416
37461W        W 5855  40.547  39.064  13.467
37462W        W 5856  34.806  26.014  13.522
37463W        W 5857   2.286  13.443  13.449
37464W        W 5858  34.074  11.159   3.799
37465W        W 5859  17.832  44.185  13.882
37466W        W 5860  42.971  16.683   2.168
37467W        W 5861  24.657  44.472   3.615
37468W        W 5862  17.117  15.477  10.237
37469W        W 5863  14.320  37.758  14.290
37470W        W 5864   1.419  35.388  11.180
37471W        W 5865   7.859  13.636   3.732
37472W        W 5866  26.009  10.812  12.355
37473W        W 5867  19.819  11.216  11.108
37474W        W 5868  12.855  17.166  14.475
37475W        W 5869  34.823  14.986   0.988
37476W        W 5870  18.000  17.086   2.749
37477W        W 5871  42.243   3.417   4.754
37478W        W 5872  18.383  10.884  11.222
37479W        W 5873  25.228   5.144  14.077
37480W        W 5874  24.088  30.228   4.359
37481W        W 5875  34.164  33.996   1.527
37482W        W 5876  41.819  15.352   0.956
37483W        W 5877  22.899   3.379  13.711
37484W        W 5878  39.801  34.862   4.277
37485W        W 5879   9.700  39.547  13.405
37486W        W 5880  39.839  17.607   3.075
37487W        W 5881  12.755   4.047   2.814
37488W        W 5882  21.668   4.336   0.941
37489W        W 5883  39.301   8.297  13.804
37490W        W 5884  30.161  33.687   4.136
37491W        W 5885   0.534  25.493  13.382
37492W        W 5886   6.506   7.475  10.533
37493W        W 5887  33.676  35.313  12.885
37494W        W 5888  42.016   1.107  13.038
37495W        W 5889  18.257  41.860   4.615
37496W        W 5890   0.859  19.078  10.782
37497W        W 5891  27.401  24.348  12.951
37498W        W 5892  27.743  15.216  13.511
37499W        W 5893  39.914  10.372  12.932
37500W        W 5894   3.765   5.892  11.888
37501W        W 5895   4.929  29.664   2.315
37502W        W 5896  37.770  12.446   4.594
37503W        W 5897  39.511  43.255   1.925
37504W        W 5898   8.674  37.010   3.187
37505W        W 5899  22.454   7.181  14.031
37506W        W 5900  31.757   3.249  14.776
37507W        W 5901  44.398   6.907  10.712
37508W        W 5902   7.131  41.926  14.473
37509W        W 5903   4.337   2.777  12.473
37510W        W 5904  12.906  26.193   0.233
37511W        W 5905  38.707  35.878   2.061
37512W        W 5906  40.801  12.910   3.711
37513W        W 5907   4.195   0.318  12.831
37514W        W 5908  20.962  26.347  14.495
37515W        W 5909  43.584  37.785   2.615
37516W        W 5910  34.647  15.732   3.091
37517W        W 5911   5.772  22.630  12.686
37518W        W 5912  13.742  18.988   1.318
37519W        W 5913  22.322  42.889   1.880
37520W        W 5914  43.472  25.286   4.551
37521W        W 5915   8.908   6.284  12.044
37522W        W 5916  42.860  30.907   1.233
37523W        W 5917  14.341  11.227  13.559
37524W        W 5918   9.241  35.970   4.171
37525W        W 5919  13.201  30.320  10.223
37526W        W 5920  17.154  39.085   4.274
37527W        W 5921   6.814  32.861  13.081
37528W        W 5922  18.339  14.265   2.807
37529W        W 5923  21.749  44.511   1.166
37530W        W 5924  10.887  12.138   1.175
37531W        W 5925   9.631  17.650   1.958
37532W        W 5926  12.709  33.358   0.205
37533W        W 5927  36.576  40.354  14.915
37534W        W 5928  20.133  43.494   1.771
37535W        W 5929  24.272  21.593  10.764
37536W        W 5930  41.975  39.272   3.314
37537W        W 5931  11.359  12.167  12.103
37538W        W 5932  40.922   2.021   0.920
37539W        W 5933  25.645   7.337  13.348
37540W        W 5934  44.303  35.899   5.066
37541W        W 5935  20.777   9.610  13.898
37542W        W 5936  31.598  12.305   1.363
37543W        W 5937  24.329  14.470  13.900
37544W        W 5938   6.878  41.459   4.711
37545W        W 5939  20.770  26.592   4.414
37546W        W 5940  23.052  32.392   1.514
37547W        W 5941  28.900  29.159   2.172
37548W        W 5942   3.935  35.140  11.312
37549W        W 5943  12.195   0.998  14.244
37550W        W 5944  22.576  29.703  11.426
37551W        W 5945  30.825  42.430   0.940
37552W        W 5946  31.296   8.779   4.521
37553W        W 5947  33.391   1.030  10.643
37554W        W 5948  41.306   4.485  10.580
37555W        W 5949   0.798  37.814   1.791
37556W        W 5950  27.561  18.782  14.308
37557W        W 5951   6.898  29.015  14.474
37558W        W 5952   3.437  14.839  12.192
37559W        W 5953  37.906  10.943   3.085
37560W        W 5954   3.934  11.896   4.234
37561W        W 5955  39.392  14.819   2.839
37562W        W 5956   7.406  31.167  10.752
37563W        W 5957  30.611   8.176  10.765
37564W        W 5958  22.009   3.257  14.512
37565W        W 5959  41.274  38.366   0.894
37566W        W 5960  34.154   7.341  14.336
37567W        W 5961   2.936   2.760   1.650
37568W        W 5962   7.756  37.280   0.278
37569W        W 5963  39.937   1.970   3.983
37570W        W 5964  22.193  13.168  13.198
37571W        W 5965  10.291   7.237  12.142
37572W        W 5966   8.621   6.723  10.975
37573W        W 5967   6.148   2.521  11.598
37574W        W 5968  13.291   3.421   0.876
37575W        W 5969  41.018  30.518   3.176
37576W        W 5970   0.986  37.334   0.212
37577W        W 5971  38.872   2.739   0.789
37578W        W 5972  27.527  13.114   0.502
37579W        W 5973  14.591  11.859  14.252
37580W        W 5974  25.463   1.275  14.566
37581W        W 5975   6.056  18.034   4.602
37582W        W 5976  41.421  26.423  13.009
37583W        W 5977  16.377  12.990  10.773
37584W        W 5978  41.929  21.082  14.838
37585W        W 5979  17.315  21.194   2.284
37586W        W 5980  24.868  31.734   3.344
37587W        W 5981  32.048  44.570  12.515
37588W        W 5982   8.418   2.018   4.124
37589W        W 5983   3.856  12.665  12.912
37590W        W 5984  28.459  35.419   4.681
37591W        W 5985   1.789  34.583  12.108
37592W        W 5986   8.691   0.350   3.165
37593W        W 5987  33.537   1.190   4.507
37594W        W 5988   9.286  33.401   1.938
37595W        W 5989  42.830  24.734   0.239
37596W        W 5990  40.604  25.524  10.411
37597W        W 5991  41.850   6.376  14.384
37598W        W 5992   0.677  31.370   4.392
37599W        W 5993  26.800  15.738  12.752
37600W        W 5994  25.660  39.264   1.833
37601W        W 5995  21.268  21.958   2.385
37602W        W 5996   6.867   1.238   1.777
37603W        W 5997   4.729  30.294   4.227
37604W        W 5998  40.572  26.510   4.833
37605W        W 5999   5.782   7.709   3.198
37606W        W 6000   9.411  18.317  11.622
37607W        W 6001  43.950   3.490  10.885
37608W        W 6002  21.816   3.068   4.257
37609W        W 6003  25.878   6.675  14.386
37610W        W 6004  42.754  35.705   3.698
37611W        W 6005   7.678  38.085  11.375
37612W        W 6006  29.369  22.452   0.051
37613W        W 6007  42.596  38.378  14.054
37614W        W 6008  35.403  32.238  11.068
37615W        W 6009  29.214   0.456  13.042
37616W        W 6010  18.219  16.341   1.337
37617W        W 6011  27.374  15.745   2.904
37618W        W 6012  14.413   8.363  14.835
37619W        W 6013  24.250  40.950  11.801
37620W        W 6014  23.004  16.883   4.556
37621W        W 6015   3.916  31.558   0.272
37622W        W 6016  40.008  23.066   1.773
37623W        W 6017  44.212  10.633   4.228
37624W        W 6018  10.701  13.752   0.562
37625W        W 6019  33.711   8.310   1.646
37626W        W 6020  43.884   1.266   0.307
37627W        W 6021  23.164  41.582   4.152
37628W        W 6022  13.181  41.746  11.449
37629W        W 6023  36.607  13.583   3.192
37630W        W 6024   4.338  18.284   2.145
37631W        W 6025   3.000  27.113  10.114
37632W        W 6026   6.710   8.907  14.923
37633W        W 6027  12.043  14.652  13.957
37634W        W 6028   4.482  41.997   1.907
37635W        W 6029  11.141   6.823   3.075
37636W        W 6030   5.913  30.863   4.623
37637W        W 6031  38.787  22.563   0.957
37638W        W 6032  33.980  37.603   2.246
37639W        W 6033  30.412   8.785  12.960
37640W        W 6034  38.462  42.755   0.632
37641W        W 6035  42.808  41.204   4.037
37642W        W 6036  12.010   7.106   5.117
37643W        W 6037  12.586  25.505   3.342
37644W        W 6038  27.670  19.693   3.734
37645W        W 6039  21.170  40.825   4.186
37646W        W 6040   5.201  15.747  14.428
37647W        W 6041  41.278  23.253   3.308
37648W        W 6042  11.336  43.201   3.398
37649W        W 6043  11.418  30.574   2.088
37650W        W 6044  33.449   6.871  14.413
37651W        W 6045   6.694  12.230  13.379
37652W        W 6046   8.246   0.916   0.896
37653W        W 6047  13.877  32.563   3.331
37654W        W 6048   9.262   8.362   0.321
37655W        W 6049   5.584  19.256   3.345
37656W        W 6050   5.714  25.789  11.361
37657W        W 6051   5.955  39.240  13.341
37658W        W 6052  13.310   3.710   3.249
37659W        W 6053  21.595  40.144  11.342
37660W        W 6054  32.332  37.546   2.858
37661W        W 6055  19.557  16.492   0.496
37662W        W 6056  14.129  38.009  11.993
37663W        W 6057  38.659   3.855  13.813
37664W        W 6058  16.508  35.311  12.548
37665W        W 6059  21.865  24.177   2.434
37666W        W 6060  31.273   7.878   2.940
37667W        W 6061  14.205  41.051   2.824
37668W        W 6062  19.758  31.491  12.893
37669W        W 6063  22.622  12.195  10.720
37670W        W 6064  21.282  29.256  13.523
37671W        W 6065  25.494  13.821  10.455
37672W        W 6066  27.020  32.949  11.893
37673W        W 6067   6.767  17.373  12.122
37674W        W 6068  16.294   9.866   3.767
37675W        W 6069  13.281  33.328  11.244
37676W        W 6070  38.004   6.683  11.246
37677W        W 6071   7.952  25.443  12.589
37678W        W 6072   9.820   3.285   3.853
37679W        W 6073  19.279  20.720   5.093
37680W        W 6074  42.263  38.969   1.371
37681W        W 6075  30.871   9.186   2.520
37682W        W 6076  15.727  40.416  13.683
37683W        W 6077  36.990  32.932   4.851
37684W        W 6078   5.397  15.124  14.964
37685W        W 6079  39.588   0.311  14.785
37686W        W 6080  40.144  19.951  14.802
37687W        W 6081  23.048  22.424   0.646
37688W        W 6082  12.696  42.015  13.537
37689W        W 6083  43.307  20.299   3.222
37690W        W 6084  44.050  18.080   2.660
37691W        W 6085  27.060  13.910   0.468
37692W        W 6086  44.867  31.585  11.010
37693W        W 6087  42.338   3.765   4.223
37694W        W 6088  18.141  23.667   2.885
37695W        W 6089  30.895   7.776   3.321
37696W        W 6090  25.783   5.314  14.482
37697W        W 6091  15.991  18.233  14.952
37698W        W 6092   0.480  14.719   4.921
37699W        W 6093  27.852   7.440   1.943
37700W        W 6094  32.163  16.847  11.564
37701W        W 6095  30.236  27.469   3.683
37702W        W 6096  14.773   3.696   4.078
37703W        W 6097  27.006  27.305   2.353
37704W        W 6098  40.050  13.146   0.933
37705W        W 6099  16.856  34.858   4.121
37706W        W 6100   6.104  28.629  12.120
37707W        W 6101  13.236  17.005   3.139
37708W        W 6102   8.706  26.645  12.195
37709W        W 6103   7.865  44.576  12.236
37710W        W 6104  43.324  41.020  13.741
37711W        W 6105  18.698   8.607  10.777
37712W        W 6106  10.064  41.591  11.183
37713W        W 6107  34.742  41.689   4.993
37714W        W 6108  11.702  44.860  13.823
37715W        W 6109  25.966  44.899   3.408
37716W        W 6110   0.524  20.076  12.114
37717W        W 6111  44.833  11.609  13.516
37718W        W 6112  24.510  33.855   1.384
37719W        W 6113  43.005  38.395   3.277
37720W        W 6114  38.464  22.539   1.379
37721W        W 6115  40.444  40.356  11.872
37722W        W 6116  24.622   9.897  10.267
37723W        W 6117   4.708   1.353  12.018
37724W        W 6118   4.890   6.402  11.992
37725W        W 6119   8.697  42.339   1.173
37726W        W 6120  13.090  12.401  14.846
37727W        W 6121  18.644  16.096   1.482
37728W        W 6122  42.771  15.109   4.419
37729W        W 6123  12.697  10.719   1.956
37730W        W 6124  26.056  39.785   4.120
37731W        W 6125  33.007  44.471   2.840
37732W        W 6126  36.118  11.238  13.255
37733W        W 6127  41.238  11.165   0.272
37734W        W 6128  33.518   2.938   4.099
37735W        W 6129  27.598  25.397   1.151
37736W        W 6130   7.324  39.484   2.402
37737W        W 6131  14.373  16.743  13.427
37738W        W 6132  29.371   9.667  14.811
37739W        W 6133  44.472  43.440   1.281
37740W        W 6134  34.357  26.949  14.498
37741W        W 6135  18.799  36.469   4.220
37742W        W 6136  13.166  26.959   2.762
37743W        W 6137  36.611  25.626   1.420
37744W        W 6138  17.015  28.566   2.381
37745W        W 6139  19.742  41.220   3.327
37746W        W 6140  42.707  15.789  10.703
37747W        W 6141  44.378  11.676   3.269
37748W        W 6142  34.587  28.690   0.642
37749W        W 6143  20.592  40.116  13.294
37750W        W 6144  10.287  26.744  11.753
37751W        W 6145  39.934   1.418   2.677
37752W        W 6146  30.952  19.770  12.877
37753W        W 6147  32.608  18.015  13.382
37754W        W 6148   2.242  26.093  13.307
37755W        W 6149  17.329  39.256  11.826
37756W        W 6150  20.280  28.768  11.630
37757W        W 6151   5.038  25.603  10.823
37758W        W 6152  17.533  33.576  11.162
37759W        W 6153  30.110  18.016  11.452
37760W        W 6154  10.646   5.391   4.388
37761W        W 6155  43.783  39.299  14.012
37762W        W 6156   2.509  40.969  10.533
37763W        W 6157  44.773  40.976  11.142
37764W        W 6158   0.930  25.469   2.787
37765W        W 6159  11.538  38.545  12.704
37766W        W 6160  24.974  22.164   0.057
37767W        W 6161   9.554  41.109  14.905
37768W        W 6162  16.674  20.727  12.850
37769W        W 6163   9.823   2.720  10.469
37770W        W 6164  33.060  23.571   0.223
37771W        W 6165   6.391  33.894   4.262
37772W        W 6166  26.557   9.907   2.437
37773W        W 6167  40.910  34.440   2.314
37774W        W 6168  30.637  26.630  12.643
37775W        W 6169  44.499  20.757   0.794
37776W        W 6170  28.634  26.309   1.365
37777W        W 6171   6.710  15.240  14.408
37778W        W 6172  41.351  42.592   2.263
37779W        W 6173  29.204  26.155  10.693
37780W        W 6174  11.074  15.324   3.367
37781W        W 6175  40.898   3.734  12.467
37782W        W 6176  26.503   0.861   0.097
37783W        W 6177   4.887  12.205   1.214
37784W        W 6178  17.750   9.223  13.061
37785W        W 6179  11.231  17.141   3.405
37786W        W 6180  40.314  32.325  14.029
37787W        W 6181  36.051  22.042   3.318
37788W        W 6182  33.029  40.487  12.123
37789W        W 6183  11.378  38.954   0.924
37790W        W 6184  25.714   9.209   1.141
37791W        W 6185  15.088   1.941   2.329
37792W        W 6186  18.032  42.724   1.442
37793W        W 6187  16.271   4.226  14.508
37794W        W 6188  27.595   6.943  12.327
37795W        W 6189  17.007   6.617  12.887
37796W        W 6190   0.800  43.064  13.400
37797W        W 6191  43.523  18.204   4.326
37798W        W 6192  33.963  25.754  12.518
37799W        W 6193  20.084  44.276  11.682
37800W        W 6194  10.916  16.749  13.550
37801W        W 6195  30.922   2.977  10.939
37802W        W 6196  10.409   6.239  14.303
37803W        W 6197  38.601  38.988  12.542
37804W        W 6198  22.023   6.347  12.466
37805W        W 6199  14.278  41.501  14.527
37806W        W 6200  15.682  11.320   1.037
37807W        W 6201  33.049  32.505   3.800
37808W        W 6202  44.853  21.604   1.122
37809W        W 6203  41.817   8.655  10.297
37810W        W 6204  17.465  31.949   4.050
37811W        W 6205  16.264  13.704  12.964
37812W        W 6206  21.261   2.217   2.320
37813W        W 6207  19.108   7.297   3.170
37814W        W 6208  10.263  37.094   3.146
37815W        W 6209  32.041   3.491  14.422
37816W        W 6210  37.706  33.926   1.719
37817W        W 6211   8.242  30.968   3.466
37818W        W 6212  26.000   0.195   0.845
37819W        W 6213  33.834  39.941   5.100
37820W        W 6214  19.308  31.541  14.828
37821W        W 6215  34.001  19.283   2.407
37822W        W 6216  14.688  29.003  12.996
37823W        W 6217  19.099  16.802  12.624
37824W        W 6218  39.840  14.879  12.756
37825W        W 6219  14.942   8.219   4.911
37826W        W 6220   4.225  37.605   1.307
37827W        W 6221  26.551  27.951   3.756
37828W        W 6222  12.072  31.482   0.714
37829W        W 6223  30.003  37.086  12.076
37830W        W 6224  31.405  43.283  11.071
37831W        W 6225  17.139  20.015   1.965
37832W        W 6226  17.123  29.637   3.841
37833W        W 6227  12.529  36.278  13.003
37834W        W 6228  19.308  10.669   3.081
37835W        W 6229  16.592  18.745   0.906
37836W        W 6230  15.336  37.984   4.542
37837W        W 6231  26.668  33.900  14.918
37838W        W 6232   3.035   2.867   4.896
37839W        W 6233  41.337  13.290   4.044
37840W        W 6234  44.281  11.571   2.476
37841W        W 6235   5.405  43.807  12.523
37842W        W 6236  24.299   1.269   1.654
37843W        W 6237  16.729  30.226  12.545
37844W        W 6238  30.441   7.383  14.533
37845W        W 6239   8.437  12.091   0.995
37846W        W 6240  41.065  28.587   1.627
37847W        W 6241  29.591  42.015   2.313
37848W        W 6242  18.512  24.691  12.973
37849W        W 6243  18.822  25.351  11.672
37850W        W 6244  43.442   0.973  12.026
37851W        W 6245   7.321   3.316   0.972
37852W        W 6246  26.120  44.024  14.731
37853W        W 6247   8.838   7.021  14.442
37854W        W 6248  44.584  10.336   4.019
37855W        W 6249  18.113   2.689  14.219
37856W        W 6250  23.659  19.288  11.525
37857W        W 6251   5.449  19.684  12.425
37858W        W 6252  14.711   5.758  11.947
37859W        W 6253  17.572   9.922   4.370
37860W        W 6254   8.697  36.830   1.214
37861W        W 6255  20.973  37.551   4.053
37862W        W 6256  26.112  10.049  10.320
37863W        W 6257  28.612  22.863  12.834
37864W        W 6258  21.653  24.165   0.806
37865W        W 6259  42.717   8.408   1.919
37866W        W 6260  17.982  11.252  14.913
37867W        W 6261   2.654  36.986  10.729
37868W        W 6262   1.867  37.658   0.732
37869W        W 6263  37.584   9.728  12.376
37870W        W 6264  10.547  44.049  12.999
37871W        W 6265  17.077  33.366   1.150
37872W        W 6266  40.657  14.186   3.052
37873W        W 6267  21.159   9.470  12.740
37874W        W 6268  28.498  32.099  10.785
37875W        W 6269   6.385  14.866   4.479
37876W        W 6270  14.367  42.853  12.719
37877W        W 6271  30.648  15.518  13.484
37878W        W 6272   2.913  13.814  14.000
37879W        W 6273   8.751  44.981   2.349
37880W        W 6274   9.412   3.678   2.354
37881W        W 6275  41.816  26.663  10.781
37882W        W 6276  44.419  37.909   0.660
37883W        W 6277  34.538  40.984   1.026
37884W        W 6278  32.429  30.179   2.764
37885W        W 6279  34.630  18.107   4.840
37886W        W 6280  24.583  29.274   3.065
37887W        W 6281  27.861  20.091  11.468
37888W        W 6282  37.499  25.168   2.827
37889W        W 6283  22.615  18.124  12.969
37890W        W 6284  27.060   3.897  12.339
37891W        W 6285  32.973  33.084   0.502
37892W        W 6286  38.902  32.582  13.981
37893W        W 6287  30.433   1.557   0.436
37894W        W 6288  14.904  42.971   0.169
37895W        W 6289  20.493  31.407   4.133
37896W        W 6290  43.435   0.848   0.199
37897W        W 6291  19.998  36.215   3.173
37898W        W 6292   0.989  26.998   3.981
37899W        W 6293  14.304  32.353   3.535
37900W        W 6294  37.834  14.310  10.485
37901W        W 6295  36.541  22.940  11.554
37902W        W 6296  26.420   3.860   2.352
37903W        W 6297  26.501  24.973  12.099
37904W        W 6298  31.335  44.218  14.205
37905W        W 6299  33.497  32.957  14.398
37906W        W 6300  37.297   8.432   1.784
37907W        W 6301   5.197  35.860  11.920
37908W        W 6302  29.563  17.233  12.367
37909W        W 6303  34.020  15.679  13.874
37910W        W 6304  35.494  18.683   2.320
37911W        W 6305  38.545  39.929  10.784
37912W        W 6306  29.746  26.502  11.552
37913W        W 6307  15.331  15.611   2.335
37914W        W 6308   1.407  24.131   3.389
37915W        W 6309  31.280  10.340   3.693
37916W        W 6310  23.241  11.772  14.834
37917W        W 6311  11.460   2.885  11.152
37918W        W 6312  37.023  15.173   0.283
37919W        W 6313  24.672  24.102  12.985
37920W        W 6314  27.979  21.171   2.953
37921W        W 6315  27.293  28.550  11.131
37922W        W 6316  22.666  39.534   1.325
37923W        W 6317   7.944   0.264  13.644
37924W        W 6318  10.008  34.656  12.302
37925W        W 6319  37.760   4.712   4.734
37926W        W 6320  32.853  29.518   3.613
37927W        W 6321  31.898  14.083   1.370
37928W        W 6322  10.650  16.084   2.850
37929W        W 6323  21.573  23.468  12.817
37930W        W 6324   9.432   1.773  10.145
37931W        W 6325  44.005  14.557   0.884
37932W        W 6326   7.827  13.690  13.740
37933W        W 6327  41.873  44.763  13.154
37934W        W 6328   0.735  29.461   3.266
37935W        W 6329  24.600  12.002   5.033
37936W        W 6330  21.783  10.807   4.070
37937W        W 6331   3.926  33.161   0.490
37938W        W 6332  12.657  16.069   2.739
37939W        W 6333   2.776  11.754  14.758
37940W        W 6334  25.429  36.578  13.397
37941W        W 6335  33.539   2.112   4.686
37942W        W 6336  43.050  23.723   2.828
37943W        W 6337  19.440  12.774   4.652
37944W        W 6338  25.993  20.549  14.437
37945W        W 6339  21.781   4.342  10.896
37946W        W 6340  37.563   8.440   1.333
37947W        W 6341  31.150  43.587   0.355
37948W        W 6342  39.829  15.016  14.005
37949W        W 6343  43.351   1.291  12.437
37950W        W 6344   0.026  44.718   4.779
37951W        W 6345   1.778  41.642  10.720
37952W        W 6346  19.638  29.975   5.131
37953W        W 6347  39.785  17.569   4.098
37954W        W 6348  37.914  16.690   3.656
37955W        W 6349  11.857  26.026   4.199
37956W        W 6350  27.745  11.846  12.870
37957W        W 6351  44.302  44.883   1.819
37958W        W 6352  26.446  34.483   1.819
37959W        W 6353  33.552   5.656  13.399
37960W        W 6354  18.493  27.412  14.718
37961W        W 6355   4.958   9.556   0.216
37962W        W 6356   2.545   2.225  14.971
37963W        W 6357  15.171   1.538  10.820
37964W        W 6358  15.287  19.237   3.791
37965W        W 6359  11.121   1.470  13.610
37966W        W 6360  42.882  40.875  12.315
37967W        W 6361   1.136  36.929  11.636
37968W        W 6362  44.956  20.501   4.922
37969W        W 6363   7.264  43.560   1.214
37970W        W 6364  14.816  33.044   1.469
37971W        W 6365  32.576   6.660   3.628
37972W        W 6366   3.812   3.077  10.500
37973W        W 6367  27.966  42.002  12.840
37974W        W 6368  14.366  25.235   1.782
37975W        W 6369  18.481  20.311   1.417
37976W        W 6370  16.838  25.196   4.621
37977W        W 6371  26.416  40.360   1.760
37978W        W 6372  25.211   9.736   2.215
37979W        W 6373  31.982  36.540   0.903
37980W        W 6374  25.751  26.964  14.807
37981W        W 6375  13.408  30.550   3.375
37982W        W 6376  19.634  29.194  12.108
37983W        W 6377  18.181  35.214  13.354
37984W        W 6378  27.643  18.913   2.605
37985W        W 6379  36.566  10.589   4.810
37986W        W 6380  30.180  41.527  10.732
37987W        W 6381  30.414  16.183   4.399
37988W        W 6382  40.804  38.031  13.890
37989W        W 6383  26.371  18.147  13.434
37990W        W 6384  44.571   7.667   4.544
37991W        W 6385  13.256  31.622   0.295
37992W        W 6386  22.479   0.821   3.405
37993W        W 6387  15.706  23.111   4.553
37994W        W 6388  29.496  22.119  12.325
37995W        W 6389  21.316  32.003  10.259
37996W        W 6390  16.852  14.793  14.234
37997W        W 6391   8.580  25.678  12.121
37998W        W 6392   6.217  25.667   2.609
37999W        W 6393  20.745  27.538  11.461
38000W        W 6394   0.826  10.677  10.557
38001W        W 6395  25.733  29.419  14.856
38002W        W 6396  15.519  35.623   4.440
38003W        W 6397   2.460   2.907  14.251
38004W        W 6398  30.029  30.083  12.093
38005W        W 6399   8.036   0.276  13.145
38006W        W 6400  21.586   7.620  10.730
38007W        W 6401  11.156  30.102  11.438
38008W        W 6402  22.700  41.588  11.221
38009W        W 6403  40.493  28.460  12.046
38010W        W 6404   4.925  33.676  13.875
38011W        W 6405  23.609  39.937  11.221
38012W        W 6406  19.659  21.202  11.616
38013W        W 6407   8.376   4.782   1.094
38014W        W 6408   0.231  33.952   3.091
38015W        W 6409  29.255  41.946  10.721
38016W        W 6410  16.789   5.211  12.606
38017W        W 6411   5.782   0.192   3.401
38018W        W 6412   7.902  18.131   1.875
38019W        W 6413  23.523  12.610   2.389
38020W        W 6414  30.944  23.037   1.354
38021W        W 6415  35.153  10.235   1.943
38022W        W 6416  13.735  34.282  14.879
38023W        W 6417  21.176  15.855  11.572
38024W        W 6418   0.903  13.802   3.139
38025W        W 6419  19.899  31.060   3.287
38026W        W 6420  13.204  19.764  13.584
38027W        W 6421  39.349  34.387   0.317
38028W        W 6422   5.070  26.007  14.555
38029W        W 6423   2.963  32.034   2.741
38030W        W 6424  18.568  34.410   3.876
38031W        W 6425  28.490  23.990  12.071
38032W        W 6426  28.042   0.434  14.798
38033W        W 6427  27.647   3.009  11.919
38034W        W 6428  26.176  27.605  11.134
38035W        W 6429  25.834   1.300  14.936
38036W        W 6430  33.526   0.240  14.835
38037W        W 6431  27.973   0.792  13.459
38038W        W 6432  32.703   5.868  13.243
38039W        W 6433  42.384   0.966  14.798
38040W        W 6434  10.711  20.775  13.630
38041W        W 6435  25.142  43.766   0.769
38042W        W 6436  24.446  28.038  10.704
38043W        W 6437  13.087  35.144  11.440
38044W        W 6438  38.611  11.204   3.601
38045W        W 6439  36.316  33.881   2.938
38046W        W 6440  12.662  25.522  12.979
38047W        W 6441  28.028   5.205  10.789
38048W        W 6442  35.563  36.068  11.306
38049W        W 6443  29.987  19.390   4.563
38050W        W 6444   6.267   1.907  10.273
38051W        W 6445  23.243   3.635   4.519
38052W        W 6446  37.849  15.101   1.803
38053W        W 6447  23.598   0.263  11.934
38054W        W 6448  31.989  27.325   2.267
38055W        W 6449  40.934   2.719  12.655
38056W        W 6450   3.764  19.558   2.714
38057W        W 6451  10.368  18.365  11.485
38058W        W 6452   9.189   4.683  10.578
38059W        W 6453  19.724  12.845   4.218
38060W        W 6454  39.923   1.806   0.933
38061W        W 6455  28.097  44.841  11.948
38062W        W 6456  29.957  13.778  13.808
38063W        W 6457   6.784  42.266   4.284
38064W        W 6458  41.422   0.608   0.824
38065W        W 6459   8.319  27.007   1.969
38066W        W 6460  31.102  38.012  11.544
38067W        W 6461   5.322  15.723   2.193
38068W        W 6462  27.176  25.029  10.750
38069W        W 6463  25.719   6.880   0.775
38070W        W 6464   3.443  32.375  13.923
38071W        W 6465   7.652  19.064  12.466
38072W        W 6466  28.589  16.402  12.194
38073W        W 6467  11.828  28.904   3.188
38074W        W 6468   8.410  21.507   4.083
38075W        W 6469  29.906  22.482   3.604
38076W        W 6470  20.586   4.372   2.273
38077W        W 6471   4.612  12.680   4.200
38078W        W 6472  11.293   0.960  13.595
38079W        W 6473  42.992  11.132  12.150
38080W        W 6474  22.566  13.247  11.920
38081W        W 6475  16.289   7.662  10.885
38082W        W 6476  32.064  30.987  10.597
38083W        W 6477  16.771  23.442   2.180
38084W        W 6478  24.735  22.560   3.696
38085W        W 6479  17.551  24.472  13.026
38086W        W 6480  30.914  22.968   4.602
38087W        W 6481   2.693   7.263   1.286
38088W        W 6482  15.603   4.253   0.780
38089W        W 6483   7.898   0.711   3.785
38090W        W 6484  12.949  35.489  13.498
38091W        W 6485  31.320  30.999  13.005
38092W        W 6486  19.050  24.511   5.167
38093W        W 6487  19.732  19.735  10.451
38094W        W 6488  39.878  11.879   0.320
38095W        W 6489   0.310   4.472  13.765
38096W        W 6490   6.447  34.504  11.918
38097W        W 6491   7.809   6.738   9.407
38098W        W 6492  38.479  33.203  11.023
38099W        W 6493  29.950  22.440   2.196
38100W        W 6494  33.783   7.911  13.087
38101W        W 6495  21.100  29.892   1.274
38102W        W 6496  17.936  13.558  11.983
38103W        W 6497  42.673  29.675  11.036
38104W        W 6498  33.436   0.716   4.270
38105W        W 6499  22.563   4.621   4.591
38106W        W 6500  29.171   4.889   1.732
38107W        W 6501  37.515  27.072  12.968
38108W        W 6502   3.890  16.325   3.852
38109W        W 6503  36.565  32.349  10.626
38110W        W 6504  10.463  13.204   3.741
38111W        W 6505  16.646  38.177  11.889
38112W        W 6506  18.583  35.576   4.624
38113W        W 6507  28.682  39.584   3.580
38114W        W 6508  19.112  27.437   2.210
38115W        W 6509  13.836   2.391  12.247
38116W        W 6510  26.904  19.541  10.605
38117W        W 6511   2.875  33.154  11.276
38118W        W 6512   0.861  44.747  14.393
38119W        W 6513   8.668  17.269   1.304
38120W        W 6514   2.008  11.117   3.802
38121W        W 6515  36.413  44.331   0.509
38122W        W 6516   5.759  38.603   1.729
38123W        W 6517  34.659  35.140   1.292
38124W        W 6518  39.037  27.480  11.003
38125W        W 6519   1.282  31.158   1.435
38126W        W 6520  30.868  12.403  14.877
38127W        W 6521  32.902  17.569  13.002
38128W        W 6522  31.410   5.696   0.698
38129W        W 6523  29.720   4.813  10.799
38130W        W 6524   0.096  19.621   0.853
38131W        W 6525  21.222  32.728  12.542
38132W        W 6526  37.900  12.414   3.221
38133W        W 6527  38.037  41.107  13.022
38134W        W 6528  23.112  38.116   3.011
38135W        W 6529   7.594  18.723   4.857
38136W        W 6530  19.249  17.769   2.736
38137W        W 6531  12.922   7.201  12.945
38138W        W 6532  28.429   8.801  11.065
38139W        W 6533  11.247  42.428   3.738
38140W        W 6534   1.827  43.614   2.207
38141W        W 6535  10.525  42.100   4.556
38142W        W 6536   3.856   9.703  11.004
38143W        W 6537  39.775  41.803  10.795
38144W        W 6538  40.843  34.646  14.438
38145W        W 6539   5.723  13.101   3.238
38146W        W 6540  20.800  25.047  14.066
38147W        W 6541   4.840  31.831  12.666
38148W        W 6542  12.331   3.281  12.160
38149W        W 6543   3.171  42.953  13.040
38150W        W 6544  42.618  39.582  12.946
38151W        W 6545  21.282  40.013   0.458
38152W        W 6546  35.543  22.006  13.030
38153W        W 6547  19.481   5.241   3.868
38154W        W 6548  39.754  40.073   2.203
38155W        W 6549  42.997  44.932  14.906
38156W        W 6550  24.536   6.405   3.263
38157W        W 6551   8.317  35.050  12.693
38158W        W 6552  19.611  39.489  12.080
38159W        W 6553   8.430  22.247   2.941
38160W        W 6554  37.802  15.336   2.725
38161W        W 6555  35.032  20.108   1.191
38162W        W 6556  27.336  29.080  10.999
38163W        W 6557  36.474  30.949  14.284
38164W        W 6558  43.026   3.514  14.834
38165W        W 6559  31.392  36.069  11.814
38166W        W 6560  35.835  16.004   1.142
38167W        W 6561  23.302  30.511  13.280
38168W        W 6562  34.095  40.877   3.085
38169W        W 6563  33.435  35.023  14.140
38170W        W 6564  29.419  41.012  12.303
38171W        W 6565  24.508  29.493  12.527
38172W        W 6566  29.032  43.428  13.225
38173W        W 6567  27.390  34.313  10.970
38174W        W 6568  42.028  37.107  14.419
38175W        W 6569  43.348   4.235   1.426
38176W        W 6570  17.086  26.966   5.454
38177W        W 6571  33.663   9.952  11.542
38178W        W 6572  43.029  44.909   3.412
38179W        W 6573   2.926  38.856  11.087
38180W        W 6574  14.330   6.851   2.342
38181W        W 6575   0.822  13.520  11.158
38182W        W 6576  16.568  33.446   1.196
38183W        W 6577  33.843  38.464  13.843
38184W        W 6578  22.819  15.627  13.494
38185W        W 6579  35.399   6.716  14.362
38186W        W 6580  26.625   0.289  13.869
38187W        W 6581  43.512  24.003   1.571
38188W        W 6582  28.120  32.682   2.432
38189W        W 6583  29.868  19.278  13.797
38190W        W 6584   9.536  38.830   0.323
38191W        W 6585  40.026   6.684  14.803
38192W        W 6586  40.569  21.324  10.758
38193W        W 6587  10.416   1.401   4.163
38194W        W 6588   1.534  10.259   4.286
38195W        W 6589  31.631  20.126   2.339
38196W        W 6590  41.298  44.768  14.873
38197W        W 6591   3.497  39.351  13.866
38198W        W 6592   0.355  28.010  14.004
38199W        W 6593  14.901  41.557  11.972
38200W        W 6594  20.045   1.847  13.553
38201W        W 6595  38.070  39.770   2.814
38202W        W 6596  11.618  21.320  11.624
38203W        W 6597  41.656  20.049   2.012
38204W        W 6598  37.361  12.274   1.266
38205W        W 6599  32.884   5.702   1.884
38206W        W 6600  20.668  36.744   2.385
38207W        W 6601  33.107  15.694  12.541
38208W        W 6602   1.712   3.125   2.578
38209W        W 6603   5.892  18.207  12.575
38210W        W 6604  36.569  23.331   0.015
38211W        W 6605   5.898  21.319  11.600
38212W        W 6606  30.672  24.928  10.483
38213W        W 6607   9.312   3.973  14.075
38214W        W 6608   0.463  21.226  14.568
38215W        W 6609  42.389  26.757  14.934
38216W        W 6610  26.533  15.123  13.845
38217W        W 6611  11.792  21.832   0.065
38218W        W 6612  41.704  23.492   4.096
38219W        W 6613  14.102  28.519  11.022
38220W        W 6614   5.839   4.841   2.936
38221W        W 6615  27.501  22.248   3.618
38222W        W 6616  26.952  37.175   0.945
38223W        W 6617  13.413  33.261  12.527
38224W        W 6618  42.264  41.955  13.856
38225W        W 6619  28.571  37.446   2.657
38226W        W 6620  37.081  36.950   0.858
38227W        W 6621  28.067  30.072   2.647
38228W        W 6622  40.827  21.189   2.107
38229W        W 6623  13.490  31.355  13.573
38230W        W 6624  19.716  29.631   0.138
38231W        W 6625   4.696  28.854   1.920
38232W        W 6626  40.987   8.990  11.208
38233W        W 6627  31.018  23.727   2.765
38234W        W 6628  24.103  38.534   1.954
38235W        W 6629  37.322  28.447  11.610
38236W        W 6630  27.687  19.118  12.439
38237W        W 6631  13.278   4.482  12.131
38238W        W 6632  23.209  12.322  13.864
38239W        W 6633  42.765   5.811   0.787
38240W        W 6634  30.431  24.254   0.540
38241W        W 6635  42.557  28.969  11.632
38242W        W 6636  31.175  39.295  10.918
38243W        W 6637   8.599  26.746  13.595
38244W        W 6638  15.404  11.181   0.260
38245W        W 6639  34.436  38.058   1.699
38246W        W 6640  33.624  19.557   0.771
38247W        W 6641  20.891  40.645  10.798
38248W        W 6642  27.484  26.011   4.842
38249W        W 6643   6.272  28.970  10.890
38250W        W 6644  34.053   3.471  14.787
38251W        W 6645  37.705  43.295  11.526
38252W        W 6646  16.816   3.707   1.845
38253W        W 6647  37.576  39.097   1.755
38254W        W 6648  20.114  44.561  12.951
38255W        W 6649  26.199  33.367   3.554
38256W        W 6650   4.912  17.820   1.429
38257W        W 6651   1.169  12.768   3.761
38258W        W 6652  33.353  29.880   0.293
38259W        W 6653  16.063  25.661   4.656
38260W        W 6654  30.680  34.987  14.333
38261W        W 6655  17.801  25.879   0.360
38262W        W 6656  38.476  41.856   1.268
38263W        W 6657  40.772  27.831  10.400
38264W        W 6658  18.791  19.705  14.741
38265W        W 6659   7.750  34.198  13.334
38266W        W 6660  23.313  43.903   3.896
38267W        W 6661   7.672  24.071  12.585
38268W        W 6662  30.608  14.830  12.068
38269W        W 6663  35.977  28.600   4.631
38270W        W 6664  24.454  39.137  13.155
38271W        W 6665   9.305  33.386   4.103
38272W        W 6666   0.441  28.532  12.637
38273W        W 6667   2.212   6.247  12.878
38274W        W 6668   7.712  11.134  14.930
38275W        W 6669  25.909  17.475  12.886
38276W        W 6670  15.812  19.640   4.566
38277W        W 6671  22.026  25.480  10.760
38278W        W 6672   7.269   3.386   0.026
38279W        W 6673   9.489  36.608  12.492
38280W        W 6674  14.706  15.597  11.159
38281W        W 6675  34.331  39.308   0.235
38282W        W 6676  13.402   2.059  14.431
38283W        W 6677  40.946  19.023  13.257
38284W        W 6678  15.852   1.928  14.666
38285W        W 6679  32.331   5.906  12.042
38286W        W 6680  31.869  44.568  10.577
38287W        W 6681  23.672  26.454  11.631
38288W        W 6682   5.963   5.969   2.327
38289W        W 6683  40.783  34.597   4.477
38290W        W 6684  27.017  17.155  10.703
38291W        W 6685  30.491  15.221   1.486
38292W        W 6686  15.796   1.951   3.251
38293W        W 6687   3.728   0.984   0.494
38294W        W 6688  34.693  12.277  14.466
38295W        W 6689   5.695  27.388   4.259
38296W        W 6690  42.998  12.064   0.272
38297W        W 6691  14.287  25.623  14.392
38298W        W 6692  22.267   0.579   1.980
38299W        W 6693  13.783  24.195  13.920
38300W        W 6694  40.959  33.860  13.883
38301W        W 6695  14.656  38.113   3.987
38302W        W 6696  35.752  26.715   0.766
38303W        W 6697   0.988   3.302   1.974
38304W        W 6698  11.701  41.584  13.043
38305W        W 6699  34.062  39.953   1.713
38306W        W 6700   9.503  31.291   3.324
38307W        W 6701  17.938  32.540   3.384
38308W        W 6702   0.442  40.818   3.703
38309W        W 6703  29.269  11.744   1.508
38310W        W 6704   5.714  41.731   3.688
38311W        W 6705  21.241  36.912  13.905
38312W        W 6706  21.689  24.978  14.523
38313W        W 6707  10.935  43.728  13.017
38314W        W 6708  36.295   0.291   2.299
38315W        W 6709  14.720  36.279   0.865
38316W        W 6710  25.181  16.744   1.061
38317W        W 6711  44.732  29.426   3.236
38318W        W 6712  25.077   1.743  11.995
38319W        W 6713  29.409  17.738   1.846
38320W        W 6714  19.119  32.106   1.181
38321W        W 6715  28.076  35.875  12.659
38322W        W 6716   2.327   3.547   1.910
38323W        W 6717  18.020  30.981  11.730
38324W        W 6718   4.774   6.984  14.515
38325W        W 6719  41.419  38.943   4.742
38326W        W 6720   9.924  34.002  13.336
38327W        W 6721  20.292  44.505   1.899
38328W        W 6722  35.634  14.348  11.712
38329W        W 6723  21.201  30.839   1.318
38330W        W 6724   0.032  20.660   3.579
38331W        W 6725  23.664  36.305  12.451
38332W        W 6726  25.779  14.085   0.254
38333W        W 6727  13.333  20.536  11.774
38334W        W 6728  24.061  17.204  10.763
38335W        W 6729  41.341  34.378   3.512
38336W        W 6730  17.117   8.755  10.815
38337W        W 6731  29.884  18.078   1.368
38338W        W 6732   9.765  23.348   4.597
38339W        W 6733  31.405  44.279   4.579
38340W        W 6734  43.527  10.474  12.627
38341W        W 6735  26.707  14.185  12.871
38342W        W 6736  35.449   6.122  12.151
38343W        W 6737  31.525  20.059  12.142
38344W        W 6738  38.412  31.531   2.285
38345W        W 6739  44.800  11.715   2.480
38346W        W 6740  24.337   3.320  10.710
38347W        W 6741  22.212   0.742  12.922
38348W        W 6742   6.895  27.952   2.477
38349W        W 6743   2.408   2.262  11.552
38350W        W 6744  19.130  33.379   0.805
38351W        W 6745  13.632  43.895   0.776
38352W        W 6746  30.133  39.483  11.658
38353W        W 6747  28.013  20.782  12.858
38354W        W 6748  37.048  22.300  12.813
38355W        W 6749   7.317  16.496   2.272
38356W        W 6750  30.639  23.434   4.573
38357W        W 6751   8.042  40.416  12.409
38358W        W 6752  22.568   8.452   1.646
38359W        W 6753  17.617  30.105  12.618
38360W        W 6754  43.717  30.462  11.134
38361W        W 6755  12.666   7.995   3.311
38362W        W 6756  38.489  37.747  14.229
38363W        W 6757  28.337  41.955   1.923
38364W        W 6758  33.838  32.593  11.819
38365W        W 6759  30.939  42.812   3.282
38366W        W 6760  17.607  16.261   3.591
38367W        W 6761  32.096  20.819  10.464
38368W        W 6762  17.676  43.466   4.671
38369W        W 6763   6.602  13.835   5.317
38370W        W 6764  10.769  38.734  13.141
38371W        W 6765  44.485  30.046  11.625
38372W        W 6766  38.285   5.548   4.193
38373W        W 6767   9.799  34.881  13.751
38374W        W 6768  10.445  32.169  11.665
38375W        W 6769  12.182  29.559   4.104
38376W        W 6770  22.938  42.113  12.487
38377W        W 6771  14.520   6.197   0.339
38378W        W 6772  37.062   4.632  12.063
38379W        W 6773  10.309  28.397   0.787
38380W        W 6774  41.402  35.015   0.032
38381W        W 6775  37.353  44.916   1.820
38382W        W 6776  19.168  22.216  14.984
38383W        W 6777   8.263  33.577   4.321
38384W        W 6778  26.273   1.915   4.505
38385W        W 6779   8.666  33.852   0.368
38386W        W 6780  33.910  34.071  12.276
38387W        W 6781   3.799   9.865   1.927
38388W        W 6782   9.820   7.886   1.745
38389W        W 6783  38.887  36.834   4.068
38390W        W 6784  18.332   1.328  11.702
38391W        W 6785  33.885  14.726  14.903
38392W        W 6786  44.189   3.129   2.956
38393W        W 6787  36.817  15.206   1.778
38394W        W 6788  33.174  34.437  11.123
38395W        W 6789  14.748  11.132   3.546
38396W        W 6790   1.397   6.927   0.375
38397W        W 6791  20.750  39.000   1.823
38398W        W 6792  10.147   2.410  10.205
38399W        W 6793  13.257   9.063   0.700
38400W        W 6794  11.186  24.015   3.299
38401W        W 6795  34.200  25.562  14.922
38402W        W 6796  43.217  17.343  11.106
38403W        W 6797  34.566  14.775  10.971
38404W        W 6798   2.488  26.622   0.712
38405W        W 6799  15.261   6.518  12.907
38406W        W 6800  40.866  44.443   2.740
38407W        W 6801  10.647  44.961   0.951
38408W        W 6802  14.744   3.893  10.641
38409W        W 6803  18.059  23.231  12.024
38410W        W 6804  37.804  31.686   0.564
38411W        W 6805  18.476   8.470  13.072
38412W        W 6806  28.410  30.481   2.667
38413W        W 6807  42.995   8.742  14.242
38414W        W 6808  34.140  17.665   2.753
38415W        W 6809  39.461  11.120  12.038
38416W        W 6810  29.363   2.813   0.262
38417W        W 6811  16.815  24.830  12.010
38418W        W 6812   7.136  36.511  12.100
38419W        W 6813  16.756  29.514  11.566
38420W        W 6814  43.538  20.562   3.632
38421W        W 6815  25.675  20.105  14.524
38422W        W 6816  22.002  43.958  13.436
38423W        W 6817  26.567   9.509   0.693
38424W        W 6818   1.828  23.466  13.489
38425W        W 6819  35.555   7.174  11.217
38426W        W 6820  44.925   0.802   2.873
38427W        W 6821  24.698  15.546  11.194
38428W        W 6822  12.713  14.619  14.551
38429W        W 6823   3.815  44.027  13.913
38430W        W 6824  19.732  12.334   4.322
38431W        W 6825  41.895  33.083   2.425
38432W        W 6826  16.990  12.429  13.394
38433W        W 6827   2.661  23.580  13.102
38434W        W 6828  14.739  40.831  11.082
38435W        W 6829  39.087  40.500  14.827
38436W        W 6830  22.629   7.348   0.757
38437W        W 6831  14.393  11.593  12.496
38438W        W 6832  42.857  21.042   0.552
38439W        W 6833  15.540  20.649  13.932
38440W        W 6834  24.966  39.485   0.074
38441W        W 6835  33.808   0.229   3.444
38442W        W 6836  28.536   9.386  13.780
38443W        W 6837   1.237   1.710  14.710
38444W        W 6838  18.295  29.197  12.006
38445W        W 6839  16.540  27.705  11.144
38446W        W 6840  13.700  18.329   3.224
38447W        W 6841   7.833   0.171   4.594
38448W        W 6842  36.457   0.275  14.990
38449W        W 6843  33.517  25.721   1.349
38450W        W 6844   3.038  25.722   0.130
38451W        W 6845  13.578  36.129   3.699
38452W        W 6846   8.447  32.180  14.856
38453W        W 6847  32.101  16.429  12.849
38454W        W 6848   5.924  37.727  11.003
38455W        W 6849   4.857  25.955   2.053
38456W        W 6850  14.375  33.858   0.538
38457W        W 6851   5.991   1.388   0.240
38458W        W 6852  17.732  13.746  13.970
38459W        W 6853  14.831  14.625   3.772
38460W        W 6854  33.356   4.322  11.137
38461W        W 6855   5.274   3.962  11.257
38462W        W 6856  37.067  11.918   2.922
38463W        W 6857  17.260  15.288   4.257
38464W        W 6858  19.739   0.277   2.834
38465W        W 6859  11.571   2.994   0.842
38466W        W 6860   3.266  17.973   3.235
38467W        W 6861  19.121  34.349  11.625
38468W        W 6862  29.545  11.248   0.986
38469W        W 6863  23.611  31.674   3.213
38470W        W 6864   8.012  17.028   2.741
38471W        W 6865  10.157  25.089  14.608
38472W        W 6866  42.254   5.810   0.748
38473W        W 6867  32.935  10.637  12.436
38474W        W 6868   0.903  28.706   4.775
38475W        W 6869  14.418  28.004   2.205
38476W        W 6870  44.909   1.003   4.830
38477W        W 6871  33.600  29.531   2.800
38478W        W 6872   2.156  40.067  12.395
38479W        W 6873  35.689  32.459   2.850
38480W        W 6874  41.500  29.689   1.285
38481W        W 6875   1.055   9.237  13.905
38482W        W 6876  44.269  35.747   1.401
38483W        W 6877  21.267  39.004   2.767
38484W        W 6878  15.067  42.454  13.009
38485W        W 6879   2.510  23.012  12.441
38486W        W 6880  11.206  39.963  11.388
38487W        W 6881  23.547   1.465  11.471
38488W        W 6882  35.454   8.326  13.835
38489W        W 6883  16.363   0.252   1.954
38490W        W 6884  26.524  34.768  10.320
38491W        W 6885  24.922  37.527   4.407
38492W        W 6886  13.688   8.429  10.938
38493W        W 6887   3.199  12.429  11.064
38494W        W 6888  26.610  19.779   3.838
38495W        W 6889  34.643   6.716   3.818
38496W        W 6890   7.510   7.258   1.815
38497W        W 6891  11.839  14.537   0.712
38498W        W 6892  30.477  36.098   3.212
38499W        W 6893  25.292   2.210  14.511
38500W        W 6894  11.546  11.846  10.493
38501W        W 6895  34.443  33.608  10.542
38502W        W 6896  43.649   1.403  10.559
38503W        W 6897  33.653   2.958   4.578
38504W        W 6898   5.748   6.742   2.657
38505W        W 6899  26.053   9.121   3.821
38506W        W 6900  30.605   2.547  12.186
38507W        W 6901  38.225  25.554  13.242
38508W        W 6902   3.559  12.173   1.369
38509W        W 6903  34.142  34.353   0.924
38510W        W 6904  25.473  33.830   0.705
38511W        W 6905   6.785  41.609  11.436
38512W        W 6906  27.097  30.982   3.583
38513W        W 6907  12.594   9.747  14.548
38514W        W 6908  34.911   6.716   0.606
38515W        W 6909  19.298  38.298   1.362
38516W        W 6910  32.567   2.346   2.857
38517W        W 6911   9.089  14.758   0.773
38518W        W 6912  28.172  24.935  10.606
38519W        W 6913  37.065  32.027   4.787
38520W        W 6914  42.457  36.702   2.340
38521W        W 6915   5.782  42.450  10.658
38522W        W 6916   8.745  16.184  13.087
38523W        W 6917  42.998   2.334   1.339
38524W        W 6918  41.761  34.008   0.981
38525W        W 6919  27.509  29.099  14.277
38526W        W 6920  19.625  29.665  13.520
38527W        W 6921  24.152  17.910   3.601
38528W        W 6922  10.123  17.203  14.535
38529W        W 6923   8.905   1.777  11.522
38530W        W 6924  18.135  16.244   9.848
38531W        W 6925  27.943  44.793  14.178
38532W        W 6926  21.849  10.873   1.830
38533W        W 6927  18.835  29.569  14.853
38534W        W 6928  10.217  21.825  12.456
38535W        W 6929  28.720   6.299  12.609
38536W        W 6930  21.785  18.306  12.308
38537W        W 6931  20.942  11.315   3.377
38538W        W 6932  29.523  24.397  10.754
38539W        W 6933  23.098  42.067  14.161
38540W        W 6934  17.374  42.891  13.605
38541W        W 6935  22.041  12.312   3.820
38542W        W 6936  33.472  39.534  12.018
38543W        W 6937  33.340  16.787   1.749
38544W        W 6938   6.729   6.245  11.127
38545W        W 6939  40.703  17.099  12.574
38546W        W 6940   6.436  26.822   1.477
38547W        W 6941  31.734  24.859   0.295
38548W        W 6942  12.760  40.832  13.463
38549W        W 6943  17.438   4.264   4.562
38550W        W 6944  36.363  36.439   3.701
38551W        W 6945  15.941  27.770   4.224
38552W        W 6946  29.952  35.678   4.283
38553W        W 6947  28.019  25.807  10.886
38554W        W 6948  39.826  15.620  12.236
38555W        W 6949   3.478   9.110  12.509
38556W        W 6950   8.124  22.434   2.582
38557W        W 6951  44.988  12.812   1.375
38558W        W 6952  23.031  20.706  10.997
38559W        W 6953  29.877  20.176  11.061
38560W        W 6954  33.811  40.227  11.556
38561W        W 6955  38.599  29.023   2.017
38562W        W 6956  15.232   6.520  12.043
38563W        W 6957  23.214   0.755  14.469
38564W        W 6958  33.426  16.174  13.301
38565W        W 6959  39.587  41.929   1.729
38566W        W 6960   1.715  16.266   0.395
38567W        W 6961   1.073  15.577   3.994
38568W        W 6962  42.263  26.058   2.236
38569W        W 6963  27.718   9.135   4.823
38570W        W 6964   3.136  25.183   4.972
38571W        W 6965   1.362  34.082  13.623
38572W        W 6966  12.598  44.829   0.766
38573W        W 6967  16.805  36.807  10.585
38574W        W 6968  20.209  25.271  13.483
38575W        W 6969   3.959  24.721   2.304
38576W        W 6970  12.017  42.956  11.753
38577W        W 6971  31.957  40.249   3.259
38578W        W 6972  26.925  39.512   2.467
38579W        W 6973  38.607  11.133   4.488
38580W        W 6974  33.416  33.947  12.436
38581W        W 6975  16.690  32.742  11.420
38582W        W 6976  10.742  17.926  14.805
38583W        W 6977  29.864  29.825  14.717
38584W        W 6978  24.356  30.139   2.816
38585W        W 6979   5.731   9.303  14.878
38586W        W 6980   7.766  11.410  13.543
38587W        W 6981   1.714  31.097  14.342
38588W        W 6982   5.708  43.782   0.875
38589W        W 6983  19.622  41.941  11.735
38590W        W 6984  18.045  14.487   1.440
38591W        W 6985  32.194  42.447   2.815
38592W        W 6986  32.884  36.477  11.857
38593W        W 6987  26.157  27.607   3.693
38594W        W 6988  24.058  23.035  13.403
38595W        W 6989  17.777  10.295  10.978
38596W        W 6990  19.783  21.024   4.194
38597W        W 6991  29.401  30.681   2.800
38598W        W 6992  39.314  40.783  11.184
38599W        W 6993  18.601  27.199   2.268
38600W        W 6994  23.239  28.247  13.096
38601W        W 6995   0.969  40.394  10.516
38602W        W 6996  37.053  35.231   4.687
38603W        W 6997  18.940  38.857  14.268
38604W        W 6998  40.481  37.251  13.827
38605W        W 6999  41.411  18.102   3.879
38606W        W 7000   2.047  15.498  14.026
38607W        W 7001  39.816   2.200  14.687
38608W        W 7002  10.256  43.179   2.158
38609W        W 7003   8.302  30.444   3.533
38610W        W 7004   2.524  33.450  12.348
38611W        W 7005  17.753  30.777   2.391
38612W        W 7006  35.291  20.323   0.769
38613W        W 7007  34.601  31.418  14.936
38614W        W 7008   9.890  14.560   2.679
38615W        W 7009  34.122  35.193   1.389
38616W        W 7010  22.265   1.318   1.783
38617W        W 7011  17.812  40.103  11.951
38618W        W 7012  13.738  12.174  12.351
38619W        W 7013  41.753  38.991   1.335
38620W        W 7014   3.823   5.029  13.383
38621W        W 7015  39.558   4.233  12.575
38622W        W 7016  38.443  33.812   4.453
38623W        W 7017  21.601  43.452  11.954
38624W        W 7018  21.433  12.604   2.743
38625W        W 7019  15.088  36.861   1.412
38626W        W 7020  37.911   1.790   0.974
38627W        W 7021  33.400  42.062  10.733
38628W        W 7022  21.394  33.107   3.102
38629W        W 7023  27.626  21.754   3.770
38630W        W 7024   0.484  23.963   2.121
38631W        W 7025   4.395  23.048  12.520
38632W        W 7026  29.740  36.129   1.397
38633W        W 7027  43.428  18.799  10.475
38634W        W 7028  40.054  20.529  14.027
38635W        W 7029  38.379   6.685   1.251
38636W        W 7030   7.502   4.688   1.329
38637W        W 7031  20.629  26.478  14.968
38638W        W 7032  19.852  31.356  13.771
38639W        W 7033  23.077  30.851   2.229
38640W        W 7034  44.482  33.618  12.687
38641W        W 7035   1.544   6.442  14.809
38642W        W 7036  30.824  19.503   4.157
38643W        W 7037  28.961  27.865   0.371
38644W        W 7038  22.169  32.498   1.152
38645W        W 7039   6.088  19.480   9.893
38646W        W 7040  35.133  40.312   4.215
38647W        W 7041  38.273  29.993   1.637
38648W        W 7042   3.145  16.975  12.785
38649W        W 7043   9.116  39.366   1.395
38650W        W 7044   0.196  18.702  10.801
38651W        W 7045  34.406  31.220  13.088
38652W        W 7046  40.014   8.110   1.476
38653W        W 7047  21.973   2.384  12.866
38654W        W 7048  11.239  10.170  12.809
38655W        W 7049  34.946  36.286   4.802
38656W        W 7050  33.305  38.290  10.075
38657W        W 7051  42.941  30.662   1.722
38658W        W 7052  33.225   3.243   0.043
38659W        W 7053  27.710   4.763  10.689
38660W        W 7054  29.009  38.748  12.463
38661W        W 7055  30.999   7.993  12.122
38662W        W 7056  14.359  32.363  11.142
38663W        W 7057  13.939  18.890   0.823
38664W        W 7058  22.210  40.140  11.948
38665W        W 7059  38.247  44.587  11.183
38666W        W 7060  44.973   3.352   1.871
38667W        W 7061  10.591  30.565   0.303
38668W        W 7062   8.632  36.869   0.704
38669W        W 7063  37.451  42.518   0.877
38670W        W 7064  36.962   9.850   2.455
38671W        W 7065  18.086   3.655   3.258
38672W        W 7066  28.878   0.855  14.742
38673W        W 7067  34.442   2.706   4.189
38674W        W 7068  17.718  35.541  11.583
38675W        W 7069   0.561  16.622   0.885
38676W        W 7070   5.440  21.548   3.643
38677W        W 7071  37.322  30.121  13.679
38678W        W 7072  30.670  20.998  14.449
38679W        W 7073  43.859  43.566  14.565
38680W        W 7074  43.982  41.328  13.911
38681W        W 7075  40.793  28.592  11.104
38682W        W 7076  30.449  41.099   3.277
38683W        W 7077  37.344   5.687  14.496
38684W        W 7078   4.883   4.771   5.228
38685W        W 7079  27.575  42.372   0.448
38686W        W 7080  43.420   2.968   4.339
38687W        W 7081   3.284  38.630  13.519
38688W        W 7082  26.256  19.027   4.238
38689W        W 7083  12.781   3.043  11.003
38690W        W 7084  44.120  36.214   1.219
38691W        W 7085  18.834   9.056   1.711
38692W        W 7086  10.133  27.686   1.923
38693W        W 7087  40.576  20.700  12.549
38694W        W 7088  40.334   5.517   1.824
38695W        W 7089   2.020  35.035   0.365
38696W        W 7090   9.382  33.880  14.877
38697W        W 7091  44.634  34.376  11.067
38698W        W 7092   7.262  35.461  12.618
38699W        W 7093  12.979  23.248  14.823
38700W        W 7094  43.335  34.206   0.369
38701W        W 7095  41.336   9.743  13.355
38702W        W 7096  16.616  18.297   3.823
38703W        W 7097  29.030  33.667  13.028
38704W        W 7098  41.847  12.787   2.118
38705W        W 7099  31.542   1.559   1.495
38706W        W 7100  38.009  19.664  11.997
38707W        W 7101   3.390  33.961   0.287
38708W        W 7102  12.085  37.958   0.017
38709W        W 7103   2.757  14.840  10.110
38710W        W 7104   9.203  21.998   0.151
38711W        W 7105  37.364   5.288   0.879
38712W        W 7106  35.298   9.999  12.890
38713W        W 7107   0.329  38.429   3.598
38714W        W 7108   3.724  30.136  12.447
38715W        W 7109  29.035  30.993  13.115
38716W        W 7110  26.776  10.449   0.710
38717W        W 7111  14.053  41.241   1.474
38718W        W 7112  27.580   6.186  12.893
38719W        W 7113   5.269  24.925  13.514
38720W        W 7114  26.439   1.839   0.306
38721W        W 7115   7.264  15.140  14.478
38722W        W 7116  20.545  13.302   4.325
38723W        W 7117  44.770  13.063  14.135
38724W        W 7118  15.642  41.829   1.321
38725W        W 7119  17.489   0.998  14.241
38726W        W 7120  14.386   2.297  10.670
38727W        W 7121  28.572  28.876  14.819
38728W        W 7122  33.822  36.458   3.759
38729W        W 7123  18.329  34.792   4.160
38730W        W 7124  26.468  30.593  10.602
38731W        W 7125   6.670  41.532   2.869
38732W        W 7126  30.620  36.915   1.099
38733W        W 7127  27.070  24.653   2.404
38734W        W 7128  37.912  33.981   4.674
38735W        W 7129  31.704  31.380  11.439
38736W        W 7130  23.527  21.671   3.147
38737W        W 7131  11.183  40.122   1.912
38738W        W 7132  39.929  34.003   4.428
38739W        W 7133   7.010  23.419   3.267
38740W        W 7134   3.037   7.789  11.635
38741W        W 7135  42.457   3.196  12.477
38742W        W 7136  44.308  23.136  11.165
38743W        W 7137  19.525   1.113   0.355
38744W        W 7138  28.057   8.375   4.704
38745W        W 7139   3.043   0.955   4.559
38746W        W 7140  26.919  30.528   2.244
38747W        W 7141  26.934   1.091  10.245
38748W        W 7142  35.510   1.808  12.954
38749W        W 7143   4.168  42.884   3.213
38750W        W 7144   3.525  31.866  13.925
38751W        W 7145   4.005  15.348  13.321
38752W        W 7146  21.920  35.587  14.017
38753W        W 7147  40.587   1.220  14.818
38754W        W 7148  31.507   3.442   2.189
38755W        W 7149  17.408  26.200  11.971
38756W        W 7150  43.319  43.211  12.614
38757W        W 7151  17.029   2.523   4.900
38758W        W 7152  16.199  28.676  11.212
38759W        W 7153  37.926  13.294   3.386
38760W        W 7154  21.205   2.484  11.135
38761W        W 7155  13.241  15.484   0.477
38762W        W 7156   2.653  29.069  10.744
38763W        W 7157  33.921  26.541  13.534
38764W        W 7158   1.132  32.807  11.386
38765W        W 7159  20.860   0.955   4.654
38766W        W 7160  34.863  14.189  13.724
38767W        W 7161  27.448   5.407  13.402
38768W        W 7162  39.507   5.472  14.934
38769W        W 7163   5.742  13.583   1.935
38770W        W 7164  10.476  30.041  12.853
38771W        W 7165  43.818   2.887   2.657
38772W        W 7166  27.579  15.215  11.692
38773W        W 7167  34.022  21.443  12.546
38774W        W 7168  38.763  12.837   3.690
38775W        W 7169  38.602  19.863   1.402
38776W        W 7170  14.792  33.609   3.179
38777W        W 7171  32.136  26.212   4.378
38778W        W 7172  14.251  12.395  14.064
38779W        W 7173  25.258  13.127  11.669
38780W        W 7174  10.164   4.476  11.988
38781W        W 7175  26.183  40.778   3.083
38782W        W 7176  30.435   4.451   2.185
38783W        W 7177  30.880  31.532  13.164
38784W        W 7178  14.862  13.845  14.093
38785W        W 7179  14.630  11.939  12.835
38786W        W 7180  42.242  29.501  12.364
38787W        W 7181  16.173  15.863   0.698
38788W        W 7182   0.677   1.322  11.112
38789W        W 7183  28.428   0.369   4.078
38790W        W 7184  34.694  31.089  13.977
38791W        W 7185  38.059   0.364  13.480
38792W        W 7186  18.676   9.729   3.041
38793W        W 7187  17.681  30.216  11.551
38794W        W 7188  17.706  16.645  14.934
38795W        W 7189  14.700   9.356  11.417
38796W        W 7190  31.817  37.580   2.847
38797W        W 7191  24.718   9.306  12.501
38798W        W 7192  25.411  17.045   1.406
38799W        W 7193   6.711  24.193   1.243
38800W        W 7194  42.051   5.453   2.859
38801W        W 7195  32.239  27.477  11.997
38802W        W 7196  43.079   9.640   0.751
38803W        W 7197  21.708  12.585   4.169
38804W        W 7198  17.120  24.946   4.188
38805W        W 7199  14.132  37.793  10.713
38806W        W 7200  41.044  30.976   3.393
38807W        W 7201   3.734  36.179   4.561
38808W        W 7202   0.722  26.919   1.673
38809W        W 7203  33.993  30.402  11.059
38810W        W 7204  20.266  42.860  13.921
38811W        W 7205  27.373  38.482  11.856
38812W        W 7206  28.928   5.693  14.241
38813W        W 7207  32.927  18.385   2.831
38814W        W 7208  42.214   9.864   4.667
38815W        W 7209  19.171  13.403   2.318
38816W        W 7210  31.361   1.801  14.863
38817W        W 7211   2.539  25.665   0.015
38818W        W 7212  35.793  13.586   2.307
38819W        W 7213  40.460  23.719  14.159
38820W        W 7214   7.139  25.719   3.741
38821W        W 7215   9.846  16.598   4.759
38822W        W 7216   5.886  22.715  11.671
38823W        W 7217  29.838  28.084   3.262
38824W        W 7218  15.847  15.580   2.398
38825W        W 7219   5.903  30.850  13.446
38826W        W 7220  15.245  18.538   0.361
38827W        W 7221  32.368  13.215  14.927
38828W        W 7222  39.773  15.896  14.974
38829W        W 7223  35.840   8.706   2.909
38830W        W 7224  27.986  25.156   0.797
38831W        W 7225  19.372  42.838   1.250
38832W        W 7226  28.916  26.662  10.681
38833W        W 7227  21.708  33.517   2.577
38834W        W 7228  43.343  23.206  13.020
38835W        W 7229  15.442   2.292   0.420
38836W        W 7230   0.091  36.401   4.212
38837W        W 7231  36.500  23.028  13.989
38838W        W 7232   1.034  36.483  11.896
38839W        W 7233  44.887   3.910   0.347
38840W        W 7234  43.068  29.322  11.067
38841W        W 7235  36.251  35.534   2.378
38842W        W 7236  32.478   2.952   3.906
38843W        W 7237  23.931  10.810  14.277
38844W        W 7238  29.614  40.335  10.760
38845W        W 7239  20.284  34.363   1.038
38846W        W 7240  42.389   7.091   1.445
38847W        W 7241  16.514  41.788   2.738
38848W        W 7242  38.629  25.587   3.825
38849W        W 7243  13.874  20.608   0.250
38850W        W 7244  13.332  23.201  10.263
38851W        W 7245  18.770   9.669  14.784
38852W        W 7246  24.212  35.272  13.501
38853W        W 7247   8.956  38.490  11.623
38854W        W 7248   2.462  13.026   0.011
38855W        W 7249  41.902  38.980  10.740
38856W        W 7250  26.529  42.432  10.275
38857W        W 7251  44.811  35.951  11.641
38858W        W 7252  23.292  26.572  13.776
38859W        W 7253   9.748  13.743  11.618
38860W        W 7254  14.692  31.621  11.800
38861W        W 7255  37.844  36.120   2.177
38862W        W 7256  12.787  39.856  13.144
38863W        W 7257  32.265  29.801   2.442
38864W        W 7258  14.765   8.207   2.144
38865W        W 7259   5.915   9.190   0.370
38866W        W 7260  33.330  18.109  14.049
38867W        W 7261  35.137  31.142  13.443
38868W        W 7262  39.462   7.375   4.843
38869W        W 7263  43.495   8.896  14.251
38870W        W 7264   7.889  27.573   1.409
38871W        W 7265  20.740   5.927   0.296
38872W        W 7266  16.213   6.715   2.699
38873W        W 7267  17.187  31.967  10.365
38874W        W 7268  11.369  21.097   1.022
38875W        W 7269  12.527   3.063   4.120
38876W        W 7270  29.081  25.975  12.501
38877W        W 7271  39.964  12.503  14.502
38878W        W 7272  15.774  23.160  14.623
38879W        W 7273  29.562  37.776  14.968
38880W        W 7274  32.378  33.638   3.226
38881W        W 7275  37.082  41.754  13.600
38882W        W 7276  16.161   5.062   0.858
38883W        W 7277  15.330  33.747  11.692
38884W        W 7278   0.452  14.403  11.146
38885W        W 7279  22.581  38.535   2.865
38886W        W 7280  29.462  13.832  10.616
38887W        W 7281  31.047  15.139   1.297
38888W        W 7282   4.308  39.581  12.665
38889W        W 7283  29.248  31.404  11.602
38890W        W 7284  32.376   5.910   2.829
38891W        W 7285  37.237  15.386  13.875
38892W        W 7286  23.053  43.972   1.414
38893W        W 7287  32.025  30.614  11.905
38894W        W 7288  42.028  32.978  12.715
38895W        W 7289  35.489  19.922  10.653
38896W        W 7290  12.823  27.986   4.883
38897W        W 7291  40.711  32.370   4.441
38898W        W 7292  17.782   6.560   2.621
38899W        W 7293  22.263  20.549   2.447
38900W        W 7294  25.769  42.361  12.421
38901W        W 7295  28.566  39.503  10.685
38902W        W 7296   9.008  15.860  14.674
38903W        W 7297  29.086  15.687  13.382
38904W        W 7298   9.883  20.208  10.644
38905W        W 7299  37.568  31.172  14.886
38906W        W 7300  33.068  25.433  12.886
38907W        W 7301  43.998  33.249  13.964
38908W        W 7302  22.311  13.271  12.718
38909W        W 7303   7.789   7.748  11.381
38910W        W 7304  20.155  36.948  14.943
38911W        W 7305  23.258  41.263   0.784
38912W        W 7306  33.852  39.309   2.732
38913W        W 7307  13.051   6.982   1.279
38914W        W 7308  20.166  28.144  11.846
38915W        W 7309  19.247  25.633  11.595
38916W        W 7310   7.359  44.733   0.019
38917W        W 7311  21.598  29.431   0.287
38918W        W 7312  37.945   7.220  14.673
38919W        W 7313  36.139   0.200   1.028
38920W        W 7314  19.023  18.792   3.305
38921W        W 7315  14.423  44.397   1.948
38922W        W 7316  27.234  13.791   1.911
38923W        W 7317  23.021   6.679   0.217
38924W        W 7318   2.842  42.240   0.912
38925W        W 7319  21.288  20.102   2.215
38926W        W 7320   8.806  24.635   0.630
38927W        W 7321  43.918  30.212  11.544
38928W        W 7322  12.700  44.551   2.851
38929W        W 7323  15.049   3.845  13.962
38930W        W 7324  37.592  34.095   3.996
38931W        W 7325  23.762  40.425  14.037
38932W        W 7326   3.396  40.176  11.991
38933W        W 7327  13.410  32.530   1.955
38934W        W 7328  15.682   1.026   4.111
38935W        W 7329  16.198  23.083   1.690
38936W        W 7330  37.834   0.910  11.283
38937W        W 7331  19.170   1.090   4.980
38938W        W 7332  15.349  42.892   1.835
38939W        W 7333  44.341  11.564  14.017
38940W        W 7334   6.113  23.876   0.324
38941W        W 7335   5.678  39.613  13.072
38942W        W 7336  27.606  29.044  10.561
38943W        W 7337   0.671   6.576   0.399
38944W        W 7338  23.813  25.160  13.944
38945W        W 7339  42.228  10.630   3.322
38946W        W 7340  39.001  20.142   4.340
38947W        W 7341  41.767  11.114  13.023
38948W        W 7342  37.102  29.185   5.043
38949W        W 7343  36.593  38.462   3.821
38950W        W 7344  11.290  18.610  12.621
38951W        W 7345  13.866  13.714   2.869
38952W        W 7346  40.604  27.723  11.078
38953W        W 7347  40.331  26.967   4.268
38954W        W 7348  13.571  24.478   0.342
38955W        W 7349   3.737  19.112   0.212
38956W        W 7350  34.974   5.593  11.681
38957W        W 7351  40.104  29.051   2.268
38958W        W 7352  44.461  27.537  12.917
38959W        W 7353  42.279   6.179  13.429
38960W        W 7354  36.999  10.624   3.809
38961W        W 7355  33.595  31.148   4.851
38962W        W 7356  36.571   4.186   0.891
38963W        W 7357  37.428  16.621  10.256
38964W        W 7358  42.482   8.023  10.838
38965W        W 7359  18.716  31.513  10.969
38966W        W 7360  23.159  11.894  11.153
38967W        W 7361  39.640   9.127   1.782
38968W        W 7362  17.019   3.366  11.549
38969W        W 7363   0.896  16.736  11.989
38970W        W 7364  38.823   4.593  14.420
38971W        W 7365  29.255  22.783   1.820
38972W        W 7366  26.566  11.399   9.870
38973W        W 7367  41.499  27.722   2.415
38974W        W 7368  22.014   7.143   2.829
38975W        W 7369  30.556  40.841   0.462
38976W        W 7370  44.766   6.734   0.157
38977W        W 7371  34.672  22.631   3.550
38978W        W 7372  42.706  32.021   3.310
38979W        W 7373  39.656  29.140   4.801
38980W        W 7374   6.727  35.660   3.704
38981W        W 7375  34.133  40.553  14.867
38982W        W 7376   3.772  17.799   4.589
38983W        W 7377   1.908  26.888  12.936
38984W        W 7378  10.735   0.955   0.513
38985W        W 7379  23.111  37.943   1.984
38986W        W 7380  44.191  31.110   0.315
38987W        W 7381  20.130  41.374   4.946
38988W        W 7382  43.412  11.691   4.586
38989W        W 7383  32.510  30.206   2.189
38990W        W 7384  21.606   7.173   0.596
38991W        W 7385   4.707  34.101  10.674
38992W        W 7386  37.114  26.372  14.966
38993W        W 7387   6.918  35.470  11.308
38994W        W 7388  28.747  16.806  14.058
38995W        W 7389  34.452  34.618   3.509
38996W        W 7390  40.401  27.070   2.873
38997W        W 7391  39.766   7.258  12.430
38998W        W 7392  40.841  26.997   0.534
38999W        W 7393  24.689   6.516   1.825
39000W        W 7394  11.657   7.492  13.323
39001W        W 7395   7.215  21.778  11.433
39002W        W 7396  30.663  42.116   1.399
39003W        W 7397  14.591  19.536   1.292
39004W        W 7398   1.278  14.849   9.630
39005W        W 7399  35.608  22.662   3.834
39006W        W 7400  16.620  44.849  14.036
39007W        W 7401  38.046   7.727   3.601
39008W        W 7402  20.021   0.729  14.181
39009W        W 7403  25.469  14.202  14.847
39010W        W 7404  17.885  30.498  11.923
39011W        W 7405  27.895  10.234   3.192
39012W        W 7406  18.826   5.894  14.418
39013W        W 7407  29.843  33.124  11.261
39014W        W 7408  19.484   9.759  14.524
39015W        W 7409   6.153  30.151  14.871
39016W        W 7410  43.304  30.789  11.212
39017W        W 7411  32.055  44.476   0.541
39018W        W 7412  32.003  25.858  13.356
39019W        W 7413   4.226  40.538  13.849
39020W        W 7414  25.165   6.585   0.243
39021W        W 7415  41.479  23.265   0.972
39022W        W 7416  24.359  41.304   4.153
39023W        W 7417  36.475  38.014   2.998
39024W        W 7418  19.157  13.244  10.705
39025W        W 7419   2.850   8.640   2.616
39026W        W 7420  11.058  37.876   1.826
39027W        W 7421  30.110  17.256   2.784
39028W        W 7422  30.042   9.063  10.659
39029W        W 7423  13.558   6.760  12.985
39030W        W 7424   4.439  36.167  14.098
39031W        W 7425  26.562  16.075  14.010
39032W        W 7426  39.124  21.783  10.957
39033W        W 7427  11.902  10.877  14.784
39034W        W 7428  43.377  24.038   4.172
39035W        W 7429  34.115  24.932  14.226
39036W        W 7430  31.627  36.895   3.388
39037W        W 7431  28.242   7.699  14.405
39038W        W 7432  35.353  12.115   4.103
39039W        W 7433  44.829  13.161   0.453
39040W        W 7434  22.981  10.092   3.240
39041W        W 7435   3.955  16.944  14.060
39042W        W 7436  41.405  14.219  13.507
39043W        W 7437   5.762  35.113  13.875
39044W        W 7438  23.460  10.915  14.508
39045W        W 7439  24.783  23.736   2.452
39046W        W 7440  23.628   5.172   1.871
39047W        W 7441  40.754  29.657  11.236
39048W        W 7442  27.633   2.082  11.232
39049W        W 7443  17.761  34.460  14.353
39050W        W 7444  22.617  29.082  13.776
39051W        W 7445  41.426   3.692  12.383
39052W        W 7446   1.461  10.405  12.445
39053W        W 7447  36.946   3.822  11.548
39054W        W 7448   5.537  33.172   0.838
39055W        W 7449  44.159  15.134   4.793
39056W        W 7450  35.510   9.412  10.726
39057W        W 7451  13.291  14.738   1.232
39058W        W 7452  34.663  44.577  12.885
39059W        W 7453  24.440  40.294   1.708
39060W        W 7454  43.427   0.317   1.023
39061W        W 7455  39.405   4.865   0.806
39062W        W 7456  24.221  17.691  12.548
39063W        W 7457  33.538  20.221  10.656
39064W        W 7458  25.701  20.017   3.373
39065W        W 7459  44.853  28.302  10.975
39066W        W 7460  10.258  38.656  14.024
39067W        W 7461  21.954  34.369   3.606
39068W        W 7462  16.133  42.905   3.871
39069W        W 7463  20.210  43.553   4.154
39070W        W 7464  21.567  10.784   4.525
39071W        W 7465  12.411  28.158  10.604
39072W        W 7466  11.415  27.481   0.772
39073W        W 7467  14.807  40.949   3.173
39074W        W 7468   6.503   3.365   3.809
39075W        W 7469  36.300  15.212   1.636
39076W        W 7470  36.627  31.682  13.888
39077W        W 7471  40.770   7.691  14.328
39078W        W 7472  43.862  40.598  13.148
39079W        W 7473  17.242   4.521  12.488
39080W        W 7474  33.953  31.597  14.307
39081W        W 7475   7.348  33.331  11.497
39082W        W 7476  22.364  21.205  11.377
39083W        W 7477   3.481  16.842   4.594
39084W        W 7478  24.449  13.143  11.279
39085W        W 7479  26.807  19.575  11.547
39086W        W 7480  23.775  30.508  10.463
39087W        W 7481  40.600  14.599  14.388
39088W        W 7482   8.376   9.657  13.542
39089W        W 7483  10.447  15.101  13.531
39090W        W 7484  20.418  37.749  10.110
39091W        W 7485  12.507  11.541  14.436
39092W        W 7486  29.080  36.916   2.743
39093W        W 7487   3.285   0.869  13.822
39094W        W 7488   7.678  41.447  13.263
39095W        W 7489  14.130   4.137   2.020
39096W        W 7490   1.233  32.149   3.012
39097W        W 7491  10.125  39.820  10.329
39098W        W 7492   3.050  24.007  13.176
39099W        W 7493   3.716  35.691   2.445
39100W        W 7494  24.281  11.938   2.783
39101W        W 7495  26.628  26.057  12.007
39102W        W 7496  11.911  43.809   1.231
39103W        W 7497   5.307  16.571   2.577
39104W        W 7498  28.928  38.443  12.890
39105W        W 7499   9.745  41.156  14.368
39106W        W 7500   0.948   7.686  10.808
39107W        W 7501  18.286  41.712  13.488
39108W        W 7502  22.736   3.275   1.416
39109W        W 7503  43.020  44.477   0.218
39110W        W 7504  31.463   4.314   1.187
39111W        W 7505  24.034  43.077  12.406
39112W        W 7506  40.244  41.495  14.534
39113W        W 7507  44.073  25.295  14.816
39114W        W 7508   2.232  17.309   2.552
39115W        W 7509  14.291  35.149   3.888
39116W        W 7510   2.245  40.048  13.349
39117W        W 7511  39.480  28.204   0.451
39118W        W 7512   4.856   5.407  13.837
39119W        W 7513  28.205  36.579  13.557
39120W        W 7514  34.184  19.908   1.569
39121W        W 7515  12.305  20.681  12.868
39122W        W 7516  43.989  35.798  12.964
39123W        W 7517  11.952  22.551  10.428
39124W        W 7518  36.092   5.076   0.411
39125W        W 7519  26.899  24.553  12.888
39126W        W 7520  27.911  14.584   1.818
39127W        W 7521   1.602  18.833  12.555
39128W        W 7522   4.354  29.479  13.401
39129W        W 7523  16.095   5.702   3.094
39130W        W 7524  14.015  12.067   2.974
39131W        W 7525  38.945   2.891  11.822
39132W        W 7526   6.750  38.706  13.318
39133W        W 7527  32.628   0.150   2.330
39134W        W 7528  12.251  14.766  12.109
39135W        W 7529  14.784  13.392   4.096
39136W        W 7530  20.225  31.705   3.788
39137W        W 7531  12.782  13.565   0.275
39138W        W 7532  12.946  18.744  12.675
39139W        W 7533  40.737   0.720   0.366
39140W        W 7534   9.233  38.036   3.861
39141W        W 7535  35.361  10.780   3.527
39142W        W 7536  40.745  25.529   4.262
39143W        W 7537   8.852  41.835  13.116
39144W        W 7538   6.681  23.168  14.311
39145W        W 7539  25.047  10.325   1.601
39146W        W 7540  23.003   4.767  12.562
39147W        W 7541  42.742  16.601  12.967
39148W        W 7542  22.286  12.774   4.265
39149W        W 7543  23.712  13.491   2.581
39150W        W 7544  40.585  32.076  14.418
39151W        W 7545  27.961  34.089  13.835
39152W        W 7546  19.732  33.345   4.162
39153W        W 7547  22.245  33.555  11.478
39154W        W 7548   1.947  28.573   0.958
39155W        W 7549  24.576   3.990   1.025
39156W        W 7550  18.530  23.797  11.112
39157W        W 7551  14.296  43.736   4.542
39158W        W 7552  30.168  39.261   2.437
39159W        W 7553   7.928  22.247   0.368
39160W        W 7554  39.820   7.691  10.930
39161W        W 7555  13.826   9.261   2.340
39162W        W 7556  22.024  28.277   0.892
39163W        W 7557   3.446  15.778  13.099
39164W        W 7558  34.889   4.351  12.044
39165W        W 7559   6.227   1.772   0.737
39166W        W 7560   4.482  43.028  10.932
39167W        W 7561  13.547  21.894   0.028
39168W        W 7562  32.798  30.088  13.463
39169W        W 7563   1.156  24.252   4.217
39170W        W 7564  24.135  44.199  13.446
39171W        W 7565  20.554  15.704   3.773
39172W        W 7566  35.438  23.280  13.966
39173W        W 7567   7.344  16.574   4.577
39174W        W 7568   6.700  21.664   4.261
39175W        W 7569   4.960  28.405   1.988
39176W        W 7570  12.057   0.994   5.029
39177W        W 7571   5.899   7.441   4.448
39178W        W 7572  25.218  26.552  10.743
39179W        W 7573  22.140  23.976  11.509
39180W        W 7574  17.290  22.736   1.341
39181W        W 7575   3.980   9.738   0.125
39182W        W 7576   9.465  39.266  13.807
39183W        W 7577  29.490  31.319  11.106
39184W        W 7578  26.121  22.977   4.863
39185W        W 7579  43.743  21.296   2.442
39186W        W 7580  11.997  12.250   0.687
39187W        W 7581  42.198  42.850   4.467
39188W        W 7582   3.193  21.818  14.368
39189W        W 7583  19.509  22.189  13.341
39190W        W 7584   9.530  36.910  11.156
39191W        W 7585  23.893  43.685   5.045
39192W        W 7586  31.009  11.915  11.560
39193W        W 7587  11.883  12.125  12.082
39194W        W 7588  38.528  19.523  12.073
39195W        W 7589   0.484  32.500   0.036
39196W        W 7590   0.624   1.788   0.314
39197W        W 7591  29.539  34.377   3.724
39198W        W 7592  28.608  11.177  14.363
39199W        W 7593   9.402  36.710   2.805
39200W        W 7594  11.588   0.454  10.223
39201W        W 7595  32.384  31.963  12.377
39202W        W 7596  22.703   4.374  11.430
39203W        W 7597  33.644   3.390   3.407
39204W        W 7598  30.923  34.882   3.377
39205W        W 7599  17.344  32.371   3.307
39206W        W 7600   5.677  18.676   1.821
39207W        W 7601  39.782  33.389  13.435
39208W        W 7602  41.902  22.803  14.510
39209W        W 7603  12.168   1.702   1.136
39210W        W 7604  30.151  18.509  13.342
39211W        W 7605  20.010  32.606  12.228
39212W        W 7606   6.375   5.871   4.853
39213W        W 7607   4.289   2.970  11.135
39214W        W 7608  20.337  39.820  11.608
39215W        W 7609  10.655   1.718   2.725
39216W        W 7610  36.331  27.650  11.677
39217W        W 7611   8.016  15.529  14.880
39218W        W 7612  34.060  38.344  11.855
39219W        W 7613  33.067   6.759   3.776
39220W        W 7614  18.321  27.075  11.215
39221W        W 7615  17.081  21.020   3.703
39222W        W 7616  11.357  11.275  11.873
39223W        W 7617  11.002  29.940  13.985
39224W        W 7618   6.379  13.666  11.488
39225W        W 7619   3.851  37.147   4.178
39226W        W 7620  10.850  15.191   2.463
39227W        W 7621  33.453   8.243  10.597
39228W        W 7622  31.984  27.541   3.313
39229W        W 7623   0.479  12.637  12.576
39230W        W 7624  15.851  13.239   2.361
39231W        W 7625  16.926  41.727  13.973
39232W        W 7626  26.684  42.473  14.962
39233W        W 7627  33.101  13.476   2.237
39234W        W 7628  18.697  16.982  14.783
39235W        W 7629   6.441  24.665   3.125
39236W        W 7630  13.054   6.852  11.484
39237W        W 7631   0.411  13.883  12.037
39238W        W 7632  38.464  19.713  10.786
39239W        W 7633  13.339  41.075   4.088
39240W        W 7634  42.010  14.330   0.907
39241W        W 7635  34.529   4.056  14.491
39242W        W 7636   5.609   8.868  10.975
39243W        W 7637  16.050  43.911   4.175
39244W        W 7638  22.542   8.873   4.453
39245W        W 7639  19.103   4.889   0.924
39246W        W 7640  15.869  42.899   0.688
39247W        W 7641   4.297  26.605   1.487
39248W        W 7642  28.079  37.589  13.396
39249W        W 7643  31.218  27.726  13.022
39250W        W 7644   4.182   9.588  13.522
39251W        W 7645  39.959  16.996   5.092
39252W        W 7646  21.309  14.847  14.873
39253W        W 7647  35.356  38.338   1.204
39254W        W 7648  14.729  43.890   0.358
39255W        W 7649   8.002   7.934   4.777
39256W        W 7650   2.167   1.792   4.582
39257W        W 7651  33.485  36.875  14.384
39258W        W 7652  12.188  18.970  10.525
39259W        W 7653   6.058  27.916  11.686
39260W        W 7654  42.051   7.190  12.981
39261W        W 7655  39.797  13.663  13.054
39262W        W 7656  21.607  32.633   3.671
39263W        W 7657  38.402   8.223  12.596
39264W        W 7658  15.778  44.974  11.589
39265W        W 7659  27.070  32.299  10.142
39266W        W 7660  37.370  11.403   0.227
39267W        W 7661  37.615  17.725  11.479
39268W        W 7662   8.326  16.092   4.495
39269W        W 7663   6.823  17.531   4.630
39270W        W 7664   0.778  27.673   2.843
39271W        W 7665  25.644   0.773  13.860
39272W        W 7666  27.909  20.206  13.347
39273W        W 7667  39.734  13.140   3.227
39274W        W 7668  20.572   1.428  11.278
39275W        W 7669  39.134  38.924   1.520
39276W        W 7670  19.296  21.968   0.443
39277W        W 7671  16.663  44.239   9.799
39278W        W 7672  42.420   0.007   4.241
39279W        W 7673  13.845  36.355   4.114
39280W        W 7674   0.331  39.967  13.337
39281W        W 7675  31.317  21.186  10.209
39282W        W 7676  18.761  10.399   4.073
39283W        W 7677  24.395  42.676   0.903
39284W        W 7678  13.815  15.272   1.777
39285W        W 7679  41.102   9.225  10.753
39286W        W 7680  35.144  40.354  13.122
39287W        W 7681  20.131  40.682  11.646
39288W        W 7682  21.092  16.664   3.393
39289W        W 7683  24.170   3.786  13.799
39290W        W 7684  19.476   0.301  12.656
39291W        W 7685   1.641  32.416   2.809
39292W        W 7686  28.327   8.633   4.358
39293W        W 7687  32.741  26.096  14.939
39294W        W 7688  35.072  17.799   2.704
39295W        W 7689   8.893  43.195  11.770
39296W        W 7690  27.132  39.115  12.913
39297W        W 7691   8.548   5.792   0.807
39298W        W 7692   2.854  32.215   4.574
39299W        W 7693  25.705  38.726  12.482
39300W        W 7694  31.079  30.226  11.202
39301W        W 7695  41.387  27.157   3.767
39302W        W 7696  32.989  16.576  12.857
39303W        W 7697  38.689  35.677   1.517
39304W        W 7698  32.147   1.500   2.764
39305W        W 7699  44.785  13.193  12.972
39306W        W 7700   1.294  40.025  10.633
39307W        W 7701  41.016  26.120   3.145
39308W        W 7702  33.715  27.303   3.247
39309W        W 7703   6.676  23.813   3.211
39310W        W 7704  10.628  34.102   0.316
39311W        W 7705   2.418  35.027   3.243
39312W        W 7706   9.322  16.006   4.353
39313W        W 7707  10.598  31.692  14.334
39314W        W 7708  39.128  28.033  11.707
39315W        W 7709   5.426  34.512  11.408
39316W        W 7710  14.749   1.817   4.142
39317W        W 7711  33.484  24.706   2.208
39318W        W 7712  29.140  32.676   4.459
39319W        W 7713   5.077  20.004  12.551
39320W        W 7714  20.947  37.310  13.033
39321W        W 7715  21.759  28.635  10.726
39322W        W 7716  32.650   3.933   0.556
39323W        W 7717  14.403  19.010  10.480
39324W        W 7718  17.740   1.246   3.071
39325W        W 7719  20.985  43.730   2.332
39326W        W 7720   8.914  35.907   2.805
39327W        W 7721  19.537  27.537  14.293
39328W        W 7722  19.059  12.623  13.496
39329W        W 7723  27.959  43.230   3.656
39330W        W 7724   0.269   3.007   2.434
39331W        W 7725  23.810  13.664   4.216
39332W        W 7726  40.944  23.200   1.704
39333W        W 7727  19.232  20.761   3.253
39334W        W 7728  31.562  16.768  11.940
39335W        W 7729  35.692  39.509  13.427
39336W        W 7730  31.164  40.788   4.276
39337W        W 7731  24.239  35.448   3.098
39338W        W 7732  32.549  11.083  10.720
39339W        W 7733  21.451  24.655  11.920
39340W        W 7734  28.951  33.448   0.401
39341W        W 7735   0.117  34.043  13.804
39342W        W 7736  35.462  25.702   4.695
39343W        W 7737  11.603  18.284  12.017
39344W        W 7738   6.434  28.500  10.640
39345W        W 7739  43.193   6.169   0.179
39346W        W 7740  28.970  36.526   0.421
39347W        W 7741  17.867  35.924   0.288
39348W        W 7742  30.701  11.604  13.833
39349W        W 7743  36.848  23.267   0.482
39350W        W 7744  26.014  24.449  13.922
39351W        W 7745  34.139  33.491  14.447
39352W        W 7746  28.358   6.838   4.673
39353W        W 7747  23.180   7.052  11.390
39354W        W 7748  19.262   0.448   4.204
39355W        W 7749  43.285   4.873   3.078
39356W        W 7750  27.054  14.523   2.313
39357W        W 7751  35.381  26.474   4.533
39358W        W 7752  28.889  10.224   0.348
39359W        W 7753  34.132  31.964  12.802
39360W        W 7754  18.287  11.073   3.784
39361W        W 7755  35.642  28.728  11.029
39362W        W 7756  11.836   1.634   2.781
39363W        W 7757  43.467   1.317   0.000
39364W        W 7758  32.472   7.800   2.288
39365W        W 7759   7.779   6.864  11.532
39366W        W 7760  34.888  13.989  12.427
39367W        W 7761  34.363   8.156   3.180
39368W        W 7762  20.378  38.418  14.462
39369W        W 7763   9.732   4.029  14.863
39370W        W 7764  16.559  36.495   5.401
39371W        W 7765  35.895  18.060   1.411
39372W        W 7766   9.396   6.889   0.050
39373W        W 7767   3.455   2.866   1.691
39374W        W 7768  21.708  32.522  12.635
39375W        W 7769   3.395  21.196  13.910
39376W        W 7770  32.076  38.998  14.297
39377W        W 7771  26.942  38.788  10.665
39378W        W 7772  16.120  10.314  11.080
39379W        W 7773  31.940  36.091   3.116
39380W        W 7774   1.207  28.093   3.387
39381W        W 7775  29.998  28.947  10.727
39382W        W 7776  30.982  17.543   2.177
39383W        W 7777  12.283   1.459   2.530
39384W        W 7778  30.240  42.066  10.712
39385W        W 7779  14.730  31.166  12.058
39386W        W 7780  31.224   0.486   0.968
39387W        W 7781  23.687  30.456  10.964
39388W        W 7782  43.502  41.995   0.809
39389W        W 7783  31.649  23.687   3.172
39390W        W 7784  36.269  28.516   1.646
39391W        W 7785  38.265  42.606  13.080
39392W        W 7786   8.149   6.705  13.282
39393W        W 7787   7.633  10.275  10.729
39394W        W 7788  42.721  37.369   4.460
39395W        W 7789  20.125   8.784   4.381
39396W        W 7790  40.312  25.274  11.583
39397W        W 7791   8.370  43.034   1.721
39398W        W 7792  37.115  33.618  11.536
39399W        W 7793  24.152  27.013   3.090
39400W        W 7794  36.936  37.076  13.589
39401W        W 7795  16.522  36.350  10.414
39402W        W 7796   0.817  31.948  11.089
39403W        W 7797  13.229  24.909   2.356
39404W        W 7798  27.099  40.736  10.844
39405W        W 7799  28.773  14.279  14.479
39406W        W 7800   1.230  37.621   3.301
39407W        W 7801  10.590  17.684  14.367
39408W        W 7802  42.086  21.974  14.000
39409W        W 7803  34.375  10.684  13.488
39410W        W 7804  18.912  36.118  12.496
39411W        W 7805  10.772   1.317  10.544
39412W        W 7806  21.975  19.696   2.157
39413W        W 7807  25.094  25.245   3.674
39414W        W 7808  38.999  33.106  10.494
39415W        W 7809  13.635  11.645   4.800
39416W        W 7810   8.532  11.903   1.661
39417W        W 7811   0.846   0.750  13.235
39418W        W 7812  29.398   6.900   0.846
39419W        W 7813  12.140  18.626  14.362
39420W        W 7814  39.770  19.402  12.381
39421W        W 7815  32.226  29.382  13.181
39422W        W 7816  20.587  18.318   1.019
39423W        W 7817  30.177  29.254   4.092
39424W        W 7818   7.101  37.808  12.091
39425W        W 7819   1.723  40.943  14.410
39426W        W 7820  20.681   3.319  14.960
39427W        W 7821   3.307  17.279   1.724
39428W        W 7822  24.045  33.553   3.600
39429W        W 7823  39.354  17.734  14.466
39430W        W 7824   5.602  28.613   3.799
39431W        W 7825  30.646  17.112  10.630
39432W        W 7826   3.360   3.966  11.111
39433W        W 7827  26.197   3.672   1.453
39434W        W 7828   8.771  17.522  12.991
39435W        W 7829  13.703  32.750   4.329
39436W        W 7830  37.437  15.845   4.508
39437W        W 7831   7.414   4.785   0.785
39438W        W 7832  24.977   7.462   3.780
39439W        W 7833  36.961  38.234  12.593
39440W        W 7834  23.175  41.316   1.846
39441W        W 7835  31.333   7.768   0.583
39442W        W 7836  25.932  36.872   3.600
39443W        W 7837  32.407  40.547   2.159
39444W        W 7838  14.215  21.162  14.564
39445W        W 7839  23.020  35.379  13.029
39446W        W 7840  14.093  39.851   1.558
39447W        W 7841   2.802  25.464  10.779
39448W        W 7842   6.200  32.360   4.239
39449W        W 7843   8.778  27.488   1.879
39450W        W 7844  40.830  42.235  11.500
39451W        W 7845  41.886   3.683   0.527
39452W        W 7846  39.543  42.393   1.427
39453W        W 7847  25.954  11.349  14.002
39454W        W 7848  44.464  40.856   2.238
39455W        W 7849  21.501  25.577  11.458
39456W        W 7850   9.817   3.099  14.570
39457W        W 7851  37.181   5.945   0.333
39458W        W 7852   2.276  33.130  10.703
39459W        W 7853  38.333  41.318  13.387
39460W        W 7854  34.375   6.618   1.989
39461W        W 7855  34.819  16.851   4.800
39462W        W 7856   6.687  10.766   3.228
39463W        W 7857  38.248  19.285  10.596
39464W        W 7858   8.962  25.155   1.392
39465W        W 7859  31.626  15.499   0.418
39466W        W 7860  35.975  20.774   1.359
39467W        W 7861  42.725   8.064   4.066
39468W        W 7862  21.613   4.039   2.858
39469W        W 7863  34.412  10.764  12.552
39470W        W 7864  38.328  16.351  11.136
39471W        W 7865  41.359  27.471   0.676
39472W        W 7866  40.853  35.542  10.624
39473W        W 7867   4.650  36.475   4.892
39474W        W 7868  26.442  24.470  11.528
39475W        W 7869  41.905  26.774   5.000
39476W        W 7870  34.403  34.769  11.770
39477W        W 7871   8.984  36.581   0.431
39478W        W 7872   7.512  11.697   3.559
39479W        W 7873  29.854  19.233  10.681
39480W        W 7874  27.976  23.930  12.031
39481W        W 7875   2.458  43.507   2.803
39482W        W 7876  32.132  10.500  12.979
39483W        W 7877  20.293  30.010  13.044
39484W        W 7878  23.158   1.800  11.414
39485W        W 7879  13.863  16.211   0.894
39486W        W 7880  25.027  29.035  10.888
39487W        W 7881  19.580  33.134  13.407
39488W        W 7882   1.308  41.354   3.830
39489W        W 7883  31.417  12.218   3.544
39490W        W 7884   8.165  12.727   0.456
39491W        W 7885  19.130  15.807   3.975
39492W        W 7886  25.592   8.264   1.538
39493W        W 7887  29.998  41.201   2.297
39494W        W 7888  17.120   3.261  14.505
39495W        W 7889  19.277   3.406   2.077
39496W        W 7890  27.693  31.167   1.416
39497W        W 7891  10.217   8.828  11.665
39498W        W 7892  23.510  41.809  13.922
39499W        W 7893  36.709  32.467   2.722
39500W        W 7894  19.958  35.647   2.267
39501W        W 7895  22.056  43.529  13.155
39502W        W 7896  26.254  34.099  11.910
39503W        W 7897  24.042  29.303  11.183
39504W        W 7898  30.108  23.765   1.365
39505W        W 7899   0.806  12.629   3.395
39506W        W 7900   1.253  10.897   1.516
39507W        W 7901  38.048  35.065  12.434
39508W        W 7902  39.508   5.877   0.930
39509W        W 7903  24.733  33.613   4.157
39510W        W 7904  21.822  17.465  10.923
39511W        W 7905  22.647   0.018   0.338
39512W        W 7906  37.086  12.512   0.904
39513W        W 7907  21.982   2.449  10.744
39514W        W 7908  41.576  17.850   4.462
39515W        W 7909  25.907  23.501   3.443
39516W        W 7910   9.202   6.917   3.470
39517W        W 7911  33.011  38.543  13.417
39518W        W 7912   2.886   3.266   4.113
39519W        W 7913  15.677  17.636   0.388
39520W        W 7914  38.317  32.357  14.499
39521W        W 7915  38.368  29.434  14.922
39522W        W 7916  10.139  43.124  12.984
39523W        W 7917  10.422  44.890  14.724
39524W        W 7918  12.195  32.611   0.279
39525W        W 7919  42.292  36.230   2.414
39526W        W 7920  31.880  15.124   1.793
39527W        W 7921  33.923  17.641  12.534
39528W        W 7922  19.276   4.475  14.762
39529W        W 7923  34.030  10.772  11.578
39530W        W 7924   4.418   7.519  12.510
39531W        W 7925  26.009   5.902   2.387
39532W        W 7926   3.592  44.597  12.519
39533W        W 7927  32.106  23.511   1.411
39534W        W 7928  39.598   2.763   2.297
39535W        W 7929  38.775  19.649   3.327
39536W        W 7930  39.069  28.938  13.880
39537W        W 7931   6.109  37.879   1.283
39538W        W 7932  23.962  13.652  12.564
39539W        W 7933   3.066  22.040   4.554
39540W        W 7934  33.903   5.046   0.442
39541W        W 7935  43.210  37.444   0.758
39542W        W 7936   0.531  13.716   1.243
39543W        W 7937  10.829  16.973  14.966
39544W        W 7938  12.109  14.481   2.609
39545W        W 7939   0.086  10.222   1.310
39546W        W 7940  31.020   0.008   0.900
39547W        W 7941  18.003  29.812   4.014
39548W        W 7942  42.708  24.163   0.932
39549W        W 7943  39.078  42.401  13.401
39550W        W 7944   9.374  44.266  14.392
39551W        W 7945  15.141  17.313  14.411
39552W        W 7946  25.199  31.801   2.629
39553W        W 7947  23.938  40.482  12.937
39554W        W 7948  32.274   0.281  11.175
39555W        W 7949  21.421  37.532  13.006
39556W        W 7950  13.791  42.420  11.462
39557W        W 7951  35.455  38.892   1.226
39558W        W 7952  25.169  24.646   4.303
39559W        W 7953   8.921  24.119   4.992
39560W        W 7954  38.376  21.240  12.866
39561W        W 7955   4.956  27.318   1.305
39562W        W 7956   3.894   4.533  12.490
39563W        W 7957  39.261  33.715  13.352
39564W        W 7958  38.384  15.761  10.672
39565W        W 7959  44.531  43.049   0.893
39566W        W 7960  37.153  17.129  14.563
39567W        W 7961  20.115  31.122   2.397
39568W        W 7962  23.773  30.357   2.963
39569W        W 7963   9.902  13.810   4.555
39570W        W 7964  43.306  31.787   0.981
39571W        W 7965   5.417  11.153   2.829
39572W        W 7966  44.938  33.250  12.113
39573W        W 7967   2.575  16.002   0.544
39574W        W 7968  17.612  37.481  12.166
39575W        W 7969  32.213   1.582   0.902
39576W        W 7970  23.758  37.943  13.102
39577W        W 7971   9.652  24.146   0.437
39578W        W 7972  20.642  27.925   3.246
39579W        W 7973  29.111  12.301   3.651
39580W        W 7974  14.661   1.434   4.481
39581W        W 7975  15.773  14.766   3.568
39582W        W 7976  13.720  39.920  14.596
39583W        W 7977  11.845   4.743  12.086
39584W        W 7978  42.835  38.845  14.009
39585W        W 7979  43.395   3.362  13.544
39586W        W 7980  44.543  44.219  13.355
39587W        W 7981  10.317  36.367   0.793
39588W        W 7982  21.706   4.783  11.180
39589W        W 7983   2.319  21.786  14.820
39590W        W 7984  19.125   8.224  14.233
39591W        W 7985  33.919  37.162   3.165
39592W        W 7986  23.699  10.980  14.983
39593W        W 7987  43.139   2.318   3.429
39594W        W 7988  20.775  24.619   4.312
39595W        W 7989  15.371  12.938  14.282
39596W        W 7990  41.669  34.964  13.810
39597W        W 7991  38.321   1.563  11.155
39598W        W 7992  39.996  40.505  12.637
39599W        W 7993  42.995  19.635   4.569
39600W        W 7994   6.249  20.211  13.518
39601W        W 7995  14.271  23.032   3.652
39602W        W 7996   0.908  32.613  14.469
39603W        W 7997  23.604  36.004   3.375
39604W        W 7998  31.063  44.607   3.617
39605W        W 7999  32.691  32.461  12.541
39606W        W 8000   5.993   2.527   4.956
39607W        W 8001  17.727  26.781  14.053
39608W        W 8002  22.194  11.084  12.072
39609W        W 8003  34.588  11.816  10.954
39610W        W 8004  17.618  44.940   4.607
39611W        W 8005  11.668  18.945   1.861
39612W        W 8006   2.134  41.796   5.026
39613W        W 8007  13.339  31.082  13.184
39614W        W 8008  15.889  38.049   1.272
39615W        W 8009  44.299  31.022  14.798
39616W        W 8010  40.280  36.173  12.218
39617W        W 8011  30.892  18.606  10.709
39618W        W 8012  19.230  43.713  13.840
39619W        W 8013  11.254  19.561  14.821
39620W        W 8014  30.182  11.185  12.019
39621W        W 8015  20.729  41.071  12.881
39622W        W 8016   0.347  34.997   4.095
39623W        W 8017   8.680   8.596  11.528
39624W        W 8018  20.526  35.679   2.219
39625W        W 8019  10.999   5.451  12.125
39626W        W 8020  12.900  36.329   3.840
39627W        W 8021  31.316  22.981  13.945
39628W        W 8022   2.950  41.182  10.743
39629W        W 8023  42.839   1.317  13.063
39630W        W 8024  16.134  28.723   1.266
39631W        W 8025  33.492  31.060   3.813
39632W        W 8026  10.639  19.244  11.124
39633W        W 8027  44.971  30.237   2.286
39634W        W 8028   2.396  27.506  11.024
39635W        W 8029  14.646  37.117   2.155
39636W        W 8030  24.503  10.564   0.849
39637W        W 8031  39.407   0.737   4.330
39638W        W 8032   7.752  14.819  10.984
39639W        W 8033  29.062  42.764   3.381
39640W        W 8034  27.053  30.585  13.271
39641W        W 8035   4.862  23.049   0.620
39642W        W 8036  31.639  23.254   1.321
39643W        W 8037  39.786  19.566  11.494
39644W        W 8038   6.735  42.927  13.876
39645W        W 8039  26.056   7.182   2.753
39646W        W 8040  44.434  22.164   0.017
39647W        W 8041  37.553  12.738   1.057
39648W        W 8042   6.618  31.834  12.870
39649W        W 8043  33.528  17.217   2.741
39650W        W 8044  27.157  39.243   4.124
39651W        W 8045   6.814  28.967   2.262
39652W        W 8046   7.303  16.048  12.926
39653W        W 8047  17.698  22.449  11.744
39654W        W 8048  20.045   1.054   2.819
39655W        W 8049  31.423  43.723   2.423
39656W        W 8050  27.143  17.374  11.562
39657W        W 8051  33.440  35.581  10.630
39658W        W 8052   5.336   8.084  12.039
39659W        W 8053  29.773  11.850  10.723
39660W        W 8054  13.250  27.223  12.861
39661W        W 8055  35.795  15.459  14.799
39662W        W 8056  39.750   3.323   4.722
39663W        W 8057  12.698  14.155  12.759
39664W        W 8058   5.289  24.486  10.878
39665W        W 8059  10.308  16.424  12.917
39666W        W 8060  40.874  34.657   3.618
39667W        W 8061  23.064  15.839   4.669
39668W        W 8062  41.912  30.316   1.969
39669W        W 8063  24.117   7.854  14.838
39670W        W 8064  12.072  29.178  13.392
39671W        W 8065  28.934  33.814   4.125
39672W        W 8066  40.148  26.650  10.955
39673W        W 8067   9.268   4.405  13.718
39674W        W 8068  21.007  24.720  12.838
39675W        W 8069  30.635  19.218  11.229
39676W        W 8070  32.424  35.408  10.583
39677W        W 8071  26.938  15.323  13.036
39678W        W 8072   7.985  23.720  11.070
39679W        W 8073   0.261  12.635   4.268
39680W        W 8074  16.810  30.051   1.412
39681W        W 8075  36.573  26.129  12.865
39682W        W 8076   3.603  16.296   0.714
39683W        W 8077  44.945  30.526   0.420
39684W        W 8078  14.070  15.441   4.872
39685W        W 8079  37.593  44.175  11.938
39686W        W 8080  31.991  33.183   0.400
39687W        W 8081  37.972   3.176   1.878
39688W        W 8082  31.667  26.533  14.923
39689W        W 8083  10.847   4.493  12.111
39690W        W 8084  17.134   7.936   3.913
39691W        W 8085   0.470  25.725   4.094
39692W        W 8086  24.354  42.888   5.027
39693W        W 8087  32.377  31.662  13.928
39694W        W 8088  15.516   5.425  11.630
39695W        W 8089   1.914   0.962  14.137
39696W        W 8090  10.193  27.606  13.941
39697W        W 8091  39.968  42.498  11.516
39698W        W 8092  11.597  23.541  12.029
39699W        W 8093  40.839  13.044   3.175
39700W        W 8094  43.551  44.306  11.547
39701W        W 8095  13.433  17.335   4.079
39702W        W 8096   9.946  15.262  13.486
39703W        W 8097   5.150  16.168   1.445
39704W        W 8098  15.980  25.151  11.233
39705W        W 8099  10.814  13.328  14.431
39706W        W 8100  34.645  44.587   4.058
39707W        W 8101  23.883  36.694  13.375
39708W        W 8102  39.947  16.811   4.612
39709W        W 8103   2.931  13.372   0.762
39710W        W 8104  16.351  41.432   2.371
39711W        W 8105  19.001   7.923  13.454
39712W        W 8106  29.054  14.068   0.416
39713W        W 8107  10.090  15.398  11.942
39714W        W 8108  44.992   0.823   1.232
39715W        W 8109  24.919  44.040   1.846
39716W        W 8110  38.235   9.825  14.435
39717W        W 8111  34.540  22.185   3.791
39718W        W 8112  37.548  21.149   1.792
39719W        W 8113  19.677  39.608  14.394
39720W        W 8114  20.092  18.526  13.966
39721W        W 8115  31.931  39.747   4.528
39722W        W 8116  34.861  40.397  13.538
39723W        W 8117  30.561  18.746   3.052
39724W        W 8118  32.537  20.270   4.729
39725W        W 8119  44.365  10.770  14.477
39726W        W 8120  26.102  28.137   0.872
39727W        W 8121  14.461  11.005   4.032
39728W        W 8122  22.941  24.140  13.914
39729W        W 8123  31.496  41.351   2.466
39730W        W 8124  24.168  25.763  12.700
39731W        W 8125  41.463   9.072  11.435
39732W        W 8126  30.602  21.310  13.433
39733W        W 8127   4.411  24.007   4.560
39734W        W 8128  14.850  25.988   0.301
39735W        W 8129  22.762  41.468   3.273
39736W        W 8130  38.864  41.305  10.692
39737W        W 8131  31.079  33.370  13.310
39738W        W 8132  28.868   6.852  10.586
39739W        W 8133  38.543   8.222   1.329
39740W        W 8134  28.536  22.183  11.878
39741W        W 8135  29.540  24.766  11.166
39742W        W 8136  44.064  19.986  13.781
39743W        W 8137   3.192  18.844   1.872
39744W        W 8138  17.302  42.082  12.047
39745W        W 8139   1.455  26.509  14.509
39746W        W 8140  30.145  29.604  11.899
39747W        W 8141   2.846  10.906  13.339
39748W        W 8142   5.838   5.762   3.194
39749W        W 8143  35.571  25.582   1.380
39750W        W 8144   1.982  20.692  14.187
39751W        W 8145  22.022   5.236   2.763
39752W        W 8146  19.962  20.697  12.464
39753W        W 8147  17.800   5.231  14.922
39754W        W 8148  27.023  21.508  12.064
39755W        W 8149  44.919   6.371   2.316
39756W        W 8150  14.275   9.330  12.825
39757W        W 8151  43.296  20.495  13.005
39758W        W 8152  40.134  39.222  11.050
39759W        W 8153   4.022  36.084  14.935
39760W        W 8154  34.902  12.292  12.771
39761W        W 8155  38.740  22.813  12.398
39762W        W 8156   0.497   1.483  10.443
39763W        W 8157  16.773  21.755  13.643
39764W        W 8158  35.667  44.222  11.081
39765W        W 8159  17.153  22.365   0.014
39766W        W 8160  14.846  10.293   1.277
39767W        W 8161  43.010  10.125  11.580
39768W        W 8162  38.145  22.135  10.772
39769W        W 8163  31.965  43.482  13.217
39770W        W 8164   9.354  34.106  11.728
39771W        W 8165  35.426  26.126   1.891
39772W        W 8166   5.075  33.551   1.374
39773W        W 8167  11.373  16.274   3.363
39774W        W 8168   7.565  41.009  13.908
39775W        W 8169  18.249  31.313  12.038
39776W        W 8170  24.159  31.243  12.928
39777W        W 8171  32.545  22.334  11.474
39778W        W 8172  24.535  35.612   4.039
39779W        W 8173   1.901  17.381   4.590
39780W        W 8174  13.539   1.895   2.232
39781W        W 8175   4.544  17.022   1.702
39782W        W 8176   1.229  15.844   3.588
39783W        W 8177   3.299   8.780  14.030
39784W        W 8178  13.015  21.741   1.340
39785W        W 8179  33.904  33.340  14.016
39786W        W 8180  19.814   7.767  14.816
39787W        W 8181  32.570   7.588  10.803
39788W        W 8182  11.620  29.449  10.518
39789W        W 8183  16.666   6.973   3.344
39790W        W 8184   2.811   9.634   0.753
39791W        W 8185  42.483  41.206  12.350
39792W        W 8186  28.088   6.819  14.828
39793W        W 8187  10.469  32.428   0.734
39794W        W 8188  21.718  30.021   0.941
39795W        W 8189  11.479  44.006  11.633
39796W        W 8190  43.947  20.543   2.557
39797W        W 8191  44.584  19.212   1.782
39798W        W 8192  16.476   3.228   2.750
39799W        W 8193   6.587  31.000  14.863
39800W        W 8194  26.817   8.938  11.565
39801W        W 8195  39.997  31.959   2.692
39802W        W 8196  29.062  13.438   2.344
39803W        W 8197   6.812   7.362   4.595
39804W        W 8198   2.644  24.008   4.638
39805W        W 8199  13.873  31.803  11.954
39806W        W 8200   9.865  21.958   1.278
39807W        W 8201  14.892  16.119  12.813
39808W        W 8202  24.923  26.746   0.809
39809W        W 8203  18.753  41.221   4.247
39810W        W 8204   2.807   3.339   2.426
39811W        W 8205  10.560  15.372   3.440
39812W        W 8206  43.044  33.445  11.357
39813W        W 8207  30.454  19.243   1.921
39814W        W 8208  28.682  18.995   0.636
39815W        W 8209  19.677  27.305   1.159
39816W        W 8210  22.681   0.566  10.859
39817W        W 8211  27.925   2.304   0.910
39818W        W 8212   9.644  21.086  12.191
39819W        W 8213  30.687  26.479   2.720
39820W        W 8214  12.744  25.126   1.310
39821W        W 8215  11.399  20.074  12.650
39822W        W 8216  17.660   1.889  14.408
39823W        W 8217  28.290  29.558  13.867
39824W        W 8218   5.634  17.501  10.921
39825W        W 8219  13.363  42.509   4.622
39826W        W 8220  18.709   9.537  11.652
39827W        W 8221   8.540  25.076   3.457
39828W        W 8222  28.586   9.906  11.878
39829W        W 8223  42.787  37.756  10.772
39830W        W 8224  35.087  42.501  14.764
39831W        W 8225  32.535  10.742   3.442
39832W        W 8226   6.687  28.077   2.008
39833W        W 8227  19.175  12.771   1.411
39834W        W 8228  31.959  44.410  12.020
39835W        W 8229  31.728  30.497   4.221
39836W        W 8230   7.322  33.476   2.803
39837W        W 8231   5.300  43.226   3.695
39838W        W 8232  36.434  23.578  12.441
39839W        W 8233   8.032   3.814   0.090
39840W        W 8234  13.708   2.142   1.821
39841W        W 8235  35.125  21.350  11.260
39842W        W 8236  36.619  14.824  11.165
39843W        W 8237  18.548  35.914   1.099
39844W        W 8238  10.838  28.399   0.881
39845W        W 8239  18.750  12.118  14.589
39846W        W 8240  19.535  35.606  11.402
39847W        W 8241  41.480  30.044  14.808
39848W        W 8242  30.560  27.716   4.652
39849W        W 8243  28.201  35.515   0.838
39850W        W 8244   7.235  40.642   0.935
39851W        W 8245  10.640  44.367   2.885
39852W        W 8246  20.522  14.254   1.822
39853W        W 8247  42.134  22.123  14.922
39854W        W 8248   6.521  16.166  11.682
39855W        W 8249  33.018  33.303  14.064
39856W        W 8250  40.655  18.132  11.456
39857W        W 8251  39.676  37.354   4.145
39858W        W 8252   7.387  14.726   2.079
39859W        W 8253  37.918  21.254  14.993
39860W        W 8254  16.747  22.743  13.517
39861W        W 8255  17.149  17.628  14.754
39862W        W 8256  13.069  38.891   1.579
39863W        W 8257  23.981  31.154   2.733
39864W        W 8258   9.320   6.817  12.120
39865W        W 8259  41.281  18.050  11.272
39866W        W 8260  16.289  12.740  11.214
39867W        W 8261  28.058  28.124   2.690
39868W        W 8262   1.525   1.726  12.990
39869W        W 8263  14.359  19.614   3.633
39870W        W 8264  20.633  22.956   1.864
39871W        W 8265  30.508  37.024   4.765
39872W        W 8266   6.341   9.905   3.652
39873W        W 8267  21.168  41.814  13.006
39874W        W 8268  31.634  43.319   3.652
39875W        W 8269  19.837  36.151  13.701
39876W        W 8270  13.703  10.866   4.147
39877W        W 8271   8.698   8.365   0.798
39878W        W 8272  38.260  44.786  13.852
39879W        W 8273  35.681  17.486   4.267
39880W        W 8274  36.576  18.613   0.768
39881W        W 8275  29.715  29.949   1.859
39882W        W 8276  40.025  18.831   3.657
39883W        W 8277  39.276  41.542   3.135
39884W        W 8278  42.907  39.540   1.786
39885W        W 8279  26.963  35.541   4.509
39886W        W 8280  24.078   0.727   2.927
39887W        W 8281  34.951  33.515   3.260
39888W        W 8282  14.830  11.113   2.099
39889W        W 8283  32.104  16.032  11.910
39890W        W 8284  12.661  19.356  12.526
39891W        W 8285   0.188  17.335   3.740
39892W        W 8286  16.235  13.319   4.244
39893W        W 8287  25.276  36.037   4.206
39894W        W 8288  30.627  10.767   1.832
39895W        W 8289   2.479  40.955  12.352
39896W        W 8290  16.595  32.560   4.446
39897W        W 8291  43.226  43.406   2.280
39898W        W 8292  36.357  24.404  13.000
39899W        W 8293  26.118  41.213   4.118
39900W        W 8294   8.806  40.248   2.289
39901W        W 8295  27.717  31.012  12.716
39902W        W 8296  43.612   7.957  11.073
39903W        W 8297   2.241  14.363  13.569
39904W        W 8298  30.882  23.463  14.894
39905W        W 8299  31.647  11.664  10.996
39906W        W 8300   6.445  39.832  11.412
39907W        W 8301  42.370  22.532  14.682
39908W        W 8302  35.870  36.307   2.377
39909W        W 8303  22.355  43.622  13.674
39910W        W 8304  19.846  12.201  11.471
39911W        W 8305   7.231  26.665  12.450
39912W        W 8306  21.220   7.414  14.369
39913W        W 8307  31.123   3.752   2.347
39914W        W 8308  29.052  35.385   2.168
39915W        W 8309  13.660   0.340  11.288
39916W        W 8310  36.381  15.766   0.580
39917W        W 8311  26.030  33.097   2.641
39918W        W 8312  30.088   7.757  14.389
39919W        W 8313  26.463   7.261   3.687
39920W        W 8314  32.320   2.929  11.963
39921W        W 8315  14.287  42.491   2.710
39922W        W 8316  32.040  36.277  10.195
39923W        W 8317  33.640   8.576   0.292
39924W        W 8318  22.530  37.479  13.570
39925W        W 8319  11.900  43.473  14.748
39926W        W 8320  31.795   2.225  12.542
39927W        W 8321  33.910   0.930   1.839
39928W        W 8322  15.348  32.280   2.166
39929W        W 8323  28.242  32.774   4.431
39930W        W 8324  14.692  20.508   1.345
39931W        W 8325  36.383  33.651   4.053
39932W        W 8326  14.120  15.319  14.379
39933W        W 8327  18.229  27.525  12.426
39934W        W 8328  10.035   8.812   1.958
39935W        W 8329  37.249  31.192  14.489
39936W        W 8330  34.347  21.636  11.623
39937W        W 8331  38.826   5.671   3.169
39938W        W 8332  38.533   4.723  11.113
39939W        W 8333  16.073   0.766  14.762
39940W        W 8334  44.829  35.386  11.568
39941W        W 8335  20.749  17.292  13.327
39942W        W 8336  18.254  12.576  13.077
39943W        W 8337   9.849  33.602   0.094
39944W        W 8338  35.376  38.151  12.954
39945W        W 8339  25.218  34.784   2.166
39946W        W 8340  23.202  44.562  12.480
39947W        W 8341  28.364   5.594  10.631
39948W        W 8342   7.430   2.752  12.633
39949W        W 8343  14.444  26.117  13.331
39950W        W 8344  16.395  14.343  10.744
39951W        W 8345  20.842  39.108  12.297
39952W        W 8346  42.054   8.655   1.011
39953W        W 8347  17.779   9.802   2.942
39954W        W 8348  25.208  11.312   0.154
39955W        W 8349   5.313  31.916  10.517
39956W        W 8350  44.904  30.401  11.636
39957W        W 8351  13.246  35.042  12.333
39958W        W 8352  40.361   5.252   1.324
39959W        W 8353   9.464  39.472  11.644
39960W        W 8354  19.596  34.977  12.135
39961W        W 8355  41.014   6.730   1.742
39962W        W 8356   2.949  12.192   1.930
39963W        W 8357   2.028  15.478  12.985
39964W        W 8358  10.909   3.295  12.572
39965W        W 8359  38.325  11.211   4.054
39966W        W 8360  14.559   1.631  13.155
39967W        W 8361  40.693  43.242  12.446
39968W        W 8362   8.476   7.622  14.380
39969W        W 8363  42.783  26.607  13.307
39970W        W 8364  35.352   8.912  10.688
39971W        W 8365  37.346  42.746   1.355
39972W        W 8366  14.171  26.019   2.382
39973W        W 8367   3.444   0.822   4.877
39974W        W 8368  10.792  30.919  14.888
39975W        W 8369  10.581  21.224  14.332
39976W        W 8370  23.528  29.155   3.764
39977W        W 8371  39.799  25.163   1.648
39978W        W 8372  17.189  38.056   2.909
39979W        W 8373  11.676  19.523  12.601
39980W        W 8374   4.389  43.699   3.789
39981W        W 8375   6.660  35.028  12.041
39982W        W 8376  21.015  10.758   2.521
39983W        W 8377  22.984  34.051   1.932
39984W        W 8378  22.245   5.437  14.780
39985W        W 8379  33.077  17.816   4.526
39986W        W 8380  20.220  18.505  13.456
39987W        W 8381  15.815  28.162   1.933
39988W        W 8382  35.427  13.803  11.206
39989W        W 8383  38.515  40.882   1.616
39990W        W 8384  13.140  24.524   0.008
39991W        W 8385   4.433   3.462   0.320
39992W        W 8386   9.690  33.848  13.778
39993W        W 8387   2.730  23.490  10.461
39994W        W 8388  12.461  23.229   1.942
39995W        W 8389  18.307  42.214   3.617
39996W        W 8390  15.980  20.572   2.455
39997W        W 8391   3.898   2.726   3.191
39998W        W 8392  10.199  10.396   0.900
39999W        W 8393  42.536  43.414  12.008
40000W        W 8394  14.925  37.941   1.292
40001W        W 8395  30.171  38.172   3.916
40002W        W 8396  20.007  33.925  13.857
40003W        W 8397  19.193  38.811  13.816
40004W        W 8398  19.076  27.532   3.873
40005W        W 8399  10.861   0.440   0.927
40006W        W 8400   3.270  36.334   2.735
40007W        W 8401   1.577  25.051  12.978
40008W        W 8402  39.485  25.954  14.765
40009W        W 8403   0.804  11.622   0.962
40010W        W 8404  42.759  17.041  12.579
40011W        W 8405  21.011  13.764  12.904
40012W        W 8406   6.315  13.931   4.904
40013W        W 8407  15.603  34.628   1.340
40014W        W 8408  30.652  39.702  11.627
40015W        W 8409  14.227  32.858  11.193
40016W        W 8410  32.003  43.246  10.445
40017W        W 8411  29.654  30.829   1.098
40018W        W 8412  41.762   6.707  13.993
40019W        W 8413  21.483  40.508   0.496
40020W        W 8414  44.999   1.825   0.878
40021W        W 8415  16.209   0.954   1.175
40022W        W 8416   2.171   6.666  11.911
40023W        W 8417  31.538  16.532  14.527
40024W        W 8418   3.265  10.380   0.684
40025W        W 8419   2.777  32.918  10.782
40026W        W 8420  15.177  36.105   1.892
40027W        W 8421  26.266  42.349   2.755
40028W        W 8422   4.281  26.129  10.232
40029W        W 8423   8.974  23.924  12.837
40030W        W 8424  40.350  33.905   1.970
40031W        W 8425  42.353  13.579   0.810
40032W        W 8426  30.173  32.273  11.430
40033W        W 8427   8.317   2.783  12.699
40034W        W 8428  42.379   6.295  14.266
40035W        W 8429  28.551  38.722  14.987
40036W        W 8430  12.689  20.671   4.061
40037W        W 8431  31.450  16.632   3.576
40038W        W 8432  36.117  13.557   3.697
40039W        W 8433   4.390  27.271  10.869
40040W        W 8434  20.221  35.921  11.148
40041W        W 8435   5.457  10.587  14.021
40042W        W 8436  42.823  30.129   0.544
40043W        W 8437  20.587   6.337  14.940
40044W        W 8438  39.334  34.431  14.447
40045W        W 8439   9.279  13.624   0.731
40046W        W 8440  39.829  14.815  11.704
40047W        W 8441  20.671  29.084   1.170
40048W        W 8442  14.103  13.081   2.628
40049W        W 8443  14.719  41.229   3.939
40050W        W 8444  18.610   0.480  14.664
40051W        W 8445  26.612   4.752   4.770
40052W        W 8446   8.941  39.558  10.585
40053W        W 8447  41.057   0.479  13.747
40054W        W 8448  43.025   9.829  10.057
40055W        W 8449  37.587  40.349  14.886
40056W        W 8450  39.897   6.339   4.869
40057W        W 8451  16.345  23.751  12.479
40058W        W 8452   5.456  37.819   1.542
40059W        W 8453  10.304  10.124   3.121
40060W        W 8454  22.481  18.145  10.541
40061W        W 8455  30.627   5.931  11.565
40062W        W 8456  16.703  30.703   0.026
40063W        W 8457  28.883  17.652   1.845
40064W        W 8458  38.339  20.803   0.277
40065W        W 8459  24.973  15.665   3.169
40066W        W 8460   8.366  44.812   4.234
40067W        W 8461  22.213  11.947   1.390
40068W        W 8462   0.194  24.254  12.539
40069W        W 8463  37.198  28.942  11.587
40070W        W 8464  10.651  35.071  13.844
40071W        W 8465  35.595  18.782  12.987
40072W        W 8466  12.596  41.585  13.847
40073W        W 8467   9.163  20.505  13.434
40074W        W 8468  40.212  44.792   4.017
40075W        W 8469  39.675  39.513  12.173
40076W        W 8470  28.275  44.587  11.091
40077W        W 8471  21.098  44.066   4.203
40078W        W 8472  44.042  41.490   3.417
40079W        W 8473   3.719  39.014  12.494
40080W        W 8474  12.315  37.031   2.328
40081W        W 8475   0.653  33.970  11.197
40082W        W 8476   9.354  23.750  12.529
40083W        W 8477   8.944  35.819  13.817
40084W        W 8478  39.361   8.824   5.063
40085W        W 8479  11.650  42.442   0.996
40086W        W 8480   5.454  17.590   0.719
40087W        W 8481  41.363  26.504  14.993
40088W        W 8482   2.420  14.627   1.855
40089W        W 8483  40.948  41.353   1.909
40090W        W 8484  28.525   5.382  11.083
40091W        W 8485  43.916  23.658  14.330
40092W        W 8486  13.682  43.408  11.319
40093W        W 8487  32.498  42.925   1.685
40094W        W 8488  36.405  21.733  12.903
40095W        W 8489   9.073   1.978   1.375
40096W        W 8490  11.257   2.815  13.948
40097W        W 8491  41.313   1.785  12.874
40098W        W 8492  31.496  23.886  14.411
40099W        W 8493  38.331  37.938  11.985
40100W        W 8494  38.009  29.034  12.968
40101W        W 8495  21.620  39.644  11.470
40102W        W 8496  39.585  26.944  10.675
40103W        W 8497   7.266   4.708   3.628
40104W        W 8498   7.503  22.115  12.872
40105W        W 8499  35.010  34.546  13.119
40106W        W 8500   0.361  25.981   4.522
40107W        W 8501  44.813   8.709   4.033
40108W        W 8502  14.787  19.680  14.435
40109W        W 8503  21.150  15.721  12.889
40110W        W 8504  42.464   7.728  14.347
40111W        W 8505  31.601  21.547  10.479
40112W        W 8506  24.964  44.920   2.124
40113W        W 8507  28.104   7.102  11.217
40114W        W 8508  15.677  19.157   4.535
40115W        W 8509  23.295  39.528  11.162
40116W        W 8510  34.455  41.233   1.468
40117W        W 8511  24.040  42.248   2.252
40118W        W 8512  19.733  28.640  12.515
40119W        W 8513  18.709  25.307  11.176
40120W        W 8514  39.871   5.159   1.128
40121W        W 8515  33.190  33.422  10.116
40122W        W 8516   5.285  41.073  14.451
40123W        W 8517  20.807  41.378   2.004
40124W        W 8518  26.989  41.665  11.175
40125W        W 8519  43.780  41.338   4.298
40126W        W 8520  44.819  38.831  14.945
40127W        W 8521   6.268  24.649   2.059
40128W        W 8522  26.111  12.252  10.130
40129W        W 8523  44.529   6.944   5.042
40130W        W 8524  25.153  13.185  14.380
40131W        W 8525  36.349   6.575   0.264
40132W        W 8526  37.962  41.729   4.129
40133W        W 8527   2.491  24.502   1.222
40134W        W 8528  15.590  32.629   1.382
40135W        W 8529   9.875  38.192  12.432
40136W        W 8530   0.296  10.124  14.250
40137W        W 8531  15.348  31.424  12.421
40138W        W 8532  19.128  26.684   1.512
40139W        W 8533   2.843  14.143   2.171
40140W        W 8534  42.536   0.492  14.029
40141W        W 8535  39.357  43.474   3.943
40142W        W 8536  28.519  31.685  14.025
40143W        W 8537  10.087   4.724   0.253
40144W        W 8538  26.644  28.225  10.529
40145W        W 8539  10.729  26.176   2.188
40146W        W 8540  28.025   8.767  11.981
40147W        W 8541   3.648   3.362  12.988
40148W        W 8542  29.373  17.408   4.709
40149W        W 8543   0.367  10.823  12.608
40150W        W 8544  18.803   5.277   0.796
40151W        W 8545   6.813  24.607  12.399
40152W        W 8546  36.157  44.392  11.080
40153W        W 8547  26.521  34.032   0.773
40154W        W 8548  34.277  32.514  13.444
40155W        W 8549  29.471  13.270  11.897
40156W        W 8550  39.720  20.312   1.207
40157W        W 8551  17.708  24.041  10.708
40158W        W 8552   5.164  35.734   2.775
40159W        W 8553  17.779  35.971  10.357
40160W        W 8554  14.569  16.150   1.222
40161W        W 8555  33.943  41.314  14.198
40162W        W 8556  11.963  40.385  11.578
40163W        W 8557   9.433   4.513  11.044
40164W        W 8558  12.239   9.880   1.823
40165W        W 8559  30.817  15.137   3.145
40166W        W 8560  11.297  26.608  14.753
40167W        W 8561  42.522  33.609   1.777
40168W        W 8562  19.283  15.552   2.708
40169W        W 8563  41.808  31.192  13.309
40170W        W 8564  42.379  14.887   1.763
40171W        W 8565  11.224  12.075   2.360
40172W        W 8566  24.627  39.800   2.878
40173W        W 8567   8.700  42.403  12.977
40174W        W 8568  25.193  35.259   2.290
40175W        W 8569  28.815  23.199  11.183
40176W        W 8570   1.410  32.566  10.671
40177W        W 8571  37.421  44.507   2.119
40178W        W 8572  40.510  20.776  14.025
40179W        W 8573  18.994  10.281   4.846
40180W        W 8574  22.457  14.745  11.496
40181W        W 8575  32.289  37.918  13.538
40182W        W 8576  30.145  20.480   1.304
40183W        W 8577  34.148  35.643   1.690
40184W        W 8578  36.354  32.020  14.610
40185W        W 8579  25.959  24.761  12.568
40186W        W 8580  13.328  43.055  12.539
40187W        W 8581  29.731  24.455  13.985
40188W        W 8582  39.879  38.913  14.195
40189W        W 8583  35.474  30.407  11.633
40190W        W 8584  10.674   7.214  10.803
40191W        W 8585  38.376  31.398  14.417
40192W        W 8586  27.834  19.632  11.667
40193W        W 8587  12.673  16.933   3.649
40194W        W 8588   9.801  37.690  12.285
40195W        W 8589  44.429  25.638  14.040
40196W        W 8590  29.965   2.958  12.814
40197W        W 8591  41.036   8.909  14.429
40198W        W 8592  31.677   6.803  11.184
40199W        W 8593  30.627   9.425   4.497
40200W        W 8594  15.271  37.397   0.856
40201W        W 8595  43.256  28.975  10.747
40202W        W 8596  35.489  36.589  11.263
40203W        W 8597   9.132   8.342  11.691
40204W        W 8598  32.087  13.052   1.255
40205W        W 8599  31.901  44.212   0.989
40206W        W 8600  20.984   9.424   3.701
40207W        W 8601   5.639  18.287  14.938
40208W        W 8602  30.776   9.803   4.182
40209W        W 8603  10.758  12.820  10.365
40210W        W 8604  22.281  35.690   2.756
40211W        W 8605  13.340  44.418   5.017
40212W        W 8606  36.407  38.578  14.390
40213W        W 8607   6.363  39.722  14.102
40214W        W 8608   3.353  16.225   2.639
40215W        W 8609  43.064  35.610   1.952
40216W        W 8610  16.152  42.676   1.145
40217W        W 8611  38.586  42.569   3.814
40218W        W 8612  34.838  16.219   1.980
40219W        W 8613  22.761  33.680   4.930
40220W        W 8614  31.594   2.493  11.628
40221W        W 8615  25.160  37.733   2.362
40222W        W 8616  15.353   5.222  14.892
40223W        W 8617  20.610  34.618   2.879
40224W        W 8618   6.381   0.214   0.828
40225W        W 8619  31.445   9.577   3.193
40226W        W 8620  27.452  40.266  10.688
40227W        W 8621  30.528   1.992   4.266
40228W        W 8622  26.848  37.815  13.850
40229W        W 8623  18.691  44.775   4.505
40230W        W 8624  17.777  20.487  11.489
40231W        W 8625  37.866  39.497  10.671
40232W        W 8626   4.002  42.349  10.961
40233W        W 8627  34.394  41.269  10.799
40234W        W 8628   0.045   5.250  11.562
40235W        W 8629   0.437  26.141   0.420
40236W        W 8630  39.271   5.912   3.211
40237W        W 8631  23.256  30.458   3.058
40238W        W 8632  35.513  35.523   2.803
40239W        W 8633  38.482  13.492   5.076
40240W        W 8634  44.437  42.526   1.299
40241W        W 8635  40.511  17.133   3.768
40242W        W 8636  28.244   5.101   1.646
40243W        W 8637  20.462  13.301  11.989
40244W        W 8638  15.640  19.609   0.394
40245W        W 8639  17.713  10.878  12.567
40246W        W 8640  11.772   5.532   1.266
40247W        W 8641  44.781  44.427   3.017
40248W        W 8642  39.934  26.037   2.397
40249W        W 8643  23.510  22.327  10.837
40250W        W 8644  29.912  14.068  14.258
40251W        W 8645  29.090  17.811   4.837
40252W        W 8646  43.537  41.277  10.673
40253W        W 8647  29.118  19.079   4.394
40254W        W 8648   8.474  32.804   3.254
40255W        W 8649  35.681  23.224   3.198
40256W        W 8650  37.369  25.987  14.228
40257W        W 8651   2.415  14.474   2.368
40258W        W 8652   1.785  19.703  14.441
40259W        W 8653  13.094   4.314   1.843
40260W        W 8654  18.545  11.881   2.947
40261W        W 8655  26.669  35.126   3.556
40262W        W 8656  37.999  19.538   0.314
40263W        W 8657  12.337  39.892  13.383
40264W        W 8658   2.423   5.919  10.670
40265W        W 8659  28.592  20.602   3.658
40266W        W 8660   0.983   2.688  11.027
40267W        W 8661  37.281  10.669  12.063
40268W        W 8662   0.693  34.556   2.287
40269W        W 8663  22.655  41.522   1.852
40270W        W 8664  23.702   1.298   3.187
40271W        W 8665  19.599  32.208   3.178
40272W        W 8666  40.459   0.045  14.481
40273W        W 8667  31.148  28.367   4.323
40274W        W 8668  27.062   9.004  14.032
40275W        W 8669  40.518  16.617  12.810
40276W        W 8670  37.159  16.254  14.439
40277W        W 8671   1.309   7.278  10.692
40278W        W 8672  29.100   4.895   0.222
40279W        W 8673   1.337  31.578  13.028
40280W        W 8674   2.304  19.558  10.248
40281W        W 8675  19.571  38.849   4.570
40282W        W 8676  30.207   0.687   3.106
40283W        W 8677  42.341   3.409   3.839
40284W        W 8678  17.029   3.209   1.891
40285W        W 8679   9.284  43.837  11.088
40286W        W 8680   3.762   3.011  12.237
40287W        W 8681  17.414  16.093  11.454
40288W        W 8682  37.994   5.275   0.375
40289W        W 8683  35.842   2.476  13.955
40290W        W 8684  41.561  44.043   4.174
40291W        W 8685   1.774  10.722   0.341
40292W        W 8686   1.562  18.457  13.810
40293W        W 8687   5.495  43.786   1.933
40294W        W 8688   6.891  39.573  10.664
40295W        W 8689  27.746  17.189  14.046
40296W        W 8690  17.715  29.536   3.671
40297W        W 8691  18.331   8.682   1.139
40298W        W 8692  19.762  40.947  14.020
40299W        W 8693  10.041  37.790  11.180
40300W        W 8694  32.952  12.358   2.991
40301W        W 8695  11.721   5.964  11.484
40302W        W 8696  25.478  17.566   0.662
40303W        W 8697  10.216   2.628   1.295
40304W        W 8698  44.957  21.140   1.889
40305W        W 8699  16.283  41.707  14.598
40306W        W 8700  39.719  40.980   4.629
40307W        W 8701   5.940  15.160  12.153
40308W        W 8702   3.175  38.776  14.032
40309W        W 8703  41.114  44.239  12.969
40310W        W 8704  11.670  34.387   3.851
40311W        W 8705  33.818  31.129   3.071
40312W        W 8706  42.765   2.814  11.232
40313W        W 8707  37.385  23.690  11.063
40314W        W 8708  22.610  12.428  10.262
40315W        W 8709   9.256  35.936  13.009
40316W        W 8710  43.467  28.074   4.283
40317W        W 8711  13.798  17.538  11.843
40318W        W 8712   3.761  11.680   2.842
40319W        W 8713  37.061  35.902   3.179
40320W        W 8714   2.600  22.657   4.189
40321W        W 8715  13.738  28.018  11.035
40322W        W 8716  28.007  38.033   2.245
40323W        W 8717  40.931  19.837   4.925
40324W        W 8718  24.128  39.428  10.705
40325W        W 8719  37.009  10.359  10.780
40326W        W 8720  35.438  19.957   3.841
40327W        W 8721   5.109  40.737  14.104
40328W        W 8722  28.598  11.929  11.192
40329W        W 8723   4.419  32.595  12.480
40330W        W 8724  41.705  27.838   0.847
40331W        W 8725  31.573   2.090   3.237
40332W        W 8726  21.619  26.665   0.078
40333W        W 8727  37.087  30.155  11.055
40334W        W 8728  31.970  36.642   3.046
40335W        W 8729  31.793  37.330  13.001
40336W        W 8730   0.225  28.588   0.837
40337W        W 8731  27.631  29.638   3.278
40338W        W 8732  36.614   7.804   0.749
40339W        W 8733  34.271  12.874   3.538
40340W        W 8734  39.958   5.303  12.040
40341W        W 8735  28.089  18.682   3.781
40342W        W 8736   6.159   6.479   1.323
40343W        W 8737  36.775  42.338  12.947
40344W        W 8738  33.530  21.073   2.150
40345W        W 8739  42.896  27.537  14.964
40346W        W 8740  39.359  27.025   4.410
40347W        W 8741  16.300  36.322   1.776
40348W        W 8742  20.046  17.310   3.561
40349W        W 8743  36.270  37.191   3.462
40350W        W 8744  22.208  42.997   4.245
40351W        W 8745  39.593  25.425  13.067
40352W        W 8746   8.869  37.355  14.798
40353W        W 8747  17.495  33.946   1.731
40354W        W 8748  40.012  37.354  12.313
40355W        W 8749  44.831  41.471   1.708
40356W        W 8750  42.553  11.343  11.322
40357W        W 8751   1.782  14.568  11.049
40358W        W 8752   7.383  44.359   1.709
40359W        W 8753   3.778  24.197  14.789
40360W        W 8754  39.073   2.881  11.336
40361W        W 8755  23.973  31.481  11.454
40362W        W 8756   1.239  44.005   4.609
40363W        W 8757  29.765  29.116   3.293
40364W        W 8758  11.322  41.824   4.145
40365W        W 8759   8.770  35.815  12.810
40366W        W 8760  13.899  10.681   3.289
40367W        W 8761  43.884   0.218   0.238
40368W        W 8762   5.202  35.415   3.202
40369W        W 8763   6.944   0.683  11.290
40370W        W 8764  24.101  31.855   3.999
40371W        W 8765  29.745  14.655   4.024
40372W        W 8766   1.684   3.766  12.700
40373W        W 8767  28.617  19.349   0.213
40374W        W 8768  33.079   1.715  10.312
40375W        W 8769  30.141  26.222  12.065
40376W        W 8770   4.696  34.419  14.387
40377W        W 8771  38.403   7.901   3.256
40378W        W 8772  32.037  28.127  12.892
40379W        W 8773  22.462  24.927   2.781
40380W        W 8774  13.258  38.054  11.859
40381W        W 8775  13.252  37.968  14.352
40382W        W 8776   4.001  26.702   2.997
40383W        W 8777  26.682   6.420   2.021
40384W        W 8778  12.943  37.404  12.232
40385W        W 8779  17.243  23.894   2.890
40386W        W 8780  12.481  22.114  12.895
40387W        W 8781  27.864   0.920   4.616
40388W        W 8782  19.894  16.302   4.955
40389W        W 8783  11.205  38.126   4.485
40390W        W 8784   5.734  11.818  11.445
40391W        W 8785   1.017  29.870  10.497
40392W        W 8786  36.814  30.160   0.440
40393W        W 8787  14.633  10.412  11.910
40394W        W 8788  32.112   3.505   1.798
40395W        W 8789  26.475  44.367  11.680
40396W        W 8790  38.907   2.574  12.894
40397W        W 8791   6.358   3.868   4.501
40398W        W 8792   5.961   4.856  11.373
40399W        W 8793  30.885  31.543   2.278
40400W        W 8794  15.233  13.978   0.375
40401W        W 8795  40.906   4.815   3.223
40402W        W 8796  29.160  27.858   4.567
40403W        W 8797  33.317  13.303  13.954
40404W        W 8798  29.312   7.264   0.001
40405W        W 8799  21.972   4.803  13.505
40406W        W 8800  31.237   5.672  13.924
40407W        W 8801  23.027  28.656   2.265
40408W        W 8802   1.051  27.873  12.438
40409W        W 8803  41.891  20.983   2.574
40410W        W 8804  41.490  35.944   4.601
40411W        W 8805   2.454  28.615   0.857
40412W        W 8806  27.767  40.257  11.558
40413W        W 8807   8.465   1.406  12.926
40414W        W 8808   9.814   0.829  12.577
40415W        W 8809   4.607  37.686  14.941
40416W        W 8810   1.912  17.361  13.414
40417W        W 8811  41.811  11.887   1.856
40418W        W 8812  31.029  35.215  13.011
40419W        W 8813  38.556  43.017  12.916
40420W        W 8814  17.524  40.309   3.776
40421W        W 8815  26.133  25.270  14.330
40422W        W 8816  44.326  44.082  13.808
40423W        W 8817   2.023  33.595  12.457
40424W        W 8818   2.211  22.602  12.415
40425W        W 8819   0.100   5.706   0.332
40426W        W 8820  12.225   9.421  12.843
40427W        W 8821  12.702  21.208   2.908
40428W        W 8822  42.748  33.561  10.962
40429W        W 8823  39.400  39.517  12.611
40430W        W 8824  29.492  33.499  11.712
40431W        W 8825   8.843  36.492   3.653
40432W        W 8826  43.560  27.556  12.989
40433W        W 8827   4.600  39.290  13.426
40434W        W 8828  37.292  39.079  14.540
40435W        W 8829   6.762  32.174   2.707
40436W        W 8830   2.178   2.254   2.661
40437W        W 8831   7.159  29.039  11.199
40438W        W 8832  23.721  27.770  11.158
40439W        W 8833   4.838  36.680  14.905
40440W        W 8834   2.208   6.587  11.236
40441W        W 8835  17.695   4.701   2.749
40442W        W 8836  13.108  31.462  13.905
40443W        W 8837  36.016  33.995   2.389
40444W        W 8838  28.344   6.688  11.827
40445W        W 8839  20.822  14.364  14.334
40446W        W 8840  26.592  33.419   0.013
40447W        W 8841  32.579  25.506   4.231
40448W        W 8842  19.317  34.102   4.563
40449W        W 8843  10.399  30.505  13.061
40450W        W 8844  26.603   0.257  11.152
40451W        W 8845  17.557  36.684  14.030
40452W        W 8846  42.282  14.652  11.227
40453W        W 8847   7.314  11.387   1.342
40454W        W 8848  24.236  35.525   2.197
40455W        W 8849  29.037  18.637   2.823
40456W        W 8850  14.343   2.193  14.246
40457W        W 8851  42.951  23.880   5.182
40458W        W 8852  21.119  15.043   3.060
40459W        W 8853  39.511   6.766  14.566
40460W        W 8854  19.056  34.045  14.206
40461W        W 8855  11.506  16.313   1.421
40462W        W 8856   3.917  33.106   2.834
40463W        W 8857  41.958  37.012   3.139
40464W        W 8858  44.749  39.544  11.580
40465W        W 8859  20.456   2.771  13.835
40466W        W 8860   9.165  27.800   1.103
40467W        W 8861  32.056  42.181  13.811
40468W        W 8862   6.277  35.592  13.444
40469W        W 8863  35.696  34.326  14.882
40470W        W 8864   8.366  30.810  10.253
40471W        W 8865  20.010  44.905  12.128
40472W        W 8866  21.277  17.289  11.056
40473W        W 8867   2.973  27.195   2.683
40474W        W 8868  12.586  10.179   4.823
40475W        W 8869  42.273  41.812   2.682
40476W        W 8870  19.763  19.113  13.005
40477W        W 8871  38.059  35.339  13.805
40478W        W 8872  37.769  38.411  13.874
40479W        W 8873  27.206  32.543  14.680
40480W        W 8874  35.370  11.575  10.511
40481W        W 8875   8.657  26.021   5.140
40482W        W 8876  38.833  43.652   3.881
40483W        W 8877   4.667  29.354   3.205
40484W        W 8878   4.683   2.984  10.206
40485W        W 8879  13.794   2.314  14.694
40486W        W 8880  19.304  40.581   4.135
40487W        W 8881  33.991  28.679  14.359
40488W        W 8882   7.178  14.610  12.768
40489W        W 8883   1.504  27.786   4.183
40490W        W 8884  10.328  13.070   0.324
40491W        W 8885   1.267  43.921  12.833
40492W        W 8886  21.139  23.660   2.413
40493W        W 8887  27.035  19.837   0.023
40494W        W 8888   4.870  39.653  11.395
40495W        W 8889  29.513   5.299   4.248
40496W        W 8890  42.358   3.743  13.772
40497W        W 8891   0.238  31.171  11.016
40498W        W 8892  23.491  30.955  13.442
40499W        W 8893  25.541  29.745  11.234
40500W        W 8894  38.808  21.687  12.785
40501W        W 8895  10.878  22.943  14.283
40502W        W 8896   7.612   3.330   1.398
40503W        W 8897   7.899  23.074  13.499
40504W        W 8898   0.932  25.316   2.287
40505W        W 8899  20.157   2.383   4.231
40506W        W 8900  22.506  39.744  11.670
40507W        W 8901  24.621  26.080   3.363
40508W        W 8902  36.566   5.250  14.521
40509W        W 8903  28.468  33.083   4.076
40510W        W 8904  25.529   1.529  10.226
40511W        W 8905  13.594  16.596  14.390
40512W        W 8906   6.530   5.166   3.288
40513W        W 8907  20.759  44.560  14.455
40514W        W 8908  18.719  38.398  12.512
40515W        W 8909  41.595  35.624   4.188
40516W        W 8910  15.561  42.295  10.781
40517W        W 8911  31.898  28.194  11.602
40518W        W 8912  24.461   8.651  14.597
40519W        W 8913   6.144   7.303  12.330
40520W        W 8914  23.247  44.840   4.379
40521W        W 8915  18.441   2.736  13.817
40522W        W 8916  37.999  24.152   1.416
40523W        W 8917  26.734  21.983   4.164
40524W        W 8918  41.226  24.933  10.776
40525W        W 8919  29.056   6.794  11.052
40526W        W 8920  13.204  20.618   4.027
40527W        W 8921   1.600  24.940  13.939
40528W        W 8922   9.516  19.796  13.960
40529W        W 8923  20.115  31.916   2.954
40530W        W 8924   6.956  29.307  12.520
40531W        W 8925  19.437  15.458   3.786
40532W        W 8926  13.110   5.207   5.001
40533W        W 8927   6.597  19.514   1.254
40534W        W 8928  38.320  34.425   2.298
40535W        W 8929  37.691   1.984   0.337
40536W        W 8930  20.256  15.434  11.507
40537W        W 8931  22.700  27.682  14.980
40538W        W 8932  41.218  33.432  13.443
40539W        W 8933  34.826  36.313   0.782
40540W        W 8934  31.582  39.571   0.759
40541W        W 8935   2.947  28.735   4.226
40542W        W 8936  16.408  18.089  14.084
40543W        W 8937  25.692  24.592   2.338
40544W        W 8938   7.905  13.198   4.067
40545W        W 8939  22.979   0.586  11.434
40546W        W 8940  24.298  23.130  11.244
40547W        W 8941  36.553  19.516  12.038
40548W        W 8942   6.490  42.537   2.612
40549W        W 8943  22.600  29.459   2.788
40550W        W 8944  30.233   7.452   0.401
40551W        W 8945  21.593   4.910  12.184
40552W        W 8946  19.553   7.892   2.284
40553W        W 8947  32.944  25.728  14.315
40554W        W 8948  37.325   7.930  14.786
40555W        W 8949   4.265  22.960  14.441
40556W        W 8950  37.803  44.968  13.696
40557W        W 8951   9.879   5.853   0.460
40558W        W 8952   5.951  37.673  11.507
40559W        W 8953   0.165  18.193   2.476
40560W        W 8954  16.632  19.579   1.309
40561W        W 8955  32.638  39.865   2.227
40562W        W 8956  15.173   1.958  13.393
40563W        W 8957  31.613   7.975  12.510
40564W        W 8958   0.077  13.075  10.927
40565W        W 8959  29.128   1.521   3.207
40566W        W 8960  14.744   2.324   4.886
40567W        W 8961  21.246  39.144   1.821
40568W        W 8962   7.307  14.474   1.638
40569W        W 8963   8.777  28.437  11.631
40570W        W 8964  38.836  32.909  13.358
40571W        W 8965  35.921  37.357   3.821
40572W        W 8966  11.663  36.642  11.561
40573W        W 8967  23.772  37.428   2.171
40574W        W 8968  40.001  34.846   3.794
40575W        W 8969  19.559   8.227  12.490
40576W        W 8970  37.050  35.079  11.537
40577W        W 8971  37.659  19.332   4.101
40578W        W 8972  29.142  34.717   4.973
40579W        W 8973  34.054  19.082  10.815
40580W        W 8974  27.511   6.896   2.902
40581W        W 8975  10.926   5.892  12.644
40582W        W 8976  19.228  11.675  14.202
40583W        W 8977  32.704  42.419   3.040
40584W        W 8978   9.130   0.841   2.492
40585W        W 8979  35.567  12.678  11.153
40586W        W 8980   8.447   8.228   1.831
40587W        W 8981  19.683  27.379  10.862
40588W        W 8982  16.657  35.115  11.953
40589W        W 8983  32.505   6.352  14.083
40590W        W 8984  20.473  42.391  12.637
40591W        W 8985  17.948  37.445  11.220
40592W        W 8986  32.480  25.294  10.643
40593W        W 8987  37.892  20.446  14.333
40594W        W 8988  15.919  40.143   1.891
40595W        W 8989   1.757  18.654  12.093
40596W        W 8990   7.507  22.574  10.628
40597W        W 8991  30.017  30.980   2.915
40598W        W 8992  13.752  30.604   1.320
40599W        W 8993   3.933  13.245   1.889
40600W        W 8994  13.256  31.042   2.660
40601W        W 8995   4.426  22.478  14.329
40602W        W 8996  15.350  25.928   0.394
40603W        W 8997  23.099  18.620   2.335
40604W        W 8998  34.654  23.106   4.812
40605W        W 8999  44.670  40.420   2.435
40606W        W 9000  25.580  30.039  10.796
40607W        W 9001  19.756  24.521  13.493
40608W        W 9002  21.722  37.546   4.537
40609W        W 9003   2.459  18.642  13.830
40610W        W 9004  17.809  33.008  11.441
40611W        W 9005  34.700  42.097  12.412
40612W        W 9006  12.558  33.492   4.224
40613W        W 9007  26.733  27.988  12.763
40614W        W 9008  19.601  19.700  11.387
40615W        W 9009  33.957  34.942   0.921
40616W        W 9010  41.936  11.122  10.838
40617W        W 9011  26.527   8.959   2.710
40618W        W 9012   1.219  31.183   1.949
40619W        W 9013  41.799  44.356  13.508
40620W        W 9014  43.416  16.756  13.077
40621W        W 9015   4.766   4.988   4.430
40622W        W 9016  18.618  44.363   2.093
40623W        W 9017  32.356  23.671  11.482
40624W        W 9018  10.909  18.698   0.107
40625W        W 9019  28.720  14.331  10.564
40626W        W 9020   8.407  25.890   9.691
40627W        W 9021   5.993  16.004   1.810
40628W        W 9022  40.516  40.535   1.774
40629W        W 9023  39.768  20.591   0.332
40630W        W 9024  32.993  31.557   5.005
40631W        W 9025  18.820   0.066  14.438
40632W        W 9026  11.726  39.665  10.219
40633W        W 9027  43.991   0.794  13.936
40634W        W 9028  27.918  18.512  13.939
40635W        W 9029  25.944  37.845  12.941
40636W        W 9030  34.394  13.872  13.076
40637W        W 9031  11.237  15.226   2.827
40638W        W 9032   3.399  43.852   3.889
40639W        W 9033  29.390   7.105   4.073
40640W        W 9034   6.304   7.584  12.754
40641W        W 9035  35.144  29.722   1.173
40642W        W 9036  27.134  42.775   1.220
40643W        W 9037  28.144  31.651  14.478
40644W        W 9038   7.896  32.039  14.314
40645W        W 9039  30.420  44.899   0.000
40646W        W 9040  38.583  40.587   4.861
40647W        W 9041  40.470  20.592   4.180
40648W        W 9042  44.891   5.248  13.829
40649W        W 9043  31.015  39.481   1.709
40650W        W 9044  28.944  16.624  11.204
40651W        W 9045  39.253  23.181   2.810
40652W        W 9046  11.661  11.066   0.205
40653W        W 9047  38.547  36.148   0.348
40654W        W 9048   2.276   7.440  11.920
40655W        W 9049  18.601   0.619  12.295
40656W        W 9050  41.398  26.935  10.697
40657W        W 9051  34.403  29.391   4.219
40658W        W 9052  39.309  41.995  10.764
40659W        W 9053   8.223   4.276   0.201
40660W        W 9054  25.366  24.103   2.979
40661W        W 9055  11.650  26.202  12.387
40662W        W 9056  16.289  28.084  12.371
40663W        W 9057  41.480  34.258   4.770
40664W        W 9058  43.022  26.679  12.866
40665W        W 9059  42.332  25.570   4.109
40666W        W 9060  38.147  15.313   0.776
40667W        W 9061  21.019  17.725  11.177
40668W        W 9062  41.104  10.700  12.459
40669W        W 9063  35.638   9.075  11.987
40670W        W 9064  29.978  21.659  12.039
40671W        W 9065  28.766  25.616  13.832
40672W        W 9066  29.509  40.954  12.790
40673W        W 9067  17.322  24.568   2.289
40674W        W 9068  44.486   1.259   1.457
40675W        W 9069  32.073  43.059   0.393
40676W        W 9070   1.152   4.576  12.010
40677W        W 9071  19.064   4.976   4.025
40678W        W 9072  22.685   4.878   3.184
40679W        W 9073   5.532  31.501   1.059
40680W        W 9074  38.483   0.319   2.183
40681W        W 9075   6.852  35.048   2.916
40682W        W 9076  17.273   5.232   1.785
40683W        W 9077   8.569  30.510  13.871
40684W        W 9078   3.302  33.334   3.194
40685W        W 9079  44.501  11.293  14.447
40686W        W 9080  43.380  25.440   1.600
40687W        W 9081   8.118  13.668  13.308
40688W        W 9082  13.794  21.819  10.909
40689W        W 9083  21.199   9.968   1.728
40690W        W 9084  38.371  27.453   0.832
40691W        W 9085  14.761  35.807  14.823
40692W        W 9086  20.711  26.564   2.722
40693W        W 9087  14.425   2.936  13.919
40694W        W 9088  11.690  32.667  14.099
40695W        W 9089  28.591  39.340   4.429
40696W        W 9090  43.322  43.277  11.523
40697W        W 9091  28.595  44.264  11.452
40698W        W 9092  20.799  19.210   4.522
40699W        W 9093  44.446  33.063   3.067
40700W        W 9094   5.532  14.001  12.568
40701W        W 9095   8.287  27.555  13.604
40702W        W 9096  26.184  30.618  11.465
40703W        W 9097  11.797  31.448   0.260
40704W        W 9098  17.582  40.542  14.735
40705W        W 9099  26.162  40.052  12.643
40706W        W 9100   5.187  44.355  11.663
40707W        W 9101  26.949  33.550  10.763
40708W        W 9102  13.854  23.190  13.790
40709W        W 9103  10.742  31.418   2.670
40710W        W 9104  34.985  28.774  12.322
40711W        W 9105  13.260  30.660   1.402
40712W        W 9106  38.935  32.273   2.153
40713W        W 9107  28.597  19.254   2.285
40714W        W 9108  34.012   8.598   3.761
40715W        W 9109  28.442  18.582   4.179
40716W        W 9110  24.105  23.542  11.478
40717W        W 9111  26.604  11.607   3.474
40718W        W 9112  12.122  38.112  10.575
40719W        W 9113  18.187  16.741  12.206
40720W        W 9114  14.579  43.927   4.942
40721W        W 9115  36.430  20.095  13.445
40722W        W 9116  10.183  16.246   4.562
40723W        W 9117  27.656  41.778  13.981
40724W        W 9118  19.634  16.420   1.036
40725W        W 9119   7.691  35.769   1.507
40726W        W 9120  42.238  42.553  14.896
40727W        W 9121  16.681  19.837   3.691
40728W        W 9122  19.537  34.963  13.219
40729W        W 9123  34.803  39.523   2.212
40730W        W 9124   5.719  23.437   1.025
40731W        W 9125  40.936  29.456   4.570
40732W        W 9126  43.714   1.711   2.367
40733W        W 9127  11.718   3.442   2.311
40734W        W 9128  26.011  22.639   0.471
40735W        W 9129  31.951   0.393   3.801
40736W        W 9130  35.086  12.590   0.406
40737W        W 9131  10.229   6.908   3.745
40738W        W 9132   5.221  16.413  10.123
40739W        W 9133  11.337  38.510   1.799
40740W        W 9134  24.720  22.138  10.409
40741W        W 9135  44.414   2.711   1.391
40742W        W 9136  17.601  34.787  10.403
40743W        W 9137  11.955   3.870  10.739
40744W        W 9138  12.278  23.311   0.928
40745W        W 9139  16.425  17.967  10.663
40746W        W 9140  20.719  14.400   4.954
40747W        W 9141  29.700  30.218  14.326
40748W        W 9142  27.708  32.828  13.932
40749W        W 9143   9.882  22.029   2.750
40750W        W 9144   6.130  36.972   2.302
40751W        W 9145  40.539  37.417   4.508
40752W        W 9146  13.759  22.346  10.260
40753W        W 9147  41.478  22.161   3.907
40754W        W 9148  25.126  17.117   2.871
40755W        W 9149  34.097  22.637   2.198
40756W        W 9150  37.361   2.798  13.506
40757W        W 9151   9.735  44.233  12.340
40758W        W 9152  34.376  18.351  14.117
40759W        W 9153  23.100   1.055  11.991
40760W        W 9154  36.943  11.382   1.869
40761W        W 9155  23.962  17.844  11.106
40762W        W 9156   4.815  33.384  13.434
40763W        W 9157  37.841  28.733  13.343
40764W        W 9158  18.636  39.307  11.608
40765W        W 9159  18.668   9.408  13.870
40766W        W 9160  26.775  29.277   5.108
40767W        W 9161  16.235   6.376   3.148
40768W        W 9162  10.344  35.436  12.546
40769W        W 9163   3.155   6.402   3.232
40770W        W 9164  38.307  40.432  13.388
40771W        W 9165  30.091   8.380   2.880
40772W        W 9166  26.921  15.523   3.028
40773W        W 9167  31.954  44.889   4.869
40774W        W 9168  25.671  24.174  14.844
40775W        W 9169  39.263   1.759   4.699
40776W        W 9170   8.566  27.181   0.726
40777W        W 9171  25.954  27.994   2.943
40778W        W 9172  18.595  11.092   3.324
40779W        W 9173  23.301  11.889   3.164
40780W        W 9174  10.960  23.766   1.118
40781W        W 9175  13.672   9.952  13.083
40782W        W 9176  10.576  35.538   1.273
40783W        W 9177  42.325  44.394   1.893
40784W        W 9178  25.674  26.079   0.317
40785W        W 9179  22.492  30.449   0.445
40786W        W 9180  36.366  25.634   1.895
40787W        W 9181  19.450  19.960  14.449
40788W        W 9182  33.717   3.836   3.170
40789W        W 9183  38.012  14.093   1.718
40790W        W 9184   5.395  37.999   2.456
40791W        W 9185  10.230  34.502   3.340
40792W        W 9186   2.192   1.272  12.021
40793W        W 9187  26.654  44.415   1.870
40794W        W 9188  12.973   6.555   5.535
40795W        W 9189  22.076   8.748  12.575
40796W        W 9190  24.645   1.391   3.985
40797W        W 9191  20.429  41.822  13.755
40798W        W 9192  27.943   3.088   4.175
40799W        W 9193  12.069  19.671  12.935
40800W        W 9194   6.635  31.222  12.148
40801W        W 9195  36.014  39.063  14.810
40802W        W 9196   1.391  31.963  12.092
40803W        W 9197  23.646  41.818   4.222
40804W        W 9198  28.535  30.434   3.669
40805W        W 9199  28.985  17.369  11.665
40806W        W 9200   3.781  19.146  12.634
40807W        W 9201  30.122  23.018   0.762
40808W        W 9202  37.910  24.166  11.094
40809W        W 9203  28.523  31.826  13.526
40810W        W 9204  36.450  27.041  13.340
40811W        W 9205  17.070  11.081  11.113
40812W        W 9206  14.135  37.679   1.860
40813W        W 9207  30.187  11.718   4.143
40814W        W 9208  37.834  33.028  10.304
40815W        W 9209  17.443  31.406  13.952
40816W        W 9210  42.962  11.763  12.896
40817W        W 9211  19.723  44.749   4.660
40818W        W 9212  20.197  14.338   3.456
40819W        W 9213  23.999  30.993  13.377
40820W        W 9214  36.829  27.067  11.114
40821W        W 9215  22.242  23.013   0.401
40822W        W 9216   7.041  41.344   3.162
40823W        W 9217   5.932  41.066  12.527
40824W        W 9218  34.881   0.216  13.302
40825W        W 9219  12.742  10.124   1.275
40826W        W 9220  30.581  39.024  12.821
40827W        W 9221  11.360  21.681  11.909
40828W        W 9222   4.247  22.533  10.682
40829W        W 9223  17.637  32.161  11.234
40830W        W 9224   5.782  26.676  11.882
40831W        W 9225  28.173  28.668   1.265
40832W        W 9226  13.248  41.084  13.378
40833W        W 9227  17.544  29.538   4.165
40834W        W 9228   3.383  42.853  10.954
40835W        W 9229  36.487   7.358   1.833
40836W        W 9230  25.065  24.039   2.092
40837W        W 9231  24.876   8.372  12.730
40838W        W 9232  26.913  23.024   4.312
40839W        W 9233  34.418  32.708  12.980
40840W        W 9234  34.467  29.650   4.709
40841W        W 9235   7.715  29.341   0.883
40842W        W 9236  14.152  18.325   0.028
40843W        W 9237   6.236  34.405   2.657
40844W        W 9238  17.866  35.303   2.935
40845W        W 9239   5.328   1.559   2.174
40846W        W 9240   9.006  35.475   1.470
40847W        W 9241   2.239  28.904   4.579
40848W        W 9242   3.838  30.653  14.364
40849W        W 9243  39.327  23.725   4.568
40850W        W 9244  37.391  23.682   3.674
40851W        W 9245  12.220  36.059  13.755
40852W        W 9246  44.862  27.871  14.288
40853W        W 9247  38.754  28.360   5.126
40854W        W 9248  37.651   9.401  11.124
40855W        W 9249  31.209  13.045  13.018
40856W        W 9250  37.109  28.624  11.188
40857W        W 9251  20.438  10.793   0.677
40858W        W 9252  30.507  13.383   0.745
40859W        W 9253  19.899  11.075   1.446
40860W        W 9254  28.482   1.571   1.877
40861W        W 9255  17.306  15.067  12.560
40862W        W 9256  23.777  12.235  12.125
40863W        W 9257  23.948  30.209   2.487
40864W        W 9258  23.002  15.048   1.839
40865W        W 9259  34.171   4.367  14.244
40866W        W 9260  13.652  36.869  11.782
40867W        W 9261   6.216  35.087  13.648
40868W        W 9262   2.703  14.806   2.764
40869W        W 9263  22.446  14.149   4.079
40870W        W 9264  35.938  31.755  12.639
40871W        W 9265  23.565   4.097  12.357
40872W        W 9266  44.323  12.687   4.274
40873W        W 9267   2.290   2.630  13.284
40874W        W 9268   7.726  22.407   1.248
40875W        W 9269  32.962   9.857   1.993
40876W        W 9270  25.878  20.981   4.533
40877W        W 9271  39.104  38.078   4.218
40878W        W 9272   8.888  38.269   0.176
40879W        W 9273  17.991  20.042  14.860
40880W        W 9274   0.394   0.966  13.126
40881W        W 9275  19.319  15.655   1.883
40882W        W 9276   7.046  36.756   0.420
40883W        W 9277  26.769  16.588   3.211
40884W        W 9278  24.946  28.896  14.461
40885W        W 9279  26.135  29.481   2.854
40886W        W 9280  38.149  37.051   2.359
40887W        W 9281  11.182  12.952   1.032
40888W        W 9282  25.142   9.344   1.868
40889W        W 9283  28.422  10.690  13.138
40890W        W 9284   2.377  40.343  11.125
40891W        W 9285  35.910  32.396  11.221
40892W        W 9286  12.749  21.082   4.390
40893W        W 9287  39.567  17.786  12.071
40894W        W 9288  10.570  12.767   4.103
40895W        W 9289  33.073   1.759   3.368
40896W        W 9290  29.526   2.732  12.974
40897W        W 9291  17.609  31.556  13.475
40898W        W 9292   0.916  18.524  14.383
40899W        W 9293   0.856   3.824  10.693
40900W        W 9294  44.095  42.044  11.050
40901W        W 9295   1.678  12.475   2.914
40902W        W 9296  26.607  13.066  14.003
40903W        W 9297   1.049  36.315   3.253
40904W        W 9298  14.122  19.276   2.148
40905W        W 9299   4.870  21.136   1.353
40906W        W 9300  17.185   4.140  10.226
40907W        W 9301   6.396  26.593   4.846
40908W        W 9302   1.694  31.965   3.098
40909W        W 9303  36.911   4.718  14.884
40910W        W 9304  41.108  20.792  12.461
40911W        W 9305  32.424   4.961  11.192
40912W        W 9306  31.321   1.961   1.730
40913W        W 9307  42.187  37.897   0.000
40914W        W 9308  15.110  20.180   1.896
40915W        W 9309  41.913   2.897   0.809
40916W        W 9310  18.643  14.280   1.941
40917W        W 9311  25.463  20.348   1.395
40918W        W 9312  40.889   4.199  11.674
40919W        W 9313  29.680   9.774   2.600
40920W        W 9314  40.460   0.734  13.328
40921W        W 9315  22.045  21.231  10.424
40922W        W 9316   3.605  37.616  11.235
40923W        W 9317  25.098  15.694  10.754
40924W        W 9318  25.499  37.593  13.053
40925W        W 9319  30.049  20.880   1.014
40926W        W 9320  39.021   9.726   2.766
40927W        W 9321   2.931  17.153   4.763
40928W        W 9322  11.663   1.266   4.831
40929W        W 9323   4.456  19.198  12.011
40930W        W 9324  29.772  19.773  12.212
40931W        W 9325  39.584  17.047  13.543
40932W        W 9326  40.872  39.833  10.496
40933W        W 9327  28.101  30.922  10.752
40934W        W 9328  21.537  30.476  13.798
40935W        W 9329   1.857  34.370   1.923
40936W        W 9330  17.021  23.673  12.898
40937W        W 9331   7.587   5.029  11.174
40938W        W 9332  30.657  20.526  14.680
40939W        W 9333  11.411  19.813   1.175
40940W        W 9334  43.027  19.942   5.142
40941W        W 9335  24.705  17.696  12.334
40942W        W 9336  26.091   5.480  14.864
40943W        W 9337  36.108  43.420   3.343
40944W        W 9338   9.257   0.088  14.008
40945W        W 9339  23.736  18.069  11.944
40946W        W 9340  44.134  31.139   5.361
40947W        W 9341  40.280  29.364   3.997
40948W        W 9342  44.339  27.672   4.068
40949W        W 9343  35.924  14.213   0.802
40950W        W 9344  13.138  38.389   1.384
40951W        W 9345  37.742  33.186  11.682
40952W        W 9346  41.688  23.116  12.760
40953W        W 9347   6.710  34.925  13.519
40954W        W 9348  43.621  40.393   4.643
40955W        W 9349  23.980  20.685  12.979
40956W        W 9350  43.917  36.886  12.913
40957W        W 9351  39.135  31.136  11.506
40958W        W 9352   4.379  36.139  12.425
40959W        W 9353  16.233   3.189   3.558
40960W        W 9354  17.481  29.469  13.811
40961W        W 9355  26.508   0.764  14.594
40962W        W 9356  31.814  24.356   4.586
40963W        W 9357  28.946   8.651   0.814
40964W        W 9358   8.419  15.878  11.423
40965W        W 9359  40.789  12.116   1.035
40966W        W 9360  43.853  29.634   1.728
40967W        W 9361  36.264  36.398  13.427
40968W        W 9362  19.698   4.228   4.962
40969W        W 9363  18.297   2.242  13.961
40970W        W 9364  35.860  19.513   3.328
40971W        W 9365  22.403  20.011  13.327
40972W        W 9366   3.386  42.944  10.455
40973W        W 9367  33.490  18.478   5.028
40974W        W 9368  27.003  13.544  13.545
40975W        W 9369  26.878  21.666   0.279
40976W        W 9370  13.118  29.709   2.445
40977W        W 9371  42.774  30.254  11.991
40978W        W 9372   0.377  29.625  12.562
40979W        W 9373  36.809  37.615   4.105
40980W        W 9374   3.522   5.659   1.328
40981W        W 9375  19.069  23.088   1.769
40982W        W 9376   9.278  10.711  11.045
40983W        W 9377  34.923  31.994   0.828
40984W        W 9378   1.055  33.060   2.484
40985W        W 9379   6.806  41.565   0.366
40986W        W 9380  35.336  21.648   4.762
40987W        W 9381  40.395  34.522  11.244
40988W        W 9382  25.932  29.419   3.322
40989W        W 9383  18.803  14.343   1.436
40990W        W 9384  10.776  41.389  12.944
40991W        W 9385  37.985  27.660  14.883
40992W        W 9386  40.409   5.721  10.312
40993W        W 9387  33.342   6.557  13.181
40994W        W 9388  10.646  25.153  13.844
40995W        W 9389  15.812   0.739   2.299
40996W        W 9390   0.727  11.371  11.580
40997W        W 9391  38.067   3.058   1.373
40998W        W 9392   6.316  32.216   3.302
40999W        W 9393  30.589   2.474   3.144
41000W        W 9394  42.320  33.624   3.126
41001W        W 9395  30.067  40.919   2.743
41002W        W 9396   4.957  44.688   4.817
41003W        W 9397   7.239  40.995   4.297
41004W        W 9398  15.890  21.665  14.536
41005W        W 9399  29.579  20.261  13.885
41006W        W 9400  13.272  24.360   5.084
41007W        W 9401  19.199  11.650  13.207
41008W        W 9402  30.087   1.370   0.015
41009W        W 9403  11.629  40.502  13.818
41010W        W 9404  42.522  34.109   0.795
41011W        W 9405   1.553  29.609   1.283
41012W        W 9406  21.962  25.667   4.930
41013W        W 9407  11.173  22.537   2.683
41014W        W 9408  25.175  43.312  14.822
41015W        W 9409  44.031   1.267  14.331
41016W        W 9410  12.315  27.154   3.837
41017W        W 9411  11.617  43.379   1.224
41018W        W 9412  26.359  29.634   2.391
41019W        W 9413  33.778  23.110  13.119
41020W        W 9414   7.112  21.943   4.099
41021W        W 9415  19.685  23.074   4.289
41022W        W 9416  21.169  42.359   2.796
41023W        W 9417  14.235  14.290   3.529
41024W        W 9418  25.807  33.882   1.646
41025W        W 9419  19.077   4.859  12.856
41026W        W 9420  31.393  11.733   3.334
41027W        W 9421   6.962  28.560  10.704
41028W        W 9422  39.380   3.236  14.299
41029W        W 9423  11.764  12.096  11.025
41030W        W 9424   1.638  36.006   0.406
41031W        W 9425   6.896   0.180  11.385
41032W        W 9426  11.732   2.409  11.988
41033W        W 9427   0.320  22.024  14.982
41034W        W 9428  27.045  37.326  11.120
41035W        W 9429  41.303  32.085  13.860
41036W        W 9430  40.943  37.030  13.898
41037W        W 9431  43.873  35.995   5.381
41038W        W 9432  11.828   0.856   4.567
41039W        W 9433   5.180  18.603   0.884
41040W        W 9434  10.149  42.498   3.117
41041W        W 9435  31.466  33.017  12.452
41042W        W 9436   1.738  12.533  12.232
41043W        W 9437   6.555  22.496   4.516
41044W        W 9438   3.968  30.332  13.955
41045W        W 9439  37.504   7.759  13.292
41046W        W 9440  38.820  31.533   4.919
41047W        W 9441  11.366  37.761  10.179
41048W        W 9442  36.533  27.499  13.103
41049W        W 9443  18.325  13.905  12.045
41050W        W 9444  44.427  10.246   1.886
41051W        W 9445   7.890  41.353   1.439
41052W        W 9446  10.772  37.673   0.549
41053W        W 9447   6.912  31.119  11.021
41054W        W 9448  13.211   4.950  10.293
41055W        W 9449  12.655  31.995   3.443
41056W        W 9450  33.137  18.959   3.635
41057W        W 9451   7.934  21.597   1.712
41058W        W 9452  21.332  28.189   2.684
41059W        W 9453  15.764  36.641   4.978
41060W        W 9454  42.846  34.690   0.862
41061W        W 9455  27.742  37.157   2.260
41062W        W 9456  14.783   6.651   0.376
41063W        W 9457  38.460  17.814  14.199
41064W        W 9458  41.941  10.862  12.631
41065W        W 9459  41.927   8.031  14.997
41066W        W 9460   3.999  23.871  12.994
41067W        W 9461   3.849  10.851  10.881
41068W        W 9462  15.568  28.142   4.308
41069W        W 9463  23.069  32.926   1.473
41070W        W 9464  11.841  27.026   1.328
41071W        W 9465  32.295  21.468   2.910
41072W        W 9466  37.164  35.962   3.686
41073W        W 9467  36.160   9.270   4.469
41074W        W 9468   7.858  22.506   2.141
41075W        W 9469  43.446  41.712  12.991
41076W        W 9470  16.845  10.641  11.001
41077W        W 9471  38.019   3.627  12.429
41078W        W 9472  33.053   3.621   4.026
41079W        W 9473   8.820  24.981   2.635
41080W        W 9474  41.916  27.701   1.329
41081W        W 9475  34.450  39.761   2.888
41082W        W 9476  13.271  20.462  10.812
41083W        W 9477   1.224  33.525   4.554
41084W        W 9478  27.461   7.351   0.722
41085W        W 9479  37.166  34.336   4.177
41086W        W 9480  21.805   7.368  11.129
41087W        W 9481  22.168  35.031   3.727
41088W        W 9482  18.216  15.405   4.180
41089W        W 9483  13.573  41.395  13.874
41090W        W 9484  11.130  41.757  11.073
41091W        W 9485   5.081   6.630  14.268
41092W        W 9486  15.187  17.768  12.497
41093W        W 9487  19.831  27.594  13.866
41094W        W 9488  28.083   5.603   2.838
41095W        W 9489  18.797  34.358   2.479
41096W        W 9490  22.050  10.107   3.659
41097W        W 9491   9.220   4.271   0.588
41098W        W 9492   4.546  25.730  10.965
41099W        W 9493  41.424   5.713   4.607
41100W        W 9494   4.598  35.797   5.106
41101W        W 9495  23.531  17.600   1.408
41102W        W 9496  14.645  29.960  13.937
41103W        W 9497   3.932  39.893   3.398
41104W        W 9498  19.077   4.826  13.790
41105W        W 9499   2.297   4.192  13.504
41106W        W 9500   2.645   8.651   1.152
41107W        W 9501  43.342  13.262   1.344
41108W        W 9502   9.835   0.935   4.640
41109W        W 9503  36.491  36.049  13.083
41110W        W 9504  11.959  41.408  12.198
41111W        W 9505  21.267  11.566  14.482
41112W        W 9506   4.280  30.905  12.334
41113W        W 9507  44.966   0.590  12.910
41114W        W 9508  35.677  27.196  11.968
41115W        W 9509  23.984   9.270   1.352
41116W        W 9510  44.297   5.314   2.320
41117W        W 9511  30.765  37.418  13.915
41118W        W 9512  34.324  28.689   1.090
41119W        W 9513  39.826   1.889  12.371
41120W        W 9514  10.819  26.845   3.317
41121W        W 9515  44.977  18.290   1.383
41122W        W 9516  28.216   5.586  13.031
41123W        W 9517  19.977  40.126   0.004
41124W        W 9518   2.872  21.187   2.334
41125W        W 9519  28.619  42.693   4.566
41126W        W 9520  20.154  42.161  14.479
41127W        W 9521   9.222  29.641  12.198
41128W        W 9522  17.160  44.102  12.548
41129W        W 9523  44.278  38.051  14.229
41130W        W 9524  22.032  31.660   1.402
41131W        W 9525  10.477  22.981   1.991
41132W        W 9526  43.824   8.591   0.952
41133W        W 9527   9.926  20.393   1.837
41134W        W 9528  40.142  37.991   3.294
41135W        W 9529  32.847  40.553  14.883
41136W        W 9530  28.731  40.031   1.414
41137W        W 9531  16.869   5.465   4.214
41138W        W 9532  32.913  23.744  11.973
41139W        W 9533  31.131   8.513  13.088
41140W        W 9534   8.485  18.506  13.427
41141W        W 9535  41.825  29.575  13.120
41142W        W 9536   2.893  25.046   3.694
41143W        W 9537  29.247  41.487   3.193
41144W        W 9538   6.888  18.349   0.778
41145W        W 9539  39.108   1.416   1.904
41146W        W 9540  38.796  26.108  11.095
41147W        W 9541  44.110  30.561   1.416
41148W        W 9542   3.084  43.528  11.409
41149W        W 9543  32.104  20.227   1.253
41150W        W 9544  16.705  16.605   2.754
41151W        W 9545   2.535  41.227  11.049
41152W        W 9546  14.657  23.711  10.887
41153W        W 9547  32.431  29.062  11.698
41154W        W 9548   7.971   2.508   1.613
41155W        W 9549   5.837  12.039  12.404
41156W        W 9550   3.120  22.585   4.206
41157W        W 9551  38.145  29.909  11.900
41158W        W 9552  38.750  38.459   1.884
41159W        W 9553  16.677  22.570   0.489
41160W        W 9554   8.920  39.999   1.806
41161W        W 9555   0.842  22.662   0.308
41162W        W 9556  41.351  37.663   1.687
41163W        W 9557  20.314  43.512  12.037
41164W        W 9558  38.017  42.829  14.846
41165W        W 9559  24.648  14.229   1.706
41166W        W 9560  31.364  31.734   2.192
41167W        W 9561  35.501   8.635  14.261
41168W        W 9562   9.501  38.778   2.648
41169W        W 9563  28.658  19.161   1.326
41170W        W 9564  38.444  36.093  11.183
41171W        W 9565  44.823  21.499   0.594
41172W        W 9566  11.640  38.907  14.586
41173W        W 9567   3.741  35.971  13.068
41174W        W 9568   3.813  10.433   3.205
41175W        W 9569  30.980  38.289   2.697
41176W        W 9570  16.563  36.046   2.133
41177W        W 9571   9.000  26.084  11.525
41178W        W 9572  41.319  15.233   4.651
41179W        W 9573  27.501  31.182   1.877
41180W        W 9574  25.089  41.570  10.653
41181W        W 9575  16.020  43.668  13.486
41182W        W 9576  31.019   0.802  11.618
41183W        W 9577  30.837   5.382   3.707
41184W        W 9578   4.116  43.259  10.629
41185W        W 9579  19.182  36.485   1.723
41186W        W 9580  44.309  19.313   3.021
41187W        W 9581  28.448  38.710  11.159
41188W        W 9582  22.013  27.913  11.365
41189W        W 9583  16.357  34.459   4.771
41190W        W 9584  13.552   9.879  13.586
41191W        W 9585  32.908  12.458   0.909
41192W        W 9586  25.384   8.372  12.563
41193W        W 9587  35.832  12.815  13.468
41194W        W 9588   0.574  11.910  11.336
41195W        W 9589   0.205  33.591   0.284
41196W        W 9590   9.944  42.358   0.360
41197W        W 9591   2.157  30.490  12.089
41198W        W 9592  21.335  14.817   1.388
41199W        W 9593  17.756   9.979  12.668
41200W        W 9594   4.779  14.153   3.228
41201W        W 9595  12.417   0.857   0.727
41202W        W 9596  42.196  38.641   3.791
41203W        W 9597   4.338  44.566   1.843
41204W        W 9598  14.776  42.765   4.956
41205W        W 9599  43.989   7.183   1.662
41206W        W 9600   3.137  31.020   3.675
41207W        W 9601  36.039  21.432  11.287
41208W        W 9602   2.234  11.689   2.928
41209W        W 9603  23.632   5.845  10.718
41210W        W 9604  37.965  11.467   3.131
41211W        W 9605  16.910   0.670  14.401
41212W        W 9606  26.305   5.429   4.132
41213W        W 9607   1.276  38.454   0.795
41214W        W 9608  41.231  28.053  12.121
41215W        W 9609  17.768  18.522   2.678
41216W        W 9610  15.563  40.526  12.868
41217W        W 9611  32.104  36.895  12.976
41218W        W 9612  39.114   4.431  12.099
41219W        W 9613  21.248  22.148   4.161
41220W        W 9614   7.158  10.188   0.617
41221W        W 9615  12.868  44.983  12.391
41222W        W 9616   0.076  32.087  13.037
41223W        W 9617  10.130  39.339  12.449
41224W        W 9618  35.475  18.131  12.402
41225W        W 9619  31.409  17.011  11.071
41226W        W 9620   8.307   0.072  14.020
41227W        W 9621  10.786  14.549   4.220
41228W        W 9622   1.758   3.606   0.053
41229W        W 9623  26.919  18.611  14.528
41230W        W 9624  32.896   5.239   3.334
41231W        W 9625   3.712   4.383  12.964
41232W        W 9626  40.378  18.731   1.634
41233W        W 9627  26.598  33.901  10.861
41234W        W 9628  30.130  22.172   0.429
41235W        W 9629  27.020  42.965   4.847
41236W        W 9630  23.020  43.495  13.446
41237W        W 9631   2.234  13.319  11.596
41238W        W 9632   6.246  24.336  12.901
41239W        W 9633   0.948  10.946  11.908
41240W        W 9634  38.210   2.540   2.728
41241W        W 9635  32.259   7.241   1.630
41242W        W 9636  10.780  30.348  11.965
41243W        W 9637   7.251  17.092  10.869
41244W        W 9638  33.252  24.058   0.786
41245W        W 9639  30.671  14.784  12.965
41246W        W 9640  18.451   6.787   3.207
41247W        W 9641  13.497  26.637  10.258
41248W        W 9642  10.944  41.042   0.335
41249W        W 9643  29.546  29.170  13.754
41250W        W 9644  39.033  32.065  14.748
41251W        W 9645  18.463  40.545  10.256
41252W        W 9646   6.242  30.918  12.013
41253W        W 9647  34.530  23.760   1.266
41254W        W 9648  12.794  23.234  12.426
41255W        W 9649  11.234  32.960  14.328
41256W        W 9650  36.799   1.020  11.250
41257W        W 9651  22.123  44.487  10.847
41258W        W 9652  24.868   6.391  10.635
41259W        W 9653   0.215  29.572  14.259
41260W        W 9654  29.804  11.730  14.062
41261W        W 9655  36.973  39.672   4.104
41262W        W 9656  11.514   5.262  10.428
41263W        W 9657  18.703  29.199  11.279
41264W        W 9658  21.125   1.432  12.543
41265W        W 9659  16.513   8.711   4.051
41266W        W 9660  27.040  16.219   0.663
41267W        W 9661  40.546  35.456  13.347
41268W        W 9662  24.666  13.176   4.251
41269W        W 9663  21.914  12.854  10.705
41270W        W 9664  12.327   8.437  13.979
41271W        W 9665  14.215   0.817   2.329
41272W        W 9666  30.515  22.275   1.924
41273W        W 9667  39.267  17.074   3.356
41274W        W 9668  30.119  30.503  13.076
41275W        W 9669   0.015  22.304   0.332
41276W        W 9670   4.956  17.025   3.704
41277W        W 9671  37.275   1.953  13.074
41278W        W 9672  35.116  42.361   2.035
41279W        W 9673  40.407   9.415   4.132
41280W        W 9674   8.923  35.250   1.935
41281W        W 9675  18.302  36.035   2.096
41282W        W 9676  19.205  12.167  11.948
41283W        W 9677  38.842   6.942   3.137
41284W        W 9678  12.343  14.625  14.944
41285W        W 9679   1.225  23.282  12.949
41286W        W 9680  21.420  11.201   3.275
41287W        W 9681  34.045  22.301  13.921
41288W        W 9682   4.737  31.650   1.235
41289W        W 9683  18.014  11.771   4.986
41290W        W 9684   8.183  22.179  14.283
41291W        W 9685  42.349   0.433   3.920
41292W        W 9686  20.789  23.721   4.567
41293W        W 9687  22.490   2.278  14.452
41294W        W 9688   2.490  39.089   2.598
41295W        W 9689  33.124  18.470   1.907
41296W        W 9690  16.220  32.474   0.326
41297W        W 9691   3.944   3.625   0.387
41298W        W 9692  10.591   7.358  12.549
41299W        W 9693  38.832  15.090   1.548
41300W        W 9694   8.024  32.991   1.363
41301W        W 9695   0.518   6.800   2.800
41302W        W 9696  25.974   2.827   3.183
41303W        W 9697  29.467  16.084   4.140
41304W        W 9698  22.451  20.558   0.446
41305W        W 9699  32.335   6.899   0.698
41306W        W 9700  41.402  40.849  13.299
41307W        W 9701  14.585  29.027  12.464
41308W        W 9702  33.696  15.146  12.902
41309W        W 9703  34.661  14.091  14.947
41310W        W 9704  33.411   1.488   0.477
41311W        W 9705  31.494  43.779   0.023
41312W        W 9706   1.728  34.308   4.271
41313W        W 9707  18.520  17.603   2.263
41314W        W 9708  20.651  15.232   4.780
41315W        W 9709  22.695  16.795   4.145
41316W        W 9710  40.893  40.358   2.284
41317W        W 9711  32.621  27.002  11.250
41318W        W 9712  25.104  32.276  10.407
41319W        W 9713  20.356  16.246  11.070
41320W        W 9714  37.098   2.453   3.928
41321W        W 9715  20.068  19.606   4.175
41322W        W 9716  26.621   2.325   0.346
41323W        W 9717   7.134  29.202  14.924
41324W        W 9718   5.752  28.590   1.212
41325W        W 9719  44.505   3.304  11.036
41326W        W 9720   3.193  43.903  12.875
41327W        W 9721  32.346  15.147  12.514
41328W        W 9722   5.346   0.438  11.084
41329W        W 9723   8.346  36.338   3.686
41330W        W 9724  36.882   0.250  10.944
41331W        W 9725  31.405  30.899   1.914
41332W        W 9726  24.370   2.007   4.642
41333W        W 9727   8.679  15.779   4.283
41334W        W 9728  19.196  13.766  12.173
41335W        W 9729  43.452  36.622  11.420
41336W        W 9730  18.040  37.758  12.318
41337W        W 9731  35.508   1.516   1.047
41338W        W 9732  23.643  44.520  11.612
41339W        W 9733  23.719   9.273  10.285
41340W        W 9734  15.322  42.465  14.765
41341W        W 9735  40.010   5.935   3.626
41342W        W 9736   8.215  35.923   4.607
41343W        W 9737  11.877  13.824  13.024
41344W        W 9738  31.899  39.881  12.486
41345W        W 9739  44.417  11.355  11.238
41346W        W 9740   0.442  16.328   3.619
41347W        W 9741  40.423  31.718  10.468
41348W        W 9742  16.008  42.400   2.157
41349W        W 9743  31.556  43.300   4.524
41350W        W 9744  24.894  31.490  14.964
41351W        W 9745  33.520  38.798   4.504
41352W        W 9746  33.264  15.688  10.473
41353W        W 9747   6.548   1.892   3.230
41354W        W 9748  15.040  20.062   1.365
41355W        W 9749  39.285  27.528   4.552
41356W        W 9750  27.836  42.805   3.389
41357W        W 9751  25.533  20.523  14.822
41358W        W 9752   6.921  18.874  11.884
41359W        W 9753  20.500   5.875   1.261
41360W        W 9754  15.733  27.219  13.886
41361W        W 9755  35.859   1.334   4.429
41362W        W 9756  38.339   2.093  11.069
41363W        W 9757  41.366   2.249   1.143
41364W        W 9758  19.829   4.718   0.391
41365W        W 9759  13.131  28.093  13.962
41366W        W 9760   1.426  43.829   1.289
41367W        W 9761   7.630  17.682  11.628
41368W        W 9762   2.601   2.226  12.546
41369W        W 9763  39.564  32.141   4.390
41370W        W 9764  29.152  43.596  11.901
41371W        W 9765  23.129  38.463  11.060
41372W        W 9766  27.665   6.868   0.744
41373W        W 9767  39.305  26.491   3.569
41374W        W 9768   9.183  31.513   2.940
41375W        W 9769  29.154   7.208   3.258
41376W        W 9770  40.793  22.037  12.395
41377W        W 9771   5.815   6.460   4.381
41378W        W 9772  37.900  31.628   0.049
41379W        W 9773   8.226  19.254   1.690
41380W        W 9774   5.312  17.788   1.738
41381W        W 9775  44.572  32.045  10.773
41382W        W 9776  38.055   3.136  13.851
41383W        W 9777  31.259  34.590  12.481
41384W        W 9778  36.551  14.378  10.915
41385W        W 9779  37.485  31.678  11.911
41386W        W 9780  27.107  19.850   1.008
41387W        W 9781  26.478  27.644   1.311
41388W        W 9782  19.716  34.060   0.378
41389W        W 9783  11.907  39.075  14.999
41390W        W 9784  43.384  25.958   1.615
41391W        W 9785  21.616  13.644  10.924
41392W        W 9786  15.574  20.995   4.115
41393W        W 9787  37.402  13.676   4.601
41394W        W 9788  10.304  44.469   4.615
41395W        W 9789  13.224  16.066   4.552
41396W        W 9790  26.141  28.597  14.335
41397W        W 9791  12.754  43.027  13.048
41398W        W 9792   3.231  38.223  12.547
41399W        W 9793  22.088  28.521   3.263
41400W        W 9794  15.343  16.306   0.734
41401W        W 9795  34.929  41.241   0.721
41402W        W 9796   7.744  10.815   0.333
41403W        W 9797  36.870  21.059   4.083
41404W        W 9798  15.204  43.367   0.748
41405W        W 9799  30.460  26.570   4.082
41406W        W 9800  24.921  23.694   0.762
41407W        W 9801   2.477  28.853   0.400
41408W        W 9802  11.620  42.459  11.641
41409W        W 9803   2.531  12.791  11.765
41410W        W 9804  35.784  33.852  12.833
41411W        W 9805  40.882  43.885   0.793
41412W        W 9806   4.548  21.685   0.768
41413W        W 9807  41.310  33.672  12.387
41414W        W 9808  25.225  37.922   4.679
41415W        W 9809   1.815  40.313  13.348
41416W        W 9810  44.854   1.938  12.637
41417W        W 9811  18.162  18.133  14.301
41418W        W 9812  22.804   9.758  12.312
41419W        W 9813  17.304  28.853   4.247
41420W        W 9814  41.597   7.782   4.818
41421W        W 9815  40.742  19.589  10.347
41422W        W 9816   1.029  39.387   2.779
41423W        W 9817  17.297  37.382   0.580
41424W        W 9818   2.521  27.079   2.432
41425W        W 9819  13.194  10.822  13.407
41426W        W 9820  20.237   5.924  14.445
41427W        W 9821   6.173  10.836   3.246
41428W        W 9822  18.124  42.905   0.644
41429W        W 9823  12.772  30.079  13.812
41430W        W 9824   2.980  40.263  12.503
41431W        W 9825  42.928  14.403   0.801
41432W        W 9826  19.506  14.026  14.503
41433W        W 9827  13.241  36.149  13.990
41434W        W 9828  27.467  16.274   0.962
41435W        W 9829  37.058  25.953  10.621
41436W        W 9830  11.272  25.983   1.938
41437W        W 9831  43.329  21.018   3.708
41438W        W 9832  35.519  10.392   0.233
41439W        W 9833   6.005  19.970  11.973
41440W        W 9834  29.668  15.793   4.673
41441W        W 9835  29.259  13.747  11.882
41442W        W 9836  11.004  14.785  12.865
41443W        W 9837  37.083  30.611  10.718
41444W        W 9838  33.795  17.800  13.011
41445W        W 9839  20.028  33.154  12.820
41446W        W 9840  42.026  38.520  10.468
41447W        W 9841  19.082  32.748   2.667
41448W        W 9842  20.387  44.982   1.769
41449W        W 9843   2.825  15.146   2.263
41450W        W 9844  21.109  22.252  10.155
41451W        W 9845  28.833  24.517  11.586
41452W        W 9846  10.343   4.685   2.388
41453W        W 9847  28.383  22.420  12.635
41454W        W 9848  44.729  10.275  12.888
41455W        W 9849  42.410   5.959   1.850
41456W        W 9850   3.543  27.242   1.356
41457W        W 9851  44.365   0.256   1.455
41458W        W 9852  26.131  19.764   2.601
41459W        W 9853  43.024  44.918  10.838
41460W        W 9854   7.937  20.787   3.140
41461W        W 9855   5.937  43.516  12.954
41462W        W 9856   0.376  28.962   1.605
41463W        W 9857   1.228   3.806  12.359
41464W        W 9858  19.594   1.043   1.716
41465W        W 9859  20.178   1.213   2.248
41466W        W 9860  25.760  18.729  11.201
41467W        W 9861  20.182  30.911   2.858
41468W        W 9862   7.800  31.451   4.805
41469W        W 9863  16.093  43.027   3.025
41470W        W 9864  32.154  32.982  14.858
41471W        W 9865  23.690  25.085   3.795
41472W        W 9866   9.517  35.637  14.403
41473W        W 9867  27.085  37.606   0.119
41474W        W 9868  31.930  27.596   0.446
41475W        W 9869  12.465  30.172  11.311
41476W        W 9870  27.159  42.629   3.634
41477W        W 9871  43.344  13.125  14.107
41478W        W 9872   6.753  19.498   4.470
41479W        W 9873  43.463  15.289   0.497
41480W        W 9874  20.839  19.188  13.291
41481W        W 9875  34.886  36.331  13.928
41482W        W 9876  32.529  16.325  10.527
41483W        W 9877  27.788  31.661   1.302
41484W        W 9878  13.553  14.115   2.707
41485W        W 9879  43.298  17.210   3.372
41486W        W 9880  42.275  12.973  12.101
41487W        W 9881  34.571   8.776  11.526
41488W        W 9882   8.327  33.875   3.339
41489W        W 9883  29.220  14.546   1.278
41490W        W 9884  36.844  15.764  10.487
41491W        W 9885  29.943  28.487  13.426
41492W        W 9886  28.432  31.942   0.320
41493W        W 9887  36.451  43.513  13.470
41494W        W 9888  26.518  31.929  13.468
41495W        W 9889  41.592  39.878  14.833
41496W        W 9890  24.633  30.945   2.342
41497W        W 9891   3.764  44.902   0.814
41498W        W 9892   4.863   0.681   2.904
41499W        W 9893   0.387   3.850   3.332
41500W        W 9894   5.870   6.929   1.253
41501W        W 9895  12.056   7.215  14.249
41502W        W 9896  27.908  28.467   3.248
41503W        W 9897   5.010  24.263  10.493
41504W        W 9898   8.274  21.553  11.187
41505W        W 9899  12.855  15.666  10.892
41506W        W 9900  38.783   8.731  13.418
41507W        W 9901  42.008   6.228  11.631
41508W        W 9902  17.571  16.864  13.421
41509W        W 9903  25.162  31.084  14.764
41510W        W 9904  44.541  29.983  14.032
41511W        W 9905  24.321  23.413  11.982
41512W        W 9906  19.043  37.021  12.565
41513W        W 9907  19.557  39.115  13.590
41514W        W 9908   9.715  13.782   2.020
41515W        W 9909  38.521  32.553  13.076
41516W        W 9910  12.665  43.446   3.592
41517W        W 9911  26.427  30.598   2.342
41518W        W 9912  43.425  33.353  13.368
41519W        W 9913  14.102  33.903  14.021
41520W        W 9914   4.448  21.534  10.482
41521W        W 9915  44.828   9.596  13.596
41522W        W 9916  19.107  13.598   1.821
41523W        W 9917  43.060  37.614   3.555
41524W        W 9918   7.716  42.581   3.366
41525W        W 9919  29.684  41.216  13.967
41526W        W 9920  28.048  12.773  14.722
41527W        W 9921  14.227  44.828   1.722
41528W        W 9922  15.128  31.883   2.433
41529W        W 9923  40.785   3.565   3.835
41530W        W 9924  27.433   1.761   0.460
41531W        W 9925  31.561  27.392   4.645
41532W        W 9926  10.294   7.591  10.467
41533W        W 9927  23.753  27.611   1.885
41534W        W 9928  21.826  11.880  12.428
41535W        W 9929   4.832  32.605  13.063
41536W        W 9930  31.072  22.760   3.727
41537W        W 9931  16.785  33.442   5.009
41538W        W 9932  27.712  13.351  12.434
41539W        W 9933  14.241  25.225  12.929
41540W        W 9934  32.761  25.605  12.497
41541W        W 9935   0.938   0.938  13.797
41542W        W 9936  24.750  44.582  11.033
41543W        W 9937  25.013  40.535  14.522
41544W        W 9938  31.227  17.660   1.736
41545W        W 9939   8.891  17.072   1.739
41546W        W 9940  10.192   2.851   1.760
41547W        W 9941  11.343  24.487  12.951
41548W        W 9942  32.065   8.105   4.733
41549W        W 9943  44.889   9.778  11.894
41550W        W 9944  10.757  12.661   1.095
41551W        W 9945  43.408  10.034   1.751
41552W        W 9946  28.828  32.317  12.562
41553W        W 9947  10.049  34.672  14.960
41554W        W 9948  26.646  21.999   0.686
41555W        W 9949  27.709  10.093  12.186
41556W        W 9950  36.987  26.812   1.943
41557W        W 9951   6.982   6.149   5.061
41558W        W 9952  14.731  38.539  14.487
41559W        W 9953  27.894  21.566   9.849
41560W        W 9954   7.957   9.717  13.238
41561W        W 9955   3.721  23.305  11.122
41562W        W 9956  38.462  37.066   3.882
41563W        W 9957   9.892  31.322   1.853
41564W        W 9958  40.628  30.155   0.350
41565W        W 9959  41.904  42.961  11.692
41566W        W 9960  18.406   0.490   0.134
41567W        W 9961  18.790  27.973   0.409
41568W        W 9962  11.240  23.526   3.100
41569W        W 9963  20.685  23.647  14.719
41570W        W 9964   2.202  21.552  13.401
41571W        W 9965   1.351  25.603   2.175
41572W        W 9966   7.811  31.023   0.736
41573W        W 9967  28.561   1.242  11.885
41574W        W 9968   4.928  27.840   3.501
41575W        W 9969  16.712  10.988   4.120
41576W        W 9970  14.284   3.434  13.987
41577W        W 9971  24.947  20.725  14.754
41578W        W 9972  30.442  30.532   3.324
41579W        W 9973  27.296  10.299  11.955
41580W        W 9974  27.623  22.243  14.862
41581W        W 9975  32.420   3.413   0.390
41582W        W 9976  41.843  27.622  13.550
41583W        W 9977  30.908  12.129   4.445
41584W        W 9978  37.835  25.155  14.832
41585W        W 9979   2.382   8.295  12.976
41586W        W 9980  28.870  26.116   0.773
41587W        W 9981  22.698  15.360   0.614
41588W        W 9982   5.736  17.159   0.889
41589W        W 9983   2.931  43.579   1.217
41590W        W 9984  36.626  22.039  10.720
41591W        W 9985   5.092  27.072  12.170
41592W        W 9986  36.519  14.742  11.681
41593W        W 9987  44.406  43.130   3.217
41594W        W 9988   3.954  33.134   3.705
41595W        W 9989  44.616  24.574   0.350
41596W        W 9990   5.421  21.506  12.563
41597W        W 9991  26.688  11.239   2.231
41598W        W 9992  32.470   1.814  13.997
41599W        W 9993  23.464  23.343   1.019
41600W        W 9994  37.389  26.841   0.769
41601W        W 9995   1.919  42.443   3.259
41602W        W 9996  17.637  44.131   3.332
41603W        W 9997  34.611  10.890   2.616
41604W        W 9998  35.809   4.628   0.444
41605W        W 9999  18.692  38.788   3.606
41606W        W10000   5.333  20.485  11.558
41607W        W10001  33.483  30.681  14.991
41608W        W10002  20.615  34.313   0.312
41609W        W10003  35.006  31.661   4.281
41610W        W10004   4.759  15.328  13.866
41611W        W10005   1.609  19.188   3.752
41612W        W10006  40.351   2.877   0.711
41613W        W10007   2.451  20.120   3.340
41614W        W10008  18.758   8.201  14.567
41615W        W10009  15.519  44.265   0.093
41616W        W10010  26.852  40.875  14.118
41617W        W10011  27.914  19.735  13.568
41618W        W10012  37.802  42.559   3.840
41619W        W10013  25.178  35.875   4.718
41620W        W10014  24.464  24.699  13.414
41621W        W10015  39.337  41.992   0.742
41622W        W10016   2.671  37.534   3.771
41623W        W10017  42.376  14.074   3.578
41624W        W10018   7.897  36.316   1.425
41625W        W10019  27.403  44.352  11.678
41626W        W10020  32.975  36.647  14.705
41627W        W10021  43.955  40.909   2.244
41628W        W10022  20.618  30.011  14.369
41629W        W10023   3.816  18.539   3.754
41630W        W10024  25.938  42.592   2.407
41631W        W10025   0.123   2.954  10.750
41632W        W10026  31.470  27.374   4.141
41633W        W10027   9.616  34.190  12.958
41634W        W10028  31.582  17.026  14.329
41635W        W10029  25.981  27.998  12.012
41636W        W10030  25.441  39.345  14.906
41637W        W10031  39.471  13.196  12.162
41638W        W10032  16.843  29.322  13.441
41639W        W10033   9.733  36.405  13.965
41640W        W10034  36.977  17.928   0.592
41641W        W10035  15.274  37.612   3.267
41642W        W10036  18.000  38.276   0.425
41643W        W10037  11.295  23.545   4.075
41644W        W10038  13.683  36.601   1.366
41645W        W10039   9.240  36.560  13.923
41646W        W10040  12.866  43.970  12.492
41647W        W10041  29.026   9.397  12.549
41648W        W10042  37.964  27.988   1.194
41649W        W10043  19.762  37.581   4.599
41650W        W10044  34.186  18.748  13.100
41651W        W10045  35.663  30.132  12.034
41652W        W10046  31.012  22.122   4.183
41653W        W10047  10.514   8.278   3.158
41654W        W10048  35.609  28.757   3.184
41655W        W10049  30.429  23.004   4.853
41656W        W10050   3.468  39.640  11.183
41657W        W10051  30.695  41.295   3.692
41658W        W10052  39.985  21.246   0.983
41659W        W10053  21.733  20.176  14.000
41660W        W10054  29.942   0.882  11.620
41661W        W10055  11.499  21.602   1.098
41662W        W10056  28.082  20.798   1.332
41663W        W10057  15.296  26.127   3.444
41664W        W10058  41.498   0.832  14.295
41665W        W10059  34.069  37.414   4.921
41666W        W10060  29.452   6.815  13.301
41667W        W10061   7.734  43.552   2.486
41668W        W10062  15.455  43.996   3.446
41669W        W10063  13.154  19.655   4.177
41670W        W10064   7.306  19.780   2.648
41671W        W10065  10.697  23.071  12.447
41672W        W10066  25.677  26.088  14.771
41673W        W10067  44.830  21.156  12.194
41674W        W10068  29.492  18.181   5.075
41675W        W10069  32.429  40.313   0.683
41676W        W10070  35.788  28.560   1.458
41677W        W10071  28.544  18.026   1.827
41678W        W10072   1.771   7.382  12.578
41679W        W10073   6.382  12.597  12.318
41680W        W10074  37.981  42.346   3.260
41681W        W10075  27.546  20.332  14.223
41682W        W10076  12.335  14.002   2.531
41683W        W10077  33.018   2.218  11.996
41684W        W10078   3.411  38.628   1.871
41685W        W10079   9.856  21.047  10.660
41686W        W10080  21.200  14.064  10.690
41687W        W10081  40.780  31.992   1.956
41688W        W10082  23.824   4.642   0.983
41689W        W10083  20.790  22.240   0.173
41690W        W10084  39.465   9.472   2.796
41691W        W10085   1.931  12.690   1.327
41692W        W10086   9.429  20.548   1.918
41693W        W10087  17.917  21.050   0.948
41694W        W10088  16.532   9.151  14.329
41695W        W10089  41.882  26.119   2.705
41696W        W10090  37.685  35.949   3.911
41697W        W10091   7.782  39.354   2.768
41698W        W10092  12.393  42.472   3.807
41699W        W10093  23.930  42.104   3.259
41700W        W10094  24.059  22.196   2.177
41701W        W10095  10.487   3.079  12.015
41702W        W10096  28.061  23.644  11.068
41703W        W10097  44.039  43.549  12.136
41704W        W10098   0.157  38.446  12.958
41705W        W10099  43.591  40.245   5.162
41706W        W10100   8.953  16.158   3.999
41707W        W10101  31.355  10.205   2.177
41708W        W10102  43.331  43.793   3.617
41709W        W10103  30.124   6.231  10.795
41710W        W10104  18.255  31.375   2.813
41711W        W10105  34.060   7.357  13.817
41712W        W10106  13.327   0.894   4.396
41713W        W10107  41.482  13.167   5.061
41714W        W10108   9.211  20.796   4.620
41715W        W10109  30.528  43.259   1.775
41716W        W10110  44.404  21.641   0.303
41717W        W10111  26.997  14.863  13.907
41718W        W10112  15.056   5.597   0.133
41719W        W10113  38.910  41.603   1.440
41720W        W10114  36.224  20.773   5.014
41721W        W10115  15.279  36.543  14.297
41722W        W10116  27.911  18.432  11.668
41723W        W10117  10.838   8.447  11.246
41724W        W10118  42.364  39.941   0.718
41725W        W10119   7.342  23.045  10.555
41726W        W10120  40.938  10.622   4.351
41727W        W10121  21.560  16.138   2.123
41728W        W10122   3.054  35.420   4.066
41729W        W10123   2.694  38.720   1.230
41730W        W10124   6.286  16.744  10.983
41731W        W10125  15.374  26.920  13.432
41732W        W10126  20.283  33.382   4.139
41733W        W10127  22.218  28.021   3.283
41734W        W10128   2.696  17.382   5.161
41735W        W10129  10.373  29.538   0.831
41736W        W10130  38.473  38.333  13.337
41737W        W10131  16.359  40.091  13.926
41738W        W10132  44.649   4.767   3.713
41739W        W10133  14.106  43.083  11.184
41740W        W10134   1.209  24.313   5.114
41741W        W10135  37.007   4.394  14.025
41742W        W10136  35.296   1.203  12.026
41743W        W10137  14.560  18.618  11.217
41744W        W10138   3.956  44.287  13.468
41745W        W10139  31.685  21.752  14.501
41746W        W10140  35.494  28.959   0.873
41747W        W10141   8.178  41.391  12.531
41748W        W10142   4.909   4.506   3.133
41749W        W10143  12.727  13.391   1.246
41750W        W10144  44.078   1.280  13.803
41751W        W10145  22.544  31.389   0.270
41752W        W10146  32.255  42.330  14.927
41753W        W10147  29.332  44.603  11.877
41754W        W10148  14.700  37.438  13.096
41755W        W10149   5.150  42.794   2.802
41756W        W10150   9.400  29.265   2.373
41757W        W10151  24.531  25.535  12.411
41758W        W10152  32.147  20.062  12.038
41759W        W10153  44.748  22.911  11.005
41760W        W10154  15.387  38.104   1.412
41761W        W10155  23.056  17.549   3.153
41762W        W10156   0.508  20.098  11.204
41763W        W10157   0.217   7.774   0.004
41764W        W10158  31.494  36.969   4.402
41765W        W10159  16.020   8.290   1.821
41766W        W10160  15.105   4.831   4.583
41767W        W10161   9.848  41.911  13.119
41768W        W10162  16.130  17.228   1.217
41769W        W10163   6.700   1.753  12.942
41770W        W10164  16.782  18.509  12.416
41771W        W10165  16.047  25.213  14.476
41772W        W10166   1.964  12.992   0.901
41773W        W10167  37.192  37.930  13.410
41774W        W10168   6.316  32.489   1.920
41775W        W10169  17.128  35.112   2.685
41776W        W10170   1.937  38.178   0.809
41777W        W10171  37.956  42.644   1.787
41778W        W10172  15.729  23.271  11.178
41779W        W10173  27.452  10.926   1.879
41780W        W10174  26.834   1.965  14.457
41781W        W10175  14.754  17.747  12.210
41782W        W10176  37.386  14.876  13.971
41783W        W10177  42.374   1.800  11.100
41784W        W10178  36.170  31.564  14.820
41785W        W10179  40.376   8.664   1.658
41786W        W10180   6.332  15.451  10.266
41787W        W10181  14.801  17.736   2.254
41788W        W10182  17.501  32.520  11.583
41789W        W10183  33.514  10.155  14.424
41790W        W10184  12.947  19.682   0.475
41791W        W10185  18.803  16.671   4.339
41792W        W10186  25.102   0.276   0.623
41793W        W10187  15.312  34.902   3.398
41794W        W10188  28.525  13.849   4.112
41795W        W10189  23.400  34.230   0.417
41796W        W10190  10.299  16.048  13.272
41797W        W10191  33.900   3.925  13.008
41798W        W10192   8.557  36.323   4.577
41799W        W10193  16.785  39.935  12.044
41800W        W10194  19.215  11.320  14.586
41801W        W10195   5.359  14.147   0.827
41802W        W10196  39.337  42.832   2.214
41803W        W10197   4.187  25.080  11.650
41804W        W10198  31.538  36.024   4.602
41805W        W10199  39.618  44.926  13.539
41806W        W10200  15.335  14.748   3.822
41807W        W10201  34.958  25.575   4.697
41808W        W10202  17.617  41.778   2.155
41809W        W10203  38.847  40.490   4.054
41810W        W10204  24.792  35.975   2.608
41811W        W10205  44.248  35.418  12.427
41812W        W10206  24.733   2.002   1.327
41813W        W10207  35.479   6.698   4.177
41814W        W10208  22.193   5.286  13.418
41815W        W10209  41.811  42.636   1.732
41816W        W10210  11.338  34.750  11.190
41817W        W10211  15.149  30.235  10.564
41818W        W10212  18.856  30.994   4.771
41819W        W10213   7.130  24.742   0.238
41820W        W10214  28.971   7.686   1.346
41821W        W10215   5.769  29.636   3.879
41822W        W10216   5.033  23.398  11.545
41823W        W10217  22.726  39.097   5.097
41824W        W10218  30.497  43.507  13.083
41825W        W10219  20.722  42.251  13.805
41826W        W10220   6.285  24.606   0.676
41827W        W10221  24.051   4.293   3.144
41828W        W10222   3.148   6.315  11.083
41829W        W10223  14.829   6.330  12.691
41830W        W10224   7.721   5.152   0.994
41831W        W10225   8.130  18.561  11.512
41832W        W10226   5.680  28.063  14.756
41833W        W10227  11.357  25.162   4.493
41834W        W10228   4.639  35.865  11.034
41835W        W10229   9.035  39.426  14.007
41836W        W10230  19.287   2.186  12.980
41837W        W10231   0.246  42.341  11.114
41838W        W10232  18.154   1.993   3.853
41839W        W10233  13.329   3.193  14.400
41840W        W10234   2.460  30.956  14.836
41841W        W10235  38.541  44.833   4.072
41842W        W10236  33.894  25.049   1.702
41843W        W10237  22.119  15.124   2.379
41844W        W10238  25.740  42.380   1.431
41845W        W10239  44.703  39.855   1.043
41846W        W10240  12.842  15.342   3.673
41847W        W10241  24.021   0.533   0.878
41848W        W10242  36.087   3.106   3.246
41849W        W10243  40.159  33.919  14.233
41850W        W10244  13.647   5.676  14.806
41851W        W10245   1.157  25.460  10.850
41852W        W10246  43.788   5.567  14.048
41853W        W10247  11.024  38.958   1.880
41854W        W10248  25.478  24.159   0.932
41855W        W10249  32.952  41.291  12.535
41856W        W10250  33.052  19.248  10.794
41857W        W10251  31.716  22.772   4.333
41858W        W10252   2.846  27.058  14.222
41859W        W10253  24.958  42.889   2.870
41860W        W10254  35.498  44.047  12.538
41861W        W10255  23.435   2.214   2.818
41862W        W10256  18.068  44.292  14.776
41863W        W10257  30.134   6.906  11.052
41864W        W10258  11.723  18.546  14.054
41865W        W10259  12.693  17.628   0.723
41866W        W10260   4.007  16.664   5.157
41867W        W10261  44.424  17.946  10.205
41868W        W10262   4.234   9.470  11.256
41869W        W10263  20.413   0.260  13.347
41870W        W10264  30.159   6.470   1.764
41871W        W10265   3.290  40.930   3.206
41872W        W10266  39.795  41.458  12.323
41873W        W10267  44.958  28.685  11.899
41874W        W10268  43.707   0.917   3.748
41875W        W10269   7.814  42.309   2.502
41876W        W10270  21.301  36.024   2.730
41877W        W10271  33.448   2.160   0.921
41878W        W10272  34.326  33.525   1.699
41879W        W10273  30.938  13.373  14.930
41880W        W10274  39.593  25.618   1.773
41881W        W10275  28.674  26.206  10.726
41882W        W10276  40.918  43.425   3.211
41883W        W10277   9.844  24.784  12.297
41884W        W10278  35.566  12.100   1.915
41885W        W10279  11.404  24.785   3.054
41886W        W10280  31.787  44.376  14.500
41887W        W10281  20.326  38.491   0.460
41888W        W10282  22.762  41.845  11.646
41889W        W10283   6.658  19.238  11.628
41890W        W10284  38.919  25.917   1.481
41891W        W10285  30.889  25.555   4.272
41892W        W10286  32.026   2.301  11.937
41893W        W10287  37.360  39.449   4.377
41894W        W10288   7.310  37.901  14.271
41895W        W10289  18.469  11.550   1.124
41896W        W10290   3.446  11.135   2.508
41897W        W10291  14.626   1.445   1.205
41898W        W10292  28.203  24.457   2.006
41899W        W10293   5.780  26.544  14.920
41900W        W10294  40.412  22.142   0.407
41901W        W10295  38.981  23.681  10.257
41902W        W10296   9.189  25.701  13.967
41903W        W10297  43.797  14.570   3.891
41904W        W10298  39.569  23.478   3.116
41905W        W10299  35.781  14.186  11.225
41906W        W10300  27.705  13.352   1.467
41907W        W10301   0.766   3.410   0.938
41908W        W10302  42.775  25.515   0.948
41909W        W10303   6.931  26.741   5.004
41910W        W10304   7.155   0.019   0.402
41911W        W10305  11.844  26.643  10.719
41912W        W10306   3.933   6.224   4.358
41913W        W10307  24.105  21.115   2.118
41914W        W10308  38.433  31.925   1.426
41915W        W10309   6.077  25.990  14.364
41916W        W10310  26.448  16.741   2.303
41917W        W10311   6.903  29.238  10.798
41918W        W10312  22.305  13.044   0.485
41919W        W10313  34.075  33.670  12.555
41920W        W10314  25.148  27.175   3.127
41921W        W10315  18.026   4.900  12.860
41922W        W10316  11.634  15.972   4.524
41923W        W10317   3.842  11.089  12.989
41924W        W10318  22.736  22.035  12.186
41925W        W10319  23.740  21.235  13.396
41926W        W10320  22.539  41.806  14.807
41927W        W10321  21.321   0.437  13.954
41928W        W10322  19.788  39.125   4.191
41929W        W10323   9.157  19.520  12.476
41930W        W10324  22.119  38.902   4.015
41931W        W10325  41.583   0.125   0.878
41932W        W10326  16.816  25.057  13.884
41933W        W10327  21.184  23.681  11.478
41934W        W10328  18.441  11.398   4.156
41935W        W10329  24.695  24.889  10.752
41936W        W10330  18.381   9.207   1.942
41937W        W10331  19.300  14.383   1.295
41938W        W10332   8.363  24.834  14.879
41939W        W10333   4.924  44.168   4.574
41940W        W10334  15.953  12.929  13.325
41941W        W10335  10.722   8.152   4.790
41942W        W10336  15.985  43.351  10.988
41943W        W10337   2.226  10.284  12.978
41944W        W10338  28.413  21.161   1.159
41945W        W10339   8.392  19.630   3.841
41946W        W10340  26.220  18.826   3.760
41947W        W10341  32.673   7.159  12.856
41948W        W10342  27.449  21.404  14.505
41949W        W10343  38.505  30.532  12.173
41950W        W10344  23.200  20.349  13.241
41951W        W10345  21.236  17.670  11.649
41952W        W10346  43.020  36.015   4.106
41953W        W10347  44.396  38.400   0.408
41954W        W10348  33.159  43.353   4.539
41955W        W10349  38.415  24.131  12.377
41956W        W10350  29.604  26.535   4.969
41957W        W10351  27.411   3.878   3.620
41958W        W10352   7.780   2.013   1.436
41959W        W10353  17.663  32.917  14.260
41960W        W10354  19.112  19.301  14.739
41961W        W10355  35.062  23.086   2.177
41962W        W10356   7.347   8.106   0.674
41963W        W10357  10.791  37.453   1.988
41964W        W10358  40.275  24.397  11.991
41965W        W10359  21.365  13.160   0.825
41966W        W10360  29.001  34.192   1.156
41967W        W10361  29.830  39.022  12.121
41968W        W10362  16.382  10.232   1.660
41969W        W10363  22.108  37.261   1.230
41970W        W10364   9.229  32.255  10.698
41971W        W10365  13.579   2.928  13.423
41972W        W10366  10.478  15.536   5.137
41973W        W10367  11.367  37.910  13.548
41974W        W10368   8.119  23.723   1.161
41975W        W10369  16.546  27.723  14.930
41976W        W10370   1.346  43.682  11.860
41977W        W10371   1.916  17.337   1.488
41978W        W10372  24.973   2.947   1.773
41979W        W10373  11.329  27.967  12.882
41980W        W10374   8.283  43.021  13.913
41981W        W10375  28.248  29.637   1.257
41982W        W10376  38.363  40.401  10.609
41983W        W10377  41.626  22.709  11.600
41984W        W10378  30.061  25.071   4.379
41985W        W10379   0.510  18.150  12.906
41986W        W10380  39.772  33.881  11.360
41987W        W10381   6.072   0.479   4.251
41988W        W10382  36.643   2.244  13.673
41989W        W10383   0.761  13.676   2.649
41990W        W10384   0.847  39.476   5.034
41991W        W10385   7.680  26.918  12.047
41992W        W10386   6.166  17.755   1.844
41993W        W10387  43.925  43.737  13.779
41994W        W10388  29.426   6.720  12.813
41995W        W10389   2.779   6.238   3.571
41996W        W10390   6.753  16.165   1.404
41997W        W10391   9.612  15.086   0.297
41998W        W10392  10.691  39.620   4.162
41999W        W10393  44.313   5.717   5.010
42000W        W10394  41.592   8.956   2.314
42001W        W10395   9.686  42.802   0.296
42002W        W10396  29.520  24.466   4.212
42003W        W10397  36.859  22.684  13.880
42004W        W10398  32.240  33.496  10.656
42005W        W10399   0.382  20.187  10.336
42006W        W10400  14.248   5.695   2.304
42007W        W10401  26.448   3.505  10.320
42008W        W10402  25.513  38.944  10.675
42009W        W10403  23.104  29.009  10.887
42010W        W10404  17.576  21.060   2.753
42011W        W10405  10.671  19.705  13.134
42012W        W10406  25.583  32.438  10.585
42013W        W10407  28.955  42.509   0.406
42014W        W10408  22.051  43.373   4.572
42015W        W10409   9.158  31.423  12.908
42016W        W10410  40.924  26.017   4.124
42017W        W10411  20.044  23.505   5.027
42018W        W10412  23.343  44.817   4.901
42019W        W10413  22.400  37.576   4.319
42020W        W10414  29.240  15.185  13.489
42021W        W10415   0.863  31.451  11.846
42022W        W10416  22.938   1.742   0.829
42023W        W10417  12.638  17.027  12.900
42024W        W10418  35.904  42.877   0.065
42025W        W10419  40.680  18.346  10.159
42026W        W10420  31.135  16.592  11.167
42027W        W10421  32.436  29.070   0.266
42028W        W10422   0.682  21.050   9.989
42029W        W10423   5.914  28.005   0.391
42030W        W10424  26.720  10.148  14.836
42031W        W10425  33.925  13.193  11.060
42032W        W10426  29.481  36.449   4.814
42033W        W10427  18.315  31.680  13.914
42034W        W10428  44.256  32.387  12.050
42035W        W10429   5.504  44.994  11.320
42036W        W10430  32.426   9.745  10.986
42037W        W10431   6.272  26.546  11.813
42038W        W10432  33.178  20.068   4.232
42039W        W10433  22.766  43.049   0.385
42040W        W10434  15.787  21.003   3.267
42041W        W10435  44.978  29.463   3.715
42042W        W10436  32.987  36.471  10.840
42043W        W10437  30.439  32.482  14.716
42044W        W10438  36.856  28.905  14.840
42045W        W10439  19.300  44.955  14.946
42046W        W10440  24.830  24.544   2.912
42047W        W10441   6.441  17.187  11.191
42048W        W10442   4.845  29.574   0.529
42049W        W10443  39.369   0.994  12.964
42050W        W10444  21.737  36.970  11.282
42051W        W10445  25.556   2.722   3.843
42052W        W10446  23.787  28.692   4.516
42053W        W10447  44.311  34.451  14.121
42054W        W10448  28.880  18.732   1.565
42055W        W10449  34.702  33.412  14.738
42056W        W10450   6.386  31.357   1.596
42057W        W10451  44.227  10.133   3.698
42058W        W10452  36.817  12.186  10.608
42059W        W10453  20.212  22.069   3.972
42060W        W10454  28.699  35.153  13.071
42061W        W10455  37.538  17.924  12.589
42062W        W10456   5.130  14.271  11.601
42063W        W10457   4.309  40.534  11.470
42064W        W10458   6.369   0.399  13.823
42065W        W10459  26.772   2.497   1.662
42066W        W10460   5.866  25.633  14.029
42067W        W10461  15.235   9.304  12.265
42068W        W10462   1.702  38.595  14.414
42069W        W10463  22.946   1.442  12.905
42070W        W10464  14.481   3.381   1.717
42071W        W10465  27.396  32.871   2.371
42072W        W10466   6.756  23.727   0.783
42073W        W10467  27.093  13.696   2.830
42074W        W10468   5.910   5.703   0.311
42075W        W10469  35.153  15.864   3.553
42076W        W10470   9.256  19.788   0.910
42077W        W10471  43.228  43.995   0.260
42078W        W10472  25.658  31.981  14.802
42079W        W10473  33.881   8.208   1.172
42080W        W10474   5.457  32.113   4.805
42081W        W10475  19.384  22.801   0.790
42082W        W10476  39.327  22.958  10.885
42083W        W10477   1.604  36.655   0.775
42084W        W10478   5.379  40.878  12.132
42085W        W10479  25.680  34.796  14.155
42086W        W10480  20.228  21.195   5.070
42087W        W10481  27.636   4.320  11.829
42088W        W10482  29.651  10.048  10.653
42089W        W10483  25.657   6.349  12.085
42090W        W10484  18.708   7.343   0.332
42091W        W10485   2.427   7.766  14.414
42092W        W10486   9.193  30.942  14.837
42093W        W10487  18.971  23.529  11.220
42094W        W10488  15.753  20.200  11.654
42095W        W10489  22.952  39.007  11.757
42096W        W10490  25.789  21.678  11.640
42097W        W10491  22.482   0.942  14.170
42098W        W10492   0.747   4.460   4.588
42099W        W10493   3.966  29.025  13.474
42100W        W10494  22.194  41.761   0.296
42101W        W10495  13.174   0.754   0.463
42102W        W10496  18.531  24.663  12.067
42103W        W10497  43.962  25.163   4.738
42104W        W10498  36.478  33.556  10.740
42105W        W10499  33.483   3.914   4.109
42106W        W10500  39.659  36.527   0.287
42107W        W10501  31.055  17.220  12.965
42108W        W10502  24.839  43.970   0.349
42109W        W10503  28.676  32.824   1.845
42110W        W10504   9.837  25.647   4.034
42111W        W10505  19.566  24.475   3.307
42112W        W10506  22.075   9.864  11.499
42113W        W10507   5.900  12.805   3.667
42114W        W10508  16.175  19.746   0.400
42115W        W10509  22.520  14.241   2.381
42116W        W10510  43.547  13.289  10.666
42117W        W10511  15.866   0.952  12.821
42118W        W10512  42.672   2.239   3.143
42119W        W10513  38.109  40.578   3.239
42120W        W10514  38.710  40.461  11.928
42121W        W10515  14.183  23.852  10.132
42122W        W10516   2.161  27.681  14.368
42123W        W10517  36.441   1.845  11.935
42124W        W10518  21.015  10.586  11.422
42125W        W10519   8.896   8.804  14.889
42126W        W10520  30.900  23.932  11.231
42127W        W10521  40.070  21.662   4.116
42128W        W10522   1.153  24.072  12.491
42129W        W10523  12.652   1.716  10.731
42130W        W10524  11.163  20.621  11.905
42131W        W10525  27.480  43.070   3.658
42132W        W10526  33.180  39.857  11.086
42133W        W10527  30.848  40.017  10.427
42134W        W10528  29.525   7.301   0.537
42135W        W10529  18.084  32.384  14.994
42136W        W10530  11.463  35.612   4.558
42137W        W10531  30.970  38.583   0.946
42138W        W10532  19.166  37.431   0.541
42139W        W10533  25.175  44.740   0.635
42140W        W10534  41.432  14.866  13.807
42141W        W10535  27.665  15.678  10.402
42142W        W10536  28.879  24.199  14.761
42143W        W10537  30.434  26.737  14.123
42144W        W10538   2.478  31.104   3.040
42145W        W10539  36.361  30.478   1.217
42146W        W10540  14.173   1.384   3.632
42147W        W10541   7.345  13.180   0.810
42148W        W10542  22.587  34.069   0.707
42149W        W10543  40.050  36.176  14.702
42150W        W10544  16.032  34.194  11.101
42151W        W10545  17.997   0.983   1.278
42152W        W10546   0.344  42.050   2.778
42153W        W10547   5.723  29.113   1.836
42154W        W10548  17.826  20.293   4.975
42155W        W10549   8.126   1.313   4.591
42156W        W10550  26.983  37.952   3.084
42157W        W10551   4.569   6.472   5.107
42158W        W10552  25.510  42.418  11.139
42159W        W10553  22.499   6.332   3.794
42160W        W10554  34.987  42.737   0.687
42161W        W10555  26.426  25.521  14.975
42162W        W10556  19.344  39.882   9.935
42163W        W10557  20.883  41.389  10.435
42164W        W10558  21.922  23.424   4.631
42165W        W10559  13.236  34.169  11.678
42166W        W10560  32.801   1.903  10.732
42167W        W10561  12.587  10.219  11.058
42168W        W10562  16.596  36.829   2.703
42169W        W10563  39.448  36.443  11.173
42170W        W10564  31.707  34.102  14.386
42171W        W10565  25.840   9.648  12.125
42172W        W10566   5.367  32.551   4.114
42173W        W10567  37.460  29.040   4.675
42174W        W10568  12.147  39.083  12.413
42175W        W10569  42.744  40.378  14.720
42176W        W10570  33.580  18.086   4.698
42177W        W10571  39.051  15.007  12.159
42178W        W10572  14.340   6.292  11.646
42179W        W10573   6.643  37.195  11.545
42180W        W10574  15.968  30.643   1.341
42181W        W10575  43.557  37.141   1.447
42182W        W10576  40.618   9.192  13.535
42183W        W10577  15.126  37.107   0.445
42184W        W10578  25.354  32.157   0.222
42185W        W10579  27.494   4.645  12.901
42186W        W10580  38.464  40.970  12.417
42187W        W10581  43.256  19.143  14.962
42188W        W10582  34.176   1.301  13.313
42189W        W10583  37.498  33.022   4.730
42190W        W10584  41.949  35.395  14.175
42191W        W10585  35.872   6.843  10.644
42192W        W10586   1.419  43.514   4.569
42193W        W10587  30.509  21.335   5.021
42194W        W10588  34.106   3.840   0.968
42195W        W10589  40.254  22.656  13.676
42196W        W10590  20.254  43.961  13.949
42197W        W10591  34.103   3.318   3.659
42198W        W10592  34.412  37.517   0.900
42199W        W10593  19.676   2.426   0.260
42200W        W10594  14.795   3.754   1.148
42201W        W10595  13.180  31.389   0.894
42202W        W10596  11.448  36.300  14.054
42203W        W10597  31.087   5.417   2.928
42204W        W10598  22.000   3.945  14.771
42205W        W10599  15.204  26.259   4.943
42206W        W10600  44.787   2.839   0.985
42207W        W10601  15.231  43.066  12.325
42208W        W10602  16.756  11.102  10.701
42209W        W10603   4.149  33.669   1.111
42210W        W10604  14.738   0.057   2.391
42211W        W10605  10.543  17.569   3.120
42212W        W10606  22.780  36.790  11.180
42213W        W10607  44.931  27.613   4.069
42214W        W10608   0.591   9.876  12.399
42215W        W10609   0.204  14.749  12.976
42216W        W10610  17.269  39.845   3.760
42217W        W10611   9.437  22.815   0.560
42218W        W10612  27.464  42.562   2.016
42219W        W10613  17.028   5.793  14.958
42220W        W10614  30.374  11.248  14.053
42221W        W10615  33.399  15.195  11.584
42222W        W10616  25.463  14.624   4.634
42223W        W10617  17.489  38.535  11.844
42224W        W10618  33.855  21.427   0.832
42225W        W10619  14.313  32.084   1.710
42226W        W10620  26.201  25.822   4.292
42227W        W10621  21.264  12.644  10.118
42228W        W10622  32.767   6.096  12.244
42229W        W10623   1.946  21.703   4.776
42230W        W10624  41.826  42.855   2.217
42231W        W10625  44.700   3.729  12.508
42232W        W10626  14.003  11.481  14.957
42233W        W10627  36.472  14.385  14.026
42234W        W10628  29.203  39.016   4.685
42235W        W10629   5.378  24.425  13.533
42236W        W10630  28.597  34.615  14.382
42237W        W10631  21.244  32.607  14.679
42238W        W10632  27.041  24.204  11.499
42239W        W10633  28.566  29.955  13.109
42240W        W10634  23.029  32.924   4.180
42241W        W10635   6.436  18.456   3.516
42242W        W10636   0.128  15.704  10.458
42243W        W10637  33.457  10.835   4.522
42244W        W10638  36.539   9.367   4.105
42245W        W10639   4.809  43.637   2.646
42246W        W10640  44.517  10.139  12.457
42247W        W10641  13.283  33.486  12.089
42248W        W10642  31.979   2.227  11.424
42249W        W10643  15.561   7.280  10.897
42250W        W10644   5.851  39.094   1.560
42251W        W10645  20.330  25.431  12.324
42252W        W10646  41.486  14.829  14.830
42253W        W10647  44.482  36.122  13.634
42254W        W10648  27.138  25.555  13.896
42255W        W10649  10.656  22.106  13.292
42256W        W10650  24.487  44.909   3.806
42257W        W10651  33.543  25.269  15.000
42258W        W10652  39.899   6.953  13.292
42259W        W10653  39.446  13.076  14.055
42260W        W10654  35.094   0.682  13.386
42261W        W10655  37.841   1.905  11.053
42262W        W10656   4.940  12.361   0.722
42263W        W10657  12.811  34.013  13.225
42264W        W10658   8.075  19.458  14.930
42265W        W10659  40.675  43.167  11.448
42266W        W10660  16.132  25.574   0.243
42267W        W10661  26.399  28.102   1.530
42268W        W10662  28.473  37.817  13.999
42269W        W10663   9.934  17.307  13.838
42270W        W10664   0.773  33.020  12.658
42271W        W10665  10.304  16.559   2.643
42272W        W10666   4.003  34.618   0.491
42273W        W10667  29.111  22.072   3.766
42274W        W10668   5.286  19.553  10.613
42275W        W10669  17.142   1.405   4.555
42276W        W10670  14.201  20.619   0.641
42277W        W10671  44.442  12.934  12.545
42278W        W10672  31.688  21.263   0.269
42279W        W10673   6.632  13.681   3.224
42280W        W10674  27.041  31.643   0.950
42281W        W10675   9.873  35.964  14.204
42282W        W10676  12.256  12.593  11.684
42283W        W10677  25.605  35.269  12.539
42284W        W10678  13.121  44.553  12.479
42285W        W10679  14.340  36.806   9.840
42286W        W10680  31.490  24.106   3.699
42287W        W10681  42.584  39.760   2.123
42288W        W10682  33.109  14.163  12.032
42289W        W10683  23.566  29.370  12.485
42290W        W10684   2.033   6.263   2.424
42291W        W10685  23.342  21.397   3.909
42292W        W10686  44.791  10.289   2.857
42293W        W10687   3.690  10.763   1.269
42294W        W10688  40.337   5.151   2.400
42295W        W10689  17.657  28.198  12.438
42296W        W10690  41.534  12.277   2.725
42297W        W10691  34.056   0.738  14.507
42298W        W10692  41.859  40.228   2.468
42299W        W10693  40.898  19.296   2.667
42300W        W10694  16.110  15.231   2.102
42301W        W10695   3.377  22.994   0.818
42302W        W10696   1.341  25.473  14.238
42303W        W10697  13.284  22.663  12.462
42304W        W10698   5.187  28.877   0.486
42305W        W10699  17.111  12.254  14.284
42306W        W10700  10.647  21.021   2.986
42307W        W10701  39.576  14.126   0.832
42308W        W10702  19.389  15.881  14.231
42309W        W10703   5.963  12.915  10.632
42310W        W10704   4.488  31.468   1.736
42311W        W10705  18.042   5.692  14.921
42312W        W10706  30.241  30.483   1.224
42313W        W10707  10.408   6.458   3.552
42314W        W10708  33.315  33.862  11.518
42315W        W10709  24.086  43.041  10.286
42316W        W10710   6.339   5.994  14.251
42317W        W10711  43.809  23.437  12.935
42318W        W10712   0.387  13.686  12.512
42319W        W10713  44.690   7.988  12.614
42320W        W10714   8.948  10.182   0.445
42321W        W10715  37.077  26.632  11.728
42322W        W10716  29.151  26.330  13.861
42323W        W10717  28.983   9.209   0.821
42324W        W10718   1.048   6.654  14.998
42325W        W10719  17.245  28.165  13.769
42326W        W10720  21.624  31.065  12.187
42327W        W10721  35.384  18.119   1.358
42328W        W10722  14.564   1.698  12.143
42329W        W10723  20.260  16.464   3.224
42330W        W10724  25.146   7.912  12.812
42331W        W10725  19.825  40.222   3.339
42332W        W10726   7.428  20.738   4.579
42333W        W10727  23.770   9.725   1.737
42334W        W10728  32.401  26.521   1.914
42335W        W10729  33.633  21.749   2.922
42336W        W10730  36.875  16.489  11.142
42337W        W10731  26.558   5.919   2.759
42338W        W10732  40.564   9.836   3.866
42339W        W10733  41.831  35.006   3.769
42340W        W10734  21.125  20.185  13.967
42341W        W10735  10.265  35.012   0.490
42342W        W10736  28.960  28.081  13.025
42343W        W10737  18.353  28.496  14.972
42344W        W10738  12.639   6.727  12.135
42345W        W10739  15.270  19.313  10.236
42346W        W10740  36.774   9.163   0.357
42347W        W10741   9.744  16.534   3.421
42348W        W10742  44.242  14.284  10.263
42349W        W10743  17.851   4.735   3.653
42350W        W10744  32.157  14.357  10.257
42351W        W10745  18.804   9.115  10.688
42352W        W10746  19.631  19.074   5.105
42353W        W10747   4.178  40.856   3.201
42354W        W10748  31.493  44.692  10.220
42355W        W10749  25.666  29.092   4.603
42356W        W10750  39.548   0.589  11.061
42357W        W10751   4.153  21.584  13.499
42358W        W10752  11.132  36.925  13.652
42359W        W10753   3.964  27.240   4.374
42360W        W10754  25.541   5.693   3.205
42361W        W10755  26.726  13.763   0.940
42362W        W10756  12.763  39.309  14.902
42363W        W10757   0.590   1.637  14.459
42364W        W10758  36.043   5.239  14.610
42365W        W10759   3.915  41.875  12.146
42366W        W10760   9.285  38.553   4.041
42367W        W10761  35.941  33.811   4.339
42368W        W10762  28.255  31.555   4.193
42369W        W10763  33.836  43.354  14.082
42370W        W10764  36.887  13.894   1.013
42371W        W10765   8.870  24.968  13.998
42372W        W10766  33.542  12.053   4.215
42373W        W10767  31.795   1.880  12.118
42374W        W10768  33.062  29.696  14.886
42375W        W10769  17.303  22.756  11.614
42376W        W10770  26.467   1.482   4.726
42377W        W10771  37.311  31.205  11.884
42378W        W10772  12.584  23.267   4.769
42379W        W10773  14.466   9.931  13.802
42380W        W10774   0.841  41.378  12.348
42381W        W10775   9.630  23.481   2.256
42382W        W10776  21.284  27.187  14.284
42383W        W10777   0.245   7.391   0.782
42384W        W10778  13.697  12.806   2.793
42385W        W10779   8.350  42.544  11.191
42386W        W10780  43.760  22.396  11.048
42387W        W10781  13.815  22.733   4.648
42388W        W10782  27.569  11.352   0.712
42389W        W10783  37.576  29.154   2.594
42390W        W10784  43.735  14.760  12.368
42391W        W10785  13.771  26.085  12.746
42392W        W10786  37.299   1.674  11.969
42393W        W10787  14.365  20.409   2.839
42394W        W10788  38.821   4.124  14.216
42395W        W10789  10.847  38.853  14.834
42396W        W10790  41.471  35.955   3.293
42397W        W10791  15.060  44.969   3.264
42398W        W10792  21.698   5.230  13.554
42399W        W10793  30.507  41.344   0.743
42400W        W10794   2.854  32.476  14.025
42401W        W10795  14.824  30.449  13.857
42402W        W10796  11.045   9.673   4.743
42403W        W10797  23.768  32.666   4.168
42404W        W10798  13.912  11.611  11.641
42405W        W10799  22.776  32.610  11.991
42406W        W10800  34.873  34.987  11.593
42407W        W10801   2.980  21.796   2.886
42408W        W10802  19.209  38.282  12.879
42409W        W10803  32.676  29.528  10.582
42410W        W10804  14.771   9.793   1.399
42411W        W10805  14.372  21.882  13.849
42412W        W10806  30.955   6.761   4.528
42413W        W10807  10.376   0.365  11.949
42414W        W10808  17.516   4.258  10.662
42415W        W10809   4.902  31.957   0.828
42416W        W10810   7.699  10.640   1.640
42417W        W10811  28.743  31.444   2.591
42418W        W10812  29.082  30.882  14.496
42419W        W10813   9.840  24.005  14.374
42420W        W10814  38.836  29.547   0.589
42421W        W10815   6.761   5.130   4.973
42422W        W10816  27.965   6.478  12.110
42423W        W10817  40.402  30.422   2.186
42424W        W10818   0.245  36.445   3.725
42425W        W10819   2.948  15.509  12.497
42426W        W10820  43.354  13.889   4.669
42427W        W10821  26.394  17.098  13.562
42428W        W10822   1.734  28.531  11.050
42429W        W10823  42.958  11.288  14.735
42430W        W10824  43.954   5.164   4.219
42431W        W10825  24.027  36.367   2.182
42432W        W10826  32.625  23.628   4.176
42433W        W10827  20.645   5.829   4.774
42434W        W10828  17.723  17.538   2.895
42435W        W10829  27.444  19.870   4.162
42436W        W10830  10.191  39.859   4.789
42437W        W10831  27.123  44.528  14.457
42438W        W10832  36.889  20.608   3.802
42439W        W10833   1.736  43.881  12.585
42440W        W10834  44.766  10.907  12.561
42441W        W10835  19.025   0.840   3.948
42442W        W10836  13.654  13.901  14.774
42443W        W10837   7.100  12.839  14.015
42444W        W10838  22.671  29.042   2.196
42445W        W10839  35.276  23.458  12.684
42446W        W10840  11.673  18.070   4.326
42447W        W10841  15.267  29.752  14.917
42448W        W10842   8.257   3.906  12.979
42449W        W10843   3.949  14.002  10.948
42450W        W10844  38.081  30.030   2.398
42451W        W10845  34.555  32.100  11.684
42452W        W10846   6.905  12.108   3.216
42453W        W10847  20.482  18.552   2.232
42454W        W10848  30.414  36.011   1.779
42455W        W10849  28.993   9.207   3.850
42456W        W10850  11.786  41.847  13.584
42457W        W10851  15.777  35.389  10.697
42458W        W10852  38.810  22.076   0.176
42459W        W10853  43.650  10.746  14.414
42460W        W10854  38.497  18.291   0.760
42461W        W10855   0.396   5.588  14.395
42462W        W10856  12.373  28.447  13.060
42463W        W10857  27.071  12.412   1.507
42464W        W10858  40.936  38.867   2.814
42465W        W10859  38.383  24.173   3.215
42466W        W10860  38.781   4.748  12.346
42467W        W10861  28.913   6.694   3.265
42468W        W10862  24.166  17.592   5.018
42469W        W10863   2.000  18.698  13.595
42470W        W10864   6.221  42.863   3.406
42471W        W10865  25.536   7.205   4.079
42472W        W10866  38.747  25.654  10.822
42473W        W10867  35.629  26.113  14.805
42474W        W10868  40.016   6.757   1.741
42475W        W10869  22.029  27.462  12.893
42476W        W10870  31.445  32.414  12.057
42477W        W10871  31.552  15.348   2.198
42478W        W10872  27.185  44.833   0.424
42479W        W10873  42.045  11.559   2.768
42480W        W10874  43.597  40.867   1.310
42481W        W10875  26.589  28.079   1.040
42482W        W10876  38.144  24.593  12.594
42483W        W10877  20.183  44.104   3.158
42484W        W10878  12.257   4.955   2.626
42485W        W10879   8.982  17.643   0.629
42486W        W10880  17.179   5.340   2.283
42487W        W10881  20.502  10.360  12.611
42488W        W10882  39.072  10.322  13.818
42489W        W10883  19.002  22.049   2.317
42490W        W10884   7.492  37.064  10.707
42491W        W10885  31.420  22.288  13.742
42492W        W10886  17.040   9.970   2.173
42493W        W10887   8.431   1.801   5.017
42494W        W10888  24.720  42.416   1.247
42495W        W10889  20.642  18.568   3.341
42496W        W10890  22.694  44.894   1.487
42497W        W10891  20.599  36.499   1.906
42498W        W10892  42.238  15.089  10.932
42499W        W10893  25.590  31.397  11.497
42500W        W10894  15.115  38.914  12.502
42501W        W10895  18.662   7.561   0.825
42502W        W10896  24.298  15.226  12.427
42503W        W10897  12.628   4.921   4.132
42504W        W10898  17.303   9.211   4.812
42505W        W10899  27.023  10.070  12.396
42506W        W10900  30.730  19.163  12.617
42507W        W10901  18.613  12.736   4.106
42508W        W10902   0.342  42.876  13.580
42509W        W10903  23.781  14.035   3.834
42510W        W10904  28.597  41.938  14.787
42511W        W10905  27.121  13.634   3.847
42512W        W10906   8.326  28.341   1.296
42513W        W10907  32.590  37.778  11.934
42514W        W10908   7.894  19.954   1.381
42515W        W10909  21.020   7.577   2.052
42516W        W10910  13.350  39.356  11.582
42517W        W10911  25.923  26.718   1.736
42518W        W10912  11.810  28.979  12.458
42519W        W10913  25.161  28.060   3.369
42520W        W10914  15.073  25.589  13.722
42521W        W10915   3.980   1.439  12.582
42522W        W10916  13.896  21.653  12.116
42523W        W10917  44.360  32.578   2.822
42524W        W10918   8.651   2.014  13.056
42525W        W10919  32.196  12.716   3.650
42526W        W10920  26.449  30.167   0.496
42527W        W10921  30.577  25.392  10.711
42528W        W10922  33.054  41.018  12.122
42529W        W10923  27.153  11.891   5.225
42530W        W10924  35.027  35.493   2.620
42531W        W10925  10.852  23.922  13.796
42532W        W10926   3.018  24.923  10.980
42533W        W10927  15.537  13.630   0.139
42534W        W10928  35.805  40.234  11.575
42535W        W10929  33.927  28.296   1.872
42536W        W10930   9.109  11.296   0.303
42537W        W10931   1.439   7.911   2.217
42538W        W10932  43.089  12.219   3.866
42539W        W10933  36.362   1.485  11.122
42540W        W10934  13.858   2.866   3.433
42541W        W10935  28.158  33.065   0.870
42542W        W10936  41.865  19.039  10.771
42543W        W10937   1.007  20.157   4.169
42544W        W10938  29.528   4.207  12.978
42545W        W10939   4.773  28.649   0.261
42546W        W10940   3.260  13.160  13.481
42547W        W10941  21.783  32.035   2.186
42548W        W10942  26.678  40.329   0.846
42549W        W10943  40.639  30.668   1.782
42550W        W10944  40.886  30.164  13.482
42551W        W10945  30.480   4.321  12.013
42552W        W10946  29.998  15.901  13.148
42553W        W10947   9.676  43.726  13.959
42554W        W10948  19.087  30.396   0.527
42555W        W10949  30.908  44.861  12.953
42556W        W10950  13.507  27.946  11.486
42557W        W10951  38.300  36.559  14.981
42558W        W10952  42.477  14.015   2.164
42559W        W10953  39.084  39.808   3.779
42560W        W10954  20.014  42.015   4.151
42561W        W10955  33.683  43.780   0.889
42562W        W10956  38.366  40.876  11.893
42563W        W10957  39.996  26.155   2.918
42564W        W10958  11.635  30.926   1.746
42565W        W10959  34.161  34.131   3.399
42566W        W10960   2.704  34.352   0.734
42567W        W10961  28.581  23.222   1.953
42568W        W10962   9.227  38.394  12.042
42569W        W10963   6.785  36.991   4.278
42570W        W10964  28.048  41.184   3.856
42571W        W10965  14.536  15.335  11.574
42572W        W10966   8.980   1.539  14.530
42573W        W10967  30.181  37.680   4.101
42574W        W10968   0.431  44.501   0.545
42575W        W10969  11.326  29.428  12.551
42576W        W10970  15.752  28.083  12.434
42577W        W10971   2.096  20.152  13.516
42578W        W10972  16.105   5.236  10.328
42579W        W10973  28.648   0.925  12.314
42580W        W10974  39.540  16.507  10.668
42581W        W10975   9.732  18.591   0.844
42582W        W10976   9.766  43.871   3.103
42583W        W10977   1.296  37.434   3.830
42584W        W10978  30.105  22.512  10.783
42585W        W10979  13.335   7.879   0.395
42586W        W10980   6.797  12.742   0.112
42587W        W10981  21.652  33.212   4.363
42588W        W10982   3.013  39.969   0.803
42589W        W10983  42.575  16.219   3.777
42590W        W10984   0.563  38.820  13.864
42591W        W10985  39.309  29.915  10.454
42592W        W10986  13.938  35.354   3.248
42593W        W10987  34.026  17.818   0.280
42594W        W10988  29.482  34.550   1.698
42595W        W10989   5.073  34.729  14.663
42596W        W10990  32.991  39.078   4.074
42597W        W10991  43.857  26.036  12.052
42598W        W10992  41.682  37.339   0.232
42599W        W10993   9.842  22.500   1.340
42600W        W10994   1.724  41.364   0.998
42601W        W10995  36.009  42.485   1.321
42602W        W10996   6.388   6.945   1.341
42603W        W10997  39.368  11.886  12.899
42604W        W10998  29.096  16.056   1.376
42605W        W10999  14.357  27.347   0.308
42606W        W11000  32.056  40.013  11.926
42607W        W11001  39.974   3.957  12.583
42608W        W11002  28.933  16.085   4.155
42609W        W11003   0.357  18.596   4.316
42610W        W11004  33.658  24.694   1.348
42611W        W11005   0.791  27.490   0.780
42612W        W11006  35.296  25.657  13.367
42613W        W11007  43.358  20.988  13.007
42614W        W11008  26.973  38.490  14.875
42615W        W11009  12.778  36.903  10.657
42616W        W11010  43.621  30.450  12.177
42617W        W11011  23.656  39.248  14.837
42618W        W11012  43.796  25.120  10.693
42619W        W11013   6.775  22.571  13.595
42620W        W11014  25.949  22.583  12.389
42621W        W11015  44.076  30.435  11.955
42622W        W11016  16.994  37.062   1.344
42623W        W11017  20.159  44.527   4.449
42624W        W11018  43.438  19.302  10.323
42625W        W11019  20.467   0.497   3.282
42626W        W11020  32.670  12.142  12.680
42627W        W11021   6.388  21.816  11.868
42628W        W11022  16.312  26.460   2.137
42629W        W11023  19.486  19.015   0.788
42630W        W11024  35.420  22.920  10.568
42631W        W11025   6.730  40.514  14.326
42632W        W11026   3.232  28.122   3.613
42633W        W11027   1.023  19.849  14.870
42634W        W11028  31.122   8.618  14.621
42635W        W11029  23.508  23.615   4.362
42636W        W11030  31.950  26.952  13.396
42637W        W11031  29.137   9.211  14.892
42638W        W11032  17.993  10.679   3.698
42639W        W11033  29.664   6.895  11.843
42640W        W11034  25.698  42.365   3.664
42641W        W11035   9.637  35.965  11.728
42642W        W11036   8.252   1.709  12.118
42643W        W11037  10.384  21.643  12.976
42644W        W11038   4.299  26.138  11.268
42645W        W11039  38.398  13.776  14.924
42646W        W11040  42.828  42.988  10.450
42647W        W11041  35.101  41.964  13.855
42648W        W11042  10.453  29.564  14.470
42649W        W11043  35.593   2.472   2.850
42650W        W11044  21.176   6.938  11.595
42651W        W11045   1.369  19.419  10.822
42652W        W11046  10.220   1.758   0.768
42653W        W11047  29.700  16.500  13.882
42654W        W11048   6.149  26.616   3.898
42655W        W11049  25.320  33.737   1.665
42656W        W11050  21.468   4.783  13.726
42657W        W11051  31.145  20.330   1.641
42658W        W11052  21.747  39.127   0.342
42659W        W11053  44.836  34.363   2.747
42660W        W11054   0.797  17.723  13.996
42661W        W11055   6.797   4.866   1.691
42662W        W11056  23.084  36.677  14.065
42663W        W11057  43.331  12.327   1.304
42664W        W11058  15.319  24.166   0.813
42665W        W11059  31.656  15.605   1.758
42666W        W11060  16.169  39.483   0.157
42667W        W11061  39.785   9.811   3.105
42668W        W11062  24.835   1.436  11.430
42669W        W11063  31.083  19.840  14.995
42670W        W11064   0.913  35.193  12.577
42671W        W11065  24.771  15.345  13.367
42672W        W11066  10.420  23.950   4.156
42673W        W11067  36.460  38.650  13.370
42674W        W11068  20.303  40.422   3.290
42675W        W11069  14.621  37.903  10.597
42676W        W11070  29.262  42.100   4.004
42677W        W11071  35.044   8.277   2.266
42678W        W11072  22.733  27.172   4.198
42679W        W11073  19.974  40.529   2.924
42680W        W11074  41.760   1.810  13.207
42681W        W11075  39.186   3.948  13.875
42682W        W11076   4.832  16.305   1.049
42683W        W11077   8.588   8.771   2.403
42684W        W11078   4.960  16.278  13.417
42685W        W11079  27.471   4.754  14.308
42686W        W11080   6.892   6.958   1.219
42687W        W11081  13.621  29.831  13.018
42688W        W11082  39.769  25.047  14.848
42689W        W11083  19.343   7.784   3.228
42690W        W11084  37.865  19.615  13.753
42691W        W11085  14.647  13.898   4.212
42692W        W11086  14.927  28.421  14.939
42693W        W11087  34.692  41.224  11.214
42694W        W11088  23.336   7.922   2.102
42695W        W11089   8.932  34.390  11.212
42696W        W11090   1.953   6.698  13.642
42697W        W11091  44.593  31.978  13.140
42698W        W11092   0.221  34.482   4.796
42699W        W11093  27.156   6.171   4.115
42700W        W11094   5.022   1.845  13.387
42701W        W11095  21.701  16.037  12.926
42702W        W11096  25.332  12.746  14.151
42703W        W11097  39.609  37.052  13.088
42704W        W11098  23.197  38.437   3.413
42705W        W11099  32.514   9.461  14.877
42706W        W11100  21.204  24.040   4.615
42707W        W11101  18.995  28.696   4.722
42708W        W11102  27.643  34.096   3.708
42709W        W11103  12.655  24.697   4.431
42710W        W11104  20.191  32.493  11.589
42711W        W11105   2.901  29.200   2.941
42712W        W11106  36.923  11.697  10.738
42713W        W11107  14.088  15.317   0.802
42714W        W11108  13.631  17.097  12.124
42715W        W11109  17.112  36.928  12.160
42716W        W11110   2.997  15.713   0.313
42717W        W11111  11.130  20.688   0.822
42718W        W11112   8.815  38.274  12.926
42719W        W11113  17.677  16.753  14.363
42720W        W11114  26.469  12.846   0.572
42721W        W11115  17.865  35.089   4.186
42722W        W11116  40.694  25.172  14.420
42723W        W11117  36.129  44.362  12.968
42724W        W11118  11.382  10.755   2.347
42725W        W11119  38.380  30.587   4.549
42726W        W11120  15.476  30.521   1.392
42727W        W11121  27.412  39.501   2.241
42728W        W11122  11.533  22.547  12.645
42729W        W11123  20.242  10.921  11.144
42730W        W11124   6.282  35.303  12.299
42731W        W11125   6.522  12.956  12.708
42732W        W11126  37.113  20.640   0.696
42733W        W11127   5.425  21.516  14.432
42734W        W11128  19.034   5.722  12.347
42735W        W11129  25.143   4.273   4.585
42736W        W11130  26.721   2.094  11.762
42737W        W11131  28.675  22.623   4.286
42738W        W11132  32.046  22.042   0.834
42739W        W11133   4.809  19.512   2.759
42740W        W11134  13.571  23.914  12.206
42741W        W11135  16.685  14.336  14.011
42742W        W11136   8.187  20.057  13.550
42743W        W11137  40.626  39.389  10.979
42744W        W11138  20.886  20.045   4.291
42745W        W11139  20.832  27.731   1.845
42746W        W11140  14.573  35.853   3.592
42747W        W11141  41.542  23.725   1.253
42748W        W11142  40.815  26.894   3.816
42749W        W11143  25.264  35.919   1.038
42750W        W11144  30.622  43.237  10.526
42751W        W11145  17.060   9.124  11.191
42752W        W11146  31.883  29.770   3.534
42753W        W11147  37.848  20.074   1.490
42754W        W11148  22.980  28.184   0.493
42755W        W11149  12.131  27.433   0.494
42756W        W11150  33.393  25.016   1.811
42757W        W11151  18.729   5.379  12.629
42758W        W11152  44.163  16.052   2.902
42759W        W11153  31.202  37.174  13.787
42760W        W11154  40.461  19.535  14.391
42761W        W11155  23.567  18.656   2.850
42762W        W11156   5.236  24.147   4.972
42763W        W11157  15.067  26.433   2.120
42764W        W11158  31.535  38.316   0.489
42765W        W11159  16.110  40.355   0.913
42766W        W11160  40.807  29.033   1.532
42767W        W11161  43.342  40.342  13.016
42768W        W11162  29.312  32.550  11.737
42769W        W11163  18.814  26.039  12.966
42770W        W11164  21.038   5.444  14.130
42771W        W11165  22.971   4.826  14.766
42772W        W11166  37.365  18.724   3.616
42773W        W11167  14.343   1.513   0.630
42774W        W11168   0.184  27.234  10.719
42775W        W11169  34.599  41.679   0.522
42776W        W11170  41.483  41.816  10.514
42777W        W11171  14.784  20.471   3.144
42778W        W11172  19.228  43.305  14.821
42779W        W11173  41.338   8.644  12.403
42780W        W11174  32.029   5.771   4.183
42781W        W11175  24.645   4.615  12.962
42782W        W11176  11.278  35.582   1.906
42783W        W11177  27.651  19.958   3.283
42784W        W11178  27.994  40.908   2.303
42785W        W11179  42.916   4.927  13.415
42786W        W11180  12.813   3.853   1.771
42787W        W11181  21.146  13.242  14.415
42788W        W11182  14.643   4.660   4.387
42789W        W11183  29.890  11.679  12.888
42790W        W11184  12.484  40.750   3.267
42791W        W11185  39.612  12.892  13.568
42792W        W11186  40.044  41.288   3.442
42793W        W11187  30.874   6.297   0.228
42794W        W11188   8.846  40.568  10.670
42795W        W11189  21.176  39.973   3.095
42796W        W11190  35.876  22.221   0.469
42797W        W11191  26.579  39.815   4.276
42798W        W11192   8.603  21.293  13.070
42799W        W11193  11.781   1.954  12.983
42800W        W11194   8.832   3.280  14.698
42801W        W11195  27.632   8.294   1.314
42802W        W11196  21.554  33.966  14.765
42803W        W11197  32.059  35.426   2.339
42804W        W11198  30.586  24.940  12.116
42805W        W11199  41.895   8.124  13.858
42806W        W11200  44.812   5.699  11.701
42807W        W11201  19.673   4.337   2.788
42808W        W11202  22.229  36.077   4.789
42809W        W11203  41.764   6.351  13.445
42810W        W11204  13.319   1.191  13.566
42811W        W11205  26.317   9.271  14.307
42812W        W11206   9.068  38.398   2.403
42813W        W11207  15.526   3.040   1.366
42814W        W11208  29.469   3.009   4.380
42815W        W11209  19.992  30.375   1.827
42816W        W11210  37.352  36.509   1.000
42817W        W11211  43.997  40.593  14.432
42818W        W11212  40.845   4.144  11.166
42819W        W11213   1.720  16.845  12.561
42820W        W11214  29.201  42.011   4.624
42821W        W11215   3.858  31.116  14.961
42822W        W11216  27.671  42.473  12.016
42823W        W11217  16.242  34.881  13.375
42824W        W11218  15.889  13.348  14.865
42825W        W11219  29.247  26.439  11.615
42826W        W11220   7.533  31.491   2.123
42827W        W11221  32.100  25.537   1.204
42828W        W11222  21.681  18.147  13.316
42829W        W11223  34.626  19.282  11.644
42830W        W11224  39.438   8.680   3.037
42831W        W11225  34.570   3.812   4.885
42832W        W11226  43.351  14.891   1.445
42833W        W11227  34.447  21.805  13.047
42834W        W11228   4.017   6.671  12.879
42835W        W11229   6.828  14.634   1.490
42836W        W11230  21.718  11.265   4.613
42837W        W11231  33.706  24.589  10.669
42838W        W11232   7.936  18.500   9.913
42839W        W11233  12.493   9.680  11.381
42840W        W11234  12.535  29.493   3.263
42841W        W11235   5.632  33.165  14.919
42842W        W11236   9.291  14.266   3.664
42843W        W11237  31.939  34.716  12.086
42844W        W11238  16.245  32.031  12.352
42845W        W11239  25.579  39.106   3.727
42846W        W11240  10.092  35.686  10.776
42847W        W11241  28.822  10.319  13.312
42848W        W11242  35.913  15.097  13.888
42849W        W11243  27.361  43.485   1.847
42850W        W11244  34.042  13.535  11.555
42851W        W11245  14.090  14.383   0.853
42852W        W11246  11.011  17.820   4.299
42853W        W11247   4.276  10.799   2.230
42854W        W11248  12.367  28.000  14.407
42855W        W11249  11.849  31.319  12.110
42856W        W11250   3.914  13.504  10.875
42857W        W11251  10.309  27.245   0.233
42858W        W11252  18.976  38.315   1.880
42859W        W11253   8.341  36.924  13.560
42860W        W11254   4.846  43.526   0.419
42861W        W11255  14.177  21.773   1.012
42862W        W11256  14.647   7.526  13.440
42863W        W11257  31.107  40.374   1.747
42864W        W11258  42.790  19.769   0.320
42865W        W11259  28.658  34.964   3.749
42866W        W11260  32.025  33.702   1.862
42867W        W11261  29.897   5.241  11.598
42868W        W11262  28.299   2.267  13.553
42869W        W11263  16.584  26.579   4.500
42870W        W11264  17.675  34.365   4.776
42871W        W11265   0.970  21.758   0.762
42872W        W11266   3.762  15.167   3.571
42873W        W11267  10.332  19.627  11.925
42874W        W11268  25.689  13.323   3.573
42875W        W11269  24.717  12.548  12.958
42876W        W11270  13.896  40.328   1.785
42877W        W11271  23.961   0.028   0.748
42878W        W11272  20.811  18.459  10.930
42879W        W11273   1.773   5.617  12.562
42880W        W11274  12.666  18.389  12.425
42881W        W11275  35.413   8.638   0.621
42882W        W11276   6.294  44.488   5.148
42883W        W11277  35.934  31.635   1.899
42884W        W11278  36.491   4.502  10.602
42885W        W11279   8.029  44.266   4.976
42886W        W11280  43.015   7.199  10.780
42887W        W11281  39.316  29.993   1.793
42888W        W11282  37.290  18.096  11.607
42889W        W11283  11.641  18.671  14.565
42890W        W11284  28.044  43.241   0.131
42891W        W11285  27.937  32.884  12.953
42892W        W11286  27.831  21.646   1.780
42893W        W11287  23.100   6.544  12.115
42894W        W11288  44.990  28.095   0.755
42895W        W11289  40.351  30.044  11.965
42896W        W11290  10.459  26.507   3.439
42897W        W11291  34.405  30.003  12.512
42898W        W11292  24.597  42.751  13.902
42899W        W11293   0.017  42.477   3.106
42900W        W11294  44.293  18.755   1.772
42901W        W11295  20.917  31.918  11.670
42902W        W11296  22.255  19.095  14.131
42903W        W11297  19.181  32.416   1.615
42904W        W11298  44.883  43.998   1.720
42905W        W11299   6.485  20.199   3.745
42906W        W11300   7.544   2.064  14.380
42907W        W11301   5.633   7.469  14.371
42908W        W11302  18.539  27.551   2.724
42909W        W11303  26.211  30.696   1.009
42910W        W11304  24.711   4.876   4.586
42911W        W11305  22.416  17.343   0.441
42912W        W11306   3.727  28.962  10.796
42913W        W11307  30.106  28.202   0.770
42914W        W11308  36.997  26.984   3.803
42915W        W11309  18.572  43.665  13.341
42916W        W11310  33.766  23.927  10.303
42917W        W11311  14.513   8.213  11.041
42918W        W11312  18.491  11.665   4.842
42919W        W11313  17.596  15.560  10.385
42920W        W11314  27.636  15.781   3.464
42921W        W11315  33.644   6.349   0.410
42922W        W11316  16.291  37.646  10.715
42923W        W11317  34.157   9.899   3.242
42924W        W11318  27.387  10.623   0.594
42925W        W11319  27.664  28.816   1.936
42926W        W11320  12.187  22.114   2.420
42927W        W11321  10.358   2.086   2.167
42928W        W11322  35.668  10.142  11.167
42929W        W11323   0.499   1.421   4.312
42930W        W11324  44.064   3.275  11.879
42931W        W11325  31.963  19.074  12.990
42932W        W11326  17.679  28.043  10.616
42933W        W11327  40.241  27.414  14.992
42934W        W11328  13.814  32.308   2.872
42935W        W11329  37.403   6.705   5.336
42936W        W11330   8.861  32.997  12.253
42937W        W11331  43.934  28.028   3.981
42938W        W11332  17.182  31.040   4.523
42939W        W11333  10.776  28.606  14.215
42940W        W11334   0.154  31.581  14.807
42941W        W11335  32.427   8.445  14.931
42942W        W11336   4.665   1.558  10.732
42943W        W11337  37.325   4.558   0.294
42944W        W11338  38.437  32.656   0.971
42945W        W11339  41.343  23.287  14.945
42946W        W11340  20.713  30.486  14.540
42947W        W11341  20.295  41.550  14.447
42948W        W11342  20.929   9.008   5.070
42949W        W11343  11.797  44.016   3.722
42950W        W11344  39.402  33.181   2.308
42951W        W11345  36.085  18.084   2.402
42952W        W11346  33.873  13.280  14.842
42953W        W11347  38.561  12.296  11.204
42954W        W11348  41.514  35.906  14.074
42955W        W11349  43.298  29.956   3.297
42956W        W11350  15.463   7.448   1.972
42957W        W11351  14.146   9.845  12.340
42958W        W11352  18.873  34.381   0.809
42959W        W11353   3.950  39.423   4.638
42960W        W11354  38.733   0.879   1.279
42961W        W11355   7.728  34.280   4.275
42962W        W11356  43.381   0.203   3.159
42963W        W11357  15.612  14.681  13.552
42964W        W11358  11.454  41.471  11.342
42965W        W11359   6.642  26.026   3.269
42966W        W11360   4.329   9.082  13.525
42967W        W11361  40.045  23.176  12.429
42968W        W11362  17.592  29.126  12.317
42969W        W11363  38.108   3.860   0.253
42970W        W11364  37.821  37.369   2.645
42971W        W11365  11.643   2.384   4.621
42972W        W11366   3.695  25.770   3.082
42973W        W11367  35.469  43.496  10.382
42974W        W11368  10.657  10.349  14.955
42975W        W11369  25.375  40.332  11.606
42976W        W11370  44.807  37.475   1.757
42977W        W11371  10.153  25.795  10.899
42978W        W11372  14.526  38.788   5.097
42979W        W11373  13.240  25.441  13.152
42980W        W11374  14.391  15.765   4.097
42981W        W11375  27.792  12.676  11.143
42982W        W11376  23.114  43.472   0.246
42983W        W11377  23.481   5.653   1.711
42984W        W11378  25.809  22.253  14.169
42985W        W11379   8.289  44.530   0.799
42986W        W11380  40.842  13.752  12.968
42987W        W11381   6.253  19.750   0.935
42988W        W11382  31.113  29.771   9.806
42989W        W11383  24.725  44.223  14.863
42990W        W11384  33.091  22.551  12.108
42991W        W11385  16.006   1.561  12.285
42992W        W11386  37.850   6.278   4.527
42993W        W11387  25.059  35.609   1.837
42994W        W11388  26.451   7.879   4.172
42995W        W11389  34.296  31.502  12.651
42996W        W11390  11.749  35.506  12.407
42997W        W11391   4.341  15.850   3.623
42998W        W11392   0.111  17.193  14.589
42999W        W11393  13.809  33.077   0.858
43000W        W11394  20.630  22.153   0.673
43001W        W11395  17.048  10.352   0.502
43002W        W11396  27.674   9.216   2.207
43003W        W11397  20.968  35.093   2.909
43004W        W11398  21.796   0.390   2.820
43005W        W11399  22.538   3.234   0.389
43006W        W11400   9.349  20.649   3.693
43007W        W11401  37.717  18.246  14.420
43008W        W11402   6.202  41.626   2.127
43009W        W11403   9.364  20.802  13.819
43010W        W11404  38.466  26.740  13.618
43011W        W11405  32.137   9.956  14.098
43012W        W11406   5.931  24.072  14.858
43013W        W11407   4.317  16.299  11.492
43014W        W11408  33.118  27.016   0.999
43015W        W11409  44.840  41.008  12.103
43016W        W11410  36.083  23.206  11.603
43017W        W11411  41.657  18.564  13.463
43018W        W11412  36.857  29.568   0.847
43019W        W11413  10.342  23.785  12.996
43020W        W11414  26.729  25.024   0.837
43021W        W11415   8.847  42.358   2.221
43022W        W11416  44.505   6.770   3.021
43023W        W11417  12.700  19.153   4.910
43024W        W11418  24.675   9.848  13.794
43025W        W11419   7.331   3.795   0.734
43026W        W11420  26.944  40.218  10.427
43027W        W11421  33.539  22.704  14.019
43028W        W11422  41.800  28.131  13.808
43029W        W11423  40.867   2.237   0.430
43030W        W11424  30.097  30.777  10.655
43031W        W11425  34.041   7.237   1.283
43032W        W11426   5.751  31.124  13.047
43033W        W11427   2.917  14.124  12.430
43034W        W11428  24.556  15.378   3.244
43035W        W11429  24.037  15.852  12.073
43036W        W11430  22.732  23.176  13.025
43037W        W11431   5.300  10.893   4.565
43038W        W11432  19.486  35.536   0.732
43039W        W11433   2.418  15.758   4.746
43040W        W11434  38.746  23.063   2.757
43041W        W11435  18.051  14.678   0.862
43042W        W11436  35.065  33.530  11.643
43043W        W11437  18.695  24.538   4.808
43044W        W11438  24.611  18.649  11.954
43045W        W11439  28.486  12.270  11.608
43046W        W11440   3.766  16.710  11.120
43047W        W11441   9.634  22.027   4.022
43048W        W11442  15.014  24.252  11.874
43049W        W11443  43.750  38.943   2.436
43050W        W11444  36.095  44.735   2.378
43051W        W11445  32.160  15.783  14.343
43052W        W11446   0.467  16.085   0.894
43053W        W11447   0.289  20.314   1.192
43054W        W11448   3.159  12.666  14.417
43055W        W11449  10.819  35.946   0.364
43056W        W11450  22.603  24.025  11.693
43057W        W11451  37.684  23.939   4.031
43058W        W11452   2.420   6.840  12.325
43059W        W11453  38.673  42.947   5.031
43060W        W11454  31.263  15.658   2.667
43061W        W11455  27.401   5.156  12.938
43062W        W11456   8.803  41.703  13.927
43063W        W11457  12.221   7.150   9.944
43064W        W11458  40.960  42.524  14.541
43065W        W11459  12.131   4.793   0.101
43066W        W11460  43.922  37.917   0.492
43067W        W11461   2.265   2.205  13.605
43068W        W11462  30.046  12.840   2.833
43069W        W11463  38.102  21.075   4.155
43070W        W11464  42.905  22.054  14.215
43071W        W11465  27.174  42.851  13.191
43072W        W11466  17.131  39.793  14.453
43073W        W11467  33.723   4.366   4.645
43074W        W11468  35.926  41.918   0.431
43075W        W11469   9.607  36.484   4.609
43076W        W11470   2.717  15.104   5.104
43077W        W11471   6.827  43.491   0.374
43078W        W11472  40.444  40.054   4.552
43079W        W11473   1.273  44.508   2.559
43080W        W11474  18.530  27.966  12.472
43081W        W11475  19.506  35.436  12.329
43082W        W11476  24.089  17.120   4.833
43083W        W11477   3.699   5.373   2.210
43084W        W11478  22.246   4.116   0.174
43085W        W11479  13.705  43.769  14.511
43086W        W11480  35.331  11.279  12.542
43087W        W11481   2.271  27.942   1.220
43088W        W11482  34.201  32.546   0.698
43089W        W11483  23.159  36.926   0.762
43090W        W11484  19.132  11.622   1.959
43091W        W11485  37.073   4.298   0.941
43092W        W11486  16.628  32.178  12.964
43093W        W11487   5.166  41.593  12.554
43094W        W11488  23.455  17.307   0.486
43095W        W11489  29.167  20.676  10.656
43096W        W11490   5.404  19.064   1.127
43097W        W11491  43.009  29.460  14.269
43098W        W11492   1.335   3.291  13.882
43099W        W11493  44.093  40.906   1.218
43100W        W11494  10.337   6.781   2.761
43101W        W11495  34.534  35.754  13.465
43102W        W11496  13.145  44.386   1.161
43103W        W11497  10.839  30.518  12.796
43104W        W11498   3.193  43.833   3.413
43105W        W11499  10.221  44.882  14.244
43106W        W11500   2.859  14.445   3.167
43107W        W11501  33.637  21.951   3.414
43108W        W11502  36.243  17.601   3.407
43109W        W11503  41.524  16.725  12.535
43110W        W11504   0.451  13.577   4.347
43111W        W11505  17.014   9.279  14.225
43112W        W11506  40.408  39.640  14.329
43113W        W11507  43.865  25.575   1.842
43114W        W11508  11.096  39.692   3.595
43115W        W11509  10.899  20.142  11.901
43116W        W11510   3.112   7.894  13.330
43117W        W11511  18.280  20.188  10.322
43118W        W11512  23.002  40.075   3.399
43119W        W11513  36.652   7.443   1.333
43120W        W11514   8.318  20.499  14.843
43121W        W11515  29.993  35.927  10.623
43122W        W11516  41.522   0.211   0.013
43123W        W11517   7.159  18.469   2.112
43124W        W11518  36.503  28.662   2.100
43125W        W11519  37.130  36.869   3.714
43126W        W11520  32.555  29.077  13.486
43127W        W11521   4.278  21.057  14.379
43128W        W11522  19.049  39.009  12.527
43129W        W11523  23.680   0.946  10.535
43130W        W11524  31.541   3.841   1.406
43131W        W11525  36.587   8.122   3.286
43132W        W11526  33.673  11.215  14.401
43133W        W11527  12.027  23.956  11.211
43134W        W11528   2.574  40.991  11.843
43135W        W11529  19.049  33.248   2.563
43136W        W11530   4.743  32.176   4.628
43137W        W11531   0.608  35.887   0.410
43138W        W11532  11.888  44.425  12.990
43139W        W11533  17.625   2.235  11.389
43140W        W11534  10.153  19.000  11.204
43141W        W11535  22.771   7.328   2.314
43142W        W11536  36.926  35.041  13.332
43143W        W11537  30.412  10.732  10.343
43144W        W11538  12.865  40.126   2.846
43145W        W11539   9.491  17.391   3.749
43146W        W11540  26.729  12.042  13.806
43147W        W11541  39.901  10.231  14.492
43148W        W11542   9.919  16.373  12.602
43149W        W11543  33.461  14.572   2.755
43150W        W11544  43.806  31.028  14.973
43151W        W11545  23.164   1.393   3.954
43152W        W11546  24.037  24.738  12.553
43153W        W11547  33.619   1.344  10.985
43154W        W11548  26.280  41.549  13.817
43155W        W11549  22.552  14.870   2.567
43156W        W11550   9.707  12.239  12.825
43157W        W11551   6.453  37.655  11.584
43158W        W11552  27.623  19.224  11.466
43159W        W11553  35.388  24.258   1.217
43160W        W11554  23.031  16.464   3.895
43161W        W11555   9.490  39.868  12.046
43162W        W11556  28.691  19.707   1.359
43163W        W11557  25.000  34.542  12.812
43164W        W11558  15.820  44.232   2.261
43165W        W11559  42.773  20.818   4.003
43166W        W11560  32.495   1.945   3.181
43167W        W11561  18.472  20.926  14.734
43168W        W11562   7.287  27.110  14.277
43169W        W11563  37.228  13.254   0.285
43170W        W11564  28.393   2.317  10.689
43171W        W11565  42.443  38.490   2.414
43172W        W11566  26.005  36.061  12.410
43173W        W11567  17.035  12.080  11.989
43174W        W11568  24.057  10.864  12.192
43175W        W11569  40.511   8.597  12.023
43176W        W11570   9.892  25.461  14.303
43177W        W11571   1.425  33.431  12.910
43178W        W11572  24.619  40.475   3.783
43179W        W11573  21.142   4.939   1.835
43180W        W11574  18.617  39.371  12.148
43181W        W11575  14.626   3.754  14.255
43182W        W11576  18.841  12.160  11.571
43183W        W11577  41.900  33.082  14.371
43184W        W11578  20.093  21.404  13.118
43185W        W11579  42.047   6.271  13.885
43186W        W11580  22.685  32.877   3.177
43187W        W11581  36.149   5.290  13.093
43188W        W11582  16.033  18.175   3.106
43189W        W11583   6.456  17.622  10.608
43190W        W11584  35.498  21.672   4.240
43191W        W11585  25.447  27.899  14.760
43192W        W11586  20.473   8.273  14.282
43193W        W11587  22.582  39.424  11.019
43194W        W11588  26.724  28.420  13.031
43195W        W11589  44.670  25.913  12.520
43196W        W11590  32.900   8.108  14.907
43197W        W11591   4.545   4.103   2.295
43198W        W11592  28.490   7.665  10.688
43199W        W11593  28.581  21.185  13.846
43200W        W11594  36.704  22.106  12.023
43201W        W11595   5.223  25.110   1.240
43202W        W11596   1.990  23.967  11.617
43203W        W11597   9.135   6.955   4.905
43204W        W11598   8.188  44.837   4.814
43205W        W11599  30.704  41.899   4.044
43206W        W11600  35.497  13.722   4.228
43207W        W11601  34.942  41.407  14.748
43208W        W11602  36.987  44.930   3.658
43209W        W11603  17.211  40.927  11.913
43210W        W11604  14.488  17.064  13.948
43211W        W11605  23.174  28.704   1.346
43212W        W11606  33.760  24.248  14.877
43213W        W11607   0.853  21.966   3.068
43214W        W11608  20.472  22.545   3.508
43215W        W11609  29.625  44.229   0.736
43216W        W11610   1.471  15.453  11.004
43217W        W11611  31.179   6.375   2.627
43218W        W11612  29.472  21.201   2.452
43219W        W11613  38.828  24.371  14.433
43220W        W11614  18.732   1.192   4.649
43221W        W11615  26.629  30.776  13.506
43222W        W11616  30.177  42.995  13.894
43223W        W11617  24.128  12.099   2.170
43224W        W11618   1.682   1.308   2.857
43225W        W11619  38.453  12.154  14.975
43226W        W11620  31.668   0.608  14.439
43227W        W11621  40.296   9.753  11.182
43228W        W11622  10.527  28.785  12.241
43229W        W11623  42.018  18.264  13.171
43230W        W11624   3.762  16.060  12.379
43231W        W11625  11.809  30.036  14.212
43232W        W11626  35.474  26.113  14.298
43233W        W11627  24.560  13.566  14.860
43234W        W11628   9.157  13.367  12.479
43235W        W11629  44.697  27.430  14.011
43236W        W11630   1.492   1.749  13.871
43237W        W11631  26.177  36.817   2.226
43238W        W11632  35.749  37.052  12.182
43239W        W11633  14.279  20.726  10.702
43240W        W11634  24.116  44.556   5.011
43241W        W11635  10.352  36.303  13.405
43242W        W11636  29.801  25.186   1.038
43243W        W11637  34.809  38.622  11.503
43244W        W11638  24.268  12.771   1.691
43245W        W11639  37.979  37.079  12.420
43246W        W11640  16.680  16.316   0.135
43247W        W11641  11.207  15.358   4.083
43248W        W11642  33.400  11.912  11.955
43249W        W11643  31.344  44.062   3.393
43250W        W11644  36.530  11.864   9.840
43251W        W11645  35.686  40.733   1.299
43252W        W11646  31.673   2.498   4.597
43253W        W11647  34.522  30.500  12.577
43254W        W11648  41.750   9.806  10.435
43255W        W11649  31.093  35.380  14.845
43256W        W11650  25.127  16.853  12.076
43257W        W11651   1.778  16.291   1.105
43258W        W11652  43.333   1.854  13.323
43259W        W11653  15.556  10.130  12.158
43260W        W11654  19.044  37.433  14.563
43261W        W11655  30.512   0.151  12.719
43262W        W11656  32.429  17.107   1.377
43263W        W11657   8.245  40.451   3.909
43264W        W11658  26.199  25.803  11.997
43265W        W11659  38.755  16.331   2.376
43266W        W11660  15.287  30.816   0.647
43267W        W11661  22.925  22.627   3.964
43268W        W11662  20.744  44.032  14.347
43269W        W11663  19.287  30.032   0.851
43270W        W11664  24.450  39.545  10.303
43271W        W11665  18.561   3.763   1.493
43272W        W11666   9.571   1.267  12.444
43273W        W11667  29.524   9.716   3.734
43274W        W11668  35.004   6.358  12.262
43275W        W11669   4.312  22.996   2.012
43276W        W11670   3.931   0.917   0.948
43277W        W11671  12.714  20.991   2.122
43278W        W11672  13.626  26.067  13.615
43279W        W11673  29.958  27.000   2.778
43280W        W11674   9.078   6.784  11.242
43281W        W11675  26.014  18.270  11.186
43282W        W11676  19.223   0.448   2.749
43283W        W11677  40.989  33.158   2.777
43284W        W11678  15.648   5.806   1.774
43285W        W11679  24.447  36.278  11.586
43286W        W11680   3.358   1.530   1.930
43287W        W11681  24.092  43.612  10.309
43288W        W11682   2.398  12.316  10.491
43289W        W11683   7.818   1.903  10.403
43290W        W11684  21.236  14.684   2.660
43291W        W11685   5.990  31.939   4.034
43292W        W11686  15.198  28.359   4.665
43293W        W11687  20.190  31.483   3.279
43294W        W11688  37.093  11.102   2.279
43295W        W11689  14.523   5.875   1.896
43296W        W11690  40.067  34.507   0.840
43297W        W11691  42.439  39.429  10.248
43298W        W11692   4.026  20.633  11.928
43299W        W11693  22.146  16.289  10.590
43300W        W11694  38.554  10.815  14.354
43301W        W11695  15.927  31.969   0.578
43302W        W11696  31.015  37.280  12.103
43303W        W11697  15.214  12.893  11.055
43304W        W11698  44.169   4.602   3.511
43305W        W11699  16.887  21.065   0.991
43306W        W11700  31.394  25.560   4.370
43307W        W11701  38.199  18.450  12.906
43308W        W11702  44.903  26.750   0.529
43309W        W11703  32.079   7.889  12.093
43310W        W11704  34.118  44.442  14.753
43311W        W11705  21.178  34.669   1.411
43312W        W11706   7.970  23.564   3.204
43313W        W11707  27.689  13.543   0.231
43314W        W11708  34.852  23.128  13.135
43315W        W11709  25.512  44.259  13.814
43316W        W11710  43.075   9.722  12.352
43317W        W11711  36.423  28.589   0.705
43318W        W11712  19.069  11.294   3.139
43319W        W11713  22.763   7.426  14.874
43320W        W11714  27.200   3.767   2.816
43321W        W11715  13.097  16.586   4.472
43322W        W11716  12.872  39.451   4.613
43323W        W11717  23.571  19.946   4.827
43324W        W11718  38.379  24.567  12.101
43325W        W11719  17.513  28.549  14.003
43326W        W11720  35.021  17.083   3.102
43327W        W11721  34.465   3.831  12.959
43328W        W11722  44.540   8.330   0.684
43329W        W11723  36.413  22.305  13.548
43330W        W11724   0.429  11.211   2.140
43331W        W11725  16.590  11.232  11.176
43332W        W11726  27.061  26.205  12.227
43333W        W11727  33.039  38.153  10.523
43334W        W11728  38.316  13.625  12.656
43335W        W11729   5.779  21.109   2.816
43336W        W11730  28.152  39.395  11.583
43337W        W11731  21.481  19.811   1.307
43338W        W11732  28.508  14.338  11.047
43339W        W11733   7.395  32.113   3.742
43340W        W11734  37.920  31.573  14.547
43341W        W11735  44.204  33.848  13.141
43342W        W11736  35.141  18.285   2.452
43343W        W11737  10.621  44.962  11.332
43344W        W11738  12.570  41.291  14.521
43345W        W11739  25.085  14.786   3.695
43346W        W11740  17.819   1.421  14.923
43347W        W11741  15.359  15.630   3.226
43348W        W11742  31.024  42.938   4.092
43349W        W11743  33.061  37.990   2.360
43350W        W11744  31.487   5.174   2.086
43351W        W11745  40.331  34.471   3.650
43352W        W11746   1.288   4.300   0.413
43353W        W11747  38.720   6.023   3.584
43354W        W11748   5.623  12.168   4.625
43355W        W11749  26.184  13.048  14.336
43356W        W11750  33.104   3.299   0.975
43357W        W11751  32.391  12.152  13.982
43358W        W11752  31.198  27.603  14.787
43359W        W11753  22.559   7.975   1.830
43360W        W11754  43.229  17.805  13.948
43361W        W11755  32.370  36.355   3.266
43362W        W11756  26.745  30.403  14.458
43363W        W11757  26.681  41.751   4.588
43364W        W11758  19.159  43.124  10.354
43365W        W11759  36.899  38.129   4.117
43366W        W11760  38.011  36.653  10.687
43367W        W11761  21.173   0.082   0.073
43368W        W11762  20.212  42.539   3.235
43369W        W11763  32.521  25.357   3.295
43370W        W11764  18.317   1.510   0.022
43371W        W11765  21.185   2.535   0.344
43372W        W11766   3.094  40.246  10.375
43373W        W11767   3.787   3.890   4.544
43374W        W11768  13.237  31.849  12.523
43375W        W11769  42.812   5.248  10.614
43376W        W11770   0.910  40.602   3.589
43377W        W11771  33.300  15.441   1.892
43378W        W11772   3.312   9.790   2.864
43379W        W11773  21.135  33.821   1.481
43380W        W11774  19.237  21.450   0.830
43381W        W11775  43.983  32.409  14.982
43382W        W11776  20.207  23.644  10.326
43383W        W11777  17.860  29.532   0.123
43384W        W11778  20.675  23.272  10.841
43385W        W11779  44.297   2.645   2.167
43386W        W11780  14.590  19.107   3.274
43387W        W11781  31.946  42.090  13.002
43388W        W11782  17.858  25.922  11.795
43389W        W11783  36.667  25.750  13.560
43390W        W11784  34.317   9.388   3.262
43391W        W11785  30.033  16.772  12.882
43392W        W11786  27.049  10.377  10.504
43393W        W11787  31.662  22.159   3.350
43394W        W11788  40.853  30.256   2.412
43395W        W11789  17.751  33.557  10.671
43396W        W11790  15.103  22.922   0.780
43397W        W11791  22.102  28.852  10.359
43398W        W11792   2.254  38.551  10.720
43399W        W11793  11.398   5.949  10.539
43400W        W11794  20.933  13.083   1.127
43401W        W11795  22.965   9.916  13.136
43402W        W11796  42.349  31.512  11.417
43403W        W11797  38.520   0.832  12.438
43404W        W11798  12.913   7.754   5.154
43405W        W11799  44.454  35.639   1.890
43406W        W11800  44.354  42.840   0.397
43407W        W11801  26.565   4.254   4.597
43408W        W11802  12.124   2.768  13.548
43409W        W11803  34.715  20.578   0.997
43410W        W11804  21.977  28.746   5.029
43411W        W11805  40.013  28.759   1.792
43412W        W11806   4.606   8.719  11.140
43413W        W11807   1.770   2.676   4.553
43414W        W11808   9.395  23.435   3.743
43415W        W11809  32.403  15.221   1.855
43416W        W11810  10.468  26.037   3.636
43417W        W11811  28.039   7.548  12.865
43418W        W11812  29.138  18.620  14.468
43419W        W11813  37.293  32.956  11.599
43420W        W11814  20.726   8.437  10.635
43421W        W11815   1.275  39.961  12.456
43422W        W11816  22.696   4.892   0.258
43423W        W11817  38.993  27.443   1.347
43424W        W11818  39.996   3.274   4.263
43425W        W11819  31.927  41.517   2.775
43426W        W11820  32.031  40.815  12.574
43427W        W11821  42.813   0.857  14.515
43428W        W11822   5.181  19.133  14.758
43429W        W11823  34.859  35.933   1.137
43430W        W11824   1.370  20.072   1.812
43431W        W11825  28.061   4.175  12.081
43432W        W11826  33.938   4.199   4.167
43433W        W11827  21.157  31.293   3.686
43434W        W11828  24.043  36.318   4.607
43435W        W11829  42.866   7.274   1.278
43436W        W11830  33.032   8.970  12.077
43437W        W11831  10.807  17.209   2.822
43438W        W11832   8.155  32.405   3.119
43439W        W11833  37.580  11.984   4.421
43440W        W11834  34.000  14.539   0.750
43441W        W11835  16.844  29.665   3.333
43442W        W11836  33.436  14.718  12.056
43443W        W11837  33.966  31.101   3.561
43444W        W11838   3.353  36.547   1.448
43445W        W11839  22.766   9.876   3.707
43446W        W11840  44.925  24.101  13.513
43447W        W11841  31.660   3.004   2.410
43448W        W11842  32.812  10.300   3.593
43449W        W11843  39.563  33.422   4.542
43450W        W11844  17.297  26.533   0.746
43451W        W11845   4.621  38.350  12.623
43452W        W11846  17.874  28.109  14.959
43453W        W11847  20.909  17.140   1.543
43454W        W11848  19.278  44.526   2.692
43455W        W11849   0.247  30.974  14.367
43456W        W11850  10.213  35.665   1.878
43457W        W11851  33.501  42.938   1.529
43458W        W11852  16.104   9.348   2.782
43459W        W11853  25.229  22.189   0.982
43460W        W11854   9.832   3.415   2.192
43461W        W11855  34.460  42.913   2.953
43462W        W11856  23.754  33.264   4.861
43463W        W11857   8.847   4.328   4.434
43464W        W11858  26.711  16.812  11.255
43465W        W11859  29.201  24.026  10.992
43466W        W11860  28.625  16.858  11.934
43467W        W11861  26.384   1.707  14.509
43468W        W11862   5.648  42.957   2.756
43469W        W11863  10.590  16.833   2.222
43470W        W11864  27.198  38.230   1.825
43471W        W11865   3.982  16.667  14.847
43472W        W11866  29.209  42.428  10.966
43473W        W11867  33.029  32.027   1.099
43474W        W11868  15.791   7.339   3.369
43475W        W11869  16.479  33.657  11.095
43476W        W11870   6.666  30.421  14.823
43477W        W11871  41.091  13.842   1.168
43478W        W11872  11.194  37.688  14.031
43479W        W11873  26.776  34.445   1.398
43480W        W11874  19.956   0.280  12.478
43481W        W11875   8.664  37.008  12.457
43482W        W11876  41.357  36.957   2.425
43483W        W11877  39.115  36.872  13.008
43484W        W11878  42.042  29.587   1.419
43485W        W11879  22.090   4.554  12.139
43486W        W11880  18.772  21.033   1.537
43487W        W11881   6.455  12.763  10.571
43488W        W11882  16.279   2.755  11.620
43489W        W11883  34.582  40.341   0.332
43490W        W11884  31.637  25.582  11.550
43491W        W11885  14.685  17.781  11.724
43492W        W11886  30.039  12.641  11.132
43493W        W11887  34.531  42.889   0.993
43494W        W11888   8.801   7.182  11.115
43495W        W11889  29.134  36.103  11.897
43496W        W11890   3.358  36.186  10.314
43497W        W11891   5.454  22.138  14.874
43498W        W11892  24.901  22.795   2.292
43499W        W11893  17.658  39.640  12.038
43500W        W11894  30.509  31.289  14.577
43501W        W11895  33.645  37.693  14.884
43502W        W11896  13.256  11.171  11.545
43503W        W11897   8.818  40.242  13.073
43504W        W11898  20.103  37.484   9.781
43505W        W11899  33.091   2.916  11.530
43506W        W11900   9.883   5.207  11.494
43507W        W11901  27.753  24.592  14.736
43508W        W11902   4.819  19.782  10.699
43509W        W11903  41.921  24.901   4.990
43510W        W11904  15.285  33.970   2.412
43511W        W11905   2.923   1.495  10.637
43512W        W11906  41.503  24.877  13.859
43513W        W11907   5.006   0.403   0.478
43514W        W11908  40.527   2.732   4.959
43515W        W11909   9.547   4.935  14.507
43516W        W11910  28.922  14.731   0.830
43517W        W11911  10.891  28.068  11.516
43518W        W11912  14.856  37.896  13.335
43519W        W11913  23.520  20.620  11.172
43520W        W11914  22.550  23.765  13.917
43521W        W11915  41.647  42.874   3.730
43522W        W11916  17.777   1.789  11.190
43523W        W11917   7.261  10.874   1.377
43524W        W11918   5.944  12.613   0.339
43525W        W11919   0.215  42.927   2.845
43526W        W11920  41.311  26.978   0.285
43527W        W11921  40.821  32.719  12.416
43528W        W11922  22.994  22.878  12.692
43529W        W11923  41.985  33.954  14.029
43530W        W11924  27.133  27.648  11.102
43531W        W11925   6.636  32.390   0.719
43532W        W11926  10.327  41.238   4.797
43533W        W11927  21.286  35.040   0.576
43534W        W11928  10.435  20.070  11.636
43535W        W11929  30.862   2.125   1.026
43536W        W11930  23.223  44.073   0.927
43537W        W11931  15.022  30.494   1.614
43538W        W11932  21.321  35.169   2.022
43539W        W11933  43.957  13.745   3.294
43540W        W11934  10.671  37.969  11.947
43541W        W11935  10.206  23.213   0.988
43542W        W11936  16.824  44.019  13.969
43543W        W11937  38.888   5.637   4.467
43544W        W11938   9.894  10.160   3.440
43545W        W11939  30.567   4.813  12.362
43546W        W11940  31.946  34.503  11.590
43547W        W11941  41.024   8.222   1.432
43548W        W11942  26.947  11.428   5.066
43549W        W11943  23.489  34.990  14.285
43550W        W11944   2.769  16.653  12.966
43551W        W11945  16.752  19.016   2.717
43552W        W11946  28.893  21.999  11.149
43553W        W11947  34.481  11.789  11.472
43554W        W11948  28.458  43.896  14.473
43555W        W11949   2.350  43.837  11.649
43556W        W11950  17.242  21.260  10.680
43557W        W11951  10.530   4.853  11.108
43558W        W11952  22.709  44.394   1.746
43559W        W11953  29.666  20.064  13.012
43560W        W11954  17.065  25.262   3.381
43561W        W11955  29.272   1.406   3.675
43562W        W11956  21.085  24.699  11.546
43563W        W11957   0.050  42.439  13.595
43564W        W11958   2.724  21.312  12.598
43565W        W11959  22.315   6.320  14.772
43566W        W11960  42.192  40.827  12.135
43567W        W11961  41.277  19.980  13.465
43568W        W11962  30.151   0.855  12.088
43569W        W11963  36.360  39.451  12.648
43570W        W11964  17.688   7.918   0.245
43571W        W11965  30.094  23.416  12.484
43572W        W11966  15.557  35.983  12.779
43573W        W11967  10.240  39.959  14.943
43574W        W11968  14.743  33.657  12.397
43575W        W11969  42.926  38.820  12.493
43576W        W11970  13.786  43.048  14.880
43577W        W11971  13.733   5.442  12.516
43578W        W11972  40.535  37.363   1.396
43579W        W11973  31.891  33.077   3.632
43580W        W11974   2.144  30.761  12.932
43581W        W11975  31.127  19.755   0.899
43582W        W11976  28.918  21.823  14.406
43583W        W11977  29.735  29.008   1.352
43584W        W11978   5.769   9.281  11.221
43585W        W11979   8.949  18.333   3.219
43586W        W11980  20.299   8.699  12.537
43587W        W11981  44.946  40.566   0.421
43588W        W11982   3.168  39.438   2.977
43589W        W11983  33.278  18.715  14.236
43590W        W11984  17.166  21.981   3.415
43591W        W11985   8.353   4.780  12.597
43592W        W11986  12.122  38.327   0.927
43593W        W11987  22.974  44.685   2.845
43594W        W11988   0.071  39.006   2.436
43595W        W11989  31.115  37.265   2.681
43596W        W11990  20.773  23.548  13.311
43597W        W11991  29.597   4.308  10.719
43598W        W11992   7.269   0.852  13.395
43599W        W11993  36.621  39.103   1.715
43600W        W11994  34.338  10.845   0.232
43601W        W11995  10.245  37.098   4.545
43602W        W11996   4.194  14.285   3.855
43603W        W11997  13.822   6.941   2.416
43604W        W11998  16.570  43.350   3.722
43605W        W11999  42.279  41.779   0.415
43606W        W12000  29.600  16.677  11.506
43607W        W12001  17.346  11.585   9.580
43608W        W12002   3.239  24.562  13.420
43609W        W12003  14.286   0.267   0.518
43610W        W12004  15.702   6.762   2.698
43611W        W12005  25.891  19.517   0.454
43612W        W12006  43.543  28.115  10.771
43613W        W12007   5.796  34.833  13.406
43614W        W12008  33.419  33.886   4.600
43615W        W12009   0.949   5.761  12.902
43616W        W12010  39.392  41.465  10.707
43617W        W12011  36.429  23.608   0.467
43618W        W12012   7.053  34.507  12.424
43619W        W12013  36.865  41.307  10.578
43620W        W12014  39.093  11.674  11.632
43621W        W12015  25.108   5.692   0.752
43622W        W12016  33.654  40.077   0.476
43623W        W12017  17.213  26.908   2.142
43624W        W12018  38.583  38.779   0.021
43625W        W12019   4.907   2.727   3.729
43626W        W12020   3.258  30.264  13.464
43627W        W12021  37.179  42.407  14.818
43628W        W12022  23.151  24.947   0.305
43629W        W12023  17.362  29.571  12.908
43630W        W12024  10.640  33.162  13.546
43631W        W12025  22.588  34.884  11.631
43632W        W12026  12.042   4.276  14.892
43633W        W12027  17.481  10.157   3.182
43634W        W12028  22.322  20.073   2.248
43635W        W12029   2.834  10.587   3.600
43636W        W12030   9.810   8.308   2.663
43637W        W12031  18.700  17.932   1.013
43638W        W12032  20.817   2.990   1.673
43639W        W12033  11.703  24.092   3.649
43640W        W12034  41.149  27.682   1.990
43641W        W12035   8.824  13.792  11.477
43642W        W12036  35.270  30.952   1.650
43643W        W12037  23.463  29.626  13.325
43644W        W12038  15.274   9.865  10.409
43645W        W12039  39.921  36.594  11.357
43646W        W12040  37.466  30.484   2.769
43647W        W12041  42.975  27.733  10.986
43648W        W12042  14.020   9.018  12.059
43649W        W12043  41.216  16.239  13.961
43650W        W12044  17.086  20.473   4.628
43651W        W12045  13.376   5.218  14.381
43652W        W12046   7.609  18.295   5.183
43653W        W12047  32.303  38.680  12.899
43654W        W12048  27.475  29.703   4.715
43655W        W12049  19.051  30.224  13.282
43656W        W12050  22.239  25.160   4.701
43657W        W12051  42.542   9.722  12.423
43658W        W12052   7.566  32.390   4.768
43659W        W12053  25.904  30.985  14.261
43660W        W12054  13.486   6.386  14.332
43661W        W12055  41.937  23.123  10.446
43662W        W12056  38.934  31.943   3.146
43663W        W12057  17.900  29.177   4.008
43664W        W12058  22.245  13.699  11.966
43665W        W12059  12.372  37.005   3.296
43666W        W12060  27.759  43.167  12.445
43667W        W12061  20.224  27.181  11.897
43668W        W12062   6.648  10.334   1.458
43669W        W12063   5.331  31.363  12.890
43670W        W12064  14.233  14.948   4.723
43671W        W12065  10.697  39.800   3.264
43672W        W12066  28.148  44.746   3.382
43673W        W12067  33.924  41.562   4.721
43674W        W12068  23.551   5.396   0.475
43675W        W12069  25.126   8.344  11.042
43676W        W12070  44.011  37.944   1.011
43677W        W12071  13.837  31.175  12.502
43678W        W12072  22.018  40.975  12.800
43679W        W12073  14.685   0.690   1.674
43680W        W12074   7.366  28.795  14.642
43681W        W12075  16.849  25.072  13.006
43682W        W12076   7.093  13.867   0.153
43683W        W12077  13.900  28.678   2.791
43684W        W12078  31.597  40.532   4.126
43685W        W12079  33.940   1.872  13.060
43686W        W12080  27.164  22.758  11.517
43687W        W12081  18.608  25.145  13.998
43688W        W12082  27.526  14.025   0.122
43689W        W12083   3.198  15.313   4.990
43690W        W12084  11.414  16.193  14.863
43691W        W12085  10.145  24.589  12.654
43692W        W12086  35.642  34.617  10.621
43693W        W12087  25.263  35.549   3.283
43694W        W12088  14.399  16.057  14.780
43695W        W12089   7.975  35.994   1.014
43696W        W12090  25.285   5.756   3.657
43697W        W12091  42.428  31.925  11.715
43698W        W12092  16.294  15.820   3.286
43699W        W12093  39.833   4.344   2.808
43700W        W12094   0.444  42.271   1.057
43701W        W12095  12.057  19.305  13.839
43702W        W12096  34.365  22.198   2.889
43703W        W12097  39.819   6.965  11.552
43704W        W12098  42.448   4.949   2.074
43705W        W12099  31.610  24.265  11.608
43706W        W12100  15.531  18.076   1.215
43707W        W12101  17.119   7.731   0.907
43708W        W12102  43.352  18.063  11.640
43709W        W12103  43.802   1.800   3.370
43710W        W12104   6.393   3.869   3.680
43711W        W12105   4.685  44.275  12.044
43712W        W12106  19.010   9.982  12.911
43713W        W12107  44.814  25.090  12.583
43714W        W12108  33.369  27.988  10.538
43715W        W12109  42.708  16.157  11.928
43716W        W12110   9.273  35.646  13.460
43717W        W12111   2.998  12.750  12.889
43718W        W12112  23.796  33.189   4.293
43719W        W12113  25.731  37.109   0.410
43720W        W12114  21.678  15.218   2.622
43721W        W12115  43.948  29.623   2.820
43722W        W12116  38.438  20.051   2.697
43723W        W12117   2.893  22.535  14.028
43724W        W12118  38.493  35.334  12.283
43725W        W12119  24.702  37.506   2.230
43726W        W12120   5.305  34.959  10.755
43727W        W12121  10.925  40.006  13.533
43728W        W12122  20.498  11.038  14.426
43729W        W12123  34.355  38.594  13.781
43730W        W12124   1.156  17.729  12.126
43731W        W12125  35.914  17.986  12.625
43732W        W12126  21.138   4.238   4.147
43733W        W12127  36.451  23.778  11.126
43734W        W12128   3.345  40.541   0.012
43735W        W12129  39.352   8.825   1.455
43736W        W12130  40.262  41.658  10.741
43737W        W12131  26.719  32.474   1.227
43738W        W12132  21.589   7.677   0.468
43739W        W12133  28.220  30.020   3.684
43740W        W12134  38.492   3.825  12.496
43741W        W12135   3.868  39.737  13.893
43742W        W12136  38.785  44.752  14.754
43743W        W12137  38.595  11.795  13.486
43744W        W12138  35.964  23.687   1.296
43745W        W12139  22.042  18.577   4.771
43746W        W12140  11.878  18.539   4.264
43747W        W12141  43.605  33.330   3.039
43748W        W12142  10.673   8.641  10.382
43749W        W12143  39.992  34.641  11.578
43750W        W12144  22.046  39.384  11.566
43751W        W12145  17.232  44.375   1.494
43752W        W12146  30.678   6.232  12.441
43753W        W12147   4.799  37.302  12.864
43754W        W12148  25.035  13.257   3.826
43755W        W12149  16.112  43.325   0.508
43756W        W12150  39.620   1.393  10.938
43757W        W12151  19.591   6.226   1.503
43758W        W12152  17.726  27.650   3.548
43759W        W12153  34.212  23.656  14.313
43760W        W12154  38.526  41.618   5.149
43761W        W12155  40.794  43.858   0.265
43762W        W12156  18.721  42.453   3.921
43763W        W12157  20.001  42.190  12.490
43764W        W12158  13.148  23.933  10.598
43765W        W12159  13.761  36.392  14.080
43766W        W12160  37.048  13.296   3.244
43767W        W12161  39.321   0.390   3.659
43768W        W12162  11.910  31.841  14.943
43769W        W12163   1.011  44.756  12.999
43770W        W12164  32.888   3.192   0.491
43771W        W12165   7.567  42.864   1.904
43772W        W12166  35.973  16.800  14.354
43773W        W12167  33.995  25.075  14.705
43774W        W12168  15.427   4.149   3.662
43775W        W12169  26.403   5.133  11.940
43776W        W12170  42.922  38.884  13.376
43777W        W12171  12.885  19.603   1.894
43778W        W12172   5.802  42.287   4.846
43779W        W12173  15.419  31.941   4.224
43780W        W12174  28.017  19.056  14.420
43781W        W12175  17.803  41.548   4.569
43782W        W12176  26.087   8.632   2.655
43783W        W12177  21.173   9.095   2.893
43784W        W12178   0.874  20.230   2.413
43785W        W12179   7.179  30.144   4.288
43786W        W12180  44.281  36.518  14.173
43787W        W12181   9.809  32.127  12.501
43788W        W12182  12.274  13.275  14.288
43789W        W12183  23.501  12.149   4.309
43790W        W12184   9.841  36.554   2.558
43791W        W12185  13.785  23.644   4.193
43792W        W12186  11.359  26.573   4.728
43793W        W12187   7.428  28.806   1.275
43794W        W12188  38.910  40.467  14.227
43795W        W12189  40.363  44.092   2.308
43796W        W12190  28.980  43.014   2.939
43797W        W12191  35.031   0.939   1.424
43798W        W12192   9.138   7.177  13.908
43799W        W12193  39.059  43.318   3.082
43800W        W12194   8.194  15.689  13.607
43801W        W12195  38.117   7.282   4.290
43802W        W12196   9.781  33.919   4.684
43803W        W12197   6.292  42.462   4.112
43804W        W12198  33.158  35.640   0.135
43805W        W12199  22.217  37.401   2.205
43806W        W12200  22.038  39.511   1.772
43807W        W12201  11.345  31.622   2.164
43808W        W12202  16.528  19.964   5.216
43809W        W12203  15.059  39.942   3.665
43810W        W12204  23.108   2.971   4.643
43811W        W12205   0.332   1.760  14.895
43812W        W12206   2.165  42.345  14.521
43813W        W12207  26.968   6.974   0.390
43814W        W12208  25.447  10.860   2.871
43815W        W12209   2.341   1.195  13.897
43816W        W12210   4.005  34.455   2.288
43817W        W12211  10.796   0.349  11.664
43818W        W12212  25.181  16.714  11.191
43819W        W12213   4.227  35.896  11.882
43820W        W12214  23.637  32.404   4.602
43821W        W12215  25.817  27.571   0.351
43822W        W12216  28.216  12.618  10.850
43823W        W12217  29.005  41.371   1.748
43824W        W12218   6.212  37.398   1.523
43825W        W12219  39.015  17.425  12.824
43826W        W12220  31.830  12.478   3.397
43827W        W12221  41.021  26.179  10.798
43828W        W12222  44.329  26.087  13.336
43829W        W12223  39.377  35.093  11.961
43830W        W12224  43.735  35.123   2.419
43831W        W12225  43.397   9.175  10.606
43832W        W12226   8.918  39.919  13.884
43833W        W12227  40.429  17.819   1.699
43834W        W12228  25.225   1.860   2.265
43835W        W12229  39.826  39.056  11.905
43836W        W12230  32.027  41.553   3.605
43837W        W12231   0.567  12.121  11.857
43838W        W12232  31.915  26.486  10.736
43839W        W12233  14.197  37.267  14.387
43840W        W12234  25.522  10.959  14.927
43841W        W12235  10.276  24.436   4.128
43842W        W12236  29.490  22.551  13.505
43843W        W12237   2.675  19.235  13.090
43844W        W12238  16.130  30.897   1.964
43845W        W12239  35.636  43.046  12.436
43846W        W12240  11.134  23.201  11.606
43847W        W12241   3.506  34.052   1.743
43848W        W12242  19.078  34.352   3.770
43849W        W12243  17.530  36.470   2.255
43850W        W12244   5.894  25.980   0.319
43851W        W12245  17.067  39.383  14.116
43852W        W12246  36.579  30.322   4.435
43853W        W12247  43.052   3.739   2.300
43854W        W12248  34.780  27.267  13.845
43855W        W12249  21.572  36.481  13.779
43856W        W12250  21.275   0.367  12.081
43857W        W12251  10.808  26.559  14.908
43858W        W12252  28.173  20.283  12.886
43859W        W12253  19.139   8.091   1.470
43860W        W12254   9.311  11.704   2.169
43861W        W12255   7.122  12.715   4.446
43862W        W12256  27.235  22.715   4.029
43863W        W12257  26.099  35.127   3.405
43864W        W12258  27.177  36.182   5.179
43865W        W12259  31.702  31.460   1.864
43866W        W12260   1.357  42.011   2.683
43867W        W12261  40.771  43.103   4.386
43868W        W12262  29.448   6.416  14.922
43869W        W12263  35.556  23.271   2.241
43870W        W12264  27.679  18.189  12.617
43871W        W12265  20.933   8.323   3.439
43872W        W12266   9.701  32.565   3.772
43873W        W12267  22.010   6.677  14.557
43874W        W12268  35.813  16.569   2.006
43875W        W12269  31.484  32.140  11.622
43876W        W12270  32.101  34.503   3.683
43877W        W12271  10.674  13.744   0.006
43878W        W12272  36.997  39.431  14.815
43879W        W12273  26.616  42.468  12.646
43880W        W12274  36.344   0.062   1.802
43881W        W12275  33.588   7.775  14.945
43882W        W12276  33.971  36.939   0.004
43883W        W12277   1.049   4.370   1.412
43884W        W12278   7.697  18.321  11.879
43885W        W12279  32.374  15.191  14.859
43886W        W12280  19.634  22.312   3.719
43887W        W12281  40.472  37.596  12.315
43888W        W12282  21.210  39.387   4.371
43889W        W12283   4.976  42.847   3.598
43890W        W12284  42.930  44.384   1.687
43891W        W12285   5.801  27.023   3.751
43892W        W12286  11.774  15.084  14.353
43893W        W12287   3.668  36.470  13.760
43894W        W12288   4.445   7.430   0.813
43895W        W12289   6.486  17.307   2.742
43896W        W12290  18.612   9.715   4.847
43897W        W12291  39.513   3.245  12.832
43898W        W12292  14.646   6.829  12.703
43899W        W12293  28.619  43.622  10.711
43900W        W12294  12.696  35.436  10.587
43901W        W12295  44.349  24.447  12.352
43902W        W12296   4.406  14.993   2.825
43903W        W12297   7.309  12.106  11.985
43904W        W12298   1.311  29.769  14.836
43905W        W12299  15.034   9.310   2.684
43906W        W12300  25.398   1.762  11.038
43907W        W12301   9.738   2.374  10.816
43908W        W12302  29.014  39.797   3.220
43909W        W12303  33.705  35.961  11.577
43910W        W12304  33.893   7.766   2.234
43911W        W12305   0.805  42.645  13.070
43912W        W12306  25.513  29.872  11.741
43913W        W12307   5.225  36.777   2.744
43914W        W12308   4.978  13.827  11.383
43915W        W12309  32.334  43.027  11.811
43916W        W12310  30.448  22.087   0.005
43917W        W12311  38.868  35.078   4.733
43918W        W12312  22.723   4.307  10.417
43919W        W12313   9.913  39.465  13.911
43920W        W12314  44.825   2.313   0.319
43921W        W12315  40.101  17.378  14.977
43922W        W12316  14.289   2.683   1.751
43923W        W12317  36.338   7.227   3.795
43924W        W12318  37.110   5.549  12.190
43925W        W12319  20.331  16.741  12.910
43926W        W12320  31.155  33.860  10.373
43927W        W12321  28.155  27.080  10.939
43928W        W12322  19.693  28.153   4.101
43929W        W12323  31.958   1.995  10.066
43930W        W12324  31.314  24.513   0.368
43931W        W12325  26.724   0.648  10.850
43932W        W12326  11.147  25.463   1.859
43933W        W12327  21.798  24.290   1.899
43934W        W12328  32.456  37.266  11.980
43935W        W12329  36.282  27.024  11.114
43936W        W12330   0.829   1.614   4.686
43937W        W12331   5.832  32.620  10.758
43938W        W12332   8.832  23.150   4.705
43939W        W12333  13.066  24.664   3.616
43940W        W12334   2.499  15.590   0.233
43941W        W12335  42.351   7.329   4.212
43942W        W12336  28.413  41.848   1.389
43943W        W12337  43.494  34.127   2.697
43944W        W12338  42.711  25.630   0.033
43945W        W12339   1.231  42.831   3.112
43946W        W12340  12.755  26.194  12.425
43947W        W12341  25.638  40.491  14.865
43948W        W12342  11.114  37.028   3.548
43949W        W12343  12.125   8.212  14.429
43950W        W12344  42.097  43.109   0.836
43951W        W12345  13.731  22.923   2.768
43952W        W12346   8.556  32.598  12.417
43953W        W12347  16.154  12.988  13.795
43954W        W12348   6.120  33.373   1.286
43955W        W12349  18.720  35.008  12.581
43956W        W12350  16.138  13.140  12.098
43957W        W12351   0.536  23.754  11.727
43958W        W12352   3.266  13.293   3.145
43959W        W12353  31.567  11.267   0.975
43960W        W12354  10.848  11.284  10.568
43961W        W12355   9.215  20.997   1.725
43962W        W12356  30.284   4.608   4.108
43963W        W12357  23.335  40.892   2.650
43964W        W12358  41.269   2.324  12.537
43965W        W12359  42.980  41.800  13.924
43966W        W12360  34.470  26.923   4.480
43967W        W12361  17.224   9.130   3.338
43968W        W12362   4.904  43.730  12.623
43969W        W12363  31.615  36.908  13.920
43970W        W12364  17.021  21.596   2.277
43971W        W12365   1.029  17.537  10.625
43972W        W12366  26.593  30.621  11.135
43973W        W12367  34.917  23.206  14.022
43974W        W12368   6.976  19.056  14.522
43975W        W12369  41.132  16.296  14.517
43976W        W12370   6.641  24.586   0.303
43977W        W12371   3.963  14.200  14.924
43978W        W12372  30.433  22.591  14.892
43979W        W12373  14.307   2.847  13.060
43980W        W12374  12.828   7.490   0.392
43981W        W12375  39.065  31.529  13.237
43982W        W12376  35.850   0.439   3.216
43983W        W12377  28.359  11.194  12.575
43984W        W12378  21.513  28.710  13.656
43985W        W12379  39.615  13.998   3.062
43986W        W12380  16.051  28.772   0.200
43987W        W12381  42.750  23.111  11.044
43988W        W12382   5.443  35.894   4.515
43989W        W12383  20.129  15.380   4.599
43990W        W12384  19.166  24.610   1.751
43991W        W12385  12.124  41.274   0.467
43992W        W12386  19.100  33.726   2.705
43993W        W12387  32.665  18.592   4.540
43994W        W12388  27.163  26.234  11.715
43995W        W12389  14.778  31.681  14.246
43996W        W12390   3.951  39.883   2.895
43997W        W12391  27.983  20.989   4.300
43998W        W12392   0.987  18.118   2.987
43999W        W12393  33.502  13.564   4.553
44000W        W12394  21.052  10.006   0.490
44001W        W12395  30.721  18.301   1.695
44002W        W12396   7.652  23.956   1.387
44003W        W12397  13.800  17.847  13.014
44004W        W12398  30.638   1.213   1.394
44005W        W12399  43.349   4.126  10.646
44006W        W12400  41.482  18.995   0.362
44007W        W12401  12.874  13.895   1.257
44008W        W12402  19.762  17.184  14.218
44009W        W12403  29.918  38.128   0.952
44010W        W12404  37.977  44.003   2.303
44011W        W12405  40.353  37.506   0.204
44012W        W12406   8.852   0.185   4.127
44013W        W12407  40.502   2.850   1.248
44014W        W12408  10.976   2.635   4.134
44015W        W12409  16.525  35.877   1.639
44016W        W12410  22.573  18.223   3.005
44017W        W12411  24.710  16.980   0.966
44018W        W12412  38.037  15.463  12.554
44019W        W12413   3.956  27.729  13.479
44020W        W12414  25.580  28.616  14.473
44021W        W12415   1.490  31.127   4.132
44022W        W12416  33.146  19.160   4.102
44023W        W12417  37.962   5.299  10.660
44024W        W12418  38.197  23.578  14.411
44025W        W12419  26.993  39.382  13.770
44026W        W12420  36.706  37.797  11.129
44027W        W12421  25.593  28.557   3.197
44028W        W12422  15.627  13.385   2.809
44029W        W12423  25.251  41.016  13.318
44030W        W12424   6.716   5.146  11.628
44031W        W12425  32.857   7.965   1.315
44032W        W12426  41.788   4.330   1.881
44033W        W12427  31.096  25.577   2.608
44034W        W12428  38.977   6.980   3.650
44035W        W12429  25.725  33.434  13.859
44036W        W12430   2.923  20.874   3.137
44037W        W12431  31.891  13.241   1.692
44038W        W12432  11.311  20.742   4.862
44039W        W12433   0.102  19.832   2.250
44040W        W12434  12.295   8.308  13.024
44041W        W12435  28.912  37.450   2.216
44042W        W12436  15.739  16.303  12.876
44043W        W12437   4.367   7.006  12.673
44044W        W12438  24.998  27.913  13.373
44045W        W12439  27.891   9.097  11.581
44046W        W12440  41.829  40.545  12.444
44047W        W12441   7.875   8.647   0.316
44048W        W12442   2.001  10.487   3.096
44049W        W12443  38.454  38.788  14.381
44050W        W12444  24.080  28.427  14.540
44051W        W12445  28.295  37.349  11.618
44052W        W12446  31.552  14.143   4.488
44053W        W12447  18.515  37.911  12.468
44054W        W12448   0.583  29.557  10.807
44055W        W12449  37.685  35.354   3.301
44056W        W12450   4.835   6.804   1.375
44057W        W12451  32.528  21.229   0.739
44058W        W12452  21.782   6.794  10.507
44059W        W12453  19.074  37.885  10.717
44060W        W12454   2.539  14.554   0.454
44061W        W12455  25.119  41.582   1.248
44062W        W12456  17.884  44.998  11.127
44063W        W12457  16.146  42.885   2.390
44064W        W12458   3.877  40.032  12.078
44065W        W12459  14.070  24.645  14.340
44066W        W12460  25.140  34.907  13.152
44067W        W12461  40.466  22.194  11.967
44068W        W12462  32.522  37.345  13.772
44069W        W12463  44.733   1.414  11.993
44070W        W12464  22.012  43.781   1.782
44071W        W12465  38.866   3.325   3.814
44072W        W12466  37.464  30.622   1.908
44073W        W12467  36.049  37.583  13.511
44074W        W12468  11.609  43.861  14.963
44075W        W12469  11.741  36.096   3.215
44076W        W12470  10.090  16.299  14.138
44077W        W12471  11.125  17.757  14.432
44078W        W12472  40.726   6.215  11.263
44079W        W12473  20.918  34.741   1.945
44080W        W12474  14.113  41.965  14.365
44081W        W12475  43.691  25.673  14.774
44082W        W12476  20.642   2.259   4.453
44083W        W12477  12.699   1.341   4.625
44084W        W12478   5.641  18.054   4.281
44085W        W12479  35.591   6.371  14.023
44086W        W12480  21.770  23.053  13.128
44087W        W12481  21.528  32.726  11.531
44088W        W12482  39.774  18.562   3.259
44089W        W12483  28.141  13.310   2.112
44090W        W12484  35.345  13.769  12.587
44091W        W12485  13.243   1.967   4.030
44092W        W12486  32.958  24.141  13.907
44093W        W12487  39.536  42.781  14.295
44094W        W12488   1.094  22.565  11.176
44095W        W12489   6.494  27.894   2.843
44096W        W12490  21.710  29.155  13.827
44097W        W12491  34.717  25.579   0.136
44098W        W12492  23.898  29.671   2.520
44099W        W12493   2.107  14.744   4.765
44100W        W12494   8.060  42.817  14.367
44101W        W12495  42.764  36.248   4.959
44102W        W12496   6.212   4.033   1.633
44103W        W12497   4.260  34.357  11.828
44104W        W12498  30.659  13.788  12.054
44105W        W12499  43.985  43.972  14.234
44106W        W12500  32.224  22.055   4.226
44107W        W12501  17.182   2.945  13.644
44108W        W12502  27.986   9.096  13.817
44109W        W12503  27.317  42.359   2.628
44110W        W12504  17.750   6.393  12.895
44111W        W12505  18.993  29.009  12.586
44112W        W12506   0.534   8.208  11.981
44113W        W12507  24.443  10.330  13.955
44114W        W12508   4.984  13.137  12.518
44115W        W12509  21.264   2.863  14.269
44116W        W12510  29.680  37.275   0.019
44117W        W12511  13.293  29.012   3.618
44118W        W12512  23.730  22.993  13.803
44119W        W12513  24.694  12.731  11.113
44120W        W12514  39.879  23.211  13.362
44121W        W12515  43.337  29.494   4.091
44122W        W12516  12.744  11.556   3.633
44123W        W12517  31.722  41.802  13.841
44124W        W12518  18.840  39.691   5.102
44125W        W12519  14.546  38.554   4.242
44126W        W12520  36.589  30.318  13.506
44127W        W12521   6.420  27.226  10.249
44128W        W12522  35.353  21.765  12.572
44129W        W12523  39.773  18.411  13.404
44130W        W12524  22.988  16.263  10.634
44131W        W12525  42.038  10.343   1.363
44132W        W12526  42.721  38.608   3.720
44133W        W12527  24.046  14.169  12.516
44134W        W12528  35.655   1.796   0.299
44135W        W12529  22.145  28.172   1.744
44136W        W12530   4.794  38.491   4.884
44137W        W12531   2.394  31.481  10.821
44138W        W12532   2.523   3.396  10.139
44139W        W12533  38.439  43.928   4.078
44140W        W12534  22.136  42.495   2.167
44141W        W12535  15.677  14.173  12.487
44142W        W12536  41.016  14.715   0.975
44143W        W12537  25.478  37.423   2.638
44144W        W12538  24.654   5.833  10.648
44145W        W12539  18.131  18.568  12.901
44146W        W12540   0.992   0.568   1.703
44147W        W12541  34.379  21.194  10.938
44148W        W12542  19.207  30.928  12.108
44149W        W12543  19.044  21.691   3.525
44150W        W12544   8.856  16.823   3.017
44151W        W12545  30.543  25.659   4.624
44152W        W12546  17.750  11.020   2.244
44153W        W12547  29.552  23.434   4.217
44154W        W12548  27.431   5.131   1.271
44155W        W12549  37.134   7.191   1.257
44156W        W12550  35.893  36.291   3.847
44157W        W12551  37.887   1.980   4.232
44158W        W12552   8.820  34.238  13.905
44159W        W12553  18.156  38.031   1.672
44160W        W12554  10.432  28.127  12.512
44161W        W12555  32.984  22.508  12.910
44162W        W12556  22.995  29.946  14.486
44163W        W12557  44.352   9.150   2.724
44164W        W12558  17.345  33.471   1.590
44165W        W12559  12.587  30.182  14.819
44166W        W12560  43.953  14.638   3.393
44167W        W12561  24.924  15.351   2.249
44168W        W12562   9.498  44.886  14.966
44169W        W12563  44.436  35.060   2.816
44170W        W12564  15.843  37.910   2.251
44171W        W12565  27.082  13.661  11.076
44172W        W12566   3.828  39.964   2.023
44173W        W12567  15.566   2.534   1.483
44174W        W12568   3.059  23.887   2.424
44175W        W12569   7.305  12.472  12.377
44176W        W12570  40.440  36.807  10.179
44177W        W12571   5.769  36.397  10.901
44178W        W12572  29.588  15.851  14.285
44179W        W12573  41.903  31.468  14.009
44180W        W12574  21.091  24.382   3.057
44181W        W12575   8.239  33.515  12.407
44182W        W12576  21.993   6.343   2.169
44183W        W12577  41.751  11.130  13.921
44184W        W12578  37.791  30.581   4.482
44185W        W12579  29.874  25.710   4.177
44186W        W12580  20.256   9.015   0.448
44187W        W12581  17.627  40.159  10.272
44188W        W12582  26.379  27.824   4.943
44189W        W12583   1.705   1.847  12.340
44190W        W12584  17.346  14.280   2.161
44191W        W12585  25.972   0.090  14.158
44192W        W12586  39.377  33.139   1.377
44193W        W12587  25.728  39.309  11.597
44194W        W12588   4.501  28.186   2.176
44195W        W12589  31.075  34.406   3.555
44196W        W12590  10.786  33.673  11.546
44197W        W12591  41.063  38.933  14.928
44198W        W12592  17.062  44.412  13.492
44199W        W12593  26.688  42.906   0.316
44200W        W12594  26.524  20.699  11.189
44201W        W12595  33.012  21.466  14.037
44202W        W12596  23.763  40.557   0.435
44203W        W12597   8.476  15.270  13.563
44204W        W12598  36.972  12.798  14.383
44205W        W12599   3.201  30.631  14.834
44206W        W12600  42.023   6.627   3.900
44207W        W12601  33.423  24.042   3.765
44208W        W12602   9.168  36.104  11.571
44209W        W12603  30.411   2.734   4.613
44210W        W12604  27.620  18.088   0.330
44211W        W12605   8.626   5.222   1.772
44212W        W12606  23.037  15.591   1.796
44213W        W12607  15.253  22.346   0.721
44214W        W12608  30.583  16.389  12.063
44215W        W12609  30.007   2.876   1.301
44216W        W12610  29.018  17.159   0.841
44217W        W12611  13.588  41.435  11.385
44218W        W12612  39.517  29.866  13.464
44219W        W12613  39.597   4.762   1.311
44220W        W12614  38.504  41.713  10.796
44221W        W12615  20.817  18.601   0.635
44222W        W12616  27.131  40.282   1.275
44223W        W12617  16.547  41.236   5.081
44224W        W12618  20.967   4.700   2.267
44225W        W12619  21.638   5.237   4.178
44226W        W12620  20.282   0.980   0.906
44227W        W12621  38.937   4.808   4.163
44228W        W12622   6.834  34.155  11.660
44229W        W12623  31.582  23.755   2.254
44230W        W12624  42.387   3.961   3.172
44231W        W12625   6.443  44.160   3.349
44232W        W12626   0.155  32.132   3.251
44233W        W12627  34.999  13.805  14.481
44234W        W12628  42.085  21.679  14.431
44235W        W12629  19.005  33.857   3.656
44236W        W12630   8.920  27.397  11.811
44237W        W12631  34.611   1.476  12.461
44238W        W12632  30.413  32.408  13.900
44239W        W12633  13.891   3.552  12.957
44240W        W12634  25.240  18.645   1.921
44241W        W12635  27.039  11.469   3.230
44242W        W12636   8.746  40.520   4.133
44243W        W12637  31.645  14.884   3.091
44244W        W12638  43.989  18.237   4.598
44245W        W12639  15.358  18.591  13.835
44246W        W12640  32.434  24.775  10.794
44247W        W12641  39.303  35.994   2.678
44248W        W12642  35.345  29.790  14.410
44249W        W12643  28.661  27.475  14.946
44250W        W12644  40.231  26.626   3.089
44251W        W12645  24.599  19.595   2.300
44252W        W12646  15.072  11.556   2.250
44253W        W12647  16.729  39.408  12.383
44254W        W12648  36.660  27.579  14.103
44255W        W12649  10.159  22.114   0.426
44256W        W12650  43.867  38.391   0.709
44257W        W12651  24.198  40.455  11.625
44258W        W12652  34.438   4.983   3.270
44259W        W12653  38.335  38.331   3.154
44260W        W12654  12.117   8.241  10.900
44261W        W12655  32.181  33.447   2.775
44262W        W12656  17.324  21.194   4.121
44263W        W12657   1.269  41.789   4.100
44264W        W12658  40.710  28.532  11.589
44265W        W12659  21.100  16.333  13.376
44266W        W12660  44.331  17.267   3.131
44267W        W12661  23.750   6.080   3.857
44268W        W12662  42.315  23.797  14.468
44269W        W12663  29.366  26.004   0.764
44270W        W12664  37.988  14.844   4.222
44271W        W12665   5.481  15.529   4.675
44272W        W12666   9.369  42.621  14.528
44273W        W12667  43.728  38.825  13.255
44274W        W12668   8.781  41.891  11.461
44275W        W12669  22.451  38.300  13.576
44276W        W12670  29.523   8.865  11.178
44277W        W12671  10.527  24.582  11.232
44278W        W12672  19.395  44.838  12.885
44279W        W12673  16.642  11.300   0.048
44280W        W12674   8.172   1.531   2.717
44281W        W12675   0.458   0.762  14.084
44282W        W12676  12.216  20.715  13.700
44283W        W12677   8.719  12.208  12.412
44284W        W12678   6.270   3.186  13.597
44285W        W12679  43.121   6.834  14.352
44286W        W12680  19.652  12.583  11.156
44287W        W12681   4.679   9.132  13.003
44288W        W12682  34.393  17.726   0.807
44289W        W12683  43.296  16.915   1.315
44290W        W12684   8.767  40.272  12.195
44291W        W12685  16.352  38.024  13.377
44292W        W12686   9.073  27.925   3.452
44293W        W12687   9.607  11.264   1.317
44294W        W12688  29.224  43.012   0.356
44295W        W12689  19.730  30.213  12.022
44296W        W12690  40.407  36.190   0.505
44297W        W12691  39.907  41.341  10.588
44298W        W12692  24.354  41.540  13.360
44299W        W12693  17.067  23.609   3.880
44300W        W12694   4.436   0.855   4.554
44301W        W12695   1.789  44.242  11.195
44302W        W12696  30.534  43.476   2.240
44303W        W12697  30.724  39.323  10.669
44304W        W12698  32.943  26.653  13.284
44305W        W12699   4.504  29.773   4.769
44306W        W12700   7.682  10.592   1.137
44307W        W12701  31.377  20.066  11.549
44308W        W12702  26.735  36.518   3.740
44309W        W12703  36.178  42.053  13.588
44310W        W12704  32.880  24.910   3.993
44311W        W12705  29.074  43.756  10.964
44312W        W12706  14.145   3.781   2.435
44313W        W12707  20.465   5.840  14.885
44314W        W12708  15.632  36.835   0.792
44315W        W12709  30.372  35.685   0.170
44316W        W12710  11.868  14.191   3.546
44317W        W12711  33.107  28.441   1.685
44318W        W12712  19.147  23.479   0.417
44319W        W12713  14.030   5.722   1.795
44320W        W12714   0.533  33.117   1.771
44321W        W12715   4.208  29.207  10.883
44322W        W12716  40.613  16.980  10.259
44323W        W12717   0.319  10.123  12.007
44324W        W12718   0.807   8.147   0.667
44325W        W12719  16.267  36.920   0.193
44326W        W12720  41.853  43.246  12.939
44327W        W12721   1.844  17.362   3.797
44328W        W12722  27.122   0.449   4.544
44329W        W12723  40.814  41.976  13.614
44330W        W12724  13.136  34.951   2.435
44331W        W12725   7.496  21.656  14.539
44332W        W12726  20.735  32.952   1.767
44333W        W12727  22.621  33.062   1.742
44334W        W12728  12.235   1.931  10.933
44335W        W12729   7.613   6.209   4.206
44336W        W12730  23.277  29.019  11.373
44337W        W12731  15.189  15.035   2.951
44338W        W12732  28.235  30.892   0.701
44339W        W12733   3.617  11.038   4.286
44340W        W12734  39.074   0.565  13.125
44341W        W12735  35.386  20.184  12.461
44342W        W12736  21.656   3.345   1.017
44343W        W12737  13.811  36.924   2.599
44344W        W12738  23.175   7.286   1.512
44345W        W12739   1.928  12.119  13.057
44346W        W12740  25.613  37.543   0.144
44347W        W12741   8.087  20.536  11.696
44348W        W12742  24.665  33.734   0.400
44349W        W12743  12.345  13.763   2.065
44350W        W12744   0.383  43.504   4.974
44351W        W12745  42.808  34.758   2.270
44352W        W12746  14.941   8.656  10.198
44353W        W12747   5.672  31.610  10.726
44354W        W12748   5.226  10.384   4.512
44355W        W12749  19.574  41.961  12.717
44356W        W12750  16.335  26.507  10.624
44357W        W12751  43.013  38.994   3.547
44358W        W12752   5.337  34.543   2.762
44359W        W12753  23.513  32.009  14.353
44360W        W12754  17.961  41.494  14.884
44361W        W12755  20.179  19.627   4.699
44362W        W12756  22.863  17.338  13.426
44363W        W12757   2.799   1.996   3.654
44364W        W12758  34.617  44.456  13.853
44365W        W12759  12.182  28.550  10.838
44366W        W12760  16.392   1.396   1.004
44367W        W12761   7.974  24.441  11.747
44368W        W12762  32.526  12.086   3.416
44369W        W12763  29.449  17.244   0.503
44370W        W12764  36.036  24.138  12.345
44371W        W12765  19.217  37.383   0.041
44372W        W12766   8.503  17.397  11.503
44373W        W12767  33.853  35.357   3.684
44374W        W12768  17.003   1.585   3.285
44375W        W12769  40.349  44.476   4.987
44376W        W12770   3.208  37.389  12.827
44377W        W12771  17.717  10.785   2.717
44378W        W12772  29.487  44.842   2.412
44379W        W12773   3.217  38.906  12.548
44380W        W12774  15.366   7.953   0.151
44381W        W12775   7.241   1.948   2.104
44382W        W12776   9.448  28.668   1.025
44383W        W12777  11.663  25.192  11.659
44384W        W12778  28.392   5.997   4.082
44385W        W12779  38.569  35.351  13.772
44386W        W12780  44.213   7.559  14.842
44387W        W12781  36.602   4.739  10.146
44388W        W12782   5.267  41.303  10.512
44389W        W12783  15.281  18.253  14.240
44390W        W12784  27.591  13.152  11.171
44391W        W12785  27.209   4.285   2.736
44392W        W12786  22.475   6.385   0.794
44393W        W12787  38.948  21.550  11.380
44394W        W12788  21.895  10.586   0.870
44395W        W12789  10.161   4.450  14.059
44396W        W12790   5.139   4.754   0.457
44397W        W12791  27.334   6.753  11.428
44398W        W12792  19.121  26.638  12.414
44399W        W12793  13.038  31.692   4.269
44400W        W12794  27.717  21.723  14.835
44401W        W12795  40.378  25.032   3.193
44402W        W12796  25.063  28.006  13.862
44403W        W12797  21.903   4.455   3.083
44404W        W12798   6.540   9.847   2.167
44405W        W12799  14.548  16.774   1.937
44406W        W12800  42.846  27.958  11.584
44407W        W12801  34.130  28.365  10.728
44408W        W12802  21.003   1.744   0.904
44409W        W12803  28.161   6.281   0.476
44410W        W12804  31.050  29.495   3.561
44411W        W12805  18.128  32.955   1.587
44412W        W12806  17.970  12.665  12.103
44413W        W12807  38.299   7.569   2.836
44414W        W12808  16.033  38.377  12.798
44415W        W12809   0.306   5.705  12.410
44416W        W12810  44.260  19.735   3.846
44417W        W12811  32.860  14.659  10.862
44418W        W12812  12.887   0.848  14.312
44419W        W12813   3.510  16.186  11.931
44420W        W12814   2.367  42.469  14.035
44421W        W12815  20.779  20.056  11.969
44422W        W12816   5.399  21.491  11.684
44423W        W12817  19.996  33.466  13.557
44424W        W12818  12.913  20.506   1.652
44425W        W12819  18.825  40.866   4.955
44426W        W12820  34.223  14.734   0.298
44427W        W12821  33.342  42.563  10.778
44428W        W12822  36.984  20.657   4.926
44429W        W12823   7.378  17.602   1.900
44430W        W12824  44.373   6.260   0.896
44431W        W12825  26.669  28.043   2.428
44432W        W12826  28.680  42.443  14.548
44433W        W12827  18.839  30.640  13.052
44434W        W12828  36.418  10.172   0.701
44435W        W12829  32.012  41.520  11.175
44436W        W12830  14.892  11.402   1.058
44437W        W12831   3.546  27.554  14.436
44438W        W12832  19.445  33.317   1.673
44439W        W12833  16.587  36.346   4.917
44440W        W12834   5.434  22.030   2.759
44441W        W12835  28.122  12.753  12.944
44442W        W12836  18.059  39.056  14.394
44443W        W12837   2.774  16.772   4.102
44444W        W12838  14.085  41.537   2.836
44445W        W12839   5.831  11.620  13.140
44446W        W12840  32.163  34.354  14.366
44447W        W12841  37.687   0.896   2.518
44448W        W12842   5.738   7.170   2.947
44449W        W12843  12.966  33.522   4.994
44450W        W12844  12.785  29.211  11.119
44451W        W12845  12.364   4.767  10.914
44452W        W12846  12.564  29.174   2.852
44453W        W12847  22.179  17.075   0.799
44454W        W12848  30.185  37.790   1.341
44455W        W12849  28.514  36.665   2.176
44456W        W12850  14.503  10.147  10.059
44457W        W12851  23.622  24.000   2.723
44458W        W12852  20.611  20.057  12.825
44459W        W12853  26.483  25.221  12.960
44460W        W12854  26.562  14.229   1.084
44461W        W12855  36.843   9.328   1.900
44462W        W12856  43.277  44.790  11.608
44463W        W12857  38.050  10.609   3.739
44464W        W12858  44.336  13.628  10.877
44465W        W12859  16.821  20.112   3.257
44466W        W12860  28.477   4.774  14.445
44467W        W12861  36.133   5.590  11.267
44468W        W12862   1.719  34.969  13.788
44469W        W12863  21.387   8.794   4.887
44470W        W12864   3.247  11.614   2.660
44471W        W12865  27.523  17.534   2.833
44472W        W12866   2.987  16.400   3.761
44473W        W12867   0.724  10.645  11.067
44474W        W12868  23.812  17.603   2.808
44475W        W12869  33.829  41.294   3.230
44476W        W12870  32.056  17.942  13.257
44477W        W12871  42.836  30.013   1.046
44478W        W12872   5.201  17.956   4.032
44479W        W12873  12.624  37.056  12.450
44480W        W12874   1.940  35.616   3.771
44481W        W12875  35.783  29.190  13.676
44482W        W12876   3.447   6.686  14.811
44483W        W12877  10.211  13.764  14.767
44484W        W12878  37.316  35.092  14.976
44485W        W12879   8.115  43.059  14.823
44486W        W12880  15.266  21.967  11.057
44487W        W12881  42.996  20.580   0.767
44488W        W12882   7.077  32.160   4.623
44489W        W12883   0.883  18.355   1.784
44490W        W12884  17.693  23.782   2.651
44491W        W12885   7.240   6.259   3.186
44492W        W12886  14.769  12.194  10.703
44493W        W12887  37.815  11.690  13.892
44494W        W12888   7.654   1.675  14.704
44495W        W12889  10.273  26.188   4.944
44496W        W12890   4.677   5.034   0.376
44497W        W12891   6.335  44.412  14.472
44498W        W12892  10.298  12.293   0.001
44499W        W12893   9.382  16.761  12.998
44500W        W12894  13.243  12.500   3.619
44501W        W12895  36.268   9.146   0.373
44502W        W12896  17.616  20.671  12.346
44503W        W12897  10.317  42.359  11.349
44504W        W12898  43.563  42.247   4.162
44505W        W12899  33.049  40.859  13.401
44506W        W12900   9.499  41.095   4.065
44507W        W12901  23.164  24.769   3.169
44508W        W12902  13.346  26.087   4.330
44509W        W12903  15.703  37.025   2.511
44510W        W12904  32.912  43.909  11.197
44511W        W12905   6.920  43.552  11.096
44512W        W12906  20.274  28.383   4.609
44513W        W12907  24.184  18.667  10.871
44514W        W12908  27.769  39.144   3.696
44515W        W12909  34.869   6.238   3.707
44516W        W12910  35.061   2.200  14.509
44517W        W12911  10.442  42.803   1.327
44518W        W12912  44.966  39.550   5.828
44519W        W12913   4.040  25.559  13.522
44520W        W12914   7.604  13.015   1.818
44521W        W12915  21.060  29.700   5.100
44522W        W12916  20.958  24.149   5.041
44523W        W12917  35.887  38.363   1.839
44524W        W12918  20.718   1.518  12.248
44525W        W12919   5.307  20.540   3.721
44526W        W12920  38.157  40.027   3.653
44527W        W12921   1.229  31.662   1.696
44528W        W12922  40.328   1.265  13.899
44529W        W12923  35.168  35.930  12.975
44530W        W12924  21.870  38.467   4.109
44531W        W12925   1.603   1.933   0.050
44532W        W12926  21.734  25.899  13.423
44533W        W12927  30.705  39.026   0.893
44534W        W12928  25.753  42.385   1.948
44535W        W12929  39.736  37.009   4.543
44536W        W12930   4.150  18.969   3.079
44537W        W12931  26.662  20.867  11.982
44538W        W12932  23.576  27.056  10.538
44539W        W12933  39.985  32.000  10.615
44540W        W12934  26.722  25.464   3.646
44541W        W12935  23.652  18.300  10.600
44542W        W12936  13.082  15.074   2.317
44543W        W12937  25.260  35.896   2.834
44544W        W12938  22.841   6.397  14.788
44545W        W12939  24.278  33.849  11.990
44546W        W12940   2.440   6.334   4.029
44547W        W12941  11.251  38.118   1.410
44548W        W12942   2.028  40.484  14.438
44549W        W12943  20.065  10.697   1.008
44550W        W12944  35.003  26.553   3.041
44551W        W12945  12.572  35.834  14.600
44552W        W12946  41.491   5.693  14.803
44553W        W12947  38.782  14.317  14.429
44554W        W12948  39.985  11.071   4.220
44555W        W12949  14.159   1.884  11.919
44556W        W12950  24.173   8.224   1.782
44557W        W12951  10.624  36.174   2.361
44558W        W12952  35.048  16.628   3.342
44559W        W12953   2.345   6.255  11.601
44560W        W12954  13.272  29.015   0.703
44561W        W12955   3.964  19.604  13.477
44562W        W12956  18.853  43.878   4.243
44563W        W12957  32.471  43.805  12.393
44564W        W12958  16.641  19.779  13.835
44565W        W12959  18.312   0.854  14.037
44566W        W12960  31.621   0.212   1.819
44567W        W12961  15.005  16.990   2.664
44568W        W12962   9.741   5.749  13.991
44569W        W12963  27.174  26.085   2.743
44570W        W12964   1.829  30.110  10.893
44571W        W12965  30.954  43.895  14.461
44572W        W12966  44.710  34.445   4.663
44573W        W12967  25.614  41.599  12.989
44574W        W12968  17.281   7.374   2.225
44575W        W12969  20.452   6.388  12.503
44576W        W12970   7.775  39.507   1.208
44577W        W12971  11.394   1.967  10.835
44578W        W12972   2.276  43.337   3.757
44579W        W12973  14.175  18.898  11.492
44580W        W12974   5.149  15.117  11.238
44581W        W12975   1.663  28.172  11.985
44582W        W12976  21.210  12.332   2.369
44583W        W12977  13.695   8.886   1.803
44584W        W12978  26.118  19.009  11.531
44585W        W12979  40.036   2.541   3.350
44586W        W12980  38.859   0.152   3.615
44587W        W12981  22.559   4.129  13.276
44588W        W12982  32.442   5.477   4.155
44589W        W12983  42.689   4.793   1.638
44590W        W12984  27.085  22.146  13.875
44591W        W12985  30.254   6.600   0.835
44592W        W12986  35.424  36.887   0.467
44593W        W12987  37.745   4.116   3.260
44594W        W12988  28.653  39.384  13.851
44595W        W12989  39.973  30.158   2.385
44596W        W12990   1.456  13.120   2.397
44597W        W12991  36.538  21.549   0.322
44598W        W12992   0.385  41.296   3.883
44599W        W12993  23.964  31.053  11.162
44600W        W12994   4.435   6.175  12.105
44601W        W12995  42.486   4.158  14.425
44602W        W12996  29.680  19.754  13.960
44603W        W12997   5.710  30.940  11.223
44604W        W12998  12.722   0.755   1.139
44605W        W12999  13.079  11.860  14.891
44606W        W13000  30.445  20.607  12.009
44607W        W13001  21.493  43.558   3.061
44608W        W13002  17.988  35.781  14.228
44609W        W13003  38.519  43.370  11.190
44610W        W13004  37.442  34.214   4.596
44611W        W13005  43.498  15.738   4.556
44612W        W13006  22.024  31.490   3.586
44613W        W13007  23.658  43.283  14.912
44614W        W13008  16.547  29.888   0.923
44615W        W13009   3.004  35.698   1.236
44616W        W13010  31.788   0.424  11.127
44617W        W13011  32.499  21.959   2.912
44618W        W13012  44.870  16.306  12.379
44619W        W13013  36.543   2.367   0.822
44620W        W13014  22.686  24.491  13.434
44621W        W13015  21.268  22.094  14.994
44622W        W13016  16.222   9.211  11.295
44623W        W13017  36.496  43.371   3.698
44624W        W13018   1.459   1.273  10.720
44625W        W13019  13.763   0.448  13.025
44626W        W13020  16.878  44.992  11.284
44627W        W13021   6.147  33.984   0.883
44628W        W13022   5.447  44.173  11.178
44629W        W13023  34.765  38.873  13.023
44630W        W13024  32.379   2.347   0.389
44631W        W13025  24.134  43.162   1.141
44632W        W13026  18.706   8.087  10.560
44633W        W13027  21.735  31.818  13.960
44634W        W13028  32.379  32.939   3.688
44635W        W13029  39.989   3.779   1.655
44636W        W13030  32.072  34.894  12.824
44637W        W13031  35.566  23.723  13.051
44638W        W13032  17.521   9.150  12.091
44639W        W13033  35.289  18.638  14.028
44640W        W13034  19.112  19.804   4.182
44641W        W13035  18.193  37.356  14.503
44642W        W13036  41.405   7.661   4.340
44643W        W13037  18.204  19.399  11.977
44644W        W13038  32.956  42.761  14.539
44645W        W13039  40.810  33.800  14.796
44646W        W13040  31.695   5.710   2.419
44647W        W13041   2.970  41.962  12.920
44648W        W13042  19.260   9.237  10.426
44649W        W13043  43.985  28.732   3.207
44650W        W13044  33.245   0.438   1.036
44651W        W13045  38.089   6.232   0.812
44652W        W13046  22.020  27.514   0.336
44653W        W13047   8.792  44.877  10.453
44654W        W13048  28.377  43.166   1.429
44655W        W13049  14.167   9.893  14.239
44656W        W13050   5.302  27.615   1.022
44657W        W13051   6.851  10.740  10.827
44658W        W13052  18.765  23.380  12.519
44659W        W13053   1.050  36.843  10.739
44660W        W13054  33.400  10.115   0.327
44661W        W13055   3.093  29.395   4.777
44662W        W13056  24.074  14.810   0.420
44663W        W13057  15.537  26.517   4.544
44664W        W13058  23.134  15.962  11.983
44665W        W13059  34.895  37.380  12.930
44666W        W13060  27.538  35.858   2.685
44667W        W13061  23.747   7.507   4.794
44668W        W13062   8.701   4.460   1.372
44669W        W13063  31.966   6.112  14.426
44670W        W13064  28.861   3.983   0.416
44671W        W13065  36.967  20.767   3.273
44672W        W13066  21.084  37.288   3.075
44673W        W13067  20.405  13.625  11.603
44674W        W13068  42.027   3.132  13.036
44675W        W13069  34.380  23.779  11.483
44676W        W13070   2.809  31.393  13.322
44677W        W13071  18.220  13.308  14.734
44678W        W13072  44.292  28.186  11.252
44679W        W13073  20.314   3.795   0.853
44680W        W13074  28.087  14.775   2.321
44681W        W13075   4.741  42.422   1.786
44682W        W13076  26.446   3.285   4.258
44683W        W13077  21.469  11.923   2.634
44684W        W13078   6.805   5.258  14.252
44685W        W13079  41.521  21.712   2.715
44686W        W13080   6.435  37.470  13.352
44687W        W13081  42.272  14.741   2.676
44688W        W13082  37.084  10.668  11.194
44689W        W13083  10.306  31.957   2.825
44690W        W13084  30.095  42.250   2.098
44691W        W13085  30.932   7.299  10.742
44692W        W13086   7.888  10.371  14.362
44693W        W13087  21.017  31.993   2.603
44694W        W13088  32.546  11.077   3.846
44695W        W13089  41.981   6.679  12.594
44696W        W13090  15.217  19.930   2.906
44697W        W13091  21.619  38.051   2.602
44698W        W13092   3.665  14.729   3.841
44699W        W13093   6.335  26.999  14.354
44700W        W13094  19.000   0.203  13.969
44701W        W13095  18.553  26.310  10.707
44702W        W13096  35.961  41.282  10.746
44703W        W13097   8.827  43.994   2.824
44704W        W13098  36.472  14.076   0.721
44705W        W13099  31.843  40.719  13.030
44706W        W13100  26.243  10.458   0.741
44707W        W13101  17.285  42.316   4.110
44708W        W13102   7.144  20.631  11.389
44709W        W13103  17.737  19.522   1.827
44710W        W13104  33.159  39.475   4.754
44711W        W13105   9.179  12.684   2.040
44712W        W13106  10.188  33.713  13.691
44713W        W13107  35.853  43.826   4.644
44714W        W13108  22.186  11.959   2.266
44715W        W13109   2.880  33.728   1.342
44716W        W13110   8.783  44.777  11.894
44717W        W13111  32.611  33.159  14.720
44718W        W13112  23.598  37.872   3.970
44719W        W13113   7.413  14.244   0.844
44720W        W13114  25.223   6.616  13.905
44721W        W13115  26.014  38.049  14.886
44722W        W13116  43.888  34.640   3.631
44723W        W13117   9.256  10.822   0.428
44724W        W13118  31.867   1.911  14.913
44725W        W13119  42.366   1.480   3.008
44726W        W13120  43.380   0.575  12.933
44727W        W13121  33.680  24.632  12.015
44728W        W13122  13.697  18.254  11.101
44729W        W13123  17.528  21.235  11.105
44730W        W13124  31.890  38.835   3.509
44731W        W13125  33.410  26.771  12.498
44732W        W13126   9.300  16.909   0.746
44733W        W13127  27.093  16.824  11.638
44734W        W13128  23.637   0.228  11.026
44735W        W13129  43.235  21.787   4.724
44736W        W13130  39.311  13.795   4.738
44737W        W13131   7.895   7.662   2.543
44738W        W13132  20.811  41.950  13.390
44739W        W13133   7.407  36.938   0.105
44740W        W13134  26.924  25.136   4.054
44741W        W13135  43.614   9.617   0.796
44742W        W13136  13.830   3.042  12.976
44743W        W13137  21.708  38.070  12.006
44744W        W13138  36.800  34.576  14.397
44745W        W13139   9.306  40.821  10.739
44746W        W13140   0.794  12.764   2.874
44747W        W13141   6.675  36.339   0.638
44748W        W13142  16.154   7.311  11.269
44749W        W13143  14.502  14.750  14.526
44750W        W13144  15.341  23.039   4.927
44751W        W13145  13.380  23.313   4.177
44752W        W13146  39.211  36.000  14.131
44753W        W13147  11.149  39.972  14.928
44754W        W13148   7.449  26.696   5.010
44755W        W13149  11.994  29.597   2.133
44756W        W13150  40.914  21.052  12.887
44757W        W13151  28.087  29.138  11.464
44758W        W13152  26.666  27.521  12.988
44759W        W13153  17.844  29.006  11.872
44760W        W13154  43.776  15.474   2.374
44761W        W13155   5.327   6.734   4.915
44762W        W13156  12.836  39.263  10.935
44763W        W13157   9.794  36.450  12.056
44764W        W13158  32.541  38.849   2.798
44765W        W13159   3.756  22.672  12.762
44766W        W13160  17.356  15.759  14.570
44767W        W13161  12.733  23.710  14.912
44768W        W13162   5.764  41.450   2.971
44769W        W13163   2.353  25.044  13.396
44770W        W13164  26.395  11.334  14.850
44771W        W13165  43.369   0.338  13.400
44772W        W13166   9.335  27.413   1.388
44773W        W13167  40.946  15.118   1.278
44774W        W13168  37.722   0.332  10.670
44775W        W13169  21.467  43.768  11.107
44776W        W13170  37.576  33.395   3.318
44777W        W13171   7.186  43.857   0.326
44778W        W13172  27.523  27.431  14.760
44779W        W13173  20.354  15.937   3.319
44780W        W13174  32.630  10.255   3.123
44781W        W13175  40.502  30.333  13.832
44782W        W13176  43.292   2.292   4.179
44783W        W13177  17.213  23.511  11.090
44784W        W13178   9.333  41.966  12.527
44785W        W13179  26.525  13.189  11.169
44786W        W13180  42.379  37.480   2.815
44787W        W13181  15.297  20.209  13.394
44788W        W13182   3.419  40.995   1.737
44789W        W13183  40.788  29.170  14.521
44790W        W13184  17.066  15.698  11.452
44791W        W13185  37.493  18.506  14.800
44792W        W13186   0.422   5.932  12.893
44793W        W13187   5.635  33.606  11.618
44794W        W13188  10.477  30.632  11.152
44795W        W13189   4.352   2.521   1.549
44796W        W13190  28.881  26.248   3.434
44797W        W13191  16.306  33.493  13.294
44798W        W13192  12.835  26.047   1.174
44799W        W13193   3.870  16.825  11.848
44800W        W13194  12.870   2.991  11.504
44801W        W13195  24.662  34.441  11.580
44802W        W13196   7.787  23.642   0.760
44803W        W13197   2.153  24.729   1.683
44804W        W13198   3.980  23.279   2.305
44805W        W13199  17.919  40.905   9.912
44806W        W13200  25.627  17.650  14.121
44807W        W13201  34.648  37.518  13.578
44808W        W13202  44.265  19.474  12.586
44809W        W13203  14.550  39.061   2.606
44810W        W13204  11.707  30.401  12.441
44811W        W13205  27.584   6.280   4.848
44812W        W13206   4.804   8.630  13.018
44813W        W13207   6.821  30.952   0.358
44814W        W13208   3.033  34.367   3.664
44815W        W13209  22.430   6.287   1.814
44816W        W13210  31.011   1.760   3.090
44817W        W13211   7.385   5.372  14.075
44818W        W13212   0.438  14.686  14.443
44819W        W13213  43.042  37.293   2.169
44820W        W13214  15.523   6.847  14.916
44821W        W13215   3.925  17.071   2.337
44822W        W13216  32.149  21.203  12.950
44823W        W13217  39.539  40.015   0.305
44824W        W13218  38.474   8.836   1.602
44825W        W13219  11.288  35.509   2.806
44826W        W13220  43.332  30.709   2.790
44827W        W13221  32.136  10.454   1.832
44828W        W13222  12.080  32.654  10.728
44829W        W13223  34.943   4.989  14.478
44830W        W13224  20.244  41.971   0.906
44831W        W13225  29.427  11.856   3.146
44832W        W13226  18.605  12.845  14.763
44833W        W13227   6.811   3.702   2.814
44834W        W13228   3.741  10.147   4.991
44835W        W13229  18.624  14.696   2.757
44836W        W13230   6.447  22.601  11.589
44837W        W13231  18.272  31.186   0.468
44838W        W13232  31.128  42.340   4.555
44839W        W13233  42.331  13.681   3.132
44840W        W13234  11.611  28.440   3.159
44841W        W13235  14.618  33.885  14.078
44842W        W13236  12.605  41.065  12.967
44843W        W13237   1.729  30.826  12.599
44844W        W13238  10.748  10.347   4.184
44845W        W13239  13.199   1.226  14.704
44846W        W13240  27.965   0.145   5.439
44847W        W13241  12.533   5.695   9.748
44848W        W13242  23.041   3.226  14.531
44849W        W13243  20.623  29.225   1.684
44850W        W13244  19.329  44.068   4.289
44851W        W13245  35.586  24.176   3.015
44852W        W13246   8.389  22.995  12.471
44853W        W13247  17.669  37.418   5.703
44854W        W13248  11.682  14.573   1.246
44855W        W13249  39.918  29.552   2.149
44856W        W13250   4.808  40.228   1.142
44857W        W13251  20.517  27.871  11.133
44858W        W13252  34.761  14.661   3.260
44859W        W13253  31.759  19.836  13.441
44860W        W13254  20.771  43.678   3.712
44861W        W13255  11.120   9.897  14.151
44862W        W13256   9.897  36.312  10.563
44863W        W13257  14.177  14.851   1.771
44864W        W13258  22.645  11.876   3.988
44865W        W13259   7.710  21.132  10.624
44866W        W13260  18.846   5.279  13.995
44867W        W13261  11.404  34.914  13.030
44868W        W13262   2.945  34.813  13.951
44869W        W13263  26.474  19.157   4.704
44870W        W13264   9.494   7.216   2.698
44871W        W13265   6.828  41.274  13.549
44872W        W13266  43.737  28.730  13.107
44873W        W13267  17.199  10.963   4.620
44874W        W13268  37.783  31.369   1.553
44875W        W13269  14.679  32.864   0.998
44876W        W13270  41.339  12.441   4.119
44877W        W13271  44.820   6.903  14.260
44878W        W13272  10.597  11.866  10.861
44879W        W13273  41.319   0.424   4.002
44880W        W13274   5.821   0.912   4.510
44881W        W13275  23.506  19.048  14.892
44882W        W13276  23.737  11.246   1.840
44883W        W13277   1.857   5.329  12.138
44884W        W13278  14.675  28.045  10.769
44885W        W13279  42.599  35.381   4.125
44886W        W13280  17.665  12.229   0.415
44887W        W13281  39.900  26.058   1.877
44888W        W13282  27.165  44.385   3.120
44889W        W13283   9.846  24.145  10.153
44890W        W13284  11.973  34.394  12.399
44891W        W13285  41.525  14.153  12.626
44892W        W13286  20.639  28.204   4.968
44893W        W13287  22.254   9.839   1.204
44894W        W13288  28.327  25.534  10.553
44895W        W13289  20.656  18.005  14.950
44896W        W13290  33.202  25.558   0.925
44897W        W13291  14.076  37.519   3.748
44898W        W13292   1.421   7.028   0.897
44899W        W13293  41.606   9.276  10.473
44900W        W13294  10.699  42.843  12.527
44901W        W13295  10.219  31.448   2.851
44902W        W13296  21.838  16.169   0.327
44903W        W13297  20.729   6.985  13.794
44904W        W13298  26.082  27.121   4.530
44905W        W13299  16.835   9.761   1.306
44906W        W13300  43.138  23.293  14.318
44907W        W13301  24.136   4.648  11.977
44908W        W13302   8.969  25.238   4.132
44909W        W13303  27.128  19.082  14.509
44910W        W13304  40.762  29.546  14.898
44911W        W13305  22.487  18.645   0.375
44912W        W13306   4.840  41.729  10.348
44913W        W13307   7.866   7.821  13.430
44914W        W13308  33.534  40.749  13.519
44915W        W13309  16.471   1.151  10.929
44916W        W13310   7.806  26.634  10.271
44917W        W13311   9.696  29.000   2.700
44918W        W13312  35.865  28.405   1.958
44919W        W13313  15.520  11.925  14.298
44920W        W13314  16.318  25.539   4.192
44921W        W13315  33.364   7.800   2.248
44922W        W13316  41.077  35.293  11.460
44923W        W13317   1.551  33.116   1.788
44924W        W13318  39.456  40.650   3.360
44925W        W13319   4.008  25.828   0.506
44926W        W13320   1.448   3.783   0.485
44927W        W13321  41.858   4.350   3.664
44928W        W13322  35.061  41.604   2.161
44929W        W13323  15.995  16.998  14.057
44930W        W13324   4.885  19.282  10.808
44931W        W13325   7.115  20.760   0.877
44932W        W13326  28.212  19.632  10.801
44933W        W13327  17.679  34.356   3.733
44934W        W13328  38.526  10.887  12.435
44935W        W13329  26.637  29.155   2.230
44936W        W13330   8.776  34.119   2.375
44937W        W13331  22.510   5.193   1.890
44938W        W13332  39.491  42.518   4.180
44939W        W13333   6.245   5.594   0.697
44940W        W13334   5.491  32.978  14.378
44941W        W13335   4.829  24.028   3.283
44942W        W13336   2.908  34.564   4.547
44943W        W13337  36.787  11.298  12.390
44944W        W13338  29.869  13.517   4.180
44945W        W13339  24.704  19.755   4.173
44946W        W13340  13.829   6.106  11.695
44947W        W13341  18.700  16.560   1.261
44948W        W13342  38.617  31.104   4.523
44949W        W13343  20.589  37.464  13.520
44950W        W13344   6.198  36.860   3.266
44951W        W13345   3.717   7.293   0.439
44952W        W13346  16.750  10.143   2.571
44953W        W13347  31.080  27.044   0.589
44954W        W13348  30.687   9.845  10.903
44955W        W13349  28.099  28.878  10.599
44956W        W13350  32.673  28.860  14.843
44957W        W13351   2.966  19.034  12.298
44958W        W13352   0.020  20.583   4.129
44959W        W13353   5.209  27.454   9.614
44960W        W13354   1.314  36.386  13.031
44961W        W13355   5.023   8.220   1.390
44962W        W13356   5.292   4.359  14.468
44963W        W13357  29.475  14.510  14.996
44964W        W13358  17.998   2.253  11.771
44965W        W13359   8.315   2.531   2.807
44966W        W13360  12.340  36.909   0.965
44967W        W13361  32.634   7.820  13.667
44968W        W13362   9.327  25.697   1.855
44969W        W13363  41.166  39.828  13.996
44970W        W13364  33.583  36.014   1.644
44971W        W13365   2.661  12.908  14.497
44972W        W13366  38.874   9.112  12.420
44973W        W13367  22.432  23.705   1.747
44974W        W13368  35.669  12.342  13.345
44975W        W13369  28.554  25.114  14.507
44976W        W13370  38.729  34.221   2.614
44977W        W13371  12.557  23.563   2.337
44978W        W13372  39.878  12.212  13.400
44979W        W13373  28.217   9.207   1.872
44980W        W13374  15.125   7.772  14.713
44981W        W13375   9.565   2.845  12.314
44982W        W13376  40.327  28.399  14.785
44983W        W13377  42.504   4.483   2.262
44984W        W13378  13.733  38.555   0.052
44985W        W13379   6.951  34.434  13.798
44986W        W13380   4.900  14.621   0.186
44987W        W13381   5.166   9.920   1.936
44988W        W13382  10.319  20.403  10.940
44989W        W13383   2.064   3.669   3.194
44990W        W13384  21.236  38.508  14.834
44991W        W13385  13.659  33.983   1.271
44992W        W13386  37.587  27.959   0.437
44993W        W13387  33.402  20.243  12.409
44994W        W13388  39.488  24.051   1.444
44995W        W13389  41.153  25.006   0.434
44996W        W13390  36.800  40.094   1.234
44997W        W13391  40.677  24.426  13.415
44998W        W13392   8.867  27.135   3.891
44999W        W13393  33.167  43.823   4.272
45000W        W13394  10.729  18.888   4.447
45001W        W13395  20.805  37.882   0.862
45002W        W13396  28.637   2.211   2.219
45003W        W13397  44.223   4.953   0.276
45004W        W13398  22.745  14.124   0.556
45005W        W13399  12.795  41.560   3.566
45006W        W13400  41.796  24.224   1.285
45007W        W13401  29.809  28.820  14.459
45008W        W13402  35.821  12.375  12.539
45009W        W13403  11.721   2.785   1.299
45010W        W13404  16.701  27.917  11.591
45011W        W13405  39.496   5.405   1.953
45012W        W13406   7.405  29.346   1.317
45013W        W13407  17.794   4.567   1.888
45014W        W13408  12.418  34.268   3.200
45015W        W13409  39.561  31.033  12.432
45016W        W13410  30.618  35.110   2.597
45017W        W13411  24.014  33.498   2.200
45018W        W13412  43.541  14.801   1.931
45019W        W13413  36.314   9.363   3.250
45020W        W13414  36.738  32.057  14.256
45021W        W13415  20.689  11.740   2.160
45022W        W13416  40.495  41.052  13.177
45023W        W13417   9.935  39.435  12.922
45024W        W13418   8.819  12.850  14.856
45025W        W13419  14.040  44.563   4.270
45026W        W13420  40.081  36.013  14.221
45027W        W13421  37.323  30.828  11.553
45028W        W13422  31.925  20.571  11.319
45029W        W13423  32.625  42.817   0.660
45030W        W13424  27.426  38.957  12.051
45031W        W13425  15.391  22.939   1.368
45032W        W13426  10.564   0.938  11.309
45033W        W13427  14.755  35.009   4.136
45034W        W13428  18.720  13.414  14.810
45035W        W13429   5.183  15.016  12.529
45036W        W13430   8.049  27.245   4.166
45037W        W13431  18.067  27.443  11.918
45038W        W13432  34.116  33.505  11.525
45039W        W13433  22.445  21.405  12.607
45040W        W13434  21.825  12.274   2.838
45041W        W13435  43.943  38.810  12.032
45042W        W13436  32.950  21.230  12.328
45043W        W13437   2.720   5.687   3.405
45044W        W13438   1.601   9.646  12.173
45045W        W13439  22.773  14.192  12.631
45046W        W13440   6.171  10.750  13.520
45047W        W13441  17.144  14.664   3.370
45048W        W13442  26.143   6.445   0.825
45049W        W13443   2.255  16.793   3.993
45050W        W13444  13.385  13.824  13.916
45051W        W13445  22.669  44.251   0.826
45052W        W13446  33.532  34.589   1.739
45053W        W13447  28.515   7.247  12.485
45054W        W13448  10.706  34.397   1.631
45055W        W13449  13.579   2.414   2.256
45056W        W13450  24.077   7.500   1.074
45057W        W13451  35.854  39.967  13.068
45058W        W13452   1.502  11.852   3.886
45059W        W13453  11.212  24.178  14.268
45060W        W13454  17.596  33.133   2.797
45061W        W13455  23.227   8.843   2.308
45062W        W13456  44.195   1.689   2.153
45063W        W13457  26.029  16.279   0.226
45064W        W13458   3.774  38.879  14.899
45065W        W13459  21.974  39.570  11.079
45066W        W13460   5.149  39.407   1.326
45067W        W13461   5.394  37.454   4.253
45068W        W13462   8.143  19.175  12.189
45069W        W13463  22.886  27.669  10.454
45070W        W13464   7.757  14.307  13.091
45071W        W13465   6.425  12.194   4.196
45072W        W13466  25.725  31.117  10.871
45073W        W13467   1.233  13.601   4.888
45074W        W13468  39.067  26.060  12.927
45075W        W13469   7.100  14.283   0.456
45076W        W13470   5.327  22.029   3.939
45077W        W13471  23.935  14.081   2.322
45078W        W13472   9.968  11.179   2.545
45079W        W13473  31.146  40.015   2.326
45080W        W13474  14.232  20.737   1.142
45081W        W13475  11.118   3.688   1.369
45082W        W13476  14.062   6.703   3.639
45083W        W13477  20.948  14.075   0.753
45084W        W13478   0.039  19.066   1.999
45085W        W13479  18.128  43.876   1.495
45086W        W13480  20.492  25.633   0.764
45087W        W13481  34.696  38.297  11.123
45088W        W13482   0.954  15.485  11.538
45089W        W13483  32.416  28.075   1.300
45090W        W13484  11.877  34.026   0.225
45091W        W13485  32.635   1.858   0.376
45092W        W13486  29.359   0.741   2.155
45093W        W13487  10.547  34.632  14.530
45094W        W13488  13.212  37.878   1.437
45095W        W13489  31.790   8.692  13.395
45096W        W13490  42.410  33.020  13.128
45097W        W13491  12.789  42.053   3.230
45098W        W13492  12.691  43.427  14.360
45099W        W13493  31.155   3.429   1.411
45100W        W13494  33.427  36.268   3.486
45101W        W13495  20.150  10.202  13.234
45102W        W13496   1.759  42.343   1.878
45103W        W13497  12.371  19.072  11.008
45104W        W13498  40.343  13.706  14.925
45105W        W13499   6.712  36.439   3.340
45106W        W13500  43.816  28.998   0.556
45107W        W13501  43.808  15.121  11.493
45108W        W13502  33.012  30.977  10.749
45109W        W13503  23.318   9.617  10.178
45110W        W13504  37.858  24.755   4.109
45111W        W13505  38.943  12.670   0.339
45112W        W13506  21.265  22.760  11.071
45113W        W13507  17.295  34.218  13.362
45114W        W13508  11.138   6.995   4.570
45115W        W13509  29.993  10.198   3.779
45116W        W13510   8.337  13.179   0.700
45117W        W13511  30.068  16.869   1.937
45118W        W13512  30.928  31.460  14.996
45119W        W13513  35.808  32.105  13.579
45120W        W13514  18.720   0.902   2.318
45121W        W13515  11.670  44.241  13.438
45122W        W13516  41.823   9.878  13.556
45123W        W13517  16.001  40.402   1.451
45124W        W13518  25.728  18.720   3.713
45125W        W13519  41.061  33.640  11.529
45126W        W13520  20.901   2.317  12.033
45127W        W13521  44.434   8.408   0.190
45128W        W13522  13.410  28.465   2.883
45129W        W13523   3.715  10.217  12.212
45130W        W13524  29.642   0.990   2.524
45131W        W13525  14.481  38.975  14.950
45132W        W13526  14.285  28.193   0.237
45133W        W13527  29.558  44.953  10.290
45134W        W13528  37.612  21.075   4.346
45135W        W13529  42.932  38.491  11.107
45136W        W13530   3.731  34.008   2.216
45137W        W13531  28.239  35.578  13.761
45138W        W13532  27.587  13.117  11.998
45139W        W13533  22.111  20.736  10.536
45140W        W13534  29.889  28.067  14.861
45141W        W13535  21.903  23.906   3.302
45142W        W13536  20.030  43.151  14.272
45143W        W13537  41.604  32.124  14.294
45144W        W13538  15.728  31.241   1.873
45145W        W13539   5.331   0.248  10.605
45146W        W13540  34.572  11.328  11.108
45147W        W13541  25.569  39.996   2.580
45148W        W13542  26.191  32.867   3.526
45149W        W13543   7.770  42.963   0.208
45150W        W13544   2.642  25.229  13.841
45151W        W13545   5.130   7.369  14.525
45152W        W13546   9.417  33.944  12.532
45153W        W13547  21.114   0.312   1.456
45154W        W13548  19.774  16.378   2.650
45155W        W13549  19.136  30.243   4.502
45156W        W13550   1.867   7.205   0.345
45157W        W13551  38.790  11.450   2.365
45158W        W13552  38.970  39.285  11.690
45159W        W13553   4.701  17.767  12.962
45160W        W13554  26.439  23.255   1.968
45161W        W13555  27.145  41.539   4.632
45162W        W13556   6.401  20.281  11.101
45163W        W13557  13.595  20.508  14.816
45164W        W13558  29.088  35.463  13.401
45165W        W13559  31.931  44.453   0.004
45166W        W13560  26.868  41.867   5.069
45167W        W13561  33.919   1.235   3.157
45168W        W13562  13.291   5.397   4.542
45169W        W13563  44.797  44.441  12.252
45170W        W13564   3.422  32.630   1.623
45171W        W13565  21.208  12.161   9.901
45172W        W13566   9.774  43.745   1.334
45173W        W13567  39.391   0.272   2.227
45174W        W13568  24.354  44.731   1.272
45175W        W13569   5.778   6.948  12.185
45176W        W13570   2.877  12.660  11.410
45177W        W13571  24.986  23.699  14.711
45178W        W13572  15.105   6.165  10.740
45179W        W13573  36.285  25.058  12.597
45180W        W13574  37.566  25.533   0.070
45181W        W13575  44.310  19.503   2.521
45182W        W13576  18.675  16.631  12.048
45183W        W13577  23.537  29.971   1.691
45184W        W13578  37.883  25.174  12.022
45185W        W13579   3.174  30.774  11.344
45186W        W13580  32.410  40.457   3.564
45187W        W13581  19.631  19.593  12.832
45188W        W13582  21.139  15.703  14.767
45189W        W13583  24.806  43.162   4.798
45190W        W13584  41.683  43.748  11.176
45191W        W13585  35.423   0.260  12.019
45192W        W13586  41.402  38.012   3.668
45193W        W13587  19.533  38.398  13.857
45194W        W13588   2.425  22.983  14.433
45195W        W13589  36.456   0.700  14.668
45196W        W13590  40.452  25.018  10.364
45197W        W13591  35.083  38.522   4.667
45198W        W13592  41.049   8.244   2.721
45199W        W13593  43.744   9.956  12.802
45200W        W13594  39.500   9.185   3.231
45201W        W13595   1.833  19.664   4.897
45202W        W13596  13.951  14.052  13.445
45203W        W13597   0.888  30.450  11.160
45204W        W13598  24.897  11.167   1.603
45205W        W13599  14.247   2.374   4.723
45206W        W13600   0.117  32.702  10.627
45207W        W13601   7.262  28.492  13.807
45208W        W13602  33.170  15.756   0.901
45209W        W13603   4.751   6.725  13.594
45210W        W13604  44.269  22.660  14.775
45211W        W13605  41.271  14.530   2.801
45212W        W13606   4.233  44.040  12.221
45213W        W13607  42.897   2.927   2.667
45214W        W13608  37.880  22.445   0.812
45215W        W13609  29.159  23.949   3.568
45216W        W13610  23.544   0.236   4.629
45217W        W13611  28.755  43.853   4.114
45218W        W13612  16.914  11.149  11.588
45219W        W13613  44.176  17.341  13.016
45220W        W13614  15.297  10.245  13.996
45221W        W13615   4.098   2.404   3.567
45222W        W13616  13.407  19.564  12.755
45223W        W13617  10.152  42.289  14.844
45224W        W13618   8.589   9.945   4.277
45225W        W13619  23.530   6.908  13.576
45226W        W13620  24.718   9.249   2.843
45227W        W13621   4.809  38.293  14.364
45228W        W13622  33.373  36.672   3.820
45229W        W13623  41.249  32.510  14.180
45230W        W13624  17.240  43.820   3.217
45231W        W13625  43.688  38.344   1.194
45232W        W13626  30.162  21.985  11.689
45233W        W13627   9.251  39.852  14.263
45234W        W13628  42.336  42.290  10.531
45235W        W13629   8.324  23.495   0.067
45236W        W13630  12.555  24.491  11.204
45237W        W13631  27.151  14.302  10.759
45238W        W13632  13.427  20.501   1.760
45239W        W13633  20.101  30.186   0.234
45240W        W13634  32.797   1.802   1.724
45241W        W13635  39.426  23.796   4.061
45242W        W13636  25.417  19.767   0.549
45243W        W13637  37.030  10.846  14.909
45244W        W13638  44.774  44.153  14.831
45245W        W13639  25.057  41.326   2.280
45246W        W13640  15.189  10.429  13.531
45247W        W13641  27.788  31.650   1.826
45248W        W13642   8.646   9.380  12.510
45249W        W13643   1.172   5.260  10.409
45250W        W13644  33.590   0.233   4.402
45251W        W13645   6.128  35.992  10.300
45252W        W13646  27.982   1.845   5.068
45253W        W13647  14.644  38.236  11.044
45254W        W13648  23.870   6.734   0.008
45255W        W13649  31.715   3.375   3.216
45256W        W13650  34.645  33.852  10.943
45257W        W13651  13.649  12.295   2.652
45258W        W13652  36.933  22.044  14.629
45259W        W13653  37.854  36.454  14.690
45260W        W13654  29.121  11.250  13.473
45261W        W13655  36.218   4.750  13.823
45262W        W13656  17.757  17.655   1.521
45263W        W13657  31.906  40.326  13.927
45264W        W13658  15.142  31.457  13.914
45265W        W13659   5.871  33.334   1.760
45266W        W13660  36.406  35.624  13.821
45267W        W13661  25.114   8.578   2.781
45268W        W13662   6.762  20.231   2.284
45269W        W13663  19.660  21.161   1.202
45270W        W13664   5.346  43.851  11.629
45271W        W13665  23.808  21.408  12.495
45272W        W13666  34.473  43.046   3.457
45273W        W13667  40.416  29.089   1.858
45274W        W13668  25.294  20.271   0.473
45275W        W13669  28.884  30.355  12.404
45276W        W13670  24.147  32.957  14.517
45277W        W13671  20.647  43.718   1.926
45278W        W13672  33.649  44.770   4.143
45279W        W13673  17.651   8.299  11.200
45280W        W13674  43.151  13.343   2.621
45281W        W13675  18.074  39.394   2.376
45282W        W13676  13.163  21.707  14.297
45283W        W13677   9.414   9.238  14.597
45284W        W13678  22.655   0.752  12.661
45285W        W13679  37.051  34.445  11.155
45286W        W13680  10.953  35.580   3.629
45287W        W13681  21.186   5.454   1.880
45288W        W13682  41.461  42.345  14.568
45289W        W13683  21.622  21.485  10.614
45290W        W13684  24.798  27.058  12.033
45291W        W13685  27.911  10.920  11.866
45292W        W13686  28.554  33.062  14.649
45293W        W13687  20.346  25.260  13.984
45294W        W13688  21.463   7.908  13.493
45295W        W13689   8.889   1.006   3.425
45296W        W13690  14.772  10.276  10.925
45297W        W13691  40.230  39.066   1.286
45298W        W13692  22.680  41.295  13.539
45299W        W13693   7.980  39.362  11.561
45300W        W13694  13.560  23.941   0.387
45301W        W13695  20.115  41.582   0.291
45302W        W13696  17.569  20.036   3.677
45303W        W13697   9.732  27.521  11.610
45304W        W13698   4.276  27.833   3.961
45305W        W13699   1.409  24.585  13.198
45306W        W13700  13.783  12.801   0.349
45307W        W13701  28.647  24.050   1.160
45308W        W13702  44.399  33.976  11.873
45309W        W13703  43.540  26.073   4.135
45310W        W13704  26.250  30.510  14.272
45311W        W13705  23.244   0.760   3.795
45312W        W13706  38.868  15.849  14.855
45313W        W13707  23.853  19.530   4.606
45314W        W13708  43.409   3.101   3.775
45315W        W13709   4.868   8.793  14.533
45316W        W13710  20.639  19.439   3.175
45317W        W13711  36.275  39.065  11.702
45318W        W13712   2.390   1.549   3.292
45319W        W13713  36.469   8.679   0.384
45320W        W13714  40.539  25.347  12.035
45321W        W13715   7.280   7.121   0.498
45322W        W13716  29.659   4.018   2.321
45323W        W13717  30.125  15.745   4.362
45324W        W13718   8.666   1.573   4.038
45325W        W13719  25.509  27.647   1.369
45326W        W13720  43.378  12.050   2.356
45327W        W13721   1.076  24.410   2.541
45328W        W13722  34.847  40.730  12.917
45329W        W13723  23.798   5.462  12.054
45330W        W13724  42.254   3.843  11.330
45331W        W13725  21.660  28.709   1.407
45332W        W13726  37.838   9.246   3.703
45333W        W13727  17.370  43.093   0.633
45334W        W13728  36.448  28.570  12.998
45335W        W13729  29.098  34.672   3.701
45336W        W13730  27.921  13.167   2.554
45337W        W13731  43.559  20.715   0.653
45338W        W13732  13.703  15.784  10.945
45339W        W13733  40.372  35.584   3.608
45340W        W13734  38.035  11.876  14.374
45341W        W13735   7.291  32.281  11.841
45342W        W13736  21.149   8.880   0.982
45343W        W13737  20.717  12.859  12.112
45344W        W13738   2.673  21.287  14.377
45345W        W13739  31.245  36.018   1.420
45346W        W13740   5.864  29.327  12.565
45347W        W13741  18.461  41.509   0.771
45348W        W13742  15.109  29.889   0.386
45349W        W13743  41.762  40.848   1.018
45350W        W13744  20.314  11.418  11.043
45351W        W13745   7.367  44.898  11.075
45352W        W13746  12.571  15.037   4.052
45353W        W13747  40.967  21.630  10.637
45354W        W13748   7.621  27.428  12.884
45355W        W13749  13.142   1.507   1.469
45356W        W13750  26.435   1.251   1.058
45357W        W13751  10.787  31.335  12.165
45358W        W13752  17.294  15.828   4.174
45359W        W13753   5.298   3.558   2.250
45360W        W13754  36.542  28.523  11.149
45361W        W13755  23.161  28.909  14.464
45362W        W13756  19.364   5.321   0.777
45363W        W13757  41.898  39.499  14.060
45364W        W13758  36.905  39.567  11.434
45365W        W13759  32.303  35.471   1.627
45366W        W13760   5.861  26.533   1.343
45367W        W13761  21.713  25.874   3.655
45368W        W13762  21.875  44.487   2.807
45369W        W13763  16.061   4.067  10.736
45370W        W13764  28.643  36.404   2.854
45371W        W13765  28.980  35.507  14.245
45372W        W13766  34.571  42.058  13.990
45373W        W13767  29.435  44.861   4.639
45374W        W13768  14.719  25.988   1.614
45375W        W13769   5.195  31.721  14.086
45376W        W13770  14.496  29.746  13.495
45377W        W13771   6.814  10.071  14.292
45378W        W13772  40.392   4.978   1.904
45379W        W13773  13.791  42.595   3.869
45380W        W13774  19.593  21.062  12.583
45381W        W13775  11.278  31.454   4.586
45382W        W13776  24.536  27.866  14.851
45383W        W13777   0.851   1.043   1.465
45384W        W13778  38.947  35.356   0.567
45385W        W13779   2.897  28.590  14.306
45386W        W13780  15.862   5.231  14.384
45387W        W13781  36.736  22.655   3.233
45388W        W13782  14.177   4.120   3.348
45389W        W13783  20.286  39.868   3.658
45390W        W13784  25.475  31.895   3.604
45391W        W13785  20.372  28.606   1.230
45392W        W13786   8.445  23.329   1.343
45393W        W13787   9.705   9.700   2.604
45394W        W13788   1.366  42.285   1.260
45395W        W13789  24.593  16.070  12.075
45396W        W13790  24.235  10.070  11.104
45397W        W13791  19.604  12.428   2.842
45398W        W13792  39.419   4.136   2.156
45399W        W13793  27.464  36.992  13.798
45400W        W13794  16.482  26.295  11.211
45401W        W13795  41.926  38.351   3.201
45402W        W13796   0.262  39.096   0.844
45403W        W13797  11.418   3.967  12.010
45404W        W13798   7.559  37.792   0.277
45405W        W13799  22.646   3.316   4.034
45406W        W13800  18.085  11.148  12.863
45407W        W13801  41.240  30.500  12.129
45408W        W13802  44.731  43.929   0.682
45409W        W13803   1.271  35.394   4.565
45410W        W13804  25.504  31.122  12.786
45411W        W13805  37.260  12.871  10.199
45412W        W13806  24.381  35.393  12.109
45413W        W13807  42.907  13.079   2.214
45414W        W13808  38.819  19.148   2.728
45415W        W13809  15.595   4.565   1.708
45416W        W13810  41.934   1.707   2.299
45417W        W13811  42.030  39.971   1.127
45418W        W13812   5.184  19.091   3.655
45419W        W13813  18.563   9.060  11.525
45420W        W13814  24.558  39.012  11.973
45421W        W13815   1.033   3.212   2.902
45422W        W13816  34.384   8.369   2.681
45423W        W13817  32.540  32.786  11.727
45424W        W13818  30.240  28.885   1.424
45425W        W13819  16.628   8.112   2.660
45426W        W13820   4.013  35.648   0.440
45427W        W13821  14.717  39.429   2.266
45428W        W13822  10.270  13.587  11.439
45429W        W13823  34.940  18.788   4.213
45430W        W13824  25.703  12.808   4.900
45431W        W13825  18.237   3.428  14.851
45432W        W13826  33.024  34.503  13.625
45433W        W13827   5.962  43.175   1.216
45434W        W13828   7.871  21.532  14.921
45435W        W13829  35.774  37.500   2.810
45436W        W13830   4.330  26.160  10.759
45437W        W13831  19.355  36.375   4.373
45438W        W13832  42.558  40.496  12.095
45439W        W13833  42.904  27.465   3.928
45440W        W13834  12.815  17.983  11.038
45441W        W13835  33.312  32.694   0.406
45442W        W13836  29.555  34.372  11.150
45443W        W13837  39.532   6.736   2.715
45444W        W13838  11.153   6.378  14.880
45445W        W13839  19.903  12.889   3.746
45446W        W13840  15.744   9.326  13.996
45447W        W13841  25.867  34.833  13.615
45448W        W13842  40.245   0.226   3.386
45449W        W13843   1.677   9.120   4.152
45450W        W13844  35.874   1.686  11.151
45451W        W13845  17.233  13.328  14.542
45452W        W13846   0.801  34.290   3.361
45453W        W13847  21.508  25.695   0.835
45454W        W13848  33.161  21.104  12.876
45455W        W13849  10.447  42.932   3.138
45456W        W13850   6.416  22.447   3.508
45457W        W13851   4.758  24.629   0.408
45458W        W13852   1.053   2.888  13.658
45459W        W13853  11.565  20.613  13.548
45460W        W13854  34.295   6.688  12.189
45461W        W13855  25.662  40.434  11.146
45462W        W13856   3.800  23.705  12.491
45463W        W13857   5.942  13.271   2.692
45464W        W13858  31.482  40.909  11.506
45465W        W13859   9.016   4.900  14.392
45466W        W13860  11.716   4.757   1.348
45467W        W13861  19.801  41.634  12.403
45468W        W13862   1.725   3.031  10.963
45469W        W13863   6.238   0.523   1.234
45470W        W13864  10.243  37.571   0.632
45471W        W13865   1.364   3.947  13.732
45472W        W13866  35.144  42.639   3.054
45473W        W13867  20.227  10.736  10.663
45474W        W13868  31.156  42.593   3.693
45475W        W13869   8.632  21.743  10.414
45476W        W13870  17.538  38.285  10.867
45477W        W13871  18.324   2.727  11.277
45478W        W13872  25.916  11.827  11.037
45479W        W13873  14.348  19.535  11.517
45480W        W13874   6.257  12.110   2.921
45481W        W13875   2.445  28.796  14.518
45482W        W13876   4.716  27.117   0.309
45483W        W13877  13.331  17.717   1.386
45484W        W13878  17.068  21.640  12.851
45485W        W13879  18.344  18.100  10.702
45486W        W13880  12.746  42.686   2.859
45487W        W13881  18.564  18.143   2.275
45488W        W13882  20.834  17.781   2.710
45489W        W13883  33.712  10.369   1.204
45490W        W13884  18.090  14.228  13.068
45491W        W13885  32.867  24.632  11.045
45492W        W13886   1.434  25.564  13.382
45493W        W13887  34.911  35.468  14.233
45494W        W13888  28.627  41.589   2.341
45495W        W13889  20.985  40.774  14.411
45496W        W13890  14.793  42.860   1.889
45497W        W13891  41.372  42.515  13.158
45498W        W13892   4.777   3.641   2.264
45499W        W13893  25.044   8.187   4.393
45500W        W13894  24.702  18.203   0.744
45501W        W13895  11.549  26.551   0.230
45502W        W13896  12.637  31.877   2.150
45503W        W13897  36.839  26.488  10.694
45504W        W13898  21.512  34.393   2.884
45505W        W13899  14.671  27.664  12.171
45506W        W13900  35.957  37.442   0.032
45507W        W13901   5.256  32.509   1.132
45508W        W13902  17.612  37.371  13.143
45509W        W13903   1.195   1.273   3.668
45510W        W13904   5.277   6.606  12.362
45511W        W13905  26.177  23.602   1.395
45512W        W13906  39.448  18.378   3.762
45513W        W13907  44.368  10.897  10.989
45514W        W13908  15.626  12.354  12.073
45515W        W13909  21.701   0.646   3.290
45516W        W13910  31.026   8.706   0.353
45517W        W13911  36.987  30.962   3.240
45518W        W13912  37.484  18.004  12.076
45519W        W13913   3.022   6.152  14.305
45520W        W13914  22.186   2.376   4.593
45521W        W13915  14.805  26.161   3.229
45522W        W13916  21.529  36.905  12.521
45523W        W13917   2.032  23.668  14.926
45524W        W13918  40.991  10.664   1.938
45525W        W13919   5.646   4.817   3.403
45526W        W13920  15.882  31.143  10.647
45527W        W13921  11.552  34.783  13.550
45528W        W13922  33.478  12.352   3.773
45529W        W13923   2.968  24.298   0.841
45530W        W13924  21.728  29.837  12.890
45531W        W13925  31.458  35.386   3.462
45532W        W13926  33.993  22.997   5.203
45533W        W13927  27.900   4.827   0.205
45534W        W13928  10.575   4.763  14.312
45535W        W13929  43.771  33.535   2.286
45536W        W13930  42.786   5.279   2.308
45537W        W13931  21.604  13.633   1.693
45538W        W13932  28.690   5.225  12.543
45539W        W13933  21.180  10.907   3.686
45540W        W13934  16.334  37.183   3.810
45541W        W13935  33.371  36.857  13.880
45542W        W13936   2.488  36.677  12.901
45543W        W13937   1.214  16.556  13.609
45544W        W13938  31.846  31.467  13.591
45545W        W13939  25.544  23.277   1.907
45546W        W13940  25.385  38.414   4.616
45547W        W13941  40.866  37.326  12.511
45548W        W13942  14.432   4.687   9.857
45549W        W13943  43.690  36.999   0.561
45550W        W13944  26.226  36.427   1.876
45551W        W13945  22.070  25.487   1.337
45552W        W13946   9.168  20.019  11.141
45553W        W13947   9.600  22.642  13.928
45554W        W13948  26.933   7.779  14.649
45555W        W13949  37.298  34.135   1.936
45556W        W13950   6.213  22.006   3.300
45557W        W13951  37.498  21.774  11.572
45558W        W13952  16.728  10.882   3.179
45559W        W13953  22.835  30.869   5.025
45560W        W13954  44.972  37.070  14.360
45561W        W13955   3.443   1.419  10.726
45562W        W13956  30.542  22.905  12.098
45563W        W13957   1.938  22.959  13.774
45564W        W13958   5.304  33.448  14.153
45565W        W13959  44.174  40.988   0.532
45566W        W13960  21.615  41.971   3.426
45567W        W13961  22.548   6.826   0.518
45568W        W13962  21.206  23.520  14.521
45569W        W13963  36.896  10.376  11.631
45570W        W13964  30.149  37.122   0.142
45571W        W13965  31.182  41.378  11.550
45572W        W13966  42.468   0.451  13.035
45573W        W13967  17.479   2.775  14.999
45574W        W13968  18.789  36.199   0.333
45575W        W13969  13.459  28.401  10.238
45576W        W13970   7.367  33.180  13.841
45577W        W13971  12.606  42.024   3.717
45578W        W13972  27.931  26.673   0.890
45579W        W13973  11.369   7.656   3.644
45580W        W13974  28.539  32.497  11.762
45581W        W13975   0.044  43.898  11.380
45582W        W13976   0.352   9.891   3.540
45583W        W13977  32.513   0.725   0.000
45584W        W13978  11.635  31.907  13.567
45585W        W13979   7.213  29.545   3.736
45586W        W13980  41.462  29.988  10.734
45587W        W13981   4.436  23.475   1.317
45588W        W13982   8.605  41.281  13.691
45589W        W13983  23.204  18.768  13.436
45590W        W13984   2.075  39.884   1.894
45591W        W13985  28.582  15.853  13.462
45592W        W13986  27.086   6.700   4.124
45593W        W13987  42.317  28.671  12.891
45594W        W13988   8.782  28.296  10.732
45595W        W13989  38.775  14.237   0.364
45596W        W13990  18.766  31.573  13.093
45597W        W13991  44.976   7.799   0.959
45598W        W13992  22.835   0.407  12.987
45599W        W13993   7.542  19.147  11.492
45600W        W13994   2.660  27.695   0.406
45601W        W13995   8.140   1.436  14.740
45602W        W13996  26.442   3.225  14.043
45603W        W13997  19.292  29.443   5.455
45604W        W13998  33.398  35.547  11.544
45605W        W13999  44.306  12.344  14.438
45606W        W14000   5.759  19.238  11.344
45607W        W14001  10.307  35.278   4.891
45608W        W14002   4.167  42.630   3.657
45609W        W14003  38.977  25.164  10.665
45610W        W14004  32.190   0.446   4.255
45611W        W14005  37.367  14.521   5.053
45612W        W14006  26.936  42.676  13.606
45613W        W14007   8.706   3.894  11.997
45614W        W14008  24.309  19.586   3.195
45615W        W14009  21.262  36.134   1.806
45616W        W14010  28.205   3.661  11.979
45617W        W14011   0.749  30.558   4.142
45618W        W14012  38.596   0.236   1.398
45619W        W14013  14.080  43.443  12.039
45620W        W14014   0.870   1.312   0.413
45621W        W14015  21.984  34.377  12.993
45622W        W14016   2.749   1.804  14.265
45623W        W14017  38.737  11.237   1.251
45624W        W14018   8.660  31.574  11.302
45625W        W14019   9.732   0.145  11.353
45626W        W14020  30.189  31.430   0.534
45627W        W14021  24.092  26.223   1.574
45628W        W14022   1.833  20.548  13.702
45629W        W14023  15.723  14.840  10.603
45630W        W14024  14.423  28.150  14.314
45631W        W14025   8.199  16.970  12.251
45632W        W14026  36.467   3.699   0.767
45633W        W14027  10.890  20.572   2.828
45634W        W14028  39.759  14.295   2.171
45635W        W14029  42.442  34.653  10.901
45636W        W14030  25.155  24.539   2.238
45637W        W14031  21.647  23.873   3.742
45638W        W14032  38.046   7.557   0.552
45639W        W14033  18.195  24.559   3.376
45640W        W14034  10.095  26.728  12.617
45641W        W14035  40.509  20.817  14.851
45642W        W14036  30.976   6.906   3.518
45643W        W14037  29.481  21.340   3.182
45644W        W14038  30.310  26.008   2.699
45645W        W14039   9.833  25.582   1.161
45646W        W14040  12.116  12.948  12.087
45647W        W14041   9.647   4.885   1.152
45648W        W14042   9.015   3.464  11.857
45649W        W14043  25.256   0.336   1.940
45650W        W14044  38.404  11.615   0.326
45651W        W14045  20.795  16.551  11.142
45652W        W14046   2.324  36.622   0.029
45653W        W14047  26.629  13.448   2.709
45654W        W14048  38.137  29.605   2.124
45655W        W14049  11.831  26.987   0.400
45656W        W14050  39.037  19.615   1.543
45657W        W14051  32.621   1.991  11.729
45658W        W14052  29.358  26.051   1.889
45659W        W14053  35.110  16.974  10.690
45660W        W14054   7.623  16.350   3.741
45661W        W14055  36.896  10.164   0.429
45662W        W14056  35.605  10.780  14.359
45663W        W14057  13.506   5.664   4.080
45664W        W14058  15.559  27.958  11.960
45665W        W14059   8.215  37.571  13.030
45666W        W14060  40.281   2.923   1.749
45667W        W14061  43.496  30.591  14.993
45668W        W14062  14.154  24.680   1.337
45669W        W14063  19.253  41.778  13.477
45670W        W14064  25.044  16.582   2.849
45671W        W14065  15.316   9.752   2.225
45672W        W14066  28.024  35.045   2.939
45673W        W14067  23.834  27.890   0.340
45674W        W14068  36.673  42.298   1.661
45675W        W14069  18.844  30.113  12.009
45676W        W14070  31.694   3.860   2.465
45677W        W14071  38.479  26.208   1.316
45678W        W14072   2.875  36.419   0.712
45679W        W14073  28.705  36.486  13.020
45680W        W14074  25.420   0.191   5.351
45681W        W14075  26.663   8.414  11.527
45682W        W14076  37.869  25.687   1.945
45683W        W14077  19.941  21.645  10.851
45684W        W14078  10.616  44.337   3.397
45685W        W14079  32.882   3.676   1.242
45686W        W14080  10.259  20.884  12.224
45687W        W14081  11.748  37.079  10.829
45688W        W14082  25.417  13.600   3.915
45689W        W14083  34.189  42.422   2.649
45690W        W14084  20.068  43.892   0.495
45691W        W14085  12.844   9.732  14.084
45692W        W14086  12.189  42.907   4.701
45693W        W14087  10.259  33.521  13.223
45694W        W14088  40.831  28.278  13.706
45695W        W14089  35.552  33.793  11.213
45696W        W14090   7.347  33.848  14.535
45697W        W14091  24.578  29.188  10.670
45698W        W14092  32.114  35.927   0.445
45699W        W14093  35.193   2.814   0.324
45700W        W14094  18.382  21.434  14.504
45701W        W14095   4.459  10.152  10.545
45702W        W14096  35.521   8.600  14.766
45703W        W14097   3.227  15.912   0.781
45704W        W14098  28.925  10.452  13.796
45705W        W14099  39.256  23.453  10.780
45706W        W14100  33.483  11.499   5.093
45707W        W14101   7.292  17.601   0.228
45708W        W14102  29.683  33.778  14.423
45709W        W14103  13.134  24.764   1.281
45710W        W14104  26.515  19.067   3.088
45711W        W14105  31.514  41.046   3.235
45712W        W14106  28.657  22.950  14.892
45713W        W14107   6.245  31.657   0.260
45714W        W14108  22.734  44.248   2.737
45715W        W14109  10.241   5.991  14.726
45716W        W14110  19.021  43.775   1.488
45717W        W14111  29.351  35.165   4.766
45718W        W14112  20.495  37.652   2.252
45719W        W14113   3.795  12.191  10.253
45720W        W14114  14.106  29.126  12.321
45721W        W14115  22.877   7.838   2.378
45722W        W14116  36.473   1.481   1.900
45723W        W14117  40.602  24.024   0.195
45724W        W14118  13.008   2.852   2.755
45725W        W14119  21.972  26.271   3.443
45726W        W14120   4.869   4.500   2.242
45727W        W14121  14.996  18.603  14.842
45728W        W14122  23.923  26.623  12.075
45729W        W14123  27.497   1.930   5.420
45730W        W14124   4.149  44.285   2.715
45731W        W14125  24.891  21.989   0.603
45732W        W14126  29.464  40.119  12.812
45733W        W14127   5.290  43.242   0.412
45734W        W14128   3.489  29.207  13.330
45735W        W14129  11.634  29.430  13.481
45736W        W14130  43.749  16.334  14.770
45737W        W14131  19.971   1.464   4.365
45738W        W14132  12.735  25.012   2.211
45739W        W14133  25.128  31.215   4.025
45740W        W14134  33.440  34.603  10.567
45741W        W14135  11.104  14.505   1.289
45742W        W14136  38.514  41.289  14.301
45743W        W14137  10.772  35.056   0.376
45744W        W14138  15.576   0.973   0.675
45745W        W14139  44.758  32.046  14.078
45746W        W14140  28.961  36.941   0.727
45747W        W14141   2.784  24.189  12.183
45748W        W14142  35.268  13.800  10.716
45749W        W14143  41.317  30.932   2.975
45750W        W14144  21.738  14.719  11.064
45751W        W14145   1.143  37.993   5.027
45752W        W14146   4.738  18.296  12.929
45753W        W14147  26.242  25.916  12.786
45754W        W14148  19.324  17.192  12.888
45755W        W14149   5.263  44.738   2.867
45756W        W14150  39.980  39.830  14.506
45757W        W14151  14.450   5.911   3.748
45758W        W14152  13.841  44.998   1.405
45759W        W14153  12.707  34.480   0.469
45760W        W14154  39.503  18.264  13.934
45761W        W14155  21.112  28.556  13.036
45762W        W14156  10.183  29.679  13.043
45763W        W14157  22.425  21.595  11.043
45764W        W14158  29.450  21.990  14.343
45765W        W14159  16.263  16.122  11.655
45766W        W14160  34.768  35.531   3.078
45767W        W14161   8.487  27.019  11.120
45768W        W14162  35.671  26.658  14.872
45769W        W14163  43.412  37.901  13.337
45770W        W14164  27.879  21.739  11.972
45771W        W14165   6.878   5.835  14.402
45772W        W14166  31.036  40.064   1.015
45773W        W14167   0.505  35.352   1.267
45774W        W14168  26.650  26.073   4.344
45775W        W14169   5.687  16.253   0.567
45776W        W14170  32.672  24.988  12.958
45777W        W14171  19.253  44.118   1.776
45778W        W14172  20.070   9.182  10.645
45779W        W14173  21.308  19.380   4.518
45780W        W14174  31.884  43.447  11.285
45781W        W14175  19.360  36.823   3.175
45782W        W14176   4.161   1.471  10.654
45783W        W14177  31.095   7.320   0.455
45784W        W14178  36.410  14.156   2.125
45785W        W14179  38.196   9.901  13.907
45786W        W14180  40.246  10.488   3.589
45787W        W14181  41.428   7.768  11.405
45788W        W14182  37.791  27.924  12.792
45789W        W14183  21.636   9.660  12.889
45790W        W14184  33.132   4.228   2.760
45791W        W14185   6.699   3.184   0.299
45792W        W14186  12.347  38.537   0.401
45793W        W14187   5.666  30.371   0.626
45794W        W14188  23.246  13.832  11.161
45795W        W14189  35.099   1.918   2.241
45796W        W14190  32.379  10.753   1.201
45797W        W14191   8.339  12.877   4.057
45798W        W14192  10.051   4.612  12.789
45799W        W14193  33.911   2.558  12.911
45800W        W14194  30.035  18.842   0.801
45801W        W14195  26.763  13.253   5.063
45802W        W14196   7.577  27.104   0.645
45803W        W14197  27.107  16.782  12.154
45804W        W14198  22.227  38.540  11.177
45805W        W14199  44.688  16.226   1.224
45806W        W14200  13.203   8.018  14.068
45807W        W14201  23.515  24.354  14.924
45808W        W14202  12.325  42.415   4.591
45809W        W14203   2.455  15.919   1.051
45810W        W14204  35.610  32.934   1.466
45811W        W14205  16.161   8.200  11.717
45812W        W14206  39.380   7.967  11.014
45813W        W14207  16.056  41.959   3.620
45814W        W14208  16.302  25.785   1.939
45815W        W14209   4.817  26.453   4.392
45816W        W14210  27.525  19.522  14.823
45817W        W14211  21.100   4.415   1.816
45818W        W14212  23.098  28.790  13.484
45819W        W14213  35.492   1.277   4.039
45820W        W14214  13.693  41.411   3.188
45821W        W14215  28.408  39.536   2.102
45822W        W14216  15.085  27.506  12.435
45823W        W14217   2.053  42.192   4.130
45824W        W14218  16.794   3.512   4.110
45825W        W14219  19.194  40.138  10.377
45826W        W14220   5.029  29.122   4.859
45827W        W14221   1.403  41.530   1.544
45828W        W14222  42.948   2.789  13.086
45829W        W14223  33.455  15.315   2.362
45830W        W14224   1.406   2.544  13.436
45831W        W14225   8.023  43.095   4.171
45832W        W14226  15.753  16.256  10.745
45833W        W14227  32.170  43.560   0.315
45834W        W14228  11.147  38.871  12.802
45835W        W14229  29.073  23.951  10.493
45836W        W14230  29.003   5.180   0.812
45837W        W14231   8.644  37.252  13.133
45838W        W14232  28.080  11.279   3.194
45839W        W14233  31.536  26.614   1.810
45840W        W14234   3.388  18.817  12.488
45841W        W14235  37.126  36.824  13.988
45842W        W14236  17.446  41.460  14.955
45843W        W14237   9.697  36.005   4.424
45844W        W14238   0.415  19.380  10.757
45845W        W14239  17.543  29.940   0.009
45846W        W14240  41.320  25.840   0.793
45847W        W14241  11.919   5.218  14.496
45848W        W14242  39.754  21.452   2.751
45849W        W14243  13.358   7.472  11.430
45850W        W14244  31.248   4.225   3.507
45851W        W14245   3.705  43.191  14.461
45852W        W14246  12.489  12.741  14.068
45853W        W14247  39.536  34.625  14.880
45854W        W14248  43.085  36.329   5.353
45855W        W14249   5.432  35.282  11.137
45856W        W14250  18.883  32.498   3.072
45857W        W14251  20.655  16.155   5.094
45858W        W14252  31.070  32.923   3.317
45859W        W14253  35.866  35.114   3.211
45860W        W14254  21.162  15.408   4.032
45861W        W14255  41.192  10.285   3.671
45862W        W14256  32.186   6.143   0.941
45863W        W14257   7.686  15.661   3.219
45864W        W14258   3.309  33.616  13.455
45865W        W14259  14.713  34.693  11.136
45866W        W14260   9.705  27.085  10.683
45867W        W14261  19.661   3.482  12.206
45868W        W14262   2.287   7.259  12.577
45869W        W14263  27.981   9.773   4.245
45870W        W14264  41.776   7.652  12.881
45871W        W14265  39.140  17.339  14.739
45872W        W14266   7.357  11.868  13.816
45873W        W14267  32.219   9.797  14.610
45874W        W14268   6.189  22.071  10.611
45875W        W14269   7.046   0.849  12.047
45876W        W14270  26.113  18.393  13.834
45877W        W14271  21.519  42.562  10.752
45878W        W14272  12.197  43.882   2.589
45879W        W14273  43.703  41.772   1.750
45880W        W14274  37.810   6.277  14.325
45881W        W14275   2.873  16.269   0.890
45882W        W14276  43.275   6.086  11.049
45883W        W14277  28.249  33.921  10.719
45884W        W14278  20.702  21.461   4.246
45885W        W14279  39.292  20.282   0.859
45886W        W14280  37.494  11.809   2.498
45887W        W14281  13.807  36.319   0.777
45888W        W14282  18.127   6.782   4.608
45889W        W14283  28.627  30.981  10.748
45890W        W14284  24.924  15.217   1.397
45891W        W14285  14.427  18.664  12.271
45892W        W14286  33.316  14.346  10.784
45893W        W14287  21.678  29.908  11.995
45894W        W14288  30.125   6.621  14.787
45895W        W14289  31.374  32.233  13.395
45896W        W14290  23.018  23.123   1.191
45897W        W14291  17.226  36.967  11.169
45898W        W14292  29.978  34.563   1.526
45899W        W14293  43.807  10.704   0.439
45900W        W14294  34.205  33.578  11.019
45901W        W14295  35.505  42.959   3.869
45902W        W14296  27.696  27.102   4.032
45903W        W14297  26.169  40.097  13.136
45904W        W14298   3.207  35.676  10.417
45905W        W14299  38.966  21.130   4.816
45906W        W14300  16.175  22.520  11.080
45907W        W14301  40.124  14.621  14.143
45908W        W14302  10.088   3.453   2.653
45909W        W14303   7.154  31.046  13.944
45910W        W14304   0.957   1.397  10.675
45911W        W14305  16.025  33.484  10.620
45912W        W14306  29.451  11.501   1.933
45913W        W14307  15.252   6.801   1.028
45914W        W14308   8.713  11.239   3.743
45915W        W14309  43.327  37.956   3.253
45916W        W14310  23.437  36.170   1.827
45917W        W14311  10.793  37.917  13.644
45918W        W14312  19.859  10.371  14.054
45919W        W14313  38.929  40.802   3.602
45920W        W14314  39.071  34.864  14.944
45921W        W14315   4.447   9.190  14.404
45922W        W14316  36.158  26.667  13.525
45923W        W14317  40.754  10.589  11.224
45924W        W14318  22.508   6.806  14.399
45925W        W14319  28.025  34.365  11.621
45926W        W14320  41.130  22.847   2.703
45927W        W14321  26.124   5.615   2.805
45928W        W14322  22.446  17.070  10.093
45929W        W14323   5.988  41.270   4.497
45930W        W14324  35.949  41.746   3.782
45931W        W14325  15.620  44.069   2.712
45932W        W14326   5.452  38.330  13.454
45933W        W14327   4.163  32.199  11.162
45934W        W14328   6.911  11.215  13.439
45935W        W14329  39.913  19.074  11.490
45936W        W14330   1.752  11.531   0.780
45937W        W14331  42.244  35.054  12.968
45938W        W14332  18.830  16.624   3.356
45939W        W14333   0.298  36.698   0.633
45940W        W14334  13.139  13.378   2.455
45941W        W14335  17.654   0.374  12.958
45942W        W14336  36.453  17.021  10.460
45943W        W14337   7.075  32.198   0.429
45944W        W14338  37.304  42.328  12.964
45945W        W14339  22.850  37.550  11.553
45946W        W14340   7.576  32.108   0.264
45947W        W14341  37.607   9.666   0.837
45948W        W14342  16.053   2.364   4.100
45949W        W14343  13.374  38.616  11.039
45950W        W14344  10.321  17.288   2.058
45951W        W14345  27.652  18.757  13.515
45952W        W14346  33.743  21.853   0.222
45953W        W14347  23.103  22.729  14.302
45954W        W14348  10.395  16.922  13.010
45955W        W14349  19.616  16.705   1.450
45956W        W14350  15.542  26.180  12.646
45957W        W14351  24.784  22.220  14.122
45958W        W14352  32.193  28.966   5.148
45959W        W14353  18.066  38.266  11.158
45960W        W14354  33.943  39.478   1.398
45961W        W14355  22.229  24.623  14.719
45962W        W14356  22.546  14.825  13.859
45963W        W14357  42.811  38.095  12.037
45964W        W14358  11.293   0.478   1.192
45965W        W14359  39.908  11.697  13.428
45966W        W14360  31.625  37.215   1.501
45967W        W14361   9.327  30.918  14.004
45968W        W14362  42.983  28.654  11.065
45969W        W14363  39.929  15.706   3.191
45970W        W14364   8.915  41.402  11.514
45971W        W14365  38.809  13.327   2.366
45972W        W14366   9.683  15.092   4.526
45973W        W14367  27.056   0.925  11.153
45974W        W14368   9.079  32.384  10.210
45975W        W14369  38.688  20.306  11.096
45976W        W14370   6.310  28.072   2.394
45977W        W14371  16.603  25.663   0.486
45978W        W14372   7.807  34.989  12.044
45979W        W14373  44.538  16.923  11.010
45980W        W14374   4.815  17.094  11.653
45981W        W14375  39.922  36.076  11.480
45982W        W14376  17.779  41.845  11.978
45983W        W14377  11.694  13.141   4.598
45984W        W14378  39.898   8.851   3.188
45985W        W14379  31.187  29.178  14.942
45986W        W14380   6.607   9.638  11.120
45987W        W14381  18.068  24.008  11.168
45988W        W14382  23.182  14.177   2.780
45989W        W14383  27.202  26.183  10.529
45990W        W14384   7.365  38.407   4.104
45991W        W14385   6.734  16.629  10.750
45992W        W14386  29.003  26.490  14.995
45993W        W14387  11.303   3.399  11.932
45994W        W14388  21.802   6.497  13.867
45995W        W14389  41.998  25.799   3.076
45996W        W14390  27.068   6.671   2.703
45997W        W14391   4.177  40.285   0.061
45998W        W14392  44.387  11.277   4.634
45999W        W14393  21.215   8.324  11.453
46000W        W14394  18.771   9.868   0.340
46001W        W14395  10.303  30.335  10.787
46002W        W14396  22.908  26.657   3.325
46003W        W14397  35.020  11.296  14.463
46004W        W14398  11.268   5.938  14.037
46005W        W14399  44.802  31.582   3.169
46006W        W14400  18.645  12.340  11.123
46007W        W14401  26.801  10.228  10.055
46008W        W14402  23.626  32.083   2.131
46009W        W14403   7.973  20.821  12.991
46010W        W14404  34.218  26.543  13.112
46011W        W14405  39.930  22.316  14.452
46012W        W14406  29.937  42.174   4.005
46013W        W14407  32.156  29.519  10.564
46014W        W14408  12.768   0.575   0.183
46015W        W14409  26.455  10.328   2.179
46016W        W14410   2.858   2.417  14.024
46017W        W14411  35.106  17.351   4.116
46018W        W14412  24.973   0.463   3.316
46019W        W14413  20.320  29.944  13.925
46020W        W14414  18.375  17.159  13.829
46021W        W14415  31.621  16.768   1.415
46022W        W14416  34.337  40.797  12.847
46023W        W14417  13.050   7.721   1.701
46024W        W14418  30.515  18.243   0.250
46025W        W14419  33.066  13.788  13.854
46026W        W14420  37.451  12.779   3.850
46027W        W14421  40.250  29.146  14.561
46028W        W14422  12.158  44.493  12.009
46029W        W14423   0.016  15.178   1.553
46030W        W14424  41.299   0.021   4.371
46031W        W14425  25.692   8.945  13.396
46032W        W14426  23.343  44.502  13.478
46033W        W14427  41.189  14.549   4.181
46034W        W14428  37.541  26.398   0.966
46035W        W14429  30.521  43.609   3.207
46036W        W14430   5.462  42.641   3.662
46037W        W14431   2.794  29.957  14.940
46038W        W14432  13.871  20.977   1.447
46039W        W14433  30.980  32.016  11.495
46040W        W14434  32.378  26.257  10.663
46041W        W14435  11.756  32.820  12.016
46042W        W14436  36.826  26.113  12.398
46043W        W14437  37.472  36.326  14.344
46044W        W14438  17.786  11.257  10.602
46045W        W14439  29.949   3.642  14.474
46046W        W14440  37.295  25.951   0.224
46047W        W14441  39.310  27.869  11.230
46048W        W14442  25.513  29.419  12.102
46049W        W14443  15.009   6.732  11.596
46050W        W14444  18.334  20.093   2.340
46051W        W14445   0.188  39.894   2.647
46052W        W14446   6.398  26.478   3.143
46053W        W14447  12.829  40.121  14.112
46054W        W14448  34.820  33.014   3.398
46055W        W14449   8.467  21.555   1.766
46056W        W14450  15.340  39.803   0.997
46057W        W14451  31.583  32.896   3.113
46058W        W14452  10.318  40.069   1.319
46059W        W14453   8.596  32.628   0.780
46060W        W14454  33.933  31.142  13.352
46061W        W14455  22.005  36.506   3.340
46062W        W14456  35.383   2.443   0.932
46063W        W14457  19.742  39.760   1.290
46064W        W14458   4.336  34.075   1.340
46065W        W14459  19.231  19.961  11.674
46066W        W14460  34.113  15.351  14.285
46067W        W14461  23.716  16.593   4.627
46068W        W14462  16.313  15.667  11.936
46069W        W14463  22.676  31.177   2.457
46070W        W14464  29.469   3.919   0.991
46071W        W14465  21.545  21.449   2.630
46072W        W14466  36.759  18.834   0.325
46073W        W14467  17.674  15.224  13.920
46074W        W14468  16.835  11.557   2.359
46075W        W14469  26.985  44.637  11.565
46076W        W14470   6.792  23.091   1.393
46077W        W14471  36.111  35.550  11.505
46078W        W14472   7.709   1.224  14.956
46079W        W14473  37.310   8.744   2.943
46080W        W14474   2.791  28.035  12.640
46081W        W14475  23.999  11.707   1.819
46082W        W14476  16.304  12.118  13.923
46083W        W14477  15.030   2.461   3.161
46084W        W14478  36.676  34.087  12.419
46085W        W14479  26.017   2.223   4.176
46086W        W14480  40.791  12.704   1.845
46087W        W14481  41.582  39.392  10.690
46088W        W14482  12.104  11.419  12.531
46089W        W14483  28.539  28.797   4.600
46090W        W14484   5.474   2.898  10.647
46091W        W14485  36.801   8.797   1.126
46092W        W14486  37.412  11.379   1.661
46093W        W14487   2.644  27.944  11.159
46094W        W14488  36.083  11.763  14.712
46095W        W14489  42.283   9.323  12.029
46096W        W14490  10.603  24.721  14.492
46097W        W14491  17.132  27.251   1.289
46098W        W14492  37.761  38.611   1.687
46099W        W14493  21.686   1.972   1.292
46100W        W14494  32.517  39.381  10.978
46101W        W14495  24.810  35.118   4.189
46102W        W14496  44.700   0.893  10.639
46103W        W14497   0.795  16.290  13.914
46104W        W14498  14.765  28.476  10.475
46105W        W14499  18.683  14.753   1.724
46106W        W14500  15.773  28.374   0.023
46107W        W14501  25.428  30.747  14.389
46108W        W14502  34.835  14.765  14.544
46109W        W14503  25.101  43.738  13.392
46110W        W14504  30.403   9.298  12.472
46111W        W14505  30.178  34.479  12.534
46112W        W14506  40.997   9.640   4.085
46113W        W14507  41.954  24.542   4.602
46114W        W14508  18.321  16.743   4.489
46115W        W14509   9.604   5.333   9.804
46116W        W14510  11.577  13.949   1.909
46117W        W14511   4.192  28.513  11.952
46118W        W14512  21.757  24.057  14.486
46119W        W14513  24.988  29.096   3.307
46120W        W14514  15.985  22.657   4.039
46121W        W14515   8.518  16.661   3.394
46122W        W14516  44.783   0.998   1.968
46123W        W14517   6.443  35.041  12.686
46124W        W14518  11.415   1.501  12.126
46125W        W14519  40.455  31.932   2.393
46126W        W14520   4.870   0.835   4.174
46127W        W14521   8.386  29.394  11.466
46128W        W14522  32.030  15.915  10.059
46129W        W14523  18.094  37.645   4.119
46130W        W14524  36.302  28.170   2.129
46131W        W14525   1.977  40.996   0.637
46132W        W14526  31.153  21.367   1.713
46133W        W14527   7.660  30.482  13.823
46134W        W14528  18.502  16.255   0.894
46135W        W14529  40.195  15.209  13.710
46136W        W14530   9.073  33.563  14.553
46137W        W14531  23.985  43.712  11.539
46138W        W14532   4.121  36.072   1.344
46139W        W14533  12.690  14.498  12.388
46140W        W14534  32.634  35.141  11.591
46141W        W14535  17.216  15.678  12.745
46142W        W14536  31.356   2.426   0.261
46143W        W14537  39.124  15.021   4.681
46144W        W14538   1.761  31.516   3.368
46145W        W14539  36.479  17.729   3.877
46146W        W14540   8.272  38.919   4.542
46147W        W14541  32.444  38.310  13.875
46148W        W14542  16.281  19.043  14.739
46149W        W14543   2.967   6.310   4.052
46150W        W14544  22.604   2.291  13.470
46151W        W14545   6.314  36.512   3.668
46152W        W14546  36.837  20.641   4.398
46153W        W14547  11.002  17.255   4.349
46154W        W14548  11.185  23.062  13.871
46155W        W14549  23.570   3.001   3.130
46156W        W14550  11.461  20.183  14.024
46157W        W14551   0.832  41.425   0.941
46158W        W14552  39.544  21.992   2.339
46159W        W14553   9.239  11.917  11.458
46160W        W14554  16.976  21.313  10.217
46161W        W14555  18.131  40.780   1.857
46162W        W14556  31.271  33.063  14.204
46163W        W14557  43.995  37.510   1.326
46164W        W14558  17.292  32.210   2.236
46165W        W14559  32.673  17.965   3.094
46166W        W14560  18.867  43.355   4.930
46167W        W14561  33.720  15.415   3.389
46168W        W14562  23.532  34.494  12.619
46169W        W14563   8.225  44.273   2.707
46170W        W14564  19.057  12.540   0.403
46171W        W14565  31.159  17.716  13.009
46172W        W14566  10.694   9.938   3.889
46173W        W14567  43.741  25.067   3.092
46174W        W14568  37.363  18.067  14.092
46175W        W14569  10.388  14.086  13.532
46176W        W14570  25.933  13.240   4.633
46177W        W14571  23.820  44.015  10.568
46178W        W14572  19.136  31.704   4.209
46179W        W14573  15.481  40.276  10.359
46180W        W14574  30.184  41.170  13.812
46181W        W14575  15.626  35.000  11.010
46182W        W14576   4.937  21.572  11.460
46183W        W14577   0.305  26.271  10.874
46184W        W14578  22.925  37.358  13.239
46185W        W14579   5.005  18.658  14.865
46186W        W14580  29.050  39.625   1.360
46187W        W14581  20.063  33.538   4.582
46188W        W14582  20.486  37.369  14.513
46189W        W14583   4.791  39.385   2.296
46190W        W14584  41.936  34.344   1.904
46191W        W14585  11.529  39.590   4.114
46192W        W14586   4.349  40.793  14.265
46193W        W14587   5.359  10.788   2.275
46194W        W14588  42.415  39.408  11.935
46195W        W14589   8.249  42.312   2.208
46196W        W14590  28.963   1.679   0.756
46197W        W14591  36.137   7.878   5.070
46198W        W14592  32.451   3.810   1.505
46199W        W14593  40.552  21.803   0.787
46200W        W14594   5.325  26.815   3.612
46201W        W14595  39.008  11.451  10.753
46202W        W14596  24.791  35.989   4.387
46203W        W14597  12.371  40.294  14.305
46204W        W14598  36.640  44.429  11.979
46205W        W14599  43.597  23.706  10.501
46206W        W14600  31.966  23.510  14.169
46207W        W14601  13.606  30.910   1.714
46208W        W14602   8.458  42.529   1.749
46209W        W14603  14.809  15.264   0.224
46210W        W14604  20.994  23.958   3.347
46211W        W14605  25.346  26.736   3.382
46212W        W14606  23.440  37.448  14.439
46213W        W14607  10.126   9.163  12.990
46214W        W14608  32.401   1.687   3.937
46215W        W14609  27.684  22.935  12.859
46216W        W14610  18.552  31.393   4.947
46217W        W14611  11.172  24.742  14.314
46218W        W14612  41.125  20.565  10.576
46219W        W14613  22.997   2.855   1.228
46220W        W14614  16.245  27.576   0.301
46221W        W14615   8.829  11.973   2.159
46222W        W14616  32.877  38.984  12.124
46223W        W14617  21.268  21.481   2.195
46224W        W14618  23.774  20.205   3.885
46225W        W14619  13.129  20.321  14.958
46226W        W14620  19.421  40.234  11.653
46227W        W14621  27.284  10.168  14.817
46228W        W14622  40.242   0.089  12.166
46229W        W14623  22.719  21.858   1.844
46230W        W14624  39.271  13.314   2.131
46231W        W14625  27.545  23.223   2.793
46232W        W14626  11.579  25.488  12.973
46233W        W14627  35.457  26.725   2.209
46234W        W14628  27.917  29.471   4.520
46235W        W14629  34.498  40.345   3.648
46236W        W14630  20.635  23.962   0.964
46237W        W14631  36.285  15.118   4.226
46238W        W14632  32.384   7.591  12.909
46239W        W14633  41.572  43.340   0.484
46240W        W14634  30.905  17.124   3.913
46241W        W14635  14.430  13.085  13.579
46242W        W14636  13.733  12.798  11.760
46243W        W14637  11.199   8.496  10.467
46244W        W14638  24.719  35.053  11.874
46245W        W14639  34.504   4.824  14.749
46246W        W14640  10.694  39.730  14.833
46247W        W14641  41.450  29.170  11.192
46248W        W14642  35.913  33.082   0.930
46249W        W14643  29.549  34.875  11.233
46250W        W14644  44.115   5.684  10.611
46251W        W14645   6.162  26.106   2.338
46252W        W14646  18.045  20.236   3.727
46253W        W14647  43.361  17.282   4.718
46254W        W14648  36.810  11.394  14.502
46255W        W14649  35.431  43.992  13.875
46256W        W14650  13.058  12.264  13.531
46257W        W14651  31.326  33.505   4.867
46258W        W14652  42.347  32.118   0.945
46259W        W14653   1.155  12.152  10.014
46260W        W14654  13.867  33.347  13.339
46261W        W14655   1.014  18.790   1.351
46262W        W14656  31.616  29.314   4.860
46263W        W14657  15.945  15.214   1.259
46264W        W14658   5.433  41.675   0.124
46265W        W14659  23.667  33.091  11.866
46266W        W14660  21.075  12.613  13.417
46267W        W14661  12.759  33.451  12.038
46268W        W14662  22.459  44.468   4.560
46269W        W14663  22.107  12.284   4.323
46270W        W14664  39.325  20.997  11.297
46271W        W14665   4.337  10.393  13.441
46272W        W14666  37.751   9.797   2.271
46273W        W14667  13.112   5.172  11.009
46274W        W14668  38.546  16.681  11.602
46275W        W14669  39.303  19.091   0.372
46276W        W14670  28.472  30.022  13.632
46277W        W14671   5.090   6.283   5.088
46278W        W14672  16.427   8.411  12.095
46279W        W14673  16.627  31.058   0.424
46280W        W14674   3.635   7.185  14.869
46281W        W14675  13.842  40.327  11.168
46282W        W14676  31.242  44.991   0.364
46283W        W14677  14.631   2.292   4.354
46284W        W14678   0.569  37.362   2.385
46285W        W14679  24.911   0.565  11.654
46286W        W14680  33.432   8.984  11.735
46287W        W14681   5.750  34.095  10.723
46288W        W14682  28.108   6.820  10.810
46289W        W14683  12.148  23.625  13.869
46290W        W14684  36.432  44.651   5.006
46291W        W14685   4.062  16.801  13.576
46292W        W14686   9.881  22.784   3.080
46293W        W14687  39.774   7.324  14.917
46294W        W14688  38.426  43.048   0.085
46295W        W14689  23.273  34.905  14.764
46296W        W14690  16.204  22.129  14.912
46297W        W14691   9.210  38.869  13.994
46298W        W14692  30.248  30.547  13.971
46299W        W14693   5.793  42.235  13.460
46300W        W14694  40.326  44.450   2.710
46301W        W14695  33.186  11.362  11.591
46302W        W14696  13.782  28.087  11.927
46303W        W14697  28.504   2.840   1.238
46304W        W14698  34.102  20.809  13.041
46305W        W14699  38.651   8.220   4.205
46306W        W14700   8.733  25.504  13.007
46307W        W14701  31.969  27.263   4.040
46308W        W14702  34.093  37.898   0.011
46309W        W14703  33.483  43.263   0.233
46310W        W14704   4.802  35.380  11.220
46311W        W14705   2.949  37.448  10.688
46312W        W14706   4.405   7.542  10.726
46313W        W14707  13.057  38.790  12.442
46314W        W14708   8.041  11.954  12.952
46315W        W14709  35.648  19.457  13.636
46316W        W14710   9.175  26.557  10.744
46317W        W14711  12.374   2.898   1.668
46318W        W14712  33.603  30.041   2.912
46319W        W14713  41.850  13.707  14.536
46320W        W14714   2.849  37.723   0.777
46321W        W14715  20.628  13.489   4.881
46322W        W14716  41.509  21.141  11.913
46323W        W14717  12.339  16.676   1.048
46324W        W14718   7.891  30.083  11.211
46325W        W14719  13.656   3.214   0.477
46326W        W14720  21.473  32.293  13.450
46327W        W14721   5.760  21.605   0.334
46328W        W14722   9.159  37.328   2.366
46329W        W14723  25.760  38.232  12.647
46330W        W14724  18.318  18.089  12.863
46331W        W14725  29.589  43.536  14.525
46332W        W14726  33.950   0.388   1.668
46333W        W14727  16.585  12.251  14.359
46334W        W14728  34.090  22.891   4.203
46335W        W14729  10.210  36.620  10.858
46336W        W14730  44.377  30.019   2.324
46337W        W14731  26.142  38.508   1.785
46338W        W14732  39.842  29.963  14.425
46339W        W14733  23.076  29.681   0.429
46340W        W14734  36.378   9.978   1.205
46341W        W14735  26.680  41.065  12.030
46342W        W14736   0.954  39.427   1.815
46343W        W14737  12.923  23.699  11.087
46344W        W14738   2.349   4.648   3.322
46345W        W14739   4.294  27.963  12.579
46346W        W14740  35.137  34.105   3.316
46347W        W14741  20.744  15.601  11.448
46348W        W14742  24.241  35.534   1.282
46349W        W14743  19.000  37.553   2.534
46350W        W14744  18.597  26.922   1.808
46351W        W14745   8.745  14.125  12.188
46352W        W14746  17.462  30.376  12.208
46353W        W14747  35.033  21.175   5.198
46354W        W14748  22.211  22.974   4.549
46355W        W14749  23.680  34.475   2.678
46356W        W14750   3.546  30.976  12.974
46357W        W14751  44.548   1.665  11.603
46358W        W14752  10.610   4.891   0.225
46359W        W14753  21.742   2.725  12.050
46360W        W14754  35.601  18.691  11.565
46361W        W14755  15.167  12.600   0.323
46362W        W14756  18.786   2.311  13.790
46363W        W14757  33.590  22.482   2.206
46364W        W14758  40.763  34.195  10.735
46365W        W14759  10.377   0.929   3.062
46366W        W14760  33.474  25.990  11.981
46367W        W14761  23.094  37.619   4.835
46368W        W14762  31.907   0.463   0.234
46369W        W14763  36.980   2.687   2.103
46370W        W14764  15.716  42.087   0.326
46371W        W14765  14.285  10.671   2.926
46372W        W14766  15.809  44.720   1.345
46373W        W14767  32.878   5.131  11.588
46374W        W14768  34.015  11.596  13.660
46375W        W14769  38.769   6.163   3.086
46376W        W14770  27.460  41.959  13.036
46377W        W14771  30.407  18.714   0.458
46378W        W14772  26.020  10.984  14.368
46379W        W14773   0.269  35.971  14.895
46380W        W14774  24.261  32.795   1.008
46381W        W14775   1.833  22.492   2.806
46382W        W14776  38.638  33.884  14.367
46383W        W14777  27.202  21.542   3.025
46384W        W14778  32.896   2.914  10.670
46385W        W14779  30.050  43.027   1.832
46386W        W14780   1.242  20.877   1.295
46387W        W14781   9.663  40.088  13.419
46388W        W14782  40.217  29.467   3.053
46389W        W14783  26.714   8.628  13.820
46390W        W14784  31.623  40.115   1.724
46391W        W14785  38.522  38.746   0.929
46392W        W14786   4.467  14.875  12.072
46393W        W14787  18.740  43.080  12.304
46394W        W14788  32.338  36.811   4.137
46395W        W14789  23.455  26.701  13.318
46396W        W14790  37.793   6.864   2.446
46397W        W14791   9.606  21.479  10.593
46398W        W14792  28.829   8.697   4.346
46399W        W14793  13.658  43.607  11.785
46400W        W14794   8.725  34.096   4.138
46401W        W14795  12.200  41.823   1.461
46402W        W14796  28.941  13.913   2.130
46403W        W14797  10.814   7.255   0.745
46404W        W14798  17.050   6.830  13.399
46405W        W14799  21.153   7.678   2.881
46406W        W14800  13.824  21.129  12.083
46407W        W14801  12.659  23.749   4.549
46408W        W14802  23.350   4.695  11.179
46409W        W14803   8.851  36.919  13.459
46410W        W14804  26.000  40.376   3.359
46411W        W14805  27.905   0.882   0.846
46412W        W14806  32.882  27.148  14.097
46413W        W14807  41.022  23.070  14.006
46414W        W14808  44.376  39.759  14.350
46415W        W14809  14.500  29.441  10.792
46416W        W14810  38.799  23.514  12.029
46417W        W14811  24.708  33.729  14.469
46418W        W14812  21.625  18.528  11.887
46419W        W14813  13.424  44.305   3.774
46420W        W14814  16.165  15.208  14.989
46421W        W14815  36.022  15.703   4.011
46422W        W14816  36.069  35.059  12.444
46423W        W14817  28.219  33.814   4.505
46424W        W14818  34.395   5.328  14.769
46425W        W14819   2.936  32.916  13.484
46426W        W14820   7.376   8.472   0.314
46427W        W14821  38.888  10.415  14.391
46428W        W14822  42.783  12.250  12.929
46429W        W14823  19.471  11.825   0.853
46430W        W14824   5.340  28.637   0.921
46431W        W14825  43.419  22.850   4.627
46432W        W14826   7.253  28.016  14.527
46433W        W14827  34.208  29.164   1.936
46434W        W14828   1.910   7.739  14.525
46435W        W14829  15.715  21.161  11.144
46436W        W14830   6.909   6.654   3.077
46437W        W14831  12.233   1.801   2.132
46438W        W14832  10.804  11.440  11.071
46439W        W14833  11.718  22.532  13.130
46440W        W14834  24.060   2.374  14.365
46441W        W14835  12.284  44.891  13.321
46442W        W14836  18.828  21.269   3.290
46443W        W14837   9.323  39.447   3.906
46444W        W14838  19.128  24.939  14.006
46445W        W14839  15.245  18.506   1.312
46446W        W14840   5.747  31.644  13.063
46447W        W14841  41.029  16.023  13.489
46448W        W14842  12.226  15.599  13.086
46449W        W14843  20.772  33.527  12.947
46450W        W14844  26.128  35.066  13.990
46451W        W14845  31.171   7.797  14.230
46452W        W14846  42.843  43.988   1.324
46453W        W14847  15.363  35.365   3.150
46454W        W14848  44.448  15.303  13.953
46455W        W14849  10.662  44.462  14.410
46456W        W14850  43.314  22.506  12.229
46457W        W14851  18.579  19.293  10.275
46458W        W14852  43.862  11.703  10.961
46459W        W14853   0.947  25.989   2.872
46460W        W14854  42.814   1.088  11.563
46461W        W14855  14.693   0.422   3.730
46462W        W14856   9.293  10.181  13.023
46463W        W14857  23.979  29.066  14.791
46464W        W14858   2.421  28.913   1.566
46465W        W14859  15.577  28.954  10.620
46466W        W14860  41.860  20.981  12.985
46467W        W14861   5.318  18.431   0.411
46468W        W14862  37.238  33.321   0.525
46469W        W14863   7.246  27.954  12.110
46470W        W14864   2.005  37.245   4.255
46471W        W14865  32.175  32.693   0.407
46472W        W14866  33.027  15.344   2.697
46473W        W14867  26.529  22.262  13.073
46474W        W14868  37.893  37.369   0.294
46475W        W14869  40.334  27.952  10.690
46476W        W14870  20.253   5.812  10.533
46477W        W14871  42.092  19.151  11.242
46478W        W14872   6.501  13.771   2.252
46479W        W14873  20.665  13.944  14.110
46480W        W14874  30.967  25.554   3.362
46481W        W14875  26.747  26.822  11.164
46482W        W14876   9.393  27.096  11.557
46483W        W14877  11.251  20.176  13.549
46484W        W14878  16.162  22.587  12.756
46485W        W14879  14.999   8.858  12.086
46486W        W14880  15.094  23.790  10.644
46487W        W14881  20.215   8.756  13.048
46488W        W14882   5.267  11.624   0.977
46489W        W14883  25.694  22.140  12.385
46490W        W14884   8.378  43.540  11.043
46491W        W14885  11.251  10.407  14.099
46492W        W14886  41.083  27.092  12.560
46493W        W14887  12.677  40.590  13.953
46494W        W14888  25.645  43.008  13.000
46495W        W14889  16.530  36.625   2.141
46496W        W14890   0.563  10.232  10.731
46497W        W14891  33.385  44.079  11.164
46498W        W14892   8.134  37.327   2.325
46499W        W14893   2.832  21.853   3.366
46500W        W14894  19.261  43.232   2.314
46501W        W14895  29.528  35.946  12.396
46502W        W14896  39.968  33.684   0.469
46503W        W14897  44.318  10.489   5.214
46504W        W14898  38.090  43.812   3.214
46505W        W14899  32.582  21.169   2.326
46506W        W14900   2.840  38.406  13.366
46507W        W14901  38.012   9.480  11.628
46508W        W14902   4.422  39.145  12.961
46509W        W14903  24.908   1.960   0.405
46510W        W14904  39.311   0.056   1.507
46511W        W14905  21.034  12.048   5.225
46512W        W14906  44.766  38.092  10.929
46513W        W14907  31.805  39.307   1.365
46514W        W14908  41.499  11.830  13.914
46515W        W14909  34.958   9.774   4.575
46516W        W14910  23.627   0.854   0.676
46517W        W14911  13.634  40.521   2.197
46518W        W14912  24.642   6.895   3.127
46519W        W14913  28.816  28.312   4.515
46520W        W14914  11.309  28.049  10.617
46521W        W14915  32.139   7.715  14.506
46522W        W14916  20.357  12.335  11.374
46523W        W14917  21.052  13.439   4.184
46524W        W14918   2.201   9.360  14.963
46525W        W14919  14.323  40.816  11.710
46526W        W14920  40.639  27.855   3.850
46527W        W14921   4.281  15.694   2.307
46528W        W14922  44.835  12.675   0.648
46529W        W14923   6.023  33.117   2.279
46530W        W14924  17.095  15.971  12.347
46531W        W14925  11.825  11.591   2.887
46532W        W14926  25.850  11.277   1.790
46533W        W14927  22.543  17.457  11.045
46534W        W14928  24.541   6.358   0.931
46535W        W14929  12.903  43.887   1.217
46536W        W14930  35.554  31.899   2.191
46537W        W14931  32.207   0.567  10.167
46538W        W14932  18.308  41.715   3.994
46539W        W14933  41.336  23.062   4.326
46540W        W14934  41.997  42.875  10.268
46541W        W14935  18.887   2.227  10.783
46542W        W14936   8.447  41.322   2.334
46543W        W14937  42.601  37.311  13.793
46544W        W14938  23.919  17.552   1.774
46545W        W14939  41.540  17.560  14.404
46546W        W14940  44.201  27.524   2.671
46547W        W14941  39.035  23.348  14.806
46548W        W14942   2.812  10.681   0.515
46549W        W14943  33.156   3.791   4.516
46550W        W14944  28.916  13.569   4.291
46551W        W14945  40.364  27.936  10.093
46552W        W14946  44.057  26.010  13.865
46553W        W14947  15.161  32.370   4.368
46554W        W14948  10.019   6.968  13.858
46555W        W14949  32.438  34.900   3.284
46556W        W14950  35.470   9.653   4.567
46557W        W14951  23.350  11.625  11.593
46558W        W14952  15.075  19.558  14.008
46559W        W14953  19.328  25.944  12.966
46560W        W14954   8.919  39.264  12.011
46561W        W14955  32.044  30.898   4.184
46562W        W14956  37.750  22.058  13.281
46563W        W14957  23.959  38.364  11.792
46564W        W14958   0.489  36.127   2.853
46565W        W14959  44.833  10.931  14.706
46566W        W14960  30.731   9.977   0.522
46567W        W14961  21.704  28.129  14.187
46568W        W14962  14.175  20.677  12.673
46569W        W14963  18.817  20.172  14.978
46570W        W14964  16.805   7.820  13.971
46571W        W14965  19.228  36.531  10.312
46572W        W14966  25.644  15.204  13.792
46573W        W14967  35.060  13.734   0.897
46574W        W14968  33.690  37.398   4.557
46575W        W14969  29.678   6.904  14.829
46576W        W14970  12.890  24.968  12.101
46577W        W14971  26.187  19.322   0.893
46578W        W14972   8.312  28.051  12.899
46579W        W14973  18.652  25.483  14.816
46580W        W14974   4.338   4.031   4.906
46581W        W14975  17.481  41.537  10.541
46582W        W14976  22.181  33.592   3.378
46583W        W14977   2.437   0.487   2.288
46584W        W14978  41.077   9.300  13.328
46585W        W14979  36.174  13.844  11.225
46586W        W14980  17.632  24.263  11.150
46587W        W14981   8.905  34.787  12.475
46588W        W14982  14.347  14.076   0.490
46589W        W14983  44.241   9.993   5.087
46590W        W14984  29.707   9.871  11.138
46591W        W14985  25.274  26.693   4.351
46592W        W14986   4.511  41.434   4.157
46593W        W14987  24.543  29.468  11.123
46594W        W14988  31.611  13.854  12.119
46595W        W14989   2.569   0.309   0.424
46596W        W14990  21.917  37.570  12.128
46597W        W14991  17.811   2.440   1.370
46598W        W14992  12.516  21.582   1.265
46599W        W14993   0.476  31.156  11.465
46600W        W14994  32.090  34.340   2.751
46601W        W14995  38.567  38.032  11.475
46602W        W14996  13.992  17.157  13.948
46603W        W14997  24.715  17.979  11.476
46604W        W14998  32.517  41.543  12.611
46605W        W14999  36.101   1.394   3.141
46606W        W15000   8.632  27.247  12.289
46607W        W15001  15.780   3.782  14.990
46608W        W15002  10.636  39.100   4.130
46609W        W15003   1.473  41.461   2.837
46610W        W15004  43.146  35.372   4.998
46611W        W15005  36.945   7.579   2.909
46612W        W15006  12.861  11.849  12.661
46613W        W15007   3.733  42.512   3.383
46614W        W15008  16.242   2.975  12.081
46615W        W15009  19.851   1.227   3.930
46616W        W15010  16.207  16.591   0.001
46617W        W15011  10.719  21.018   1.634
46618W        W15012   0.838  36.070   4.121
46619W        W15013  10.292  23.686  14.493
46620W        W15014  43.556  36.103  13.015
46621W        W15015  31.858  23.912  10.762
46622W        W15016  20.224  17.756   1.761
46623W        W15017  37.036  35.019  14.550
46624W        W15018  33.423  24.839  13.602
46625W        W15019   3.724   3.384   4.835
46626W        W15020   5.968  37.923  12.610
46627W        W15021  27.585  16.907   3.631
46628W        W15022  17.529  42.586  14.021
46629W        W15023  28.139   3.002   0.451
46630W        W15024  28.075  36.665  12.167
46631W        W15025   5.806  21.662   2.963
46632W        W15026  43.393  42.831   4.128
46633W        W15027   2.988  42.467  13.031
46634W        W15028  14.367   0.954   1.328
46635W        W15029   0.516  15.206   4.620
46636W        W15030   0.196  40.318   2.329
46637W        W15031  13.744  15.760  12.673
46638W        W15032  16.554   8.481   3.578
46639W        W15033  36.883  29.678   2.570
46640W        W15034  14.260  38.271  10.704
46641W        W15035   1.995  41.646   2.267
46642W        W15036  13.758  20.823  12.945
46643W        W15037  21.187  13.205   2.131
46644W        W15038  42.475  10.750   2.209
46645W        W15039  39.508   1.274   2.385
46646W        W15040  20.424  18.975   3.079
46647W        W15041  30.714  22.571   4.094
46648W        W15042  20.589   6.395   0.452
46649W        W15043  14.259  44.191   3.303
46650W        W15044  13.156  20.255   2.411
46651W        W15045  41.498  26.674   3.627
46652W        W15046  22.011  14.766  10.586
46653W        W15047  35.078  32.554  11.981
46654W        W15048  21.764  17.596   0.402
46655W        W15049  35.903  42.536  14.668
46656W        W15050  10.240   8.920  10.289
46657W        W15051  14.568  39.789  10.204
46658W        W15052   6.684  17.986   3.534
46659W        W15053  37.518  33.503  12.399
46660W        W15054  29.132  43.320   5.067
46661W        W15055  19.618   9.146   0.774
46662W        W15056   3.711  34.660  14.979
46663W        W15057  42.777  17.589   2.295
46664W        W15058  36.406  19.360  12.979
46665W        W15059  31.207  29.568   4.066
46666W        W15060   1.704  31.488  11.445
46667W        W15061  33.504  40.876   2.386
46668W        W15062  34.154  20.350   4.069
46669W        W15063  34.013  19.584  14.898
46670W        W15064  43.508  32.433  13.813
46671W        W15065  24.689  10.198   1.948
46672W        W15066  43.994  18.737   1.217
46673W        W15067   4.521  23.744  12.942
46674W        W15068  39.595   5.681  13.374
46675W        W15069  31.290  30.626  13.850
46676W        W15070  10.774  25.605   4.491
46677W        W15071  10.130  32.696  14.929
46678W        W15072  38.973  32.977  14.506
46679W        W15073   5.694  23.224  14.295
46680W        W15074  19.954  20.001  12.902
46681W        W15075  41.500  43.530   4.205
46682W        W15076  36.085  20.090  10.573
46683W        W15077   4.924  12.027  14.367
46684W        W15078  34.009  33.821   2.563
46685W        W15079  28.239  22.600   0.852
46686W        W15080  31.575  15.213   2.697
46687W        W15081  32.703  28.086  11.002
46688W        W15082  26.694   0.104   9.618
46689W        W15083  44.455   1.432   3.388
46690W        W15084  26.100  23.046  14.680
46691W        W15085  34.571   0.785  14.524
46692W        W15086  25.448  41.513  12.050
46693W        W15087  28.225  29.597   2.700
46694W        W15088   8.672  24.462  13.397
46695W        W15089   7.266  23.877  14.249
46696W        W15090  24.612   5.437  12.337
46697W        W15091   8.821   7.818  14.913
46698W        W15092  10.108  23.464   0.487
46699W        W15093   3.704  36.588  12.480
46700W        W15094  43.030  15.771   2.998
46701W        W15095  40.953  21.083   2.605
46702W        W15096  42.746  23.546   4.160
46703W        W15097  16.597  26.024   3.261
46704W        W15098  24.151  24.458   1.788
46705W        W15099   7.664  30.536  14.337
46706W        W15100   4.663  14.001  14.452
46707W        W15101  31.859   9.204  13.461
46708W        W15102  35.973  35.857   3.598
46709W        W15103  34.684   0.161  12.815
46710W        W15104  41.957  43.781   4.366
46711W        W15105  28.443  14.056   1.214
46712W        W15106  43.472   0.505  11.038
46713W        W15107  43.176  21.305   3.307
46714W        W15108   2.461  13.127   0.795
46715W        W15109  27.429   3.387  10.738
46716W        W15110   2.772  27.319  13.772
46717W        W15111  10.226  11.339  14.099
46718W        W15112  42.076  17.597   4.464
46719W        W15113  23.276  38.879   0.426
46720W        W15114  35.005  18.981   3.746
46721W        W15115   8.193  24.609   0.366
46722W        W15116  39.810   9.832   2.194
46723W        W15117   7.894   2.296   2.074
46724W        W15118  23.923   8.152  12.881
46725W        W15119  38.345  29.894   4.129
46726W        W15120  10.707  32.441   3.592
46727W        W15121  15.670  17.913   5.456
46728W        W15122   9.525  43.004  14.860
46729W        W15123  18.719  13.704  11.393
46730W        W15124  25.378   3.209   1.537
46731W        W15125  34.608  36.894   1.820
46732W        W15126  34.080  38.083  13.604
46733W        W15127  43.363  18.409   1.425
46734W        W15128  16.766  22.787   3.602
46735W        W15129  23.794  41.615  14.362
46736W        W15130   3.036   9.665  14.948
46737W        W15131   3.267  19.036   4.889
46738W        W15132  37.770  26.547  12.370
46739W        W15133   1.496   4.532  11.629
46740W        W15134  34.550   8.983   3.488
46741W        W15135  11.138  34.237   2.288
46742W        W15136  11.153   4.835  13.431
46743W        W15137  16.806  15.449   1.755
46744W        W15138   9.644  34.454  11.988
46745W        W15139  31.964  42.939  11.457
46746W        W15140  18.228  15.065  13.846
46747W        W15141  40.913  30.075   3.921
46748W        W15142  21.799  10.878  12.404
46749W        W15143   7.821  24.067  12.093
46750W        W15144  21.627  17.619   1.389
46751W        W15145  37.921   3.102  12.406
46752W        W15146  18.090   2.746   3.142
46753W        W15147  17.516  34.404  13.872
46754W        W15148  33.307  20.223  14.109
46755W        W15149  19.527  20.233   1.449
46756W        W15150   7.443  13.877  12.004
46757W        W15151   3.279   8.844   3.911
46758W        W15152   8.117  40.297   1.753
46759W        W15153  11.296  41.745   1.228
46760W        W15154  29.008  41.400  10.649
46761W        W15155   3.243  36.854  14.003
46762W        W15156  32.674  35.551  14.868
46763W        W15157   2.980   0.898  14.940
46764W        W15158  31.755  43.912  13.026
46765W        W15159  15.213  15.661  10.367
46766W        W15160  15.732  34.139   1.433
46767W        W15161  21.155  12.542   5.045
46768W        W15162   1.181   0.219  11.699
46769W        W15163  12.056  24.219   3.298
46770W        W15164  18.036  19.635  11.548
46771W        W15165  19.034  31.414  14.402
46772W        W15166  11.644   8.805  13.137
46773W        W15167  24.621  43.990   4.228
46774W        W15168  15.110  15.502   2.788
46775W        W15169   7.824  37.915  12.400
46776W        W15170  13.155  44.852   0.884
46777W        W15171  28.959  15.959   2.281
46778W        W15172  36.391  36.515  13.899
46779W        W15173  26.964  42.361   4.915
46780W        W15174  16.933  29.005   3.637
46781W        W15175  30.405  28.627  13.628
46782W        W15176  12.187  13.401   1.353
46783W        W15177   2.368  33.637   1.365
46784W        W15178  15.099   0.188   1.946
46785W        W15179  25.149  16.757   0.552
46786W        W15180   3.388  40.778  12.833
46787W        W15181  11.782  26.969   4.679
46788W        W15182  22.452  13.553  11.516
46789W        W15183  13.331  22.496   1.683
46790W        W15184  34.924   4.737  13.920
46791W        W15185   2.874  27.812  13.888
46792W        W15186  26.678   0.309  12.059
46793W        W15187  42.357  34.236   0.303
46794W        W15188  15.497   3.861   4.797
46795W        W15189  11.698  21.463  14.696
46796W        W15190  43.730  20.989  13.795
46797W        W15191   5.423   2.692   3.678
46798W        W15192   6.336   0.261  14.801
46799W        W15193  10.368  19.208   4.672
46800W        W15194   7.128  44.863   3.504
46801W        W15195   1.612   4.561   4.566
46802W        W15196  22.573  27.857   3.668
46803W        W15197  16.796  35.349  12.979
46804W        W15198  41.451  44.871  13.464
46805W        W15199  11.776  12.243   3.442
46806W        W15200  17.356  32.276   9.966
46807W        W15201  44.795  30.501  12.477
46808W        W15202  27.197  38.407   3.234
46809W        W15203  37.441  37.489   1.255
46810W        W15204  30.413   6.874  11.463
46811W        W15205  30.797  14.344   4.132
46812W        W15206  43.415  10.778  12.163
46813W        W15207  27.225  28.738   0.947
46814W        W15208   7.904   0.351  14.141
46815W        W15209  12.121  36.048  13.245
46816W        W15210  40.070   6.890   0.695
46817W        W15211  13.114  30.662   1.909
46818W        W15212  26.044  42.260  10.071
46819W        W15213   4.282  35.433   3.179
46820W        W15214  11.179   2.467  12.089
46821W        W15215   4.378   1.812   3.802
46822W        W15216  28.606  38.608   1.816
46823W        W15217   6.401   1.731   5.423
46824W        W15218  42.868  16.329  13.821
46825W        W15219  14.189   8.295   2.490
46826W        W15220   3.832   3.734   3.064
46827W        W15221  22.014   8.085   2.435
46828W        W15222  23.187  17.118   0.903
46829W        W15223  34.886  17.799   0.685
46830W        W15224  17.540  43.561   0.382
46831W        W15225  31.901  33.913  10.795
46832W        W15226  44.003  11.111  14.360
46833W        W15227  24.387   1.828  11.271
46834W        W15228  11.304  33.465   2.675
46835W        W15229  37.574   6.318   1.002
46836W        W15230   2.446  13.556  13.940
46837W        W15231  11.240  30.871  13.006
46838W        W15232  27.847  24.292   0.859
46839W        W15233  18.149  38.526  14.445
46840W        W15234  43.948  29.541  14.454
46841W        W15235   6.478  43.380  13.982
46842W        W15236  39.990  33.400   0.900
46843W        W15237   8.765   1.486   1.970
46844W        W15238  13.286  31.671  11.623
46845W        W15239   0.184   1.693   1.431
46846W        W15240   2.438  19.586  13.991
46847W        W15241   6.073  16.058   0.841
46848W        W15242  20.939   4.939   5.096
46849W        W15243   3.188   6.586  11.535
46850W        W15244   5.499  18.691   3.597
46851W        W15245  28.741  18.344   3.207
46852W        W15246   1.761  11.213  11.616
46853W        W15247  12.925   9.286  13.514
46854W        W15248  40.649   0.997   3.821
46855W        W15249   0.810  12.332   4.193
46856W        W15250  40.904   4.948   0.850
46857W        W15251   0.714  11.093  13.948
46858W        W15252  23.012  31.548  12.530
46859W        W15253  25.108  29.447   0.501
46860W        W15254  33.456  25.448  11.228
46861W        W15255  32.156   9.175   3.414
46862W        W15256   8.368   5.154  12.977
46863W        W15257  39.872   3.825  11.216
46864W        W15258  21.281   0.582   5.038
46865W        W15259  16.394  23.976   0.850
46866W        W15260  21.944   7.195   4.179
46867W        W15261  44.782  23.221   3.800
46868W        W15262  21.179  27.165   3.270
46869W        W15263  28.552  21.376   0.294
46870W        W15264  22.597  20.954  11.779
46871W        W15265  17.523  19.303   4.100
46872W        W15266  31.705  32.981   2.189
46873W        W15267  27.697  21.971   1.320
46874W        W15268   7.672  18.632   4.321
46875W        W15269  11.336  33.330  13.955
46876W        W15270  27.216   3.236  12.080
46877W        W15271  24.841  16.707  13.918
46878W        W15272  29.995  35.435  13.966
46879W        W15273  10.396  17.170  14.083
46880W        W15274  20.608  43.995   2.883
46881W        W15275  11.819   2.666   3.674
46882W        W15276   8.262  22.038  12.450
46883W        W15277  14.788  30.639   3.263
46884W        W15278  29.125  38.550  13.440
46885W        W15279   6.383  10.315  13.979
46886W        W15280  17.085  41.124  12.889
46887W        W15281  41.409  23.546   4.527
46888W        W15282   9.412   0.871  12.894
46889W        W15283   0.005  16.818   4.724
46890W        W15284  20.244  44.067  12.920
46891W        W15285  39.871  38.315   4.042
46892W        W15286   1.175  24.224  13.811
46893W        W15287   2.020  19.929  13.981
46894W        W15288  27.146   1.245  11.543
46895W        W15289  40.203  11.632  14.442
46896W        W15290   5.206  13.691   1.928
46897W        W15291   1.746  13.206  11.610
46898W        W15292  27.723   4.215   1.024
46899W        W15293  44.158  42.108   4.235
46900W        W15294  19.062  20.765   4.625
46901W        W15295  41.775  19.431   2.851
46902W        W15296  38.915  39.934  13.058
46903W        W15297  35.384  11.123   3.114
46904W        W15298  23.898  30.616  11.421
46905W        W15299  44.075   4.860   2.447
46906W        W15300   0.501   6.430  13.955
46907W        W15301   9.362  29.651  11.711
46908W        W15302  28.106  25.756  11.426
46909W        W15303  29.250  15.417  12.955
46910W        W15304  41.675  21.150  10.097
46911W        W15305  38.801  34.825  11.004
46912W        W15306  19.630  16.466   3.727
46913W        W15307  35.503  14.315  12.569
46914W        W15308   2.821  37.986  10.685
46915W        W15309  36.575  11.609   3.746
46916W        W15310  42.894  27.460  14.432
46917W        W15311   2.929  14.314   1.701
46918W        W15312   4.265  21.247  11.415
46919W        W15313  20.694  17.038  10.248
46920W        W15314  13.216  19.793   0.048
46921W        W15315  15.204   3.819   1.947
46922W        W15316  10.369   6.579  11.519
46923W        W15317  37.134  11.260  13.735
46924W        W15318  42.186   1.378  14.058
46925W        W15319  27.970  12.106   1.493
46926W        W15320   4.681  24.225  11.411
46927W        W15321  11.797  14.699  11.045
46928W        W15322  26.469  40.274  13.502
46929W        W15323   2.858  42.906   1.723
46930W        W15324  39.944  35.426   1.028
46931W        W15325   3.694  15.775  11.120
46932W        W15326  38.522  27.000  10.848
46933W        W15327   8.976  36.895   1.632
46934W        W15328  26.128  30.255  14.939
46935W        W15329  37.560  38.582   3.560
46936W        W15330  11.566   0.742   4.981
46937W        W15331  41.187  19.047   4.270
46938W        W15332   0.026  11.318  14.394
46939W        W15333   3.340  21.571   1.220
46940W        W15334  28.134  15.497   3.976
46941W        W15335  11.662  19.274  12.108
46942W        W15336  43.521  16.905  11.081
46943W        W15337   1.749  38.038  12.421
46944W        W15338  39.350  26.157   4.621
46945W        W15339   6.547  19.828  11.509
46946W        W15340   1.685   4.378   1.867
46947W        W15341  34.965  44.001   0.253
46948W        W15342  23.546  40.851  13.562
46949W        W15343  27.496   5.594  14.670
46950W        W15344  38.951   2.155   4.843
46951W        W15345  29.851   5.914   2.627
46952W        W15346  44.261   4.051  14.250
46953W        W15347  22.850   9.781   2.827
46954W        W15348   4.333  16.227   1.048
46955W        W15349  12.459   9.449   0.820
46956W        W15350  18.145  24.560   1.848
46957W        W15351  22.736  33.879   3.356
46958W        W15352  44.875  33.688   4.314
46959W        W15353  34.480  19.281  13.844
46960W        W15354  39.577  23.176  11.652
46961W        W15355  20.964   3.864  11.548
46962W        W15356  29.585  24.804  14.358
46963W        W15357   3.913  20.693  14.366
46964W        W15358   4.714  12.753  13.387
46965W        W15359  27.313  36.061   0.724
46966W        W15360  22.265  24.232  14.388
46967W        W15361  30.495   4.452   0.330
46968W        W15362   8.733  37.993   2.603
46969W        W15363  10.131  42.029  11.951
46970W        W15364   7.574  39.260  14.957
46971W        W15365  24.268  34.764  13.512
46972W        W15366  19.456   4.879   2.222
46973W        W15367  10.271   3.377  13.843
46974W        W15368  39.737  16.324   3.748
46975W        W15369  11.451  28.431  13.082
46976W        W15370   7.895  31.947   1.134
46977W        W15371  17.741  16.159  13.473
46978W        W15372   6.250  11.980  13.014
46979W        W15373  11.300   5.218   2.229
46980W        W15374  35.877   0.815   4.477
46981W        W15375  16.794  13.793   1.872
46982W        W15376   4.015  23.127  10.740
46983W        W15377  37.502  43.465   0.364
46984W        W15378  15.389  14.613   2.179
46985W        W15379   0.783  41.012   2.708
46986W        W15380  26.945  22.624   1.230
46987W        W15381  33.142  16.941   4.035
46988W        W15382  16.695  40.174  11.571
46989W        W15383   4.146   5.825   2.807
46990W        W15384  17.369  24.651   1.336
46991W        W15385  26.907  42.613   4.083
46992W        W15386  20.574  14.284  14.791
46993W        W15387  42.864  25.424   1.799
46994W        W15388  15.665  19.835   1.243
46995W        W15389  20.648  41.931  12.858
46996W        W15390  40.929   9.557   2.304
46997W        W15391  22.978  36.331  11.299
46998W        W15392  34.292  10.147   2.236
46999W        W15393  41.763  40.930   3.801
47000W        W15394   3.753  41.409   0.922
47001W        W15395  31.712   8.301  13.882
47002W        W15396  35.659  30.913  12.663
47003W        W15397  42.731  22.507  12.085
47004W        W15398  41.867  26.910  11.901
47005W        W15399  38.523  15.794   2.909
47006W        W15400  22.028  25.216   5.163
47007W        W15401  34.990   1.572   1.889
47008W        W15402  11.720  19.819   0.004
47009W        W15403   1.521  18.833   2.674
47010W        W15404   3.372  39.396   0.310
47011W        W15405   2.526   8.387   4.739
47012W        W15406  37.339  16.960  11.865
47013W        W15407  27.027  42.819   2.836
47014W        W15408  17.275   6.759  12.019
47015W        W15409   8.677  34.537  13.464
47016W        W15410  21.676  41.442  13.544
47017W        W15411  36.834  14.619  14.814
47018W        W15412   4.630   5.663  14.981
47019W        W15413  44.166   6.762  14.995
47020W        W15414  19.992  16.082   1.296
47021W        W15415  36.506  44.971   4.496
47022W        W15416  38.940  37.523  12.983
47023W        W15417  38.599  32.170   1.000
47024W        W15418  29.955  10.762  14.100
47025W        W15419   4.503  21.933  12.095
47026W        W15420  32.013   0.880   4.023
47027W        W15421  38.540  35.448  10.636
47028W        W15422   7.292  32.059  12.899
47029W        W15423  16.799  38.531  14.977
47030W        W15424  44.714  15.802   3.654
47031W        W15425  35.267  40.386   2.745
47032W        W15426  10.154  35.340   3.904
47033W        W15427  17.702   2.979  11.930
47034W        W15428   9.251  25.095  11.825
47035W        W15429   3.631  33.524   3.715
47036W        W15430   0.922  35.886   1.801
47037W        W15431  19.067   4.413  13.466
47038W        W15432  11.675  30.340   1.707
47039W        W15433  33.334  21.406  10.069
47040W        W15434  16.998  29.701  11.141
47041W        W15435   4.464   4.420  13.509
47042W        W15436  29.936   0.667   4.849
47043W        W15437  30.139  10.318  14.293
47044W        W15438  32.409  35.075  11.134
47045W        W15439  31.559  22.630   3.862
47046W        W15440  10.544  29.303   3.214
47047W        W15441  21.137  32.233  12.595
47048W        W15442  18.764  21.074  11.181
47049W        W15443   8.193  24.543  13.550
47050W        W15444  44.188  27.504  13.896
47051W        W15445   1.338  12.223   2.013
47052W        W15446   4.323  15.269  10.408
47053W        W15447  36.477  33.937   4.889
47054W        W15448  28.767  22.644   0.818
47055W        W15449  31.376   2.947   4.666
47056W        W15450  40.052  15.179   3.915
47057W        W15451  32.312   2.251  12.591
47058W        W15452   5.653  13.497   4.198
47059W        W15453   9.413  40.941  12.105
47060W        W15454  18.740   3.410  13.833
47061W        W15455  18.667  36.984   4.465
47062W        W15456  14.587  24.996   4.465
47063W        W15457   6.981  12.720  12.834
47064W        W15458   5.602   2.537  10.224
47065W        W15459  11.098  14.632   3.782
47066W        W15460  34.358  29.065  11.711
47067W        W15461  13.916   1.734   0.421
47068W        W15462  10.230  25.405   1.451
47069W        W15463   9.874  12.371  11.441
47070W        W15464  39.906  16.635   2.687
47071W        W15465  17.116  11.117  14.887
47072W        W15466  30.834  12.959   0.751
47073W        W15467  19.813  27.007  14.938
47074W        W15468  15.267  28.169   3.113
47075W        W15469  10.954  31.551   1.735
47076W        W15470  34.967  33.591   2.254
47077W        W15471  35.047  26.489  11.993
47078W        W15472  17.587  19.790  12.022
47079W        W15473  43.198  41.786  14.959
47080W        W15474  16.129  20.511   1.030
47081W        W15475  40.372  30.455  12.305
47082W        W15476  10.130  18.040  10.552
47083W        W15477  15.839  43.944   1.807
47084W        W15478  42.075  44.161   3.627
47085W        W15479   8.314  16.221  10.755
47086W        W15480  24.061  41.381  12.051
47087W        W15481   5.287   0.051   3.259
47088W        W15482  19.158  38.937  11.609
47089W        W15483   7.585  43.996   4.618
47090W        W15484  44.335  43.694  12.520
47091W        W15485  27.518  41.552   3.373
47092W        W15486  44.417   2.824  11.182
47093W        W15487   6.338  34.004  14.699
47094W        W15488   2.085   0.333   0.646
47095W        W15489  27.139   6.391  12.681
47096W        W15490  10.722  40.906  11.653
47097W        W15491   8.907  35.792   1.895
47098W        W15492  21.803  35.764   0.970
47099W        W15493   8.908   4.766   1.839
47100W        W15494   7.700  19.342  12.925
47101W        W15495  11.256  13.636  13.806
47102W        W15496  31.867  30.613   2.806
47103W        W15497   1.841   1.436   0.050
47104W        W15498  43.051  27.165   1.779
47105W        W15499  35.329  27.998  13.447
47106W        W15500  32.511  23.023   2.915
47107W        W15501  18.257   6.945   2.255
47108W        W15502  29.433   5.211   0.456
47109W        W15503  41.460  22.815   0.732
47110W        W15504  12.658  22.227   4.749
47111W        W15505  38.057  27.486   1.252
47112W        W15506  15.071  41.079  13.595
47113W        W15507   2.057  40.837  14.802
47114W        W15508  13.260  35.851   1.354
47115W        W15509  20.674  10.473   2.149
47116W        W15510  23.570   8.960  10.667
47117W        W15511  17.696  31.635  12.600
47118W        W15512  22.992  42.734   2.277
47119W        W15513  35.380  22.630   4.274
47120W        W15514   2.176  32.881   3.307
47121W        W15515   6.885   1.173   1.259
47122W        W15516  20.702  20.366  12.389
47123W        W15517  26.163   7.085   1.684
47124W        W15518  17.083  12.904  12.394
47125W        W15519  25.248   8.538  14.472
47126W        W15520  38.836  19.137   4.639
47127W        W15521   5.502  30.269   5.118
47128W        W15522   8.602  13.431  13.325
47129W        W15523  33.556  29.565  11.671
47130W        W15524   4.001  21.346  10.590
47131W        W15525  29.073   4.322  11.561
47132W        W15526  42.985  24.219   0.258
47133W        W15527   1.444  16.667  13.162
47134W        W15528  22.504   8.222   2.287
47135W        W15529  27.534   7.862   1.912
47136W        W15530  31.150  13.543  14.021
47137W        W15531  14.392  31.601   3.033
47138W        W15532  29.161  10.164   0.794
47139W        W15533  43.713  27.643  13.686
47140W        W15534   8.844  26.463  10.349
47141W        W15535  13.755  31.424  10.749
47142W        W15536   4.927  11.175  13.666
47143W        W15537  17.370  25.849  11.589
47144W        W15538   0.460   4.494  14.275
47145W        W15539  30.957  34.861  11.188
47146W        W15540   8.865   0.608  11.480
47147W        W15541  38.418  14.704  11.637
47148W        W15542   5.731   3.207   0.235
47149W        W15543  19.381  36.331   9.837
47150W        W15544  32.646  31.458   4.563
47151W        W15545  16.333  29.172  14.456
47152W        W15546  23.019   3.983  10.728
47153W        W15547   5.877  11.224  12.831
47154W        W15548  10.289  36.588   2.261
47155W        W15549  28.196   0.107   4.961
47156W        W15550   1.404  37.141   3.396
47157W        W15551  10.556  39.073   0.196
47158W        W15552  18.095  23.244  13.447
47159W        W15553   8.764  31.381   3.859
47160W        W15554  14.025  37.642  11.630
47161W        W15555  17.299  18.524  13.882
47162W        W15556  14.287  14.436   4.595
47163W        W15557  16.121  30.906   0.505
47164W        W15558  26.148   1.083  14.307
47165W        W15559  35.079  39.869  14.397
47166W        W15560  29.523  21.069  14.291
47167W        W15561  29.316   9.660  11.375
47168W        W15562   6.224  41.631   3.620
47169W        W15563   1.841  18.296  12.764
47170W        W15564  24.733  30.547  13.753
47171W        W15565  33.079  28.250   4.216
47172W        W15566  13.225  41.386   2.847
47173W        W15567  32.860  37.250   4.240
47174W        W15568  10.958  32.045   3.880
47175W        W15569   7.741  20.512   4.200
47176W        W15570   5.856  13.143  10.195
47177W        W15571  21.736  17.058   2.204
47178W        W15572  23.217  31.877   2.405
47179W        W15573  11.366   4.262   2.160
47180W        W15574  27.434   8.898  14.931
47181W        W15575  29.891  30.367  11.191
47182W        W15576   1.493  21.545   4.076
47183W        W15577  16.221  25.686  10.449
47184W        W15578  26.494  42.949  14.826
47185W        W15579   9.383  39.325  10.723
47186W        W15580  15.851  24.150   0.849
47187W        W15581  20.575  26.118   4.552
47188W        W15582  18.559  12.827  13.438
47189W        W15583  31.630   4.444  13.394
47190W        W15584   4.354  32.431   4.049
47191W        W15585  44.992  22.443   2.821
47192W        W15586  41.861  21.493   0.908
47193W        W15587   8.907  34.442   1.213
47194W        W15588  37.053  18.132   1.977
47195W        W15589  43.101  23.644  10.651
47196W        W15590  21.480  25.195   1.709
47197W        W15591  43.892  30.712  11.567
47198W        W15592   5.942  36.907  11.078
47199W        W15593  39.330  20.748  10.843
47200W        W15594   9.757  18.786  14.983
47201W        W15595  39.321   5.748  12.513
47202W        W15596   3.696  12.612  10.792
47203W        W15597  33.464  38.161  14.999
47204W        W15598  31.419  13.677  12.596
47205W        W15599  26.482  30.451  10.084
47206W        W15600  38.881  24.405   2.364
47207W        W15601  27.055   1.475  13.824
47208W        W15602  24.504   0.367   4.583
47209W        W15603  29.074  40.003  11.209
47210W        W15604  41.027   4.237   0.394
47211W        W15605  26.492   9.379   2.149
47212W        W15606  25.568  31.080  13.830
47213W        W15607  13.535  27.729  13.929
47214W        W15608  24.901  21.231  11.638
47215W        W15609  36.978  19.660   1.783
47216W        W15610   3.735  31.894   3.329
47217W        W15611  21.269  34.048   4.197
47218W        W15612  35.570  10.277  10.694
47219W        W15613  27.354   0.387   2.816
47220W        W15614  18.999  39.006   2.304
47221W        W15615   8.568  12.464   0.242
47222W        W15616  41.514   4.338   1.435
47223W        W15617  30.097   6.939   0.446
47224W        W15618  13.649  13.292   0.346
47225W        W15619  40.507  36.902  14.234
47226W        W15620  19.200  27.936   4.179
47227W        W15621   7.153  25.973   0.913
47228W        W15622  34.926  24.475   0.352
47229W        W15623  23.533  36.551  14.316
47230W        W15624  43.740   0.458   3.465
47231W        W15625   1.240  19.931  10.735
47232W        W15626   7.772  44.869  13.316
47233W        W15627  31.115  16.157   1.945
47234W        W15628  21.064  28.605  14.441
47235W        W15629  43.430  39.241   0.298
47236W        W15630  24.231  16.830  13.350
47237W        W15631  10.211  12.595  11.051
47238W        W15632  25.109  34.320   4.579
47239W        W15633   6.388  39.541  13.375
47240W        W15634  17.607  43.308  11.700
47241W        W15635  33.641   8.907  11.263
47242W        W15636  31.993  25.468  10.686
47243W        W15637  43.004   4.489  12.491
47244W        W15638  20.053  33.036   1.438
47245W        W15639  27.250  37.482  13.861
47246W        W15640  32.296   6.804  14.204
47247W        W15641  38.094  35.562  11.528
47248W        W15642  30.688  11.662  13.301
47249W        W15643  24.706   3.684  12.964
47250W        W15644  35.638   6.626   2.791
47251W        W15645  41.280  20.510  13.520
47252W        W15646  30.080  30.961   1.339
47253W        W15647  32.242  16.980   0.369
47254W        W15648  30.179  10.359  13.257
47255W        W15649  29.368  18.021  11.079
47256W        W15650  32.019  17.478   4.709
47257W        W15651  36.060  18.597  14.600
47258W        W15652  29.119  28.410   3.709
47259W        W15653  41.508  44.795   3.288
47260W        W15654  19.951  29.491   4.885
47261W        W15655  26.573  30.053   1.411
47262W        W15656  34.971  36.572  10.635
47263W        W15657  17.802  16.804   4.501
47264W        W15658  38.675  12.842  11.626
47265W        W15659  41.540  39.944   1.309
47266W        W15660  19.797   4.718  14.300
47267W        W15661  24.581  31.015  13.971
47268W        W15662  11.579  11.072   3.767
47269W        W15663  34.046   2.829  12.415
47270W        W15664   6.649   0.261   4.526
47271W        W15665  38.131  25.680   1.517
47272W        W15666  29.013  22.024  13.109
47273W        W15667  29.666   3.804  10.837
47274W        W15668  41.636   5.291  13.971
47275W        W15669  11.670  35.784  13.293
47276W        W15670  41.500  42.806  10.423
47277W        W15671  10.862  33.155   0.320
47278W        W15672  30.209  26.512   0.356
47279W        W15673  29.381   0.067   2.860
47280W        W15674  24.020  21.465  12.037
47281W        W15675  37.509  31.062  13.032
47282W        W15676   8.698   7.610   0.356
47283W        W15677  42.240   9.580   3.356
47284W        W15678  31.586  25.166  10.731
47285W        W15679  24.050  28.953  14.283
47286W        W15680  10.103   4.135   4.548
47287W        W15681   2.509  28.713  13.993
47288W        W15682   4.832  16.482   2.743
47289W        W15683   5.101  26.760   2.249
47290W        W15684   5.621  11.681   3.129
47291W        W15685  28.018  33.876  11.525
47292W        W15686  38.353  43.494  13.869
47293W        W15687  12.105  36.182  11.107
47294W        W15688  44.831  24.583   4.286
47295W        W15689  14.362   4.196   1.144
47296W        W15690   2.179  12.550  12.007
47297W        W15691   0.962   1.958  14.320
47298W        W15692   4.930  20.534   1.831
47299W        W15693  24.360  36.532  13.410
47300W        W15694  11.755  42.688   4.887
47301W        W15695   9.048  30.042   0.778
47302W        W15696  40.762  38.386   0.720
47303W        W15697   2.695  17.062   2.390
47304W        W15698  22.555   3.397   0.921
47305W        W15699  38.937  10.665   0.344
47306W        W15700  26.393  13.348  10.313
47307W        W15701   1.398  17.491   4.040
47308W        W15702  21.301  27.441   1.618
47309W        W15703  12.621  30.236   3.725
47310W        W15704  24.977   3.476   2.284
47311W        W15705  22.351   0.841   1.452
47312W        W15706  29.081  30.932  11.120
47313W        W15707  35.367  29.088   3.952
47314W        W15708  17.130  13.838  10.742
47315W        W15709  14.294  26.267   1.748
47316W        W15710  15.883  15.836  14.785
47317W        W15711  27.102  23.115  13.984
47318W        W15712  40.637  33.916   2.422
47319W        W15713   1.893  13.142   4.556
47320W        W15714  36.948   5.908  13.439
47321W        W15715  37.942  39.268  11.144
47322W        W15716  41.343   1.754  14.672
47323W        W15717  24.699  13.869   1.296
47324W        W15718  24.461  34.665   0.795
47325W        W15719  30.604  19.661   0.255
47326W        W15720  36.357   8.606  13.946
47327W        W15721  28.871  27.542  13.592
47328W        W15722   4.317  36.272  11.086
47329W        W15723   8.158  13.375   1.457
47330W        W15724  18.175  10.690   1.897
47331W        W15725  22.242   0.608  12.410
47332W        W15726   9.408  33.537   4.591
47333W        W15727  24.554   7.390   3.008
47334W        W15728  13.362  14.051  11.467
47335W        W15729  36.842  23.964  13.567
47336W        W15730  27.590  44.537   2.452
47337W        W15731   1.971  22.449  11.437
47338W        W15732  42.573  22.955  13.483
47339W        W15733  14.909  38.312   0.939
47340W        W15734  23.775  22.809   3.653
47341W        W15735  31.683  30.829   0.338
47342W        W15736  12.937  36.883   2.095
47343W        W15737  16.292  32.116   4.516
47344W        W15738  22.748  35.058   2.155
47345W        W15739   5.403  35.814   1.888
47346W        W15740  35.131  37.517   2.154
47347W        W15741   7.799   4.941   1.883
47348W        W15742   9.331   3.255  11.002
47349W        W15743  10.788  23.449  10.714
47350W        W15744  40.478  23.636   3.514
47351W        W15745  42.334  11.857   1.837
47352W        W15746   7.109  17.600  10.888
47353W        W15747  32.984  13.398   3.138
47354W        W15748  31.856  23.750  11.404
47355W        W15749  35.009  25.687   3.906
47356W        W15750  40.943  31.800  10.271
47357W        W15751  44.697  11.602  11.624
47358W        W15752  34.367  18.547   0.084
47359W        W15753   1.721  37.780   1.755
47360W        W15754  24.009  37.270   4.645
47361W        W15755  26.967  10.792   0.314
47362W        W15756  30.031  21.716   4.864
47363W        W15757   3.913  25.010   0.768
47364W        W15758   6.258  18.058  11.211
47365W        W15759  36.546  28.083   3.192
47366W        W15760  24.992   9.262  12.945
47367W        W15761  21.215  21.754   2.855
47368W        W15762  20.201  31.196   3.739
47369W        W15763  35.446  32.694  12.881
47370W        W15764   7.218   0.528   3.236
47371W        W15765  14.133  16.157  11.674
47372W        W15766   5.529  23.382  11.457
47373W        W15767  15.246  22.018  14.986
47374W        W15768  17.696  19.295  12.031
47375W        W15769  21.095  37.250  10.727
47376W        W15770  43.083  33.928  11.248
47377W        W15771  24.320  12.429   0.772
47378W        W15772  36.924  25.810   1.012
47379W        W15773  20.184  27.258  12.404
47380W        W15774  14.122  38.042  12.973
47381W        W15775  29.086  10.150   3.292
47382W        W15776  10.069  28.997   4.054
47383W        W15777  15.008  35.271  12.551
47384W        W15778  20.410  29.498   0.894
47385W        W15779   6.440  29.480  10.784
47386W        W15780  34.890  38.068  11.649
47387W        W15781   5.824   9.776  14.029
47388W        W15782   8.505  13.788   1.432
47389W        W15783  16.371   5.970   1.280
47390W        W15784   8.848   3.409  13.283
47391W        W15785  26.773  20.709  13.916
47392W        W15786  15.524  37.927  11.078
47393W        W15787  41.563  16.800  13.384
47394W        W15788  22.413   1.746   0.889
47395W        W15789  43.544   0.893   2.314
47396W        W15790  36.535  28.073  10.821
47397W        W15791  31.014   4.762   4.129
47398W        W15792   1.788  32.700  12.360
47399W        W15793  32.512   7.654   3.894
47400W        W15794   8.916  11.938  11.882
47401W        W15795  34.329  20.663   2.252
47402W        W15796   2.702  14.896  13.505
47403W        W15797  23.879   9.137   5.285
47404W        W15798  36.683  27.067  14.251
47405W        W15799  20.576  15.393   0.764
47406W        W15800   3.000   1.778   2.707
47407W        W15801  22.743   5.585  11.197
47408W        W15802  40.207  37.617   2.896
47409W        W15803  29.082  28.708  11.596
47410W        W15804  39.427   5.988  12.978
47411W        W15805   6.966  18.747   0.206
47412W        W15806  25.510  34.282  14.370
47413W        W15807   6.913  33.159   1.998
47414W        W15808   2.388   5.073  10.973
47415W        W15809   3.278  39.523   0.844
47416W        W15810  34.630  14.228   4.864
47417W        W15811  34.984   7.488   1.301
47418W        W15812  26.597  16.015   0.867
47419W        W15813  28.165  13.592  11.119
47420W        W15814   1.594  44.054  12.113
47421W        W15815  24.614   2.258   0.715
47422W        W15816   9.807   8.685  11.022
47423W        W15817  27.163  32.075  14.897
47424W        W15818  24.818  32.542   4.629
47425W        W15819  36.549  12.894  14.076
47426W        W15820  11.639  11.570   0.153
47427W        W15821  36.621  31.040   2.884
47428W        W15822   4.261  44.961  11.923
47429W        W15823  26.530  19.677  14.038
47430W        W15824   0.390  26.005  12.529
47431W        W15825  16.714  13.208  14.446
47432W        W15826  22.554  19.803  12.401
47433W        W15827  21.101  35.019  12.002
47434W        W15828  10.742  36.368  13.934
47435W        W15829  14.237  36.566   1.850
47436W        W15830  11.766  23.231  12.415
47437W        W15831   8.894   6.757  14.924
47438W        W15832  13.860  34.532  11.450
47439W        W15833  16.515  26.139  14.305
47440W        W15834  31.915   4.615  11.048
47441W        W15835   2.002   6.750   2.667
47442W        W15836  37.742  37.310   4.062
47443W        W15837  10.396  28.011  11.466
47444W        W15838  10.451  16.726  13.819
47445W        W15839  32.238  32.203  10.088
47446W        W15840  33.714   0.699  14.947
47447W        W15841  31.364  21.241   2.957
47448W        W15842  21.392   5.666   1.302
47449W        W15843  39.457  38.900  14.993
47450W        W15844   1.317  30.297  12.837
47451W        W15845  32.191  32.924   1.228
47452W        W15846  23.878  18.339  11.086
47453W        W15847  20.860  10.339   4.855
47454W        W15848  16.394  14.720   1.900
47455W        W15849  40.248   7.909  10.738
47456W        W15850   6.099  11.630   0.291
47457W        W15851  26.660  10.150  13.832
47458W        W15852  29.957  25.845  13.022
47459W        W15853  39.492   2.398  11.153
47460W        W15854  23.784  16.705  13.772
47461W        W15855  17.870  27.500   0.700
47462W        W15856  12.802  40.823  14.566
47463W        W15857   0.247   6.290   1.904
47464W        W15858  33.397  23.266   0.490
47465W        W15859  26.714  44.838   0.133
47466W        W15860   3.497  42.285  11.133
47467W        W15861  19.734  39.529  13.872
47468W        W15862   3.312  32.017   2.345
47469W        W15863  22.433  26.939   2.878
47470W        W15864  18.691  13.321   1.679
47471W        W15865  24.276  12.688   0.304
47472W        W15866  27.958  37.240  14.661
47473W        W15867  22.137  35.905   2.295
47474W        W15868  14.676  35.104   2.617
47475W        W15869   6.488   1.753  14.229
47476W        W15870   1.389  23.231  13.804
47477W        W15871  17.788  43.020   4.907
47478W        W15872  21.060  10.099   4.445
47479W        W15873  27.243   2.265   1.793
47480W        W15874  31.487  12.785   4.462
47481W        W15875  12.091   9.370  14.851
47482W        W15876   1.813  36.806  13.946
47483W        W15877  30.092   4.110  10.848
47484W        W15878  19.298   2.973   0.801
47485W        W15879  41.830  10.327   3.485
47486W        W15880  26.672  36.937   4.074
47487W        W15881   3.616  24.062  10.647
47488W        W15882   4.293  37.821   4.368
47489W        W15883  30.986  10.349   0.237
47490W        W15884  16.573  28.454   1.369
47491W        W15885  25.727  35.485  13.542
47492W        W15886  16.103  30.693  10.788
47493W        W15887  32.970  38.011   1.835
47494W        W15888  27.983  36.674  14.534
47495W        W15889  18.951  44.698  13.103
47496W        W15890  32.479  17.070   3.341
47497W        W15891  41.566  18.987  14.383
47498W        W15892  24.246  18.016  14.808
47499W        W15893  29.084  23.397  12.556
47500W        W15894   7.107  21.073   0.186
47501W        W15895   5.310  42.447  12.360
47502W        W15896   8.186  20.563  13.432
47503W        W15897  17.876  21.004  11.402
47504W        W15898   0.957  39.314  12.160
47505W        W15899  31.611  23.079  14.365
47506W        W15900   3.923  24.710  11.383
47507W        W15901  35.826  29.423  12.666
47508W        W15902  29.845  37.450  11.505
47509W        W15903   4.146  34.371   0.948
47510W        W15904   0.284   1.378   3.834
47511W        W15905  28.697   7.871   1.754
47512W        W15906  43.262  32.134  12.441
47513W        W15907  10.653  38.410   4.872
47514W        W15908   2.982  41.839   4.635
47515W        W15909  31.683   0.422   3.351
47516W        W15910  18.631  35.975  11.449
47517W        W15911  11.877  43.324   0.783
47518W        W15912  27.139  33.697  10.285
47519W        W15913  26.226  32.633   1.146
47520W        W15914  36.990  37.363   1.465
47521W        W15915  21.892  18.388   2.314
47522W        W15916   8.830  12.068   3.149
47523W        W15917  37.306  31.422   4.283
47524W        W15918  17.705  24.694   0.943
47525W        W15919  35.730  18.510   5.020
47526W        W15920  15.098  13.832   3.934
47527W        W15921   6.724  17.365  14.551
47528W        W15922  24.237   2.768  12.981
47529W        W15923  16.317  15.152  13.501
47530W        W15924   9.201   2.234  10.120
47531W        W15925  19.319  23.901  11.396
47532W        W15926  41.892  44.364   0.424
47533W        W15927  32.500  21.787  13.841
47534W        W15928  26.204  13.234   0.337
47535W        W15929  43.304  17.079   2.888
47536W        W15930  25.259  11.881  12.623
47537W        W15931  34.567  11.910   0.544
47538W        W15932   5.599  16.362  11.906
47539W        W15933  14.187   0.505  11.282
47540W        W15934   4.725  20.301  10.643
47541W        W15935  34.846  26.014   0.397
47542W        W15936   7.165  32.028   3.287
47543W        W15937  10.615  37.408   5.354
47544W        W15938  30.027  31.874   0.250
47545W        W15939  38.492  30.991   2.264
47546W        W15940  42.967  17.067  14.320
47547W        W15941  33.644  14.693  12.543
47548W        W15942  35.196  34.965  10.618
47549W        W15943  27.308   0.936   4.567
47550W        W15944  26.211  26.166  11.643
47551W        W15945   0.007   2.357   2.186
47552W        W15946   6.176  42.562   2.178
47553W        W15947   3.595  38.156   1.822
47554W        W15948  27.276   0.832   3.219
47555W        W15949  19.815  37.164  10.115
47556W        W15950  43.553   1.763   0.256
47557W        W15951  40.551  36.290   2.523
47558W        W15952  16.887   8.181   0.792
47559W        W15953  44.784  34.645   2.304
47560W        W15954  32.639  36.861  10.624
47561W        W15955  15.130   7.208   1.346
47562W        W15956  41.583  15.902  13.857
47563W        W15957  29.794   7.793   3.601
47564W        W15958   6.327  31.980   0.885
47565W        W15959  32.715  26.191  14.033
47566W        W15960  42.569   3.429  11.474
47567W        W15961  32.054   3.231  13.991
47568W        W15962  29.339  22.066   3.291
47569W        W15963  11.371  11.739  13.458
47570W        W15964  26.261  44.276  10.934
47571W        W15965   9.319   8.329   4.589
47572W        W15966  23.094  12.372   0.305
47573W        W15967  15.302  36.509  11.079
47574W        W15968  39.325   8.416   1.758
47575W        W15969  27.484  23.179  13.267
47576W        W15970   7.415  14.527   3.654
47577W        W15971  40.303  35.818  12.613
47578W        W15972   8.486  31.276   0.714
47579W        W15973  44.845  23.484  14.556
47580W        W15974  17.699  14.685  10.516
47581W        W15975  30.379  44.434  11.941
47582W        W15976  19.073  21.016  12.394
47583W        W15977   9.840  31.494   1.333
47584W        W15978  33.255  22.057  12.143
47585W        W15979  15.692  38.766   0.304
47586W        W15980   2.846   4.148   1.663
47587W        W15981  25.610  25.080  10.634
47588W        W15982  23.797   8.957   3.073
47589W        W15983  37.481   0.072  12.754
47590W        W15984   1.725  33.474   3.069
47591W        W15985  25.876   8.261  12.404
47592W        W15986  34.052   8.707  11.556
47593W        W15987  24.679  41.552   1.532
47594W        W15988  39.349  29.487  13.914
47595W        W15989   8.998  41.443   0.560
47596W        W15990   6.248   8.194   4.666
47597W        W15991  18.533  26.927  14.474
47598W        W15992  16.607  36.007  13.306
47599W        W15993  43.597  29.054   3.360
47600W        W15994  25.631  12.564  13.028
47601W        W15995  13.168   4.020   0.392
47602W        W15996  17.705  36.940   9.935
47603W        W15997  35.614  37.092  11.300
47604W        W15998  41.139  38.403  12.130
47605W        W15999  41.995  33.359  13.062
47606W        W16000  17.090  14.223   4.287
47607W        W16001  30.256  18.311  12.121
47608W        W16002  21.787  24.753  14.986
47609W        W16003   9.596  30.901  11.968
47610W        W16004  19.686   4.253  11.758
47611W        W16005  31.250  10.778   2.733
47612W        W16006  42.298  32.892   4.520
47613W        W16007   7.718  21.967   5.160
47614W        W16008   9.518  41.256   3.233
47615W        W16009  23.145  22.340   3.577
47616W        W16010  21.449  15.629   2.309
47617W        W16011  22.125  24.679   1.658
47618W        W16012   8.348  14.322   1.764
47619W        W16013  43.987  22.501  12.174
47620W        W16014  32.997  11.334   1.525
47621W        W16015   7.300  35.950   4.182
47622W        W16016  38.767   1.808  11.235
47623W        W16017  32.328   4.253   3.071
47624W        W16018  27.387   0.030   3.681
47625W        W16019  40.856   3.218   2.898
47626W        W16020  21.730  40.912   1.658
47627W        W16021  19.020  36.715   4.765
47628W        W16022  26.571   0.067  12.887
47629W        W16023  31.552  25.524  13.233
47630W        W16024   8.411  13.763   0.103
47631W        W16025  23.864  31.357  14.266
47632W        W16026  16.676  24.247   0.390
47633W        W16027  42.832  33.410  14.217
47634W        W16028  15.229  43.857   0.559
47635W        W16029   3.020  26.652   0.768
47636W        W16030   5.201   3.417   1.037
47637W        W16031  27.539  27.591  12.409
47638W        W16032  24.664  44.721   1.732
47639W        W16033  30.272   9.878  10.558
47640W        W16034  27.080  30.718  10.972
47641W        W16035  41.846  33.418   0.835
47642W        W16036  21.030  11.564   4.344
47643W        W16037  25.798   0.349  10.544
47644W        W16038  25.697  33.905  13.483
47645W        W16039  10.799  19.190   0.263
47646W        W16040  32.260  40.677   0.999
47647W        W16041  23.545  13.989  12.554
47648W        W16042  11.905  32.357   4.061
47649W        W16043  39.875  27.756   2.691
47650W        W16044   2.217  12.675   0.298
47651W        W16045   3.339  44.185  14.954
47652W        W16046  39.506  22.152  13.914
47653W        W16047  30.417  25.673  12.833
47654W        W16048  19.356  21.735  13.539
47655W        W16049  10.385   1.232  14.633
47656W        W16050  11.286   2.257   0.561
47657W        W16051  36.765  36.551  14.232
47658W        W16052  43.401  18.305  11.196
47659W        W16053  19.476  35.292   3.628
47660W        W16054  21.735  42.803  12.719
47661W        W16055  39.806   7.824   3.799
47662W        W16056   2.956  11.164   1.797
47663W        W16057  26.544  32.150   0.245
47664W        W16058  40.210  33.573   3.599
47665W        W16059   3.665  42.792  12.223
47666W        W16060  34.454  19.461   3.267
47667W        W16061  16.815  39.884   2.901
47668W        W16062  27.944  35.554   4.520
47669W        W16063  33.694  31.246   0.001
47670W        W16064  24.681  40.368   2.885
47671W        W16065  34.001  30.050   3.292
47672W        W16066  22.672  27.876  12.530
47673W        W16067  40.023  42.596   1.399
47674W        W16068  22.656  17.721   0.176
47675W        W16069  35.810  29.218  11.135
47676W        W16070   5.360  14.825  12.078
47677W        W16071  17.547  36.023  12.888
47678W        W16072  28.098  24.909  13.191
47679W        W16073  18.427  36.204  12.617
47680W        W16074  21.072  44.310   3.196
47681W        W16075  31.360  12.780   2.271
47682W        W16076  35.599   0.257  12.900
47683W        W16077  35.664   3.555  11.928
47684W        W16078  39.025  37.059  13.844
47685W        W16079  30.711   6.968  14.729
47686W        W16080  32.253  16.681  10.235
47687W        W16081  22.711  34.584   3.835
47688W        W16082  44.256  18.049   0.421
47689W        W16083  42.039  25.455  13.871
47690W        W16084  31.925  14.354  14.439
47691W        W16085  12.817  29.443  11.678
47692W        W16086   0.050  39.445   1.803
47693W        W16087   6.298  38.862  14.961
47694W        W16088  28.739  34.797   0.152
47695W        W16089  32.634  38.586  14.886
47696W        W16090  43.155  40.891   1.872
47697W        W16091  31.862  12.148  14.930
47698W        W16092  20.004   7.404   1.276
47699W        W16093  23.241  18.299   1.722
47700W        W16094  42.429   9.845   2.865
47701W        W16095  30.941  43.321   3.222
47702W        W16096   4.844   8.199   0.839
47703W        W16097  10.704  42.648  11.569
47704W        W16098  27.526   2.625   1.580
47705W        W16099  38.184  18.102   3.864
47706W        W16100  36.876  38.394  11.459
47707W        W16101  35.584  22.783  13.783
47708W        W16102  34.364  20.735  11.662
47709W        W16103  40.858  20.106  10.504
47710W        W16104   1.802  27.310  14.174
47711W        W16105  13.155   4.836   2.408
47712W        W16106  27.773  15.730   0.396
47713W        W16107   0.907  37.037  12.544
47714W        W16108   0.317   3.798   1.799
47715W        W16109  17.374  27.677  13.911
47716W        W16110  41.147  39.171  14.486
47717W        W16111  36.769  25.151  14.853
47718W        W16112  11.694  36.768   2.829
47719W        W16113  21.195  23.291  11.092
47720W        W16114  24.102  34.565  12.852
47721W        W16115  39.501  35.037  10.633
47722W        W16116  39.008  36.758  11.042
47723W        W16117  12.740   3.160  10.509
47724W        W16118  29.738  44.656   5.016
47725W        W16119  26.116  31.011  13.787
47726W        W16120  11.042  15.048   4.473
47727W        W16121   2.405  36.915  11.186
47728W        W16122  39.357   9.607  12.074
47729W        W16123   7.806  33.307   2.925
47730W        W16124   5.723  18.787   3.139
47731W        W16125  36.108  12.634  13.952
47732W        W16126  39.337  16.687   5.011
47733W        W16127  14.698  16.125   4.727
47734W        W16128  18.020  27.920  12.141
47735W        W16129  23.183   9.407  14.348
47736W        W16130   7.749  22.129  10.743
47737W        W16131  37.891   4.247   3.790
47738W        W16132  14.804  41.422  14.463
47739W        W16133   2.503   1.059  12.596
47740W        W16134   9.434  17.317  13.944
47741W        W16135  42.991  28.122   2.878
47742W        W16136  38.031  23.930  13.485
47743W        W16137  38.573  16.425   0.382
47744W        W16138   0.944  44.208  11.208
47745W        W16139   6.551  30.464   2.450
47746W        W16140  36.124  44.985   3.247
47747W        W16141  27.441   2.549  11.220
47748W        W16142  21.156  12.190   4.655
47749W        W16143  30.974  29.924   1.263
47750W        W16144  29.542  35.527   3.934
47751W        W16145  35.382  29.598   3.392
47752W        W16146  30.154  31.051  11.911
47753W        W16147  16.768  31.616  12.133
47754W        W16148  18.336  16.249  12.622
47755W        W16149  34.815  20.343  11.201
47756W        W16150  22.369  17.584  10.271
47757W        W16151  44.334   4.557  14.065
47758W        W16152  16.660   5.331   3.780
47759W        W16153  12.178  20.074  14.898
47760W        W16154   7.752  16.848  13.126
47761W        W16155  16.020   3.912   0.461
47762W        W16156  33.951   6.398  13.847
47763W        W16157  20.499  39.864   0.840
47764W        W16158   7.302  44.375   3.709
47765W        W16159  15.266  10.229  10.765
47766W        W16160  20.114   3.222  12.364
47767W        W16161  19.868   1.962   1.925
47768W        W16162  19.003  11.225   1.635
47769W        W16163  27.099  32.876   3.491
47770W        W16164   5.876  12.155   4.178
47771W        W16165   0.842  41.393  14.308
47772W        W16166  12.142  33.278  11.615
47773W        W16167  25.370   1.668   4.582
47774W        W16168  24.486  18.533  12.872
47775W        W16169  39.873  42.800   3.929
47776W        W16170   5.641  26.049   1.415
47777W        W16171   9.039  25.626   5.103
47778W        W16172  32.018  34.201  12.056
47779W        W16173  32.661  35.986   2.332
47780W        W16174  39.950   2.759  14.880
47781W        W16175  23.581  19.596   1.319
47782W        W16176  36.198   6.450   0.805
47783W        W16177  11.719   0.398   1.923
47784W        W16178  26.128  12.499  14.293
47785W        W16179  36.089  15.781  13.345
47786W        W16180   7.711   1.735   2.886
47787W        W16181   9.938   6.513  11.233
47788W        W16182  43.371  25.783  12.067
47789W        W16183  22.239  41.348   4.125
47790W        W16184  35.866  32.633  14.266
47791W        W16185   5.047  43.044   4.985
47792W        W16186  40.972  13.527   3.117
47793W        W16187  37.672  37.399  13.276
47794W        W16188   4.739  31.593  12.236
47795W        W16189  41.277  29.536  14.825
47796W        W16190  41.774  43.837   0.590
47797W        W16191  18.287  32.753  11.464
47798W        W16192   9.340  15.815   1.815
47799W        W16193  11.414  42.773  10.930
47800W        W16194  32.670   4.221   4.508
47801W        W16195   8.193  15.206   3.343
47802W        W16196  30.571   4.387   1.258
47803W        W16197  41.828  10.408   1.847
47804W        W16198  30.574  13.588  11.544
47805W        W16199  44.434  39.424   4.483
47806W        W16200   2.227   7.924   4.781
47807W        W16201  11.311  34.505  13.980
47808W        W16202  35.129   4.546  10.733
47809W        W16203  25.984  44.084  13.732
47810W        W16204  31.684  32.909  12.002
47811W        W16205   1.849  38.419   2.906
47812W        W16206  22.785  21.674   2.812
47813W        W16207  40.282  31.364   1.279
47814W        W16208  16.214   8.929  14.753
47815W        W16209   3.142  40.144  13.395
47816W        W16210  19.688  41.486  11.005
47817W        W16211  28.150  25.378   4.558
47818W        W16212  41.634  22.219  14.874
47819W        W16213  43.154  35.708  11.503
47820W        W16214  31.617  30.159  12.434
47821W        W16215  41.399  43.966   1.540
47822W        W16216   9.745  44.350   3.363
47823W        W16217  11.773   6.194   3.869
47824W        W16218  29.082  22.450  12.308
47825W        W16219  30.925   9.743  12.972
47826W        W16220  12.800  18.232   3.190
47827W        W16221  11.814   7.173  13.714
47828W        W16222   9.792   8.183   4.763
47829W        W16223   5.084   2.838   0.407
47830W        W16224  17.558  39.914  11.561
47831W        W16225  40.506  14.463   0.835
47832W        W16226   3.873  33.632  12.101
47833W        W16227  30.047  20.416  12.987
47834W        W16228  38.002  20.906   1.841
47835W        W16229   4.685  30.627   2.169
47836W        W16230   9.709  24.470  10.551
47837W        W16231  17.245  32.733  14.667
47838W        W16232  24.540  27.383   0.049
47839W        W16233  15.957  31.885   4.116
47840W        W16234  11.214   7.733   1.358
47841W        W16235   6.680  42.498   4.730
47842W        W16236  26.157  36.864   4.070
47843W        W16237  18.775  15.161  14.434
47844W        W16238   3.537   2.112  13.803
47845W        W16239  14.144  13.618   0.343
47846W        W16240  12.111  23.609  12.027
47847W        W16241  30.201   9.250  14.995
47848W        W16242   3.836  25.937  13.786
47849W        W16243  42.640   9.215  13.414
47850W        W16244  39.322   2.502   4.053
47851W        W16245  29.953  40.531   4.789
47852W        W16246  35.578  42.482   0.046
47853W        W16247   8.336  43.892  12.035
47854W        W16248   9.792   6.329  10.757
47855W        W16249  29.497  14.087   1.256
47856W        W16250   7.396  21.695   0.833
47857W        W16251  44.671   7.326   3.532
47858W        W16252  37.487  28.435   2.388
47859W        W16253  23.588  44.973   3.586
47860W        W16254  29.545  26.585  14.080
47861W        W16255  21.924  36.874  10.804
47862W        W16256  26.082  21.063   2.846
47863W        W16257  21.938  33.715  11.086
47864W        W16258  32.682  16.093  13.883
47865W        W16259  31.236   3.245  14.725
47866W        W16260  40.245  13.888   4.610
47867W        W16261  34.921  36.534  12.453
47868W        W16262  15.729  30.414  11.631
47869W        W16263  17.625  32.852   3.647
47870W        W16264  31.539  43.796   3.805
47871W        W16265  13.060  37.984  14.968
47872W        W16266  17.802  31.106   2.804
47873W        W16267  35.931  21.521  10.785
47874W        W16268  38.547  44.750   3.543
47875W        W16269  43.731  24.150  14.403
47876W        W16270  43.458  42.989  13.916
47877W        W16271  39.797  24.585   3.768
47878W        W16272  39.053   1.060  11.600
47879W        W16273  21.136  18.786   1.856
47880W        W16274  14.760  40.799  13.954
47881W        W16275  17.761   0.804  12.263
47882W        W16276   7.858  43.287  11.078
47883W        W16277  15.931  21.212   2.821
47884W        W16278  28.810  41.327  12.688
47885W        W16279  19.754  11.368   3.714
47886W        W16280   1.622  25.688  11.006
47887W        W16281  24.979   7.678  14.583
47888W        W16282  31.836  18.010   0.862
47889W        W16283   1.256  10.740   0.485
47890W        W16284  36.438  41.304   2.781
47891W        W16285  42.427  31.468   1.754
47892W        W16286  12.766  40.742  12.553
47893W        W16287  25.833   4.302   1.686
47894W        W16288  19.381   5.804   1.761
47895W        W16289  39.592  23.938  14.349
47896W        W16290  16.300   3.727   0.891
47897W        W16291  23.518   0.811   3.217
47898W        W16292  41.244  22.744   4.970
47899W        W16293  44.859  14.107  14.958
47900W        W16294  11.889  19.247  10.842
47901W        W16295  21.255   2.500   3.700
47902W        W16296   0.946  24.670   0.000
47903W        W16297   8.642  27.587   2.363
47904W        W16298  11.711  11.770  11.412
47905W        W16299   7.196  21.129   4.325
47906W        W16300  37.953  21.994   2.763
47907W        W16301  33.377  37.430  12.788
47908W        W16302  37.053  23.275  14.813
47909W        W16303  11.121  30.427  11.034
47910W        W16304  21.313  33.192  11.547
47911W        W16305  31.469  41.071   4.613
47912W        W16306  26.498  19.961  11.681
47913W        W16307  22.215   8.548   2.633
47914W        W16308  43.016   9.152   3.387
47915W        W16309  19.070   7.664   3.694
47916W        W16310  23.070   6.493  10.682
47917W        W16311   5.402  25.140   4.021
47918W        W16312  41.247  24.947   1.600
47919W        W16313   8.634   6.529   0.332
47920W        W16314  23.534  30.546  13.764
47921W        W16315   1.322   1.045  11.940
47922W        W16316   8.931  16.761  14.181
47923W        W16317  21.735  22.753   1.010
47924W        W16318   5.905  21.053  11.170
47925W        W16319  20.215  18.283   0.060
47926W        W16320  16.766  20.529  10.464
47927W        W16321  10.018   1.700   2.353
47928W        W16322  26.610   3.875   0.485
47929W        W16323  28.147  41.394   2.361
47930W        W16324   2.901  14.874  12.064
47931W        W16325  11.990  24.536  14.047
47932W        W16326  23.950  15.182   3.717
47933W        W16327  35.120  43.399   5.039
47934W        W16328   2.332  35.333  14.512
47935W        W16329  37.893   5.340   0.873
47936W        W16330   1.960  11.894  13.521
47937W        W16331  36.506  22.000   1.649
47938W        W16332  27.463  15.015  14.851
47939W        W16333  13.370   2.832  11.547
47940W        W16334   5.751   0.563   1.052
47941W        W16335   4.338  42.814   0.290
47942W        W16336  40.743  44.775   0.757
47943W        W16337  10.286  31.468  12.322
47944W        W16338  43.453  24.415   2.437
47945W        W16339  22.891  44.220   3.679
47946W        W16340  43.492  10.240  14.498
47947W        W16341  24.239   9.871   3.653
47948W        W16342   9.262  43.032   1.067
47949W        W16343  30.355   6.331   1.310
47950W        W16344  23.147  12.680   2.770
47951W        W16345  30.402   8.890   2.788
47952W        W16346  39.953  42.049  12.450
47953W        W16347  24.141   5.212  14.271
47954W        W16348  20.196  21.594   4.186
47955W        W16349   0.629  43.647  14.958
47956W        W16350  37.452   8.197  12.373
47957W        W16351   9.607  34.502   0.227
47958W        W16352  17.409  22.928  12.778
47959W        W16353  39.068  26.180   3.212
47960W        W16354  28.331  38.671  10.341
47961W        W16355  30.427  40.789  12.432
47962W        W16356  25.301  33.841  12.086
47963W        W16357  28.433  24.916   0.968
47964W        W16358  10.377  28.341  12.970
47965W        W16359  11.439  21.036   0.496
47966W        W16360  27.907  13.830  13.595
47967W        W16361  26.080  15.000   3.193
47968W        W16362  26.757  17.562   1.735
47969W        W16363  22.733  12.694   1.303
47970W        W16364  36.566  13.540   0.748
47971W        W16365  16.534  43.867   3.916
47972W        W16366  26.673  42.395  12.101
47973W        W16367  35.838  19.286  12.022
47974W        W16368  43.357  30.868   4.857
47975W        W16369   0.596  17.176  14.818
47976W        W16370  14.536  23.141   0.862
47977W        W16371   6.432   6.946  10.565
47978W        W16372   3.391   9.855  13.980
47979W        W16373  28.100   9.784   3.066
47980W        W16374  29.344   5.195  10.750
47981W        W16375  38.748  21.015  12.582
47982W        W16376  24.276  34.865  12.008
47983W        W16377  19.239  19.764   3.116
47984W        W16378   0.865  26.217  12.028
47985W        W16379  15.606  43.053   4.583
47986W        W16380   1.446  11.309   1.168
47987W        W16381  36.598  42.837  12.616
47988W        W16382   9.177   4.312  13.209
47989W        W16383   1.195  29.105  11.692
47990W        W16384  25.522   1.106  12.603
47991W        W16385  39.731  13.732   2.622
47992W        W16386   6.588  28.659  11.944
47993W        W16387  22.752   2.512  14.004
47994W        W16388   1.706  26.099  12.705
47995W        W16389  24.727  20.150  12.106
47996W        W16390  39.953  24.962   4.683
47997W        W16391  12.274  19.738  11.535
47998W        W16392  17.706  14.677   4.538
47999W        W16393  24.022  35.545  11.659
48000W        W16394   0.856   9.144   2.703
48001W        W16395  16.828  32.316   2.483
48002W        W16396  23.437  14.798  11.558
48003W        W16397  11.534  17.391   5.049
48004W        W16398  32.564  39.438   3.212
48005W        W16399   3.650  18.123  14.114
48006W        W16400  13.456  40.415  11.840
48007W        W16401  40.964  31.995  10.767
48008W        W16402  27.124  18.524  10.742
48009W        W16403  22.188  18.474   2.773
48010W        W16404  41.549  14.663   3.222
48011W        W16405  15.850  25.331  12.496
48012W        W16406  27.939  33.377  11.550
48013W        W16407   2.918  19.835   1.821
48014W        W16408   8.690  15.851   4.827
48015W        W16409  43.890  16.942   2.083
48016W        W16410  28.245  42.782  11.587
48017W        W16411  34.376   7.391  13.412
48018W        W16412  17.272   2.853   2.738
48019W        W16413  16.052   5.926  11.912
48020W        W16414  17.001  21.648   4.164
48021W        W16415  15.403   4.981   5.438
48022W        W16416  28.074   1.854   1.122
48023W        W16417  21.681  27.686  10.294
48024W        W16418   5.771   3.569  13.294
48025W        W16419  10.399  27.472   0.707
48026W        W16420  39.397   5.642   0.478
48027W        W16421   3.707  42.065  14.406
48028W        W16422   5.693  12.563  10.378
48029W        W16423  12.335   2.696  13.051
48030W        W16424   2.749  44.076   1.180
48031W        W16425  31.636  29.535  10.602
48032W        W16426  29.782  30.489   5.187
48033W        W16427   6.367  20.496   0.520
48034W        W16428  18.111   9.165   3.331
48035W        W16429  14.803  30.613   0.766
48036W        W16430  36.281  40.420  11.578
48037W        W16431  10.722  27.804   1.220
48038W        W16432  41.866   9.179  12.605
48039W        W16433  34.437   9.296  11.610
48040W        W16434   9.349  33.173  14.268
48041W        W16435  16.020  41.458  13.805
48042W        W16436   6.778  15.702  11.862
48043W        W16437  18.235  39.590  11.854
48044W        W16438  31.133  16.764   0.811
48045W        W16439  33.539  18.728   1.693
48046W        W16440  39.107  36.873   2.619
48047W        W16441  27.133  38.064  12.583
48048W        W16442  41.609  27.075   3.310
48049W        W16443   0.557   0.912  12.632
48050W        W16444  30.973  31.676  14.150
48051W        W16445  27.454  29.403   2.277
48052W        W16446  17.353   7.623   1.759
48053W        W16447  27.007  14.014   2.325
48054W        W16448  26.887  42.392  14.024
48055W        W16449  39.633  16.135  14.516
48056W        W16450  20.001   8.248   0.764
48057W        W16451  34.395  19.212  12.922
48058W        W16452  42.026  37.491   3.770
48059W        W16453  20.295  30.063  10.124
48060W        W16454  17.417   0.478  14.931
48061W        W16455   2.713  18.798   0.826
48062W        W16456  27.475   2.717   2.115
48063W        W16457  39.797   2.828   4.590
48064W        W16458  43.773  19.707  14.486
48065W        W16459  34.887  37.046  12.486
48066W        W16460  19.256  38.063  14.862
48067W        W16461  26.781  25.181  13.379
48068W        W16462   2.754  37.736   1.409
48069W        W16463  37.558  20.071   3.412
48070W        W16464  38.139  19.185  13.741
48071W        W16465   5.358  12.912   1.537
48072W        W16466  44.259   8.774  12.344
48073W        W16467  10.828  30.318   2.146
48074W        W16468  16.040  35.965   1.464
48075W        W16469  44.586  40.240   4.960
48076W        W16470  28.321  13.676  12.654
48077W        W16471  32.430  28.384   2.260
48078W        W16472   4.922   9.111   0.488
48079W        W16473   4.738  16.202  12.940
48080W        W16474  26.521  12.272   4.122
48081W        W16475  10.426  10.768   3.336
48082W        W16476  41.795  36.483   0.211
48083W        W16477   3.823   7.403  14.422
48084W        W16478   9.780  43.403  14.586
48085W        W16479  36.833  29.229  11.862
48086W        W16480  24.752   5.421  10.326
48087W        W16481  22.755   3.282   3.530
48088W        W16482  43.239  24.948   1.690
48089W        W16483  26.548  38.551   0.245
48090W        W16484  26.843  42.051  10.421
48091W        W16485  23.974  31.953   1.262
48092W        W16486  15.946   7.076  14.055
48093W        W16487   6.051  42.436   1.296
48094W        W16488  13.355  22.976   3.764
48095W        W16489  34.995   3.950  12.647
48096W        W16490  39.178   0.761  13.968
48097W        W16491   5.149   1.341  10.468
48098W        W16492  13.091  28.942   5.071
48099W        W16493  24.395   4.637   5.088
48100W        W16494  14.706  14.694   0.510
48101W        W16495  28.115  34.519   1.815
48102W        W16496  13.171  21.501   4.553
48103W        W16497   1.458  28.446   0.721
48104W        W16498   4.369  14.417  12.966
48105W        W16499  43.320  20.816   3.222
48106W        W16500   6.709  41.759  13.416
48107W        W16501  17.332  29.711   1.728
48108W        W16502  10.366  20.427  13.770
48109W        W16503   6.308   8.872  10.644
48110W        W16504  22.803  24.152   0.397
48111W        W16505   4.198   3.330   1.885
48112W        W16506   1.796  23.719   1.385
48113W        W16507  14.242   8.216  11.724
48114W        W16508  44.620   8.138   1.174
48115W        W16509  24.286  43.477   2.686
48116W        W16510  38.585  39.980   1.463
48117W        W16511   3.817  20.253  12.653
48118W        W16512  16.014   3.219  11.655
48119W        W16513  28.551  35.046  11.388
48120W        W16514  27.173   5.638  12.877
48121W        W16515  24.735  30.874  11.621
48122W        W16516  27.159   8.801  13.554
48123W        W16517  32.403   4.229  11.589
48124W        W16518  12.119  19.213   1.724
48125W        W16519  43.822  26.926   3.748
48126W        W16520  37.817   3.547   1.525
48127W        W16521  18.013  25.671   2.644
48128W        W16522  11.705  29.372   4.009
48129W        W16523  37.877  21.048   2.327
48130W        W16524  44.408  20.874  10.925
48131W        W16525  29.602  12.642   2.637
48132W        W16526  34.835  29.151   4.074
48133W        W16527  31.644  22.730  13.563
48134W        W16528   1.479   0.281   3.855
48135W        W16529  32.460  22.620   2.357
48136W        W16530   4.241  44.043  14.955
48137W        W16531  23.013  39.397   0.357
48138W        W16532   7.977  10.304   3.230
48139W        W16533  43.024  25.834  14.007
48140W        W16534  43.973  39.900   3.327
48141W        W16535  34.479  42.827  10.940
48142W        W16536  24.546  20.807  11.037
48143W        W16537  41.961  19.610   3.292
48144W        W16538   9.314  15.598  10.318
48145W        W16539  20.957   8.923   3.779
48146W        W16540  17.759  31.184  11.315
48147W        W16541   5.390  38.772  12.147
48148W        W16542   3.462  41.594   4.223
48149W        W16543   9.807  21.533  14.560
48150W        W16544   8.648   3.327  11.501
48151W        W16545   5.067  19.578   3.574
48152W        W16546  19.746  33.827  14.338
48153W        W16547   9.432  14.568   2.471
48154W        W16548  33.813  14.183   3.822
48155W        W16549  16.241  34.545   0.968
48156W        W16550  29.673  11.290   4.757
48157W        W16551  34.096  13.771  14.280
48158W        W16552  39.849  29.280   2.670
48159W        W16553  22.125   5.851   2.197
48160W        W16554  43.795  29.953   2.440
48161W        W16555   7.342  28.726   4.393
48162W        W16556  33.254  17.940  10.041
48163W        W16557   1.021  43.266   2.898
48164W        W16558  35.361  38.730   3.550
48165W        W16559   1.884  10.635  13.138
48166W        W16560  10.770  18.617   0.916
48167W        W16561  17.374  43.788   4.109
48168W        W16562  16.426  31.863  11.014
48169W        W16563  38.366  38.127  12.868
48170W        W16564  11.103  30.629  14.318
48171W        W16565  41.130  15.234  13.368
48172W        W16566  40.127  44.669  14.352
48173W        W16567   0.767   8.287   1.207
48174W        W16568  14.044   8.327   3.745
48175W        W16569  28.970   2.157  14.048
48176W        W16570  21.105   0.856   4.192
48177W        W16571  13.047  22.164  13.510
48178W        W16572  37.943   4.323  10.830
48179W        W16573   3.312  35.842   2.717
48180W        W16574  41.243  22.614   2.247
48181W        W16575  36.918  38.370  13.456
48182W        W16576  40.025  15.227  11.920
48183W        W16577  24.884   6.842  14.878
48184W        W16578  35.464  38.488   2.603
48185W        W16579  19.247  17.240  12.387
48186W        W16580  32.606  16.844  10.579
48187W        W16581  13.867  33.646   3.175
48188W        W16582   6.437  44.650   3.571
48189W        W16583   0.206  15.748  11.057
48190W        W16584  27.649  14.327  10.684
48191W        W16585   3.019  40.348   2.873
48192W        W16586  33.637  23.573   3.658
48193W        W16587  33.848  37.108  11.038
48194W        W16588  25.172  34.408  10.975
48195W        W16589  41.831  28.127   2.789
48196W        W16590  16.265  18.806   4.675
48197W        W16591   1.024  39.235  10.878
48198W        W16592   6.205  41.738  10.621
48199W        W16593  10.636  29.061   2.710
48200W        W16594  24.843   5.715  13.607
48201W        W16595  29.670  33.697  12.707
48202W        W16596  28.232  39.881  10.729
48203W        W16597   2.797   7.402  14.517
48204W        W16598   1.826  30.162   1.642
48205W        W16599  36.653  31.215   0.122
48206W        W16600  41.519  25.003  12.074
48207W        W16601  41.017  29.117   0.025
48208W        W16602  10.669  14.763  12.490
48209W        W16603   0.237   8.711   4.836
48210W        W16604  41.864  16.422   2.367
48211W        W16605  43.282  40.293   4.165
48212W        W16606  42.995  29.146  13.494
48213W        W16607  29.110  20.830  13.480
48214W        W16608   2.209  34.764   5.003
48215W        W16609  28.011  27.416  13.406
48216W        W16610   1.737  26.548   3.667
48217W        W16611   3.706   5.763   4.639
48218W        W16612  33.270  33.171  12.113
48219W        W16613  44.074  40.913   4.239
48220W        W16614  26.508  24.682  11.040
48221W        W16615  10.354  25.413   5.032
48222W        W16616  27.516  34.062  13.284
48223W        W16617   8.874  42.980   3.887
48224W        W16618  16.999  22.044   2.941
48225W        W16619  23.962  35.112   0.490
48226W        W16620  28.705  42.117  10.666
48227W        W16621  25.098  37.553   1.863
48228W        W16622  25.434  41.226  13.907
48229W        W16623   6.950  25.606   1.238
48230W        W16624  13.664  11.710   4.200
48231W        W16625   9.864  15.228   2.123
48232W        W16626  27.880  27.408  14.347
48233W        W16627  10.541  24.747   3.205
48234W        W16628   9.278   4.626   4.502
48235W        W16629  39.549  36.890   1.098
48236W        W16630  32.562  10.145   1.719
48237W        W16631  41.853  41.523  12.559
48238W        W16632  12.209  30.945  14.639
48239W        W16633   6.346  19.175  10.703
48240W        W16634  42.421  22.696  13.064
48241W        W16635  21.057  39.245   1.336
48242W        W16636  12.311  37.692   3.841
48243W        W16637  10.237  27.767   3.771
48244W        W16638   0.513  10.985   2.938
48245W        W16639  41.471   0.685  11.515
48246W        W16640  42.505  23.412  12.603
48247W        W16641  36.135   7.831  11.698
48248W        W16642   2.619   0.781   3.625
48249W        W16643  15.887  14.626  14.480
48250W        W16644  23.758  29.453   2.046
48251W        W16645  17.113  44.406  10.036
48252W        W16646  17.344  36.167  10.129
48253W        W16647  29.297   5.156   3.331
48254W        W16648   0.569  17.646   1.419
48255W        W16649  15.794  33.484  11.534
48256W        W16650  22.702  29.113  14.298
48257W        W16651  23.049   7.080   1.963
48258W        W16652  14.664   1.773  10.804
48259W        W16653  13.813  22.793  11.054
48260W        W16654  25.527  24.301   1.932
48261W        W16655  24.114  43.633   4.569
48262W        W16656  44.939   7.935  14.486
48263W        W16657  11.112  44.282   1.431
48264W        W16658  18.249  29.710   0.447
48265W        W16659  25.936  32.373  14.604
48266W        W16660   2.987  13.770  14.531
48267W        W16661  36.261  28.997  13.805
48268W        W16662   1.841  28.464  11.536
48269W        W16663  35.930  33.487  12.479
48270W        W16664  30.436  39.059  13.907
48271W        W16665   4.038  37.015   0.466
48272W        W16666   5.054   7.926   4.334
48273W        W16667  11.599  15.485   0.409
48274W        W16668  20.708  10.630  10.488
48275W        W16669  34.239  18.606  14.567
48276W        W16670  18.695  38.232  11.618
48277W        W16671  43.352  38.432   4.210
48278W        W16672  32.053  14.133  13.439
48279W        W16673  24.484   6.149   0.380
48280W        W16674  29.130  28.903  13.919
48281W        W16675  20.316  13.697   4.049
48282W        W16676  39.118  36.441  13.386
48283W        W16677  41.347  22.262  13.480
48284W        W16678  21.812  42.385  11.137
48285W        W16679   8.621  35.542   3.978
48286W        W16680   0.366  42.714  10.766
48287W        W16681  39.718  33.813   3.562
48288W        W16682   4.759  11.692  11.545
48289W        W16683  38.418  29.492   3.745
48290W        W16684  29.394  10.128  12.208
48291W        W16685   4.905  37.378  14.375
48292W        W16686   4.179  12.704   0.830
48293W        W16687  29.494  36.873  10.386
48294W        W16688  38.573   0.856  11.588
48295W        W16689  15.945   7.253   1.924
48296W        W16690   0.423  18.073  14.197
48297W        W16691  25.456  35.397  10.652
48298W        W16692  33.033  10.627   3.259
48299W        W16693  21.893  33.071  11.697
48300W        W16694  19.660  24.994   3.230
48301W        W16695  21.252  26.769   4.582
48302W        W16696  29.220  27.557  11.710
48303W        W16697  24.970   1.521   1.459
48304W        W16698  32.405  30.437  11.593
48305W        W16699   2.321  16.751   0.382
48306W        W16700   1.741  36.692  10.962
48307W        W16701   7.482   9.089  11.130
48308W        W16702   5.425  25.502  14.730
48309W        W16703  13.686   3.918   0.360
48310W        W16704  21.446  28.028   4.516
48311W        W16705   5.160   5.340   4.417
48312W        W16706   5.972  42.742  14.333
48313W        W16707  26.118  39.486   3.079
48314W        W16708  11.338  32.110  12.392
48315W        W16709   8.017   1.901  11.677
48316W        W16710  12.804  39.797   4.165
48317W        W16711  37.958  17.674   4.530
48318W        W16712   4.441  18.724   1.518
48319W        W16713  17.608  42.647   0.410
48320W        W16714   7.166  40.578  14.603
48321W        W16715  40.559  14.614   3.366
48322W        W16716   2.070  27.205   2.168
48323W        W16717   7.916  39.868  11.631
48324W        W16718  41.307  26.019   1.307
48325W        W16719  34.538  42.942  10.429
48326W        W16720  24.202  43.283   3.814
48327W        W16721  40.795  42.737   3.453
48328W        W16722  24.296  14.897  12.053
48329W        W16723  36.439  42.739  12.108
48330W        W16724  28.491  42.556  12.417
48331W        W16725  16.695  31.591   1.774
48332W        W16726  28.691  13.276  12.950
48333W        W16727  36.653  29.059  12.954
48334W        W16728  19.309   6.126   0.597
48335W        W16729  22.444  12.703  11.553
48336W        W16730  11.696  42.063   1.327
48337W        W16731  19.511   9.896   3.060
48338W        W16732  11.529   5.977   1.438
48339W        W16733   1.771  40.846  13.539
48340W        W16734  24.885  40.198   1.449
48341W        W16735  35.331   7.445  12.680
48342W        W16736  42.052  14.827   4.664
48343W        W16737  17.163  44.742   4.398
48344W        W16738  21.577  17.782   0.877
48345W        W16739  12.388  23.724   1.314
48346W        W16740   4.913  14.577  12.378
48347W        W16741  33.265  19.154  11.250
48348W        W16742  27.229  25.403  11.125
48349W        W16743  27.704  39.900   2.392
48350W        W16744  30.405  26.017   4.949
48351W        W16745  13.235  39.842  12.893
48352W        W16746  30.263  38.836  14.346
48353W        W16747  20.234  35.310   1.978
48354W        W16748   6.270  44.740  10.300
48355W        W16749   6.658  14.794  10.743
48356W        W16750  25.586  25.717  12.934
48357W        W16751   5.861   4.937  11.875
48358W        W16752   2.418  29.562  13.940
48359W        W16753  36.572  18.817   3.721
48360W        W16754  40.067  23.633   3.165
48361W        W16755   3.074  19.846  11.718
48362W        W16756  39.028   9.732   1.866
48363W        W16757  25.758  35.938   4.064
48364W        W16758  43.940  19.125   3.340
48365W        W16759  23.853  43.777   0.362
48366W        W16760   2.441   3.863   0.288
48367W        W16761   0.967   0.430  10.341
48368W        W16762  40.915  40.448  12.590
48369W        W16763   0.248  21.955   3.925
48370W        W16764   4.365  35.074   1.230
48371W        W16765   0.510  24.450   3.762
48372W        W16766  26.017  32.598  13.620
48373W        W16767  44.007  10.357  11.599
48374W        W16768  15.787  29.829  10.433
48375W        W16769   6.282   9.982  12.978
48376W        W16770  27.645  27.701   0.192
48377W        W16771   4.244  40.351   0.568
48378W        W16772  31.417   1.243   3.961
48379W        W16773  24.721   8.010  11.523
48380W        W16774  12.092  32.354  14.858
48381W        W16775  25.326   4.457   1.685
48382W        W16776  20.996  38.431  13.105
48383W        W16777   4.859  34.871  14.199
48384W        W16778   9.848  36.130   0.714
48385W        W16779   4.344  35.506   3.705
48386W        W16780  26.575   6.250  11.590
48387W        W16781  21.489  39.537  12.484
48388W        W16782  16.907  44.778  14.443
48389W        W16783  19.667  40.919   3.909
48390W        W16784  32.359  32.334  11.584
48391W        W16785  10.124  10.940   3.810
48392W        W16786  13.600  35.604   3.688
48393W        W16787   1.993   0.446   1.612
48394W        W16788  26.687  38.312  12.473
48395W        W16789   9.217  16.108   1.383
48396W        W16790  10.750   7.693   4.513
48397W        W16791  26.944  19.189  12.061
48398W        W16792  11.238  43.870   0.466
48399W        W16793  34.185  39.031   2.437
48400W        W16794  32.338  19.762   1.024
48401W        W16795   9.846   1.957   0.255
48402W        W16796   5.820  24.308   1.403
48403W        W16797  24.430  25.729  13.916
48404W        W16798  26.233  31.084   2.289
48405W        W16799  22.273  36.018   0.988
48406W        W16800  26.247  40.215   1.263
48407W        W16801  35.637  27.191   0.007
48408W        W16802  42.720  26.065  14.351
48409W        W16803  25.658  34.919  10.600
48410W        W16804  34.402  16.706  13.811
48411W        W16805   8.839  22.649   2.253
48412W        W16806   2.323  37.825  14.467
48413W        W16807  25.019  24.066  11.587
48414W        W16808  32.927  17.207  12.132
48415W        W16809  37.322  24.473  12.193
48416W        W16810   8.292   7.958   0.269
48417W        W16811  40.449  37.053  13.367
48418W        W16812  12.869  12.536  14.368
48419W        W16813  13.119  10.704  14.449
48420W        W16814  13.795  33.485  14.206
48421W        W16815  25.779  43.093   4.868
48422W        W16816  28.611  37.130   4.002
48423W        W16817   5.569  43.689  11.192
48424W        W16818  27.088  35.463  13.411
48425W        W16819  29.859   6.679  10.684
48426W        W16820  29.621  41.458  14.932
48427W        W16821  41.568  10.246   0.203
48428W        W16822   4.955  24.150   1.632
48429W        W16823  43.130   1.367  14.208
48430W        W16824  17.624   1.929   1.358
48431W        W16825  13.264   1.262   3.574
48432W        W16826  26.450   8.305   0.399
48433W        W16827  15.655  11.090  14.206
48434W        W16828  38.034  42.444  13.514
48435W        W16829  37.729  39.377   2.896
48436W        W16830  16.184   4.344  11.170
48437W        W16831   5.220   1.948   1.273
48438W        W16832   4.010   7.817  12.537
48439W        W16833  40.535  14.966   0.912
48440W        W16834   5.124  12.277   3.732
48441W        W16835  24.830  26.151   3.828
48442W        W16836   5.179  16.292  10.620
48443W        W16837  26.912  18.568  12.505
48444W        W16838  35.039  43.010  12.206
48445W        W16839   4.503  15.747  13.980
48446W        W16840   0.229  16.565  13.581
48447W        W16841  26.146   9.518  14.808
48448W        W16842  44.978   3.459   4.519
48449W        W16843  25.147   1.349  14.130
48450W        W16844   9.738  44.279  10.610
48451W        W16845  25.962   2.078  14.608
48452W        W16846   3.067   0.421   0.280
48453W        W16847  43.743   1.605  13.553
48454W        W16848  26.286  43.450  13.405
48455W        W16849  24.960  22.047   3.845
48456W        W16850  27.199  12.155   0.494
48457W        W16851   0.588  41.457   1.963
48458W        W16852  36.076   5.073   2.590
48459W        W16853  38.320  42.851   2.569
48460W        W16854  27.925   1.835  10.262
48461W        W16855   1.933  40.707  13.997
48462W        W16856  17.705  16.527  11.395
48463W        W16857  12.907  29.131   3.257
48464W        W16858  22.555  15.271  13.062
48465W        W16859  19.031   4.317   2.895
48466W        W16860  22.658  28.113   2.488
48467W        W16861  28.538  39.599   3.097
48468W        W16862  28.726  23.433   4.314
48469W        W16863  27.099   2.459   2.633
48470W        W16864  28.629  37.537  11.958
48471W        W16865  12.715  43.477  11.655
48472W        W16866  35.215  30.654  12.607
48473W        W16867  33.899  39.269   4.171
48474W        W16868  38.294   7.372  11.478
48475W        W16869  39.996   3.171  12.986
48476W        W16870  16.191  10.454  10.586
48477W        W16871  15.671  30.322  10.608
48478W        W16872  36.901  10.255   5.038
48479W        W16873  39.887   2.976  14.422
48480W        W16874  36.114  11.371   4.142
48481W        W16875   2.938  20.315  12.555
48482W        W16876  18.197   6.339  12.638
48483W        W16877  22.648   8.729   0.281
48484W        W16878  40.902  34.362   4.024
48485W        W16879  42.704  27.689   3.021
48486W        W16880  38.410  32.980  13.667
48487W        W16881   5.720  33.733   4.671
48488W        W16882   0.007   0.228   4.117
48489W        W16883  23.303  18.225  11.699
48490W        W16884  13.547  31.351   2.954
48491W        W16885  26.215  15.798   3.618
48492W        W16886  43.233  31.502   2.460
48493W        W16887   4.421   9.680   3.752
48494W        W16888  29.203  29.944  12.307
48495W        W16889  19.590  35.393  10.325
48496W        W16890  23.552   1.047  14.212
48497W        W16891  27.460  36.843  11.157
48498W        W16892  44.397  37.755  12.840
48499W        W16893  14.790  42.480  12.554
48500W        W16894  36.999  35.989  11.237
48501W        W16895   3.331  15.180  14.248
48502W        W16896  32.957  31.199  11.207
48503W        W16897  37.710  20.364   5.074
48504W        W16898  38.050   4.658  14.860
48505W        W16899  21.526  37.935   2.087
48506W        W16900  32.924  15.973   4.206
48507W        W16901  37.523  26.846  14.364
48508W        W16902  38.581  27.121  10.355
48509W        W16903  35.987  32.483  12.106
48510W        W16904  34.576  29.263   2.383
48511W        W16905  43.326  32.486   2.454
48512W        W16906  33.304  11.901   2.170
48513W        W16907  36.903  22.323   1.502
48514W        W16908  33.564  40.017   2.355
48515W        W16909  36.309  19.055  12.051
48516W        W16910   2.764  44.513   3.596
48517W        W16911   4.597   6.242  10.196
48518W        W16912  24.822  21.759  10.763
48519W        W16913   5.716  12.077  12.951
48520W        W16914  16.295  30.367   4.126
48521W        W16915  32.405   4.477  11.113
48522W        W16916  41.430  31.148  14.225
48523W        W16917  28.013   5.781   0.314
48524W        W16918  36.628  13.091   4.914
48525W        W16919   5.046  19.626  11.148
48526W        W16920   8.218  19.981  14.872
48527W        W16921  10.167  17.709   4.764
48528W        W16922  15.179   4.794   3.014
48529W        W16923  23.094  14.113  11.603
48530W        W16924  28.966   7.689   3.153
48531W        W16925  28.972  44.238  12.674
48532W        W16926  30.131  40.040  10.990
48533W        W16927  42.828   4.428   4.708
48534W        W16928  40.919  20.305   4.710
48535W        W16929  23.423   1.026   4.204
48536W        W16930  14.692  13.673  14.619
48537W        W16931  11.828  44.058   1.709
48538W        W16932   5.238  21.629  10.999
48539W        W16933   1.888  24.305   3.184
48540W        W16934  25.702  31.776   0.292
48541W        W16935  21.982   6.778   2.419
48542W        W16936   2.434  14.027   0.359
48543W        W16937  11.814  30.552   0.429
48544W        W16938  30.507  23.901   2.702
48545W        W16939  25.426  26.001  12.452
48546W        W16940  38.589  39.587   2.747
48547W        W16941  22.680   2.266  12.419
48548W        W16942  30.158  14.315   1.851
48549W        W16943   9.955  42.510   4.001
48550W        W16944   5.124  30.453   1.872
48551W        W16945   8.789  15.997   1.662
48552W        W16946  29.574   0.029   0.415
48553W        W16947  20.734  42.322   4.323
48554W        W16948   9.095  26.628  13.457
48555W        W16949   0.010  20.413   0.319
48556W        W16950  31.899   8.344  12.085
48557W        W16951  14.857   5.306  14.234
48558W        W16952  21.534   9.838   4.380
48559W        W16953  24.586  20.231   0.705
48560W        W16954  16.080  23.593  13.870
48561W        W16955   0.235  33.087  10.953
48562W        W16956  17.056   9.322  10.713
48563W        W16957   4.254   0.092   0.815
48564W        W16958  31.120  27.219  13.148
48565W        W16959  20.942  39.061  14.790
48566W        W16960  28.664   3.724  14.973
48567W        W16961  24.098  42.749  13.797
48568W        W16962   8.367  27.880  11.391
48569W        W16963  35.957  14.362   3.270
48570W        W16964  31.822  14.155  11.515
48571W        W16965  36.608   3.222   0.777
48572W        W16966  31.153  15.364  10.726
48573W        W16967  35.311  15.074   4.092
48574W        W16968  29.676  36.341   0.894
48575W        W16969   4.018  30.965   2.392
48576W        W16970  13.835  44.511   4.820
48577W        W16971  32.146  26.605  13.742
48578W        W16972  43.283  10.320  11.194
48579W        W16973   9.206  28.318   3.730
48580W        W16974  35.166   6.931  11.774
48581W        W16975  37.058  26.720  14.113
48582W        W16976  28.734   4.625  10.638
48583W        W16977  27.446   5.222   0.764
48584W        W16978  27.663  38.470   0.251
48585W        W16979  44.251  41.802   1.729
48586W        W16980  11.271  12.203   3.183
48587W        W16981  18.826  15.231   0.410
48588W        W16982  42.993   6.667   0.763
48589W        W16983  41.342  23.160   3.821
48590W        W16984  14.253  23.803  11.671
48591W        W16985   0.510  35.571  13.598
48592W        W16986  33.327   9.558   3.110
48593W        W16987  39.714  22.635   3.859
48594W        W16988  25.652   6.147  10.810
48595W        W16989  28.701  21.102  12.827
48596W        W16990  17.452  22.114  12.073
48597W        W16991  12.935  32.863  12.508
48598W        W16992  27.651  44.517  13.167
48599W        W16993  27.634  20.990   0.571
48600W        W16994   3.339   3.855   3.764
48601W        W16995  26.059  35.579  12.560
48602W        W16996   0.747  28.002   0.331
48603W        W16997  38.457  39.404   4.075
48604W        W16998  16.800  14.047   3.655
48605W        W16999  18.107   0.474   2.172
48606W        W17000  15.585  35.393   0.794
48607W        W17001  21.546  21.956  14.200
48608W        W17002  35.989  21.298   1.456
48609W        W17003  23.137  25.657   1.405
48610W        W17004  33.071  38.064  13.000
48611W        W17005  43.129   2.240  14.543
48612W        W17006  35.311  17.893   3.169
48613W        W17007  39.858  26.994   0.200
48614W        W17008  15.196  30.273   3.355
48615W        W17009  20.104  20.093   0.756
48616W        W17010  17.549  40.781  14.265
48617W        W17011   5.939  35.086  12.931
48618W        W17012  11.055   0.873   2.288
48619W        W17013   5.246   8.690   1.359
48620W        W17014  17.911  26.404   0.458
48621W        W17015  39.571   6.485  14.990
48622W        W17016  25.830  33.398   4.938
48623W        W17017  36.463  41.746  11.035
48624W        W17018  23.405  10.356   2.274
48625W        W17019   6.340  34.110  13.336
48626W        W17020  42.619  11.973  11.929
48627W        W17021   0.734  37.068   4.118
48628W        W17022  36.991  39.325  13.814
48629W        W17023   0.471  31.835   4.427
48630W        W17024  16.663  29.544   2.854
48631W        W17025  20.530  21.294  11.853
48632W        W17026  35.323  31.949  10.650
48633W        W17027  19.084  22.807   1.248
48634W        W17028  43.349  38.505   0.823
48635W        W17029  32.572   8.498   5.064
48636W        W17030  26.543  24.732  13.259
48637W        W17031  43.011  19.398   2.594
48638W        W17032  26.924  43.491  10.917
48639W        W17033  17.089  29.687   4.365
48640W        W17034  41.812  10.484  14.812
48641W        W17035  12.360   2.408  10.696
48642W        W17036  26.686   2.129  10.365
48643W        W17037   3.945  38.319   0.103
48644W        W17038  19.497  32.474  10.812
48645W        W17039  12.809  23.330  12.944
48646W        W17040  43.014  23.067   4.204
48647W        W17041  18.664  36.313  13.568
48648W        W17042  26.924  23.689   0.179
48649W        W17043  22.949  36.184   4.839
48650W        W17044  12.655  28.547   3.251
48651W        W17045  37.282  33.887  13.070
48652W        W17046  34.693  40.817  10.855
48653W        W17047  13.641  31.418  12.924
48654W        W17048  29.202  17.256   1.842
48655W        W17049  44.903  10.620   0.104
48656W        W17050  37.545   1.376   2.748
48657W        W17051   0.548  12.104  14.567
48658W        W17052   3.310  41.278  11.162
48659W        W17053   2.552  13.089  13.740
48660W        W17054  17.303  21.866  13.553
48661W        W17055  23.611  11.575  13.861
48662W        W17056  19.808  34.492   3.334
48663W        W17057  34.327  20.193  11.320
48664W        W17058  38.344  30.472   2.300
48665W        W17059  10.272  41.899   0.999
48666W        W17060  36.975  18.233   2.480
48667W        W17061  20.193  19.033   2.309
48668W        W17062   0.513  37.327   4.838
48669W        W17063   9.444  26.505   5.074
48670W        W17064  23.308  34.366   3.187
48671W        W17065  17.182  22.998  11.153
48672W        W17066  26.622  29.686   3.207
48673W        W17067  28.145  34.446   3.658
48674W        W17068  30.877   0.896  10.746
48675W        W17069  36.081  31.520  13.898
48676W        W17070  40.586  40.664   2.922
48677W        W17071   7.454   2.374  11.023
48678W        W17072  21.242  21.946  13.426
48679W        W17073  33.674  21.179  13.003
48680W        W17074  27.437  34.038   3.236
48681W        W17075  41.589  24.100   2.460
48682W        W17076  35.442  11.888  13.283
48683W        W17077   6.718  31.323   3.343
48684W        W17078   5.767  37.965   0.522
48685W        W17079  16.618   6.023   3.252
48686W        W17080  44.803  18.711   5.083
48687W        W17081  22.538   0.974   0.418
48688W        W17082  33.511   7.835   2.841
48689W        W17083  38.584  34.982   3.150
48690W        W17084  33.082  31.396   1.880
48691W        W17085  38.542   4.801   1.850
48692W        W17086   9.828  25.529  10.596
48693W        W17087  22.316  43.557   1.323
48694W        W17088  41.529  17.239   3.697
48695W        W17089  21.957  33.617  14.061
48696W        W17090  39.311   6.434   1.711
48697W        W17091  30.948  30.657  10.207
48698W        W17092   4.867  37.812  10.714
48699W        W17093   4.877  15.923   0.203
48700W        W17094  11.853  28.610  12.113
48701W        W17095  30.757  11.382   9.806
48702W        W17096  41.045  21.075   3.112
48703W        W17097  29.736   3.740  11.730
48704W        W17098  42.773  14.401  10.586
48705W        W17099   3.980  32.319  12.558
48706W        W17100  40.296  38.873   0.529
48707W        W17101  18.676  34.491  14.898
48708W        W17102  42.501  44.824   1.193
48709W        W17103   7.277  12.633  14.922
48710W        W17104  27.615  44.261   3.336
48711W        W17105   0.679  10.162   4.526
48712W        W17106  34.829   7.344   0.833
48713W        W17107  11.103  30.344   3.575
48714W        W17108  35.748  39.063  12.974
48715W        W17109  25.428  34.642   3.853
48716W        W17110   6.068   6.679  11.803
48717W        W17111   4.869   2.235   2.827
48718W        W17112  37.448  44.492  11.520
48719W        W17113  15.986  29.960  11.437
48720W        W17114   6.438   5.802   3.861
48721W        W17115  42.641   1.239  10.678
48722W        W17116  14.110  12.727   4.696
48723W        W17117  15.661  18.557  10.711
48724W        W17118  35.987  22.818  12.936
48725W        W17119  12.922  34.875  11.950
48726W        W17120  39.950  38.353  14.301
48727W        W17121  14.671  29.671   4.392
48728W        W17122  39.258  32.683  13.620
48729W        W17123  31.028   7.984  12.975
48730W        W17124  11.866   2.941  13.135
48731W        W17125  19.300   7.878  11.581
48732W        W17126  31.533  25.119  11.723
48733W        W17127  15.728  28.120   0.529
48734W        W17128  30.842  22.131  11.179
48735W        W17129  26.183  29.740  14.877
48736W        W17130  43.632  17.216  14.841
48737W        W17131  44.610   0.204  12.287
48738W        W17132   3.104  31.370   4.564
48739W        W17133  42.044  43.899  12.173
48740W        W17134   4.734   5.730   1.782
48741W        W17135  38.828  21.548   1.823
48742W        W17136  10.820  43.119   4.132
48743W        W17137  25.416  25.813   3.243
48744W        W17138  28.703  27.119   4.044
48745W        W17139  14.065   2.875  12.106
48746W        W17140  41.035   9.795  14.212
48747W        W17141  12.916  35.083   0.157
48748W        W17142  25.548  20.188  10.832
48749W        W17143  40.450  37.575  13.384
48750W        W17144   1.264  32.437  13.207
48751W        W17145  10.406  33.345  14.000
48752W        W17146  27.701  27.120  10.701
48753W        W17147   2.425  15.953  10.759
48754W        W17148  10.181  44.449   3.105
48755W        W17149  11.849  40.840  12.379
48756W        W17150  17.119  26.063   3.320
48757W        W17151  10.969  43.237  13.194
48758W        W17152  29.459  37.751   3.680
48759W        W17153   9.333   7.163  10.406
48760W        W17154  27.156  14.106   0.962
48761W        W17155   5.840  20.692  12.452
48762W        W17156  35.794  36.427  14.386
48763W        W17157  14.515  26.625   4.548
48764W        W17158  44.559   1.729   2.499
48765W        W17159  15.601  22.512  10.703
48766W        W17160  16.052   0.497  13.017
48767W        W17161  41.263  19.970   1.148
48768W        W17162  43.307  35.896   1.213
48769W        W17163  11.650  34.588   1.454
48770W        W17164   0.956   7.819   1.318
48771W        W17165  36.098  12.861   3.142
48772W        W17166  30.880   9.900  14.985
48773W        W17167   7.345  27.613   1.355
48774W        W17168  12.681  39.948  11.525
48775W        W17169  31.329  29.064  13.730
48776W        W17170  40.584  13.851   1.293
48777W        W17171  19.584  15.658  11.126
48778W        W17172  22.835  12.100  12.595
48779W        W17173  40.149  36.589   3.435
48780W        W17174  16.617  23.567   3.143
48781W        W17175  16.278  13.540  13.904
48782W        W17176   0.762  16.293   1.291
48783W        W17177  35.923   6.440   4.076
48784W        W17178  26.341  17.589   4.242
48785W        W17179  44.448  41.727   3.739
48786W        W17180  25.024  21.016  11.176
48787W        W17181  41.285  13.181   4.561
48788W        W17182  36.579   2.054  14.498
48789W        W17183  34.065  35.862  12.573
48790W        W17184  23.637  32.069  10.605
48791W        W17185  11.131  36.390  10.883
48792W        W17186  34.366   8.906  11.976
48793W        W17187  28.064  22.504  10.879
48794W        W17188   5.710  12.645  12.438
48795W        W17189  32.362  29.652   3.716
48796W        W17190  39.876  17.708  12.484
48797W        W17191  32.834   1.739   0.883
48798W        W17192   2.651  15.765   1.758
48799W        W17193  23.570  35.007   4.690
48800W        W17194  44.848  39.481  10.334
48801W        W17195  27.411  27.448   1.241
48802W        W17196  42.551  22.613   4.656
48803W        W17197  11.313  33.724  13.323
48804W        W17198  20.719  17.740  11.604
48805W        W17199  30.478  32.587  11.097
48806W        W17200  19.125  10.390   0.822
48807W        W17201  13.037   6.940   9.987
48808W        W17202  34.031  12.412   3.456
48809W        W17203   7.462  33.122   2.227
48810W        W17204   3.253  34.112  13.382
48811W        W17205  29.003  37.855   4.699
48812W        W17206   6.636  36.704  13.039
48813W        W17207  13.284  26.944  14.280
48814W        W17208  38.982  44.764   1.214
48815W        W17209   4.283  38.310   4.831
48816W        W17210  22.611  24.658   1.813
48817W        W17211  38.327  21.811   1.900
48818W        W17212  14.272  24.200   4.093
48819W        W17213  28.143  44.602   0.190
48820W        W17214  17.300  31.437  11.376
48821W        W17215  23.591   9.853   0.731
48822W        W17216   2.460  40.658   0.108
48823W        W17217   3.377  16.720   2.877
48824W        W17218   0.510  27.635  10.781
48825W        W17219  26.603  34.874  14.810
48826W        W17220  36.970  25.267   3.128
48827W        W17221   8.725  28.106   2.519
48828W        W17222  12.547  44.341  10.788
48829W        W17223  19.231   2.034   2.744
48830W        W17224  39.929  37.260   5.550
48831W        W17225  39.842   0.661  14.411
48832W        W17226  24.625  19.630  12.007
48833W        W17227  18.740  13.804   2.145
48834W        W17228  40.756  35.165   1.342
48835W        W17229  33.125  20.487  12.028
48836W        W17230   5.878  35.351   1.770
48837W        W17231  35.463  14.141   1.032
48838W        W17232  34.188  26.025   3.251
48839W        W17233  10.905  30.046   2.852
48840W        W17234  25.220  24.580   1.256
48841W        W17235   4.216  11.626   4.596
48842W        W17236  18.677  44.824   2.386
48843W        W17237  35.932  23.211   4.288
48844W        W17238  44.785  36.076   4.000
48845W        W17239  25.923  31.559   2.280
48846W        W17240  10.744   7.175   2.123
48847W        W17241  42.521  25.907   3.175
48848W        W17242  24.625  34.410  13.633
48849W        W17243   3.306  14.891   0.883
48850W        W17244  30.936  27.650   0.759
48851W        W17245   7.386  28.218  11.682
48852W        W17246   5.332  23.579   1.653
48853W        W17247  24.403   4.800   0.619
48854W        W17248  24.684  20.051  11.204
48855W        W17249   7.296  43.100   2.271
48856W        W17250   7.455  39.634   1.924
48857W        W17251  30.215  24.979  10.752
48858W        W17252  18.325  12.753   3.652
48859W        W17253  37.495  15.275  11.931
48860W        W17254  14.351  14.710   2.308
48861W        W17255  14.808  22.144   0.936
48862W        W17256  17.258  15.487  12.265
48863W        W17257  11.103  25.945  13.970
48864W        W17258   9.329  28.523  13.839
48865W        W17259  12.074  11.871   4.698
48866W        W17260  11.293   0.099  12.387
48867W        W17261  36.836   0.940  13.352
48868W        W17262  27.682  30.094   0.371
48869W        W17263  42.260  40.251  12.504
48870W        W17264  17.403  42.754  11.580
48871W        W17265  22.423  40.576  12.104
48872W        W17266  41.825  25.187   2.904
48873W        W17267   6.189   5.301  11.545
48874W        W17268  37.364  42.833   3.650
48875W        W17269  43.416  38.345   1.754
48876W        W17270   9.982  18.112  12.581
48877W        W17271  36.995  34.606   4.635
48878W        W17272  23.629  10.241   2.753
48879W        W17273  24.379   8.392  12.864
48880W        W17274  24.553   5.353   4.396
48881W        W17275  18.632  33.384  10.254
48882W        W17276  24.073   5.786   0.532
48883W        W17277  33.843  16.008  11.290
48884W        W17278   8.789  15.124  13.980
48885W        W17279  16.745  25.159  11.577
48886W        W17280  11.362   3.945   4.187
48887W        W17281  26.441  18.180   1.963
48888W        W17282  24.812   5.238  14.370
48889W        W17283  26.670  29.672   4.191
48890W        W17284  14.635  10.651  10.581
48891W        W17285  18.223   3.178  13.963
48892W        W17286  11.351   4.307  14.370
48893W        W17287  22.100   4.712   2.685
48894W        W17288  12.753  36.437   4.327
48895W        W17289  37.447  28.646   3.856
48896W        W17290  18.204  15.671   2.197
48897W        W17291  35.572  27.035  10.587
48898W        W17292   5.541  28.004   0.768
48899W        W17293  30.737  24.692   3.734
48900W        W17294  29.424  30.372  13.337
48901W        W17295  44.453  15.371   3.759
48902W        W17296   0.948  23.548   1.928
48903W        W17297  32.394  25.834   4.614
48904W        W17298  15.321   2.131   1.886
48905W        W17299  10.694   3.438   2.421
48906W        W17300   0.299   7.279   2.864
48907W        W17301   0.648   5.720  11.904
48908W        W17302  24.877  33.018  14.004
48909W        W17303  34.465   1.727  12.907
48910W        W17304   1.848   3.309  13.108
48911W        W17305  40.318  40.852   0.991
48912W        W17306   8.586   4.762  11.170
48913W        W17307  33.562  33.041  10.702
48914W        W17308  43.384  19.262   4.529
48915W        W17309  28.414  41.252   4.237
48916W        W17310  12.256  38.495  11.008
48917W        W17311   2.695  19.452  11.608
48918W        W17312  34.505  39.820   0.365
48919W        W17313  11.200  25.177  10.757
48920W        W17314  12.098  25.661   1.176
48921W        W17315  20.007  24.540   0.284
48922W        W17316   4.746  14.657   3.065
48923W        W17317  19.943  19.388  11.143
48924W        W17318  30.597  23.969   1.374
48925W        W17319  37.788   6.660   0.334
48926W        W17320  32.022  28.860  13.434
48927W        W17321  35.253  13.243   4.171
48928W        W17322  22.160  29.338  12.582
48929W        W17323  26.991  24.511   4.252
48930W        W17324  19.003  31.952  14.859
48931W        W17325   5.790   1.810   4.216
48932W        W17326  34.644  31.961   1.431
48933W        W17327  35.028  26.937  12.245
48934W        W17328  22.201  39.746  12.544
48935W        W17329  10.788   9.793  11.114
48936W        W17330   4.014  43.529   1.170
48937W        W17331  27.232  16.778   1.840
48938W        W17332  37.627   0.842   3.945
48939W        W17333  15.150  11.027  11.207
48940W        W17334   3.426  15.601   2.721
48941W        W17335   4.937  29.556   3.611
48942W        W17336   8.210  35.864   1.462
48943W        W17337  25.597  35.156  13.117
48944W        W17338  16.968  25.987  11.278
48945W        W17339  14.683  44.919   3.610
48946W        W17340  22.336   5.238  11.199
48947W        W17341  38.891  44.287  13.387
48948W        W17342  13.405  18.655   4.130
48949W        W17343   0.320  39.884  12.358
48950W        W17344  39.283  15.612   2.420
48951W        W17345  36.960  16.388   4.400
48952W        W17346  14.835  21.796  13.646
48953W        W17347  31.896  29.514  11.979
48954W        W17348  31.037  23.759   0.869
48955W        W17349  11.418   3.271  12.421
48956W        W17350  21.699  40.913   0.217
48957W        W17351  37.523  36.908  12.571
48958W        W17352   3.155   0.443  13.556
48959W        W17353  36.993  13.222  12.074
48960W        W17354  11.526  35.132  10.916
48961W        W17355   7.372  10.694  12.064
48962W        W17356  43.475  10.540  13.910
48963W        W17357  28.688  43.176   9.768
48964W        W17358  29.019  37.308  14.477
48965W        W17359   3.955  17.308   4.537
48966W        W17360  10.875   1.337  11.475
48967W        W17361  29.602  12.346  14.160
48968W        W17362   9.266  18.652  14.222
48969W        W17363  10.305  31.406  13.866
48970W        W17364   7.162   2.883   3.223
48971W        W17365  34.607  42.341   1.341
48972W        W17366  14.231  22.195   1.713
48973W        W17367  33.540  29.115   1.768
48974W        W17368  13.780   8.338   2.149
48975W        W17369   4.540  19.565  11.098
48976W        W17370  43.417  31.525   3.343
48977W        W17371  21.470  35.321  13.908
48978W        W17372  25.610  18.118   4.565
48979W        W17373  31.024   0.364   0.030
48980W        W17374   8.846   3.650   0.913
48981W        W17375  14.942  16.691  11.208
48982W        W17376  16.805  31.438  13.114
48983W        W17377  27.910  25.413   3.200
48984W        W17378  11.867  18.375  11.117
48985W        W17379   5.112   9.975  11.081
48986W        W17380  41.794  30.692  13.530
48987W        W17381   3.231  14.163  14.298
48988W        W17382  11.673  18.300   3.864
48989W        W17383  43.574  12.201   4.579
48990W        W17384  31.968  22.596   3.566
48991W        W17385   4.372  33.416   3.577
48992W        W17386  29.027  10.911  14.530
48993W        W17387  43.882  24.470  12.041
48994W        W17388  14.862  37.845  14.955
48995W        W17389   7.488  19.592   3.940
48996W        W17390  31.620  32.131   4.781
48997W        W17391  20.591  38.034  11.513
48998W        W17392  24.135  29.232   3.829
48999W        W17393  34.419  35.246  11.551
49000W        W17394  12.231  10.613  12.788
49001W        W17395  19.587  31.847  10.259
49002W        W17396  16.675  20.248   1.905
49003W        W17397  20.527  36.119  11.530
49004W        W17398   6.410  29.078   3.636
49005W        W17399   4.996  21.772   2.028
49006W        W17400  26.652  32.936   3.759
49007W        W17401  25.089   2.686  13.787
49008W        W17402   5.923   4.489   3.685
49009W        W17403  15.777  31.544  13.657
49010W        W17404  35.495  10.356   1.454
49011W        W17405  15.035  10.128  12.124
49012W        W17406  39.249  26.681   3.090
49013W        W17407  28.080  11.458   5.038
49014W        W17408  33.164  30.465  10.730
49015W        W17409   4.337  33.135  13.358
49016W        W17410  23.152   1.382   3.010
49017W        W17411  33.238  14.932   1.928
49018W        W17412  40.589   8.675   3.581
49019W        W17413  43.823  41.478   2.950
49020W        W17414  25.378  15.260  10.673
49021W        W17415  25.614  10.248  13.774
49022W        W17416  42.883  11.531   0.207
49023W        W17417   8.423  38.790  14.443
49024W        W17418  10.662  11.015   1.372
49025W        W17419  44.856  14.188  14.038
49026W        W17420  20.607  28.193   3.701
49027W        W17421  26.470   6.916   0.274
49028W        W17422  40.953  19.660  10.802
49029W        W17423  28.733  17.790  11.543
49030W        W17424   0.702  28.172  14.371
49031W        W17425  36.537  27.411   0.874
49032W        W17426  39.950  27.931   0.483
49033W        W17427  38.118  42.709  11.411
49034W        W17428  19.655  25.523   1.874
49035W        W17429   7.630  30.881   4.258
49036W        W17430  42.006  19.498   0.787
49037W        W17431  44.994   5.207  12.399
49038W        W17432  13.788  39.990   0.528
49039W        W17433  26.582  35.571  11.593
49040W        W17434  37.951  36.088  14.296
49041W        W17435  36.562  32.915  14.508
49042W        W17436   0.677  35.817   4.618
49043W        W17437  12.875  38.793  11.141
49044W        W17438  22.078   8.399  10.618
49045W        W17439  27.978  24.734   1.096
49046W        W17440  36.308   6.560  12.065
49047W        W17441  18.113   3.935  11.935
49048W        W17442  21.633  39.455  10.639
49049W        W17443  10.295  37.477   2.152
49050W        W17444   0.982  28.547   3.240
49051W        W17445  35.127  10.638  11.254
49052W        W17446  25.929   1.735   4.158
49053W        W17447  14.831  39.357  14.925
49054W        W17448  42.381  22.521  11.595
49055W        W17449  15.274  11.417   1.385
49056W        W17450  20.022  16.329  11.450
49057W        W17451  38.623  30.340   4.070
49058W        W17452  40.517  32.454  11.079
49059W        W17453  17.101  29.684   4.897
49060W        W17454  22.140  28.331  13.971
49061W        W17455   1.733   2.518   3.563
49062W        W17456  10.202  19.116   1.643
49063W        W17457  22.532  29.070   3.750
49064W        W17458  17.071   7.471   1.343
49065W        W17459   9.309   3.887  11.743
49066W        W17460  15.101  16.013  11.503
49067W        W17461  18.554   4.891  12.863
49068W        W17462  18.074  27.144  14.555
49069W        W17463  40.363   7.225  14.073
49070W        W17464  39.290  14.286   1.266
49071W        W17465  21.152  22.120  14.483
49072W        W17466   7.139  21.617   4.528
49073W        W17467  43.558  23.548  13.984
49074W        W17468  24.137  35.971   2.762
49075W        W17469  22.017  41.915   0.778
49076W        W17470  22.881  37.316  12.037
49077W        W17471   1.674  20.462  14.842
49078W        W17472  30.635  15.239   0.413
49079W        W17473   8.416  18.738   0.271
49080W        W17474  44.797  28.601   4.069
49081W        W17475   3.707   0.445  12.584
49082W        W17476   9.106  39.796  13.026
49083W        W17477  26.491  32.888   2.487
49084W        W17478  30.081  38.905  12.661
49085W        W17479  19.524  22.056   4.143
49086W        W17480   9.824  25.964  14.362
49087W        W17481  42.781  14.756   2.447
49088W        W17482  12.878  18.095  12.029
49089W        W17483  39.314  14.585   4.867
49090W        W17484   1.881  26.136   3.351
49091W        W17485  35.957  33.747   3.315
49092W        W17486   3.871  43.703   1.619
49093W        W17487  12.603  43.705  13.918
49094W        W17488  24.477  12.093  13.047
49095W        W17489  39.249   9.061  14.830
49096W        W17490  41.115  12.787  13.598
49097W        W17491  22.980  30.053   2.868
49098W        W17492   5.946   8.757   3.390
49099W        W17493  40.808  35.216  11.010
49100W        W17494  35.929  25.181   4.370
49101W        W17495  20.029  43.968  12.121
49102W        W17496  24.211  26.482  10.744
49103W        W17497  44.559  30.974   0.676
49104W        W17498   4.422   3.306  13.528
49105W        W17499  25.649   4.387   4.628
49106W        W17500  28.666   6.212   0.323
49107W        W17501  17.762  26.361   4.042
49108W        W17502   6.358  32.850   4.217
49109W        W17503  13.072  42.812   0.339
49110W        W17504  25.517  25.523   1.085
49111W        W17505  15.124  13.384  10.890
49112W        W17506  18.418  36.059  14.375
49113W        W17507  39.378  17.822   2.918
49114W        W17508  25.930  21.377  10.259
49115W        W17509  37.010  35.345   1.913
49116W        W17510  22.031   4.252   5.056
49117W        W17511  33.126  14.713  12.502
49118W        W17512  14.933  10.207   5.023
49119W        W17513  23.239  24.093  11.444
49120W        W17514  16.049  20.554  13.913
49121W        W17515  29.529  42.506  11.451
49122W        W17516   7.754  35.706   4.438
49123W        W17517  35.268   4.629  14.267
49124W        W17518   0.813   9.915  13.317
49125W        W17519  13.156   8.161  14.985
49126W        W17520   1.364  22.027  12.532
49127W        W17521  23.008  29.027  10.374
49128W        W17522   3.768  38.274   2.758
49129W        W17523  31.970  17.370  12.416
49130W        W17524  30.558   7.710  12.091
49131W        W17525  20.290  41.523  12.341
49132W        W17526  36.399  35.861   0.590
49133W        W17527   3.187  14.836   3.134
49134W        W17528  37.891  18.372   1.399
49135W        W17529  29.087  32.514   1.980
49136W        W17530   4.333  29.440   1.281
49137W        W17531  30.131  41.231  12.429
49138W        W17532  41.257   2.930  13.753
49139W        W17533   5.440   6.698  13.319
49140W        W17534  14.725  25.187  10.961
49141W        W17535  42.795  15.371  12.996
49142W        W17536  35.794  14.206  12.169
49143W        W17537  29.112  44.706   0.857
49144W        W17538  38.836  28.957  11.997
49145W        W17539   1.687   8.853  10.642
49146W        W17540  27.977   9.983   0.292
49147W        W17541   5.558  16.044   1.026
49148W        W17542  23.726  23.321  14.773
49149W        W17543  18.517  15.133  12.285
49150W        W17544   7.370  20.203   3.953
49151W        W17545  21.530  25.460   2.143
49152W        W17546  38.910  26.757  14.795
49153W        W17547  26.640  28.081  13.806
49154W        W17548  38.660   9.742   3.710
49155W        W17549  25.409  11.325   4.052
49156W        W17550  26.719  37.147   5.075
49157W        W17551  17.189  38.107  12.541
49158W        W17552  27.903  36.522   0.389
49159W        W17553  36.520  24.800  11.256
49160W        W17554  37.831  20.531   2.211
49161W        W17555  22.078  24.093  10.477
49162W        W17556   9.105   0.185   1.977
49163W        W17557  22.144  36.718   2.774
49164W        W17558  30.210  39.048  13.172
49165W        W17559   5.299   0.962  10.810
49166W        W17560  32.648   9.136  13.073
49167W        W17561  39.525  40.551  11.580
49168W        W17562   5.900  16.199   2.794
49169W        W17563   1.443  32.812   2.217
49170W        W17564  24.156  27.147   2.197
49171W        W17565  44.863  18.567   3.152
49172W        W17566  36.447  43.940  13.767
49173W        W17567   7.176   2.896   2.323
49174W        W17568  26.898  44.994   1.831
49175W        W17569  12.046  20.199  12.998
49176W        W17570  11.284  37.272  10.974
49177W        W17571   6.460  13.963  14.778
49178W        W17572   7.450  22.649   0.904
49179W        W17573  28.740  30.644  11.966
49180W        W17574   0.494  10.250   1.710
49181W        W17575   4.139  10.355   4.021
49182W        W17576   4.686  19.924  11.431
49183W        W17577  24.538  31.561  10.690
49184W        W17578   0.989  39.612   1.274
49185W        W17579  20.954  12.731   2.130
49186W        W17580  14.261  15.377  12.526
49187W        W17581  41.141  11.722  14.266
49188W        W17582  13.161  16.126   3.708
49189W        W17583  38.556  29.796  11.588
49190W        W17584  16.675  17.240   1.276
49191W        W17585  25.577  19.414   2.865
49192W        W17586  26.398   8.117   3.705
49193W        W17587  17.791  35.798   2.785
49194W        W17588  13.042  43.470   3.238
49195W        W17589  28.689   0.428  10.809
49196W        W17590  10.527  34.977  14.915
49197W        W17591  35.139  25.152   5.004
49198W        W17592   5.830   0.459  10.546
49199W        W17593  42.269  29.424  13.339
49200W        W17594  27.458   7.086   0.284
49201W        W17595  39.461  17.990  13.472
49202W        W17596  30.000  20.187   2.804
49203W        W17597  21.662  12.583   3.557
49204W        W17598  43.229   0.450   2.310
49205W        W17599  30.652  30.602  13.119
49206W        W17600  36.462  17.749   1.822
49207W        W17601  11.072  42.924   3.729
49208W        W17602  29.856  16.109  11.116
49209W        W17603  40.747   2.735   4.075
49210W        W17604  24.519  37.959   3.615
49211W        W17605   1.297   4.353   0.949
49212W        W17606  40.708   0.356  14.118
49213W        W17607  39.580  19.874   0.925
49214W        W17608  22.280  16.714  14.020
49215W        W17609   8.126  14.710  12.022
49216W        W17610   6.976  23.037  10.997
49217W        W17611   8.430  43.065   3.384
49218W        W17612   6.012  10.727  14.013
49219W        W17613  12.261  15.537   0.941
49220W        W17614  12.151   1.303   0.304
49221W        W17615  11.635  43.241  12.481
49222W        W17616  33.193  28.948  12.995
49223W        W17617  24.377  18.739   0.914
49224W        W17618  35.980   1.405   1.227
49225W        W17619  24.121  26.151  11.940
49226W        W17620   0.662  32.880  11.151
49227W        W17621  31.101  43.454  12.037
49228W        W17622  12.739  28.071  13.014
49229W        W17623   5.121  20.323  12.949
49230W        W17624  17.545  32.549   1.445
49231W        W17625  17.136   1.923   1.495
49232W        W17626  36.274  15.719   1.091
49233W        W17627  39.773  26.009   4.892
49234W        W17628  18.041   5.229  10.444
49235W        W17629   0.765  11.355   4.053
49236W        W17630  10.591  32.618  12.489
49237W        W17631  23.561  28.383  12.704
49238W        W17632   5.995  17.343   3.178
49239W        W17633  25.349   4.978   1.410
49240W        W17634  13.559  38.092   4.322
49241W        W17635  40.971  23.115   2.256
49242W        W17636  10.244  14.365   4.565
49243W        W17637   9.239  29.417  10.771
49244W        W17638  20.970   4.812   3.619
49245W        W17639  11.381  10.092  14.555
49246W        W17640  34.749  21.128   0.393
49247W        W17641   5.667  26.506  13.323
49248W        W17642  37.758  14.088  13.586
49249W        W17643  38.642  35.696  11.456
49250W        W17644  39.895  35.078  11.885
49251W        W17645  14.068  27.365   2.669
49252W        W17646   7.177  24.508   1.171
49253W        W17647  36.005  38.122   3.236
49254W        W17648  24.145  11.665  14.515
49255W        W17649   5.125  30.504   2.402
49256W        W17650  11.951  26.934  14.095
49257W        W17651  40.061  31.870  12.882
49258W        W17652  17.907   0.633  14.967
49259W        W17653  19.828   7.947  12.888
49260W        W17654  18.329   2.876  12.981
49261W        W17655  27.973  33.575   0.971
49262W        W17656  12.803  43.893   1.733
49263W        W17657  39.790  38.257  12.308
49264W        W17658   0.978  22.882  14.454
49265W        W17659   1.309  20.151  13.036
49266W        W17660  30.295  37.294  12.439
49267W        W17661  12.084  13.182  13.814
49268W        W17662   2.181  43.128   4.212
49269W        W17663   5.724  11.689   0.692
49270W        W17664  22.734   6.446   1.230
49271W        W17665   6.732  36.363  14.784
49272W        W17666  35.516  27.553   0.824
49273W        W17667  36.296  38.427  10.454
49274W        W17668  28.933  25.304   3.213
49275W        W17669  34.714   3.748   1.856
49276W        W17670  21.179   6.270   3.319
49277W        W17671  10.183  24.426   3.010
49278W        W17672  29.952  32.150  14.396
49279W        W17673  14.510  22.507  11.436
49280W        W17674  15.528   4.626  12.067
49281W        W17675   0.257  15.227  11.184
49282W        W17676  38.407  17.287  14.149
49283W        W17677  30.648  11.355   2.205
49284W        W17678  12.878  44.851   4.763
49285W        W17679   5.435  35.090  14.523
49286W        W17680  27.273  14.305   4.077
49287W        W17681  13.693   2.054   2.687
49288W        W17682  34.295   2.961  11.110
49289W        W17683  26.003  18.001   1.237
49290W        W17684  15.893  21.319  13.451
49291W        W17685  16.706  10.109   4.421
49292W        W17686  21.652  22.078   3.344
49293W        W17687   3.244  16.781  11.028
49294W        W17688   0.339  41.771   3.707
49295W        W17689  33.649  37.411  13.230
49296W        W17690   9.686   6.966   1.144
49297W        W17691   5.245  17.449   2.127
49298W        W17692  12.246  27.652   3.103
49299W        W17693  29.668  11.720   4.101
49300W        W17694  10.091  26.835  14.318
49301W        W17695   9.149  30.681   2.722
49302W        W17696  24.653   4.154  12.717
49303W        W17697  38.057  30.434  11.899
49304W        W17698  23.190   7.340   0.947
49305W        W17699  20.028  34.952   0.131
49306W        W17700  11.532   2.508   4.112
49307W        W17701  40.075   6.789  11.127
49308W        W17702  14.411  43.900   1.375
49309W        W17703  16.553  27.429  11.572
49310W        W17704  34.627  17.512   2.735
49311W        W17705  23.199  33.378   0.519
49312W        W17706  28.379  17.777  12.524
49313W        W17707   2.468   9.746  12.030
49314W        W17708   9.352  36.412  14.888
49315W        W17709   7.180  42.548  12.989
49316W        W17710   9.149   3.165   5.105
49317W        W17711  29.434  37.464   4.126
49318W        W17712  13.327  38.113  11.059
49319W        W17713  10.636  14.570   0.237
49320W        W17714  32.124  14.286   0.478
49321W        W17715   8.710  11.885  14.771
49322W        W17716  19.850  29.501  10.696
49323W        W17717   8.399  44.264   3.605
49324W        W17718   9.680  25.337   0.722
49325W        W17719   8.664  33.478  12.683
49326W        W17720  23.624  22.047   0.438
49327W        W17721  43.128  22.363  11.103
49328W        W17722   8.156   1.135  11.516
49329W        W17723  40.809  31.407   4.577
49330W        W17724  28.820  32.440  10.962
49331W        W17725  18.583  29.033   0.003
49332W        W17726   4.764  27.055  11.185
49333W        W17727   4.913  26.214  12.876
49334W        W17728   3.780  34.412  14.522
49335W        W17729  10.389  12.307  12.035
49336W        W17730  29.630  41.870   4.932
49337W        W17731  44.703  11.720   4.627
49338W        W17732  40.026  35.610  13.794
49339W        W17733  33.052  27.149   0.501
49340W        W17734   8.682  15.175   0.803
49341W        W17735  16.076  39.085   0.953
49342W        W17736  11.781  10.256   3.179
49343W        W17737  20.284  44.026   4.435
49344W        W17738  10.755  20.579  11.120
49345W        W17739   8.727  34.969   1.199
49346W        W17740  24.704  44.489   2.649
49347W        W17741  12.316  10.110   0.387
49348W        W17742  29.335  14.110  14.088
49349W        W17743   1.724  43.117  13.009
49350W        W17744  14.151  22.365  13.833
49351W        W17745  38.110  15.610  13.883
49352W        W17746   5.357  37.977   4.539
49353W        W17747  13.454  44.062  11.870
49354W        W17748  25.116   5.910  14.839
49355W        W17749  18.858  26.229   1.364
49356W        W17750  27.654  16.489   1.901
49357W        W17751  41.062  25.965   3.633
49358W        W17752  41.535   8.775  14.492
49359W        W17753  21.240  38.011  12.973
49360W        W17754  24.732   4.291  14.415
49361W        W17755  20.655   8.830   0.765
49362W        W17756  10.805  22.995   0.701
49363W        W17757   0.934  43.074  13.912
49364W        W17758  27.532  20.809  13.140
49365W        W17759  23.683  22.179  11.291
49366W        W17760  15.601  42.314   2.503
49367W        W17761  36.974   3.299  12.956
49368W        W17762  14.823  44.891   4.105
49369W        W17763   2.204  35.242   2.401
49370W        W17764  35.409   3.174  12.878
49371W        W17765  28.844   9.429   0.245
49372W        W17766  41.482  18.285   4.749
49373W        W17767  40.440  21.532   1.614
49374W        W17768  41.627  35.042   1.149
49375W        W17769  40.989  25.491   3.815
49376W        W17770  29.370  26.180  14.807
49377W        W17771   5.647  12.588  12.937
49378W        W17772  32.899   5.210  11.082
49379W        W17773  17.701  28.506   3.426
49380W        W17774  32.777  33.165  11.971
49381W        W17775   7.734   6.466   4.672
49382W        W17776  41.060   0.520  11.233
49383W        W17777   4.157  26.990   4.780
49384W        W17778  22.826  26.034   0.940
49385W        W17779  36.164  17.335  12.056
49386W        W17780  15.300  39.446   3.675
49387W        W17781  38.460  22.455   3.711
49388W        W17782  18.143  43.353  14.323
49389W        W17783  15.079   4.774  14.929
49390W        W17784  34.173  16.883   3.277
49391W        W17785  26.061  19.015   1.349
49392W        W17786  38.552  40.408   0.219
49393W        W17787   3.771  43.908   2.597
49394W        W17788  15.207  11.474   2.748
49395W        W17789  37.899  30.561  12.385
49396W        W17790  35.596  11.390  13.379
49397W        W17791  25.657  44.441  11.524
49398W        W17792  22.247  37.510   3.134
49399W        W17793  41.002  32.180   0.804
49400W        W17794  40.233   7.608  14.395
49401W        W17795   7.854  29.259   2.210
49402W        W17796  42.330  35.880  12.525
49403W        W17797  42.238   2.187  10.651
49404W        W17798  25.515  36.605  12.877
49405W        W17799  42.304  31.771   1.327
49406W        W17800  41.066  41.863  12.667
49407W        W17801  23.164  36.544   3.743
49408W        W17802  27.624  30.148   4.283
49409W        W17803   4.825  13.757   2.306
49410W        W17804  44.412   0.452   5.285
49411W        W17805  12.176  12.107  10.719
49412W        W17806  18.592   3.997  12.846
49413W        W17807  36.641  26.161  14.703
49414W        W17808   3.923  31.666  14.203
49415W        W17809  31.142  27.549  10.639
49416W        W17810  21.685  12.731  13.449
49417W        W17811  18.769  33.409   4.961
49418W        W17812   0.795  19.506  14.503
49419W        W17813  22.604  40.937   3.101
49420W        W17814   0.716  20.090  11.658
49421W        W17815  21.487  26.818   9.944
49422W        W17816   6.737  23.757   2.258
49423W        W17817  25.742  14.604   0.338
49424W        W17818   0.958  43.442   0.946
49425W        W17819  24.239  25.454   1.982
49426W        W17820  29.240  40.681   0.269
49427W        W17821  10.109  19.030  14.694
49428W        W17822  17.130  43.355  13.392
49429W        W17823  39.416  11.775   3.317
49430W        W17824  36.433   2.709   4.431
49431W        W17825   3.800  36.406   1.107
49432W        W17826   5.292  31.105  13.404
49433W        W17827  22.068  44.577  11.348
49434W        W17828  16.323  36.341   3.568
49435W        W17829  38.465  42.296   0.951
49436W        W17830  38.884  19.978  10.773
49437W        W17831  32.088   2.223  13.913
49438W        W17832  35.717  35.349   2.374
49439W        W17833   9.855  33.798   1.661
49440W        W17834  33.640  36.161  12.410
49441W        W17835  43.381  42.425  12.631
49442W        W17836  11.253   7.241   2.708
49443W        W17837  14.128   7.611  10.619
49444W        W17838  13.833   0.582   3.137
49445W        W17839  30.699   2.528   1.300
49446W        W17840  36.932  18.145   3.039
49447W        W17841  20.194  19.269  10.228
49448W        W17842  25.848  37.210  11.657
49449W        W17843  41.103  13.731   3.901
49450W        W17844   1.376  39.640  12.035
49451W        W17845  42.410  35.092  10.664
49452W        W17846  30.322   5.760  12.000
49453W        W17847   5.408  17.707  10.465
49454W        W17848  11.628  42.865  12.106
49455W        W17849  10.871  43.839  14.509
49456W        W17850  34.754  40.779   0.554
49457W        W17851  16.772  21.641   2.723
49458W        W17852   2.403  44.232  12.037
49459W        W17853  42.224   6.075   4.070
49460W        W17854   9.784   2.035   0.781
49461W        W17855   6.888  16.153   9.888
49462W        W17856  10.629   2.273  11.190
49463W        W17857  25.431  41.954   2.765
49464W        W17858  33.970  27.412   3.713
49465W        W17859   5.729  36.105  13.021
49466W        W17860  41.600  14.171   2.962
49467W        W17861   0.442  32.254   0.490
49468W        W17862  15.575  36.887  13.953
49469W        W17863   8.660   2.289  10.175
49470W        W17864  41.251  10.966  12.035
49471W        W17865  37.438  31.043   4.974
49472W        W17866  20.308   4.721  12.501
49473W        W17867  15.019  42.366  10.783
49474W        W17868   9.776   2.840   3.623
49475W        W17869  41.879   7.260  11.613
49476W        W17870  17.196   7.269  12.044
49477W        W17871   8.124  33.394   0.481
49478W        W17872  36.294   1.208   4.680
49479W        W17873   5.870   6.956  13.503
49480W        W17874  18.328  11.269  11.569
49481W        W17875  33.049   2.290   2.704
49482W        W17876  24.657   6.373  13.621
49483W        W17877  26.649  36.854  13.471
49484W        W17878  20.780  34.389   1.237
49485W        W17879  41.447   1.322   0.831
49486W        W17880  14.822  28.042  13.968
49487W        W17881  10.117  12.831  13.999
49488W        W17882  16.596  29.151  10.211
49489W        W17883  36.723  32.477  13.341
49490W        W17884  26.679  17.229  13.946
49491W        W17885  18.703  18.355  12.155
49492W        W17886  40.252  21.610   2.670
49493W        W17887   6.780  11.761  13.161
49494W        W17888  38.165  13.956  10.680
49495W        W17889  11.109  11.549  12.636
49496W        W17890  37.396  20.519  10.664
49497W        W17891   1.290  24.036   2.871
49498W        W17892  35.995  42.051   3.292
49499W        W17893  42.847  30.141   3.516
49500W        W17894   8.812  16.845   4.164
49501W        W17895  27.193  11.596  14.907
49502W        W17896  35.398   3.416   4.455
49503W        W17897  13.617  27.040  13.166
49504W        W17898  27.962   7.020  12.853
49505W        W17899  33.110  36.604   0.229
49506W        W17900   2.860  17.236  10.830
49507W        W17901   5.758  11.305   1.074
49508W        W17902  34.020  18.712  14.034
49509W        W17903   9.043  14.035   4.366
49510W        W17904  20.655  40.189   2.674
49511W        W17905  21.623   8.168  10.753
49512W        W17906  37.622  32.035   4.042
49513W        W17907  31.142  25.103   4.955
49514W        W17908  35.590  10.021   4.210
49515W        W17909  15.348  17.082   4.938
49516W        W17910  27.680   4.541   2.379
49517W        W17911  43.767  16.446  11.164
49518W        W17912  23.566  13.166  14.704
49519W        W17913  38.204  30.153  12.350
49520W        W17914  24.422  17.844   4.264
49521W        W17915  27.726   3.723   2.754
49522W        W17916  31.827  36.662   1.630
49523W        W17917  38.960  18.072   2.754
49524W        W17918  32.500  14.826  13.313
49525W        W17919   6.103   0.853  13.949
49526W        W17920  19.259  43.821  14.729
49527W        W17921  11.995   4.432  13.340
49528W        W17922  40.105  12.972  14.372
49529W        W17923  37.123  11.826   4.592
49530W        W17924   3.397  23.999   2.803
49531W        W17925  13.198   9.355   0.275
49532W        W17926  32.638  20.243  12.008
49533W        W17927  26.197  16.924  11.722
49534W        W17928  40.266   5.625   0.427
49535W        W17929  28.660   0.227   2.374
49536W        W17930  43.251  13.891   1.831
49537W        W17931  10.872  37.767   4.134
49538W        W17932   5.506  16.331   4.369
49539W        W17933  42.472  15.973   1.144
49540W        W17934  30.510  32.530   3.612
49541W        W17935  36.447  26.909   3.319
49542W        W17936  40.591   8.190   2.334
49543W        W17937  26.692  35.928  12.070
49544W        W17938  26.921  38.656  12.810
49545W        W17939  21.774  29.927   0.432
49546W        W17940  36.557  13.889  13.356
49547W        W17941  43.800  31.422  11.933
49548W        W17942  36.064  20.378   2.395
49549W        W17943   2.449  41.475  12.383
49550W        W17944  31.066  16.296  10.741
49551W        W17945   7.679  41.252  14.729
49552W        W17946  11.663   8.996  12.139
49553W        W17947  16.508  21.679   1.396
49554W        W17948  27.157   6.458   4.579
49555W        W17949  29.728  10.877   4.140
49556W        W17950   5.879   7.982  11.932
49557W        W17951  29.894  42.885  14.310
49558W        W17952   2.309  42.944   1.865
49559W        W17953   2.411  41.974  13.240
49560W        W17954  33.447   3.843   2.744
49561W        W17955  42.159  22.452   4.941
49562W        W17956  26.213   5.040   5.025
49563W        W17957  13.828  29.860   0.395
49564W        W17958  18.601  10.333  12.562
49565W        W17959  30.967  33.061  12.468
49566W        W17960  16.071  28.212   3.077
49567W        W17961   9.635   5.742  13.473
49568W        W17962  15.387  41.974   4.607
49569W        W17963  39.074  33.538  13.804
49570W        W17964  20.781  32.562  12.853
49571W        W17965  36.830  37.309   3.691
49572W        W17966  20.168  19.632  12.606
49573W        W17967  44.473  21.695  14.794
49574W        W17968  41.426  21.290  14.906
49575W        W17969  27.684  22.989   1.300
49576W        W17970  26.066  43.076  11.547
49577W        W17971  13.733  26.993  14.544
49578W        W17972  30.889   3.705  13.508
49579W        W17973   9.016  43.500   2.806
49580W        W17974   7.166  26.047   3.327
49581W        W17975  42.224  39.460   2.327
49582W        W17976  29.533  23.302  10.744
49583W        W17977  14.154  35.477   1.028
49584W        W17978  28.937  10.033  11.505
49585W        W17979   6.917  13.718  13.082
49586W        W17980   6.757  11.208   4.621
49587W        W17981  22.266  14.089   2.798
49588W        W17982  25.609  16.130   3.034
49589W        W17983   0.391  41.689  10.714
49590W        W17984  42.772   7.438   2.220
49591W        W17985   4.447   8.965   0.700
49592W        W17986  42.466  10.860  11.175
49593W        W17987   4.039  21.563   4.641
49594W        W17988  28.949   2.630   2.247
49595W        W17989  40.946  13.291  12.754
49596W        W17990   8.814  24.445  12.088
49597W        W17991   0.491  41.433  13.062
49598W        W17992  26.426  36.870   2.694
49599W        W17993  29.209  34.074   1.635
49600W        W17994  17.133   5.664   2.666
49601W        W17995  20.589  28.177   4.211
49602W        W17996  15.586   2.448   3.175
49603W        W17997  44.523  35.969   2.752
49604W        W17998   9.072   0.224  11.219
49605W        W17999  14.031  22.961   3.191
49606W        W18000   8.529  12.591   2.771
49607W        W18001   9.660  16.880   4.357
49608W        W18002  12.513  23.869  13.570
49609W        W18003  23.965   9.303  13.067
49610W        W18004  18.964  36.720  11.277
49611W        W18005  38.973  32.011   2.632
49612W        W18006   4.503  30.231  13.846
49613W        W18007  30.476  16.090   2.692
49614W        W18008  30.954  31.609  11.167
49615W        W18009  25.455   1.924   4.140
49616W        W18010  29.975  26.637   0.931
49617W        W18011  35.989  25.905  14.195
49618W        W18012   4.686  29.099   1.462
49619W        W18013  44.067  21.486   3.327
49620W        W18014   1.849  24.800  11.168
49621W        W18015  32.458  36.276   0.972
49622W        W18016  37.483  32.497   3.864
49623W        W18017   7.730  11.149  11.026
49624W        W18018   7.343  40.579  14.101
49625W        W18019  38.254  13.085  10.830
49626W        W18020   2.846  12.872  13.372
49627W        W18021  20.517  41.369  14.999
49628W        W18022  35.541  26.561  11.344
49629W        W18023   4.337  32.078  13.389
49630W        W18024  21.218  18.466  10.123
49631W        W18025  14.708  15.011   1.991
49632W        W18026  14.751   5.308   1.188
49633W        W18027   9.095  15.611   4.611
49634W        W18028   5.835   2.668  13.020
49635W        W18029  11.158   5.702   2.176
49636W        W18030  17.681   8.625  13.447
49637W        W18031  13.387  11.350   2.272
49638W        W18032   1.106   1.903   0.183
49639W        W18033   1.314   2.262  10.594
49640W        W18034  24.034  10.136   4.081
49641W        W18035  28.789  36.648   4.237
49642W        W18036  21.833  42.819   2.933
49643W        W18037   4.009   5.715  11.465
49644W        W18038  29.576  11.088   2.864
49645W        W18039   5.264  26.624  11.960
49646W        W18040  14.855  34.603   0.355
49647W        W18041  18.745  40.581  11.105
49648W        W18042  36.298  10.321   3.672
49649W        W18043   8.970   8.225   1.738
49650W        W18044  28.011  21.591  10.421
49651W        W18045  11.340  25.000  13.037
49652W        W18046  31.323  30.370   5.028
49653W        W18047  35.663  26.607  13.464
49654W        W18048  41.768  16.213  11.985
49655W        W18049  20.588   3.884   2.138
49656W        W18050  34.005  31.992  13.323
49657W        W18051  19.764   7.332   2.104
49658W        W18052  16.604  22.497  12.470
49659W        W18053   1.504  16.789   1.759
49660W        W18054  39.968  21.974  10.811
49661W        W18055   5.870   1.675  12.539
49662W        W18056  19.528  26.160  12.552
49663W        W18057  10.190  18.899  12.992
49664W        W18058   1.223  27.249   4.582
49665W        W18059   8.868  13.775   1.033
49666W        W18060  26.658  29.218  13.905
49667W        W18061  11.777  18.489  12.471
49668W        W18062   2.360  44.056  12.601
49669W        W18063  34.912  37.902  13.047
49670W        W18064  44.018  16.794   2.599
49671W        W18065   2.877  15.449  14.314
49672W        W18066  44.415  30.407  12.840
49673W        W18067   5.986  44.799   3.809
49674W        W18068  39.053  33.454  11.444
49675W        W18069   8.637   8.393   3.588
49676W        W18070   9.226   2.594  11.463
49677W        W18071   9.429  27.208   4.611
49678W        W18072  15.605   9.692   4.082
49679W        W18073  33.653  38.427   4.115
49680W        W18074  13.081  44.371   2.125
49681W        W18075  15.364  15.942  14.869
49682W        W18076  22.538   7.700   4.807
49683W        W18077   7.176  16.056  11.932
49684W        W18078  22.800  32.507  11.106
49685W        W18079   6.922  25.245  11.197
49686W        W18080   9.869  19.254   4.448
49687W        W18081  32.588  21.637   1.165
49688W        W18082  16.330  32.242   2.328
49689W        W18083  23.055   1.933  12.791
49690W        W18084  17.069  30.001  12.946
49691W        W18085  14.674   4.180   3.356
49692W        W18086   9.073  31.915   0.622
49693W        W18087  41.001  10.048  13.753
49694W        W18088  39.925  19.050   4.151
49695W        W18089  36.017  24.984  12.103
49696W        W18090   8.118  14.272  14.409
49697W        W18091  24.754  14.206   2.862
49698W        W18092  33.874  30.217  10.504
49699W        W18093  33.577  20.124   2.873
49700W        W18094  24.609   7.097   2.602
49701W        W18095  40.461   4.132  12.509
49702W        W18096  34.896  32.381   1.177
49703W        W18097  29.030  28.743   0.908
49704W        W18098  30.163   6.807   1.326
49705W        W18099  42.298  10.442  13.881
49706W        W18100   5.743  28.938   0.797
49707W        W18101  31.069  21.450  12.151
49708W        W18102  20.719  27.929  12.561
49709W        W18103   8.609  24.984  13.522
49710W        W18104  18.004   4.237   2.795
49711W        W18105  27.934   3.972  13.543
49712W        W18106   4.751  10.367   4.809
49713W        W18107   6.283  44.967  12.975
49714W        W18108  25.208   0.236   2.651
49715W        W18109  23.780  14.380   1.295
49716W        W18110  14.336  12.894  14.090
49717W        W18111  36.987  21.553  14.769
49718W        W18112  22.070  18.762  11.742
49719W        W18113  23.068  22.081  10.701
49720W        W18114  35.309  10.889   4.035
49721W        W18115  43.762   8.340  12.385
49722W        W18116   2.421  21.630  13.889
49723W        W18117  35.822  37.475  14.509
49724W        W18118  41.820  32.626  10.766
49725W        W18119  23.894   8.912   0.953
49726W        W18120  23.120  16.732  14.310
49727W        W18121   6.024  25.517   0.545
49728W        W18122  10.405  20.778  14.502
49729W        W18123  32.514  20.114  10.644
49730W        W18124  35.677   9.287  13.844
49731W        W18125   7.795  38.015  13.513
49732W        W18126  44.963  37.915   1.455
49733W        W18127  21.508  19.062   0.154
49734W        W18128  12.895  32.012  14.778
49735W        W18129  36.114  42.000   4.233
49736W        W18130   9.203   6.029   3.294
49737W        W18131   6.686  28.105   3.274
49738W        W18132  23.471  25.161  14.336
49739W        W18133  23.437  13.812   1.385
49740W        W18134  14.319  17.071  14.836
49741W        W18135  43.391  44.252   2.814
49742W        W18136  31.843  18.625   2.822
49743W        W18137  16.329  23.603   1.419
49744W        W18138  32.407  35.053   0.947
49745W        W18139  10.728  38.470  13.878
49746W        W18140  14.796  10.122  13.369
49747W        W18141  33.412  41.584  13.735
49748W        W18142   4.278   8.248   0.410
49749W        W18143   0.561  16.370  10.722
49750W        W18144  44.333  24.132  10.669
49751W        W18145  32.404  21.669  12.911
49752W        W18146  44.049   8.669   1.878
49753W        W18147  39.633  26.394   0.931
49754W        W18148  22.827  30.578  10.399
49755W        W18149   0.698  14.529  14.882
49756W        W18150   5.742  35.879  12.025
49757W        W18151   1.855  14.523  11.992
49758W        W18152   0.524  22.544   2.810
49759W        W18153  27.178  44.667  14.950
49760W        W18154  42.995  25.363  10.412
49761W        W18155  44.320  11.855   3.746
49762W        W18156  23.167  29.327  12.143
49763W        W18157  20.760  13.863  11.957
49764W        W18158  15.297  38.872  13.382
49765W        W18159   2.187   0.369  13.389
49766W        W18160  36.700  25.319   4.256
49767W        W18161   0.341  12.332   2.098
49768W        W18162  28.142  43.407  10.437
49769W        W18163  14.137  11.660   3.267
49770W        W18164  41.402  43.392   1.957
49771W        W18165   2.780  10.151  11.946
49772W        W18166  35.621  44.653   1.480
49773W        W18167  39.096  11.862   2.294
49774W        W18168  42.473  17.322  10.627
49775W        W18169  36.519  30.287   4.944
49776W        W18170  22.977  14.284  11.137
49777W        W18171  30.856  39.630  11.146
49778W        W18172  36.890   4.878  12.549
49779W        W18173  32.356  22.120  12.516
49780W        W18174  37.901   7.674   1.809
49781W        W18175  44.320  31.400  12.025
49782W        W18176   7.310   6.978  10.204
49783W        W18177  10.795  28.856   3.193
49784W        W18178  35.101   8.751  11.131
49785W        W18179  42.553   9.300  11.158
49786W        W18180  37.769   2.775   2.860
49787W        W18181  33.984  28.583   4.430
49788W        W18182  26.510   9.756  14.329
49789W        W18183  18.187  35.037  11.909
49790W        W18184  29.844   8.868   3.362
49791W        W18185  44.580  20.709   3.831
49792W        W18186   5.198   5.486  11.538
49793W        W18187   3.668  12.862   1.640
49794W        W18188  24.038  43.926   2.588
49795W        W18189   5.651   7.793  13.889
49796W        W18190  41.847  21.111  13.871
49797W        W18191   7.282  20.306   2.607
49798W        W18192  23.554  23.283   3.226
49799W        W18193   7.187  40.752  12.105
49800W        W18194  29.978  11.961   2.355
49801W        W18195  22.750  12.752   0.379
49802W        W18196  16.611  16.537  11.763
49803W        W18197   6.288  16.374  12.962
49804W        W18198  15.510  27.786   5.162
49805W        W18199  35.528  40.620  11.229
49806W        W18200   0.742   2.079   2.398
49807W        W18201  28.319  34.850  14.746
49808W        W18202  34.502  39.815   4.570
49809W        W18203   9.749  40.123  14.880
49810W        W18204   4.249  36.021  13.168
49811W        W18205  34.443  33.773   3.858
49812W        W18206  44.367   8.404  11.042
49813W        W18207  30.841  28.570   0.652
49814W        W18208  19.056  18.673  12.381
49815W        W18209  16.851  43.746  11.626
49816W        W18210  19.589  24.932  12.870
49817W        W18211  27.795   0.734   3.173
49818W        W18212  38.572  23.484   2.245
49819W        W18213  15.707   6.388   3.180
49820W        W18214  31.599  21.715   3.668
49821W        W18215  44.438  40.597  11.089
49822W        W18216  24.683  13.079  12.935
49823W        W18217  36.047  30.935  13.988
49824W        W18218  16.591  23.791   3.622
49825W        W18219  16.083  41.314  10.542
49826W        W18220  17.155   7.094  13.880
49827W        W18221  25.285  31.896  13.425
49828W        W18222  43.715  38.303  12.078
49829W        W18223  17.300  13.771   5.067
49830W        W18224  30.905  33.304  12.034
49831W        W18225  26.697  40.013   3.263
49832W        W18226   8.711  43.964   0.354
49833W        W18227  39.852  10.109  12.461
49834W        W18228   0.495   7.038   3.748
49835W        W18229  22.424  42.794  11.275
49836W        W18230  25.035  15.748   4.209
49837W        W18231   8.374   1.212  12.001
49838W        W18232  25.297  43.191   4.155
49839W        W18233  43.520  14.140   2.215
49840W        W18234  31.387  26.958   0.162
49841W        W18235  33.498  39.064  11.745
49842W        W18236  31.985  35.740   2.754
49843W        W18237   7.726  30.460   2.824
49844W        W18238  28.211   8.391  10.808
49845W        W18239  29.856  36.836  11.228
49846W        W18240  28.318  24.089  11.161
49847W        W18241  37.504  12.577  13.402
49848W        W18242   8.749  12.143   0.598
49849W        W18243  25.013  25.606   0.833
49850W        W18244  42.670   9.128   1.456
49851W        W18245  33.742  39.769  10.592
49852W        W18246  23.181   6.343   4.613
49853W        W18247  29.656   2.274   2.900
49854W        W18248  42.611  40.966  11.862
49855W        W18249  20.250  37.131   3.172
49856W        W18250  34.519  39.891   1.957
49857W        W18251  43.195  21.607   4.234
49858W        W18252   0.273   9.764   0.407
49859W        W18253  35.076  17.216  11.413
49860W        W18254  16.180  19.011  12.015
49861W        W18255  25.177  44.920   4.420
49862W        W18256  27.446   8.358   0.684
49863W        W18257  32.750  44.648  14.285
49864W        W18258  14.393  18.516  12.820
49865W        W18259  44.841   0.457  13.787
49866W        W18260  27.366   9.516   3.711
49867W        W18261  40.871   8.779  10.759
49868W        W18262  34.497  20.817  14.850
49869W        W18263  44.305  27.268   3.166
49870W        W18264  36.001  17.255  13.545
49871W        W18265  11.817   2.155   2.862
49872W        W18266  32.369  23.772   0.545
49873W        W18267  25.126  18.295   1.091
49874W        W18268   8.194  16.471   0.824
49875W        W18269  32.581   2.869  11.474
49876W        W18270  43.468  13.237  12.409
49877W        W18271  35.841  16.077   0.189
49878W        W18272   4.956  39.045   3.124
49879W        W18273  21.797  43.003  14.915
49880W        W18274  29.638  13.163   1.448
49881W        W18275   8.994   3.122  13.712
49882W        W18276  21.052   0.266   2.379
49883W        W18277   7.762   5.490   2.776
49884W        W18278  41.362   7.373  13.554
49885W        W18279  42.743  25.183  13.421
49886W        W18280  21.724  43.550  14.073
49887W        W18281  10.007  28.704   0.479
49888W        W18282  17.781  42.324   3.743
49889W        W18283  16.158  27.013  10.562
49890W        W18284  16.446  27.552  13.958
49891W        W18285  12.409  30.428   1.072
49892W        W18286  35.047   3.032   4.406
49893W        W18287  27.550  42.380   3.381
49894W        W18288  26.637  35.071  11.550
49895W        W18289  37.069   8.981  13.894
49896W        W18290  11.889   5.684   1.779
49897W        W18291  17.329  39.109   1.393
49898W        W18292  26.938  27.466   1.474
49899W        W18293  37.012  39.429   1.823
49900W        W18294  33.924  16.176   2.127
49901W        W18295  13.158  24.561  12.845
49902W        W18296  17.214  32.299   2.812
49903W        W18297   3.450  43.012   4.946
49904W        W18298  10.372  37.423   1.625
49905W        W18299  20.739  28.406  13.364
49906W        W18300  37.757  15.002  14.902
49907W        W18301  35.103  24.207   1.791
49908W        W18302  16.533  18.953  13.372
49909W        W18303  27.902  20.995  12.383
49910W        W18304  28.848  33.233  12.381
49911W        W18305  14.356  36.375   0.172
49912W        W18306   3.231  17.181   0.717
49913W        W18307  11.865   0.342   1.390
49914W        W18308   2.246  30.394  11.020
49915W        W18309  31.507   1.379  13.041
49916W        W18310  24.767  26.640   4.280
49917W        W18311  43.911  35.071   3.880
49918W        W18312  15.109  21.043   0.340
49919W        W18313  14.090  24.682  13.478
49920W        W18314  22.936  27.676   3.245
49921W        W18315   3.664  25.453   1.798
49922W        W18316  35.616  18.190   2.226
49923W        W18317  21.302   4.525  12.034
49924W        W18318   2.303  19.992   1.841
49925W        W18319  41.424   8.468   2.382
49926W        W18320  10.880   6.409   2.770
49927W        W18321  12.142  17.553  10.308
49928W        W18322  42.716  17.856  13.861
49929W        W18323  18.236  37.805  10.980
49930W        W18324  21.264  13.709  11.928
49931W        W18325  11.970  16.241  12.436
49932W        W18326  42.409  42.023  11.000
49933W        W18327  34.898  44.460   0.509
49934W        W18328  43.938  32.062   9.921
49935W        W18329   3.020  39.363  11.874
49936W        W18330  22.225  28.458   1.326
49937W        W18331  19.786  23.295   3.769
49938W        W18332  24.614  39.392   1.890
49939W        W18333  29.833   1.823  14.922
49940W        W18334   4.284  15.305  12.331
49941W        W18335  18.482  35.032  10.648
49942W        W18336  39.714  36.855  11.739
49943W        W18337   9.129  27.973  12.104
49944W        W18338  16.850  44.874  13.597
49945W        W18339   6.814  42.272   3.348
49946W        W18340  26.081  11.548  10.620
49947W        W18341  34.371   4.972  13.451
49948W        W18342   5.967  30.457   3.245
49949W        W18343  26.992  31.545   3.674
49950W        W18344  22.963  39.102   1.215
49951W        W18345  10.056  15.517  10.784
49952W        W18346  31.636  13.613  11.624
49953W        W18347  33.853   4.852   4.529
49954W        W18348  37.465  15.496   3.617
49955W        W18349   6.665  32.018  14.086
49956W        W18350   3.564  11.538   4.304
49957W        W18351  20.017  12.803   1.455
49958W        W18352  13.498   0.210   2.774
49959W        W18353  33.949  31.688  11.266
49960W        W18354  11.774  42.068  14.492
49961W        W18355  12.593   0.734  12.959
49962W        W18356  30.110  43.526  13.946
49963W        W18357  27.668   1.474  10.665
49964W        W18358   8.720  24.194  11.643
49965W        W18359  40.500  19.653   3.109
49966W        W18360  16.749  24.521  12.460
49967W        W18361  44.360  13.777  11.363
49968W        W18362   2.166  11.320  10.491
49969W        W18363  33.534   4.468   1.421
49970W        W18364  21.909   6.947   1.571
49971W        W18365  37.018   2.241   2.401
49972W        W18366  12.133  33.177  12.113
49973W        W18367  34.008  11.926   1.000
49974W        W18368   1.029  19.995  12.071
49975W        W18369  40.041   8.875  12.023
49976W        W18370  23.163  34.659   3.595
49977W        W18371  19.581   6.356   2.427
49978W        W18372  16.758  39.770   3.677
49979W        W18373  26.288  34.836   3.808
49980W        W18374   5.966  10.707  11.114
49981W        W18375  42.263   5.303   2.413
49982W        W18376  28.157  23.973  10.683
49983W        W18377   2.645  16.769   3.616
49984W        W18378  35.436  36.395   4.695
49985W        W18379  37.077  20.750  13.892
49986W        W18380   0.191  28.235  14.445
49987W        W18381   0.922  21.518   1.394
49988W        W18382  23.253  26.557  14.289
49989W        W18383  34.838  22.669  13.410
49990W        W18384  26.214  35.627   0.199
49991W        W18385  40.304  11.174  12.141
49992W        W18386  41.964  19.535   4.555
49993W        W18387  43.406   2.858   5.002
49994W        W18388   9.238  14.827  12.012
49995W        W18389  21.278   3.339  10.556
49996W        W18390   2.002  23.429  14.019
49997W        W18391   5.459   0.857  11.378
49998W        W18392  18.135  10.362  14.647
49999W        W18393  17.325  36.022   2.828
50000W        W18394   0.376   8.425  10.051
50001W        W18395  11.546  38.473   1.161
50002W        W18396  13.183   1.224   0.246
50003W        W18397  23.405   7.243   4.455
50004W        W18398  32.134  39.851   1.430
50005W        W18399  19.973   5.253   4.265
50006W        W18400  15.178  43.690   4.272
50007W        W18401  44.376  17.707   1.906
50008W        W18402   0.744   2.899  14.710
50009W        W18403   4.497  28.978  11.297
50010W        W18404  28.902  28.974  14.410
50011W        W18405  39.814  17.802  11.633
50012W        W18406  36.976  24.303  11.452
50013W        W18407  11.498   4.160   0.721
50014W        W18408  22.263  14.102  12.771
50015W        W18409  25.207  33.505  13.826
50016W        W18410   8.070   8.456  14.470
50017W        W18411   5.728  44.447  14.760
50018W        W18412  28.599  43.618   2.284
50019W        W18413  42.400  40.535  13.920
50020W        W18414   5.119  17.184   4.172
50021W        W18415  11.284   9.304   0.601
50022W        W18416  26.700  37.772   0.962
50023W        W18417   8.319  36.560  11.415
50024W        W18418  43.651   7.726   2.292
50025W        W18419   7.398  18.319   0.756
50026W        W18420  15.878  13.875  13.927
50027W        W18421   9.497  32.929   1.791
50028W        W18422  40.845  24.812   3.231
50029W        W18423  43.692  36.639   2.742
50030W        W18424   5.643  37.487   2.407
50031W        W18425  36.833  39.841  11.990
50032W        W18426  13.314  25.269   0.250
50033W        W18427  13.663  26.265  14.083
50034W        W18428  41.967  26.468   3.736
50035W        W18429   7.272  15.599  11.699
50036W        W18430   8.819  43.481   4.076
50037W        W18431  43.752  27.483   3.808
50038W        W18432   8.131  39.815  13.497
50039W        W18433  41.447  15.687  13.407
50040W        W18434  25.155  12.963   4.244
50041W        W18435  12.760  22.826  12.787
50042W        W18436  11.808  14.160  12.623
50043W        W18437  28.510   3.529  11.557
50044W        W18438  18.980  28.124  12.694
50045W        W18439  27.498   5.775   0.143
50046W        W18440  27.748  10.382  14.867
50047W        W18441  27.189  35.979  14.299
50048W        W18442  38.312   1.712   3.249
50049W        W18443  13.198  36.841  12.987
50050W        W18444   3.064  31.820  11.598
50051W        W18445  44.810  10.798  14.218
50052W        W18446  28.698  35.354  13.833
50053W        W18447   9.775   1.520   0.924
50054W        W18448  27.302  20.005  12.877
50055W        W18449  19.976  31.495   1.194
50056W        W18450   4.647  34.655  12.559
50057W        W18451   1.856  24.263  14.406
50058W        W18452  33.993  29.076   1.005
50059W        W18453  21.450  25.947  13.866
50060W        W18454  40.498  16.619   1.917
50061W        W18455  42.134  39.566   4.507
50062W        W18456   8.710  23.527  14.528
50063W        W18457   8.825  33.520   1.199
50064W        W18458  16.289  10.835  14.388
50065W        W18459  21.975  43.126   3.788
50066W        W18460  14.768   7.876  13.033
50067W        W18461  33.109  31.391  12.512
50068W        W18462   5.273   8.691   9.813
50069W        W18463   8.202  12.356  12.249
50070W        W18464  42.478   5.631  11.248
50071W        W18465  37.835  40.997   3.567
50072W        W18466   9.193   4.669   1.270
50073W        W18467  15.765   3.349  11.182
50074W        W18468   9.994  28.180   0.349
50075W        W18469  12.196  26.686   3.195
50076W        W18470  35.871   9.341  14.448
50077W        W18471  20.301  10.497   3.282
50078W        W18472   5.148  11.336  12.160
50079W        W18473  37.328  14.663   2.076
50080W        W18474  11.804   2.236   0.360
50081W        W18475   0.073  10.229   0.393
50082W        W18476   0.327  28.516   1.337
50083W        W18477  13.626  12.531  14.913
50084W        W18478  11.757  21.643   0.585
50085W        W18479  13.668  44.440   2.484
50086W        W18480  39.109  13.553   4.325
50087W        W18481  23.967   2.343  10.666
50088W        W18482  39.700  16.985   1.264
50089W        W18483   1.968  18.738   2.406
50090W        W18484  37.515  32.986   1.285
50091W        W18485  14.600   8.305   3.656
50092W        W18486  30.607  17.592  10.332
50093W        W18487  30.584  43.486   1.289
50094W        W18488  44.142  29.538  12.062
50095W        W18489  40.322  21.007   1.324
50096W        W18490  10.397  12.181   2.768
50097W        W18491  26.642  23.682   2.759
50098W        W18492   9.158  24.081   4.526
50099W        W18493  10.371   7.271  13.054
50100W        W18494  36.857  28.544  12.468
50101W        W18495  12.118  29.469   0.428
50102W        W18496  15.920   8.085   5.076
50103W        W18497  28.243  29.153   1.073
50104W        W18498   1.905  23.804   0.770
50105W        W18499  31.065  21.359  13.874
50106W        W18500  43.410   9.746   3.915
50107W        W18501  30.847  37.387   4.653
50108W        W18502  28.262   2.344   1.880
50109W        W18503  33.917  30.821   0.249
50110W        W18504  18.076  22.640  13.535
50111W        W18505  19.054  44.219   1.230
50112W        W18506  36.965  35.043   1.485
50113W        W18507  27.086   9.787   3.323
50114W        W18508   5.648   6.844   4.030
50115W        W18509  28.612  38.535  13.526
50116W        W18510  17.232  15.329  11.780
50117W        W18511   2.715  20.318   1.828
50118W        W18512  28.506  27.630   0.415
50119W        W18513   9.865  10.107  14.484
50120W        W18514  30.651  34.067  14.371
50121W        W18515   7.138   0.908   0.322
50122W        W18516  33.196   0.327  12.701
50123W        W18517  13.685  17.165   4.533
50124W        W18518  39.053  10.407  14.899
50125W        W18519  16.475  32.321  13.510
50126W        W18520   3.379  18.273   2.800
50127W        W18521  40.124   1.272  11.133
50128W        W18522  41.473  17.279  10.766
50129W        W18523  11.291  43.442   1.665
50130W        W18524   4.282  36.621   5.212
50131W        W18525  32.068  42.278   4.130
50132W        W18526  17.473  13.624   1.366
50133W        W18527   0.389   6.161  14.408
50134W        W18528  40.375  10.706  14.920
50135W        W18529  11.161   8.019   2.323
50136W        W18530  20.704  27.131  13.964
50137W        W18531   6.106   1.818  12.079
50138W        W18532  25.038  30.085   4.480
50139W        W18533  38.612  11.297  13.605
50140W        W18534  17.167  32.819   2.856
50141W        W18535  44.845  26.768   9.988
50142W        W18536  44.489  31.350  11.327
50143W        W18537   3.905  19.255   0.704
50144W        W18538  27.950   6.987  11.978
50145W        W18539   3.671  16.211  12.864
50146W        W18540  28.166   4.857  13.688
50147W        W18541  14.731  28.073   0.892
50148W        W18542  37.930  15.286  11.685
50149W        W18543   0.006  28.111   1.672
50150W        W18544  33.364   0.956  14.037
50151W        W18545  15.902   3.386  13.940
50152W        W18546  14.236  24.959  13.917
50153W        W18547   1.456  31.279   2.410
50154W        W18548  26.719   0.668  11.411
50155W        W18549  12.249  18.884  13.336
50156W        W18550  36.240  43.080  11.223
50157W        W18551  27.361  29.596  11.725
50158W        W18552  43.428  44.702  12.612
50159W        W18553  35.924  34.328  13.094
50160W        W18554  25.521  28.613   0.434
50161W        W18555  22.210  18.388  14.708
50162W        W18556  23.959   8.124   2.263
50163W        W18557  11.370   9.714   1.649
50164W        W18558  13.300  23.962   2.250
50165W        W18559  13.147  22.746   1.265
50166W        W18560  31.106  16.588  12.057
50167W        W18561  21.145   2.423   4.408
50168W        W18562  25.650   3.823  10.290
50169W        W18563  33.848  41.238  10.772
50170W        W18564  39.460  11.704   1.015
50171W        W18565  18.780   9.227  13.413
50172W        W18566   9.959  22.022  14.553
50173W        W18567  18.768  35.733   1.923
50174W        W18568  31.386  40.819   2.458
50175W        W18569  16.572   7.704  13.495
50176W        W18570  16.277  44.336   3.953
50177W        W18571  27.490  25.696  14.264
50178W        W18572  43.896  33.494  13.485
50179W        W18573  26.575  32.730  12.072
50180W        W18574  26.611  43.210   5.086
50181W        W18575   8.865  24.233   0.971
50182W        W18576   1.493  14.180   1.644
50183W        W18577  11.183  40.859  11.316
50184W        W18578  15.761  26.971   2.357
50185W        W18579  44.972  36.573   1.566
50186W        W18580   0.574  26.132  13.870
50187W        W18581  26.955  37.353   1.882
50188W        W18582  38.132   1.705   0.499
50189W        W18583  12.369  19.535   2.792
50190W        W18584  12.834  31.026  12.298
50191W        W18585  40.091  29.518   3.542
50192W        W18586  21.311   7.380  11.954
50193W        W18587  44.506  43.908   5.049
50194W        W18588  43.017  33.938   0.697
50195W        W18589  42.099  43.309   3.070
50196W        W18590  25.456   3.740  14.933
50197W        W18591  17.284   3.945   3.400
50198W        W18592  21.927   8.191   2.933
50199W        W18593  38.836  34.568  10.150
50200W        W18594  29.459  35.118  12.669
50201W        W18595  21.558  14.694   1.864
50202W        W18596  42.198  35.023  13.894
50203W        W18597  17.307  23.228  10.686
50204W        W18598  25.044   5.442   2.389
50205W        W18599  24.604  25.040  11.609
50206W        W18600   5.332  41.879  11.683
50207W        W18601  17.193   0.001  14.918
50208W        W18602  33.557  18.987   4.848
50209W        W18603   4.845  41.066   1.723
50210W        W18604  31.982  20.652  14.862
50211W        W18605  12.872  44.479   1.630
50212W        W18606   0.969   6.211   2.337
50213W        W18607   0.985  37.461   0.729
50214W        W18608   5.015  26.289   0.264
50215W        W18609   0.066  40.343  13.568
50216W        W18610   8.306  12.890   3.263
50217W        W18611  34.766  30.956   1.628
50218W        W18612   9.090  40.393  14.595
50219W        W18613   9.273  31.070  12.341
50220W        W18614  38.833  27.513   1.839
50221W        W18615   3.856  43.436   2.408
50222W        W18616  36.108  20.076   1.984
50223W        W18617  19.498  36.184   0.236
50224W        W18618  31.131  24.243   4.079
50225W        W18619  13.545  17.319  11.276
50226W        W18620  43.454  32.878   3.236
50227W        W18621  30.900  37.965  11.993
50228W        W18622  30.454   4.038  11.219
50229W        W18623  34.588  34.093  14.949
50230W        W18624  31.748  42.274   0.029
50231W        W18625   4.419  23.774  13.908
50232W        W18626  30.951  15.502  11.678
50233W        W18627  10.907  20.025   2.754
50234W        W18628  30.900  24.450  13.113
50235W        W18629  32.970  25.017   0.680
50236W        W18630  11.368   1.717   2.207
50237W        W18631  16.692   8.953   3.175
50238W        W18632  22.112  25.646   3.940
50239W        W18633  15.319  12.572   2.363
50240W        W18634   2.314   4.485  13.933
50241W        W18635  25.524  15.758   0.907
50242W        W18636   7.319  20.296   1.706
50243W        W18637   6.745   8.339  12.756
50244W        W18638  44.039  30.404   2.363
50245W        W18639  18.777  23.899  13.339
50246W        W18640   7.178  26.590  14.342
50247W        W18641  34.996  28.836   3.707
50248W        W18642   9.225  13.579  14.413
50249W        W18643  30.561   5.783   0.221
50250W        W18644  35.891  32.205  14.571
50251W        W18645  12.673  34.128   2.669
50252W        W18646   9.426  20.167  11.584
50253W        W18647  41.456  18.644   1.002
50254W        W18648  30.478  27.550   4.152
50255W        W18649  22.576   9.714   3.273
50256W        W18650   9.402  24.225   4.098
50257W        W18651  21.806  37.827  13.833
50258W        W18652  18.358  39.326  12.883
50259W        W18653   1.979  26.560   4.137
50260W        W18654  16.251  17.524  12.468
50261W        W18655   7.671  30.180  11.657
50262W        W18656  16.461  11.727  11.083
50263W        W18657  12.360  17.279   3.066
50264W        W18658  41.849  37.589  14.365
50265W        W18659   6.220   4.162   0.368
50266W        W18660  15.594  33.693  12.594
50267W        W18661  22.763  35.066  11.170
50268W        W18662  12.662   7.482   2.424
50269W        W18663  38.806  34.875   1.835
50270W        W18664  26.705   7.690   3.790
50271W        W18665   0.261   6.440  14.829
50272W        W18666  26.134  15.761   1.434
50273W        W18667  20.368  12.599   2.665
50274W        W18668  17.393  13.612  11.135
50275W        W18669  38.053  25.396   0.261
50276W        W18670  18.036   5.664  13.943
50277W        W18671  44.005  10.376  14.494
50278W        W18672  18.874   0.950  10.933
50279W        W18673  41.790  33.452  13.958
50280W        W18674  41.065  40.314   0.903
50281W        W18675  44.019  33.864  12.624
50282W        W18676  44.033  24.663  13.397
50283W        W18677  10.700  20.670  12.644
50284W        W18678   6.210  31.712  10.746
50285W        W18679  39.492  12.752   1.558
50286W        W18680   2.093  16.358   3.788
50287W        W18681  27.524  20.753  12.634
50288W        W18682  11.817  35.231  11.957
50289W        W18683  43.018  44.504   3.730
50290W        W18684  42.447  44.596  14.752
50291W        W18685   4.968   1.210   2.011
50292W        W18686  12.212  44.541   2.205
50293W        W18687  33.160  43.352  14.752
50294W        W18688  34.595  12.140  13.969
50295W        W18689  19.308  25.238  14.784
50296W        W18690  43.762  13.234   4.439
50297W        W18691   7.852  31.500  10.733
50298W        W18692  42.977   8.757   1.192
50299W        W18693  26.523   0.262   2.378
50300W        W18694  25.560   6.448   1.896
50301W        W18695  38.863  23.178  11.012
50302W        W18696  33.041  43.534  12.091
50303W        W18697  24.904  10.161   0.663
50304W        W18698  33.958   9.580   3.615
50305W        W18699  29.484  37.930   4.511
50306W        W18700  11.648  13.097  11.187
50307W        W18701  39.434  21.159  13.751
50308W        W18702  21.079  22.906   1.207
50309W        W18703  16.516   1.151   4.077
50310W        W18704  29.423  44.410   4.094
50311W        W18705  37.269  21.105  12.496
50312W        W18706   2.615  35.618  11.187
50313W        W18707  19.767  20.514   4.138
50314W        W18708  16.126   0.770  13.440
50315W        W18709  25.627   8.646  12.922
50316W        W18710   1.796   6.250   1.978
50317W        W18711  37.338  10.832  13.941
50318W        W18712   0.911  39.173   4.542
50319W        W18713   7.662   1.985   2.426
50320W        W18714  22.076  30.220  12.134
50321W        W18715  23.757  13.578   0.405
50322W        W18716  21.745  14.162  11.624
50323W        W18717  17.485  19.419  13.392
50324W        W18718   9.888  36.866  11.695
50325W        W18719  43.450  29.003   4.847
50326W        W18720  32.511  20.963  13.544
50327W        W18721  38.014  15.818   2.783
50328W        W18722   6.967  18.332   3.303
50329W        W18723  32.579  28.298  12.967
50330W        W18724   0.808  10.162  14.262
50331W        W18725  23.519  39.362   0.323
50332W        W18726  21.264  19.284  13.001
50333W        W18727  23.738  44.958  14.020
50334W        W18728  17.057  18.003  12.422
50335W        W18729  26.637  22.088   1.666
50336W        W18730  11.855  39.440  11.769
50337W        W18731  16.521   6.959   1.776
50338W        W18732   2.000   7.530  14.048
50339W        W18733  31.991  27.785   1.437
50340W        W18734   1.332  27.143   2.385
50341W        W18735  21.636   6.510   9.915
50342W        W18736  31.920  29.603   1.628
50343W        W18737  20.298  40.781   3.661
50344W        W18738  29.901  42.451   0.924
50345W        W18739  39.025  24.302  14.936
50346W        W18740  24.752  20.591   0.248
50347W        W18741  22.925  16.797  11.558
50348W        W18742  18.274  31.413  14.967
50349W        W18743   0.011  13.724   1.275
50350W        W18744  44.669  18.754  12.139
50351W        W18745  29.192  42.856   4.667
50352W        W18746  17.131  41.128   2.845
50353W        W18747  33.225  42.453   3.154
50354W        W18748  38.784  10.893   3.199
50355W        W18749  14.615   5.993  12.377
50356W        W18750  32.973  13.131   3.602
50357W        W18751  35.121  36.441   4.300
50358W        W18752   0.391  11.612   4.274
50359W        W18753  44.115  32.663   3.590
50360W        W18754  29.724   6.312   4.486
50361W        W18755  14.641  12.946   3.142
50362W        W18756  40.085  30.301   3.049
50363W        W18757   6.406  32.735   3.261
50364W        W18758   4.987  41.100  12.374
50365W        W18759   7.444   4.894   5.172
50366W        W18760  24.223  39.329   2.409
50367W        W18761   4.760  27.647   3.966
50368W        W18762  28.021  35.155   4.864
50369W        W18763  10.422  19.958  14.920
50370W        W18764  32.437  15.586  10.081
50371W        W18765  20.482  42.592   1.271
50372W        W18766  21.748  21.489   1.767
50373W        W18767  31.127  39.085   3.765
50374W        W18768  33.820  20.107  14.500
50375W        W18769  34.606  33.197   1.349
50376W        W18770  42.893  28.179   1.968
50377W        W18771  43.826  44.228   0.708
50378W        W18772  29.326  42.059  11.624
50379W        W18773  23.500  29.581  13.829
50380W        W18774   1.266  39.952   2.968
50381W        W18775   4.840  42.700   2.238
50382W        W18776   9.050  40.413  12.623
50383W        W18777  27.841  35.403  12.831
50384W        W18778  34.568   2.026   2.252
50385W        W18779  18.345  32.492  13.788
50386W        W18780  34.663  42.518   1.828
50387W        W18781  17.008   0.510  11.143
50388W        W18782  15.475  29.687   1.731
50389W        W18783   5.836  10.269  13.833
50390W        W18784  35.594  12.544  12.061
50391W        W18785  33.521  20.660   2.693
50392W        W18786   5.076  32.657   2.311
50393W        W18787  24.231  26.738  13.034
50394W        W18788  13.412  22.759   0.387
50395W        W18789  12.350  38.590  13.106
50396W        W18790  21.839  15.501  12.075
50397W        W18791  37.096  11.741  14.881
50398W        W18792  39.129   4.498  14.008
50399W        W18793   6.754  21.180  13.388
50400W        W18794  44.349  37.157  13.666
50401W        W18795  28.145  29.656  14.772
50402W        W18796  22.824  18.730   4.869
50403W        W18797  14.544  25.806  12.002
50404W        W18798  30.550  35.864  12.342
50405W        W18799  31.436  28.284  14.278
50406W        W18800  29.129  38.049  13.325
50407W        W18801  18.236  37.841  12.902
50408W        W18802  25.599  34.474  10.130
50409W        W18803  36.109  19.572   1.803
50410W        W18804  41.477  26.583  14.369
50411W        W18805  14.159  10.237   0.896
50412W        W18806  31.551  21.614  13.993
50413W        W18807  14.244  25.982   0.752
50414W        W18808  24.269   3.704  11.045
50415W        W18809  35.599  28.012  10.532
50416W        W18810  25.041  14.564  12.572
50417W        W18811  29.024  29.720   4.224
50418W        W18812  25.174  29.016   2.819
50419W        W18813   5.728  13.899  14.067
50420W        W18814   1.292   3.531   3.788
50421W        W18815  34.528  29.137   0.914
50422W        W18816  25.053  40.809   2.339
50423W        W18817   3.407  28.513  10.750
50424W        W18818   6.227  27.954  11.193
50425W        W18819  25.025  12.043  13.208
50426W        W18820   2.436  43.507  14.955
50427W        W18821  32.998  37.478   3.797
50428W        W18822  12.656  13.067   0.231
50429W        W18823  24.180  26.540   2.815
50430W        W18824  16.666  24.442  14.423
50431W        W18825  20.774   3.204  10.649
50432W        W18826  39.737  24.660   4.296
50433W        W18827  37.393  36.324   1.475
50434W        W18828   3.140  15.132   2.717
50435W        W18829  38.617  38.376  11.943
50436W        W18830  10.561   6.311   2.358
50437W        W18831  40.871   6.549  13.482
50438W        W18832   2.536  32.503  12.632
50439W        W18833  17.841   7.190   0.880
50440W        W18834  32.130   8.745   2.114
50441W        W18835  42.222  23.623  13.960
50442W        W18836  41.425  12.623   1.401
50443W        W18837   2.995  29.538  10.718
50444W        W18838  30.443  11.720  12.830
50445W        W18839  25.422  21.013   0.702
50446W        W18840  14.655   0.633   9.737
50447W        W18841  28.232  13.023   3.596
50448W        W18842  23.488   8.483   0.306
50449W        W18843  12.220   3.476   4.194
50450W        W18844   4.801  16.319  11.234
50451W        W18845  32.259   0.330  13.782
50452W        W18846  17.196  32.883   3.358
50453W        W18847   3.361  12.951   2.502
50454W        W18848  25.740  10.659  14.068
50455W        W18849  35.534  42.248   0.518
50456W        W18850  44.391   2.859  11.928
50457W        W18851  18.473  23.589   3.326
50458W        W18852  30.998  20.293  12.899
50459W        W18853  35.562  21.624  11.207
50460W        W18854  15.209   4.662  10.719
50461W        W18855  43.819  42.304   4.618
50462W        W18856   6.092  44.422   3.053
50463W        W18857   5.413  31.956  11.037
50464W        W18858  33.383   4.345  12.477
50465W        W18859   3.918  26.250   2.213
50466W        W18860  41.112  43.351   4.694
50467W        W18861  21.031  38.339   0.868
50468W        W18862   5.425  26.669  11.466
50469W        W18863  12.778  26.687   1.920
50470W        W18864  22.542   9.672  12.974
50471W        W18865  12.371  30.209  13.535
50472W        W18866  22.305  14.989  13.423
50473W        W18867   7.711  37.980  11.889
50474W        W18868  30.085  12.156  12.893
50475W        W18869  31.545  44.740  13.585
50476W        W18870   0.290  34.403  12.846
50477W        W18871  20.989  25.111  13.301
50478W        W18872  43.231   8.275   1.918
50479W        W18873   4.096  41.571   2.179
50480W        W18874  13.171  14.808  12.371
50481W        W18875   5.907  27.540   3.816
50482W        W18876  41.950  31.775  14.434
50483W        W18877  27.299  24.742  12.617
50484W        W18878   1.118  34.357  11.937
50485W        W18879  14.071  35.068  14.107
50486W        W18880  31.029   0.040   4.840
50487W        W18881  20.823  25.026   0.108
50488W        W18882  15.246  23.177   2.749
50489W        W18883  29.100  40.001   4.763
50490W        W18884  38.302  35.273  13.331
50491W        W18885  40.058  16.028   4.037
50492W        W18886   9.143   1.036  11.427
50493W        W18887  36.009  10.937  12.209
50494W        W18888  20.056  30.409  13.855
50495W        W18889  22.238  40.009   1.754
50496W        W18890  11.896  28.511   4.648
50497W        W18891  17.156   8.206   4.749
50498W        W18892  12.399  25.781  11.531
50499W        W18893  11.219  29.621   2.843
50500W        W18894  42.375   4.741   4.670
50501W        W18895  16.854  11.808  14.394
50502W        W18896  13.130   7.817   3.221
50503W        W18897  17.203  44.040  14.835
50504W        W18898  29.979  43.306   4.778
50505W        W18899  37.664  16.179  12.257
50506W        W18900   9.871  32.581  12.941
50507W        W18901  10.470  42.582   2.732
50508W        W18902   5.840   3.737  11.991
50509W        W18903   4.177  43.276   1.592
50510W        W18904  24.163  22.287  11.112
50511W        W18905  29.225  25.541  11.503
50512W        W18906  31.204   1.979  14.400
50513W        W18907  37.493  21.438  13.800
50514W        W18908   2.091  31.373   1.449
50515W        W18909  37.601  36.054  13.377
50516W        W18910  44.777  34.471  13.852
50517W        W18911  42.403  16.369  11.579
50518W        W18912   2.348  37.465   0.973
50519W        W18913  44.344  36.160   4.628
50520W        W18914  40.110   3.711  14.831
50521W        W18915  11.387  32.490   2.621
50522W        W18916  27.064  41.792   1.487
50523W        W18917  29.354  20.644   1.759
50524W        W18918   1.268  30.723  10.407
50525W        W18919  40.778   0.789  12.454
50526W        W18920  42.691  38.038  11.177
50527W        W18921   5.200  12.722  14.423
50528W        W18922  30.996  16.750  14.691
50529W        W18923  44.240  14.283  12.907
50530W        W18924  14.548  42.075  11.485
50531W        W18925  35.036  24.948  12.108
50532W        W18926  33.917  32.000   0.317
50533W        W18927  24.975  28.905  13.328
50534W        W18928  24.621  37.321  12.577
50535W        W18929  42.514  14.766  11.672
50536W        W18930  24.666  37.315   1.740
50537W        W18931  11.763  44.033   0.416
50538W        W18932  39.922  39.799   3.749
50539W        W18933  38.512   9.842   1.833
50540W        W18934   9.092   7.791  13.002
50541W        W18935  18.721  24.411   0.879
50542W        W18936   0.763   6.249  12.623
50543W        W18937  23.797  30.161   3.925
50544W        W18938  32.138  12.527  11.253
50545W        W18939  33.387  21.144  13.559
50546W        W18940  43.456   9.515   1.721
50547W        W18941  42.001  25.778   0.493
50548W        W18942   7.439  34.011   3.901
50549W        W18943  12.333  24.087  14.016
50550W        W18944  22.221  11.452  14.387
50551W        W18945  36.384  19.103  14.757
50552W        W18946  18.707  23.798   2.246
50553W        W18947  32.661  31.884  11.922
50554W        W18948  21.946   2.798  12.545
50555W        W18949   1.831  29.720  13.447
50556W        W18950  18.850  19.550   3.783
50557W        W18951  13.350  30.066  11.085
50558W        W18952  15.280  10.825   4.546
50559W        W18953  41.470  16.777   0.705
50560W        W18954  18.137  37.188  11.602
50561W        W18955  23.716  39.016   2.163
50562W        W18956   4.449   8.709  14.214
50563W        W18957   5.117  38.985   2.136
50564W        W18958  25.227  10.635  12.897
50565W        W18959  13.691  42.524   0.016
50566W        W18960   5.389  30.198  13.824
50567W        W18961  28.918  26.035   0.252
50568W        W18962  28.938  23.579  13.857
50569W        W18963  40.396  36.664  14.774
50570W        W18964  22.673   5.355  14.011
50571W        W18965   6.364   2.906   4.951
50572W        W18966   5.478   4.191  12.124
50573W        W18967  36.152  28.708   3.173
50574W        W18968  11.123  29.545   0.291
50575W        W18969  41.168   9.456  11.228
50576W        W18970  27.281  13.268   1.803
50577W        W18971  17.282  29.530  14.796
50578W        W18972  22.730  31.932   3.925
50579W        W18973  30.628   6.383  12.990
50580W        W18974  42.526   4.679  12.539
50581W        W18975  34.305   6.405  14.232
50582W        W18976  21.873  10.910  11.313
50583W        W18977  24.901  27.101  10.839
50584W        W18978  38.491  25.937  13.973
50585W        W18979  16.889  16.675   0.440
50586W        W18980  41.254  35.794  13.605
50587W        W18981  14.519  11.358   0.715
50588W        W18982  20.748  19.935   3.350
50589W        W18983  26.619   5.725  11.589
50590W        W18984  41.092  13.678   0.250
50591W        W18985  18.777  41.569  13.537
50592W        W18986  29.911  16.119   3.573
50593W        W18987  19.943   4.920  13.478
50594W        W18988  28.490  10.423  11.969
50595W        W18989   3.735  14.106   0.836
50596W        W18990   8.230  38.342   2.186
50597W        W18991  12.301   2.918  10.832
50598W        W18992   5.911   3.929   0.834
50599W        W18993  39.951  44.908  10.767
50600W        W18994  18.191   7.098  12.022
50601W        W18995  32.025  21.119  11.407
50602W        W18996  27.220   1.852  14.129
50603W        W18997  20.424  12.865   3.674
50604W        W18998  19.525  35.091  11.165
50605W        W18999  27.469  22.474   3.159
50606W        W19000  19.548  18.320  12.589
50607W        W19001  41.805   8.882  13.613
50608W        W19002  39.601  11.739   2.279
50609W        W19003  20.431  22.685  11.466
50610W        W19004  22.133  29.242  13.531
50611W        W19005  22.153  11.280  11.059
50612W        W19006  43.501  24.508   0.313
50613W        W19007  22.723  13.223   1.291
50614W        W19008  20.985  40.432   0.393
50615W        W19009  40.041  44.260  11.943
50616W        W19010  31.856   5.991  13.388
50617W        W19011  13.153  40.827  13.829
50618W        W19012  16.525  33.943  13.800
50619W        W19013  41.002   5.474  14.799
50620W        W19014  36.136  38.324  12.288
50621W        W19015  33.749  37.475   1.318
50622W        W19016  19.872  15.687  13.359
50623W        W19017  18.629  27.372  13.343
50624W        W19018  33.696  42.934  11.724
50625W        W19019  25.022  44.339   3.034
50626W        W19020  22.682  20.068  14.551
50627W        W19021  42.335   0.031   4.757
50628W        W19022  17.154  17.130   1.668
50629W        W19023  26.021  34.245  14.358
50630W        W19024  40.052  28.675  11.911
50631W        W19025   3.032  33.866  13.824
50632W        W19026   9.994   7.558  14.459
50633W        W19027  13.463   2.945  13.959
50634W        W19028  32.045  13.732   1.699
50635W        W19029   3.767  27.595  13.950
50636W        W19030  29.452   4.673  12.469
50637W        W19031  30.720  17.499   2.645
50638W        W19032  41.100  10.317  14.248
50639W        W19033   9.666  38.941  10.528
50640W        W19034  22.215   5.087   0.174
50641W        W19035   4.281  37.648   2.143
50642W        W19036  22.627   1.764  12.589
50643W        W19037  35.386   9.142   0.794
50644W        W19038  37.528   2.381   3.112
50645W        W19039  14.814  19.174  14.375
50646W        W19040  25.221   6.715   0.733
50647W        W19041   1.101   2.657   1.200
50648W        W19042  26.048  22.683   1.060
50649W        W19043  30.979  15.279   4.089
50650W        W19044  27.134   6.902  14.912
50651W        W19045  31.533  27.939   4.696
50652W        W19046  43.327  21.004  11.195
50653W        W19047  36.288   8.208   0.768
50654W        W19048  41.806  24.055  10.809
50655W        W19049  20.829  29.647  11.621
50656W        W19050  36.079  14.068   3.712
50657W        W19051  34.638  12.825   0.034
50658W        W19052   7.359   1.512   0.217
50659W        W19053  35.284  41.022   0.400
50660W        W19054  37.498  44.992  11.406
50661W        W19055  31.085   1.007   3.627
50662W        W19056   0.867  17.804  14.922
50663W        W19057  19.031  44.917   1.968
50664W        W19058  34.758  32.944  14.969
50665W        W19059  37.467  42.717   2.649
50666W        W19060  28.707  41.528  11.863
50667W        W19061  16.768   5.291  13.108
50668W        W19062   9.960  21.033  11.427
50669W        W19063   7.782  40.506   2.082
50670W        W19064  43.111  25.394   4.149
50671W        W19065   2.301  24.551  13.038
50672W        W19066  30.556  36.864  13.880
50673W        W19067   3.199   6.137   1.442
50674W        W19068  14.342  23.726   1.550
50675W        W19069  30.673  12.105  12.577
50676W        W19070   7.310  10.400   2.649
50677W        W19071  35.453  10.087  12.014
50678W        W19072  29.448  25.442   3.208
50679W        W19073  44.843  18.722   1.648
50680W        W19074  17.529  34.900  14.486
50681W        W19075  14.638   7.219   1.140
50682W        W19076   2.618  31.549   0.580
50683W        W19077  24.622  30.401   4.606
50684W        W19078  13.193  34.698   0.380
50685W        W19079  26.860   9.355   3.165
50686W        W19080  32.647  31.096   1.205
50687W        W19081  23.776   2.262   1.269
50688W        W19082  44.851   7.360  13.989
50689W        W19083  40.023   7.344   0.415
50690W        W19084  39.341  19.133   4.626
50691W        W19085  30.150   6.968   3.225
50692W        W19086  31.502   3.655  14.494
50693W        W19087  21.482   8.682  14.716
50694W        W19088  32.184  11.903   0.509
50695W        W19089   5.414   5.769   0.355
50696W        W19090  30.657  10.273  12.102
50697W        W19091   5.813  35.347  13.406
50698W        W19092  28.038  25.141   0.246
50699W        W19093   1.905  14.517   0.931
50700W        W19094  16.415  40.659  13.076
50701W        W19095  19.401  37.932   5.007
50702W        W19096  11.957   7.929  13.098
50703W        W19097  28.150  12.000  14.008
50704W        W19098  33.656  11.761  13.988
50705W        W19099  11.616  44.694   0.922
50706W        W19100  14.250  36.325  12.675
50707W        W19101  29.917  14.757  13.807
50708W        W19102  35.595  16.748   2.445
50709W        W19103  13.812  20.119  11.169
50710W        W19104  32.939  44.288   4.394
50711W        W19105   9.221  15.372  11.354
50712W        W19106   7.282   4.656  10.969
50713W        W19107  31.413  38.533  12.680
50714W        W19108   8.557  26.244  14.819
50715W        W19109  35.879  24.855   1.823
50716W        W19110  24.323  16.235   0.979
50717W        W19111  29.804  16.775  12.419
50718W        W19112  21.099   8.929  14.487
50719W        W19113  27.568   9.667   0.310
50720W        W19114  13.129  36.517  10.651
50721W        W19115  15.824  41.496   3.762
50722W        W19116   1.879  24.075  13.907
50723W        W19117   3.023  35.062   0.621
50724W        W19118  20.556  39.351   3.088
50725W        W19119   5.226  43.272  11.669
50726W        W19120   5.008  34.496   1.452
50727W        W19121  15.842  21.645   4.669
50728W        W19122  14.178  14.843  13.432
50729W        W19123  11.781   6.408  12.493
50730W        W19124  22.147  15.265   1.441
50731W        W19125  16.231  19.718  14.347
50732W        W19126   3.753   0.556   2.307
50733W        W19127  17.065   7.855   2.131
50734W        W19128  40.947  43.875   1.306
50735W        W19129  44.317  31.396  14.371
50736W        W19130   2.973  28.219   2.574
50737W        W19131  30.033  37.916   2.995
50738W        W19132  37.560  20.813  12.198
50739W        W19133  39.595   9.313  13.388
50740W        W19134  22.225  21.967   3.675
50741W        W19135   1.864   3.961  13.635
50742W        W19136  31.938  41.567  12.055
50743W        W19137  11.593  43.366   2.604
50744W        W19138  16.272   0.586  12.038
50745W        W19139  34.518   9.416   2.746
50746W        W19140  25.966  22.532  13.433
50747W        W19141   7.618   5.306   0.515
50748W        W19142  16.794  33.439  14.409
50749W        W19143  33.483  28.202   2.801
50750W        W19144  38.090   7.190  13.409
50751W        W19145  29.487  36.368  13.339
50752W        W19146   0.710  13.686  12.993
50753W        W19147  10.773  11.885  11.861
50754W        W19148   0.963  37.880  12.118
50755W        W19149  27.503  38.933  12.573
50756W        W19150  16.132  16.604  12.949
50757W        W19151  20.681   9.743   4.413
50758W        W19152  20.465  44.316  14.810
50759W        W19153   4.709   9.792  10.051
50760W        W19154  29.838   1.319  14.501
50761W        W19155  12.380  26.515  12.935
50762W        W19156   4.417  19.115   0.823
50763W        W19157  15.054  44.303   0.364
50764W        W19158  23.115  36.791   0.269
50765W        W19159  22.958  39.987  14.323
50766W        W19160  22.612  27.684  14.462
50767W        W19161  31.043  13.327  11.702
50768W        W19162  44.468  33.990   4.588
50769W        W19163  39.076  44.091  11.013
50770W        W19164   8.769   3.844   4.658
50771W        W19165  24.512  42.946  11.601
50772W        W19166  43.946  17.305   1.280
50773W        W19167  26.520  30.020   4.564
50774W        W19168   1.681   7.989  14.925
50775W        W19169  34.037  20.842   3.096
50776W        W19170  23.097  41.883  12.073
50777W        W19171  13.690   8.927  10.795
50778W        W19172  20.455   6.468  10.363
50779W        W19173  28.673  24.989   5.034
50780W        W19174  28.397  31.265  14.280
50781W        W19175   8.350  44.404   4.574
50782W        W19176  15.808  29.005  14.797
50783W        W19177  14.583   7.156  14.388
50784W        W19178  10.134   2.608  12.943
50785W        W19179  12.625  24.083   0.293
50786W        W19180   9.918  23.651  13.877
50787W        W19181  36.511  22.561   1.240
50788W        W19182  37.986  33.059   2.044
50789W        W19183   1.374  37.634   0.002
50790W        W19184  29.795  20.255   2.316
50791W        W19185  38.082  14.610  14.938
50792W        W19186   6.260  44.973   1.306
50793W        W19187  14.129  25.191  13.461
50794W        W19188  28.623   9.408  12.020
50795W        W19189   9.953  29.531  12.502
50796W        W19190  42.724  41.026   3.124
50797W        W19191  40.796   3.316   3.388
50798W        W19192  26.668  36.675   4.527
50799W        W19193  42.506  11.071   3.237
50800W        W19194  25.402  29.526  10.771
50801W        W19195  37.182   4.585   1.372
50802W        W19196   4.840   6.751   2.887
50803W        W19197  42.240  25.144  13.448
50804W        W19198  32.950  22.060  11.218
50805W        W19199  20.515   0.701  12.418
50806W        W19200  13.771  30.211   2.208
50807W        W19201  19.360  16.316   2.334
50808W        W19202  25.073  28.081  12.886
50809W        W19203  17.088  32.677   2.185
50810W        W19204  34.841  27.880   3.537
50811W        W19205  22.159  43.261  10.683
50812W        W19206  25.514   5.702   2.256
50813W        W19207  23.738   9.204   1.817
50814W        W19208   7.489  31.433   0.868
50815W        W19209  14.173  35.562  13.998
50816W        W19210  44.597   8.924   3.131
50817W        W19211  14.178   0.655   0.892
50818W        W19212  24.689   0.344  14.678
50819W        W19213  32.961  28.437   4.747
50820W        W19214  38.855  16.520   3.815
50821W        W19215   9.608  22.502   2.712
50822W        W19216  30.599  21.880   0.462
50823W        W19217  27.123  33.094   0.739
50824W        W19218   9.108  42.358   3.960
50825W        W19219  27.924   7.828   1.223
50826W        W19220   9.186  32.111   5.042
50827W        W19221  32.713   7.349   3.437
50828W        W19222  17.078  23.409   2.959
50829W        W19223  28.664  30.072   0.354
50830W        W19224  39.137  38.769   2.028
50831W        W19225  42.811  10.173  13.131
50832W        W19226  36.957  14.166   1.469
50833W        W19227   6.720  43.365  12.507
50834W        W19228   4.683  11.796  12.473
50835W        W19229  27.468  16.774   2.324
50836W        W19230  38.800  41.916  14.769
50837W        W19231  26.244  30.013   2.755
50838W        W19232  39.730  25.751  12.098
50839W        W19233  19.433  23.156   1.392
50840W        W19234  29.052   9.430   1.290
50841W        W19235   0.055  18.439  14.239
50842W        W19236  15.682  33.623  14.699
50843W        W19237  30.403   8.217   4.690
50844W        W19238  10.651  28.092  14.058
50845W        W19239  33.404   6.414   1.303
50846W        W19240  16.739  41.320   4.605
50847W        W19241   1.035  44.598   1.337
50848W        W19242  26.128  15.090  10.702
50849W        W19243  21.012  20.078   1.365
50850W        W19244  24.627  19.071   4.559
50851W        W19245   8.002   9.098  11.130
50852W        W19246  28.004  23.862  11.515
50853W        W19247  26.360   5.402  14.389
50854W        W19248  27.721   0.285  14.345
50855W        W19249   5.443  27.741   3.681
50856W        W19250  37.430  18.475  13.314
50857W        W19251  39.514  10.332  13.467
50858W        W19252  21.817  18.319   1.293
50859W        W19253  17.435  41.842   4.297
50860W        W19254   6.159  28.155   3.189
50861W        W19255  29.753  37.439   4.970
50862W        W19256  43.506  42.995   2.376
50863W        W19257  24.512   9.599   9.837
50864W        W19258  27.048  17.731  14.784
50865W        W19259  11.367  17.138  11.606
50866W        W19260   3.267  36.014   4.416
50867W        W19261  26.987  23.223  13.087
50868W        W19262  10.462   1.750   4.550
50869W        W19263   6.302   2.017  11.634
50870W        W19264  27.527  10.706  12.169
50871W        W19265  36.084  13.888  14.835
50872W        W19266  27.156  25.982   4.277
50873W        W19267  30.032   9.669  12.503
50874W        W19268  26.126  37.815   2.436
50875W        W19269  16.862  43.522   4.118
50876W        W19270  29.369  40.289   3.867
50877W        W19271  28.692  14.897   1.620
50878W        W19272  28.379  11.258   4.167
50879W        W19273  10.552  26.596   4.278
50880W        W19274  24.760  17.677  11.062
50881W        W19275  29.989  32.806   4.619
50882W        W19276  44.999  34.790   3.718
50883W        W19277  20.108  25.569  11.155
50884W        W19278  18.777   3.967  13.545
50885W        W19279  25.346  25.942   1.669
50886W        W19280   3.257  34.262  10.672
50887W        W19281  44.741   4.739  13.793
50888W        W19282   3.738  34.665   4.124
50889W        W19283   1.327   1.314   2.250
50890W        W19284  42.037   2.979   1.812
50891W        W19285   1.226  39.539   0.776
50892W        W19286  43.514  13.888   0.315
50893W        W19287  25.662  29.127  12.595
50894W        W19288  42.370  43.407  12.990
50895W        W19289  15.678   5.766   2.698
50896W        W19290   7.821  30.010   1.676
50897W        W19291  28.264  44.524  13.833
50898W        W19292  40.852  11.040  13.877
50899W        W19293  21.123  39.802   1.348
50900W        W19294  33.909   4.742   3.582
50901W        W19295  43.850   6.348   0.829
50902W        W19296  34.860  22.925   1.307
50903W        W19297  27.209  34.464   3.055
50904W        W19298  28.999  38.568   1.244
50905W        W19299  20.447  27.961   2.148
50906W        W19300  14.889  20.385   0.231
50907W        W19301  30.407   8.386   2.086
50908W        W19302  34.524  40.109   1.484
50909W        W19303  23.694  15.042   0.752
50910W        W19304  40.805  10.071   2.147
50911W        W19305   3.697   9.419  14.824
50912W        W19306  11.187   8.684  13.361
50913W        W19307  11.288   2.293   2.882
50914W        W19308  39.246  36.751  11.544
50915W        W19309  20.159  19.482   2.614
50916W        W19310  33.639   3.717  13.888
50917W        W19311  40.755   6.068  13.489
50918W        W19312  27.022  34.636   4.146
50919W        W19313  37.955  33.443  12.104
50920W        W19314  12.932   0.896   2.836
50921W        W19315  12.649  16.756   0.244
50922W        W19316   7.935  44.400   1.707
50923W        W19317   0.653  27.209   4.295
50924W        W19318  41.369  43.309  14.493
50925W        W19319  41.293  19.446   1.224
50926W        W19320   2.306   0.209  14.060
50927W        W19321  12.784  25.131   4.152
50928W        W19322  41.437  18.031   0.171
50929W        W19323  32.396  10.191   2.223
50930W        W19324  15.012   9.367   3.582
50931W        W19325   0.462  21.738   2.267
50932W        W19326  23.048   4.657  13.421
50933W        W19327  40.871  26.924   4.500
50934W        W19328   3.060   1.960  12.454
50935W        W19329  29.500  11.261   1.495
50936W        W19330  27.002   4.390  13.580
50937W        W19331  23.170  15.902   0.445
50938W        W19332  29.484  34.933  13.540
50939W        W19333  43.878  34.917   1.960
50940W        W19334  26.408  42.572   4.107
50941W        W19335   4.459  12.875  13.856
50942W        W19336  34.953  19.275  12.073
50943W        W19337  21.427  17.426   2.364
50944W        W19338  14.781  25.243   3.489
50945W        W19339  32.515   7.915   0.838
50946W        W19340  10.759  43.415  10.556
50947W        W19341  36.603  19.609  13.415
50948W        W19342  10.205  17.070  13.463
50949W        W19343   2.536   4.967   3.708
50950W        W19344  38.600   5.265   1.620
50951W        W19345  10.332  25.973  12.136
50952W        W19346  42.897  22.465   2.375
50953W        W19347   7.351  40.201   3.752
50954W        W19348   7.625  13.620   0.860
50955W        W19349  35.635  21.016  12.967
50956W        W19350  21.102   0.492   4.556
50957W        W19351  26.387  24.763   1.626
50958W        W19352  36.961  11.127   1.436
50959W        W19353  28.592   1.894  10.461
50960W        W19354   9.363  10.900  11.535
50961W        W19355  43.909  37.364  12.005
50962W        W19356  22.526  37.973  12.421
50963W        W19357  36.175  21.237  14.041
50964W        W19358  21.778  21.016  10.826
50965W        W19359  42.296  38.295   1.928
50966W        W19360  14.804  36.773  14.966
50967W        W19361   0.624  12.150  13.288
50968W        W19362  34.395  10.211  10.984
50969W        W19363   7.904  28.541  11.169
50970W        W19364  28.346   4.272   4.263
50971W        W19365  44.791  23.942   0.493
50972W        W19366  39.132  19.581  10.212
50973W        W19367  31.494   4.743   3.350
50974W        W19368  21.698   3.831   1.397
50975W        W19369   1.681  37.539  12.510
50976W        W19370  32.607  21.647  14.330
50977W        W19371   3.093  43.869   4.667
50978W        W19372  44.654   1.333   2.851
50979W        W19373  32.804   4.663   1.279
50980W        W19374  35.148  16.401  11.518
50981W        W19375   5.083  35.389   1.904
50982W        W19376   6.159   5.796   2.801
50983W        W19377   3.836  31.078  12.553
50984W        W19378  18.133  18.695   0.878
50985W        W19379   0.297  31.736  12.614
50986W        W19380   8.801  15.102  12.089
50987W        W19381  41.503  21.709   4.151
50988W        W19382  27.972  26.144   3.868
50989W        W19383  38.336  24.714   2.452
50990W        W19384  18.768   1.372  14.816
50991W        W19385  33.041  18.515  13.832
50992W        W19386   2.703  42.782   2.198
50993W        W19387  10.684   9.262  10.979
50994W        W19388   2.766   5.647   0.744
50995W        W19389  34.800   0.884   3.680
50996W        W19390  33.018  37.505  12.013
50997W        W19391  34.664  28.284  10.901
50998W        W19392  17.214  18.448  11.521
50999W        W19393   5.744  32.390   0.304
51000W        W19394   8.589  33.581  10.796
51001W        W19395  29.436   6.463   1.198
51002W        W19396  11.677   0.942  12.875
51003W        W19397  30.308  20.147   0.948
51004W        W19398  27.690  11.340  12.104
51005W        W19399  18.188  37.506   1.798
51006W        W19400  30.908  13.083   2.047
51007W        W19401  40.216  39.386   0.841
51008W        W19402  17.398  17.981   3.651
51009W        W19403  32.163  11.656  11.177
51010W        W19404  13.607  38.586   4.200
51011W        W19405  37.375  34.903   3.309
51012W        W19406  21.058  36.675  14.338
51013W        W19407   0.328   9.807   1.513
51014W        W19408  15.603  27.273   4.990
51015W        W19409  42.413  33.993   4.323
51016W        W19410  26.121  44.565  11.343
51017W        W19411  32.832  34.713  11.421
51018W        W19412  28.567   8.082  11.517
51019W        W19413   6.854   2.896   1.463
51020W        W19414  22.113  36.162   1.861
51021W        W19415   0.670  35.658  12.453
51022W        W19416  38.372  30.626   0.941
51023W        W19417  15.642  21.587   0.838
51024W        W19418  42.946   3.110  13.522
51025W        W19419  37.973  24.083  10.551
51026W        W19420  37.004  29.247   3.362
51027W        W19421  28.149   5.190   2.554
51028W        W19422  35.464   4.905  10.891
51029W        W19423  17.173  13.756   4.534
51030W        W19424  16.700  44.368  12.386
51031W        W19425  33.010   9.618  13.930
51032W        W19426  41.785   9.777  10.953
51033W        W19427   5.673  41.794   0.923
51034W        W19428   1.362   0.522   2.925
51035W        W19429   6.946  22.769  11.525
51036W        W19430  33.847  12.370  14.772
51037W        W19431   7.945  15.610   2.301
51038W        W19432   8.944  36.453   2.874
51039W        W19433   5.490  44.810   2.394
51040W        W19434  23.424  17.824   3.373
51041W        W19435  10.221  17.244   5.043
51042W        W19436  13.634  40.905  14.079
51043W        W19437  20.614  37.520   3.115
51044W        W19438  29.087  32.505  14.557
51045W        W19439  27.588  14.107   2.219
51046W        W19440  32.160  10.116  12.599
51047W        W19441  25.233   4.387  14.582
51048W        W19442  42.746  44.929  12.994
51049W        W19443  32.823  29.861   2.383
51050W        W19444   4.933  43.655   3.139
51051W        W19445  43.987  27.141   2.407
51052W        W19446   8.561  33.114   1.401
51053W        W19447  16.430  34.487   3.955
51054W        W19448  13.191  42.937   3.157
51055W        W19449  30.080  32.345   1.075
51056W        W19450  24.886  43.843   2.334
51057W        W19451  28.062   0.691  14.353
51058W        W19452  34.452  15.222  13.338
51059W        W19453  35.052  23.969   0.489
51060W        W19454  43.747  26.694  13.448
51061W        W19455  19.295  29.068  13.882
51062W        W19456  27.000  29.208  14.282
51063W        W19457  15.233  20.075  11.612
51064W        W19458  38.341  42.569  14.020
51065W        W19459  14.562  32.495   1.923
51066W        W19460  32.738  37.546   1.135
51067W        W19461  35.663   8.145   3.958
51068W        W19462   7.424   8.847  10.673
51069W        W19463  34.871  22.166   2.740
51070W        W19464  23.093  33.953   1.445
51071W        W19465   7.630  37.592  10.262
51072W        W19466  20.181  24.729  13.284
51073W        W19467   3.617   6.876  14.352
51074W        W19468   1.204   5.729  11.173
51075W        W19469   0.726  43.796   2.735
51076W        W19470  38.264  30.862  14.429
51077W        W19471  14.939  15.712   0.470
51078W        W19472   3.384  27.930  13.909
51079W        W19473  34.403  18.017  14.496
51080W        W19474   4.782   1.740  12.920
51081W        W19475   4.747  41.979   0.304
51082W        W19476  43.476   9.445   2.996
51083W        W19477  13.215  26.168  11.653
51084W        W19478   4.846  12.826   0.023
51085W        W19479   3.242  25.572  14.238
51086W        W19480  27.398  21.200  12.384
51087W        W19481  23.984  17.153  12.490
51088W        W19482  37.181  35.393   2.418
51089W        W19483  36.105  12.698  12.197
51090W        W19484  25.202  35.027   3.192
51091W        W19485  37.876   5.710   4.528
51092W        W19486  22.498  13.381  11.036
51093W        W19487  22.623  40.315  10.820
51094W        W19488  34.044  29.539   3.086
51095W        W19489  20.922  42.421  12.369
51096W        W19490  43.589  40.965   4.026
51097W        W19491  29.228  36.571  12.898
51098W        W19492  24.583   1.224  10.231
51099W        W19493   0.556   8.398  12.977
51100W        W19494  37.960  43.811  14.003
51101W        W19495  36.749  20.210  11.654
51102W        W19496   9.922  28.130  12.615
51103W        W19497  11.163   2.989  14.783
51104W        W19498   3.917  28.553  10.548
51105W        W19499  30.891  26.103  14.923
51106W        W19500   4.400  30.712   0.777
51107W        W19501  18.617   0.950   4.224
51108W        W19502  10.863  24.085   2.857
51109W        W19503  43.018  10.253  10.713
51110W        W19504  36.948   6.318   4.588
51111W        W19505   1.372   8.817   1.611
51112W        W19506  35.617  42.439   3.287
51113W        W19507  29.429   7.070   4.978
51114W        W19508  41.057  10.343  11.552
51115W        W19509  27.426  31.063   0.522
51116W        W19510  25.381  19.611   2.404
51117W        W19511   6.437  22.326   2.966
51118W        W19512  29.991  13.896   1.438
51119W        W19513   6.789  44.839  12.878
51120W        W19514  31.166  14.572   4.429
51121W        W19515  20.678  20.481  13.836
51122W        W19516   8.009  28.420  13.522
51123W        W19517  32.479  19.174   3.193
51124W        W19518  11.474  21.146  13.371
51125W        W19519  34.870   8.974  12.541
51126W        W19520  37.372  18.125  10.695
51127W        W19521  22.171  13.345  14.793
51128W        W19522  39.417  41.037   0.477
51129W        W19523   2.710  20.859   3.914
51130W        W19524  39.501   1.806   3.256
51131W        W19525  17.210  21.787  10.525
51132W        W19526  17.227  44.900   2.354
51133W        W19527  31.636   3.269   0.653
51134W        W19528  35.904   8.602   3.914
51135W        W19529  21.400  22.428   4.586
51136W        W19530  29.700  17.812   3.257
51137W        W19531  33.319  11.875   3.096
51138W        W19532  44.229  21.399  11.070
51139W        W19533  27.130  15.540  11.113
51140W        W19534  36.476   5.450  13.450
51141W        W19535  44.286  14.660   2.451
51142W        W19536  27.444   4.930   3.194
51143W        W19537   6.323  31.927   2.800
51144W        W19538  32.875  16.475  14.678
51145W        W19539  14.649  41.361   0.843
51146W        W19540  30.638   6.684   1.658
51147W        W19541  22.184   4.339  13.040
51148W        W19542  34.017  17.180   2.893
51149W        W19543  23.404  15.414  12.627
51150W        W19544   2.690  42.453  14.458
51151W        W19545  31.130   2.427   1.870
51152W        W19546  19.264  19.783   1.290
51153W        W19547   9.406  30.033   4.029
51154W        W19548  32.373   0.089  12.526
51155W        W19549  15.625   0.930   1.857
51156W        W19550   1.255  27.577   2.674
51157W        W19551  16.531   1.821   0.737
51158W        W19552  33.884   5.888   0.249
51159W        W19553   3.675   9.077  12.981
51160W        W19554  37.788  22.802  13.079
51161W        W19555  43.075  18.166  12.056
51162W        W19556  33.684  35.491   0.416
51163W        W19557  21.135  40.610   4.704
51164W        W19558  21.783   4.296  11.408
51165W        W19559  34.859  11.381  12.347
51166W        W19560   5.059  15.280  13.464
51167W        W19561  20.160  24.055   3.390
51168W        W19562  41.329  38.196  12.634
51169W        W19563  37.031   2.403   2.912
51170W        W19564   5.315  34.070   4.613
51171W        W19565  10.782  35.421   4.539
51172W        W19566  40.881  18.085   3.348
51173W        W19567   3.119  42.597  11.312
51174W        W19568   6.592  13.043  14.025
51175W        W19569  33.543  31.970  11.963
51176W        W19570  13.389  22.132  11.663
51177W        W19571  38.431  33.315  12.488
51178W        W19572  38.938   9.432   4.490
51179W        W19573   9.710  12.048  13.318
51180W        W19574  30.118  14.307   4.684
51181W        W19575  38.744   2.896   1.930
51182W        W19576  14.246   5.440  12.900
51183W        W19577  32.922   9.796   2.890
51184W        W19578  21.550  42.709   2.213
51185W        W19579  25.140   3.925  12.665
51186W        W19580   5.864  27.436   1.696
51187W        W19581   4.900  26.301   4.896
51188W        W19582  35.264  37.007   2.338
51189W        W19583  31.648  12.349  12.441
51190W        W19584  37.289  21.741  14.354
51191W        W19585  25.265   2.913  14.726
51192W        W19586  31.406  13.213   0.824
51193W        W19587   2.224  34.004   1.889
51194W        W19588  19.162  16.669  13.853
51195W        W19589   2.216  32.122  14.855
51196W        W19590  44.491  40.924   4.554
51197W        W19591  16.356  21.421  11.931
51198W        W19592  30.769  20.539  12.478
51199W        W19593   9.644  29.158   1.050
51200W        W19594  15.139  23.714   4.347
51201W        W19595   5.409   2.943  12.925
51202W        W19596  18.261  28.005   1.212
51203W        W19597  40.525  18.809  10.723
51204W        W19598  24.595   1.475  14.332
51205W        W19599  32.412  29.600   1.977
51206W        W19600   3.179   7.826   2.080
51207W        W19601  29.006  22.183   4.271
51208W        W19602   8.326  12.121   2.862
51209W        W19603  24.685  30.512  10.863
51210W        W19604  23.190  43.414   3.739
51211W        W19605  13.881  25.667  11.552
51212W        W19606  13.916   0.948  14.256
51213W        W19607  21.121  23.605   0.433
51214W        W19608  21.218  32.114  14.901
51215W        W19609  27.115   4.445  11.662
51216W        W19610  32.309   7.871  11.150
51217W        W19611   4.336  20.463   4.638
51218W        W19612  18.715   6.923  13.430
51219W        W19613  24.546  41.934  11.711
51220W        W19614  25.014  42.338  12.023
51221W        W19615  27.490  36.792  14.654
51222W        W19616   6.203  38.957   0.817
51223W        W19617  15.616   0.414  12.714
51224W        W19618   4.954   2.999  10.652
51225W        W19619  39.916  42.804  13.410
51226W        W19620  18.064  34.039  11.991
51227W        W19621  11.365  24.755  14.852
51228W        W19622  30.905  30.368  13.533
51229W        W19623  21.008  13.289   0.475
51230W        W19624  18.069  21.441  12.407
51231W        W19625  17.042  25.055  14.377
51232W        W19626  12.593  32.418  11.663
51233W        W19627  34.794  12.344   0.804
51234W        W19628   1.943   5.191   0.019
51235W        W19629  16.318  24.779  11.112
51236W        W19630   2.968  30.912   1.046
51237W        W19631  44.764   4.798  12.741
51238W        W19632   4.226  16.154  13.860
51239W        W19633  34.407  40.040  12.632
51240W        W19634  23.576  36.569   0.191
51241W        W19635  17.468   1.216  10.658
51242W        W19636  26.167  40.437   4.787
51243W        W19637  12.609   6.303   2.844
51244W        W19638  12.722  26.251   1.636
51245W        W19639  26.791  13.342  12.425
51246W        W19640  23.703  19.696  12.203
51247W        W19641  27.053  12.643  14.774
51248W        W19642  44.755  22.768   2.476
51249W        W19643  28.623  24.555   1.302
51250W        W19644  26.841   9.634  12.998
51251W        W19645   2.623  21.083   2.777
51252W        W19646  37.484   6.764   0.733
51253W        W19647  29.167   1.027  12.514
51254W        W19648   6.357   2.317  11.174
51255W        W19649  37.085  31.997  11.924
51256W        W19650  27.770  16.882   1.538
51257W        W19651  44.044  25.578  10.732
51258W        W19652  31.190  41.210   0.392
51259W        W19653  36.935  44.788  10.723
51260W        W19654   1.863  25.960  13.989
51261W        W19655  21.201   0.766  10.487
51262W        W19656  11.656  44.473   3.468
51263W        W19657  13.066  16.204  11.997
51264W        W19658  38.943  28.364  10.733
51265W        W19659  36.015   8.351  14.735
51266W        W19660  26.474   1.406  10.104
51267W        W19661  16.922  39.333  14.606
51268W        W19662  40.311  36.118   3.615
51269W        W19663   9.724  21.076  12.701
51270W        W19664  21.950   8.868  14.624
51271W        W19665  42.736  36.117  13.478
51272W        W19666  28.967  30.087  13.406
51273W        W19667  14.060  39.017   1.742
51274W        W19668  37.812  41.386  13.448
51275W        W19669  38.526  30.190  10.597
51276W        W19670   2.839   8.698   3.649
51277W        W19671  11.107  21.962   0.479
51278W        W19672  31.960  11.821   2.301
51279W        W19673  14.906  34.296  14.002
51280W        W19674   8.397  25.740   0.884
51281W        W19675  23.653  22.302   3.725
51282W        W19676  19.847  44.191  14.204
51283W        W19677  11.946  20.930  11.668
51284W        W19678  13.251  40.577   0.837
51285W        W19679   5.830   7.494   3.906
51286W        W19680   0.763  21.958   3.932
51287W        W19681  15.143  37.764  10.451
51288W        W19682  34.417  30.512   3.109
51289W        W19683  15.634  29.956   4.055
51290W        W19684  15.596  41.082   0.400
51291W        W19685  36.327   5.167  12.050
51292W        W19686  26.223   7.319   2.166
51293W        W19687   3.440   6.967   4.073
51294W        W19688  33.498  42.972  14.413
51295W        W19689  31.498  30.456  11.071
51296W        W19690  20.179   7.704  10.751
51297W        W19691   0.466  12.821   1.146
51298W        W19692  17.083  32.117   3.722
51299W        W19693   9.877  17.052   3.627
51300W        W19694  27.897  26.009  14.693
51301W        W19695  29.690  13.145  14.268
51302W        W19696   2.373  23.247  14.887
51303W        W19697  34.412  23.613   2.933
51304W        W19698  18.639  10.789   1.229
51305W        W19699  41.752  21.166  12.506
51306W        W19700  35.351  27.785   3.268
51307W        W19701  34.620  16.341  14.899
51308W        W19702   0.003  30.578   5.090
51309W        W19703  29.616  41.880  12.015
51310W        W19704  20.516  20.085   2.914
51311W        W19705  28.721   5.338   1.737
51312W        W19706  32.761  30.384   9.956
51313W        W19707  21.966  19.529   0.440
51314W        W19708  35.042  23.990  10.561
51315W        W19709   1.738  44.593   0.263
51316W        W19710  27.946  26.908   1.725
51317W        W19711   8.295  24.977  12.625
51318W        W19712  11.707  24.056  14.995
51319W        W19713  35.059  38.827  12.591
51320W        W19714  28.459   3.282   3.571
51321W        W19715  37.812   4.693  12.976
51322W        W19716  35.838  29.636  14.516
51323W        W19717   3.457   3.865  14.277
51324W        W19718  22.980  10.322  12.425
51325W        W19719  13.772  28.992  11.490
51326W        W19720  44.550  37.285   3.717
51327W        W19721  21.083  23.325  14.056
51328W        W19722  33.559  34.475   0.345
51329W        W19723  19.705  36.625   0.005
51330W        W19724  22.870   1.435   0.402
51331W        W19725  25.535   4.241  14.977
51332W        W19726  44.461  17.994  12.851
51333W        W19727  16.332  19.151  14.239
51334W        W19728   9.764   8.489   1.173
51335W        W19729  18.631  23.039   1.180
51336W        W19730  25.575   8.848   2.776
51337W        W19731  10.316   9.273   0.264
51338W        W19732  22.247  22.687  14.257
51339W        W19733  32.466  13.125   3.460
51340W        W19734   2.088  29.139   0.245
51341W        W19735  31.102  41.435  10.783
51342W        W19736  12.613  38.073   4.605
51343W        W19737  11.188   4.100   0.283
51344W        W19738  11.808  29.619   0.038
51345W        W19739  36.748  11.603  11.993
51346W        W19740  10.113  22.116   2.304
51347W        W19741  40.742  20.988  11.100
51348W        W19742  31.470   7.704  12.951
51349W        W19743  17.576  32.118   1.728
51350W        W19744  28.929  32.614  13.491
51351W        W19745   5.795  29.638   0.152
51352W        W19746   5.878  38.964  13.966
51353W        W19747  14.212  20.579  13.656
51354W        W19748  22.451   5.796  13.816
51355W        W19749  41.742  21.600  14.020
51356W        W19750  20.310   9.344  11.949
51357W        W19751  22.678  34.247  10.848
51358W        W19752  41.128  20.730   4.970
51359W        W19753   0.028  38.064  14.488
51360W        W19754  26.729  44.007   1.595
51361W        W19755  29.549   7.900  13.713
51362W        W19756  30.712  19.676  10.991
51363W        W19757  37.365  33.441  10.956
51364W        W19758  27.264  18.311   3.309
51365W        W19759   0.319   9.181   3.578
51366W        W19760  12.786   9.235   1.923
51367W        W19761   8.339  24.083   2.731
51368W        W19762  33.894  18.046  11.457
51369W        W19763  39.509  18.765  13.113
51370W        W19764  16.542  31.999  14.763
51371W        W19765  36.010  20.981   0.876
51372W        W19766  20.795  34.850  12.374
51373W        W19767  28.089  17.953   0.517
51374W        W19768  33.667  33.969   1.349
51375W        W19769   6.713  24.250   2.544
51376W        W19770  18.800  11.076  11.448
51377W        W19771  38.374  41.586  14.740
51378W        W19772  15.430   5.942  14.891
51379W        W19773  33.680  15.288   2.851
51380W        W19774  44.527  27.094  11.482
51381W        W19775  32.598  26.030   4.186
51382W        W19776  28.833  16.301  13.989
51383W        W19777  32.148   2.249   1.233
51384W        W19778  36.592  30.111   2.790
51385W        W19779  25.753  10.142  14.272
51386W        W19780  36.889  32.624   0.763
51387W        W19781   6.381  24.408   3.702
51388W        W19782  27.743  39.808  10.617
51389W        W19783  17.171   8.421  13.348
51390W        W19784  26.387  11.163   2.707
51391W        W19785  37.111  10.165  12.081
51392W        W19786  42.356  18.737  11.424
51393W        W19787   9.142   5.261  10.020
51394W        W19788  20.711  30.031  11.961
51395W        W19789   6.724  10.290   1.949
51396W        W19790  31.718  43.424  13.667
51397W        W19791  33.376   0.914   2.773
51398W        W19792  25.419  15.549   4.710
51399W        W19793  21.458  12.249  13.470
51400W        W19794  23.174  25.032   3.649
51401W        W19795  24.577  13.599  12.975
51402W        W19796   0.450  11.159   0.393
51403W        W19797  44.066  14.275  12.008
51404W        W19798  33.185  35.343  12.568
51405W        W19799  30.505  25.177   3.647
51406W        W19800  44.901   7.661   4.957
51407W        W19801  10.396  37.492  14.754
51408W        W19802   2.732  37.582   0.278
51409W        W19803  39.131  29.127  11.562
51410W        W19804   9.994  14.865  13.057
51411W        W19805  26.043  44.089  11.532
51412W        W19806  15.998   1.788   4.514
51413W        W19807  41.982   5.247  12.552
51414W        W19808   2.409  33.627  10.637
51415W        W19809   6.264   8.716   1.273
51416W        W19810  24.715  41.071  11.498
51417W        W19811  30.365  29.578  14.914
51418W        W19812  36.847  42.570  13.424
51419W        W19813  22.728  15.770  14.009
51420W        W19814  32.388  28.179  11.840
51421W        W19815  36.372  36.895  13.505
51422W        W19816  28.195  26.685  12.391
51423W        W19817  15.248  34.387   0.646
51424W        W19818  13.609  38.961  10.635
51425W        W19819  37.381  14.293   1.209
51426W        W19820  16.694   9.640   2.412
51427W        W19821  30.186  17.637   1.330
51428W        W19822  44.003  36.671  12.458
51429W        W19823  41.884  42.854   0.394
51430W        W19824  31.585  38.049   2.694
51431W        W19825  38.579  32.236   2.929
51432W        W19826   5.654  15.005   0.819
51433W        W19827  24.842  26.060   2.394
51434W        W19828  14.266  30.169   4.241
51435W        W19829  42.562  11.632   2.318
51436W        W19830   9.220   8.750   3.223
51437W        W19831  28.918  32.908   2.328
51438W        W19832  40.237  15.727  10.619
51439W        W19833   9.452  35.194   2.834
51440W        W19834  18.837  13.556   4.606
51441W        W19835  19.739  13.442  14.879
51442W        W19836  20.071  25.553  10.268
51443W        W19837  10.143  21.650   2.470
51444W        W19838  31.692   9.693  10.504
51445W        W19839   5.212  43.457  14.520
51446W        W19840  16.128  16.034   2.470
51447W        W19841   7.814  44.251   3.683
51448W        W19842  44.089  14.610   4.719
51449W        W19843  24.087  32.594   3.072
51450W        W19844  29.139  35.755   0.241
51451W        W19845  30.897  27.024   0.019
51452W        W19846  22.669  43.356  10.581
51453W        W19847  41.184  25.160  14.201
51454W        W19848  42.206  24.663   4.180
51455W        W19849  39.555   7.871   4.645
51456W        W19850   9.766  16.650   3.914
51457W        W19851  23.101  41.072   3.099
51458W        W19852  41.387  37.462   2.578
51459W        W19853  11.340  24.053  13.767
51460W        W19854  26.691  36.963  11.599
51461W        W19855  36.532  29.231   2.101
51462W        W19856  31.626  17.503  14.142
51463W        W19857  13.684  33.084  13.808
51464W        W19858   6.752  26.340   4.526
51465W        W19859  40.989  35.040  10.551
51466W        W19860  29.624  18.209   3.617
51467W        W19861  31.915  41.393  10.254
51468W        W19862  22.995  16.658   2.382
51469W        W19863   4.894   6.229  13.841
51470W        W19864   4.649   3.390   4.956
51471W        W19865   3.982  36.885   2.892
51472W        W19866   2.938  23.708   2.977
51473W        W19867  43.384  32.921  13.049
51474W        W19868  41.916  29.384   2.370
51475W        W19869   9.823  17.756   0.994
51476W        W19870  33.402  43.815   2.398
51477W        W19871  13.213  30.061   4.341
51478W        W19872  33.256  27.221   4.162
51479W        W19873   3.435   8.163   0.755
51480W        W19874   8.282  28.384   2.551
51481W        W19875   1.915  25.732  14.450
51482W        W19876  25.521  19.807  11.711
51483W        W19877   3.184  32.499   2.627
51484W        W19878  10.309   0.818  13.427
51485W        W19879  32.074   0.266   3.028
51486W        W19880  38.240  26.892  10.007
51487W        W19881  25.280  15.731   2.223
51488W        W19882  29.992  24.518  10.482
51489W        W19883  17.763  42.537   4.773
51490W        W19884  12.718  33.614   2.651
51491W        W19885  10.108  18.213   0.955
51492W        W19886  23.341  10.509   3.093
51493W        W19887  41.970  21.605  13.537
51494W        W19888   5.712  38.243   1.374
51495W        W19889  35.594   7.216  11.741
51496W        W19890  17.356   0.515   0.869
51497W        W19891  38.731  28.990  14.825
51498W        W19892  25.641   4.968   3.871
51499W        W19893  28.170  32.013  14.852
51500W        W19894  33.848  30.187  12.430
51501W        W19895  20.816  21.093  12.870
51502W        W19896  26.258  28.690  13.017
51503W        W19897  12.230  33.137   0.307
51504W        W19898   4.314  31.171   4.492
51505W        W19899  37.597   6.851   3.152
51506W        W19900   8.393  20.604   1.273
51507W        W19901   5.376   7.622   0.877
51508W        W19902  35.981  15.654   4.537
51509W        W19903  37.368  10.233   4.562
51510W        W19904  40.003  17.420   2.190
51511W        W19905  36.296   6.854   2.302
51512W        W19906  29.386   4.125  11.164
51513W        W19907  29.428  14.320  12.449
51514W        W19908  34.353  19.700   2.392
51515W        W19909  35.379  16.108  11.143
51516W        W19910  19.939  23.100  13.578
51517W        W19911  26.976  18.802  14.045
51518W        W19912  37.782   4.620   3.411
51519W        W19913  26.228  36.187  11.982
51520W        W19914  31.061   0.723   3.190
51521W        W19915   2.072  15.121   1.286
51522W        W19916  21.220   3.701   4.162
51523W        W19917  22.594  43.081  13.767
51524W        W19918  21.328  12.791   3.879
51525W        W19919   8.916  16.788   4.650
51526W        W19920  17.079  30.647   1.901
51527W        W19921  36.310   4.377  14.603
51528W        W19922   9.688  21.706  11.049
51529W        W19923  10.098  40.420   2.824
51530W        W19924  43.118   8.389   4.113
51531W        W19925  27.931  16.339   2.319
51532W        W19926  43.944  43.927  10.374
51533W        W19927  35.456  20.989  11.080
51534W        W19928   4.177  30.204   1.675
51535W        W19929  40.925  26.056  11.684
51536W        W19930  37.414  18.143   2.749
51537W        W19931  32.142  17.590  14.124
51538W        W19932  19.025  35.154  11.019
51539W        W19933  23.151  19.483  13.172
51540W        W19934  24.755  35.454   3.198
51541W        W19935  42.559  43.864  10.860
51542W        W19936  27.152   6.341  11.157
51543W        W19937   2.047  40.524   2.792
51544W        W19938  20.371  42.634   0.328
51545W        W19939   5.355  18.187   2.668
51546W        W19940  20.519  11.982  14.492
51547W        W19941  38.971   2.039  12.926
51548W        W19942  41.740  13.735  12.873
51549W        W19943  39.827  27.598   4.528
51550W        W19944  18.428  14.092  10.686
51551W        W19945  39.068  44.083  12.908
51552W        W19946   5.349   9.849   2.788
51553W        W19947   1.272  39.601  13.829
51554W        W19948   6.842  34.974   4.862
51555W        W19949   0.554   4.890  12.719
51556W        W19950   2.700  31.834   9.749
51557W        W19951  40.894  43.777  12.884
51558W        W19952  41.091  33.634   0.200
51559W        W19953  33.490  13.171  12.171
51560W        W19954  28.153  14.210   4.108
51561W        W19955  44.408  40.108  11.027
51562W        W19956  12.428  24.573  11.684
51563W        W19957  36.069  38.760  12.584
51564W        W19958  30.910   6.429  12.020
51565W        W19959  40.531   9.290   0.259
51566W        W19960  19.302  30.721  13.302
51567W        W19961  27.985  30.572  13.154
51568W        W19962  29.965  19.584   3.553
51569W        W19963   6.576  10.317   5.028
51570W        W19964  22.082   3.351   2.762
51571W        W19965  20.452   3.822  11.606
51572W        W19966  20.728   1.548  14.521
51573W        W19967   0.714   5.623  11.258
51574W        W19968  39.598  22.581  12.822
51575W        W19969  17.082  21.979  11.106
51576W        W19970  38.351  15.188  11.453
51577W        W19971  31.104  29.445  13.299
51578W        W19972  22.703  12.277  13.058
51579W        W19973  15.299  32.617   0.343
51580W        W19974  42.680  15.640   4.964
51581W        W19975  17.547  31.392   4.685
51582W        W19976  14.154  30.877   2.851
51583W        W19977  33.559  27.817  14.882
51584W        W19978  24.740  16.577   4.552
51585W        W19979  30.228   3.736  11.589
51586W        W19980  15.552  26.720   2.773
51587W        W19981   0.803   5.844   4.361
51588W        W19982  11.560   2.456  12.469
51589W        W19983  16.668  10.634  10.513
51590W        W19984   1.553  12.172  10.337
51591W        W19985   5.402  29.492  13.954
51592W        W19986  25.585   1.750  14.808
51593W        W19987  10.239  12.793  14.905
51594W        W19988  44.290  32.924  12.876
51595W        W19989  32.010  30.808   2.305
51596W        W19990  29.854  19.743   2.592
51597W        W19991   2.249  18.266  13.111
51598W        W19992   6.494  38.364  13.613
51599W        W19993  10.329  37.806  11.598
51600W        W19994  30.141  27.414   4.551
51601W        W19995  18.048  20.465  12.720
51602W        W19996   5.010  22.483   0.947
51603W        W19997  15.072  18.734  14.335
51604W        W19998  28.939  20.227   3.651
51605W        W19999  44.900  27.075   2.015
51606W        W20000   8.617  16.314  11.596
51607W        W20001  15.130  42.515   0.233
51608W        W20002  32.064  28.203  14.713
51609W        W20003  18.106   8.651   3.320
51610W        W20004   1.985  14.238   0.195
51611W        W20005  21.768  15.031   1.200
51612W        W20006  34.950  19.454  14.933
51613W        W20007  15.591  44.981   1.760
51614W        W20008  34.668   2.779   4.658
51615W        W20009   4.831  36.649   1.941
51616W        W20010  16.807   9.685  12.450
51617W        W20011  34.049  19.545   1.922
51618W        W20012  42.010  36.025   4.050
51619W        W20013  12.135  18.012  10.540
51620W        W20014  10.177  36.016  11.699
51621W        W20015  21.690   3.703  12.008
51622W        W20016  23.837  28.639  13.061
51623W        W20017   6.395   5.618   1.444
51624W        W20018  16.114  32.156  12.858
51625W        W20019   9.698  13.702  10.715
51626W        W20020   3.882  13.696  12.866
51627W        W20021  35.363   3.764  14.786
51628W        W20022   4.198  15.669   3.156
51629W        W20023  21.647   1.373   3.723
51630W        W20024  27.528  44.761   3.263
51631W        W20025  42.857  26.077  14.839
51632W        W20026  10.340  39.149   2.690
51633W        W20027   4.362  24.026   3.540
51634W        W20028   4.756  25.628  12.895
51635W        W20029  13.451  33.061  11.650
51636W        W20030  12.534  42.584  12.858
51637W        W20031  28.305   7.944  11.090
51638W        W20032  39.124  28.460  13.140
51639W        W20033  43.087  39.838  12.380
51640W        W20034   4.506  13.263  12.454
51641W        W20035  23.776  19.084   0.328
51642W        W20036   7.251  18.556  10.660
51643W        W20037  33.734  15.102   1.911
51644W        W20038  32.371  30.707   2.725
51645W        W20039  38.054  43.156   1.888
51646W        W20040  41.930  42.063  10.742
51647W        W20041   6.409  42.961  11.298
51648W        W20042   9.977  37.011  12.840
51649W        W20043  13.923  19.204   0.011
51650W        W20044  11.333  19.641   3.364
51651W        W20045  11.241   0.409   1.688
51652W        W20046  40.969  36.643   2.516
51653W        W20047  15.897  11.775   0.918
51654W        W20048  18.630  26.251   5.003
51655W        W20049   8.126  36.819  14.559
51656W        W20050  36.328  18.767   4.204
51657W        W20051  33.144   5.973   5.271
51658W        W20052  18.784  25.963   5.409
51659W        W20053  36.467  13.064  14.979
51660W        W20054  12.953  16.729  13.413
51661W        W20055  35.125  25.615   0.974
51662W        W20056  12.319   2.295  13.443
51663W        W20057  19.664  29.063   5.440
51664W        W20058   4.685  27.972   5.246
51665W        W20059   1.397  18.718  14.342
51666W        W20060  27.256  41.937   0.320
51667W        W20061  16.142  32.750   2.318
51668W        W20062  35.793  28.556  12.394
51669W        W20063   1.950  30.888  13.927
51670W        W20064  36.610   3.477  13.559
51671W        W20065  31.787  24.078  14.017
51672W        W20066   1.344  39.527  10.590
51673W        W20067  13.878  22.078  14.648
51674W        W20068  36.947  19.261  13.568
51675W        W20069  26.677  37.058   2.251
51676W        W20070  20.306   9.884  11.103
51677W        W20071  20.910  19.244  12.079
51678W        W20072  38.870   0.870  13.521
51679W        W20073  37.312  43.313   3.856
51680W        W20074  10.984  11.069   4.581
51681W        W20075  27.096  40.783  12.167
51682W        W20076  19.536   9.406   2.859
51683W        W20077  41.453  12.701   2.436
51684W        W20078  24.398  40.023  13.562
51685W        W20079  25.803  33.934  12.086
51686W        W20080  22.069  28.698   2.691
51687W        W20081  30.904  34.530  14.366
51688W        W20082  24.777  26.314   5.050
51689W        W20083  22.617  12.166   0.195
51690W        W20084  24.143   9.725  10.191
51691W        W20085  24.041   7.050  11.921
51692W        W20086  19.916   3.825  10.556
51693W        W20087  43.814  16.051  13.243
51694W        W20088  10.412   0.755  10.862
51695W        W20089  21.481  37.962  12.503
51696W        W20090  33.971   4.227   1.828
51697W        W20091  19.124   3.402  10.620
51698W        W20092  38.258  21.712  13.996
51699W        W20093   1.175  28.884   0.826
51700W        W20094  43.748   7.769  14.848
51701W        W20095  16.275  22.951  13.364
51702W        W20096  28.696  27.542   3.746
51703W        W20097  28.218  11.096  11.246
51704W        W20098   4.995   8.770   3.395
51705W        W20099  41.329  12.707  12.593
51706W        W20100  16.543  28.277   3.258
51707W        W20101  17.499   4.483  14.236
51708W        W20102  14.597  28.593   3.472
51709W        W20103  39.033  21.556  10.514
51710W        W20104  25.648  40.500   2.433
51711W        W20105  24.666  18.980   1.407
51712W        W20106  19.186  17.856   0.305
51713W        W20107  17.211  16.230   3.232
51714W        W20108  29.009  12.218  10.559
51715W        W20109  21.727  23.502  14.492
51716W        W20110  28.274   5.621   1.655
51717W        W20111  42.540  34.218   4.773
51718W        W20112  16.178  38.438   3.626
51719W        W20113  42.110  35.730  10.184
51720W        W20114  37.500  28.086   1.449
51721W        W20115  12.606  22.303   0.183
51722W        W20116   6.929  31.912   0.011
51723W        W20117   4.845  23.301  14.656
51724W        W20118  34.197  27.148   3.296
51725W        W20119  36.226  22.527   3.198
51726W        W20120  34.101   8.234  14.372
51727W        W20121   7.878  33.208   0.912
51728W        W20122  39.014  44.343   5.040
51729W        W20123  14.390  10.058   0.476
51730W        W20124  42.377  44.194   3.209
51731W        W20125  23.962   9.741  12.398
51732W        W20126  36.913   8.649   3.759
51733W        W20127   5.341   0.847   2.750
51734W        W20128  14.296   0.913  10.678
51735W        W20129  25.356  22.634  11.551
51736W        W20130  40.770  31.178  13.484
51737W        W20131  37.140   2.061   1.347
51738W        W20132  36.575  17.747  11.261
51739W        W20133  30.116  22.663   4.091
51740W        W20134  38.348  31.100   3.648
51741W        W20135  43.087  15.801  12.958
51742W        W20136  31.922  31.651  14.983
51743W        W20137  37.739  43.595  14.432
51744W        W20138  10.287  44.970   4.434
51745W        W20139  40.643  43.729   2.075
51746W        W20140  38.341  23.107  11.240
51747W        W20141  29.157  11.107   2.141
51748W        W20142   3.582  12.857   4.095
51749W        W20143  42.839   1.282   0.692
51750W        W20144  37.469  13.450   1.699
51751W        W20145  35.839   2.118   3.189
51752W        W20146  14.329   8.765   0.392
51753W        W20147  38.840  18.211   4.558
51754W        W20148  22.725  27.507   1.860
51755W        W20149  41.736   0.334   3.277
51756W        W20150   1.559  13.226  13.900
51757W        W20151   1.876  37.486  12.978
51758W        W20152  35.938  11.771  13.387
51759W        W20153   8.178  10.861   4.863
51760W        W20154  12.746  41.269  12.517
51761W        W20155  26.191  19.705  13.263
51762W        W20156  31.095  10.754   0.541
51763W        W20157  37.951  17.672   3.143
51764W        W20158  10.066  36.372   0.317
51765W        W20159   0.588  21.009  14.116
51766W        W20160  30.456  10.310   3.044
51767W        W20161  32.601  14.909   1.409
51768W        W20162   6.421  22.723  14.493
51769W        W20163  22.916  43.587   4.164
51770W        W20164  27.600  42.529   0.969
51771W        W20165  18.521   4.188   0.283
51772W        W20166  12.512   5.668  13.079
51773W        W20167  27.501  12.437   2.844
51774W        W20168  26.006   6.657  13.324
51775W        W20169  17.022  39.958   4.551
51776W        W20170  24.075  30.916   1.328
51777W        W20171   4.249   1.053   0.500
51778W        W20172  44.802  22.744  12.992
51779W        W20173  40.158  15.806   0.793
51780W        W20174  27.585  34.427  14.222
51781W        W20175  19.294  24.026  14.502
51782W        W20176  43.206  32.456  13.364
51783W        W20177  34.831   3.416   1.363
51784W        W20178   2.060   1.464  12.486
51785W        W20179  24.338   1.436  12.836
51786W        W20180  32.903  12.290  10.927
51787W        W20181   3.443  27.577  13.426
51788W        W20182  18.102  28.562   3.115
51789W        W20183  15.515   9.776  11.458
51790W        W20184  29.703  24.714   3.656
51791W        W20185  19.709  44.665  13.237
51792W        W20186  37.135  31.726  13.936
51793W        W20187  29.495  19.622   4.747
51794W        W20188  44.767  10.716   3.227
51795W        W20189  23.914  36.882   2.341
51796W        W20190  38.453  17.785   3.390
51797W        W20191  41.470  25.403  10.806
51798W        W20192  18.565  28.317  14.530
51799W        W20193  43.961  27.128  11.338
51800W        W20194  21.950   6.438   1.671
51801W        W20195  14.213  37.502   5.102
51802W        W20196  12.073   5.498   2.604
51803W        W20197  32.245   4.361   0.809
51804W        W20198   2.784  18.260   4.089
51805W        W20199  28.501   8.888  14.889
51806W        W20200  43.504  43.487   0.358
51807W        W20201  26.468  34.964  13.023
51808W        W20202  36.554   6.352  11.570
51809W        W20203  24.279  34.600   2.203
51810W        W20204  22.115  17.555  13.824
51811W        W20205   5.065  14.033   4.069
51812W        W20206  23.262   8.279   2.735
51813W        W20207  44.765  30.125  14.786
51814W        W20208  39.369  30.208  13.065
51815W        W20209  43.593  12.152  11.062
51816W        W20210  22.860  21.714  12.569
51817W        W20211  44.370  41.500  14.462
51818W        W20212  42.941  18.327   2.718
51819W        W20213  17.538  23.186  13.610
51820W        W20214  20.035   3.797   1.295
51821W        W20215   8.674   2.350   0.995
51822W        W20216  15.262   5.614  13.813
51823W        W20217  41.146  33.965   2.274
51824W        W20218  36.406  37.680  13.138
51825W        W20219  11.574  31.011   1.145
51826W        W20220  13.904  29.160   2.999
51827W        W20221  12.492  31.161   4.804
51828W        W20222  39.065  13.228   0.818
51829W        W20223   0.338  30.467  14.283
51830W        W20224  16.442  28.583  13.942
51831W        W20225   1.093  16.079  12.707
51832W        W20226  22.719  13.835  11.145
51833W        W20227  16.891  44.898   3.579
51834W        W20228  32.627  42.917   3.341
51835W        W20229   0.847  36.419  10.476
51836W        W20230  41.594   0.891   3.328
51837W        W20231  39.812  36.839   3.737
51838W        W20232  15.911   1.634  13.374
51839W        W20233  35.519   7.643   3.839
51840W        W20234  43.755  35.894   3.211
51841W        W20235   0.438  28.608  13.168
51842W        W20236  29.128  39.372   1.843
51843W        W20237  25.188  42.418   0.986
51844W        W20238   2.772   0.597   1.296
51845W        W20239  33.717  41.939   1.426
51846W        W20240  26.706  25.605   4.142
51847W        W20241  19.617  21.008  10.968
51848W        W20242   7.334   7.120   0.997
51849W        W20243   8.324  10.129  13.341
51850W        W20244   6.539  31.513  14.800
51851W        W20245   3.381  25.684   1.438
51852W        W20246  25.992  29.504  12.548
51853W        W20247  16.672   0.224  14.398
51854W        W20248  28.502   4.414  11.941
51855W        W20249  31.860  39.517   2.748
51856W        W20250  25.872  12.098   3.236
51857W        W20251   9.380   3.496  11.440
51858W        W20252  19.812   4.812  10.627
51859W        W20253   5.032   2.968   1.882
51860W        W20254   5.196  25.471  14.189
51861W        W20255  37.637  11.541  14.418
51862W        W20256  13.800  23.183   3.891
51863W        W20257   5.466   1.704  14.931
51864W        W20258  14.472  31.259  11.486
51865W        W20259  40.052   1.573   2.218
51866W        W20260   8.854   3.186   0.663
51867W        W20261   4.654  33.490   2.390
51868W        W20262  39.971  27.948  11.374
51869W        W20263  31.539  20.888  11.181
51870W        W20264  14.251   3.090  14.408
51871W        W20265  32.344  29.960  10.778
51872W        W20266  30.833   8.906  13.253
51873W        W20267  32.380   5.783   4.588
51874W        W20268  14.142  36.084  11.541
51875W        W20269  42.335  35.565  11.444
51876W        W20270  40.346  32.934  12.333
51877W        W20271   0.614  12.667   3.874
51878W        W20272  43.018  41.861  12.059
51879W        W20273  20.770  33.483  14.937
51880W        W20274   6.855  37.466   2.871
51881W        W20275  29.873  22.266  13.288
51882W        W20276   4.694   8.300  14.410
51883W        W20277  17.197  15.838  10.611
51884W        W20278  25.879  39.320  10.592
51885W        W20279   5.709  30.377   4.093
51886W        W20280  19.066   8.186   3.392
51887W        W20281  18.766  41.891  14.996
51888W        W20282  37.393  34.633   3.781
51889W        W20283   6.206  23.356   1.770
51890W        W20284  20.484  38.438  10.603
51891W        W20285  32.956  16.643   0.162
51892W        W20286  43.373  35.563   5.434
51893W        W20287  36.221  36.673   2.421
51894W        W20288   7.902   2.231  11.249
51895W        W20289  39.010   9.369   0.702
51896W        W20290  28.663  40.083  11.539
51897W        W20291   4.983  40.411  12.531
51898W        W20292  36.956  23.159  10.690
51899W        W20293  30.485  22.128   4.315
51900W        W20294   6.781  21.740  14.995
51901W        W20295  36.891  34.107   4.570
51902W        W20296  35.142  21.056   1.585
51903W        W20297  42.679  20.093   1.659
51904W        W20298  34.705  35.517   3.648
51905W        W20299   4.634  42.636   3.239
51906W        W20300  29.086  35.118  11.575
51907W        W20301  19.141  12.444  11.171
51908W        W20302  12.787  38.349  11.718
51909W        W20303  22.073  14.345   1.864
51910W        W20304  12.691  11.084   0.386
51911W        W20305   9.411  14.779  12.511
51912W        W20306  23.921  10.109   0.446
51913W        W20307   1.214  44.143  10.436
51914W        W20308  26.759   4.208   0.895
51915W        W20309  13.493  35.472  11.287
51916W        W20310   8.179   1.389   4.091
51917W        W20311   8.157  17.321   1.214
51918W        W20312  38.007   4.856   1.082
51919W        W20313   0.975  26.323   2.384
51920W        W20314  21.694  36.851   2.524
51921W        W20315   4.640   0.698  13.668
51922W        W20316  11.810  38.134  12.585
51923W        W20317  17.935  12.569  10.616
51924W        W20318  20.707  41.820   0.140
51925W        W20319  35.818  37.263   4.336
51926W        W20320  28.531  43.117  12.488
51927W        W20321  19.997  36.051  13.212
51928W        W20322  10.985  11.286  11.522
51929W        W20323  34.555  37.172  14.879
51930W        W20324  39.476  14.632  10.434
51931W        W20325   1.149   5.136  14.340
51932W        W20326  40.572  42.628   2.249
51933W        W20327  43.353   7.576  13.364
51934W        W20328   3.578  31.635   2.083
51935W        W20329  22.070  30.878   5.074
51936W        W20330   9.276  18.983  11.169
51937W        W20331  39.591  44.031  12.856
51938W        W20332  15.508  21.396   4.988
51939W        W20333   1.592   3.168  14.375
51940W        W20334  33.970   0.728   3.315
51941W        W20335  15.103   9.683   4.058
51942W        W20336  22.563  29.625  14.343
51943W        W20337  24.552  40.766   3.290
51944W        W20338  14.862  44.760   2.802
51945W        W20339  37.111   2.347  13.425
51946W        W20340  34.702   1.214   3.263
51947W        W20341  18.227  38.491  11.597
51948W        W20342   2.307  32.620  10.754
51949W        W20343  43.112  24.714   1.214
51950W        W20344  11.562  38.950   1.918
51951W        W20345  43.034  34.101   1.613
51952W        W20346  33.002  33.119  13.074
51953W        W20347  12.540   6.879   1.165
51954W        W20348   1.378  17.218   3.057
51955W        W20349   6.233  18.648   3.081
51956W        W20350  36.018  28.227   3.279
51957W        W20351  28.779  23.572   2.324
51958W        W20352  40.776  13.160   4.553
51959W        W20353   6.149   0.266  12.512
51960W        W20354  39.298  21.472   3.856
51961W        W20355  14.325  33.894   3.300
51962W        W20356  23.307   2.598  11.447
51963W        W20357  10.945  32.730  13.421
51964W        W20358  22.470  20.864  14.221
51965W        W20359  11.759   1.362  11.377
51966W        W20360  28.611  11.596   3.846
51967W        W20361   1.906  28.789   3.412
51968W        W20362  40.939  22.508   0.294
51969W        W20363   9.696   7.807   3.392
51970W        W20364  39.638   2.797  13.042
51971W        W20365   4.283   4.908  11.009
51972W        W20366  30.624  44.647  11.097
51973W        W20367  26.962  14.062  13.436
51974W        W20368  33.284  39.580  14.657
51975W        W20369  21.181  26.653   3.207
51976W        W20370  16.095  20.979   3.764
51977W        W20371   4.045   9.356   4.129
51978W        W20372  12.245  27.097   2.905
51979W        W20373  14.665   2.692   4.029
51980W        W20374  11.403   8.294  13.618
51981W        W20375   3.678   2.519  13.489
51982W        W20376  15.746  15.765  12.799
51983W        W20377   0.953   6.465  11.752
51984W        W20378  25.486  24.074  11.352
51985W        W20379  12.584  22.747   2.846
51986W        W20380  32.026  18.860   1.144
51987W        W20381   3.972  44.930  12.520
51988W        W20382  42.406  31.556  10.907
51989W        W20383  31.682  32.085  14.738
51990W        W20384   4.856  12.304   2.187
51991W        W20385  21.982  22.249  14.116
51992W        W20386  22.026  32.259   3.281
51993W        W20387  43.306  43.806   2.575
51994W        W20388  35.127  10.758   1.231
51995W        W20389  44.797  41.275   2.201
51996W        W20390  26.919  32.020   4.067
51997W        W20391  42.979  15.392   3.347
51998W        W20392  32.055  25.054  13.839
51999W        W20393  37.960  39.416   1.479
52000W        W20394  41.762  34.605   4.084
52001W        W20395  37.512  36.815  11.211
52002W        W20396   2.037  36.939   0.328
52003W        W20397  14.827  39.298   3.807
52004W        W20398  24.041  35.409   1.744
52005W        W20399  10.661  29.825   3.270
52006W        W20400  26.029   4.158  11.016
52007W        W20401  30.252  44.897   4.165
52008W        W20402  42.039   3.366  13.936
52009W        W20403  41.266  42.581   3.262
52010W        W20404  42.849   5.353   1.018
52011W        W20405  15.689  31.098   3.342
52012W        W20406  38.389  20.610   3.354
52013W        W20407  22.769  28.632   4.542
52014W        W20408  19.283  16.895   3.198
52015W        W20409  13.210  22.072   2.649
52016W        W20410  33.579   1.006   2.289
52017W        W20411  14.682  12.186  13.286
52018W        W20412   1.556  16.141  12.950
52019W        W20413  15.804  38.186  11.517
52020W        W20414   1.718  21.258   4.624
52021W        W20415  31.829  42.304   0.843
52022W        W20416  32.035  29.076   4.130
52023W        W20417  17.090  39.422  13.617
52024W        W20418  42.301  44.425   2.412
52025W        W20419   4.991  43.791   1.776
52026W        W20420  36.405  38.627  11.457
52027W        W20421  21.447  34.313  10.682
52028W        W20422  20.525  23.241   3.899
52029W        W20423   9.241   9.095  13.087
52030W        W20424  40.645  35.392  10.183
52031W        W20425  17.240   4.857  10.714
52032W        W20426  21.014  41.670   4.562
52033W        W20427   1.525  34.941   4.523
52034W        W20428  19.470  40.022  14.980
52035W        W20429   9.100  40.835  14.915
52036W        W20430  28.974  39.164  10.655
52037W        W20431  30.914  36.431  14.364
52038W        W20432  11.536   5.586  14.812
52039W        W20433  20.825  18.198   4.984
52040W        W20434  27.581   1.913   9.819
52041W        W20435   3.690  32.098  11.011
52042W        W20436  12.229   7.564   5.045
52043W        W20437  36.469  21.232   0.737
52044W        W20438  39.811   4.107  10.766
52045W        W20439  32.584  42.331   2.050
52046W        W20440  38.135  21.059  10.712
52047W        W20441  44.483  43.684  13.498
52048W        W20442  16.272  10.624   0.419
52049W        W20443  32.851  44.008  12.088
52050W        W20444  19.972  24.120  12.360
52051W        W20445   2.852  42.559  12.109
52052W        W20446  20.242  22.901   2.239
52053W        W20447  41.902  34.755   0.265
52054W        W20448  32.929  18.960   0.716
52055W        W20449   6.827  11.968  14.570
52056W        W20450  17.281  29.539  10.747
52057W        W20451  35.344   7.333   0.963
52058W        W20452  31.428  41.854  14.266
52059W        W20453  40.174   0.811  14.032
52060W        W20454  40.867  40.882   1.560
52061W        W20455  16.596  15.199   2.703
52062W        W20456  23.695  32.098  14.850
52063W        W20457   8.835   3.398   3.871
52064W        W20458  34.645  39.886   0.880
52065W        W20459  29.552  40.204   3.005
52066W        W20460  37.081  26.611  11.196
52067W        W20461  16.041   0.307  14.469
52068W        W20462  29.046  22.796   1.272
52069W        W20463   2.213  42.765   0.367
52070W        W20464  43.531  32.885  14.092
52071W        W20465  38.535  25.599   0.405
52072W        W20466   8.373   6.311   2.652
52073W        W20467  22.056  42.318   3.116
52074W        W20468  40.375  34.707   0.017
52075W        W20469  37.058  25.103   0.297
52076W        W20470  22.114  24.540   1.159
52077W        W20471  28.939  44.102  14.522
52078W        W20472  34.469  31.239   0.780
52079W        W20473  37.939  26.640  13.756
52080W        W20474  40.521   4.188   3.323
52081W        W20475  15.907  44.239   3.589
52082W        W20476   0.747  12.776   4.462
52083W        W20477  13.838  14.169   4.543
52084W        W20478  22.244  44.023  10.651
52085W        W20479  42.955  10.588   2.877
52086W        W20480  18.764   2.455  11.223
52087W        W20481  38.349   1.042   1.576
52088W        W20482   1.400  16.074  13.587
52089W        W20483  28.702  19.524  10.589
52090W        W20484   1.562  32.523  14.532
52091W        W20485  16.480  34.833  11.124
52092W        W20486  10.905  37.449   1.478
52093W        W20487  27.136   2.422  12.621
52094W        W20488  11.585  39.038   0.448
52095W        W20489  33.342  31.282   3.312
52096W        W20490  30.398   4.602  14.620
52097W        W20491  15.504  23.655  11.442
52098W        W20492  18.661  15.620  12.159
52099W        W20493   7.654   7.856  10.912
52100W        W20494  43.242   4.890   3.600
52101W        W20495  44.067  21.870   3.678
52102W        W20496   4.943  38.969   4.059
52103W        W20497  22.631  38.588   0.372
52104W        W20498  40.319  17.644  13.813
52105W        W20499   1.052  33.051   1.945
52106W        W20500  14.567  32.046   4.183
52107W        W20501  15.315  20.167   4.395
52108W        W20502  36.482   9.601  11.487
52109W        W20503  16.462   4.838  10.319
52110W        W20504  14.301   4.986   0.940
52111W        W20505   5.368  35.531   0.125
52112W        W20506  43.285  18.785  11.393
52113W        W20507  24.783  35.065   0.921
52114W        W20508  33.957  36.906   0.552
52115W        W20509  19.742   0.035   0.266
52116W        W20510  24.539  10.284   1.461
52117W        W20511  39.138  22.811   3.956
52118W        W20512  32.034   5.247  13.492
52119W        W20513  20.820  26.097  11.150
52120W        W20514  12.118  11.667  12.073
52121W        W20515   1.917  44.954   1.510
52122W        W20516  15.119   8.846   4.232
52123W        W20517   1.788  10.766  10.882
52124W        W20518  35.095  33.635   1.295
52125W        W20519  10.162  36.178  10.117
52126W        W20520  44.751  17.210  11.691
52127W        W20521  23.603  21.132  14.941
52128W        W20522  18.507  11.204  14.872
52129W        W20523   2.855  36.831  12.006
52130W        W20524  27.308  37.535  11.635
52131W        W20525  44.257   8.624  12.821
52132W        W20526   9.699  41.923   0.562
52133W        W20527  22.990   1.814  10.917
52134W        W20528  34.878  39.030  10.650
52135W        W20529  28.099  33.533  12.890
52136W        W20530   4.385  19.557  14.870
52137W        W20531   5.800  18.342   1.438
52138W        W20532  22.156  42.004   1.996
52139W        W20533   5.998   7.915   4.300
52140W        W20534  39.565   0.755   2.301
52141W        W20535  17.367  10.310   4.096
52142W        W20536  29.041  28.687  10.703
52143W        W20537  40.690   8.638  10.301
52144W        W20538  44.902  29.213   0.919
52145W        W20539  25.634  30.571  10.770
52146W        W20540  35.257   9.873  10.760
52147W        W20541   8.184  11.166  13.349
52148W        W20542  13.608  41.853   3.636
52149W        W20543  15.600  40.826   1.403
52150W        W20544  34.327   0.314   0.253
52151W        W20545  24.795  33.614   2.638
52152W        W20546  40.510  26.717  11.362
52153W        W20547  32.075  40.962  11.606
52154W        W20548  19.573   0.564  11.453
52155W        W20549  18.612  33.121  14.452
52156W        W20550  43.318  18.498  14.340
52157W        W20551   3.428  25.014   3.485
52158W        W20552  40.782   5.997  12.564
52159W        W20553  36.532  35.550  12.855
52160W        W20554  15.890  14.361  10.714
52161W        W20555  17.867  19.986   4.541
52162W        W20556  42.666   4.895  14.583
52163W        W20557  43.004  42.931   2.219
52164W        W20558  22.723  42.336  11.398
52165W        W20559  20.390   1.387   4.084
52166W        W20560   3.881  30.183   0.335
52167W        W20561  15.398  21.211  13.396
52168W        W20562  19.002  33.757  13.766
52169W        W20563   9.140   0.292  14.870
52170W        W20564  16.678   0.421  11.563
52171W        W20565  43.274  11.016  11.733
52172W        W20566   8.811  36.420   5.032
52173W        W20567   9.400  32.214   0.295
52174W        W20568  39.396  12.440  13.412
52175W        W20569  17.732   8.479   0.409
52176W        W20570   5.329  43.757   0.489
52177W        W20571  17.278  14.786   2.295
52178W        W20572  28.914  38.041  11.967
52179W        W20573   0.417   6.831  10.721
52180W        W20574  22.674   0.031   3.780
52181W        W20575   9.130   7.742  13.912
52182W        W20576  20.099  26.298  10.666
52183W        W20577   6.436  40.372   0.196
52184W        W20578  22.378  13.745   2.299
52185W        W20579  38.439  22.622  11.408
52186W        W20580  35.866  35.969   0.684
52187W        W20581  22.439   8.412   3.108
52188W        W20582  19.578  24.293   1.604
52189W        W20583  22.528  29.120  10.202
52190W        W20584  22.148   3.039  11.960
52191W        W20585  12.330   5.380  14.828
52192W        W20586  19.106   4.369   0.819
52193W        W20587  36.761  36.564  13.519
52194W        W20588  44.433  26.425  10.824
52195W        W20589   8.849  34.063  10.822
52196W        W20590   0.966  20.582  12.459
52197W        W20591  24.114  44.543   0.830
52198W        W20592  29.475  25.083   0.373
52199W        W20593  19.289  34.562   1.348
52200W        W20594  10.830  24.497  13.041
52201W        W20595  26.236   1.883  10.653
52202W        W20596   1.015  36.496  11.388
52203W        W20597  30.980  30.081   4.346
52204W        W20598  13.542  33.521  12.965
52205W        W20599   6.681  40.340   2.661
52206W        W20600  34.178  18.711  11.146
52207W        W20601  24.614  25.229   3.913
52208W        W20602  39.159   9.288   1.637
52209W        W20603  41.932   9.367   3.887
52210W        W20604   8.809  11.583   3.335
52211W        W20605  20.027  28.665  14.214
52212W        W20606  26.565  13.342   4.551
52213W        W20607  25.842  33.326  12.616
52214W        W20608   2.193  15.738  12.138
52215W        W20609   5.883   0.753  14.559
52216W        W20610   6.842   0.752   4.329
52217W        W20611  36.397  18.846   1.200
52218W        W20612  29.930  42.073   3.418
52219W        W20613   2.330  13.606   3.063
52220W        W20614  36.942  20.504   1.171
52221W        W20615  15.864  10.303   0.345
52222W        W20616  16.279  11.364  11.579
52223W        W20617   4.367   1.978  10.687
52224W        W20618  13.151  13.773  12.594
52225W        W20619  13.300  30.513   2.863
52226W        W20620   0.912  32.434   3.930
52227W        W20621  36.493   3.482  10.801
52228W        W20622  42.732  29.964   2.430
52229W        W20623   5.121  38.184   3.229
52230W        W20624  37.464  40.381  13.124
52231W        W20625  24.570   1.540   3.496
52232W        W20626  39.842  40.323   3.178
52233W        W20627   8.607   5.876  13.221
52234W        W20628  13.031  10.711   3.595
52235W        W20629  29.405  14.852   0.855
52236W        W20630   9.782   1.906  12.110
52237W        W20631  42.743  29.603   0.705
52238W        W20632   5.785   1.295   4.146
52239W        W20633  44.783  29.982   2.722
52240W        W20634  34.817  22.644   4.981
52241W        W20635  30.039  41.217   1.002
52242W        W20636  24.972   8.667   4.518
52243W        W20637  27.574  14.621   2.218
52244W        W20638  42.258  11.086  11.681
52245W        W20639  21.460   2.880  14.751
52246W        W20640   7.354   1.449  11.075
52247W        W20641  27.636  34.911   0.808
52248W        W20642  16.225  27.114  11.878
52249W        W20643  28.202  27.926  14.085
52250W        W20644  34.665  10.673  13.912
52251W        W20645  30.541  11.707   3.768
52252W        W20646  24.802  32.867   1.404
52253W        W20647  25.621  18.700  12.067
52254W        W20648  16.241  14.243   1.291
52255W        W20649   2.478  13.254  12.592
52256W        W20650  20.900  44.672  11.332
52257W        W20651  26.003  13.551  13.386
52258W        W20652  44.537  17.286  12.160
52259W        W20653   0.362   7.923   1.878
52260W        W20654  24.980  34.451   3.650
52261W        W20655  14.435  23.527   2.418
52262W        W20656   5.636  22.074   3.251
52263W        W20657  42.578  26.565   0.862
52264W        W20658  20.877   5.441   0.496
52265W        W20659   3.886  30.352   1.245
52266W        W20660  15.178   7.757   5.437
52267W        W20661  28.454  21.128   2.784
52268W        W20662  34.704  15.229   3.439
52269W        W20663  30.071   9.944  12.965
52270W        W20664  37.288  11.861   3.412
52271W        W20665  10.841  19.311  12.511
52272W        W20666   7.662  14.162   2.793
52273W        W20667  17.309  11.282   2.457
52274W        W20668  40.071  19.250   2.226
52275W        W20669  41.856  40.022   3.804
52276W        W20670  43.873  14.390  13.264
52277W        W20671  41.447   1.439  12.521
52278W        W20672  41.568  16.859   1.709
52279W        W20673  14.796  11.209   1.564
52280W        W20674   0.514  32.518  12.096
52281W        W20675   9.120  11.906   5.133
52282W        W20676  14.801   2.142   1.882
52283W        W20677  33.598  14.189   3.357
52284W        W20678   8.873   4.433   2.594
52285W        W20679  34.545  29.681  13.014
52286W        W20680   3.526  29.995   4.063
52287W        W20681  38.112  28.536  12.934
52288W        W20682  32.534  24.298   0.323
52289W        W20683  10.282  23.319   4.610
52290W        W20684  22.235  18.254  12.033
52291W        W20685  41.547  20.519  10.883
52292W        W20686  12.392  27.909  12.146
52293W        W20687  18.189   6.698  10.534
52294W        W20688  42.545  26.477  10.698
52295W        W20689  11.176  16.655  12.398
52296W        W20690  24.109  37.793   2.385
52297W        W20691   5.160  34.885   4.501
52298W        W20692  35.982  19.738  13.941
52299W        W20693   8.379   9.911   3.813
52300W        W20694   6.634  19.012  14.909
52301W        W20695  32.679  13.133   2.186
52302W        W20696  37.359  22.515   1.348
52303W        W20697  14.228   5.997  13.940
52304W        W20698  34.327   0.342  14.327
52305W        W20699  13.853  15.845   3.192
52306W        W20700   1.433  40.514   1.650
52307W        W20701   8.681  21.671   0.319
52308W        W20702  26.032   9.127   4.339
52309W        W20703  21.258  32.455   1.263
52310W        W20704  35.100  11.568  13.532
52311W        W20705   1.674   8.299  10.577
52312W        W20706  25.231  16.224   0.969
52313W        W20707  26.975  19.493   1.365
52314W        W20708  36.031  21.861  12.039
52315W        W20709  25.650  37.502   1.290
52316W        W20710  25.093  38.973  14.345
52317W        W20711   2.163   2.877  11.209
52318W        W20712   4.346  35.070  10.541
52319W        W20713  22.682  42.266  14.378
52320W        W20714  25.493  38.588  12.932
52321W        W20715  35.257  34.548  10.269
52322W        W20716  19.614  29.832  14.421
52323W        W20717  14.447  27.051   4.271
52324W        W20718   8.132  13.660   4.179
52325W        W20719  18.266  43.960   1.981
52326W        W20720  12.799  35.872  13.857
52327W        W20721  44.503  10.252  14.510
52328W        W20722   1.939   1.782   2.778
52329W        W20723  28.122  24.296  13.050
52330W        W20724  34.942  32.154   4.375
52331W        W20725  11.650  33.514   3.091
52332W        W20726  11.815  10.392   2.290
52333W        W20727  19.552  26.064   9.823
52334W        W20728  14.623  24.036  14.757
52335W        W20729  37.683  17.654  13.912
52336W        W20730  10.767   7.513   1.167
52337W        W20731  18.763   2.308  14.706
52338W        W20732  23.884  15.315   4.694
52339W        W20733  15.261   9.923  13.570
52340W        W20734  10.271   9.317  14.225
52341W        W20735   4.846  44.221  10.296
52342W        W20736   8.921  41.030  10.436
52343W        W20737  17.944  41.461  13.870
52344W        W20738   9.402  31.987  11.120
52345W        W20739   3.477  20.069  14.926
52346W        W20740  19.754   0.436  11.928
52347W        W20741   8.098  34.552  14.918
52348W        W20742   1.707  43.004  11.957
52349W        W20743   9.768  23.648   1.770
52350W        W20744  16.025  43.171  13.314
52351W        W20745  28.750   1.958   2.879
52352W        W20746   3.287  23.126   3.033
52353W        W20747  44.078  16.558   3.052
52354W        W20748  22.094  34.422   0.824
52355W        W20749  11.328  25.306   3.096
52356W        W20750  14.909   6.201   1.985
52357W        W20751  27.126  24.257   3.395
52358W        W20752  33.124  12.192   4.478
52359W        W20753  27.632  13.665  11.150
52360W        W20754  29.306  12.878   4.463
52361W        W20755  10.884   9.184   4.618
52362W        W20756  35.436  42.003   0.955
52363W        W20757  44.165  23.061   3.657
52364W        W20758  31.846  19.768   3.677
52365W        W20759  22.391  37.105   0.769
52366W        W20760  17.348  30.555  14.420
52367W        W20761  33.930  36.477   4.614
52368W        W20762  23.598  39.386   1.720
52369W        W20763   2.856  11.237   0.773
52370W        W20764  32.007  18.341   1.222
52371W        W20765  38.620   0.298   4.443
52372W        W20766  11.286  24.387   0.232
52373W        W20767  32.601  24.276  10.769
52374W        W20768  22.857  28.510  11.895
52375W        W20769   8.329  13.848  13.800
52376W        W20770  29.888  16.848  13.367
52377W        W20771  25.456  25.691  13.470
52378W        W20772  27.543  31.288  13.969
52379W        W20773  15.888  26.995  13.428
52380W        W20774  42.230  34.162   3.240
52381W        W20775  17.481  41.258  14.055
52382W        W20776  15.720  26.496   1.470
52383W        W20777   9.155  33.800  12.082
52384W        W20778  44.549   5.531  14.448
52385W        W20779  18.564  26.891  11.624
52386W        W20780  34.696  20.688   1.875
52387W        W20781   3.753  11.189  14.061
52388W        W20782   8.218  39.471  14.573
52389W        W20783  41.339  36.803   3.670
52390W        W20784  43.384   9.479   3.492
52391W        W20785  21.114  21.362  12.517
52392W        W20786  11.822  22.479  13.634
52393W        W20787   1.403  18.196  10.995
52394W        W20788  29.536   0.902  13.116
52395W        W20789   0.162   6.513  11.740
52396W        W20790  13.948  28.074   3.173
52397W        W20791  23.971  22.482   3.235
52398W        W20792  22.928  34.950   2.636
52399W        W20793   1.573  19.659  13.597
52400W        W20794  30.973   0.445  13.533
52401W        W20795  38.856  36.563  13.860
52402W        W20796  17.749  40.323   5.193
52403W        W20797  21.154  37.583  11.132
52404W        W20798  29.049  37.161  13.511
52405W        W20799  12.404   8.874  14.793
52406W        W20800  44.963  37.794  14.963
52407W        W20801  22.526   9.756   2.407
52408W        W20802  19.236  36.012   2.798
52409W        W20803  42.896  31.297   1.581
52410W        W20804  12.113  33.987  13.887
52411W        W20805   3.297  40.282   3.900
52412W        W20806  23.041  14.157  13.419
52413W        W20807  40.304  30.144  14.504
52414W        W20808  41.455  22.929  14.241
52415W        W20809  14.028  28.986   4.377
52416W        W20810  37.392  15.605  13.425
52417W        W20811  15.875  28.824  11.936
52418W        W20812   0.836  20.972  12.108
52419W        W20813   9.473  22.057  11.988
52420W        W20814  13.355  17.116  10.628
52421W        W20815   5.683  43.887   2.400
52422W        W20816  13.092  29.906   1.131
52423W        W20817   9.538  43.401   2.880
52424W        W20818  17.744  38.935   1.661
52425W        W20819  39.944  13.439  10.668
52426W        W20820  35.033  36.579   0.398
52427W        W20821  35.550   7.139   2.873
52428W        W20822  25.469   9.744   1.214
52429W        W20823  16.318  11.353  10.755
52430W        W20824  36.398  37.615   1.872
52431W        W20825  35.905  42.742   2.546
52432W        W20826  29.009  36.018  14.250
52433W        W20827  34.504   0.648   4.061
52434W        W20828  12.625  20.800   1.339
52435W        W20829  23.744  19.957  13.609
52436W        W20830  34.043  36.117   1.894
52437W        W20831  24.765  12.826   0.314
52438W        W20832   0.476  17.159  11.197
52439W        W20833  31.115  43.450  10.663
52440W        W20834  12.740  26.977   4.622
52441W        W20835  15.137  23.832  12.157
52442W        W20836   0.219  27.575   3.631
52443W        W20837  20.626  26.483  12.844
52444W        W20838  15.398  42.926   0.947
52445W        W20839  39.471  18.751   1.873
52446W        W20840   7.231   5.850  14.833
52447W        W20841  14.615  10.867   2.573
52448W        W20842   4.888  25.984  11.978
52449W        W20843  27.529  14.522  14.044
52450W        W20844  12.651  26.544   1.190
52451W        W20845  14.692  36.299   1.745
52452W        W20846  14.470  23.504  14.775
52453W        W20847  40.526  19.604   5.118
52454W        W20848  39.821  33.449   3.924
52455W        W20849  44.958  25.109  11.182
52456W        W20850  40.024   0.258   0.892
52457W        W20851  39.919   0.261  13.014
52458W        W20852   3.700  25.869   3.585
52459W        W20853  15.494  34.858   2.052
52460W        W20854  30.441   3.868   1.225
52461W        W20855  24.041   0.483  14.945
52462W        W20856  11.290  29.439   1.992
52463W        W20857  15.790   8.629   2.692
52464W        W20858  27.960  27.956  10.875
52465W        W20859   2.157  25.041   2.567
52466W        W20860  37.648  28.040  11.577
52467W        W20861  44.982   4.290   1.406
52468W        W20862  33.072  30.170  13.913
52469W        W20863  10.676  26.145   4.586
52470W        W20864   9.989  25.475   5.429
52471W        W20865   6.373  10.184  12.486
52472W        W20866  34.017  39.015   3.723
52473W        W20867  38.412   4.027  12.994
52474W        W20868  16.115  27.452   4.610
52475W        W20869  33.941  20.328   3.190
52476W        W20870  16.648  42.436  12.957
52477W        W20871   9.260  36.173   3.695
52478W        W20872   7.724  44.585   1.260
52479W        W20873  10.074  19.524  14.848
52480W        W20874  16.281  21.566   2.793
52481W        W20875  23.768   2.410  11.573
52482W        W20876   5.338   6.805   1.224
52483W        W20877  21.471  20.469   3.568
52484W        W20878  14.236   7.221  13.375
52485W        W20879  19.044   0.015   3.343
52486W        W20880  15.626   5.710  12.952
52487W        W20881  25.291  19.727   3.371
52488W        W20882  12.880   4.150  14.455
52489W        W20883   6.414  20.279   2.877
52490W        W20884  13.028  10.692   0.443
52491W        W20885  34.708  21.255   3.782
52492W        W20886   7.849  14.614   3.941
52493W        W20887  29.942  15.332   4.620
52494W        W20888  36.551   0.574  11.216
52495W        W20889   5.244  17.613   2.658
52496W        W20890   7.607  18.052   0.305
52497W        W20891  21.542  41.507   3.731
52498W        W20892  18.940  41.305   0.761
52499W        W20893  36.884   5.145  13.556
52500W        W20894  28.309  42.360  14.187
52501W        W20895   0.550   8.573   0.808
52502W        W20896  24.684  30.400   1.809
52503W        W20897  23.334  21.550  12.585
52504W        W20898  44.639  43.074  12.937
52505W        W20899  15.960  10.018  12.469
52506W        W20900  24.277  22.619   4.913
52507W        W20901  10.913  14.837   3.354
52508W        W20902   7.250  41.538  12.487
52509W        W20903  16.553   1.931   2.160
52510W        W20904  12.303  14.837  11.011
52511W        W20905   8.257  23.165   3.851
52512W        W20906  20.479  42.091   3.956
52513W        W20907  42.768  34.813  13.020
52514W        W20908  23.713  41.100  14.503
52515W        W20909  35.355  18.227  14.820
52516W        W20910   3.279  33.664   4.098
52517W        W20911  34.150  21.053   1.082
52518W        W20912  20.985  15.911   4.033
52519W        W20913   5.089   0.641  13.374
52520W        W20914  35.003  35.440   4.522
52521W        W20915   0.487  41.754  13.878
52522W        W20916  41.603  10.691  12.299
52523W        W20917  21.458  34.286  12.993
52524W        W20918  21.740  32.710   4.225
52525W        W20919  28.140  38.279   2.703
52526W        W20920   3.332   4.698  14.071
52527W        W20921   8.700  32.276   4.141
52528W        W20922  19.094  44.523   4.208
52529W        W20923  35.580  31.418  11.528
52530W        W20924  20.289  20.515  12.098
52531W        W20925   4.776  32.560  12.131
52532W        W20926   3.419  36.233  13.377
52533W        W20927  39.633  36.030   0.883
52534W        W20928   2.197  36.191   2.014
52535W        W20929   8.620  35.348  12.984
52536W        W20930  29.528  25.257  10.256
52537W        W20931  31.583  17.293  12.812
52538W        W20932  20.576   7.308   1.972
52539W        W20933  42.307  27.828   2.676
52540W        W20934  15.092  16.293   1.200
52541W        W20935  30.036  44.376   1.685
52542W        W20936  31.427  24.554   2.749
52543W        W20937  33.440  43.741   4.747
52544W        W20938  36.392   7.109  13.823
52545W        W20939  35.272   1.028  12.491
52546W        W20940   9.322   3.423  13.483
52547W        W20941  17.027   5.614  13.887
52548W        W20942  31.964  27.012  11.055
52549W        W20943  33.961  35.318  14.797
52550W        W20944  19.166  21.551  12.990
52551W        W20945   4.709  21.638  10.928
52552W        W20946  44.055  10.739  11.950
52553W        W20947  21.217  39.389   3.814
52554W        W20948  19.576  37.808  10.628
52555W        W20949  20.113  34.071   4.634
52556W        W20950  31.089  11.610  12.011
52557W        W20951  37.058   1.459  11.529
52558W        W20952  25.714  13.102   0.318
52559W        W20953  28.363  27.997  11.216
52560W        W20954  26.229  20.148  12.061
52561W        W20955   6.016   1.303  11.988
52562W        W20956  19.160   7.095   1.871
52563W        W20957  35.752  32.650   4.143
52564W        W20958  31.811  11.953   0.933
52565W        W20959  43.802  27.192  10.850
52566W        W20960  40.329   3.206  13.353
52567W        W20961  21.641   8.244  11.731
52568W        W20962  17.130  36.274  11.425
52569W        W20963  25.750   3.375   2.901
52570W        W20964  17.276  10.678  12.129
52571W        W20965   1.081  21.192   1.748
52572W        W20966  11.228  13.409  11.137
52573W        W20967  11.443  12.795   0.595
52574W        W20968   4.822  18.010   3.675
52575W        W20969  17.548   3.173   1.924
52576W        W20970  17.284  40.910  14.899
52577W        W20971  26.691   5.369   0.258
52578W        W20972   5.980  42.881  12.517
52579W        W20973   0.937  16.791  10.143
52580W        W20974  41.830   8.886  10.757
52581W        W20975  38.348  41.241   0.175
52582W        W20976  33.244  17.314   1.725
52583W        W20977  39.964  43.344   1.668
52584W        W20978  41.097   2.035  13.835
52585W        W20979  20.658  39.820   3.299
52586W        W20980  15.509  38.085   3.706
52587W        W20981  22.437  13.283   5.065
52588W        W20982  23.754  19.513  13.924
52589W        W20983  39.631  36.341  13.457
52590W        W20984   8.635  10.129  10.810
52591W        W20985  15.395   8.405  14.876
52592W        W20986   4.793  21.596   5.043
52593W        W20987  15.700  21.230  12.510
52594W        W20988  12.189   6.288  14.968
52595W        W20989  23.687   9.624  11.459
52596W        W20990  30.434  28.087  10.410
52597W        W20991  44.036  33.909   0.774
52598W        W20992  29.296  39.032  13.313
52599W        W20993   6.100  21.980   0.421
52600W        W20994  11.895  21.943   2.024
52601W        W20995  40.080  40.812  14.409
52602W        W20996  35.019  28.863  12.846
52603W        W20997  30.621  31.061   3.167
52604W        W20998  14.146  17.064  12.083
52605W        W20999   7.813  15.594  10.667
52606W        W21000  20.742  38.939   2.733
52607W        W21001   2.293  39.405   3.445
52608W        W21002   4.745  21.266  14.493
52609W        W21003   6.796   3.463  12.454
52610W        W21004   1.765  43.484   3.612
52611W        W21005  30.564  12.756   3.541
52612W        W21006  28.103  13.757   3.833
52613W        W21007   9.041  30.006   1.664
52614W        W21008  29.249  30.681  11.902
52615W        W21009  39.410   4.676  11.724
52616W        W21010  18.518  31.036  13.103
52617W        W21011  28.090   3.761   3.147
52618W        W21012  25.234  32.541   1.414
52619W        W21013  42.023  10.114   2.659
52620W        W21014  19.617  34.961   1.340
52621W        W21015  31.369  42.558   3.178
52622W        W21016  39.642  28.976   2.093
52623W        W21017  31.040  25.226   2.966
52624W        W21018   4.533  20.758   3.184
52625W        W21019  31.453  21.796   4.163
52626W        W21020  23.970  11.890  14.944
52627W        W21021  39.432  21.589  14.477
52628W        W21022  40.759  39.852   2.328
52629W        W21023  13.712  29.377   1.904
52630W        W21024  29.601  38.985  14.343
52631W        W21025  24.500   5.325   3.875
52632W        W21026  18.460   8.972   3.710
52633W        W21027  37.492  11.022  13.037
52634W        W21028  38.128   6.225  11.049
52635W        W21029   2.163  21.121   2.572
52636W        W21030   6.165  18.247  12.105
52637W        W21031  32.565  32.094  13.321
52638W        W21032   9.745  35.102   2.225
52639W        W21033  44.186   9.980   4.185
52640W        W21034  44.350   9.383  13.796
52641W        W21035  10.671  10.383  11.961
52642W        W21036  27.786  34.626   4.612
52643W        W21037  42.032  29.976  14.597
52644W        W21038  24.003  38.384  13.122
52645W        W21039  12.255  15.735  14.539
52646W        W21040   4.593  41.461  11.711
52647W        W21041  22.399  28.727  11.886
52648W        W21042  42.076  17.118  11.980
52649W        W21043  39.166  36.760   2.095
52650W        W21044  13.119  33.451   3.399
52651W        W21045  17.166  39.114  12.341
52652W        W21046  41.541  36.799   1.961
52653W        W21047   5.702   6.244  12.976
52654W        W21048   0.669  20.416   0.716
52655W        W21049  15.362   4.631   1.224
52656W        W21050   4.273  21.216   0.796
52657W        W21051  19.281   2.385  14.881
52658W        W21052   4.255  16.603   4.117
52659W        W21053  12.582  19.780   4.089
52660W        W21054  24.494   0.557  14.255
52661W        W21055  18.733  20.602   9.822
52662W        W21056  17.629  23.757  11.238
52663W        W21057   4.848   9.654  12.923
52664W        W21058   6.609  42.987   4.549
52665W        W21059  17.964   4.801  10.163
52666W        W21060  24.224  18.801  12.235
52667W        W21061  10.920  18.722   3.987
52668W        W21062  26.725  31.562  12.513
52669W        W21063   7.465  37.422   3.699
52670W        W21064  23.477  28.134  11.454
52671W        W21065  19.272  21.652  11.983
52672W        W21066  24.466  27.010   4.080
52673W        W21067  42.348  18.250   4.932
52674W        W21068  41.941   6.437  12.115
52675W        W21069  18.122  13.343  13.340
52676W        W21070   3.798  43.764  13.456
52677W        W21071   3.566  39.769  14.458
52678W        W21072  27.671  14.290   0.903
52679W        W21073   2.514  30.167   2.120
52680W        W21074  38.132  17.676  12.519
52681W        W21075  29.971  41.943   2.924
52682W        W21076  24.060  15.864   1.642
52683W        W21077  10.679  37.327   3.344
52684W        W21078  10.920  42.634  11.096
52685W        W21079   9.371  43.029  10.300
52686W        W21080  10.843  36.325  13.012
52687W        W21081   2.190  36.485  10.992
52688W        W21082   7.508   9.560   4.088
52689W        W21083  38.668  36.655   1.147
52690W        W21084  39.729  21.732   0.880
52691W        W21085  12.822  14.832   3.613
52692W        W21086  17.321   0.123   4.069
52693W        W21087  15.277  39.323  11.133
52694W        W21088  15.000  31.057  12.960
52695W        W21089  23.255  17.204  14.517
52696W        W21090  19.522  41.390  14.777
52697W        W21091  26.164   0.410  12.947
52698W        W21092  29.397  15.344  11.147
52699W        W21093   5.320  44.308   4.888
52700W        W21094  14.239   0.895  11.640
52701W        W21095  39.928   9.863  12.906
52702W        W21096  30.360   3.617  13.513
52703W        W21097   4.766  10.297  10.136
52704W        W21098  13.341  42.505   4.102
52705W        W21099  22.301  23.234   2.603
52706W        W21100  20.472  34.151  11.928
52707W        W21101  15.788  10.516  12.432
52708W        W21102  24.513   6.725   4.551
52709W        W21103  12.751   8.286  13.322
52710W        W21104  42.049  43.659   1.761
52711W        W21105  26.090  36.471  10.998
52712W        W21106   9.877   0.961   3.181
52713W        W21107  33.982   6.876  14.517
52714W        W21108  39.703   7.465  11.618
52715W        W21109  31.750  26.468   2.688
52716W        W21110  31.079  16.935  14.216
52717W        W21111  23.792   2.323   3.640
52718W        W21112  34.477  14.075  14.455
52719W        W21113  37.607  11.309  11.872
52720W        W21114  18.088  26.454  13.318
52721W        W21115  12.252  44.787  14.389
52722W        W21116   9.167   9.702   3.339
52723W        W21117  28.661   3.312  13.278
52724W        W21118  44.282  12.107  14.897
52725W        W21119  37.851   5.828  13.274
52726W        W21120  31.137  16.639   3.156
52727W        W21121  36.708  39.328  10.529
52728W        W21122  13.888  42.291   1.820
52729W        W21123  44.251  13.868  14.868
52730W        W21124   4.597  37.754  11.143
52731W        W21125  19.775  39.536   9.792
52732W        W21126  41.292  17.608  11.695
52733W        W21127   5.619   3.502   1.337
52734W        W21128  18.456  42.764   3.618
52735W        W21129  29.675  26.324  11.059
52736W        W21130  34.988  21.394  12.452
52737W        W21131  35.277  43.560   0.794
52738W        W21132   4.789  28.624  13.898
52739W        W21133  30.507  13.767  10.603
52740W        W21134  33.608  33.450  12.418
52741W        W21135  34.831  30.081   1.432
52742W        W21136  23.085   5.313   4.334
52743W        W21137  22.035  24.455  12.976
52744W        W21138  21.479  20.214   2.689
52745W        W21139   9.251  15.219  12.351
52746W        W21140  25.880  40.318  11.650
52747W        W21141  16.347  43.968   1.636
52748W        W21142   2.168  20.623  13.310
52749W        W21143  28.986  21.581   3.870
52750W        W21144  27.751  13.934   2.841
52751W        W21145  42.429  18.126  12.860
52752W        W21146  22.981  41.347   3.724
52753W        W21147  10.356  36.299   4.190
52754W        W21148  25.900  23.663  13.305
52755W        W21149  22.191  44.289   1.879
52756W        W21150  12.753   5.660   0.527
52757W        W21151  19.132   7.473   4.206
52758W        W21152  21.408   4.506   3.166
52759W        W21153  34.413  24.024  11.937
52760W        W21154  19.945  24.656  14.265
52761W        W21155   8.279  33.062  14.160
52762W        W21156  40.159  30.246   4.779
52763W        W21157  12.873  17.641  13.779
52764W        W21158  44.338   9.112  12.962
52765W        W21159  23.828  44.392   9.908
52766W        W21160  41.093  27.958  12.728
52767W        W21161  13.190   2.000   1.708
52768W        W21162  44.312  40.194   2.752
52769W        W21163  12.300   3.326   3.720
52770W        W21164  15.353   1.377  12.041
52771W        W21165  15.479  28.463  13.398
52772W        W21166   1.099  36.054   3.682
52773W        W21167  32.452  30.305  13.116
52774W        W21168  44.601  19.022   0.420
52775W        W21169  18.108  21.766  14.012
52776W        W21170  17.384  20.042   4.632
52777W        W21171  27.372  11.382  13.964
52778W        W21172   0.088  25.988   2.354
52779W        W21173  33.349  27.553  12.868
52780W        W21174  39.558  17.250  14.015
52781W        W21175   1.671  16.208  11.511
52782W        W21176  22.499  18.625  14.352
52783W        W21177  29.981  35.076  13.428
52784W        W21178   4.398  33.026   4.369
52785W        W21179  19.774  24.912  11.667
52786W        W21180  44.783  17.358   0.999
52787W        W21181  19.353  34.411  14.443
52788W        W21182   0.472  30.896  11.909
52789W        W21183  11.584  29.570  12.123
52790W        W21184   4.371  25.382  11.280
52791W        W21185  28.094   4.458   4.688
52792W        W21186   4.797  10.547   0.282
52793W        W21187  39.436  32.329  11.009
52794W        W21188  43.324  31.502   4.367
52795W        W21189  32.524  27.164  11.711
52796W        W21190   3.360   7.311   3.173
52797W        W21191   6.783   9.782   4.635
52798W        W21192  27.066  38.528  11.454
52799W        W21193  20.459  35.438  14.784
52800W        W21194   6.720   6.704  12.464
52801W        W21195  16.304  36.085   0.956
52802W        W21196  37.922  13.801  13.136
52803W        W21197   8.701  44.991   0.364
52804W        W21198  41.931  21.228   3.567
52805W        W21199  33.548   0.207   0.706
52806W        W21200  34.072   5.920  10.881
52807W        W21201  38.095  25.647   2.395
52808W        W21202  13.487  25.685  11.900
52809W        W21203  17.510  33.871  13.711
52810W        W21204  33.166  10.389  11.542
52811W        W21205  26.323  42.399  14.110
52812W        W21206   9.662   8.933   4.228
52813W        W21207  16.886  41.599  12.869
52814W        W21208   7.703  25.940  14.795
52815W        W21209  21.436  42.901   4.681
52816W        W21210   1.287  40.452   0.758
52817W        W21211  41.924   0.496  14.342
52818W        W21212  28.904  37.404  12.708
52819W        W21213  37.428  15.861   4.999
52820W        W21214   3.248  42.948  14.313
52821W        W21215   1.018  12.415  13.508
52822W        W21216  35.012  19.805   4.151
52823W        W21217  19.643  27.760  12.018
52824W        W21218  39.882  30.937   3.627
52825W        W21219  12.070   1.206   2.968
52826W        W21220  10.169  34.298  13.660
52827W        W21221  26.263  43.088   9.739
52828W        W21222  31.218  34.120  11.660
52829W        W21223   4.238   6.389   1.523
52830W        W21224  16.045  38.748  12.214
52831W        W21225   1.261  27.980  13.546
52832W        W21226  10.648  35.920  14.881
52833W        W21227  35.703  13.149   3.329
52834W        W21228   0.660  17.149   0.863
52835W        W21229   6.711  24.035  13.583
52836W        W21230  42.382  29.950  12.138
52837W        W21231  22.656   0.331   1.786
52838W        W21232  27.837   6.776  11.535
52839W        W21233  15.878  21.615  11.975
52840W        W21234  30.088  18.063  14.580
52841W        W21235  26.591   5.380   2.704
52842W        W21236   6.476  17.829   4.365
52843W        W21237  41.602   6.681   2.950
52844W        W21238   5.404  37.111  10.755
52845W        W21239  14.232   5.748   0.415
52846W        W21240   7.068  16.006  14.008
52847W        W21241  28.128  10.958   4.867
52848W        W21242  11.027  30.887   0.371
52849W        W21243  27.513   2.290  14.879
52850W        W21244  31.711  17.559  11.096
52851W        W21245  35.608  12.287   1.432
52852W        W21246  33.370   5.406  14.425
52853W        W21247  14.261  34.116  14.857
52854W        W21248  29.054  19.891   4.889
52855W        W21249   7.610  15.376   1.496
52856W        W21250  27.397  19.992   4.669
52857W        W21251  23.153  16.471  11.879
52858W        W21252  13.772   8.255   4.192
52859W        W21253   8.944  31.139   2.658
52860W        W21254  25.915   6.674   4.633
52861W        W21255  29.571  12.801  13.898
52862W        W21256  43.982  26.442   2.913
52863W        W21257  40.282  21.517  14.365
52864W        W21258  41.387  29.434  13.430
52865W        W21259  23.541  38.631  12.033
52866W        W21260  27.364  10.103   1.334
52867W        W21261   0.031  25.468  13.323
52868W        W21262  34.530  28.570   3.141
52869W        W21263  19.314   4.739   0.462
52870W        W21264  12.811   4.789  12.083
52871W        W21265  33.842  41.499   3.716
52872W        W21266  23.760   5.673   2.845
52873W        W21267  10.591  27.028  13.456
52874W        W21268  23.331  16.395   0.334
52875W        W21269  13.652  15.783  10.402
52876W        W21270  11.661   5.701   2.304
52877W        W21271  16.912   9.455   5.080
52878W        W21272  17.993   4.374  14.366
52879W        W21273  18.555   9.568   4.367
52880W        W21274  13.352  13.349  11.102
52881W        W21275  17.340  29.996  13.854
52882W        W21276  11.041  35.064  14.847
52883W        W21277  10.876   5.393   1.852
52884W        W21278  13.568   7.175   2.822
52885W        W21279  12.462  34.145  11.502
52886W        W21280  43.929  44.745   4.776
52887W        W21281  32.658  31.123   0.340
52888W        W21282   8.863  43.711  14.074
52889W        W21283  25.737  18.103  10.727
52890W        W21284  21.826   7.903   1.317
52891W        W21285  21.820  15.590  13.457
52892W        W21286  27.026   7.062  13.110
52893W        W21287  16.247  32.153  14.365
52894W        W21288  31.334  42.928  12.150
52895W        W21289  41.321  34.104   0.202
52896W        W21290   6.315  29.884  13.815
52897W        W21291  25.927  22.576   3.285
52898W        W21292  20.721  31.608   3.701
52899W        W21293  20.762  36.788   3.891
52900W        W21294  31.166  18.243  11.950
52901W        W21295  23.088  17.045   3.225
52902W        W21296  11.776  23.764  10.811
52903W        W21297  38.974  29.211   9.881
52904W        W21298  18.742  21.672   0.887
52905W        W21299  18.390  16.363   3.237
52906W        W21300  16.166  30.933   5.027
52907W        W21301  32.981  23.897   1.173
52908W        W21302  13.163   8.367   1.401
52909W        W21303  21.891  39.457  12.849
52910W        W21304   4.856   4.231   3.598
52911W        W21305   0.494  18.246   4.694
52912W        W21306  40.547  23.216   0.476
52913W        W21307   3.980   2.037  12.740
52914W        W21308   6.381  16.114   3.990
52915W        W21309   2.252  34.494   2.274
52916W        W21310  38.131  34.691   0.899
52917W        W21311  28.402  23.783   0.183
52918W        W21312  10.111  42.232   1.343
52919W        W21313  35.472  22.430  10.755
52920W        W21314  21.106  12.188   2.872
52921W        W21315  24.503  37.458  13.562
52922W        W21316  38.072   5.726  10.377
52923W        W21317  11.829  40.073   4.090
52924W        W21318  37.535  15.804   4.030
52925W        W21319  39.060   7.336   2.379
52926W        W21320  40.734   8.801   2.766
52927W        W21321   9.352  35.255   4.613
52928W        W21322  34.583   3.425  11.989
52929W        W21323   1.270  11.138   4.017
52930W        W21324  27.993  23.931   3.712
52931W        W21325  34.039  38.757   4.172
52932W        W21326   0.311  28.077   3.530
52933W        W21327   8.432  16.914   0.999
52934W        W21328  31.732  21.255  14.347
52935W        W21329  41.771  17.117  14.534
52936W        W21330   2.502  27.624   4.690
52937W        W21331  28.151  17.588  12.096
52938W        W21332  19.897  39.999   4.708
52939W        W21333   3.464  17.112  11.988
52940W        W21334  23.660  40.028   0.491
52941W        W21335  16.835   6.985  11.213
52942W        W21336  32.992  40.530  13.008
52943W        W21337  37.008  33.302   2.390
52944W        W21338  23.161  40.564  12.505
52945W        W21339  18.133  23.592  14.853
52946W        W21340   4.472   8.859   2.606
52947W        W21341   3.857   2.535   4.360
52948W        W21342  35.354   8.436   3.142
52949W        W21343  18.152  22.490   0.508
52950W        W21344  43.533  39.843   4.140
52951W        W21345  29.794  15.260  14.696
52952W        W21346  38.319  32.986   2.965
52953W        W21347   3.784  43.212  11.057
52954W        W21348   8.228  11.320   3.930
52955W        W21349   1.561  26.860  13.930
52956W        W21350   0.699  39.717  14.056
52957W        W21351  22.804  41.857  10.484
52958W        W21352  11.009  35.099   4.022
52959W        W21353  26.205  37.995   1.880
52960W        W21354  39.515  26.654   0.482
52961W        W21355   6.258  23.007  14.939
52962W        W21356   4.256  10.277  11.885
52963W        W21357   2.883   2.682   2.774
52964W        W21358  28.418  26.677   1.831
52965W        W21359  26.444  40.523  13.006
52966W        W21360  10.373  14.576  14.375
52967W        W21361  18.204  21.909  10.961
52968W        W21362  31.123  31.368  14.528
52969W        W21363  32.005  43.913  14.900
52970W        W21364  39.029  28.660  14.542
52971W        W21365  20.675  42.814   0.844
52972W        W21366  17.664  29.176  14.787
52973W        W21367  15.787   1.138  13.315
52974W        W21368  42.055   0.686   2.332
52975W        W21369  20.343   8.480  12.060
52976W        W21370  15.681  13.410  12.119
52977W        W21371  14.244  31.565   4.061
52978W        W21372  10.173  37.856   1.179
52979W        W21373   5.668   1.734  11.110
52980W        W21374  21.417  11.166   4.204
52981W        W21375  11.885  27.431   0.975
52982W        W21376  38.797   9.250   3.532
52983W        W21377  25.650  32.942   3.537
52984W        W21378  30.321  40.409   1.205
52985W        W21379   8.699  19.676   2.407
52986W        W21380  31.204  28.619   3.407
52987W        W21381  40.000  40.537  14.879
52988W        W21382  11.567  35.905   4.106
52989W        W21383  16.686  13.678  12.526
52990W        W21384  18.801   8.088   1.867
52991W        W21385  36.860  32.100   3.251
52992W        W21386  38.769  12.344   3.517
52993W        W21387  30.837  37.214   3.809
52994W        W21388  21.217  33.835  12.878
52995W        W21389   0.965  41.467  12.828
52996W        W21390  13.017  22.033  12.986
52997W        W21391   7.201  10.389   1.562
52998W        W21392   8.430   5.870  10.680
52999W        W21393  16.393  16.792   1.338
53000W        W21394   0.378   4.816  10.526
53001W        W21395  27.142  20.518  12.916
53002W        W21396  11.168  34.769   2.307
53003W        W21397  14.532   7.432   0.632
53004W        W21398  26.713   3.372  14.477
53005W        W21399  26.433  13.541   3.193
53006W        W21400  21.624   6.673   0.744
53007W        W21401  34.658   9.761   3.153
53008W        W21402  22.065  42.802  14.355
53009W        W21403  36.170   7.380   3.322
53010W        W21404  17.758   6.847  12.648
53011W        W21405  43.367  15.266  10.723
53012W        W21406  35.129  16.630   2.826
53013W        W21407  32.669  30.131   3.242
53014W        W21408  29.178   0.255   2.320
53015W        W21409   8.235  42.374   3.452
53016W        W21410   1.301  43.355  12.733
53017W        W21411   6.990   6.227   2.226
53018W        W21412  44.584  24.330  11.079
53019W        W21413  35.564  31.736  11.930
53020W        W21414  34.344   6.330  11.483
53021W        W21415  32.991   5.170   0.348
53022W        W21416  28.675   7.207   3.089
53023W        W21417  13.139  13.853  14.997
53024W        W21418  25.621  18.558   0.967
53025W        W21419  22.031  33.891   3.779
53026W        W21420  24.939  35.493   3.686
53027W        W21421  17.791  41.505  14.385
53028W        W21422   6.349  31.494   2.507
53029W        W21423   9.258   5.198   1.295
53030W        W21424  24.761  22.185   1.310
53031W        W21425  25.192  33.785   2.341
53032W        W21426   8.606  34.006   1.364
53033W        W21427  10.941  32.572   1.665
53034W        W21428  40.501  37.152  12.031
53035W        W21429  33.805  12.439   2.514
53036W        W21430  27.512  27.450   2.351
53037W        W21431  31.896  17.318  11.502
53038W        W21432  37.108  30.988   2.703
53039W        W21433  42.248  30.093   2.294
53040W        W21434  15.814  37.367  13.954
53041W        W21435   0.442  34.010  11.691
53042W        W21436  27.403  37.432  12.969
53043W        W21437  40.474   4.446  11.922
53044W        W21438  36.993  25.844   4.453
53045W        W21439   2.719  30.849  11.621
53046W        W21440   1.885  28.669  12.876
53047W        W21441  25.305   9.388  13.392
53048W        W21442  41.239   6.348  12.538
53049W        W21443   8.070   4.274   3.236
53050W        W21444  40.316  19.782  13.924
53051W        W21445  13.122  32.193  11.660
53052W        W21446  11.316  37.424   1.879
53053W        W21447  33.884  27.073   0.302
53054W        W21448  43.330  17.245  13.303
53055W        W21449  16.010  23.470  12.985
53056W        W21450  15.771  30.089  12.330
53057W        W21451  21.355  25.408  14.525
53058W        W21452  24.462  26.568  11.194
53059W        W21453   3.970  26.418  13.860
53060W        W21454  40.600   2.117  13.934
53061W        W21455  12.764  13.746  11.666
53062W        W21456   2.931  37.336  14.840
53063W        W21457  19.175  25.917  14.221
53064W        W21458  17.675   9.884  11.326
53065W        W21459  24.964   8.651  10.120
53066W        W21460  18.238   8.764  12.528
53067W        W21461  18.017  10.305  11.420
53068W        W21462  38.101  22.119  12.162
53069W        W21463  23.506  22.583  14.022
53070W        W21464  25.744  36.976  13.544
53071W        W21465   0.055  14.318  13.240
53072W        W21466  39.342   2.931   0.660
53073W        W21467  23.143  23.775   0.481
53074W        W21468  26.672  20.363  12.164
53075W        W21469  39.376   1.872   1.248
53076W        W21470  31.612  42.012  12.230
53077W        W21471  28.181  21.875  12.586
53078W        W21472  15.235  36.948   2.754
53079W        W21473  28.738   2.563   1.786
53080W        W21474  10.246  22.717  13.158
53081W        W21475  39.135   6.827   4.100
53082W        W21476  15.116  39.295  14.309
53083W        W21477  20.541  19.571   3.702
53084W        W21478   8.154   0.969   2.740
53085W        W21479   2.337  13.060   1.664
53086W        W21480  13.859   0.934   1.208
53087W        W21481  22.523  10.907  13.516
53088W        W21482   7.820   4.556   3.630
53089W        W21483  43.892   3.894   0.019
53090W        W21484  21.904  20.490   0.552
53091W        W21485  14.180  22.722   0.723
53092W        W21486  11.145   2.248   3.371
53093W        W21487  19.294  21.311  14.909
53094W        W21488  22.683  14.311  14.105
53095W        W21489   1.552  27.965  12.532
53096W        W21490  39.462  34.939   0.283
53097W        W21491  11.362   5.948  11.836
53098W        W21492  44.353   4.761  13.066
53099W        W21493  35.384  34.986  11.421
53100W        W21494  30.265  41.835   0.334
53101W        W21495  15.832  29.364  11.941
53102W        W21496   7.403  44.994  11.575
53103W        W21497  30.388   3.353  14.716
53104W        W21498  16.308   6.025  11.481
53105W        W21499   7.604   0.759  14.230
53106W        W21500  42.318   1.275   0.514
53107W        W21501  38.387   3.981   4.230
53108W        W21502  29.094  42.261  13.617
53109W        W21503   3.143  39.657  13.630
53110W        W21504   7.985  32.151  11.101
53111W        W21505  12.330  44.994   2.417
53112W        W21506   6.862  18.927   1.935
53113W        W21507  28.453  31.313   3.800
53114W        W21508  44.567  35.293  14.749
53115W        W21509   9.692   8.688   3.003
53116W        W21510   9.630  21.739  13.446
53117W        W21511  41.879  12.386  12.440
53118W        W21512  19.444  10.278   3.396
53119W        W21513  27.951  39.387   1.895
53120W        W21514  10.150  44.044  12.084
53121W        W21515  16.527  24.568  14.909
53122W        W21516  43.054  37.385  11.691
53123W        W21517   8.243  38.098   2.676
53124W        W21518  25.117  15.563   1.753
53125W        W21519  18.591   0.852  13.178
53126W        W21520  10.096  43.695  11.699
53127W        W21521  32.188   0.892   0.348
53128W        W21522  14.012   3.640   3.401
53129W        W21523  22.738  19.418  10.284
53130W        W21524  14.296   2.806   3.179
53131W        W21525  12.868  23.893  14.400
53132W        W21526   4.927  31.941  11.304
53133W        W21527  25.667  44.794  11.145
53134W        W21528  11.937   1.667  10.131
53135W        W21529  33.534  37.024   0.278
53136W        W21530  43.020  35.981  13.948
53137W        W21531  29.486  15.695   1.658
53138W        W21532  29.030  29.683  14.897
53139W        W21533  13.196   8.685  10.752
53140W        W21534  20.124  35.837  14.017
53141W        W21535  42.409  13.722  12.517
53142W        W21536  26.500  33.187  14.097
53143W        W21537   1.308  33.367  12.098
53144W        W21538  27.085   9.177   4.074
53145W        W21539   7.790  25.658  14.370
53146W        W21540   1.909  36.249   3.921
53147W        W21541  15.739  30.916  14.300
53148W        W21542  21.519   8.173  14.577
53149W        W21543  15.720  37.463  14.968
53150W        W21544  31.856  28.391   2.923
53151W        W21545   6.335  26.252   3.611
53152W        W21546  40.235  25.298  10.762
53153W        W21547   1.897  44.179   2.278
53154W        W21548  19.219  40.937  14.833
53155W        W21549  22.841  40.798   0.947
53156W        W21550   1.204  35.088  14.958
53157W        W21551  38.048  16.769   3.154
53158W        W21552  23.539  44.765   0.880
53159W        W21553   8.139  40.494   0.878
53160W        W21554  25.934  36.408   4.148
53161W        W21555  42.371  20.752   3.109
53162W        W21556  14.417  24.091   4.646
53163W        W21557  30.654  16.970   0.855
53164W        W21558  23.712  40.835  14.999
53165W        W21559  33.688  16.378   0.499
53166W        W21560  40.232  18.333   2.321
53167W        W21561  19.616  26.878  10.742
53168W        W21562   8.473  34.537   1.761
53169W        W21563   6.534   4.455   1.491
53170W        W21564  36.031  41.069  14.791
53171W        W21565   1.815  38.946   2.780
53172W        W21566  18.867   8.733   3.950
53173W        W21567  40.223  34.661   4.544
53174W        W21568  20.586  39.606  12.929
53175W        W21569   6.326  23.767  12.194
53176W        W21570  15.549  34.969   4.915
53177W        W21571  40.342  33.465  13.537
53178W        W21572  22.109  44.419  10.320
53179W        W21573   7.679  20.342   2.265
53180W        W21574   6.178  16.657   2.636
53181W        W21575  11.744   6.452   2.762
53182W        W21576  39.979  27.598  10.563
53183W        W21577  14.643  30.157   4.595
53184W        W21578  24.134   7.967  11.155
53185W        W21579  31.438  19.662   4.595
53186W        W21580  28.060  18.749   2.853
53187W        W21581  19.690  30.720  11.970
53188W        W21582  32.201  19.133  11.249
53189W        W21583  29.870  44.163   1.231
53190W        W21584  34.441   5.864   0.275
53191W        W21585  29.381  41.606   0.448
53192W        W21586   4.714   8.462  11.568
53193W        W21587  30.926  11.224   1.774
53194W        W21588  32.243  14.738   1.747
53195W        W21589  29.604  35.434  13.612
53196W        W21590  25.476  26.545  14.979
53197W        W21591  18.191  18.135  11.538
53198W        W21592  18.641  13.251   4.198
53199W        W21593   4.461  43.311  13.823
53200W        W21594  37.960  21.445   1.839
53201W        W21595  40.315  10.856  11.242
53202W        W21596  22.426   1.443  11.496
53203W        W21597  11.965  28.022  13.476
53204W        W21598  43.239  19.809   2.828
53205W        W21599  25.735  10.581  14.585
53206W        W21600  35.624   6.818  13.386
53207W        W21601  19.197  22.981   0.313
53208W        W21602  42.084  12.329   1.845
53209W        W21603  25.734  11.778  12.443
53210W        W21604  21.343  29.296   2.616
53211W        W21605  44.695  36.623  14.439
53212W        W21606   5.656  42.043   0.443
53213W        W21607  44.293   5.408   1.713
53214W        W21608  43.393  11.857  12.175
53215W        W21609  43.858  33.024  13.250
53216W        W21610   9.653  17.385  14.425
53217W        W21611  17.658  23.238  11.157
53218W        W21612  24.708  10.581  14.770
53219W        W21613  28.411  19.240  14.727
53220W        W21614  38.436  42.302  11.565
53221W        W21615  32.604  11.792  12.015
53222W        W21616   3.958  29.113  12.122
53223W        W21617  31.585   0.372   2.800
53224W        W21618  17.628  20.172   5.439
53225W        W21619  17.077  36.673   2.108
53226W        W21620  14.690  36.102  12.533
53227W        W21621  17.999  43.844   0.392
53228W        W21622  15.182  13.254  12.008
53229W        W21623  37.728   5.452   4.103
53230W        W21624  18.134  25.175  12.502
53231W        W21625  31.423   2.946   1.963
53232W        W21626  21.454  20.166   1.710
53233W        W21627  35.728  20.703   2.194
53234W        W21628  14.582   1.298  12.454
53235W        W21629  15.222   6.420  14.788
53236W        W21630  10.282   5.637   3.698
53237W        W21631   4.324  16.157  10.514
53238W        W21632  11.398  28.096  11.482
53239W        W21633  35.921  19.174  13.069
53240W        W21634  20.664  10.394  11.769
53241W        W21635   6.773  21.569  11.604
53242W        W21636  27.647  27.539  10.349
53243W        W21637  41.554   6.876   3.853
53244W        W21638  16.658  14.722  13.293
53245W        W21639  34.089  11.521   3.392
53246W        W21640   3.620  42.583  14.336
53247W        W21641  29.633  21.190   0.400
53248W        W21642  15.996  36.404   3.166
53249W        W21643  36.433   9.386  14.439
53250W        W21644  17.168  22.152  14.516
53251W        W21645   2.523  33.665  12.907
53252W        W21646  37.259  44.057   0.775
53253W        W21647  37.532  42.325   2.305
53254W        W21648  41.949  12.359  14.724
53255W        W21649   9.782   5.934   1.331
53256W        W21650  15.640  21.999   3.214
53257W        W21651   5.623  37.547  12.763
53258W        W21652  43.610   4.053  11.855
53259W        W21653   3.178  37.605   3.680
53260W        W21654  27.304  15.742  12.824
53261W        W21655  26.324  11.880   3.156
53262W        W21656   2.716   4.702  13.278
53263W        W21657  44.082  11.326   1.666
53264W        W21658  12.261  31.370   2.866
53265W        W21659  10.349  21.402  11.499
53266W        W21660   7.473  37.277   1.208
53267W        W21661  10.645   4.310   2.752
53268W        W21662  37.332  34.071   1.384
53269W        W21663  11.878   9.823  12.948
53270W        W21664  32.058   1.788  11.681
53271W        W21665   1.760   7.605   1.926
53272W        W21666   3.175  28.570  14.983
53273W        W21667  13.640   5.676  10.309
53274W        W21668   8.380  21.515  12.480
53275W        W21669  33.082  21.195  14.991
53276W        W21670  41.342   4.862  13.751
53277W        W21671  30.725  43.979  13.169
53278W        W21672   3.732  43.427   3.797
53279W        W21673  35.987  31.682  13.356
53280W        W21674  25.041  39.491  11.857
53281W        W21675  38.181  37.481  13.324
53282W        W21676  22.172   2.443   0.743
53283W        W21677  11.913  19.251   2.239
53284W        W21678   4.150   6.437   3.287
53285W        W21679   1.553  40.395  13.782
53286W        W21680  29.357  20.752  12.252
53287W        W21681  20.190  38.531   5.003
53288W        W21682  14.615  30.945   3.766
53289W        W21683  21.847  21.262  14.964
53290W        W21684  12.395  31.937  14.801
53291W        W21685  38.765  17.112  14.496
53292W        W21686   4.427  42.591  11.231
53293W        W21687  17.076  23.717  13.785
53294W        W21688  15.844  15.884  11.915
53295W        W21689   3.275  10.977   3.888
53296W        W21690   8.132   8.687  11.629
53297W        W21691  29.640  13.649   0.320
53298W        W21692  38.283   8.313   4.556
53299W        W21693  26.852  35.292  12.975
53300W        W21694   2.096   3.617  12.371
53301W        W21695   1.802  29.643   1.728
53302W        W21696  30.991  17.600   3.645
53303W        W21697  18.396  11.845   5.344
53304W        W21698  41.062  24.011  12.140
53305W        W21699   8.219  17.017  13.290
53306W        W21700  20.260  28.203  12.367
53307W        W21701  36.403  24.332   2.424
53308W        W21702  11.578  35.392   0.359
53309W        W21703  29.111  36.713   1.717
53310W        W21704  32.692  15.144  11.118
53311W        W21705  21.235   8.177  13.907
53312W        W21706  39.985  41.424   2.396
53313W        W21707  22.802  25.322  11.187
53314W        W21708  14.063   4.889   0.054
53315W        W21709  21.015  30.625  13.896
53316W        W21710  39.360  32.068  10.161
53317W        W21711   1.208  31.603   4.687
53318W        W21712  28.513  44.802  13.001
53319W        W21713   4.195  16.803  11.449
53320W        W21714  28.716  40.666  11.611
53321W        W21715  14.365  34.888  14.486
53322W        W21716  12.674   8.816  10.718
53323W        W21717  32.590  30.653  14.324
53324W        W21718  14.345  19.305   4.529
53325W        W21719  38.986  20.666   3.232
53326W        W21720   0.530  12.292   3.100
53327W        W21721  40.045  24.674   3.326
53328W        W21722   1.285  30.004   4.655
53329W        W21723  26.614   1.457   5.216
53330W        W21724  32.650   4.148   2.660
53331W        W21725  33.170  27.742   4.191
53332W        W21726  11.473  32.997   2.468
53333W        W21727  42.725  27.462   2.542
53334W        W21728  27.906  26.021  14.162
53335W        W21729  36.508   7.717   3.608
53336W        W21730   8.949  33.438  13.534
53337W        W21731  16.211   0.863   4.748
53338W        W21732  41.342  28.659  14.372
53339W        W21733  33.907  22.571   4.603
53340W        W21734  14.809  27.463   1.599
53341W        W21735   1.420  24.795   5.063
53342W        W21736  31.385  26.452   0.906
53343W        W21737  11.870  12.586   0.307
53344W        W21738   9.221   2.301  11.908
53345W        W21739  14.514  30.648  12.154
53346W        W21740  22.173  44.166  14.495
53347W        W21741  40.297  21.086   1.903
53348W        W21742  27.183  20.262   1.830
53349W        W21743  29.991  43.862  14.386
53350W        W21744  21.627   3.451  12.445
53351W        W21745   3.430  11.104  11.617
53352W        W21746  33.030  27.605  10.671
53353W        W21747  16.843  40.461   4.134
53354W        W21748  17.545  34.326  12.477
53355W        W21749   9.304  40.900  12.602
53356W        W21750  40.271  35.004  10.140
53357W        W21751  11.184  39.896   3.099
53358W        W21752  37.526  43.509  10.606
53359W        W21753  17.113  32.668   0.184
53360W        W21754  42.267  22.025  13.519
53361W        W21755  39.080  22.510  14.457
53362W        W21756   4.439  22.109  11.023
53363W        W21757  22.501  27.031   1.685
53364W        W21758  14.847  27.437   2.958
53365W        W21759  16.864  30.001   2.673
53366W        W21760  10.253  36.823  13.416
53367W        W21761  22.491  22.408   3.771
53368W        W21762  12.661  33.534  13.333
53369W        W21763  15.754   3.655  13.004
53370W        W21764  36.399   9.322   2.219
53371W        W21765   2.040  30.226   4.358
53372W        W21766   9.135   1.391   2.363
53373W        W21767  33.893  19.810   3.236
53374W        W21768   1.414  13.647   9.834
53375W        W21769  15.124   4.311   3.161
53376W        W21770   0.362  31.122   1.310
53377W        W21771  43.280  33.310   3.460
53378W        W21772   2.005  25.350   4.485
53379W        W21773  38.240  22.044  13.384
53380W        W21774   4.689  43.284  12.369
53381W        W21775  12.063  25.880  11.122
53382W        W21776  31.641  44.568  11.574
53383W        W21777  39.495  30.402  10.694
53384W        W21778  24.682  20.028   3.693
53385W        W21779  27.483  24.706   3.305
53386W        W21780  30.752  27.038   3.281
53387W        W21781  39.944  31.949  14.253
53388W        W21782  10.522  28.729   1.157
53389W        W21783  26.607   6.426  14.372
53390W        W21784  33.106   4.317   3.664
53391W        W21785   5.699  14.366   3.798
53392W        W21786   8.966  36.591  12.472
53393W        W21787  38.970  18.117  13.548
53394W        W21788  44.117  12.177   3.143
53395W        W21789   8.021  15.403   1.160
53396W        W21790  44.968  44.957  14.644
53397W        W21791  31.100  35.343  12.089
53398W        W21792  26.445  44.380  12.205
53399W        W21793   2.484   1.185  10.742
53400W        W21794  13.190  25.410  12.239
53401W        W21795   5.013  31.235   1.361
53402W        W21796  30.111  13.789  11.630
53403W        W21797  17.802  25.584  14.514
53404W        W21798  13.927   9.335  11.118
53405W        W21799   2.418  23.111   4.552
53406W        W21800  11.138  35.126  13.570
53407W        W21801  36.933  41.106   4.794
53408W        W21802  37.816  22.340  14.953
53409W        W21803  16.825  36.131  10.046
53410W        W21804  25.167  26.655  14.528
53411W        W21805   9.076  44.184   4.165
53412W        W21806   9.266  17.099   3.149
53413W        W21807  15.619  20.453   4.108
53414W        W21808   2.832   4.771   4.224
53415W        W21809   6.834  14.382  13.536
53416W        W21810   9.862   9.297   2.266
53417W        W21811   0.754   1.938   3.262
53418W        W21812  24.146  33.459   0.333
53419W        W21813  10.259  38.602  10.924
53420W        W21814  32.870  26.148   3.342
53421W        W21815   9.751  17.071  11.061
53422W        W21816  18.779   1.409   2.208
53423W        W21817  36.638  21.577  11.965
53424W        W21818  20.653  24.466  11.358
53425W        W21819  28.393  39.911   3.871
53426W        W21820  32.646   7.177  14.244
53427W        W21821  19.027  34.522   4.641
53428W        W21822  21.238  43.605  13.875
53429W        W21823   5.708  30.439  14.718
53430W        W21824  38.748  44.142   2.575
53431W        W21825  31.832  18.573  13.052
53432W        W21826  25.045   8.726  14.907
53433W        W21827  23.458  13.768  11.645
53434W        W21828  15.628   1.232   1.430
53435W        W21829  10.052  19.089   2.150
53436W        W21830  26.492  29.601  12.561
53437W        W21831   3.014  36.671  13.059
53438W        W21832  20.801   3.656  12.951
53439W        W21833  37.926  12.912  10.462
53440W        W21834  28.054  42.480   0.731
53441W        W21835  25.132  20.047   2.264
53442W        W21836   9.686  14.244   4.761
53443W        W21837  10.396  27.526   4.183
53444W        W21838  17.191   8.643   0.776
53445W        W21839  17.257  33.715  13.283
53446W        W21840  14.240  33.391  11.197
53447W        W21841  23.109  23.968   0.001
53448W        W21842  32.880   1.049  10.439
53449W        W21843  39.984  19.745   2.389
53450W        W21844  25.945  32.826  12.695
53451W        W21845   1.789   1.169  14.602
53452W        W21846  13.320  12.146   0.241
53453W        W21847  21.529  39.962  14.224
53454W        W21848  28.552   5.672   3.114
53455W        W21849  26.624   6.355   4.608
53456W        W21850  38.053  21.628   2.331
53457W        W21851  10.798  40.359   0.743
53458W        W21852   5.377   8.754  12.739
53459W        W21853  41.918   4.386   4.582
53460W        W21854  15.160   3.520  14.356
53461W        W21855   1.783  11.624  12.869
53462W        W21856   4.061  16.889   1.835
53463W        W21857  13.765  28.869   1.922
53464W        W21858  34.560  36.372  14.385
53465W        W21859  21.401  43.655   5.111
53466W        W21860  36.948  32.223   1.299
53467W        W21861   5.231  26.303   3.666
53468W        W21862  21.695   6.725   2.847
53469W        W21863  27.621  12.224   4.676
53470W        W21864  36.410   1.551  12.897
53471W        W21865  12.770  40.278  14.637
53472W        W21866   7.969   8.230  11.064
53473W        W21867   8.314  20.780   2.724
53474W        W21868  20.254  37.907   3.703
53475W        W21869  37.300  18.582   2.186
53476W        W21870  13.238  41.940   2.312
53477W        W21871  24.416  28.317   2.874
53478W        W21872  27.015  44.262   0.766
53479W        W21873  39.746  41.443   4.388
53480W        W21874  15.913  37.499   4.605
53481W        W21875  24.981  15.350  13.840
53482W        W21876  18.803  10.055  11.631
53483W        W21877  12.763   6.223  13.996
53484W        W21878  17.730  19.534   3.682
53485W        W21879  36.328  42.510  14.967
53486W        W21880  17.227  40.630   2.804
53487W        W21881  13.221  27.262  11.071
53488W        W21882  36.416  33.925  14.280
53489W        W21883  14.537  20.128  14.397
53490W        W21884  32.049  44.851  11.362
53491W        W21885  41.812  25.939   0.945
53492W        W21886  42.016  28.098  10.676
53493W        W21887   8.130  34.309  12.473
53494W        W21888  27.427  26.717  14.476
53495W        W21889  28.742  31.442  12.410
53496W        W21890  33.354  16.251   0.933
53497W        W21891   8.396  26.179  12.119
53498W        W21892   6.319  27.254   3.677
53499W        W21893  23.718   2.402   0.780
53500W        W21894  18.604  14.737   3.682
53501W        W21895  27.898  12.276  12.595
53502W        W21896  41.391  26.064   0.308
53503W        W21897  42.718  19.832   2.600
53504W        W21898  39.924  16.541   4.172
53505W        W21899  36.161  15.111  11.792
53506W        W21900  24.337  28.766  12.942
53507W        W21901  21.229  32.592  13.803
53508W        W21902  35.999  10.274   9.653
53509W        W21903  13.402   5.887   1.030
53510W        W21904  34.748  12.657   1.359
53511W        W21905  20.142   7.905   3.793
53512W        W21906  44.515  30.717   4.580
53513W        W21907   2.801   1.237   3.423
53514W        W21908  14.391  12.172   4.283
53515W        W21909  26.950  30.731   4.887
53516W        W21910   8.880   1.964   9.827
53517W        W21911  25.744   9.044   0.642
53518W        W21912  44.968  10.269  13.349
53519W        W21913  33.462  26.622   3.125
53520W        W21914  26.317   9.105  11.621
53521W        W21915  37.832  43.004   1.394
53522W        W21916  14.565  22.499  12.863
53523W        W21917  22.040   8.833   4.296
53524W        W21918  14.873  27.620   0.700
53525W        W21919  29.779  23.049   3.304
53526W        W21920   7.231  27.116   9.817
53527W        W21921  32.496  42.504  10.577
53528W        W21922  36.189  10.469  12.073
53529W        W21923  10.038  10.657   4.255
53530W        W21924   6.802  28.254  14.777
53531W        W21925  41.708  31.785   3.367
53532W        W21926  30.484  18.275   3.772
53533W        W21927   2.883  27.172   3.695
53534W        W21928  41.863  43.066  12.461
53535W        W21929   3.496   2.897   0.778
53536W        W21930  11.471  40.868   3.405
53537W        W21931  28.206  34.315  10.369
53538W        W21932  18.737  31.138  12.124
53539W        W21933  15.751  13.375   4.069
53540W        W21934  26.093  35.190  13.316
53541W        W21935  42.765  29.550   0.167
53542W        W21936  20.084   3.608  14.853
53543W        W21937  40.220   1.788   1.800
53544W        W21938  43.318  44.399   0.833
53545W        W21939  16.799  10.625   1.701
53546W        W21940   2.634  35.496   1.798
53547W        W21941   4.904  31.282  14.402
53548W        W21942  25.668  26.366   4.256
53549W        W21943  27.551  27.589  13.940
53550W        W21944  37.403  32.446   1.481
53551W        W21945  38.582  23.725   0.407
53552W        W21946  17.917  22.708  14.429
53553W        W21947   5.409  27.536   0.529
53554W        W21948   4.813  31.387   3.249
53555W        W21949  22.127   7.335   3.703
53556W        W21950  14.055  18.857  13.067
53557W        W21951   6.838  37.532   4.448
53558W        W21952  30.548  19.154   4.705
53559W        W21953  16.239  36.459  11.275
53560W        W21954  30.624  25.539   1.747
53561W        W21955  16.264   5.338  13.744
53562W        W21956  14.252   8.159   1.977
53563W        W21957  15.655  19.367  11.130
53564W        W21958  25.494  44.454   3.881
53565W        W21959  37.341  44.151  12.638
53566W        W21960   7.095  30.214   4.923
53567W        W21961  13.745  22.703  13.951
53568W        W21962  20.682  13.718  13.289
53569W        W21963  16.098  39.376  14.401
53570W        W21964  41.620  33.638   1.890
53571W        W21965  36.058   3.773   0.480
53572W        W21966  44.716  11.087  11.618
53573W        W21967  41.276  40.455   1.342
53574W        W21968  24.548  14.882  13.342
53575W        W21969  17.776  10.694  14.486
53576W        W21970  42.500   7.183  10.708
53577W        W21971  25.420  15.291   2.455
53578W        W21972   8.462  28.324   2.077
53579W        W21973  29.951  30.528   3.548
53580W        W21974   8.336  31.621  13.861
53581W        W21975  41.949  16.850  13.047
53582W        W21976  35.041  24.698  13.042
53583W        W21977   6.840  39.411   2.184
53584W        W21978  21.620   8.453  14.149
53585W        W21979   6.308   2.465  13.013
53586W        W21980  21.429  39.573  13.002
53587W        W21981  26.724  37.246   0.069
53588W        W21982  38.390   0.870  13.185
53589W        W21983  20.837  20.582   1.293
53590W        W21984   2.103  27.033  14.820
53591W        W21985  15.611   0.919  11.952
53592W        W21986  10.705  34.968  13.332
53593W        W21987   2.110  13.173   0.424
53594W        W21988   0.414  20.737  13.082
53595W        W21989   5.033  35.159   2.788
53596W        W21990  14.166  15.739   3.616
53597W        W21991  29.944  35.991   3.338
53598W        W21992  36.156  24.552   3.722
53599W        W21993   0.253  25.925  13.448
53600W        W21994  29.408  26.115   2.877
53601W        W21995  26.521  37.366   2.661
53602W        W21996  17.683   1.913   4.351
53603W        W21997  23.324  21.659   4.433
53604W        W21998  20.464  14.610   3.068
53605W        W21999  21.308  23.214  12.181
53606W        W22000  42.923  39.077   2.723
53607W        W22001  41.772  26.707  13.920
53608W        W22002  18.212  39.936   1.933
53609W        W22003  44.282   2.557  12.525
53610W        W22004  23.870  26.118  12.460
53611W        W22005  20.126  40.079  10.282
53612W        W22006   5.940  14.611  14.274
53613W        W22007  44.616  21.564  12.474
53614W        W22008  15.849  37.912  14.736
53615W        W22009  34.517  18.653  10.471
53616W        W22010  16.641  27.954   1.000
53617W        W22011  11.334   9.724   0.246
53618W        W22012  18.035  18.313  11.085
53619W        W22013  21.204  15.247  14.468
53620W        W22014   9.643  30.342  11.061
53621W        W22015  17.130  13.787  11.571
53622W        W22016  11.178  13.727  11.566
53623W        W22017  13.080  20.983   1.750
53624W        W22018  44.540  12.860   2.010
53625W        W22019  10.043   4.780  14.430
53626W        W22020  11.725  35.638  14.473
53627W        W22021  26.068  10.969   0.795
53628W        W22022  30.418  19.250  12.218
53629W        W22023  41.449  21.507   1.245
53630W        W22024  44.498  41.246   3.523
53631W        W22025  40.185  28.090   3.922
53632W        W22026  19.699  43.536  14.895
53633W        W22027  19.194  23.019  14.298
53634W        W22028  24.127  26.645   2.298
53635W        W22029  26.579  14.895  10.526
53636W        W22030  15.121  11.541  11.109
53637W        W22031  13.156  36.493  12.103
53638W        W22032  14.154  25.477   0.775
53639W        W22033  32.432  36.785   0.816
53640W        W22034  26.418  18.590  14.637
53641W        W22035   9.068  26.570   1.804
53642W        W22036   5.756  37.936  12.032
53643W        W22037  40.707  36.803   4.700
53644W        W22038  22.046  20.939   0.338
53645W        W22039  43.438  11.046  14.021
53646W        W22040  30.977  39.489   2.258
53647W        W22041  21.233   2.494   3.185
53648W        W22042  41.405   6.390  12.029
53649W        W22043  39.041  42.347   3.970
53650W        W22044   5.927  34.944  14.828
53651W        W22045   8.896  20.521  12.983
53652W        W22046  43.882  42.394  12.477
53653W        W22047  31.350   8.970  13.338
53654W        W22048  43.251  32.455  12.852
53655W        W22049   3.415  26.954   2.809
53656W        W22050  43.057  21.076   1.884
53657W        W22051  44.763  42.386   2.167
53658W        W22052  16.408  27.431   0.763
53659W        W22053  27.548  29.657   4.204
53660W        W22054   9.852   3.914   2.403
53661W        W22055  39.007  34.698   1.369
53662W        W22056  25.085  24.993   4.713
53663W        W22057  42.318  17.142  13.239
53664W        W22058  29.320  23.174   2.665
53665W        W22059  41.846  20.379   3.811
53666W        W22060  17.030  22.467   1.972
53667W        W22061   7.951  17.339  12.925
53668W        W22062   1.967  11.601  11.382
53669W        W22063  27.928  35.415   2.181
53670W        W22064   2.955  42.760   0.842
53671W        W22065  17.723  34.090  11.469
53672W        W22066  32.953  24.014   2.165
53673W        W22067   6.160  18.786   0.834
53674W        W22068  30.958  32.725   4.656
53675W        W22069  38.471  21.215  13.828
53676W        W22070   5.234  43.320   2.795
53677W        W22071   6.736   7.813  12.888
53678W        W22072   6.460  35.369   2.878
53679W        W22073   6.451  41.913  13.833
53680W        W22074  41.748   8.897   4.688
53681W        W22075   1.843   5.112   0.550
53682W        W22076   5.967   5.263  11.072
53683W        W22077  27.104  14.571   3.304
53684W        W22078  11.770  37.450  10.043
53685W        W22079  44.948  15.196  11.605
53686W        W22080  42.795  23.474  12.022
53687W        W22081  25.493  13.172  11.204
53688W        W22082  26.769  43.491  12.559
53689W        W22083   8.741   8.644   1.441
53690W        W22084  43.258  40.846  10.716
53691W        W22085  11.228  26.506  11.371
53692W        W22086  40.760  24.959  13.319
53693W        W22087  19.722  16.032   0.296
53694W        W22088  37.055  13.614  13.995
53695W        W22089  31.004  30.441   0.781
53696W        W22090  28.041   6.416   3.225
53697W        W22091  38.978   4.383   2.176
53698W        W22092   7.891   3.778  11.817
53699W        W22093   8.853  32.606  12.961
53700W        W22094  10.878  12.315  12.178
53701W        W22095  42.070   3.386   0.913
53702W        W22096  32.876  38.622  13.930
53703W        W22097  24.625  13.617   3.791
53704W        W22098  42.685  35.926  11.547
53705W        W22099  30.746  33.003   1.517
53706W        W22100  11.887  23.956   1.517
53707W        W22101   3.207  30.122  12.507
53708W        W22102  12.817  43.620   0.689
53709W        W22103  41.309  12.808   3.765
53710W        W22104   6.855  20.034   2.762
53711W        W22105  19.392  41.570   0.812
53712W        W22106  21.618  23.474   4.085
53713W        W22107  14.089   4.698  11.565
53714W        W22108  28.013   5.308  13.445
53715W        W22109  35.205  21.885   1.813
53716W        W22110   0.740  44.957  13.912
53717W        W22111  36.323  11.742  12.973
53718W        W22112  38.097  42.218   4.118
53719W        W22113  29.139  16.659   3.399
53720W        W22114  28.320  36.101  11.235
53721W        W22115   7.922  19.820   3.806
53722W        W22116  16.308  40.845  12.402
53723W        W22117  17.906   1.747  11.685
53724W        W22118  14.229  42.429   0.744
53725W        W22119  32.629   9.010   1.396
53726W        W22120  28.568  31.717  11.150
53727W        W22121  28.915  34.432  12.503
53728W        W22122  16.274  22.226   0.406
53729W        W22123  36.558  39.452  11.841
53730W        W22124  33.598  22.443  12.034
53731W        W22125   4.378  40.137   2.785
53732W        W22126  28.570  30.938  13.330
53733W        W22127   2.181  44.863   4.662
53734W        W22128  23.013  27.017  11.993
53735W        W22129  42.778  24.922   3.449
53736W        W22130  39.242  21.957   3.686
53737W        W22131  21.292  34.643  12.680
53738W        W22132  39.821  37.441  12.814
53739W        W22133  31.479  38.277  13.661
53740W        W22134  34.314  11.586  12.130
53741W        W22135  36.515  42.127   3.374
53742W        W22136  15.410   2.653  14.035
53743W        W22137   6.805  21.084   4.683
53744W        W22138  36.047   8.001  13.210
53745W        W22139  36.886  26.207  14.246
53746W        W22140  39.620  10.165  13.971
53747W        W22141  26.360  23.312  11.069
53748W        W22142  22.446  24.283  13.883
53749W        W22143   0.814  11.827   4.506
53750W        W22144  40.489  42.749   4.656
53751W        W22145   7.012  34.577  11.394
53752W        W22146  17.799  13.758   1.742
53753W        W22147  13.619  17.972  12.550
53754W        W22148   5.659   4.679   0.384
53755W        W22149  33.432  41.860  11.211
53756W        W22150  22.033  12.297   3.302
53757W        W22151  10.347  15.122  12.706
53758W        W22152  30.982  40.891  11.611
53759W        W22153  12.868   3.451   4.959
53760W        W22154  28.707   5.193   0.374
53761W        W22155  43.990  22.660  11.462
53762W        W22156  41.020  40.406   1.793
53763W        W22157  11.766   6.536  14.495
53764W        W22158  44.834  13.526  11.058
53765W        W22159   2.898  27.409   4.151
53766W        W22160  25.927  35.595  12.034
53767W        W22161  40.228  12.764   2.774
53768W        W22162  17.348  11.389  11.426
53769W        W22163  39.539  23.798  11.036
53770W        W22164  28.730  16.756   1.029
53771W        W22165  10.235  28.564   3.820
53772W        W22166  21.231   4.832   2.693
53773W        W22167  13.697  34.682  12.409
53774W        W22168  31.476   2.367   0.786
53775W        W22169  27.115  12.872   0.254
53776W        W22170  36.443  29.446   3.876
53777W        W22171  20.186  29.141  10.544
53778W        W22172  40.925  26.847  11.027
53779W        W22173  39.949  21.259   1.533
53780W        W22174  24.155  44.549   1.927
53781W        W22175  40.191  15.611  14.889
53782W        W22176  20.222  24.206  11.504
53783W        W22177   3.873  40.452  11.790
53784W        W22178  31.016  13.447   3.864
53785W        W22179  16.871  11.651  13.262
53786W        W22180   4.482  44.695  12.324
53787W        W22181  28.543  21.637  11.183
53788W        W22182  40.584  16.758   0.234
53789W        W22183  15.863  16.610  11.076
53790W        W22184  28.500  21.651   3.720
53791W        W22185  31.666  38.435  14.107
53792W        W22186   5.645   4.908  13.528
53793W        W22187  40.624  16.372   2.625
53794W        W22188  30.597   6.377   2.247
53795W        W22189  33.740  43.724   2.826
53796W        W22190   6.752  36.103  14.340
53797W        W22191  28.033  17.545  11.115
53798W        W22192  25.948  21.242   3.663
53799W        W22193  23.668  14.682  13.225
53800W        W22194  43.830  11.584  14.349
53801W        W22195   3.295   5.205  14.966
53802W        W22196  27.656   5.359   4.507
53803W        W22197  13.896   6.477  14.747
53804W        W22198  39.573  43.608  14.288
53805W        W22199  35.031  34.096   2.448
53806W        W22200  42.537   7.915   3.574
53807W        W22201   5.174  43.381  11.175
53808W        W22202   3.538   5.968  12.344
53809W        W22203  44.192  31.307   3.831
53810W        W22204  39.969   6.195  10.626
53811W        W22205  13.346  32.792  11.220
53812W        W22206  24.046  38.585   3.653
53813W        W22207  20.272  33.529   1.383
53814W        W22208  21.463   2.709   4.122
53815W        W22209  15.470  16.298   3.573
53816W        W22210  41.855  19.983  13.944
53817W        W22211  28.592  35.587  14.575
53818W        W22212  19.153  17.144   1.724
53819W        W22213  42.118  11.591  10.652
53820W        W22214  35.133  42.389  12.319
53821W        W22215   2.420  40.883   3.646
53822W        W22216  25.733  11.503   2.418
53823W        W22217   3.218  44.294   3.685
53824W        W22218  10.892   5.758  11.720
53825W        W22219  23.362   5.232  12.355
53826W        W22220  27.390  19.358  10.493
53827W        W22221   5.235  29.552   1.843
53828W        W22222  32.932   4.629   0.272
53829W        W22223  32.501   5.997   4.128
53830W        W22224   8.307  24.022   4.406
53831W        W22225  39.109  26.994   3.516
53832W        W22226  36.630  21.007   4.731
53833W        W22227  23.590   5.614   3.773
53834W        W22228  36.245  12.167   3.279
53835W        W22229   4.858   0.972  12.343
53836W        W22230   9.449   0.324  14.450
53837W        W22231  24.964  35.452   2.717
53838W        W22232  40.854  36.366   0.688
53839W        W22233  22.265  14.098   4.562
53840W        W22234   7.119  14.672   3.230
53841W        W22235  42.131  42.839   3.945
53842W        W22236  44.397   8.904   2.268
53843W        W22237  35.415  13.948   2.251
53844W        W22238  35.680  26.722   1.267
53845W        W22239  10.595  25.089   2.751
53846W        W22240  18.549   1.466   4.220
53847W        W22241   4.017  26.897  14.741
53848W        W22242  25.052  24.253  12.626
53849W        W22243  16.288  31.569  11.937
53850W        W22244  24.508  24.065   4.346
53851W        W22245  31.059   8.632  13.620
53852W        W22246  43.827   5.786  11.352
53853W        W22247   4.002   4.204   3.093
53854W        W22248  14.315  14.330  11.542
53855W        W22249  14.707  22.859   1.815
53856W        W22250  40.254  23.272  10.489
53857W        W22251   6.409  23.730  14.458
53858W        W22252  32.028   6.642  12.509
53859W        W22253  11.878  41.234  11.177
53860W        W22254  23.021  24.093  10.501
53861W        W22255   0.682  21.838  11.536
53862W        W22256   8.968  34.272   1.690
53863W        W22257   0.201  30.545   4.115
53864W        W22258  19.101  18.567  11.357
53865W        W22259   1.352  10.758   2.902
53866W        W22260  13.395  41.448   2.355
53867W        W22261  27.661   7.793  13.814
53868W        W22262  42.500  32.680   2.785
53869W        W22263  30.435  11.119   2.612
53870W        W22264  37.168   0.335   2.736
53871W        W22265  22.773   2.756  14.517
53872W        W22266  11.931  35.366  14.077
53873W        W22267  29.490  33.927   3.447
53874W        W22268  23.017  17.198  14.046
53875W        W22269  36.290  28.455  11.609
53876W        W22270  32.914  20.975  13.890
53877W        W22271  43.770   2.603   2.220
53878W        W22272   6.935  14.440   1.965
53879W        W22273  18.116  18.669  12.405
53880W        W22274  11.610   3.628   5.326
53881W        W22275  28.660  14.789  14.417
53882W        W22276  20.630  31.016  12.088
53883W        W22277  18.120  21.155   2.749
53884W        W22278  39.176   2.367  12.434
53885W        W22279  33.888  22.684   3.287
53886W        W22280  37.298   6.426   2.390
53887W        W22281  26.928  10.755  11.828
53888W        W22282  27.826  19.753   2.839
53889W        W22283  29.500   8.302   1.838
53890W        W22284  26.434  21.786  12.863
53891W        W22285  18.839  23.911   0.786
53892W        W22286  36.648  30.872   0.517
53893W        W22287  39.976  13.873  11.638
53894W        W22288   0.552  42.319   3.177
53895W        W22289  10.072  21.456   1.200
53896W        W22290   6.895  19.956   1.110
53897W        W22291  19.050  33.113  11.284
53898W        W22292   1.419  20.677   3.496
53899W        W22293  30.105  21.502   1.801
53900W        W22294  32.137  23.194  11.428
53901W        W22295  38.233   3.882   5.044
53902W        W22296  39.319  41.262  13.965
53903W        W22297   9.273  41.203  13.103
53904W        W22298  35.430   1.307  12.880
53905W        W22299  27.249  27.991  12.554
53906W        W22300  19.066   9.869   1.791
53907W        W22301  16.042  36.981   2.907
53908W        W22302  22.158  44.892   2.210
53909W        W22303   0.915  34.434   1.770
53910W        W22304  10.414   6.804   2.236
53911W        W22305  30.107  13.634   0.943
53912W        W22306  21.761  39.065   2.594
53913W        W22307  35.040  36.024  12.473
53914W        W22308   5.740  28.399  12.479
53915W        W22309   3.337  29.633   0.839
53916W        W22310  39.677  43.003   1.403
53917W        W22311  23.002  23.679  13.662
53918W        W22312   6.375   2.837  11.932
53919W        W22313   8.695  27.423  10.093
53920W        W22314   6.024  43.770   1.911
53921W        W22315   9.769  41.477  13.900
53922W        W22316   7.873  21.117   1.483
53923W        W22317   2.514   8.328   3.383
53924W        W22318  10.570  33.424  12.090
53925W        W22319  38.075  27.034   3.708
53926W        W22320  35.917  18.143  13.099
53927W        W22321  26.433  36.077  11.187
53928W        W22322  34.592  26.499   1.703
53929W        W22323   9.762  26.411   4.671
53930W        W22324  13.473  33.796   0.334
53931W        W22325  25.482  18.285  11.128
53932W        W22326  44.883   2.791  12.101
53933W        W22327   8.895  23.965   2.743
53934W        W22328   9.332  28.433  11.890
53935W        W22329  32.468  38.282   0.888
53936W        W22330  31.347   4.326  13.827
53937W        W22331   7.213  18.130   3.735
53938W        W22332  21.316  31.531  10.535
53939W        W22333   8.727  35.890   4.862
53940W        W22334  41.657   9.378  13.544
53941W        W22335   2.890  43.898  13.822
53942W        W22336  13.409   7.293  12.816
53943W        W22337  10.722   4.515   4.474
53944W        W22338  28.165   4.007  11.607
53945W        W22339  37.664  38.000   3.777
53946W        W22340  37.680  37.888  11.207
53947W        W22341  15.317  25.770  11.574
53948W        W22342  11.624   5.806  13.296
53949W        W22343   5.425   3.903  14.228
53950W        W22344   4.245  25.566   9.473
53951W        W22345  28.113   7.280  13.300
53952W        W22346  14.085  36.282  13.536
53953W        W22347  43.009  28.343   4.433
53954W        W22348  23.505  14.262  11.202
53955W        W22349   4.412   5.477   1.068
53956W        W22350  16.592   8.076  14.775
53957W        W22351  27.119  21.016  12.784
53958W        W22352  42.459  29.961   3.828
53959W        W22353  16.875  13.452  14.886
53960W        W22354   0.249  30.140   0.243
53961W        W22355  16.719  11.624  11.492
53962W        W22356  12.719   2.798   1.281
53963W        W22357   1.885  17.104  14.486
53964W        W22358  24.263  10.230  10.106
53965W        W22359  20.447  42.677   3.702
53966W        W22360  43.262  32.005   3.240
53967W        W22361  28.672  28.167  14.017
53968W        W22362  32.998  18.133  11.724
53969W        W22363  37.147  39.739   3.539
53970W        W22364  22.098   6.249   1.155
53971W        W22365  28.518  12.236   4.523
53972W        W22366  26.974  26.354  11.247
53973W        W22367  40.605  38.480   2.813
53974W        W22368  36.044  36.844  13.088
53975W        W22369  10.796  41.850   2.403
53976W        W22370  39.971  36.072   0.241
53977W        W22371  18.213  28.404   2.183
53978W        W22372  41.073  26.585   4.858
53979W        W22373   6.245  12.198   1.127
53980W        W22374  43.991  44.946   2.271
53981W        W22375   1.629  15.785   1.911
53982W        W22376  44.979  33.189   4.403
53983W        W22377   2.342  15.126   0.468
53984W        W22378   5.501  39.070   3.063
53985W        W22379  32.934   9.730  11.029
53986W        W22380  17.911   0.543  11.850
53987W        W22381  20.091  40.347   1.677
53988W        W22382  44.801  18.026  11.539
53989W        W22383  27.053   3.751   1.143
53990W        W22384  12.713   2.397  11.074
53991W        W22385  25.713  18.006   3.237
53992W        W22386   5.030  21.796  11.967
53993W        W22387   6.345  41.313   0.428
53994W        W22388  42.571   5.265   4.699
53995W        W22389  31.575  28.558   1.925
53996W        W22390   9.588  31.909  12.060
53997W        W22391  16.760  15.297  11.557
53998W        W22392  19.036   4.316   0.266
53999W        W22393  33.329   0.774   3.770
54000W        W22394  15.336  18.505  11.896
54001W        W22395  20.132  18.746   4.060
54002W        W22396  27.978  12.693   2.805
54003W        W22397  22.442  17.940  13.823
54004W        W22398  25.296  17.094  11.514
54005W        W22399  38.858  30.969   2.624
54006W        W22400  35.424  23.598   1.241
54007W        W22401  26.950  21.320  11.588
54008W        W22402  24.646  40.437   0.742
54009W        W22403   2.753  29.713  11.153
54010W        W22404  12.307   7.632   1.168
54011W        W22405  22.766  34.020   4.065
54012W        W22406   0.225  29.955   4.574
54013W        W22407  14.607  27.787   0.268
54014W        W22408  11.177  34.438  12.864
54015W        W22409  11.613  25.095   2.704
54016W        W22410   6.834  19.532   2.734
54017W        W22411  11.902  32.967  12.515
54018W        W22412  21.968  34.875  14.249
54019W        W22413   8.860  28.686   1.238
54020W        W22414  31.159  23.522   1.322
54021W        W22415  38.050  18.547   0.660
54022W        W22416  24.598  11.749   3.579
54023W        W22417  36.659  28.137   2.589
54024W        W22418  36.467  42.828   3.745
54025W        W22419   4.743  25.763  14.216
54026W        W22420   9.921  33.626   2.792
54027W        W22421  10.904   6.947  11.185
54028W        W22422  14.314  10.639   1.801
54029W        W22423  34.254  41.811   3.685
54030W        W22424  40.177  38.994  11.541
54031W        W22425  42.258  42.951  12.065
54032W        W22426  44.426  23.575  14.275
54033W        W22427  17.075   4.763  14.030
54034W        W22428  26.138   4.572   4.679
54035W        W22429  28.979   1.629  14.085
54036W        W22430  25.437  43.899   1.623
54037W        W22431  33.887   0.818  10.701
54038W        W22432  26.944  16.748   0.388
54039W        W22433  41.157  35.946   0.695
54040W        W22434  24.953  31.971  12.571
54041W        W22435  43.108  43.449  11.976
54042W        W22436   6.649   0.091  10.493
54043W        W22437  33.380  13.541   2.664
54044W        W22438   8.821  19.296   3.722
54045W        W22439   0.528  12.772   2.400
54046W        W22440  43.215  41.903   3.143
54047W        W22441  35.023  41.734  12.887
54048W        W22442  30.433  12.422   3.172
54049W        W22443  16.396  16.658  12.464
54050W        W22444  20.099   9.272   1.485
54051W        W22445  25.031   5.973   2.347
54052W        W22446  18.577  40.750   4.135
54053W        W22447  12.703  24.267  10.456
54054W        W22448  20.229   8.474  11.198
54055W        W22449  10.789  41.259   5.043
54056W        W22450   9.689  21.695   4.642
54057W        W22451  28.074  32.004  12.826
54058W        W22452  24.570  13.486  12.125
54059W        W22453   7.954  31.749   2.367
54060W        W22454   9.420  35.864   0.663
54061W        W22455   7.256  15.348  14.945
54062W        W22456  32.970  12.302  14.798
54063W        W22457  26.956  25.962  10.919
54064W        W22458  44.163  28.085   5.011
54065W        W22459  23.448  44.295  12.051
54066W        W22460   3.933  33.125  13.023
54067W        W22461  41.264  21.849  12.238
54068W        W22462  13.699  39.379  10.931
54069W        W22463  18.272  17.788   4.506
54070W        W22464  42.938  33.010  13.338
54071W        W22465  36.195  10.240   5.012
54072W        W22466  39.580  30.915   4.453
54073W        W22467  26.381  43.251  10.226
54074W        W22468  18.314   6.917  14.451
54075W        W22469  41.872  39.841  10.413
54076W        W22470  12.326  23.097  11.059
54077W        W22471  44.677  26.111   1.226
54078W        W22472  39.334  15.039  11.180
54079W        W22473  43.632  19.149   2.156
54080W        W22474  19.744  18.614   0.991
54081W        W22475  32.464  29.120  12.270
54082W        W22476  22.744  11.133   2.840
54083W        W22477  14.307  17.021  11.613
54084W        W22478  18.860  18.363  14.755
54085W        W22479  12.077   4.178   1.612
54086W        W22480  14.975  38.853  14.841
54087W        W22481   3.222  10.802   1.456
54088W        W22482  27.634   9.163   1.213
54089W        W22483  30.100  20.998   1.871
54090W        W22484  44.182  40.807  14.869
54091W        W22485  29.671  12.678   1.278
54092W        W22486  39.464   1.512   2.839
54093W        W22487  21.314  30.058  13.073
54094W        W22488  41.478  13.624   4.779
54095W        W22489  22.657  14.720  11.964
54096W        W22490   1.630  30.125  13.201
54097W        W22491  26.446  36.938  12.975
54098W        W22492   1.443  11.153  12.026
54099W        W22493   9.878  22.591   0.349
54100W        W22494  27.646  39.095   2.921
54101W        W22495   4.436  44.856   4.669
54102W        W22496  18.314  40.655  13.458
54103W        W22497  21.205  12.162   1.444
54104W        W22498  30.862   7.048   2.683
54105W        W22499  38.015  13.689   0.323
54106W        W22500  36.296  39.028   2.101
54107W        W22501   6.878  20.447   1.250
54108W        W22502  20.531  24.471  12.836
54109W        W22503   5.862   1.723  11.614
54110W        W22504   3.773  29.900  14.902
54111W        W22505  31.984  36.321   2.637
54112W        W22506   9.253   5.667  13.800
54113W        W22507  28.418  43.757   3.165
54114W        W22508  15.841  39.465  11.973
54115W        W22509  12.262  36.097   2.668
54116W        W22510  25.040  37.874   1.457
54117W        W22511   4.858  19.783  13.941
54118W        W22512  31.059  27.887  13.866
54119W        W22513  41.869  28.728   0.497
54120W        W22514  32.202  33.042   2.281
54121W        W22515  26.029   6.696  11.981
54122W        W22516   1.859  12.972   2.811
54123W        W22517  26.729  27.713   4.159
54124W        W22518  37.353  17.759  11.057
54125W        W22519  21.446  26.260  14.787
54126W        W22520   7.321  19.248   2.663
54127W        W22521  14.971  20.171   0.850
54128W        W22522  33.706  13.393   1.379
54129W        W22523  27.925  15.880   4.870
54130W        W22524  16.970  38.749   1.318
54131W        W22525  30.115   1.146   4.722
54132W        W22526  28.772   0.419  12.157
54133W        W22527   4.123   0.312  13.359
54134W        W22528  34.643  16.842   1.683
54135W        W22529  30.483   7.563  13.813
54136W        W22530  40.493  42.511  10.676
54137W        W22531  21.066   9.313  14.817
54138W        W22532  26.556   2.487   5.526
54139W        W22533   2.356   5.783   2.418
54140W        W22534  41.417  25.114   2.573
54141W        W22535   4.174  43.319   4.042
54142W        W22536   9.165  14.242  10.650
54143W        W22537  15.406   1.986  11.132
54144W        W22538  21.111   0.359  14.587
54145W        W22539   2.858  20.024  12.137
54146W        W22540  10.782  36.279   2.879
54147W        W22541   6.247  41.410   3.148
54148W        W22542  33.146  10.844  13.819
54149W        W22543  31.419   7.342  14.288
54150W        W22544  14.011  26.500  10.252
54151W        W22545  12.303  33.441   2.373
54152W        W22546  28.865  10.020  14.056
54153W        W22547   7.466   1.148  12.954
54154W        W22548   0.125  35.394   0.900
54155W        W22549  31.572  44.461   2.877
54156W        W22550  21.341  14.755   0.399
54157W        W22551  44.952  34.001   4.731
54158W        W22552  17.992   6.794  11.058
54159W        W22553   1.325   3.640   1.298
54160W        W22554  32.731   9.888  14.684
54161W        W22555  15.576  35.640  14.415
54162W        W22556  36.820  25.214  12.501
54163W        W22557  14.329  26.558  14.208
54164W        W22558  28.890   4.499  11.118
54165W        W22559  42.913  36.892  12.929
54166W        W22560  21.458  41.319  11.828
54167W        W22561  15.877  17.733  10.276
54168W        W22562  18.566  12.768   0.265
54169W        W22563   9.893   6.191  13.465
54170W        W22564   1.538  11.317   3.606
54171W        W22565  29.043  44.339  13.592
54172W        W22566  29.754  18.371  11.075
54173W        W22567  10.661   3.126   1.767
54174W        W22568  25.594  36.348   1.112
54175W        W22569  32.335   7.195  13.825
54176W        W22570   2.514   0.049  14.964
54177W        W22571   2.935  43.354   4.664
54178W        W22572  38.293   6.870  11.611
54179W        W22573  35.341  39.583  11.090
54180W        W22574  42.322  18.758   3.144
54181W        W22575  36.342  39.198   4.988
54182W        W22576  10.820  17.676  10.693
54183W        W22577  11.602   1.445  10.911
54184W        W22578  39.550  16.277   2.772
54185W        W22579  10.792  31.498  13.085
54186W        W22580   1.380  16.637   1.276
54187W        W22581  39.969  39.477  14.079
54188W        W22582   9.301  30.123   2.118
54189W        W22583  25.930  36.868  14.015
54190W        W22584  19.246  18.233  12.170
54191W        W22585  17.991   9.766   0.089
54192W        W22586   8.441  27.532  11.753
54193W        W22587  25.063  19.593   0.207
54194W        W22588  38.612  37.981  13.784
54195W        W22589  14.449  24.952   4.954
54196W        W22590  23.247  29.836  14.929
54197W        W22591  41.508   9.667   0.891
54198W        W22592   8.293  30.387  11.163
54199W        W22593  11.182  29.080   0.042
54200W        W22594   9.403   4.904   1.700
54201W        W22595   3.515  38.829  14.449
54202W        W22596   7.715  20.195  10.748
54203W        W22597  15.142  26.607   3.175
54204W        W22598  19.266  18.676   3.729
54205W        W22599  44.165   4.007  12.512
54206W        W22600   7.818  39.270   1.881
54207W        W22601  14.157  37.886   1.311
54208W        W22602   1.863  34.502  13.107
54209W        W22603  36.439  29.223  14.866
54210W        W22604  28.490  24.250  12.537
54211W        W22605  31.585  28.435  14.788
54212W        W22606  15.160  23.336  12.059
54213W        W22607  16.929  20.576   3.953
54214W        W22608  30.132   8.265   1.060
54215W        W22609  33.404  42.884  10.366
54216W        W22610   3.321  38.900   2.335
54217W        W22611  41.422  28.530  14.884
54218W        W22612  17.086  16.143  14.806
54219W        W22613   9.916   4.048  14.351
54220W        W22614  15.376   4.854   3.983
54221W        W22615  35.438  30.311   2.681
54222W        W22616  35.911   4.258  14.303
54223W        W22617  30.573  22.742   0.720
54224W        W22618   8.740  23.981   0.524
54225W        W22619  34.387  11.127  13.929
54226W        W22620   5.745  10.707  10.644
54227W        W22621  39.601  39.981  12.395
54228W        W22622  31.715  31.456   4.250
54229W        W22623  33.407  11.331   1.210
54230W        W22624   4.476  40.601   2.607
54231W        W22625  14.719   1.095   4.866
54232W        W22626  29.391   8.666  12.754
54233W        W22627  23.749  40.018   1.010
54234W        W22628  37.469  31.600  11.003
54235W        W22629   9.622   2.217  14.823
54236W        W22630  34.912  28.532  10.519
54237W        W22631  25.213  22.712   0.880
54238W        W22632  19.695  37.352   3.709
54239W        W22633  43.511  18.897   3.106
54240W        W22634  43.379  15.390  14.984
54241W        W22635  14.524  31.227   2.672
54242W        W22636  14.118   0.829  14.902
54243W        W22637  34.007  22.523  10.631
54244W        W22638   2.092  29.216  14.662
54245W        W22639  28.036  22.568  11.376
54246W        W22640  20.133   5.803   3.580
54247W        W22641  33.390   4.527   2.432
54248W        W22642  39.037  36.305   0.142
54249W        W22643  10.880   2.014  12.123
54250W        W22644  42.484  43.256   3.912
54251W        W22645  19.096  26.585  10.997
54252W        W22646  10.247  26.977   0.670
54253W        W22647  37.288  34.350   0.774
54254W        W22648   1.395   7.232  12.919
54255W        W22649  28.796  18.784  11.162
54256W        W22650  12.438  20.383  13.334
54257W        W22651  23.548  32.942  12.377
54258W        W22652  24.830  17.560  12.840
54259W        W22653  20.654  11.147   1.025
54260W        W22654  42.859  43.678   2.797
54261W        W22655  14.168  22.619  14.339
54262W        W22656  33.372   7.602   0.485
54263W        W22657  21.504  19.739  14.331
54264W        W22658  37.362  12.839   0.576
54265W        W22659  41.650  28.174  14.308
54266W        W22660  26.875  27.232   4.100
54267W        W22661  12.311  42.258   3.347
54268W        W22662  16.992  32.001   3.217
54269W        W22663  24.642  30.869  12.981
54270W        W22664  14.198  26.807  12.396
54271W        W22665  22.043  21.662  12.839
54272W        W22666  44.484  41.667   3.180
54273W        W22667   8.731  28.285  12.108
54274W        W22668  33.506  14.891  14.152
54275W        W22669   2.448  33.392  11.096
54276W        W22670  15.185  14.271  14.158
54277W        W22671  20.808  22.689   2.273
54278W        W22672  36.987  25.479  14.484
54279W        W22673  36.423  38.057   2.447
54280W        W22674   2.172   8.745   5.320
54281W        W22675  42.759  24.238  13.366
54282W        W22676  15.233  25.180   2.995
54283W        W22677   4.191  38.942  13.404
54284W        W22678   5.864  34.650   4.258
54285W        W22679  40.042   0.989  13.560
54286W        W22680  24.106  29.000  10.763
54287W        W22681   6.413  39.283  11.484
54288W        W22682  15.104  11.126  12.980
54289W        W22683  43.514  34.361  13.659
54290W        W22684  40.971  43.467   1.650
54291W        W22685   2.665  35.066  11.569
54292W        W22686  21.099  34.210   0.058
54293W        W22687  27.337  12.717   1.980
54294W        W22688   4.739  37.179  14.840
54295W        W22689   2.078  10.392   1.337
54296W        W22690  13.081   3.792   4.605
54297W        W22691  30.089  11.456   2.422
54298W        W22692  31.841  15.076  12.422
54299W        W22693  42.265   8.908  10.445
54300W        W22694  35.243  15.200   2.720
54301W        W22695  32.461   6.916  14.697
54302W        W22696  36.986   2.884  12.150
54303W        W22697   2.173  44.992  11.073
54304W        W22698  36.893  19.636  14.504
54305W        W22699  19.423   8.492  14.549
54306W        W22700   1.725  28.918  14.955
54307W        W22701  33.850  26.178  11.669
54308W        W22702  43.093  12.541   2.205
54309W        W22703   3.956  17.082  13.088
54310W        W22704  17.508  21.157  14.561
54311W        W22705  32.054  42.082   3.638
54312W        W22706   9.847  23.152   3.793
54313W        W22707  39.383  20.170   4.713
54314W        W22708  16.888  15.631  14.728
54315W        W22709   0.899  12.616  13.950
54316W        W22710   7.486   9.616   1.116
54317W        W22711  17.961  41.447   0.919
54318W        W22712  44.480  33.985   4.091
54319W        W22713  24.594  24.198   1.829
54320W        W22714   5.167  31.914   1.945
54321W        W22715   1.806  21.583  11.778
54322W        W22716  15.177  24.720  12.966
54323W        W22717  18.044  41.828   0.583
54324W        W22718  21.783  38.752  13.532
54325W        W22719   7.919   1.862   0.656
54326W        W22720  28.131  41.912  10.842
54327W        W22721   8.038  14.048  10.830
54328W        W22722  39.357  31.514   4.767
54329W        W22723  18.321   1.368  13.959
54330W        W22724  36.044   9.507  11.710
54331W        W22725  41.934  23.504   4.581
54332W        W22726  39.751  15.285   2.928
54333W        W22727  42.016  35.859  13.939
54334W        W22728  21.432  27.435  10.690
54335W        W22729  34.059  20.842   0.217
54336W        W22730  17.723   2.174  12.564
54337W        W22731  41.300  18.155   1.244
54338W        W22732  12.123  44.758   3.969
54339W        W22733  41.567  13.852  10.808
54340W        W22734  26.603  24.671   2.621
54341W        W22735  15.519  33.513  10.729
54342W        W22736  15.373  24.169  11.510
54343W        W22737   0.040  27.015  13.959
54344W        W22738  43.954  32.519  12.872
54345W        W22739  34.882  19.600   4.616
54346W        W22740  17.297  43.336   4.325
54347W        W22741   0.119  27.149   4.221
54348W        W22742  29.118  42.366  10.435
54349W        W22743   4.964  20.890  12.182
54350W        W22744  36.605   6.794  12.430
54351W        W22745  44.611  11.881  12.637
54352W        W22746  31.944  37.124   4.166
54353W        W22747   6.665  43.029   2.757
54354W        W22748   8.873  23.699  11.628
54355W        W22749  42.013  38.661  12.938
54356W        W22750  20.171  44.813  13.430
54357W        W22751  41.814  30.645  12.613
54358W        W22752   6.788  21.746   2.140
54359W        W22753  23.770  16.774  10.717
54360W        W22754   2.698   7.916  14.924
54361W        W22755  16.097   1.964  13.015
54362W        W22756  35.597  36.986   1.839
54363W        W22757  36.506  35.245   1.281
54364W        W22758  21.542   5.786  12.014
54365W        W22759   2.403   8.883  11.693
54366W        W22760  40.605  13.065  14.484
54367W        W22761  32.933   2.300   0.787
54368W        W22762   4.416  31.858  11.449
54369W        W22763  31.623  29.986  11.349
54370W        W22764  40.504  32.404   2.191
54371W        W22765  35.069  32.037  11.922
54372W        W22766  42.162  11.617   0.916
54373W        W22767  15.685  13.830   2.578
54374W        W22768  17.107  30.883  14.731
54375W        W22769  20.629  17.255   0.366
54376W        W22770   0.918  32.166   1.773
54377W        W22771  31.555   2.075   1.269
54378W        W22772  23.039   4.340   0.767
54379W        W22773  27.356  32.658  11.604
54380W        W22774  31.484  23.592  13.139
54381W        W22775  41.247  19.510   4.073
54382W        W22776  14.171   3.925  12.173
54383W        W22777   8.426   9.439   2.782
54384W        W22778  12.830   7.371   4.539
54385W        W22779  38.530  29.191  10.767
54386W        W22780  28.957  20.989   1.663
54387W        W22781  20.144   1.590   4.823
54388W        W22782  17.201  38.121   4.217
54389W        W22783   7.979  31.525   3.301
54390W        W22784  16.166  19.326   2.817
54391W        W22785  35.042  31.057   1.196
54392W        W22786  44.021  24.048   3.304
54393W        W22787   8.341   4.031  11.649
54394W        W22788  41.468   1.707  11.583
54395W        W22789  28.220  33.555   2.392
54396W        W22790  14.668  14.857   1.505
54397W        W22791  14.294  40.474  13.572
54398W        W22792  20.231   3.884   4.238
54399W        W22793  18.518  12.078  13.011
54400W        W22794   1.805  17.814   3.544
54401W        W22795  23.774  34.978  13.305
54402W        W22796   2.819  19.036   4.578
54403W        W22797  16.756  43.418   2.555
54404W        W22798   7.161   3.237  14.006
54405W        W22799  11.187  23.494  14.990
54406W        W22800  23.312  32.549  11.050
54407W        W22801  23.759  11.799  13.403
54408W        W22802   2.141  38.318  14.470
54409W        W22803  34.039  16.981  11.192
54410W        W22804  27.041  17.154   4.644
54411W        W22805  22.552  17.782   1.839
54412W        W22806  26.949  19.379  11.096
54413W        W22807  12.360  43.952  12.549
54414W        W22808   4.144  10.438  13.932
54415W        W22809  36.340   2.312   4.086
54416W        W22810  24.304   4.455   1.027
54417W        W22811  10.727  22.695  14.942
54418W        W22812  43.797  37.455   1.790
54419W        W22813  20.809  43.408  10.803
54420W        W22814   2.763  26.682   3.624
54421W        W22815  42.984  38.925  14.990
54422W        W22816  12.670  17.035   1.343
54423W        W22817  29.622  24.716  12.496
54424W        W22818  26.163   7.631   1.751
54425W        W22819  14.368  32.947   4.188
54426W        W22820  24.160  15.159  14.505
54427W        W22821  40.965   9.478   0.024
54428W        W22822   7.649   9.896   3.276
54429W        W22823  22.667  21.354   1.927
54430W        W22824   0.289   5.698  11.525
54431W        W22825  29.620  18.523   1.413
54432W        W22826   2.741  21.376   3.196
54433W        W22827  37.378  10.629  13.362
54434W        W22828  10.049  43.480   2.916
54435W        W22829  17.056  39.607   4.164
54436W        W22830  32.937  35.877  13.964
54437W        W22831   4.822  12.222   4.220
54438W        W22832  41.271  15.853  14.288
54439W        W22833   9.346  29.586   0.854
54440W        W22834  11.355  15.065  12.388
54441W        W22835  18.615  24.718   1.735
54442W        W22836   2.166  21.062  13.599
54443W        W22837  11.213  18.505   2.748
54444W        W22838   6.110  24.961  11.541
54445W        W22839  33.631   7.621  13.715
54446W        W22840  10.180   2.912  14.912
54447W        W22841  11.036   8.701  11.629
54448W        W22842   7.783  39.625   3.203
54449W        W22843  36.349  17.235   2.643
54450W        W22844  26.298  18.139  14.364
54451W        W22845  28.756  39.197  12.451
54452W        W22846   1.552  38.293  11.090
54453W        W22847   4.297  42.445   4.151
54454W        W22848  12.565  15.101   0.915
54455W        W22849   7.991  22.236  11.988
54456W        W22850  44.834  23.382  11.163
54457W        W22851   3.492  29.791  14.432
54458W        W22852  25.947  12.288  14.807
54459W        W22853   1.510  34.624   2.828
54460W        W22854  40.720   2.017  10.459
54461W        W22855  41.419  18.552  11.186
54462W        W22856  40.109  32.531   1.864
54463W        W22857  26.000   9.299   2.342
54464W        W22858  39.528  18.081   3.347
54465W        W22859   0.330  18.063   4.221
54466W        W22860  40.785  26.389  13.609
54467W        W22861  26.580  30.934   3.642
54468W        W22862  13.442   1.399   2.331
54469W        W22863  14.747  42.122  14.083
54470W        W22864  37.428   4.349   4.537
54471W        W22865  31.856  36.477  13.654
54472W        W22866   6.293  15.904   4.547
54473W        W22867  23.328  28.037   3.293
54474W        W22868  31.101  11.553  11.094
54475W        W22869  12.128  36.919  12.477
54476W        W22870   0.320  11.824  10.836
54477W        W22871  19.054  23.132   2.882
54478W        W22872   9.715  14.859   1.709
54479W        W22873  18.743  41.940   3.834
54480W        W22874  14.740  30.824  12.579
54481W        W22875  40.324  15.104  14.267
54482W        W22876   6.418  25.242   1.927
54483W        W22877  17.587  37.902  14.533
54484W        W22878   7.887  43.076  11.814
54485W        W22879  43.089  12.628  10.302
54486W        W22880  23.729  41.478   0.860
54487W        W22881   1.231  33.005   1.372
54488W        W22882  29.629  30.249   2.630
54489W        W22883  28.725   6.155  13.527
54490W        W22884  38.747  16.086  14.059
54491W        W22885  35.550  22.715   0.803
54492W        W22886  15.582  21.001  11.605
54493W        W22887  43.697   3.834  13.552
54494W        W22888   0.817  43.083   0.351
54495W        W22889  18.520  17.806  14.851
54496W        W22890  24.921  40.386   4.199
54497W        W22891  22.625  20.794   0.026
54498W        W22892  19.668  43.789   1.733
54499W        W22893  34.127  31.940   4.904
54500W        W22894  11.355  15.395  14.417
54501W        W22895   0.632  33.489   3.835
54502W        W22896  30.504  18.332   2.150
54503W        W22897  23.026  30.239   1.306
54504W        W22898  23.148  12.173  10.651
54505W        W22899   8.759  18.189   2.753
54506W        W22900   7.826  26.392  10.738
54507W        W22901  35.988   6.255   3.616
54508W        W22902  16.283   2.571  14.146
54509W        W22903  36.554  38.423   4.390
54510W        W22904  25.974  31.972  12.332
54511W        W22905  13.226   4.307   4.524
54512W        W22906  18.171  12.367   0.888
54513W        W22907  36.930  38.934   2.745
54514W        W22908  23.391  38.431   4.260
54515W        W22909  33.752  39.482  14.464
54516W        W22910  28.560   1.769   1.283
54517W        W22911  25.191   2.220  13.607
54518W        W22912   7.779  19.549   2.767
54519W        W22913  28.991  43.110  12.791
54520W        W22914  25.753  42.722   4.522
54521W        W22915  22.243  30.042  13.974
54522W        W22916  21.135  22.067   0.522
54523W        W22917  39.832  17.004  14.409
54524W        W22918  41.867   2.145  14.254
54525W        W22919  32.604  39.540   1.810
54526W        W22920  13.332  17.199   0.647
54527W        W22921  32.038  44.449  11.042
54528W        W22922  22.427  27.013  12.349
54529W        W22923  24.354   9.193   5.071
54530W        W22924  32.858  40.674   3.236
54531W        W22925   8.230  11.735  14.223
54532W        W22926  11.718   4.662  14.825
54533W        W22927  27.175  21.818   0.667
54534W        W22928  18.515  18.688   3.379
54535W        W22929   3.765  20.531   1.385
54536W        W22930  42.755  17.108   3.261
54537W        W22931   5.523  24.610   3.193
54538W        W22932  37.481   5.225  14.201
54539W        W22933  32.558  36.066   3.680
54540W        W22934   1.213  23.943  14.699
54541W        W22935   9.190  36.943   3.212
54542W        W22936  22.937   7.300   0.347
54543W        W22937  25.210  25.214  13.977
54544W        W22938  41.425  29.638   4.596
54545W        W22939  21.584  37.828  14.857
54546W        W22940  29.424  25.289  13.784
54547W        W22941  26.055  31.571   1.417
54548W        W22942  25.221  30.668  11.557
54549W        W22943  36.077  18.912  11.594
54550W        W22944  43.716   2.133  11.544
54551W        W22945   5.330   2.489   4.166
54552W        W22946  44.663  21.186  14.097
54553W        W22947  18.205  22.970  12.953
54554W        W22948  23.639  16.584  14.323
54555W        W22949  24.183  12.718   2.197
54556W        W22950  15.124  42.906  13.443
54557W        W22951  20.340  20.378   2.534
54558W        W22952  32.448  27.283   2.599
54559W        W22953  12.189  32.212  13.477
54560W        W22954  31.710  15.334  14.131
54561W        W22955  12.010  28.459  11.309
54562W        W22956  14.312  37.577  13.793
54563W        W22957  30.604  26.513  13.678
54564W        W22958  10.857  17.493   3.516
54565W        W22959   9.704  26.923  12.887
54566W        W22960  19.608  12.854  12.058
54567W        W22961   1.444  17.156   1.362
54568W        W22962  29.807   3.773   1.883
54569W        W22963  39.333  30.818   3.286
54570W        W22964  39.292  38.043  13.148
54571W        W22965   1.409  20.614   1.804
54572W        W22966  11.207  39.863   0.956
54573W        W22967  12.778  15.636  12.394
54574W        W22968   8.821  20.744  12.380
54575W        W22969  30.034   5.356  13.887
54576W        W22970  13.741  34.175  11.019
54577W        W22971  38.360  39.416  10.817
54578W        W22972  23.526  21.832  14.945
54579W        W22973  32.806  11.748   4.593
54580W        W22974  12.526   2.701   2.921
54581W        W22975  16.216  33.104  14.124
54582W        W22976  40.155  34.360  11.985
54583W        W22977  34.981  18.125  12.997
54584W        W22978  36.537   0.547   1.908
54585W        W22979  11.212  12.429  14.467
54586W        W22980  10.913  10.813  13.592
54587W        W22981  26.499  31.591  11.143
54588W        W22982  17.157   0.559   1.354
54589W        W22983   4.006  32.568   3.182
54590W        W22984  13.751  39.079   2.171
54591W        W22985  12.868  35.408   0.879
54592W        W22986  32.707  42.999  11.451
54593W        W22987  13.775   0.847  11.396
54594W        W22988  15.677  26.908   0.393
54595W        W22989   5.979  19.053   2.471
54596W        W22990   3.742  20.787   0.284
54597W        W22991  32.748  35.512  12.338
54598W        W22992  35.936   8.649   3.408
54599W        W22993  11.457   8.075  13.154
54600W        W22994   4.263  37.836   2.858
54601W        W22995  30.684  40.986   1.408
54602W        W22996  15.319  34.889  10.431
54603W        W22997  21.206  35.673   4.463
54604W        W22998   3.687  24.143   1.253
54605W        W22999  16.131  14.727  11.409
54606W        W23000  13.401  41.123  11.014
54607W        W23001  11.742   7.474   2.956
54608W        W23002  40.263   6.276  11.053
54609W        W23003   2.023   3.886  13.133
54610W        W23004  19.470  29.751   2.273
54611W        W23005  40.872   5.232  13.440
54612W        W23006   9.211  22.071  13.299
54613W        W23007  33.535  13.128  12.674
54614W        W23008  32.239  19.172  13.465
54615W        W23009  20.155  14.883   3.355
54616W        W23010  34.201  35.298  11.080
54617W        W23011   4.993  30.723   1.377
54618W        W23012  42.382  36.881   1.016
54619W        W23013   4.475   1.332   1.429
54620W        W23014  35.735  28.314  13.309
54621W        W23015  16.448  21.509   2.315
54622W        W23016  19.764   3.397   0.252
54623W        W23017  19.709  28.177   5.093
54624W        W23018  24.382  35.874  11.888
54625W        W23019  21.039  17.526  12.423
54626W        W23020  40.326  15.271   0.244
54627W        W23021  43.495  24.699   0.862
54628W        W23022   4.821  30.080  11.569
54629W        W23023  31.003  17.064   2.902
54630W        W23024  24.205  11.828  11.218
54631W        W23025  38.463  35.497   2.333
54632W        W23026  35.363  37.386   0.310
54633W        W23027  14.666   4.110  11.102
54634W        W23028   4.181  25.312   0.418
54635W        W23029   4.980   9.834   3.728
54636W        W23030  15.864   5.020   4.106
54637W        W23031  36.372  41.517   2.147
54638W        W23032   5.402  17.890   0.304
54639W        W23033  38.509  40.551   2.893
54640W        W23034  29.990  15.846  10.692
54641W        W23035  24.398  39.745   3.349
54642W        W23036  31.329  38.131   3.115
54643W        W23037  40.440  30.912  14.881
54644W        W23038  26.876  23.514   1.919
54645W        W23039  40.540   2.282   3.320
54646W        W23040   2.701   1.303  12.032
54647W        W23041   6.553  16.636   1.335
54648W        W23042   6.176   1.381  10.677
54649W        W23043  39.912  29.862  12.194
54650W        W23044   4.699  33.694   0.448
54651W        W23045  20.484  23.715   0.204
54652W        W23046  12.351  15.781   2.432
54653W        W23047  19.583  10.404  13.052
54654W        W23048  44.558   6.403   1.375
54655W        W23049  10.440  21.175  13.430
54656W        W23050  13.444  30.562   5.028
54657W        W23051  20.764  26.933   3.061
54658W        W23052  19.686  33.628  10.720
54659W        W23053  17.754  44.490   0.195
54660W        W23054  44.223  26.869   4.815
54661W        W23055   0.367  32.045   2.770
54662W        W23056  26.697  26.426  11.663
54663W        W23057  38.550   5.278   0.030
54664W        W23058  11.378  33.599  12.469
54665W        W23059  17.206   5.422  11.506
54666W        W23060  26.671  25.055  14.371
54667W        W23061  41.978  12.176  11.962
54668W        W23062  16.283  31.015   0.021
54669W        W23063  32.055   8.924   3.865
54670W        W23064  22.534  35.930   4.016
54671W        W23065  14.976  31.759  13.494
54672W        W23066  23.918  28.671  13.857
54673W        W23067  19.155  29.985   4.941
54674W        W23068  37.278  11.202  11.480
54675W        W23069   6.947  32.940  13.616
54676W        W23070  39.913   6.002   2.298
54677W        W23071  17.068  22.822   0.257
54678W        W23072  24.327  29.916   2.310
54679W        W23073  31.130   3.384  13.078
54680W        W23074   5.921  11.333  14.911
54681W        W23075  43.981  13.182  12.471
54682W        W23076  13.473  30.422   0.898
54683W        W23077  21.585  15.195   4.787
54684W        W23078  11.672  25.217   0.501
54685W        W23079   9.545  32.025   0.780
54686W        W23080  40.871   3.050  14.814
54687W        W23081  23.728  35.378  12.483
54688W        W23082  37.421  28.139  10.698
54689W        W23083  27.294  42.867   2.401
54690W        W23084  19.938  40.584  10.459
54691W        W23085  25.851  34.691   3.582
54692W        W23086  27.497  35.638   1.390
54693W        W23087   7.195   8.433  13.465
54694W        W23088  44.764  36.860  13.478
54695W        W23089  42.259  25.564   0.938
54696W        W23090  25.126  29.246  10.431
54697W        W23091  12.359  27.490  14.388
54698W        W23092   1.358  31.465   3.755
54699W        W23093   5.320   2.407  11.539
54700W        W23094  26.247  33.570  13.877
54701W        W23095  19.705   0.290   1.156
54702W        W23096  15.129  36.889   0.911
54703W        W23097  17.974  12.508  11.597
54704W        W23098  41.290  38.521   1.909
54705W        W23099  11.654  22.267  10.737
54706W        W23100   9.363  19.045  12.465
54707W        W23101  18.387  13.754  12.993
54708W        W23102   0.222   6.868   0.368
54709W        W23103  39.591  27.898   1.812
54710W        W23104   7.740  33.260  13.107
54711W        W23105  33.410  16.107   4.328
54712W        W23106  44.523  37.499  14.943
54713W        W23107  41.868   2.530   1.213
54714W        W23108  16.285   9.336   4.609
54715W        W23109  12.057  39.838  14.356
54716W        W23110  11.667  44.388   2.853
54717W        W23111   9.625  19.238  14.750
54718W        W23112   2.778  40.436   0.780
54719W        W23113  24.628  37.117  13.030
54720W        W23114  10.275  20.448   1.297
54721W        W23115   4.188  23.233   4.090
54722W        W23116   2.407   5.536  14.008
54723W        W23117  13.865  37.561  14.039
54724W        W23118  19.735  35.847  12.802
54725W        W23119   4.665  15.295  11.118
54726W        W23120  41.103  14.512  14.582
54727W        W23121  12.889   5.268  14.089
54728W        W23122  25.204   2.720   4.538
54729W        W23123  30.701  21.391   2.825
54730W        W23124  32.855   0.957   2.743
54731W        W23125  19.449  41.276  12.546
54732W        W23126  32.027  16.577  12.014
54733W        W23127   1.866  13.544  11.263
54734W        W23128  15.275   6.901   0.395
54735W        W23129  37.953  26.539  14.300
54736W        W23130  31.498  19.553   0.101
54737W        W23131  10.518  42.387  10.855
54738W        W23132  33.550   8.734  10.757
54739W        W23133  39.282  18.246  14.412
54740W        W23134  36.963  31.573  11.655
54741W        W23135  30.526   7.940   2.363
54742W        W23136  36.610  16.806   2.746
54743W        W23137  29.233  43.483   3.032
54744W        W23138  19.231  19.180   3.858
54745W        W23139  25.701   0.755  12.938
54746W        W23140  36.599  23.320  13.533
54747W        W23141   2.164  14.998   3.478
54748W        W23142  43.382   9.167   4.683
54749W        W23143  22.532  32.882  12.381
54750W        W23144  32.159  29.973  11.846
54751W        W23145  30.885  35.699  13.119
54752W        W23146  31.639  27.631   1.973
54753W        W23147  42.037   7.495  12.035
54754W        W23148  12.651  16.982   4.528
54755W        W23149  20.577   0.877   0.288
54756W        W23150  38.177  40.726   0.373
54757W        W23151  17.423  29.252   1.406
54758W        W23152  31.904  28.052   3.401
54759W        W23153  21.692  19.036   4.649
54760W        W23154  25.479  21.511  14.883
54761W        W23155  27.718  44.808  12.316
54762W        W23156  15.310  38.870   5.488
54763W        W23157   3.799  28.118   4.124
54764W        W23158  12.599   7.697  12.606
54765W        W23159  38.976  23.025  13.826
54766W        W23160  40.410  28.195  11.141
54767W        W23161  43.724  25.049   1.822
54768W        W23162  30.599  23.263   0.747
54769W        W23163  20.161  21.562   4.700
54770W        W23164  18.244  30.218   3.209
54771W        W23165  14.191  21.125  13.025
54772W        W23166  22.648   9.385   3.676
54773W        W23167  30.211   0.502   1.355
54774W        W23168  12.235  25.217   1.413
54775W        W23169   9.949  27.447   2.481
54776W        W23170  43.541  19.920   1.919
54777W        W23171  28.162   7.791  13.376
54778W        W23172  15.262  12.266  11.666
54779W        W23173  24.406  12.871  10.715
54780W        W23174  38.285  20.671   4.412
54781W        W23175   0.719   4.057   4.272
54782W        W23176  18.580  29.984  13.301
54783W        W23177  42.486  30.636  12.922
54784W        W23178  38.945  25.411   4.736
54785W        W23179   5.659  27.985   3.199
54786W        W23180  24.452  20.274   1.740
54787W        W23181  35.361  32.480  14.290
54788W        W23182  25.690  36.983   3.141
54789W        W23183  37.976  18.205  12.495
54790W        W23184   8.771   3.832   4.151
54791W        W23185   1.441   0.700  13.849
54792W        W23186  29.523  34.344  10.619
54793W        W23187  22.997  24.531   3.629
54794W        W23188  41.562  13.684   3.674
54795W        W23189  36.639  43.861  10.662
54796W        W23190   9.340   3.832   0.833
54797W        W23191  34.863  43.566   2.875
54798W        W23192   4.999   1.695   0.805
54799W        W23193   1.446  44.309   2.066
54800W        W23194  22.163  29.371  14.078
54801W        W23195  19.478  24.569   4.121
54802W        W23196   8.290  31.081  13.959
54803W        W23197  30.456   1.907   3.779
54804W        W23198  39.750  43.882  13.852
54805W        W23199  41.778  26.621   2.829
54806W        W23200  18.929  19.312  11.103
54807W        W23201  42.052  18.798  14.345
54808W        W23202  20.024  10.934   0.369
54809W        W23203  26.626  40.446  14.976
54810W        W23204   4.920  23.762   2.407
54811W        W23205  39.617  43.904  11.984
54812W        W23206  44.027   2.912  11.531
54813W        W23207  31.155  23.568   3.266
54814W        W23208  36.011  23.054   4.798
54815W        W23209  19.890   4.737  11.518
54816W        W23210  12.521  16.561   2.843
54817W        W23211  12.653   1.915  14.769
54818W        W23212  21.491  41.926  11.102
54819W        W23213  27.995  19.497  12.635
54820W        W23214  14.236  33.216   1.233
54821W        W23215  36.981   1.555   3.423
54822W        W23216  10.772  32.020  13.930
54823W        W23217   9.506   6.684   3.888
54824W        W23218  33.151  27.770  11.555
54825W        W23219  42.991   3.518   4.976
54826W        W23220   7.705  13.201  13.888
54827W        W23221  21.132  26.254   4.570
54828W        W23222  17.128  43.827   2.190
54829W        W23223  30.689  13.130  14.429
54830W        W23224  29.890   5.990  14.334
54831W        W23225  31.736  26.018   2.142
54832W        W23226  30.728   6.625   0.625
54833W        W23227  14.310  34.414   2.615
54834W        W23228  19.778  41.498  12.897
54835W        W23229   8.696  12.041  14.265
54836W        W23230   8.827  25.556   1.134
54837W        W23231  23.979   5.676  13.333
54838W        W23232   5.559   8.948  11.932
54839W        W23233   1.052  29.858   3.293
54840W        W23234   6.463  38.275   0.777
54841W        W23235  17.631  30.404  13.453
54842W        W23236  20.835   6.352   2.899
54843W        W23237  41.601  11.502  10.636
54844W        W23238   0.890   0.686  11.780
54845W        W23239   3.451  12.279   0.390
54846W        W23240  15.821  32.147   2.328
54847W        W23241   6.205  36.159  12.055
54848W        W23242  44.263  32.346   0.875
54849W        W23243  10.754   5.435   1.316
54850W        W23244  36.441  25.613   0.932
54851W        W23245  44.312   4.209  10.596
54852W        W23246  17.375  34.728  13.438
54853W        W23247   8.518  35.457   1.314
54854W        W23248  39.530  34.442   2.692
54855W        W23249  15.387   5.373  14.245
54856W        W23250  28.489  24.218   4.548
54857W        W23251  15.521  27.513  14.736
54858W        W23252   3.463  19.579   0.291
54859W        W23253  22.625  27.119   2.198
54860W        W23254  40.465  28.099   1.948
54861W        W23255  43.065  31.074   1.998
54862W        W23256  36.794  33.953  12.935
54863W        W23257  34.113  14.818  13.479
54864W        W23258  25.475  11.768  13.388
54865W        W23259  16.715   2.515  14.409
54866W        W23260  11.391   9.168  13.410
54867W        W23261   0.378  28.589   2.837
54868W        W23262  31.150  42.519   1.892
54869W        W23263   0.569  37.140  10.184
54870W        W23264  43.087  36.913   0.546
54871W        W23265  41.548  19.009   1.378
54872W        W23266  16.349  22.307  11.501
54873W        W23267  35.591  25.820   0.832
54874W        W23268  21.580   1.912   0.410
54875W        W23269  12.912  22.619   1.964
54876W        W23270   5.808   8.687  13.030
54877W        W23271  15.118  23.558  11.121
54878W        W23272   3.633  44.287   5.168
54879W        W23273   2.359   0.308   3.730
54880W        W23274  30.037  44.811  10.977
54881W        W23275  14.235  35.858  12.525
54882W        W23276  35.021   2.635  13.340
54883W        W23277  26.216  31.566  11.615
54884W        W23278  33.768  39.525  12.545
54885W        W23279  27.996  21.136   5.377
54886W        W23280  38.436  27.175   4.877
54887W        W23281  29.003  30.700   3.196
54888W        W23282  26.821  16.188  12.079
54889W        W23283  34.075  27.092  10.960
54890W        W23284   5.222  43.338   1.821
54891W        W23285  15.939  20.979   0.756
54892W        W23286   6.845   6.237  13.365
54893W        W23287   4.165  44.093   3.555
54894W        W23288   7.926  31.188  14.998
54895W        W23289  21.049  26.209  12.988
54896W        W23290  14.179  19.019   1.678
54897W        W23291  15.064   3.845   3.394
54898W        W23292  29.338  25.710   1.488
54899W        W23293  20.773  25.870  13.475
54900W        W23294  23.447  18.841  11.663
54901W        W23295  28.361  14.681   3.569
54902W        W23296  39.907  13.398  11.918
54903W        W23297  34.330  41.589  14.694
54904W        W23298  36.467   4.157   3.144
54905W        W23299  22.205  36.361   1.381
54906W        W23300  13.122  31.880   3.221
54907W        W23301  24.029   7.224  13.565
54908W        W23302   6.709  12.611  13.744
54909W        W23303   5.021  26.404   2.816
54910W        W23304  21.327  41.009   4.980
54911W        W23305  30.466  41.380   2.107
54912W        W23306  44.948  21.144  11.700
54913W        W23307  30.905  38.847  10.721
54914W        W23308  41.469  40.982  10.945
54915W        W23309  26.475   4.324  13.416
54916W        W23310   3.811   5.457  13.729
54917W        W23311  35.199  35.940   4.494
54918W        W23312  40.862   7.162   1.193
54919W        W23313  31.357  24.697  11.498
54920W        W23314   5.966   1.701  14.093
54921W        W23315  23.382  21.118   3.472
54922W        W23316  43.372  21.018  14.897
54923W        W23317  13.170  43.283   0.543
54924W        W23318   8.226  37.289   3.256
54925W        W23319   2.739  10.679  11.899
54926W        W23320  22.779  39.417   0.824
54927W        W23321  30.441  38.292   2.219
54928W        W23322  44.034   3.736   0.803
54929W        W23323   1.913  12.138   3.721
54930W        W23324  24.903  26.996   3.557
54931W        W23325   4.225  35.299   1.676
54932W        W23326   6.401  33.989  11.894
54933W        W23327  36.858  31.031  10.406
54934W        W23328  26.159  39.406  11.010
54935W        W23329  43.307  22.389  12.742
54936W        W23330   8.760  32.207  12.143
54937W        W23331  37.759   0.706  14.912
54938W        W23332  14.761   0.258  13.032
54939W        W23333  25.603   0.325   2.319
54940W        W23334  41.293  25.440   4.246
54941W        W23335  23.122  13.499   1.089
54942W        W23336   6.961  22.653   4.255
54943W        W23337  26.466  26.438  14.721
54944W        W23338  16.142   8.339  13.509
54945W        W23339  10.452   4.959  12.840
54946W        W23340  14.210  29.529   0.458
54947W        W23341  23.245  10.913   2.750
54948W        W23342  12.042  39.009   1.778
54949W        W23343  40.986  36.840   0.555
54950W        W23344  30.831  41.520  11.218
54951W        W23345  43.446  32.824   1.356
54952W        W23346   5.415   8.345   4.253
54953W        W23347  19.142  41.713  12.512
54954W        W23348  32.992   8.688  12.526
54955W        W23349  11.628  43.508   3.127
54956W        W23350  19.704   4.758   5.038
54957W        W23351  38.829   7.511  14.407
54958W        W23352   6.543  43.198   9.802
54959W        W23353  27.643   2.940  10.422
54960W        W23354  16.683  15.538   4.732
54961W        W23355   6.686  40.998  14.513
54962W        W23356  43.025  24.530   3.171
54963W        W23357   9.507  14.653  10.725
54964W        W23358  12.593  11.847   4.587
54965W        W23359   9.612  30.465   3.770
54966W        W23360  28.822  41.983  11.631
54967W        W23361  44.702  40.406   0.874
54968W        W23362  14.142  32.172   0.382
54969W        W23363  23.324  29.363   0.086
54970W        W23364   7.499  39.739  12.367
54971W        W23365   1.789  37.351  14.721
54972W        W23366  30.069  42.955  14.793
54973W        W23367  18.346   2.468   1.425
54974W        W23368   2.422   2.076   3.267
54975W        W23369  10.374   1.313   1.421
54976W        W23370  10.436  38.032   0.734
54977W        W23371   0.007  18.176  12.027
54978W        W23372  27.648  41.359   2.555
54979W        W23373  25.662  38.781  11.554
54980W        W23374  44.867   5.844   2.175
54981W        W23375   6.671  18.023   2.978
54982W        W23376  23.893  13.605   2.116
54983W        W23377  28.848  32.193   5.060
54984W        W23378   0.311  24.658  14.638
54985W        W23379  35.657  24.502   3.610
54986W        W23380   5.156  43.976  12.994
54987W        W23381  35.501  35.527  10.719
54988W        W23382  15.240  23.204   4.246
54989W        W23383  32.539   8.432  12.544
54990W        W23384  34.294  10.618   4.283
54991W        W23385   3.821  29.030   3.422
54992W        W23386  31.712  26.984  14.360
54993W        W23387  31.019  35.040  12.497
54994W        W23388  35.681  35.916  14.482
54995W        W23389   1.973   7.103  12.172
54996W        W23390  26.185  22.976  11.435
54997W        W23391  31.592  39.508   4.135
54998W        W23392  10.130   7.864  13.847
54999W        W23393  14.045  43.199   0.295
55000W        W23394  11.289  35.457  11.307
55001W        W23395   1.243  27.869  11.906
55002W        W23396   4.704  25.214  14.280
55003W        W23397  26.062  42.933   1.216
55004W        W23398   4.530  26.320   1.856
55005W        W23399  13.027   9.979   4.655
55006W        W23400  35.028   5.957   4.106
55007W        W23401  32.446  39.470   0.304
55008W        W23402  44.528  39.906  14.838
55009W        W23403  40.833  11.297  14.361
55010W        W23404   5.578  44.038   3.751
55011W        W23405  20.555  19.482  14.019
55012W        W23406  43.374  37.445   3.957
55013W        W23407   8.649  23.237   0.860
55014W        W23408  16.287  22.026  14.008
55015W        W23409  31.990  17.619  12.853
55016W        W23410  30.236  11.683   4.946
55017W        W23411  23.724  24.389   2.190
55018W        W23412  13.615  29.111   4.728
55019W        W23413  43.001  40.308   1.289
55020W        W23414  42.323  22.068  12.431
55021W        W23415   5.915  28.157   2.743
55022W        W23416   4.397  25.355  12.574
55023W        W23417   2.683  11.712   3.188
55024W        W23418  13.562  38.606  12.547
55025W        W23419  41.627   8.170  12.535
55026W        W23420  20.014  21.985  11.208
55027W        W23421  20.767  39.617  13.539
55028W        W23422  24.674   9.742   2.195
55029W        W23423  26.012  44.434  11.929
55030W        W23424  32.189  13.749  13.778
55031W        W23425  14.616  35.325  14.737
55032W        W23426  16.787   0.052   2.154
55033W        W23427  41.508   5.787   2.192
55034W        W23428  25.201  42.846   2.411
55035W        W23429  25.053  39.233   0.975
55036W        W23430   6.787  22.042   4.608
55037W        W23431   7.733  17.276  12.440
55038W        W23432  15.236  34.906  12.850
55039W        W23433   2.466  39.536   4.760
55040W        W23434   5.513  14.610  13.930
55041W        W23435  15.841  44.842  14.406
55042W        W23436   2.396  22.717  13.964
55043W        W23437  13.788  31.899   1.522
55044W        W23438  44.800  27.544   0.836
55045W        W23439   2.353  28.459  12.672
55046W        W23440  26.786  26.575  12.470
55047W        W23441   8.503  28.455  14.505
55048W        W23442  38.483  40.714  10.990
55049W        W23443  36.686  26.666   0.941
55050W        W23444  18.647  19.259  14.994
55051W        W23445  19.096  28.897   2.258
55052W        W23446   4.770   1.272   0.587
55053W        W23447  40.072  37.022   4.141
55054W        W23448  43.782  44.847   2.763
55055W        W23449  25.703   5.935   1.220
55056W        W23450  38.560  25.080   2.783
55057W        W23451  14.072   3.666  10.741
55058W        W23452  41.777  29.377   3.333
55059W        W23453  39.502  40.776  13.054
55060W        W23454   5.675  29.109   1.293
55061W        W23455  37.049  18.606  11.547
55062W        W23456  33.141  10.767  12.888
55063W        W23457  13.030  34.993   4.295
55064W        W23458   9.254  14.321  12.149
55065W        W23459  30.669   5.210   2.690
55066W        W23460  31.712  30.658  12.933
55067W        W23461  32.847  22.317  13.468
55068W        W23462  22.425  23.968   1.232
55069W        W23463  27.974  42.349  12.433
55070W        W23464   3.635  23.782   4.531
55071W        W23465  32.140  26.719  14.231
55072W        W23466   4.207   9.445  11.766
55073W        W23467  16.851   9.869  11.884
55074W        W23468  28.459  24.111  13.419
55075W        W23469  44.956  20.594  10.396
55076W        W23470  42.831  21.246   4.289
55077W        W23471  17.594  16.078  12.979
55078W        W23472  44.260  44.797   4.104
55079W        W23473  23.477  33.126   2.878
55080W        W23474   9.334  29.408  11.269
55081W        W23475  20.562  26.600   3.938
55082W        W23476  44.882   2.761   4.296
55083W        W23477  30.316  28.085   1.278
55084W        W23478   4.295  31.374  12.111
55085W        W23479  34.539  10.063   1.357
55086W        W23480  31.740  33.639  13.674
55087W        W23481  28.425  31.848   2.431
55088W        W23482   2.340  17.187   3.664
55089W        W23483   0.975  42.373   2.881
55090W        W23484  21.999  44.389  13.727
55091W        W23485  12.351   8.628  13.429
55092W        W23486  20.794   5.887  13.351
55093W        W23487  33.091  41.598  12.094
55094W        W23488  35.984  29.599   3.582
55095W        W23489  24.653  18.603  11.062
55096W        W23490  38.407   0.566   1.747
55097W        W23491  18.131   3.859   0.139
55098W        W23492  23.632   7.337  13.008
55099W        W23493   5.761  34.220   2.923
55100W        W23494  19.702  41.024  11.687
55101W        W23495  41.444  38.837  12.173
55102W        W23496  40.320  30.667  11.303
55103W        W23497  28.898  18.209  10.859
55104W        W23498   2.567  27.357  14.552
55105W        W23499  39.531  36.287   2.229
55106W        W23500  26.041  13.009   2.264
55107W        W23501  17.567  30.617   3.706
55108W        W23502  11.065  36.995   2.100
55109W        W23503  22.760  22.419  11.441
55110W        W23504   7.318  12.314   0.330
55111W        W23505  11.904  38.472   2.620
55112W        W23506  34.109   8.254  13.312
55113W        W23507   8.748  21.918   3.978
55114W        W23508   4.353  32.598  13.351
55115W        W23509   8.296  13.047   2.774
55116W        W23510  21.932   5.414   3.242
55117W        W23511  40.461  41.506  12.099
55118W        W23512  30.019  40.447   1.685
55119W        W23513  14.446  28.568  14.926
55120W        W23514  17.062  13.346   1.788
55121W        W23515   6.681  34.026   3.257
55122W        W23516  39.055   4.702  14.879
55123W        W23517  16.837  44.358  10.933
55124W        W23518  35.448  28.112   2.048
55125W        W23519  43.247  19.832   1.108
55126W        W23520  17.513  10.354  11.490
55127W        W23521   9.083  37.359  12.866
55128W        W23522  33.499  42.551  13.835
55129W        W23523  43.271  43.491  14.000
55130W        W23524  17.823   8.319   2.205
55131W        W23525  21.618   0.884   0.330
55132W        W23526  40.871  32.405   1.266
55133W        W23527  14.637  44.050   2.287
55134W        W23528  26.156  38.107   3.310
55135W        W23529   2.372  32.818   2.519
55136W        W23530  17.689  39.827   4.514
55137W        W23531   6.944  36.847  14.899
55138W        W23532  29.582  31.527   4.194
55139W        W23533  30.384  19.698   0.707
55140W        W23534  32.807  24.127  11.219
55141W        W23535  18.699  31.045   2.727
55142W        W23536  18.683   8.633  11.278
55143W        W23537   5.272  31.647  13.569
55144W        W23538  24.826  12.651  11.991
55145W        W23539  26.734  27.036  13.199
55146W        W23540  21.213  22.852   4.345
55147W        W23541   8.250  22.850  13.848
55148W        W23542  33.447  36.419  11.635
55149W        W23543  18.318  43.075  11.951
55150W        W23544  30.218  27.679  14.993
55151W        W23545  25.255  18.251   0.599
55152W        W23546   4.784  19.408  11.545
55153W        W23547  44.528  38.973  10.643
55154W        W23548   8.684   0.701  13.465
55155W        W23549  19.050  25.507   0.166
55156W        W23550  14.866  22.559   3.163
55157W        W23551  20.670  32.204   5.004
55158W        W23552  26.451  14.385   1.543
55159W        W23553  40.415  23.747  12.965
55160W        W23554  14.688   0.553   0.695
55161W        W23555  16.623  30.900  14.539
55162W        W23556  16.461  40.518  11.881
55163W        W23557  21.412  43.954  14.837
55164W        W23558  36.604  39.485   3.268
55165W        W23559  14.810  42.036  12.841
55166W        W23560  42.282  10.370   3.764
55167W        W23561  33.394  44.237   4.637
55168W        W23562  22.037  20.923   3.722
55169W        W23563  26.205  32.152  11.246
55170W        W23564  15.497   1.526   3.111
55171W        W23565  37.700   9.895  13.738
55172W        W23566  40.248  16.536  13.853
55173W        W23567  30.197  37.425   2.249
55174W        W23568  34.854   8.321  11.171
55175W        W23569  11.905  33.397  11.181
55176W        W23570  31.986  24.637   3.161
55177W        W23571  42.544  15.607   4.465
55178W        W23572  11.285   1.258  12.660
55179W        W23573  12.776  35.841  10.893
55180W        W23574  25.379  16.585  13.052
55181W        W23575  36.449  27.890  12.145
55182W        W23576  28.867  20.578  14.907
55183W        W23577  17.061  11.263   3.319
55184W        W23578  14.318  23.980  11.177
55185W        W23579   8.300  39.400   2.023
55186W        W23580  40.390  41.466  10.283
55187W        W23581  39.517  14.093  11.601
55188W        W23582   1.472  20.908   0.810
55189W        W23583   2.483  26.991   1.936
55190W        W23584  38.464   0.759  10.707
55191W        W23585  20.872  32.447   2.245
55192W        W23586  22.792   7.859  12.158
55193W        W23587  17.095  36.976   2.701
55194W        W23588   3.766  21.217  14.345
55195W        W23589  16.429   9.376  14.798
55196W        W23590  40.141   9.315   2.327
55197W        W23591  11.151  42.157  13.947
55198W        W23592  12.162  32.062   3.102
55199W        W23593  30.537  24.330  14.996
55200W        W23594   5.994  25.669   1.260
55201W        W23595  12.945  15.173   1.388
55202W        W23596  22.604   9.829  11.401
55203W        W23597  13.936   9.536   4.966
55204W        W23598  38.855  40.006  11.186
55205W        W23599   2.738  21.814  13.522
55206W        W23600  25.368   6.859   2.890
55207W        W23601  36.560   6.004  14.953
55208W        W23602  35.581   7.766  11.650
55209W        W23603  24.230  13.589  13.462
55210W        W23604  36.250  22.125   1.218
55211W        W23605  11.605  24.472  14.469
55212W        W23606  27.436   5.414  12.493
55213W        W23607  29.946  35.054   1.367
55214W        W23608  11.024  28.022   3.637
55215W        W23609   2.917  14.809   9.575
55216W        W23610  39.574  44.006  11.123
55217W        W23611  44.643   3.324   3.247
55218W        W23612  15.140  24.493   1.201
55219W        W23613   7.466  25.159   0.293
55220W        W23614  11.569  43.807  12.105
55221W        W23615   3.524  40.204   1.676
55222W        W23616   9.884  10.278   2.353
55223W        W23617  33.970   4.121  11.903
55224W        W23618  35.738  36.814   2.317
55225W        W23619   1.036  40.346   2.749
55226W        W23620   7.243  25.058   0.805
55227W        W23621  26.889  25.196   1.624
55228W        W23622  30.498  24.144  14.326
55229W        W23623  12.576  42.680   0.462
55230W        W23624   3.803  40.485   0.793
55231W        W23625  38.392   4.291  14.507
55232W        W23626  19.330  19.494   0.854
55233W        W23627  20.549  33.774   3.288
55234W        W23628  19.562  13.833   0.881
55235W        W23629  13.259  21.220   2.230
55236W        W23630  19.864  27.040  11.223
55237W        W23631  11.144  40.229   3.658
55238W        W23632   1.348   9.951   1.676
55239W        W23633  29.064  39.526   4.540
55240W        W23634  17.612  10.890  14.043
55241W        W23635   6.855  32.559  10.706
55242W        W23636  39.190  34.217  10.351
55243W        W23637  31.903  18.284   2.441
55244W        W23638  35.184  43.068  11.665
55245W        W23639   3.315  10.443   5.113
55246W        W23640  33.899   0.869   2.793
55247W        W23641  21.582   9.467  12.407
55248W        W23642  20.777  32.235  13.977
55249W        W23643  24.497  35.077   0.481
55250W        W23644   1.489   2.800  13.933
55251W        W23645  35.240  32.645  13.370
55252W        W23646  22.133  32.629   1.665
55253W        W23647  20.085  42.845   1.993
55254W        W23648  10.689  17.194  13.633
55255W        W23649  41.540  29.093  13.855
55256W        W23650  10.968   1.757   4.635
55257W        W23651  27.013  33.815   1.378
55258W        W23652  33.992  39.394  14.008
55259W        W23653  39.105   4.110   1.744
55260W        W23654  34.588   2.846  11.525
55261W        W23655  24.824  33.114  12.552
55262W        W23656   5.257  26.030   0.987
55263W        W23657  36.483   8.141  12.968
55264W        W23658  39.371   7.548  10.693
55265W        W23659   9.127   2.631  13.705
55266W        W23660  31.938   6.896  13.829
55267W        W23661  18.615   3.413   3.701
55268W        W23662  21.101  42.055  14.909
55269W        W23663  42.019  24.062   0.826
55270W        W23664  24.327  41.906   3.544
55271W        W23665  29.957  31.840  13.079
55272W        W23666  16.232  28.137  11.522
55273W        W23667   7.834  38.265   4.351
55274W        W23668  30.978  21.106   2.148
55275W        W23669  24.755  18.758  12.445
55276W        W23670  27.091  18.139   0.384
55277W        W23671  10.641  23.448   1.789
55278W        W23672  37.012  16.038  12.165
55279W        W23673   1.233  28.074  14.507
55280W        W23674  26.779  22.794   0.348
55281W        W23675  27.948  19.520  14.045
55282W        W23676  33.405  34.809   3.278
55283W        W23677  32.144  22.570  13.928
55284W        W23678  18.025  43.034   4.037
55285W        W23679  23.930  42.746   2.115
55286W        W23680  41.085  30.799  11.584
55287W        W23681  23.775  42.521   3.840
55288W        W23682   1.276  37.395  10.862
55289W        W23683  20.760   0.366  12.080
55290W        W23684  22.226  11.812   3.149
55291W        W23685  25.429   5.744  11.038
55292W        W23686  24.573  43.155   3.053
55293W        W23687   2.757   5.916   1.642
55294W        W23688  28.453  41.336   1.322
55295W        W23689   8.503  12.612  11.520
55296W        W23690   8.335   5.484   4.589
55297W        W23691  33.595  26.999   1.161
55298W        W23692   7.194  18.774   4.097
55299W        W23693  30.484  16.133  11.572
55300W        W23694  30.286  42.235  14.958
55301W        W23695   8.839   5.976  14.427
55302W        W23696  37.989  20.197  10.381
55303W        W23697   3.846  42.332   4.407
55304W        W23698  13.798  17.589   3.766
55305W        W23699  27.702   8.794   2.571
55306W        W23700   3.440   0.668  14.919
55307W        W23701  21.061  34.855   4.473
55308W        W23702  44.442  34.149  13.526
55309W        W23703  28.170  14.348  10.680
55310W        W23704  26.234  37.119   0.236
55311W        W23705  14.135  15.163   2.176
55312W        W23706  25.707   4.808   3.373
55313W        W23707   3.454  43.448   4.671
55314W        W23708   8.818  30.636  12.398
55315W        W23709  20.190  30.540  13.322
55316W        W23710  11.025  44.691  12.157
55317W        W23711  27.211  38.317   4.082
55318W        W23712   7.728  10.337  12.032
55319W        W23713  14.692  22.944  13.594
55320W        W23714  17.593   4.913   3.212
55321W        W23715  14.106  28.961   3.850
55322W        W23716  16.689  42.107   3.136
55323W        W23717   3.423   6.371  11.972
55324W        W23718  13.728   3.377   2.371
55325W        W23719   8.211   9.836   2.454
55326W        W23720  40.344  35.592  10.831
55327W        W23721  14.752  30.086   4.081
55328W        W23722   5.170  34.382  12.253
55329W        W23723  27.960  34.342  13.387
55330W        W23724  32.147  25.127  11.062
55331W        W23725  28.945   8.271   4.818
55332W        W23726   9.300  40.385   2.221
55333W        W23727  42.816  38.449   4.188
55334W        W23728  28.868  30.261  13.908
55335W        W23729  44.037  12.889   0.750
55336W        W23730  13.881   0.679  10.919
55337W        W23731   5.824  42.938   2.230
55338W        W23732  24.671  44.402   2.138
55339W        W23733  13.183  23.098  13.564
55340W        W23734  38.864  16.919   5.076
55341W        W23735  40.052   4.236   1.882
55342W        W23736  26.617  17.224  14.902
55343W        W23737   7.255  20.247   4.450
55344W        W23738  22.726  11.594  12.535
55345W        W23739  44.589  25.101  14.888
55346W        W23740   1.231  41.849  11.938
55347W        W23741   9.041   5.393   2.517
55348W        W23742  37.894  32.611   4.315
55349W        W23743  32.236  11.339  10.327
55350W        W23744   9.865  44.483  12.751
55351W        W23745  37.861  26.038  14.422
55352W        W23746  44.382   8.137   2.785
55353W        W23747  16.195   5.180   3.719
55354W        W23748   2.925  10.200   4.547
55355W        W23749   3.904  37.302  14.330
55356W        W23750  44.884  43.425  13.253
55357W        W23751  31.953   7.939  12.968
55358W        W23752  22.799  13.174  13.989
55359W        W23753  10.684  16.900   1.252
55360W        W23754  28.463   7.836  12.935
55361W        W23755  26.656  41.810   3.699
55362W        W23756  40.954  12.292  11.834
55363W        W23757  30.420  41.279   2.774
55364W        W23758  11.045  40.180   4.544
55365W        W23759  20.363  24.691   5.471
55366W        W23760  21.116  23.778  13.804
55367W        W23761  39.469  16.015  12.357
55368W        W23762  43.298  37.535   1.711
55369W        W23763  44.713  35.522   0.594
55370W        W23764  22.670  40.444  12.540
55371W        W23765   2.454   2.347   1.303
55372W        W23766  26.429  39.323   0.904
55373W        W23767   4.993  13.591  14.479
55374W        W23768   7.355  30.919   0.986
55375W        W23769   4.989  41.773  14.864
55376W        W23770   5.472  31.143  11.664
55377W        W23771   5.125  19.332   3.128
55378W        W23772  27.672  26.004   4.343
55379W        W23773  35.330  29.547   1.625
55380W        W23774  17.789  31.614   2.635
55381W        W23775  11.898  29.996   2.758
55382W        W23776  24.964  18.425  11.605
55383W        W23777  26.090  16.680   0.978
55384W        W23778  34.160  41.078  13.417
55385W        W23779   6.181  42.740   0.236
55386W        W23780  37.559  23.444  13.688
55387W        W23781   0.768  15.972  13.495
55388W        W23782  39.883  41.183  14.715
55389W        W23783  43.361  43.007  14.426
55390W        W23784  37.986  32.483  11.222
55391W        W23785   0.932  26.734  12.213
55392W        W23786  34.610   6.719   2.906
55393W        W23787  21.570   9.812   1.385
55394W        W23788  25.226   7.216   1.831
55395W        W23789   3.017   0.972  12.477
55396W        W23790  33.217  21.643  10.998
55397W        W23791  10.757  32.139   1.360
55398W        W23792  32.947  35.854  13.123
55399W        W23793  13.773  31.351   4.807
55400W        W23794  34.589   9.299   3.894
55401W        W23795  30.490  34.412  12.104
55402W        W23796  26.168   9.665   2.636
55403W        W23797  41.480  39.382  12.137
55404W        W23798   8.341  43.848  10.637
55405W        W23799  43.329   1.182  11.576
55406W        W23800  27.102   1.444  14.447
55407W        W23801  37.041  20.304  12.060
55408W        W23802  31.417  39.478   2.507
55409W        W23803  26.158  25.527   2.204
55410W        W23804  21.279  44.981  11.496
55411W        W23805  29.776  25.177   2.852
55412W        W23806  36.108   9.976  11.910
55413W        W23807   8.664  30.807   0.501
55414W        W23808   3.929  31.492   0.813
55415W        W23809  39.124  29.567   4.660
55416W        W23810   7.242  38.760   0.602
55417W        W23811  39.522  13.610  11.377
55418W        W23812   5.701  26.351  14.440
55419W        W23813  43.304  42.925  11.957
55420W        W23814  19.216  16.360  10.986
55421W        W23815  23.260  26.552   1.869
55422W        W23816  29.183   2.200   4.137
55423W        W23817  35.309  39.380  10.611
55424W        W23818  18.912   9.426  12.952
55425W        W23819   8.886  18.577  11.152
55426W        W23820  16.408  39.194  14.788
55427W        W23821  10.295  29.632  13.565
55428W        W23822  28.504   0.012   0.830
55429W        W23823  27.994   6.757  13.518
55430W        W23824  31.203   5.666  14.699
55431W        W23825  10.734  27.164   2.383
55432W        W23826   7.879   7.168   0.233
55433W        W23827   4.930  38.082  14.835
55434W        W23828  15.177  24.757  14.827
55435W        W23829  28.240  37.051  14.272
55436W        W23830  41.211   3.473   4.567
55437W        W23831  14.640  39.358   9.910
55438W        W23832   5.952  32.660  11.542
55439W        W23833   5.898  27.641   0.740
55440W        W23834  28.619  33.583  12.710
55441W        W23835  21.296  27.913  12.572
55442W        W23836  43.269  30.128  13.383
55443W        W23837  18.744  26.998  12.485
55444W        W23838   2.952   1.714  13.322
55445W        W23839   4.357   1.101   0.010
55446W        W23840  39.816   1.394  13.836
55447W        W23841  24.492   7.853  14.462
55448W        W23842  10.238  12.878  13.081
55449W        W23843  10.181  17.095   1.299
55450W        W23844  43.514  33.889  14.850
55451W        W23845  18.167  11.717   2.631
55452W        W23846   4.755  22.001   1.152
55453W        W23847  26.135  29.145  12.217
55454W        W23848  39.490  27.525  13.538
55455W        W23849  23.276  32.893   3.371
55456W        W23850  43.898  42.348   0.890
55457W        W23851  37.914  29.154   4.428
55458W        W23852   5.513  14.831   2.309
55459W        W23853  25.034   7.303  11.961
55460W        W23854  41.482  24.669  13.370
55461W        W23855  10.643   9.166  10.479
55462W        W23856  44.262  22.175   2.136
55463W        W23857  43.356  33.128   0.407
55464W        W23858  30.866  35.301   4.195
55465W        W23859   4.045  43.093   2.758
55466W        W23860   6.156  35.134   1.367
55467W        W23861  13.869  34.153   2.451
55468W        W23862  10.597  37.739  12.915
55469W        W23863  21.706  34.951   2.296
55470W        W23864   0.438   0.461   3.411
55471W        W23865  11.094  17.585   3.069
55472W        W23866  22.655   4.789  10.666
55473W        W23867   8.520  43.989   4.898
55474W        W23868  10.088  15.272   1.671
55475W        W23869  25.687  33.448   1.410
55476W        W23870  26.000  30.323   3.322
55477W        W23871  17.716  14.611  13.195
55478W        W23872  36.557   7.846  14.335
55479W        W23873  35.261  20.078  11.083
55480W        W23874  17.303  30.096   4.066
55481W        W23875  13.133   1.525   0.926
55482W        W23876   3.137  24.571   1.884
55483W        W23877  36.742  33.522   1.728
55484W        W23878   3.836  27.481  12.060
55485W        W23879  41.107   5.697  13.462
55486W        W23880  28.715  34.911   2.146
55487W        W23881  32.506  22.294   4.773
55488W        W23882  11.305  43.223  11.236
55489W        W23883  19.526   6.882  11.960
55490W        W23884   2.972  16.792  10.577
55491W        W23885  27.083  41.361   5.118
55492W        W23886  32.218   8.382  13.879
55493W        W23887   6.767  14.183   4.907
55494W        W23888  43.039  37.986   1.840
55495W        W23889   4.314  29.989  13.166
55496W        W23890   7.108  36.566   3.008
55497W        W23891  36.547  22.200  12.694
55498W        W23892  33.494  27.696   0.892
55499W        W23893  32.994  28.548   0.782
55500W        W23894  13.736  13.260  10.425
55501W        W23895  34.263  22.197   0.306
55502W        W23896  17.304   3.425   0.571
55503W        W23897  44.314  25.750  12.071
55504W        W23898  41.684  32.449   0.165
55505W        W23899   9.251  12.221   2.338
55506W        W23900  41.297  27.958  11.614
55507W        W23901  12.125  41.750   4.617
55508W        W23902   4.251  28.644   1.736
55509W        W23903   7.826  30.227   3.661
55510W        W23904  44.703   7.725  14.953
55511W        W23905   3.971  29.634  14.481
55512W        W23906  24.361  27.818   4.024
55513W        W23907  16.949  41.282   0.013
55514W        W23908  11.845  41.826  12.488
55515W        W23909   5.063  20.673   4.183
55516W        W23910  13.342  12.221  13.099
55517W        W23911  40.491  18.351   4.038
55518W        W23912  38.058  20.792  13.956
55519W        W23913  43.975  13.686  12.323
55520W        W23914  18.203  21.786   3.557
55521W        W23915   7.891   6.953  14.205
55522W        W23916  35.933  43.817   0.960
55523W        W23917  23.551  28.590  11.217
55524W        W23918  35.280  32.120  13.841
55525W        W23919  42.760  32.372   4.218
55526W        W23920   4.141   9.233   3.108
55527W        W23921   1.236   8.577  11.066
55528W        W23922  40.685  36.575   1.673
55529W        W23923   4.182  10.120  14.830
55530W        W23924  37.111  23.203  12.702
55531W        W23925  35.472  17.412   1.870
55532W        W23926  39.950   1.940   4.519
55533W        W23927  35.891  38.615   4.489
55534W        W23928   8.191  43.342   0.262
55535W        W23929  38.763  33.088   0.921
55536W        W23930  29.545  41.238  11.501
55537W        W23931  13.416  25.668  12.702
55538W        W23932  20.719  24.896   0.610
55539W        W23933  27.046  34.150   4.004
55540W        W23934   8.393  41.296  11.557
55541W        W23935  10.960  39.519  11.245
55542W        W23936  13.205   9.633  12.830
55543W        W23937  17.809   7.755   3.257
55544W        W23938  26.931  11.195  10.759
55545W        W23939  30.651  39.310  11.973
55546W        W23940  30.614   5.036   4.007
55547W        W23941  44.969  27.558   0.357
55548W        W23942  10.924  22.015   2.792
55549W        W23943  21.721  39.396   2.172
55550W        W23944  21.287  40.322   4.310
55551W        W23945  14.218  41.707   1.596
55552W        W23946  15.640  43.561   0.465
55553W        W23947  32.536   7.353   0.639
55554W        W23948  10.140  33.503  10.587
55555W        W23949   0.405  19.167  14.691
55556W        W23950   6.140  16.318  10.707
55557W        W23951   2.264  39.026   3.073
55558W        W23952  43.858  24.191  12.474
55559W        W23953  21.078  23.644   4.975
55560W        W23954   1.195  36.897  12.976
55561W        W23955  40.054  29.569   4.835
55562W        W23956  36.155  33.017   0.405
55563W        W23957  16.700   3.752  10.724
55564W        W23958  23.199  20.607   4.666
55565W        W23959  29.019  26.021  13.438
55566W        W23960  41.299  42.358  14.089
55567W        W23961   4.968   1.406   3.210
55568W        W23962  18.206   9.666   3.241
55569W        W23963  13.546  11.803   1.861
55570W        W23964  26.476  16.517   4.150
55571W        W23965  30.069  34.126  14.334
55572W        W23966  42.430   2.873   2.436
55573W        W23967  32.075  33.456   4.520
55574W        W23968   4.720  17.827   4.142
55575W        W23969  21.512  35.570  10.810
55576W        W23970  11.687  44.464   2.303
55577W        W23971  19.505  16.046  12.018
55578W        W23972   8.112  19.720  11.576
55579W        W23973  35.037  37.123  14.297
55580W        W23974   8.203  42.527  12.923
55581W        W23975   9.221  40.876   4.460
55582W        W23976  35.019  33.698   5.006
55583W        W23977  32.216  40.441  13.301
55584W        W23978   8.664  37.595   0.204
55585W        W23979  12.217   2.704   1.167
55586W        W23980   6.177   4.858  14.488
55587W        W23981  36.883  19.070  11.210
55588W        W23982  30.890   0.033   1.860
55589W        W23983  37.926  35.500   3.768
55590W        W23984  36.120  44.546  14.860
55591W        W23985  38.725  21.625   0.968
55592W        W23986  31.220  22.693   2.834
55593W        W23987  28.125  27.428  10.088
55594W        W23988  14.917  14.481  14.717
55595W        W23989  37.872  16.311   2.933
55596W        W23990  14.663  20.461  10.922
55597W        W23991  32.045  24.016   2.309
55598W        W23992  38.616  17.658  12.303
55599W        W23993  20.791  11.101  14.841
55600W        W23994  28.083   3.185  12.115
55601W        W23995   4.674  10.027   2.131
55602W        W23996  19.150  29.537  10.182
55603W        W23997  43.503   8.851   1.262
55604W        W23998  18.356  11.741  10.313
55605W        W23999  33.399  29.376   0.255
55606W        W24000   2.151  14.167   3.790
55607W        W24001  24.901  16.421   2.375
55608W        W24002  14.403  36.132  13.144
55609W        W24003   4.741  37.844   1.234
55610W        W24004   5.607  39.297  11.029
55611W        W24005   6.331  36.031  14.637
55612W        W24006  14.755  30.997  14.807
55613W        W24007  17.597  13.314  12.833
55614W        W24008  33.894  23.872  13.985
55615W        W24009  36.990  32.528   4.045
55616W        W24010  44.493  10.779   2.358
55617W        W24011  12.037  10.622  11.456
55618W        W24012  23.733   1.460  13.941
55619W        W24013  19.787   6.853  14.561
55620W        W24014  33.925  33.522   1.361
55621W        W24015  44.813  12.355   2.493
55622W        W24016  21.992  24.707   3.643
55623W        W24017   5.661  20.555   2.789
55624W        W24018  24.087   8.168   4.289
55625W        W24019  28.427  26.083   0.495
55626W        W24020   1.844  32.341  11.976
55627W        W24021   1.544  26.496  13.054
55628W        W24022   8.099  40.565  12.911
55629W        W24023   8.581  22.400   4.940
55630W        W24024  31.751  27.766   2.452
55631W        W24025  42.427  12.638   3.289
55632W        W24026  27.712  18.726  12.064
55633W        W24027   2.435   8.129   4.308
55634W        W24028  21.702  44.409  11.905
55635W        W24029  21.527  41.081   1.155
55636W        W24030   8.432   3.990   1.768
55637W        W24031  40.411  19.121  12.985
55638W        W24032  24.512  30.988   0.573
55639W        W24033   9.888  37.996   0.741
55640W        W24034  12.237  31.610   4.667
55641W        W24035  16.637  27.512  14.460
55642W        W24036  22.698  14.135  10.716
55643W        W24037  38.993  35.356   0.029
55644W        W24038   3.948  23.712  14.894
55645W        W24039   1.277  24.286   0.094
55646W        W24040  29.777  21.772   3.239
55647W        W24041  30.470  31.721  12.418
55648W        W24042   8.941  10.334  11.167
55649W        W24043  37.399  18.822   1.691
55650W        W24044  23.261  37.007  13.047
55651W        W24045  25.821  33.672   3.825
55652W        W24046  43.888  25.332   3.738
55653W        W24047  42.977  12.624   3.546
55654W        W24048   1.806   4.566   0.637
55655W        W24049   1.382  38.867   2.148
55656W        W24050   3.434  15.562   1.813
55657W        W24051  44.999  14.191   2.534
55658W        W24052  13.270  19.549  14.331
55659W        W24053  25.994   6.153   0.404
55660W        W24054  35.972  27.306  12.397
55661W        W24055  28.100   2.884  11.172
55662W        W24056  19.578  36.364  10.739
55663W        W24057  25.488  38.385   2.796
55664W        W24058  39.211  37.413   2.709
55665W        W24059  28.944  28.542  13.368
55666W        W24060  29.725  42.830   4.552
55667W        W24061   5.878  12.489   4.996
55668W        W24062  42.514  11.389  12.063
55669W        W24063  21.697  30.172  11.552
55670W        W24064  23.601  30.583   2.441
55671W        W24065  14.084  34.162  13.102
55672W        W24066  30.467   0.872  11.676
55673W        W24067  13.632  24.147  14.937
55674W        W24068  15.532  34.956  14.035
55675W        W24069  38.900  40.932  13.960
55676W        W24070  22.271  39.061   2.668
55677W        W24071  41.714  42.822   4.240
55678W        W24072  27.691  35.537   0.008
55679W        W24073  38.095   7.653  11.077
55680W        W24074  22.208  27.444  14.205
55681W        W24075  26.960  42.526   2.221
55682W        W24076  26.129  34.540  13.947
55683W        W24077  12.561  38.482   4.240
55684W        W24078   5.873   7.266  13.956
55685W        W24079  12.947  43.964  11.639
55686W        W24080  19.123  28.381  13.138
55687W        W24081  25.420  35.072  13.631
55688W        W24082  28.591   6.934  14.810
55689W        W24083  14.894  31.109   0.840
55690W        W24084  17.134   2.843  14.166
55691W        W24085   8.331  27.334   1.175
55692W        W24086  39.528  33.501   2.708
55693W        W24087  17.116  24.681  13.714
55694W        W24088  12.888  22.000  11.286
55695W        W24089  34.389  13.684  12.604
55696W        W24090  31.089  15.083  13.052
55697W        W24091  16.358  16.344   3.328
55698W        W24092  42.688  34.349   4.038
55699W        W24093   1.877  34.018   4.930
55700W        W24094   3.921  20.424  13.922
55701W        W24095  30.127   7.168   4.604
55702W        W24096   5.049  27.919   0.662
55703W        W24097  20.848   4.228  10.652
55704W        W24098  26.986   8.291   3.021
55705W        W24099  28.905  23.120  13.574
55706W        W24100  35.912  33.874  14.152
55707W        W24101  38.564   2.797   2.424
55708W        W24102  11.862  31.534  12.594
55709W        W24103  31.897   7.423  12.055
55710W        W24104  13.104  37.506   0.897
55711W        W24105   5.139  21.932  12.455
55712W        W24106  14.943  40.591   4.073
55713W        W24107  20.806   0.775  11.312
55714W        W24108  14.731   2.494  14.777
55715W        W24109  41.851   0.824  11.182
55716W        W24110  33.257  20.997  14.525
55717W        W24111  27.544  23.240  10.908
55718W        W24112  32.093  43.134  13.944
55719W        W24113  13.628  39.077   0.182
55720W        W24114  12.775   8.247   0.832
55721W        W24115  15.202  11.770  11.575
55722W        W24116  33.183  26.231  11.074
55723W        W24117  18.898  11.337  11.882
55724W        W24118  19.561  31.771  14.382
55725W        W24119  25.717  17.638   0.153
55726W        W24120  38.470   1.548   2.717
55727W        W24121  42.821  32.605  13.651
55728W        W24122  41.819   7.979  12.055
55729W        W24123  16.760  26.112   1.256
55730W        W24124  41.787   0.022  14.606
55731W        W24125   8.735  16.286   1.223
55732W        W24126  21.161  30.562   3.053
55733W        W24127  24.609  14.844  14.717
55734W        W24128  34.117  11.093  12.957
55735W        W24129  35.596   9.934   1.164
55736W        W24130  29.034  15.027   1.249
55737W        W24131  23.272  38.706   2.283
55738W        W24132  26.529  41.587   2.344
55739W        W24133  28.072  23.638  12.789
55740W        W24134  17.908  24.479   4.353
55741W        W24135  30.525  20.785  11.013
55742W        W24136  28.140   9.731  12.208
55743W        W24137  22.788  39.851  14.905
55744W        W24138   3.896  24.407  13.035
55745W        W24139  37.785   9.705  14.211
55746W        W24140  25.666  33.061   2.263
55747W        W24141  13.754  39.278  11.928
55748W        W24142  12.931  13.248  12.570
55749W        W24143  27.635  24.216  13.936
55750W        W24144  23.474  32.512  14.469
55751W        W24145  42.579  23.204   1.360
55752W        W24146  10.375  38.410  11.750
55753W        W24147   2.447  14.205   1.527
55754W        W24148  29.565  21.942   4.841
55755W        W24149  26.127   2.935   0.891
55756W        W24150  19.320  14.937   1.306
55757W        W24151   3.694  25.468  11.537
55758W        W24152  15.225  25.726  10.703
55759W        W24153  11.072  26.225  13.532
55760W        W24154  10.446  37.284   0.238
55761W        W24155  43.501  22.033  13.806
55762W        W24156  40.839   8.714   1.416
55763W        W24157  36.637  35.491  11.606
55764W        W24158  31.237  18.013   3.269
55765W        W24159  30.912   5.850  14.310
55766W        W24160  29.792  43.293   3.809
55767W        W24161  18.123  10.339  10.601
55768W        W24162  26.091  42.323   3.229
55769W        W24163  16.050   4.936  13.993
55770W        W24164  24.019  39.838  10.415
55771W        W24165  26.087  16.214  13.302
55772W        W24166  34.128  34.174   4.331
55773W        W24167   0.701  34.839  14.846
55774W        W24168  14.304  17.271   0.780
55775W        W24169   1.842  27.152  12.017
55776W        W24170  27.007  33.097  12.839
55777W        W24171  22.041  37.459  11.167
55778W        W24172  27.569   7.603   0.250
55779W        W24173   3.503  23.002   1.379
55780W        W24174  13.071  23.407  10.677
55781W        W24175  15.146   4.147  12.510
55782W        W24176   1.927   1.834  13.620
55783W        W24177  17.805   5.788  14.462
55784W        W24178  17.067  44.684   1.895
55785W        W24179  26.453  22.733   0.745
55786W        W24180  11.063  38.376  13.517
55787W        W24181  15.043   4.631  14.115
55788W        W24182  16.228  12.534   1.379
55789W        W24183  18.766  24.569  12.534
55790W        W24184  22.225   3.301   4.634
55791W        W24185   5.022  29.538  13.145
55792W        W24186  43.039  16.655   0.724
55793W        W24187  28.636   8.344  11.098
55794W        W24188  11.623  17.194   1.209
55795W        W24189   3.765  21.173   1.874
55796W        W24190  10.789   0.422  10.662
55797W        W24191  24.670  35.367  12.527
55798W        W24192  15.857  36.996   3.835
55799W        W24193  17.033  33.049  12.100
55800W        W24194  21.111  38.641   1.831
55801W        W24195  32.006  21.043   3.187
55802W        W24196   6.363   6.367  13.865
55803W        W24197  33.633  33.116  10.196
55804W        W24198  30.911  13.758  11.122
55805W        W24199  30.558   8.228  12.098
55806W        W24200  13.877  30.674  14.065
55807W        W24201  40.881  44.150  12.500
55808W        W24202  23.023  24.239   3.193
55809W        W24203  18.345  10.229  11.793
55810W        W24204   3.320  21.604   4.352
55811W        W24205  21.205  28.314   9.865
55812W        W24206  11.786  18.122  12.853
55813W        W24207   4.946  34.152   1.898
55814W        W24208  40.404  36.261  13.926
55815W        W24209  11.640  11.705   2.409
55816W        W24210   2.258  10.091   2.211
55817W        W24211  22.227  11.420  12.474
55818W        W24212  18.592  11.171   4.620
55819W        W24213  44.550  28.858  13.360
55820W        W24214  15.761   6.835   2.162
55821W        W24215   9.823  44.213   2.190
55822W        W24216   2.739   1.802  12.848
55823W        W24217  25.099   0.021  13.858
55824W        W24218   8.148  19.540   1.264
55825W        W24219  31.068  20.584   0.702
55826W        W24220  17.359  36.501   0.795
55827W        W24221   4.808  13.630  12.756
55828W        W24222  24.278  39.753   4.232
55829W        W24223  40.842  29.894  13.019
55830W        W24224  21.472   7.438   4.190
55831W        W24225   7.352   5.815   3.415
55832W        W24226  19.774  28.404   4.632
55833W        W24227  14.790  13.593  12.574
55834W        W24228  37.458  17.290   0.266
55835W        W24229  29.777  42.812  10.337
55836W        W24230  29.913  30.936  12.851
55837W        W24231  13.950  43.022   4.139
55838W        W24232  29.711  23.459  12.106
55839W        W24233  39.750  40.937   3.689
55840W        W24234  21.679   8.724   2.951
55841W        W24235  22.177  37.791   0.495
55842W        W24236   8.192  15.727   3.290
55843W        W24237   0.115  10.152   4.018
55844W        W24238   6.713  27.698   3.616
55845W        W24239  38.528   7.258   2.459
55846W        W24240  39.112  32.874   0.395
55847W        W24241   4.348   2.664  14.719
55848W        W24242   6.611  22.611  12.379
55849W        W24243   3.417  21.385  10.091
55850W        W24244  40.515  37.056   1.838
55851W        W24245  11.857  19.800   1.431
55852W        W24246  31.034  21.063   0.286
55853W        W24247  28.698  17.150  13.152
55854W        W24248  12.379  16.139   3.153
55855W        W24249  26.700  29.355  11.662
55856W        W24250   9.235  11.269  14.059
55857W        W24251   1.839  10.671   1.722
55858W        W24252  24.177  10.663   2.361
55859W        W24253  14.294  36.874   2.794
55860W        W24254  35.906  38.321  10.778
55861W        W24255   8.788  33.198   1.898
55862W        W24256  32.533   2.078  11.239
55863W        W24257  40.357  18.852  12.541
55864W        W24258  40.795  35.170  14.228
55865W        W24259  26.428  23.777   1.792
55866W        W24260   5.849  23.629  12.580
55867W        W24261  39.864   5.720  12.944
55868W        W24262  20.112   2.781   0.227
55869W        W24263  36.928  24.788   4.187
55870W        W24264  17.980   7.862  14.235
55871W        W24265  32.881  31.128  13.427
55872W        W24266  24.974   8.441   2.273
55873W        W24267  39.346  14.127  12.111
55874W        W24268   2.385  23.231   1.651
55875W        W24269  21.207   7.654  13.891
55876W        W24270   2.804  35.075  14.590
55877W        W24271  20.688   5.411  13.565
55878W        W24272  35.622  21.222   4.495
55879W        W24273  17.738  16.076   1.249
55880W        W24274  30.472  14.624  10.781
55881W        W24275  10.811  42.598   1.012
55882W        W24276  42.105  25.642  12.414
55883W        W24277  32.867   7.974   4.103
55884W        W24278  25.237  28.456   1.693
55885W        W24279  21.563   1.750  13.333
55886W        W24280   8.172  17.820  10.707
55887W        W24281  39.119  43.592  14.531
55888W        W24282  39.494   2.985  11.702
55889W        W24283  34.316  37.297  11.127
55890W        W24284   2.315  38.561  12.163
55891W        W24285   5.594  28.984  14.388
55892W        W24286   1.216   7.752  14.807
55893W        W24287  17.006  25.946  14.345
55894W        W24288  12.152  11.761  11.147
55895W        W24289   1.820  43.218  13.868
55896W        W24290  44.050   8.748   0.045
55897W        W24291  26.727   4.773  13.359
55898W        W24292  41.822  44.234   4.591
55899W        W24293  17.636   6.806  13.599
55900W        W24294  28.152  37.927   4.949
55901W        W24295  16.748  25.573   2.147
55902W        W24296   8.217  20.155   4.623
55903W        W24297  13.578   8.965  11.646
55904W        W24298  43.111   0.265  11.805
55905W        W24299  20.325  35.231  13.433
55906W        W24300  17.193  29.016  14.943
55907W        W24301  41.693  10.611  13.102
55908W        W24302  14.990  22.722   4.044
55909W        W24303  12.675  37.818   3.116
55910W        W24304  41.948   6.467  14.917
55911W        W24305  24.671  26.131  13.711
55912W        W24306  24.351  24.497  10.734
55913W        W24307  35.846   0.080   2.800
55914W        W24308  19.570   9.705   2.067
55915W        W24309   1.259   3.721  14.187
55916W        W24310  26.629  41.981  12.406
55917W        W24311  19.983  29.138  12.484
55918W        W24312  43.962  26.660  11.599
55919W        W24313  28.077   1.478  13.949
55920W        W24314  14.091  37.008   3.759
55921W        W24315  11.901  23.973  12.929
55922W        W24316  33.606  43.896   3.313
55923W        W24317  36.529  15.122   3.344
55924W        W24318  19.810  39.955  12.032
55925W        W24319  35.831  22.000   2.632
55926W        W24320  11.796   5.209  10.860
55927W        W24321  42.017  19.853  12.388
55928W        W24322  14.266   0.292   2.426
55929W        W24323  30.255   3.832  14.864
55930W        W24324   7.260  22.134   5.414
55931W        W24325  10.599  43.205   0.321
55932W        W24326  38.578  30.604   0.459
55933W        W24327   6.695   5.915  14.910
55934W        W24328  12.816  36.884   4.578
55935W        W24329  38.477  29.495  12.008
55936W        W24330  15.241   3.871  12.956
55937W        W24331  16.048  26.541   0.378
55938W        W24332  18.331  40.084  10.521
55939W        W24333   6.448  44.497  11.135
55940W        W24334  26.917  30.378   0.449
55941W        W24335  13.745  32.186  14.247
55942W        W24336   2.649  38.007   1.854
55943W        W24337  28.211  34.651   0.217
55944W        W24338   3.317  18.063  11.193
55945W        W24339  41.142  22.375  14.828
55946W        W24340  31.086  20.004  13.379
55947W        W24341   8.681  15.795  10.819
55948W        W24342  10.068  25.558  11.954
55949W        W24343   4.148  39.212  14.674
55950W        W24344  38.920  27.605  11.888
55951W        W24345  23.768  22.812  12.087
55952W        W24346  15.440  31.963   0.782
55953W        W24347  22.466  35.349   0.300
55954W        W24348  38.926  22.324   3.875
55955W        W24349   7.328   2.494  14.872
55956W        W24350  29.090  20.141  14.738
55957W        W24351  43.353  34.641   4.531
55958W        W24352  34.432  28.101  13.908
55959W        W24353  40.902  33.650   0.673
55960W        W24354  26.558   2.752   4.785
55961W        W24355  34.491  43.864   1.554
55962W        W24356  18.300   9.493  13.528
55963W        W24357  42.856  43.458  10.685
55964W        W24358  34.897  32.846  10.513
55965W        W24359  33.348  22.114  13.538
55966W        W24360  17.173   5.746   1.741
55967W        W24361   1.303   4.263   3.231
55968W        W24362  29.341   9.238   1.681
55969W        W24363  17.950  42.788   3.595
55970W        W24364  39.010  14.687   0.338
55971W        W24365  19.574  30.100   0.359
55972W        W24366  22.611  30.151  11.686
55973W        W24367   2.576  20.323  13.373
55974W        W24368  21.236  17.091  14.081
55975W        W24369  39.136  24.746   3.165
55976W        W24370  24.221  30.065   4.830
55977W        W24371  11.632  31.022   3.703
55978W        W24372   9.824   3.427  13.551
55979W        W24373  11.161  40.479  13.466
55980W        W24374   3.662  42.978   3.072
55981W        W24375   3.382  39.779  10.284
55982W        W24376  29.180  18.198  11.814
55983W        W24377  25.225   2.496   3.170
55984W        W24378   0.295  35.208  14.715
55985W        W24379  38.922  28.483  14.076
55986W        W24380  44.719  12.797   3.146
55987W        W24381  14.103  25.327   5.041
55988W        W24382   2.804  27.097  11.653
55989W        W24383  19.800  23.202  12.335
55990W        W24384   1.863  39.345   3.129
55991W        W24385  17.743   4.723  10.668
55992W        W24386  17.575   0.976  14.755
55993W        W24387  21.288  28.113  14.490
55994W        W24388  34.135  17.187  11.652
55995W        W24389  24.499  29.690  12.018
55996W        W24390  33.435  32.536   1.860
55997W        W24391  44.382  29.371   1.803
55998W        W24392  40.179  32.674   0.508
55999W        W24393  42.998   2.898  10.781
56000W        W24394  10.604  33.079   4.712
56001W        W24395   1.796  37.114  11.263
56002W        W24396   1.661   4.901   4.938
56003W        W24397  31.425  40.486   4.628
56004W        W24398  41.176  18.677   2.834
56005W        W24399   7.101  29.219   4.605
56006W        W24400  38.168  37.168  10.772
56007W        W24401   8.861  37.716   1.174
56008W        W24402   5.909  25.536  14.543
56009W        W24403  40.101   4.707   1.177
56010W        W24404   3.363  27.075  14.292
56011W        W24405  12.320  19.301   4.234
56012W        W24406  15.505  35.818   3.355
56013W        W24407  12.743  37.038  11.142
56014W        W24408  35.447  41.732   0.525
56015W        W24409  32.084  11.922  10.740
56016W        W24410  25.633  23.723  10.622
56017W        W24411  19.445  22.612  14.025
56018W        W24412  33.514  25.748   2.220
56019W        W24413   0.537  21.917   4.389
56020W        W24414   1.832  29.548  11.586
56021W        W24415  12.775   1.673  12.106
56022W        W24416   5.685  19.394   1.416
56023W        W24417  43.746   7.172   4.048
56024W        W24418  32.052  42.559  11.073
56025W        W24419  36.991  39.534  12.800
56026W        W24420  13.698  35.267   0.865
56027W        W24421   3.514  13.810   2.279
56028W        W24422  20.532   8.862   4.070
56029W        W24423   7.368  38.282   2.367
56030W        W24424  40.617   2.457   0.858
56031W        W24425  24.935   2.226  10.746
56032W        W24426  21.249   6.474   1.065
56033W        W24427  27.577  21.117  13.562
56034W        W24428  23.736  36.593  11.082
56035W        W24429  44.234   2.332   4.587
56036W        W24430  22.524  35.850  10.647
56037W        W24431  34.442  10.157   4.530
56038W        W24432  44.996  29.267  12.522
56039W        W24433  16.812  41.892   2.138
56040W        W24434   7.456  22.399   5.004
56041W        W24435   0.329   8.207  10.982
56042W        W24436  12.381  35.599  13.994
56043W        W24437  35.023  32.088  12.427
56044W        W24438  37.417  16.498   3.692
56045W        W24439  24.454  42.218  10.336
56046W        W24440  21.724  31.873  10.614
56047W        W24441  42.224  17.295   0.746
56048W        W24442  18.962  25.074   1.882
56049W        W24443  17.309  24.143  11.533
56050W        W24444  22.667  29.482   1.335
56051W        W24445   2.351  28.256  11.530
56052W        W24446  13.239  18.872  11.466
56053W        W24447  10.916  27.190   3.670
56054W        W24448  28.504   4.835  11.664
56055W        W24449  10.999  41.055  10.546
56056W        W24450   2.363  30.312  13.086
56057W        W24451  20.535   8.066   3.160
56058W        W24452   9.267  16.980  10.759
56059W        W24453  37.478  10.181  10.649
56060W        W24454  35.809  34.780   4.037
56061W        W24455  10.323   6.262  12.544
56062W        W24456   5.036  14.083  12.518
56063W        W24457   3.894  41.085  14.406
56064W        W24458  42.041  17.749   0.953
56065W        W24459   6.179   3.728  10.728
56066W        W24460  22.124  23.533  11.237
56067W        W24461  33.433  23.718  11.980
56068W        W24462  38.014   3.965  14.344
56069W        W24463   2.467  15.287   1.014
56070W        W24464  13.678   5.881  14.299
56071W        W24465   9.185  21.183  14.824
56072W        W24466  18.680  24.506  14.988
56073W        W24467  24.275  33.574   2.652
56074W        W24468  38.086  26.855   2.916
56075W        W24469   1.804  26.042   1.192
56076W        W24470  28.015  17.464  10.605
56077W        W24471   0.349  14.383  11.934
56078W        W24472  19.539  32.967   5.106
56079W        W24473  27.139  31.202   2.696
56080W        W24474  35.862  29.396  13.193
56081W        W24475   1.487  12.278   4.727
56082W        W24476  34.492  21.249   3.304
56083W        W24477  31.626  28.600   2.450
56084W        W24478  37.566  23.815  10.147
56085W        W24479   7.260  21.131  14.696
56086W        W24480  25.908  26.487   0.943
56087W        W24481  39.657   7.317   3.194
56088W        W24482  19.241  14.703  14.920
56089W        W24483   0.245  37.817  13.757
56090W        W24484  14.425  14.897   4.239
56091W        W24485   7.415  44.878   4.483
56092W        W24486   6.400  38.577   1.186
56093W        W24487  44.962  40.398  14.527
56094W        W24488  34.518  11.652   4.512
56095W        W24489  23.754  35.336   2.198
56096W        W24490  27.982  38.522   0.776
56097W        W24491   2.811  21.671   4.281
56098W        W24492   5.826  23.676   1.910
56099W        W24493  37.322   0.018  10.426
56100W        W24494  35.098  19.627  10.875
56101W        W24495  36.879  40.402  13.516
56102W        W24496  10.379  30.130   1.246
56103W        W24497  42.569  21.221   1.747
56104W        W24498  20.999  31.192  14.553
56105W        W24499  11.272  29.084  11.592
56106W        W24500  19.621  24.806   1.463
56107W        W24501  16.716  16.268  12.471
56108W        W24502  28.481  33.501  13.723
56109W        W24503  30.355  35.042   0.734
56110W        W24504  12.619  36.013   0.503
56111W        W24505   8.308  44.741   1.437
56112W        W24506  11.668  27.630  13.364
56113W        W24507  43.367  13.467   3.094
56114W        W24508  15.493  22.307   1.333
56115W        W24509  39.704  31.350  11.628
56116W        W24510  21.915  23.675  10.751
56117W        W24511   0.253  24.707   0.829
56118W        W24512  31.948  38.104   0.777
56119W        W24513  13.694  35.502  12.988
56120W        W24514  19.155  42.793  12.433
56121W        W24515  41.542  32.044   4.842
56122W        W24516   9.569   2.407  13.796
56123W        W24517  32.807  41.475  14.946
56124W        W24518  21.751  43.109  13.148
56125W        W24519   7.510  36.895   3.765
56126W        W24520  10.387  31.360  11.833
56127W        W24521  41.054  29.667   3.646
56128W        W24522  13.793  28.509   0.485
56129W        W24523   5.807   5.019   1.368
56130W        W24524  41.535  32.484  11.987
56131W        W24525   3.812  37.192  11.965
56132W        W24526  41.825  13.124  14.195
56133W        W24527  17.708  25.058  11.405
56134W        W24528  15.306  40.897   1.840
56135W        W24529  21.008  43.844   1.122
56136W        W24530   3.445  13.873  11.170
56137W        W24531  29.476   5.972  11.810
56138W        W24532  36.501  28.406  14.357
56139W        W24533  35.591  35.049   1.747
56140W        W24534  36.490  10.848  13.278
56141W        W24535  33.571  28.528  12.661
56142W        W24536  33.951   8.132   2.840
56143W        W24537   2.292  25.076  14.341
56144W        W24538   9.982  17.549   3.733
56145W        W24539  28.699  19.724  11.524
56146W        W24540  31.679  32.539  12.481
56147W        W24541  35.461   5.743   2.668
56148W        W24542  37.006   4.367  11.516
56149W        W24543  41.216  43.185  10.708
56150W        W24544  39.047  12.876  14.351
56151W        W24545   9.385  26.145  10.564
56152W        W24546  37.989   0.726  10.468
56153W        W24547  44.364   9.771  11.838
56154W        W24548  34.374  36.824   2.325
56155W        W24549  16.829  34.036  10.913
56156W        W24550  21.515  36.414   4.895
56157W        W24551  38.013  34.022  10.588
56158W        W24552  22.574  23.656   2.270
56159W        W24553  32.451  15.307  13.523
56160W        W24554  19.216  37.944   2.824
56161W        W24555  19.193   2.691   0.326
56162W        W24556  11.924  40.573   4.052
56163W        W24557  25.431   1.848   0.302
56164W        W24558   2.913  14.136   2.730
56165W        W24559   8.262  26.813   0.953
56166W        W24560  39.549  19.691   2.685
56167W        W24561  28.537  39.988  14.819
56168W        W24562  14.145  13.868   0.933
56169W        W24563   6.420  20.845   0.097
56170W        W24564  10.798  16.615  13.064
56171W        W24565  19.485   6.363  10.770
56172W        W24566  21.509  10.171  11.329
56173W        W24567  11.845  36.768   0.222
56174W        W24568  36.953  22.430   0.986
56175W        W24569   9.700   6.472   1.283
56176W        W24570  26.398   3.805   0.966
56177W        W24571  22.663  36.352   1.184
56178W        W24572  41.851   6.737  13.111
56179W        W24573  25.415  27.627   3.194
56180W        W24574  30.121   7.971  11.985
56181W        W24575   4.262  40.397  14.572
56182W        W24576  35.614  25.558  14.218
56183W        W24577  36.629  33.447  14.443
56184W        W24578  20.816  10.659  14.226
56185W        W24579   5.327  40.049   4.690
56186W        W24580  18.903  20.198   3.080
56187W        W24581   6.182  30.689  14.782
56188W        W24582  26.642  42.871   5.501
56189W        W24583  33.684  37.530  14.391
56190W        W24584  34.305  38.584  11.448
56191W        W24585   9.484  21.924  14.343
56192W        W24586  17.686  21.934  11.650
56193W        W24587  32.548  12.127  10.578
56194W        W24588  39.746  14.230  11.148
56195W        W24589  12.265  20.503   3.786
56196W        W24590  41.939  41.349   1.146
56197W        W24591  40.083  18.178  12.558
56198W        W24592   1.863   2.266  13.278
56199W        W24593  21.053  30.302   4.014
56200W        W24594  27.060  13.173  11.977
56201W        W24595  30.593  29.780   1.886
56202W        W24596  33.679  32.387   2.799
56203W        W24597   8.283  24.055  10.404
56204W        W24598  14.623   2.805  10.691
56205W        W24599  19.101  18.391  13.472
56206W        W24600  25.530  38.086   3.846
56207W        W24601  33.280  24.742   4.270
56208W        W24602  35.123   3.692   2.282
56209W        W24603  17.560  13.848   0.400
56210W        W24604  12.962  26.672   4.966
56211W        W24605  34.090   6.343   0.742
56212W        W24606  20.599  18.669   4.847
56213W        W24607   5.323  44.484  12.158
56214W        W24608  20.239   3.431  12.830
56215W        W24609   6.869   4.236  12.672
56216W        W24610  38.293  18.655   2.401
56217W        W24611  35.018   6.350  14.250
56218W        W24612   9.769  13.619   0.550
56219W        W24613  15.242  44.850  14.699
56220W        W24614  14.781  39.009   0.374
56221W        W24615   6.288  41.724  11.471
56222W        W24616  30.016  25.733  12.030
56223W        W24617   9.266  24.272  10.368
56224W        W24618  36.910   8.747   0.632
56225W        W24619   6.991  31.006   4.763
56226W        W24620   0.052   5.683  14.042
56227W        W24621  25.337   2.153   2.779
56228W        W24622  39.231   3.240   4.770
56229W        W24623  19.824   1.784  11.458
56230W        W24624  21.287  22.754   0.758
56231W        W24625  13.757   3.686  13.868
56232W        W24626  27.656  33.104  10.383
56233W        W24627  19.564   1.862   2.331
56234W        W24628  26.520  35.937   1.146
56235W        W24629  20.657  44.745  10.888
56236W        W24630  39.884  30.479  11.539
56237W        W24631  11.134  41.888   3.667
56238W        W24632  23.009  29.519  14.065
56239W        W24633  19.277   7.801  14.805
56240W        W24634  35.484  37.492   1.750
56241W        W24635  42.379  25.796  14.647
56242W        W24636  33.004  14.660  13.368
56243W        W24637   7.364  25.538  13.935
56244W        W24638   9.984   1.884   1.791
56245W        W24639  36.683  31.823  10.351
56246W        W24640  31.186  36.304  11.118
56247W        W24641   9.829  11.076  11.641
56248W        W24642  10.745  38.853  11.765
56249W        W24643  37.540  36.419   2.481
56250W        W24644   5.824  10.813   4.482
56251W        W24645  35.411  15.124  11.183
56252W        W24646  27.066  28.597   3.500
56253W        W24647  24.748   4.985   3.233
56254W        W24648   9.067  30.978  11.878
56255W        W24649   6.953  28.347   2.872
56256W        W24650  12.419  43.046  12.636
56257W        W24651   7.628  14.635   3.070
56258W        W24652  44.296  10.663  10.549
56259W        W24653  18.209  29.063   4.585
56260W        W24654   6.869   1.046  14.882
56261W        W24655  21.510   3.301  14.436
56262W        W24656  23.674   7.387   2.800
56263W        W24657  32.915  21.226   4.174
56264W        W24658  21.255  20.102   3.238
56265W        W24659   8.340  23.306  10.960
56266W        W24660  33.016  26.309   4.185
56267W        W24661  41.932  32.783  13.370
56268W        W24662  16.394  27.997  12.873
56269W        W24663   6.940  17.741  12.426
56270W        W24664   3.057  11.320  13.061
56271W        W24665  18.096   0.625  13.106
56272W        W24666  43.069  21.794   1.245
56273W        W24667  10.822  28.325   3.256
56274W        W24668  11.450  17.634   1.426
56275W        W24669  21.582   1.097   0.966
56276W        W24670  27.414   5.749  11.142
56277W        W24671  32.526  14.721   3.167
56278W        W24672  23.218  10.201   1.800
56279W        W24673  25.526  33.920   1.206
56280W        W24674   4.682  27.508  13.871
56281W        W24675  24.029  30.836   2.243
56282W        W24676  13.021   5.251   4.101
56283W        W24677  12.609   4.729   0.356
56284W        W24678   6.942  29.591   4.182
56285W        W24679  41.412  43.115   2.376
56286W        W24680  20.017  28.102  13.568
56287W        W24681   1.805  11.849   4.858
56288W        W24682   0.746  33.066  11.632
56289W        W24683  18.403  28.577   4.624
56290W        W24684  30.625  20.826   0.525
56291W        W24685  36.056   9.814  11.280
56292W        W24686   4.500  11.240   0.403
56293W        W24687  12.710   2.949  14.875
56294W        W24688  34.908  27.016  13.410
56295W        W24689  14.400  10.182  10.592
56296W        W24690  35.668   2.900  11.505
56297W        W24691  15.673  23.709   1.078
56298W        W24692   5.202  38.073  11.567
56299W        W24693  29.820  38.353  12.620
56300W        W24694   2.318  32.382   3.406
56301W        W24695   0.895  24.207  10.779
56302W        W24696   5.946  11.425  11.814
56303W        W24697  13.270  13.563  11.564
56304W        W24698  28.337  19.789  12.907
56305W        W24699   2.323  27.800   2.583
56306W        W24700  26.060  12.035   4.044
56307W        W24701  24.705  38.355   1.750
56308W        W24702   4.535   4.899  11.504
56309W        W24703  31.969  17.874  12.366
56310W        W24704  35.420   6.639  12.133
56311W        W24705  23.109  15.398  13.887
56312W        W24706   6.976   6.288  14.708
56313W        W24707  16.903  16.704  12.687
56314W        W24708  12.947   2.031  12.409
56315W        W24709  23.256  29.618   1.937
56316W        W24710  21.535  33.901  13.315
56317W        W24711  24.650  25.540   4.592
56318W        W24712  28.895  20.250  10.778
56319W        W24713  27.728  12.206   0.293
56320W        W24714  22.207  35.058   3.202
56321W        W24715  29.509  25.651  13.374
56322W        W24716  32.183  30.986  14.824
56323W        W24717  24.662   5.364  11.834
56324W        W24718  29.421  15.788   2.160
56325W        W24719  17.138   1.877  14.575
56326W        W24720  35.185   7.413  11.516
56327W        W24721  33.673  43.841   4.254
56328W        W24722  22.989  10.339  13.996
56329W        W24723  24.554  34.443  12.091
56330W        W24724  27.938  29.990   4.702
56331W        W24725  37.085   4.817   2.689
56332W        W24726  13.770  28.614   3.672
56333W        W24727  37.075  33.275  13.819
56334W        W24728   6.958  10.130   3.361
56335W        W24729  20.739  20.094  11.082
56336W        W24730  33.593  39.975  14.534
56337W        W24731  20.167  34.930   0.638
56338W        W24732  13.322   5.645  11.029
56339W        W24733  24.495  44.254  11.978
56340W        W24734  14.306   0.777   0.391
56341W        W24735  20.467  25.173   1.906
56342W        W24736  28.244   7.779   3.740
56343W        W24737   8.690   9.970  11.788
56344W        W24738  20.087  25.528   2.148
56345W        W24739  32.995   4.865   0.762
56346W        W24740  23.788  29.092   0.739
56347W        W24741  23.207   0.206   3.896
56348W        W24742  29.973  33.779  13.099
56349W        W24743  22.198  15.778  10.630
56350W        W24744  35.539  12.581  10.645
56351W        W24745   5.052   3.230   2.857
56352W        W24746  31.536  42.820   2.246
56353W        W24747   2.256  11.093   4.286
56354W        W24748  18.500  15.495   3.686
56355W        W24749  38.387   9.146  13.762
56356W        W24750  30.415  17.093   4.107
56357W        W24751  30.531  34.366  11.251
56358W        W24752  31.077  11.402  13.515
56359W        W24753  26.108  30.276  12.881
56360W        W24754  32.444  42.760  14.675
56361W        W24755  10.252   2.535  10.701
56362W        W24756  38.007  23.652  13.925
56363W        W24757   8.734  14.978   5.081
56364W        W24758  26.483  28.014  11.885
56365W        W24759  41.621  11.631   1.007
56366W        W24760  12.133  27.397   1.573
56367W        W24761  33.939  15.535   2.389
56368W        W24762  44.024  32.811  14.259
56369W        W24763  15.122  31.101   3.829
56370W        W24764   3.208  23.572   0.436
56371W        W24765  11.229  24.893   0.383
56372W        W24766  30.641  38.854  13.428
56373W        W24767   7.924  24.378  13.992
56374W        W24768  34.970  33.556   0.410
56375W        W24769  23.171   9.631   0.964
56376W        W24770  41.808  44.681  14.992
56377W        W24771  18.080  19.518  11.018
56378W        W24772  18.339  15.057   0.315
56379W        W24773  14.560  30.253  13.451
56380W        W24774  38.588  19.641   0.941
56381W        W24775  12.841  43.816   4.398
56382W        W24776  14.968  15.278   3.389
56383W        W24777  33.734  18.735  14.449
56384W        W24778  35.179  27.137   3.775
56385W        W24779  38.492  42.299  12.631
56386W        W24780   8.459  41.429   3.231
56387W        W24781  38.306  22.955  12.665
56388W        W24782  38.141   6.900  12.546
56389W        W24783  41.864  44.435  11.663
56390W        W24784  28.404  42.653   1.309
56391W        W24785  42.509  28.887   0.960
56392W        W24786  22.593   5.139   4.454
56393W        W24787  19.957  42.956   0.435
56394W        W24788  38.565  20.560  14.891
56395W        W24789  12.178  27.622  11.756
56396W        W24790   6.288   8.659  14.760
56397W        W24791  43.564  21.988   3.622
56398W        W24792  29.494  36.991   1.955
56399W        W24793   0.353  22.710   0.459
56400W        W24794   9.077  33.122   1.484
56401W        W24795  41.067  28.742   2.503
56402W        W24796   0.851  35.580  12.919
56403W        W24797  10.912  17.954  11.124
56404W        W24798  40.422   2.933  14.290
56405W        W24799   4.672  44.139   2.631
56406W        W24800  15.136  10.747  13.938
56407W        W24801  43.939   0.254   1.820
56408W        W24802  27.552  28.654   1.424
56409W        W24803  35.769   1.249   3.563
56410W        W24804  16.439  43.546  10.813
56411W        W24805   0.977  32.290  10.535
56412W        W24806  39.423  22.463  11.030
56413W        W24807  26.513  18.563  14.141
56414W        W24808  26.699  33.197  12.240
56415W        W24809  17.845  24.138   1.832
56416W        W24810  13.171  32.978  13.854
56417W        W24811  33.368   7.987  11.486
56418W        W24812  14.783  35.429  11.964
56419W        W24813  24.231  38.094  12.380
56420W        W24814  37.071  27.225  12.061
56421W        W24815  17.636   0.215   2.275
56422W        W24816  15.557   6.844  12.635
56423W        W24817  28.648  21.781   4.211
56424W        W24818  18.083   5.309  11.479
56425W        W24819  32.688  15.642   1.987
56426W        W24820  29.088  24.630   2.684
56427W        W24821   5.853  21.244  12.461
56428W        W24822   4.378  31.753  14.789
56429W        W24823  32.700  12.888   0.705
56430W        W24824   2.430  33.446   0.306
56431W        W24825   4.617  26.025   3.090
56432W        W24826  25.061  15.373  12.945
56433W        W24827   0.421  18.974  13.806
56434W        W24828  14.656  19.493   2.228
56435W        W24829  15.152  12.097  12.115
56436W        W24830   2.744  16.234  11.557
56437W        W24831  40.753  19.277   4.126
56438W        W24832  20.529  21.774  13.279
56439W        W24833  32.514  32.426   3.724
56440W        W24834   9.687  10.138  12.715
56441W        W24835  39.763   3.805  13.895
56442W        W24836   6.922  25.535   5.554
56443W        W24837  38.431  30.392  14.608
56444W        W24838   2.986   4.956  12.861
56445W        W24839   1.977   6.670  13.121
56446W        W24840   1.538  24.641   3.369
56447W        W24841  24.113   2.724   3.749
56448W        W24842  19.736  41.872  10.665
56449W        W24843  29.337   7.094  10.674
56450W        W24844   1.828   4.419  13.350
56451W        W24845  42.481  22.711   2.585
56452W        W24846  11.821  39.375  14.427
56453W        W24847   4.522  23.434   2.254
56454W        W24848  33.496   8.677   3.736
56455W        W24849  36.048  13.129   4.500
56456W        W24850  26.915   5.682  13.409
56457W        W24851  31.191  43.048  12.975
56458W        W24852  43.257  18.938   3.566
56459W        W24853   9.292  19.193   1.490
56460W        W24854  19.537  16.271  12.905
56461W        W24855  37.638  30.493   3.983
56462W        W24856  11.089   1.931  13.387
56463W        W24857  24.100  26.514   3.720
56464W        W24858  13.871   4.008   1.103
56465W        W24859   0.321  31.503   2.236
56466W        W24860   9.304  37.538   4.026
56467W        W24861  33.518  40.548  11.248
56468W        W24862  14.511   6.463   3.276
56469W        W24863  27.706  20.944  14.541
56470W        W24864  16.918  35.687   1.976
56471W        W24865  23.136  20.005   3.494
56472W        W24866   6.197  32.048  10.346
56473W        W24867  25.520  34.686  12.838
56474W        W24868  39.666  39.036  10.971
56475W        W24869   9.295   2.019  10.592
56476W        W24870  11.910  36.521   0.723
56477W        W24871   8.442  15.615   9.946
56478W        W24872   2.784  21.653   2.107
56479W        W24873  17.056  43.349   0.308
56480W        W24874  19.597  28.682   0.211
56481W        W24875  30.958   5.742  12.517
56482W        W24876  11.621  13.758   5.207
56483W        W24877  28.405  31.652  12.057
56484W        W24878   1.847  36.245   2.612
56485W        W24879  19.168  36.511   3.865
56486W        W24880  13.980  21.346   4.957
56487W        W24881  31.393  35.557   0.279
56488W        W24882  14.109   0.208   2.923
56489W        W24883  43.831  19.501   1.823
56490W        W24884   1.240  10.869  12.386
56491W        W24885  24.210  44.963   4.679
56492W        W24886  10.182  15.384   4.302
56493W        W24887  12.121  16.656  12.718
56494W        W24888  42.930  35.847   9.870
56495W        W24889  31.254   9.598   4.120
56496W        W24890  35.454  34.517   2.621
56497W        W24891  11.832   1.487   2.258
56498W        W24892  22.204  32.178  13.071
56499W        W24893  15.260  31.371  11.194
56500W        W24894   8.343   8.277  12.400
56501W        W24895   1.068  42.006   4.505
56502W        W24896  14.712   4.312  13.314
56503W        W24897  11.241  14.650  11.812
56504W        W24898  33.862  18.614  14.923
56505W        W24899  30.698  36.317  11.268
56506W        W24900  14.165  35.412  14.514
56507W        W24901  39.567   2.263  12.038
56508W        W24902  27.908  17.995   2.339
56509W        W24903  44.398  10.629  12.325
56510W        W24904  14.807  22.742  11.088
56511W        W24905  29.249  33.745   1.203
56512W        W24906  38.602  30.421  13.559
56513W        W24907   8.375   7.902   3.662
56514W        W24908  10.968   2.334  14.788
56515W        W24909   2.685  11.331   4.070
56516W        W24910  15.404  27.444   0.443
56517W        W24911  13.100  41.380   0.267
56518W        W24912  34.098  40.883  14.456
56519W        W24913  43.822   3.317   4.468
56520W        W24914  26.469   6.859   2.227
56521W        W24915  27.657  44.390  12.610
56522W        W24916   4.516  26.517   2.914
56523W        W24917  25.179  22.249   2.851
56524W        W24918  29.655  41.957   4.385
56525W        W24919  26.948  34.001   4.480
56526W        W24920  41.343  30.613  11.113
56527W        W24921   6.508  33.853  12.918
56528W        W24922  13.686  13.420   1.220
56529W        W24923  24.181  13.697   2.544
56530W        W24924  19.980  19.066   2.848
56531W        W24925  18.275   7.223   3.009
56532W        W24926  42.909  14.393   3.220
56533W        W24927  36.385   1.827   3.830
56534W        W24928  14.169  14.255  14.010
56535W        W24929  12.822  43.892  10.737
56536W        W24930   0.283  19.015   0.715
56537W        W24931  15.697  26.206  13.981
56538W        W24932  43.895  11.554  11.445
56539W        W24933  31.397  30.067  14.397
56540W        W24934  12.196  13.336   4.441
56541W        W24935  14.295  21.113  11.067
56542W        W24936   3.726  15.176   0.168
56543W        W24937  22.302  30.728  13.486
56544W        W24938   3.507  44.317  10.625
56545W        W24939  36.813   6.621  11.962
56546W        W24940  37.343  39.771  12.018
56547W        W24941  17.641  18.612   3.174
56548W        W24942  30.417  36.234   5.150
56549W        W24943  31.873   8.666   0.879
56550W        W24944  43.344   4.856   4.220
56551W        W24945  25.647  36.945   1.337
56552W        W24946   7.251  17.449   0.829
56553W        W24947  38.890  41.877   4.126
56554W        W24948  40.251   6.699  12.894
56555W        W24949  23.890  38.679   5.038
56556W        W24950  30.858  14.224   0.439
56557W        W24951   8.976  36.409   1.427
56558W        W24952  14.135  36.864  10.519
56559W        W24953  28.186  41.907   2.413
56560W        W24954  36.947   0.992  13.909
56561W        W24955  16.046  24.022   4.518
56562W        W24956  19.989  20.091   4.815
56563W        W24957  33.034  26.655   0.303
56564W        W24958  39.567  21.071   4.090
56565W        W24959  12.069   7.661  12.670
56566W        W24960  35.674   3.782   4.731
56567W        W24961  17.038  42.942   4.108
56568W        W24962  25.086  25.679  11.795
56569W        W24963   3.978   0.721   2.776
56570W        W24964  28.025  32.313   4.470
56571W        W24965   3.517   7.595  11.625
56572W        W24966   1.887  17.353  11.679
56573W        W24967  19.177  14.653   1.716
56574W        W24968  15.364  42.370   1.304
56575W        W24969  25.708  11.832  14.759
56576W        W24970  40.048   2.076   2.436
56577W        W24971  13.731  33.987  12.797
56578W        W24972  37.295   7.282  12.386
56579W        W24973   7.772  37.926  10.654
56580W        W24974  39.201  11.680  14.784
56581W        W24975  35.527   0.964  10.768
56582W        W24976   6.547  11.975   0.358
56583W        W24977  32.223  28.448   3.298
56584W        W24978  33.470  43.751   0.406
56585W        W24979  13.700  11.751   2.361
56586W        W24980  17.277  40.134   2.890
56587W        W24981   8.353  15.381  14.051
56588W        W24982   7.373  30.074   1.904
56589W        W24983  11.697  15.863   1.231
56590W        W24984   7.346  26.020  13.743
56591W        W24985   0.849   2.101   3.747
56592W        W24986  22.743   6.904   1.556
56593W        W24987  25.042  28.724   4.133
56594W        W24988   0.769  20.178   3.717
56595W        W24989  11.195  12.759   1.876
56596W        W24990  28.103  29.067   4.807
56597W        W24991  22.537   6.391  12.460
56598W        W24992  11.943   5.249  13.662
56599W        W24993  41.902  36.402   4.401
56600W        W24994  11.853  26.541   0.694
56601W        W24995  30.012  11.497   0.793
56602W        W24996   0.362   2.978   3.685
56603W        W24997  31.011  34.124   0.258
56604W        W24998  13.220  18.506   3.351
56605W        W24999  38.096   9.158  11.226
56606W        W25000   1.869  37.729   4.371
56607W        W25001   5.232  32.962   3.322
56608W        W25002  11.126  42.080   2.070
56609W        W25003  13.722  36.098   1.262
56610W        W25004   2.064  31.968  13.159
56611W        W25005   1.528  34.812   1.240
56612W        W25006  20.742  11.150  11.184
56613W        W25007  39.971  21.103  11.906
56614W        W25008  40.899  12.734  14.063
56615W        W25009   0.597  21.643  12.104
56616W        W25010   6.808  40.551   0.499
56617W        W25011  30.071  39.125  11.301
56618W        W25012  12.708  33.008   4.448
56619W        W25013  36.490   1.961  10.959
56620W        W25014  28.464   8.404   0.954
56621W        W25015  15.715   4.979   1.376
56622W        W25016  41.551  28.435   1.634
56623W        W25017  34.150  22.026  10.549
56624W        W25018  37.811   1.133   0.322
56625W        W25019  11.823  32.441   0.959
56626W        W25020  19.001  11.899  11.161
56627W        W25021  36.641  28.574   3.261
56628W        W25022  35.178   6.217  13.769
56629W        W25023  31.036  29.735  11.119
56630W        W25024   6.961  12.365   2.775
56631W        W25025  39.800  43.331   4.733
56632W        W25026  26.024  21.197  11.666
56633W        W25027  25.490   2.524   1.000
56634W        W25028  44.688  33.565   4.773
56635W        W25029   1.398  26.326   4.062
56636W        W25030   4.732   5.192   3.670
56637W        W25031  19.782   8.125  11.474
56638W        W25032  14.262  21.955   4.010
56639W        W25033  32.962  28.736   4.324
56640W        W25034  19.653  10.641   1.388
56641W        W25035  12.840  12.804  10.833
56642W        W25036  39.930   7.762   4.298
56643W        W25037  13.388   9.424  14.331
56644W        W25038  22.985  37.006   2.211
56645W        W25039  16.785  21.767   3.697
56646W        W25040  13.691   5.768   4.963
56647W        W25041  23.983  23.953   0.375
56648W        W25042  13.805  34.926  11.963
56649W        W25043   2.565  31.910  11.489
56650W        W25044  26.966  30.319  11.338
56651W        W25045  26.982  19.608   4.186
56652W        W25046  36.420   5.454   2.292
56653W        W25047  37.160  34.156   3.695
56654W        W25048   6.946  17.289  11.269
56655W        W25049  19.169  10.670  11.508
56656W        W25050  40.576   5.804  11.641
56657W        W25051   6.851  14.277  11.018
56658W        W25052  33.597  23.071   0.014
56659W        W25053  42.378  16.201  13.651
56660W        W25054  10.142   8.415  14.863
56661W        W25055  22.447  30.443   4.315
56662W        W25056   6.179  30.137   4.147
56663W        W25057  14.081  28.678   0.951
56664W        W25058  37.135  35.625  11.580
56665W        W25059  24.189  21.767  12.578
56666W        W25060  32.087  16.755   1.211
56667W        W25061  27.868   8.317   2.693
56668W        W25062  25.729  18.063  11.547
56669W        W25063  35.816  11.572   3.724
56670W        W25064  42.212  40.457  13.016
56671W        W25065   6.830  20.329   0.728
56672W        W25066  33.408   4.034   2.272
56673W        W25067  33.664   1.681  12.545
56674W        W25068  43.420  25.461   0.260
56675W        W25069   6.450  14.515  11.227
56676W        W25070  39.854  28.405   4.158
56677W        W25071   2.734  17.730   4.088
56678W        W25072  11.548  14.837  13.942
56679W        W25073  39.283  35.982  13.604
56680W        W25074  11.082   8.977  10.657
56681W        W25075  23.744  42.052   2.626
56682W        W25076  14.787   1.957  14.844
56683W        W25077  10.054  37.808   3.643
56684W        W25078  18.212  18.177  12.371
56685W        W25079  20.762   9.708  14.938
56686W        W25080  18.981  28.488   1.248
56687W        W25081   4.073  19.588   4.756
56688W        W25082   5.410  25.606   4.569
56689W        W25083  36.433   5.236  13.954
56690W        W25084   1.890  13.522  12.017
56691W        W25085  29.155  13.565   0.420
56692W        W25086  32.189  33.403  12.547
56693W        W25087  14.629  26.122   2.134
56694W        W25088  44.395  20.774  10.406
56695W        W25089   2.389  29.297   1.224
56696W        W25090  27.009  15.463   2.320
56697W        W25091  24.189   7.382   0.021
56698W        W25092  26.175  38.797   5.059
56699W        W25093  32.744  34.405   2.114
56700W        W25094   1.774  20.955  13.276
56701W        W25095  21.138  15.011   0.852
56702W        W25096  15.200  33.214  14.012
56703W        W25097  12.400  15.815   0.523
56704W        W25098  38.991  10.656  12.427
56705W        W25099  26.624  42.805   3.688
56706W        W25100   4.820   3.593   3.165
56707W        W25101   7.174  19.319  11.816
56708W        W25102  28.433  20.848  11.815
56709W        W25103  31.979  39.067  13.623
56710W        W25104  18.834  43.901  12.927
56711W        W25105  18.841  41.889  10.625
56712W        W25106   8.460  39.416   3.858
56713W        W25107  13.598  17.314   2.335
56714W        W25108  25.578  32.241  11.160
56715W        W25109  25.713  11.316  13.324
56716W        W25110  20.082   4.542  12.002
56717W        W25111  18.938  11.502  14.999
56718W        W25112   9.761  16.467  14.488
56719W        W25113  31.613   6.607   4.120
56720W        W25114  23.063   6.557   3.415
56721W        W25115  11.247  41.221  10.959
56722W        W25116   8.565  42.042  12.119
56723W        W25117  41.323  36.819   1.198
56724W        W25118   5.572  26.414   2.718
56725W        W25119   5.198   2.316   1.663
56726W        W25120   2.247  22.560  13.486
56727W        W25121  39.122  41.574   0.986
56728W        W25122  17.119  13.139  14.087
56729W        W25123  36.606  34.656  13.428
56730W        W25124  19.600  18.758  11.230
56731W        W25125  26.678  41.369   0.873
56732W        W25126   8.479  32.618  14.004
56733W        W25127  20.076  26.615   3.230
56734W        W25128  44.899  36.823   4.407
56735W        W25129  41.886   2.294  13.352
56736W        W25130  34.693  35.521  11.131
56737W        W25131  38.132   2.449   4.280
56738W        W25132  11.352  35.552  14.919
56739W        W25133  20.965  31.126   4.231
56740W        W25134  19.416  44.458   0.898
56741W        W25135  40.037  25.775   0.373
56742W        W25136  22.970  26.177  13.632
56743W        W25137   0.723  34.670   3.804
56744W        W25138  35.809  15.018  10.832
56745W        W25139   0.189  19.591  14.493
56746W        W25140   9.222  20.058   1.390
56747W        W25141  39.506   1.093   1.898
56748W        W25142  18.616  15.241   1.884
56749W        W25143  19.498  26.658   3.658
56750W        W25144  13.643  24.995  13.510
56751W        W25145  44.610  11.216   2.700
56752W        W25146  26.442   9.859   3.905
56753W        W25147  20.038  17.831   3.662
56754W        W25148  21.473  19.553   3.953
56755W        W25149   2.482  39.068  12.006
56756W        W25150   0.798  26.369  11.096
56757W        W25151   4.164  22.004   3.739
56758W        W25152   4.626  19.004   2.821
56759W        W25153   2.897  36.353   4.265
56760W        W25154  32.520   3.147   1.728
56761W        W25155   6.064  43.738  11.250
56762W        W25156  18.505  31.071  12.573
56763W        W25157  42.218   7.626   1.347
56764W        W25158   1.448  42.041  10.700
56765W        W25159  27.005  36.548  14.437
56766W        W25160   5.821  32.008   9.691
56767W        W25161  19.683  17.725  14.347
56768W        W25162  20.546  27.628  13.022
56769W        W25163  15.257  30.115  14.523
56770W        W25164  15.212  41.367  10.552
56771W        W25165  14.457   3.779   4.972
56772W        W25166  26.964  37.137  12.892
56773W        W25167  24.666   6.661   0.343
56774W        W25168  31.072   6.456   1.817
56775W        W25169  15.387  13.054  10.590
56776W        W25170  20.800  33.454  13.932
56777W        W25171  17.739  32.535  14.590
56778W        W25172  19.985   4.887   2.136
56779W        W25173   3.841  10.347  11.068
56780W        W25174   2.923  28.915   3.374
56781W        W25175   4.890  24.134  12.957
56782W        W25176  43.499  28.505  11.961
56783W        W25177  43.437  17.544  11.540
56784W        W25178  19.945  18.504   0.463
56785W        W25179  31.592  35.231   2.157
56786W        W25180  20.673   0.260  14.993
56787W        W25181  34.062  20.513  14.294
56788W        W25182  33.555  26.670  13.999
56789W        W25183   1.913  34.922  11.544
56790W        W25184  19.728  21.000   3.312
56791W        W25185  16.381  29.898   1.702
56792W        W25186   7.599  12.848   4.713
56793W        W25187  11.427  20.010   2.696
56794W        W25188   5.516   7.114   0.852
56795W        W25189  38.283  32.462   0.518
56796W        W25190  23.506  33.354   3.621
56797W        W25191  24.405  26.973   2.628
56798W        W25192  38.123  15.960   1.416
56799W        W25193  30.718   2.405   3.686
56800W        W25194  24.107  26.013   4.437
56801W        W25195  28.256   5.255   3.188
56802W        W25196  25.762  27.584   1.807
56803W        W25197  43.732  27.723  14.812
56804W        W25198  43.790   2.746  12.538
56805W        W25199  14.674  42.878  11.420
56806W        W25200  36.461  33.919   1.942
56807W        W25201  10.831  14.307  14.440
56808W        W25202   4.912  32.427   3.297
56809W        W25203  15.784  41.240   0.946
56810W        W25204  19.711   6.484   3.480
56811W        W25205  24.034  15.095   2.301
56812W        W25206  25.979  30.702   3.713
56813W        W25207  42.303  21.850   2.508
56814W        W25208  13.152  23.014  12.125
56815W        W25209   5.820  24.571  13.292
56816W        W25210  39.920  42.272   3.245
56817W        W25211  24.229  18.165   1.361
56818W        W25212  44.735   1.057   3.694
56819W        W25213  31.044  13.745   1.386
56820W        W25214   8.668  31.502  13.455
56821W        W25215  39.543  26.415   0.016
56822W        W25216  23.719  42.613   9.859
56823W        W25217  36.848   6.760   2.311
56824W        W25218  39.558   0.445   0.772
56825W        W25219  34.934  11.781   4.216
56826W        W25220   5.972  44.266   2.112
56827W        W25221  41.750   8.037   3.334
56828W        W25222   7.323   8.374  11.514
56829W        W25223  41.484  18.270  13.048
56830W        W25224  29.008  16.098  12.054
56831W        W25225  38.003   9.443  12.485
56832W        W25226  31.065  10.537   3.199
56833W        W25227  15.327  40.426   2.076
56834W        W25228  12.740  17.038  11.373
56835W        W25229  13.370  14.998   0.297
56836W        W25230  23.654   8.444   4.376
56837W        W25231  38.829   6.059  11.287
56838W        W25232  14.618  20.403  10.419
56839W        W25233   7.862  34.604  11.562
56840W        W25234   0.780  18.666   4.618
56841W        W25235  35.279  14.671  14.297
56842W        W25236  11.343  33.350   0.279
56843W        W25237   3.955   1.807  14.921
56844W        W25238  12.592  20.488  11.062
56845W        W25239  30.361  27.700  13.468
56846W        W25240  38.238  17.814   0.135
56847W        W25241  31.435  20.331  12.574
56848W        W25242  15.431  23.089   2.265
56849W        W25243   5.569  43.075  14.416
56850W        W25244  13.899  19.301   0.508
56851W        W25245   7.456  29.674   4.232
56852W        W25246  10.475  22.236   3.667
56853W        W25247  25.000  12.938   5.331
56854W        W25248  19.010  31.552  10.542
56855W        W25249  17.039  24.433   4.143
56856W        W25250   1.077  25.181   0.008
56857W        W25251  25.667  39.018  12.019
56858W        W25252  25.202  36.644  14.761
56859W        W25253  15.576  18.676  14.322
56860W        W25254  44.791  15.511  11.230
56861W        W25255   7.869  12.020   4.454
56862W        W25256  31.017  20.642   4.610
56863W        W25257   8.108   7.690   1.123
56864W        W25258  41.048  44.750   3.567
56865W        W25259   5.386  39.021   4.349
56866W        W25260   4.294  29.175   1.775
56867W        W25261  26.650  36.598   5.026
56868W        W25262  24.654  32.196   3.272
56869W        W25263  26.302  27.389   0.420
56870W        W25264  28.669  12.735  13.624
56871W        W25265  37.297  43.511   0.844
56872W        W25266   9.998  38.592  11.430
56873W        W25267  25.221  29.453  11.644
56874W        W25268  15.783  16.308   3.986
56875W        W25269  12.897  13.189  13.455
56876W        W25270  35.398   6.845   3.287
56877W        W25271  15.799  15.154   0.360
56878W        W25272  24.445   7.175   1.288
56879W        W25273   9.984  43.458  13.635
56880W        W25274  16.343   0.005   3.326
56881W        W25275  28.966  22.270  14.122
56882W        W25276  22.417  28.258   4.481
56883W        W25277  11.534   9.779   3.303
56884W        W25278  26.630  14.178   0.597
56885W        W25279  42.035   9.200   2.430
56886W        W25280  22.280  30.946   4.603
56887W        W25281  41.021   0.534   2.245
56888W        W25282  40.892  17.156   4.509
56889W        W25283  20.572   0.929   4.231
56890W        W25284  38.158  11.219  10.469
56891W        W25285  36.524  27.591   3.406
56892W        W25286  16.278   1.632   4.112
56893W        W25287  40.769  11.029  12.258
56894W        W25288  44.843  17.661  14.507
56895W        W25289   7.964  44.110   0.810
56896W        W25290  21.706  12.000   9.791
56897W        W25291  17.630  36.395   0.353
56898W        W25292  38.669  10.227   0.205
56899W        W25293   9.386  25.612  14.448
56900W        W25294   7.735  39.334  14.358
56901W        W25295  38.665  11.701  14.870
56902W        W25296  10.463  22.142  14.469
56903W        W25297  25.096  32.917  14.464
56904W        W25298  22.649  34.557   2.874
56905W        W25299   8.597  32.840  11.382
56906W        W25300  20.430   2.281  10.729
56907W        W25301  11.170  23.624   2.109
56908W        W25302  27.909  14.271  10.239
56909W        W25303  37.110  31.134   0.363
56910W        W25304  15.095  35.316   0.967
56911W        W25305  18.718  12.487  10.384
56912W        W25306   0.900  10.063   3.573
56913W        W25307  43.345  38.837   1.839
56914W        W25308  29.996  37.061   4.697
56915W        W25309  23.195   5.661  14.405
56916W        W25310   8.391  38.391  10.741
56917W        W25311  14.955   7.710   4.838
56918W        W25312  17.239  29.052  10.218
56919W        W25313  25.682   2.749   4.756
56920W        W25314  35.459  38.845   2.113
56921W        W25315  30.490  12.591  10.606
56922W        W25316   6.220  24.052   2.763
56923W        W25317  36.408  34.038   4.393
56924W        W25318   3.979  34.675   1.375
56925W        W25319   4.212  21.472  12.288
56926W        W25320  21.995   2.207   2.781
56927W        W25321  31.520  43.220  11.587
56928W        W25322  37.854   3.376   0.208
56929W        W25323  15.563  43.437   1.825
56930W        W25324  15.147  29.145   3.751
56931W        W25325  34.063  11.830   0.489
56932W        W25326   8.592  20.352  12.603
56933W        W25327  11.092  11.923  14.458
56934W        W25328  20.387  37.060   9.676
56935W        W25329  41.226  25.126  13.471
56936W        W25330  24.714   8.836   0.323
56937W        W25331   6.607  26.954   1.005
56938W        W25332  16.817  11.029   2.384
56939W        W25333  35.575   7.375   1.990
56940W        W25334  18.773  44.797  11.164
56941W        W25335  41.521  31.492  10.922
56942W        W25336  23.796  17.760  10.635
56943W        W25337  25.497   4.136  13.315
56944W        W25338  23.997  27.165   1.704
56945W        W25339  26.423   2.952  13.332
56946W        W25340  31.230  29.634   4.772
56947W        W25341  24.687  28.667  10.720
56948W        W25342   8.933  18.619   0.261
56949W        W25343  29.106   1.302  10.694
56950W        W25344   0.033  41.226  12.547
56951W        W25345  38.241  33.142  11.751
56952W        W25346  22.512  35.318  10.583
56953W        W25347  39.364  15.581  14.918
56954W        W25348   7.397  42.594  12.461
56955W        W25349  38.460  42.887  11.085
56956W        W25350  29.425  16.274   4.634
56957W        W25351  33.364  36.374   1.961
56958W        W25352  26.056   7.708  11.102
56959W        W25353  13.249  25.718   1.246
56960W        W25354  22.711  24.128   1.845
56961W        W25355  34.235  42.916  11.599
56962W        W25356  18.838  32.602  13.877
56963W        W25357  43.271  29.975   2.275
56964W        W25358  29.099  40.565   4.197
56965W        W25359   4.930  24.530  13.913
56966W        W25360  21.974  34.747   1.859
56967W        W25361   3.364  32.097   1.828
56968W        W25362  21.544  40.581   1.259
56969W        W25363  18.590  39.095   1.380
56970W        W25364  14.857  43.323   3.562
56971W        W25365  26.713  12.209  10.918
56972W        W25366  36.015  21.430  13.580
56973W        W25367  32.572  41.071  11.651
56974W        W25368  40.736  44.269  13.339
56975W        W25369  39.337   2.743  12.128
56976W        W25370  28.600   6.788  12.708
56977W        W25371   2.717   8.717   1.668
56978W        W25372  32.152  37.070   3.277
56979W        W25373  21.972  20.034   1.754
56980W        W25374  42.351  16.274  13.130
56981W        W25375   1.654  24.479   1.837
56982W        W25376  21.463  44.890   1.866
56983W        W25377   6.129  25.989   3.232
56984W        W25378   2.870  43.980  10.738
56985W        W25379   6.698  18.195   1.242
56986W        W25380   8.024  43.888  12.495
56987W        W25381  42.171  43.857  11.207
56988W        W25382  20.495   4.892   2.185
56989W        W25383  43.004  37.062   4.101
56990W        W25384  28.840  28.058   3.225
56991W        W25385  43.924   8.310   4.065
56992W        W25386  10.434  13.686   2.777
56993W        W25387  14.969  33.489   5.098
56994W        W25388  38.106   8.695  14.275
56995W        W25389   3.443  32.628  13.460
56996W        W25390   5.528   8.264   1.492
56997W        W25391  10.083   1.714   1.295
56998W        W25392   5.639  14.422  11.436
56999W        W25393  30.638  29.127   1.177
57000W        W25394  20.994   0.739   2.180
57001W        W25395  28.443  41.208   0.442
57002W        W25396   5.673  41.193  14.755
57003W        W25397  35.073   7.835   4.579
57004W        W25398  31.997  19.364   1.068
57005W        W25399  11.176  27.601  12.544
57006W        W25400  43.715   6.949  11.118
57007W        W25401  32.242   3.242  11.548
57008W        W25402  12.985   1.228  13.956
57009W        W25403   4.810  43.987   5.058
57010W        W25404  26.232   6.570  12.424
57011W        W25405  36.159   9.714  12.373
57012W        W25406  11.828  43.598  14.251
57013W        W25407  37.563  28.562   4.887
57014W        W25408  37.029  24.098  11.924
57015W        W25409   3.836  32.036   0.063
57016W        W25410  37.035   0.810   1.860
57017W        W25411  10.178  21.515   4.594
57018W        W25412  34.618  32.259   2.380
57019W        W25413  11.342   1.311  11.657
57020W        W25414  17.712  30.333   3.277
57021W        W25415  20.236   0.292   3.742
57022W        W25416  41.451  20.538   2.095
57023W        W25417  29.171  42.136  13.131
57024W        W25418  22.809   7.399   3.194
57025W        W25419  39.026  27.002  10.731
57026W        W25420  22.755  18.268  14.697
57027W        W25421   4.943  17.558  14.578
57028W        W25422  20.990  33.934   3.662
57029W        W25423  18.060  18.845   2.403
57030W        W25424  42.002  13.371  12.580
57031W        W25425  20.252   9.271   2.697
57032W        W25426  38.299  13.545   0.861
57033W        W25427  18.800   4.693   0.543
57034W        W25428   3.720  34.425  13.465
57035W        W25429  16.657  43.706   1.959
57036W        W25430  19.729  29.867   4.618
57037W        W25431   3.435  15.309  12.456
57038W        W25432  28.209  13.261  13.125
57039W        W25433   1.301  10.632   2.392
57040W        W25434  21.061  22.793  12.378
57041W        W25435  19.285  31.315   0.570
57042W        W25436   9.695  31.526   2.824
57043W        W25437  17.518   4.877  11.148
57044W        W25438   4.640  42.846   1.139
57045W        W25439  33.701  26.441   4.573
57046W        W25440   1.335  36.923  11.148
57047W        W25441  42.916  12.779   4.068
57048W        W25442  18.002  19.731  14.359
57049W        W25443  34.653  16.596   2.648
57050W        W25444  40.821   2.743  13.450
57051W        W25445  10.633  13.603  12.517
57052W        W25446  27.655  37.015   0.451
57053W        W25447   6.671  39.444   3.713
57054W        W25448  17.707  28.133   3.777
57055W        W25449  40.928  24.541   4.531
57056W        W25450  43.530   6.558   3.106
57057W        W25451  26.471  29.402   0.765
57058W        W25452  12.288  16.213   0.837
57059W        W25453  16.032  25.529  12.994
57060W        W25454   1.301  41.343   0.691
57061W        W25455  31.335  24.172   0.797
57062W        W25456  34.934  40.080   4.621
57063W        W25457  33.836  41.211  11.665
57064W        W25458  24.971  17.262   0.590
57065W        W25459  34.055   0.318  14.812
57066W        W25460  13.735  21.575  12.582
57067W        W25461  13.307  31.549   4.677
57068W        W25462  25.551  25.114   3.884
57069W        W25463  18.081  36.650  11.531
57070W        W25464  40.832  39.536   5.172
57071W        W25465  25.474  33.714  12.551
57072W        W25466  11.990  29.977  11.297
57073W        W25467  29.341  35.345  11.197
57074W        W25468   2.815  11.416  14.349
57075W        W25469  20.683  35.338  12.425
57076W        W25470  14.251  22.229  10.499
57077W        W25471  15.249   6.268  11.604
57078W        W25472  20.818   9.135   3.309
57079W        W25473   5.711  24.688  14.341
57080W        W25474  18.104  13.824  14.349
57081W        W25475  26.737   0.925  12.567
57082W        W25476   1.850  36.319  14.133
57083W        W25477  10.098  41.982  10.075
57084W        W25478  41.982  32.873   0.220
57085W        W25479   8.376   3.236   0.927
57086W        W25480  30.062  21.734   4.276
57087W        W25481  26.214  15.474  13.543
57088W        W25482  37.315  44.734  12.420
57089W        W25483  43.475  19.161  13.131
57090W        W25484   7.637  18.179  12.811
57091W        W25485  22.455  36.804   4.632
57092W        W25486   2.194  41.385   3.704
57093W        W25487  44.867   1.488  14.959
57094W        W25488  31.010  26.259  12.572
57095W        W25489  21.524  17.667   1.903
57096W        W25490  19.584  22.135  11.457
57097W        W25491  10.879  39.292  12.999
57098W        W25492  35.364   6.828   0.858
57099W        W25493  20.657  37.001   2.888
57100W        W25494   6.963   1.988  11.646
57101W        W25495  16.901  31.648  14.768
57102W        W25496  16.070  35.476  14.361
57103W        W25497  41.721   5.351   2.444
57104W        W25498  27.489  28.053  11.065
57105W        W25499  20.132  37.296  12.815
57106W        W25500  13.708  28.389   1.727
57107W        W25501  31.194  24.991  10.459
57108W        W25502  44.715  19.018   2.913
57109W        W25503  38.812   5.255  10.251
57110W        W25504  28.917  27.007   0.063
57111W        W25505  42.284  10.145  13.333
57112W        W25506   9.425  27.620   4.282
57113W        W25507   5.812  35.130   4.081
57114W        W25508   1.712  10.549  13.973
57115W        W25509  30.634  25.222   2.641
57116W        W25510  33.715  28.991   4.650
57117W        W25511   2.436   2.139  13.116
57118W        W25512  13.370  32.545   2.917
57119W        W25513  25.800  20.120   0.539
57120W        W25514  29.124  27.777   0.878
57121W        W25515  42.927  22.535   3.407
57122W        W25516  12.093  37.436  12.566
57123W        W25517  15.370  11.970   2.804
57124W        W25518  20.105  22.174   2.979
57125W        W25519  38.286  18.646  13.370
57126W        W25520   8.479   8.180  10.937
57127W        W25521  17.240   2.485  11.032
57128W        W25522   3.422  17.382   4.626
57129W        W25523  21.157  13.261  12.910
57130W        W25524  38.607  16.541   4.261
57131W        W25525  33.826  23.461   0.752
57132W        W25526  23.701  39.328   4.583
57133W        W25527  24.186  26.476  14.323
57134W        W25528  22.803  43.515  13.940
57135W        W25529  16.048  35.111   2.678
57136W        W25530   0.975   3.255  12.739
57137W        W25531  23.576  28.091   1.949
57138W        W25532   1.258  37.874  11.170
57139W        W25533  13.221  20.373  12.264
57140W        W25534  15.126   0.728   1.953
57141W        W25535  35.392  34.568   0.882
57142W        W25536   2.699  20.073  12.926
57143W        W25537   0.524  13.195   2.725
57144W        W25538  43.556  25.559   2.289
57145W        W25539  14.728  29.469   3.380
57146W        W25540  32.023  29.290  12.443
57147W        W25541  16.533  21.456   4.203
57148W        W25542  27.755  42.932   0.677
57149W        W25543  11.135   5.284   3.645
57150W        W25544  19.003  39.886  13.354
57151W        W25545   4.816  15.664   2.349
57152W        W25546  10.935  32.031  11.707
57153W        W25547  43.480   0.875  13.335
57154W        W25548   5.653  15.600   1.811
57155W        W25549  27.551   8.143  11.568
57156W        W25550  31.111  42.014  12.102
57157W        W25551  23.827  13.441   4.724
57158W        W25552  26.435  19.184  12.092
57159W        W25553  17.075  36.442   4.796
57160W        W25554  38.009   4.677  11.803
57161W        W25555   6.889   7.663   2.375
57162W        W25556  42.799  40.696   2.217
57163W        W25557  21.993  12.722   0.807
57164W        W25558   2.685  39.548  12.888
57165W        W25559   7.123  16.150  12.442
57166W        W25560  23.230   0.066  12.277
57167W        W25561  18.563   0.129  12.459
57168W        W25562  33.925  36.816  13.775
57169W        W25563  26.598  23.795   4.767
57170W        W25564  34.736  14.253   2.738
57171W        W25565   2.218  33.432   3.254
57172W        W25566  43.881   6.316  14.368
57173W        W25567  30.645   5.872  12.938
57174W        W25568  38.917  17.211   1.976
57175W        W25569  16.197  26.046  10.821
57176W        W25570  27.520  43.760   3.227
57177W        W25571  36.101  14.572  11.971
57178W        W25572  20.075   6.216  11.527
57179W        W25573  13.945  28.686   0.014
57180W        W25574   0.868  16.658   4.900
57181W        W25575  25.566   3.212  12.407
57182W        W25576  42.079   1.722   9.908
57183W        W25577  41.439  15.013   2.828
57184W        W25578  36.365  19.350   2.820
57185W        W25579  10.192  26.464  12.171
57186W        W25580  14.709  21.936  10.693
57187W        W25581  36.335  37.140   1.580
57188W        W25582   4.883  12.256  12.559
57189W        W25583   0.020  17.795  14.001
57190W        W25584  32.041  25.829   2.534
57191W        W25585  29.034  20.982  13.992
57192W        W25586  16.173  10.327  14.472
57193W        W25587   7.410  16.925   0.811
57194W        W25588  43.260  19.556   4.112
57195W        W25589   7.148  18.184   0.018
57196W        W25590  21.584  37.463  11.373
57197W        W25591  21.764  34.726  10.773
57198W        W25592   2.617   2.193  12.025
57199W        W25593  42.752  44.376   2.176
57200W        W25594  26.698  15.629  11.888
57201W        W25595  33.532  33.628  13.772
57202W        W25596  19.652  43.393  13.900
57203W        W25597  22.815  24.936   1.382
57204W        W25598  11.061  34.044   3.810
57205W        W25599  23.536  14.364   2.181
57206W        W25600   6.192  26.525  13.269
57207W        W25601  29.446  17.446   2.281
57208W        W25602   5.278  41.515   2.844
57209W        W25603   6.963  27.554  13.376
57210W        W25604  38.413  16.766  14.356
57211W        W25605   0.543   8.338  13.838
57212W        W25606  33.007  24.054  13.380
57213W        W25607   9.368  10.874   1.712
57214W        W25608  33.878   9.925   1.917
57215W        W25609   9.148  19.782   4.511
57216W        W25610   4.500  24.809   5.081
57217W        W25611  40.323  26.210  14.371
57218W        W25612   6.026  34.890  12.444
57219W        W25613  11.877   7.751  10.587
57220W        W25614   4.262  17.313   3.600
57221W        W25615   3.966   8.782  13.283
57222W        W25616  29.038  42.054  14.513
57223W        W25617   5.478  39.938  14.131
57224W        W25618  18.594  28.219   0.846
57225W        W25619  20.531  28.479  11.999
57226W        W25620   8.491   3.865  11.165
57227W        W25621  40.956   3.161   1.343
57228W        W25622   9.801  35.129   1.209
57229W        W25623  10.154  32.514   2.352
57230W        W25624  15.894  24.259  13.369
57231W        W25625  40.353  20.909  11.568
57232W        W25626  20.419  18.774  10.126
57233W        W25627  23.943  22.956  10.323
57234W        W25628  38.458   4.503  11.579
57235W        W25629  33.082  17.238  12.629
57236W        W25630   4.482  15.354  11.862
57237W        W25631  10.110  29.057  14.217
57238W        W25632  35.374  40.278  14.245
57239W        W25633   1.176   9.245   2.324
57240W        W25634  12.130  14.683   1.837
57241W        W25635   3.152   8.554   1.251
57242W        W25636   3.571  21.299   3.632
57243W        W25637  32.256   1.568  14.976
57244W        W25638  37.780   8.181   3.671
57245W        W25639  14.740  16.358  11.571
57246W        W25640  12.597   7.768   4.755
57247W        W25641  23.564   9.832   2.230
57248W        W25642  19.954  30.918  10.701
57249W        W25643  23.554  39.546   4.071
57250W        W25644  44.938   0.434  11.926
57251W        W25645  11.412  18.306   1.895
57252W        W25646  23.219  14.628   2.500
57253W        W25647  29.511  10.883  14.340
57254W        W25648  28.030  22.440  10.364
57255W        W25649   7.177  31.392  13.455
57256W        W25650  40.453  12.478   4.965
57257W        W25651  12.346   7.660  14.430
57258W        W25652  10.711  15.196  13.072
57259W        W25653  40.868  42.811  12.230
57260W        W25654  20.505  32.388  14.538
57261W        W25655   6.232  28.503  11.129
57262W        W25656  31.232  26.625   1.394
57263W        W25657  44.751   8.849   0.676
57264W        W25658  39.020  40.994   4.063
57265W        W25659  43.857  28.044  11.826
57266W        W25660  40.429  43.029   3.182
57267W        W25661   1.675   3.262   4.034
57268W        W25662  16.646  20.053  10.270
57269W        W25663  26.054  31.205   0.990
57270W        W25664   9.136  34.073  14.421
57271W        W25665  16.383  12.234  11.186
57272W        W25666   9.726  30.855   1.944
57273W        W25667  13.830   0.522   0.505
57274W        W25668  42.635  39.321   1.411
57275W        W25669  21.492  17.296  12.479
57276W        W25670  22.124   1.307  14.281
57277W        W25671  42.890   6.896  12.424
57278W        W25672   4.419  28.360  12.935
57279W        W25673  37.957  28.730   0.797
57280W        W25674  11.645  24.149  13.347
57281W        W25675  24.129  42.163  11.454
57282W        W25676  16.463  29.225   3.276
57283W        W25677  15.985  29.514  11.146
57284W        W25678   7.776  41.025  10.456
57285W        W25679  43.182  29.800  11.172
57286W        W25680  44.922  29.158  14.792
57287W        W25681   9.884  31.826   1.744
57288W        W25682  19.834  26.990  13.138
57289W        W25683  13.495  11.490  10.519
57290W        W25684  37.785  42.498   1.296
57291W        W25685  15.995  15.700  13.368
57292W        W25686  15.541   2.762   0.240
57293W        W25687  30.446  11.815   2.218
57294W        W25688  42.438  15.269   0.038
57295W        W25689  11.329  27.635   3.852
57296W        W25690  18.167   6.347   3.125
57297W        W25691  39.806   9.111   2.744
57298W        W25692  39.841  26.251   4.372
57299W        W25693  14.755   4.408  10.705
57300W        W25694  19.062  16.310  11.895
57301W        W25695  23.121   8.400   3.658
57302W        W25696  10.726   6.650  14.574
57303W        W25697  30.904   9.215   4.118
57304W        W25698  29.135  21.353  14.470
57305W        W25699   9.608   0.932   1.742
57306W        W25700  23.181  20.204  11.724
57307W        W25701  35.605  44.984  14.467
57308W        W25702  41.474  29.611  13.958
57309W        W25703  36.890  34.621   3.674
57310W        W25704   9.475  36.503   1.271
57311W        W25705  42.826  13.859  14.890
57312W        W25706   6.955  12.718  10.593
57313W        W25707   1.317  35.508   3.698
57314W        W25708  33.499  31.418   4.191
57315W        W25709  34.423   4.680  11.613
57316W        W25710  39.493  10.156  14.831
57317W        W25711  33.633  30.633  12.676
57318W        W25712  34.976  33.420  12.148
57319W        W25713  37.442  24.444   3.210
57320W        W25714   4.525  17.870  11.617
57321W        W25715  32.046  32.436   4.514
57322W        W25716   8.629  29.025  12.832
57323W        W25717  40.855  29.073  11.977
57324W        W25718  15.495  26.017   0.957
57325W        W25719  11.811  19.361   5.069
57326W        W25720   2.979   3.317  11.051
57327W        W25721  30.532  26.191  12.398
57328W        W25722   3.359  11.343   3.509
57329W        W25723  44.288  17.231   3.651
57330W        W25724   0.279   8.494   1.232
57331W        W25725  41.471  36.300   3.685
57332W        W25726   0.920  36.084  12.668
57333W        W25727  44.300   3.550  14.352
57334W        W25728   6.320  10.745   1.447
57335W        W25729  34.030  39.542   3.732
57336W        W25730  28.823   7.830  11.096
57337W        W25731   1.698  20.160  10.647
57338W        W25732  23.497   6.988  14.290
57339W        W25733   4.375   7.946   0.850
57340W        W25734  24.593  38.621   0.356
57341W        W25735  14.582  30.067  11.544
57342W        W25736  38.947  34.507  12.450
57343W        W25737  36.969  24.215  10.656
57344W        W25738  32.141  43.318   2.697
57345W        W25739  24.994  21.264  14.883
57346W        W25740  23.319   0.267  12.860
57347W        W25741   5.197   2.468  10.694
57348W        W25742  11.759  21.829   4.735
57349W        W25743  18.490  20.992  14.222
57350W        W25744  44.515  22.120   2.590
57351W        W25745  22.716  42.023  10.968
57352W        W25746   3.979  27.987  12.112
57353W        W25747  37.361  32.366   4.385
57354W        W25748  14.746  17.237  10.779
57355W        W25749  28.709  11.278  11.990
57356W        W25750  40.338  23.002  13.292
57357W        W25751   1.417  32.072   4.580
57358W        W25752  29.023  40.718  14.783
57359W        W25753  34.609  24.127   1.620
57360W        W25754   3.698   5.098  10.755
57361W        W25755  24.441  14.079  14.902
57362W        W25756  25.740  20.750  12.066
57363W        W25757  34.430  38.187  14.741
57364W        W25758   8.630  12.963   0.338
57365W        W25759   6.463  30.894   4.704
57366W        W25760  20.171  39.250  14.808
57367W        W25761   7.101  11.124   0.924
57368W        W25762  11.682  30.696  10.981
57369W        W25763  19.520  34.061  12.942
57370W        W25764   4.750   7.990  14.828
57371W        W25765  25.016  40.367  12.001
57372W        W25766   3.803  14.537   1.783
57373W        W25767  40.837  37.128   2.377
57374W        W25768  17.132  42.514  12.787
57375W        W25769   2.466  15.733  11.638
57376W        W25770  19.258  25.110  10.343
57377W        W25771  13.545   6.792   3.661
57378W        W25772  29.418  26.642  10.703
57379W        W25773  21.017  23.181  13.571
57380W        W25774  43.529  34.692   0.377
57381W        W25775   0.805  38.950   4.997
57382W        W25776  30.610  27.100  11.021
57383W        W25777  25.048  14.316   2.462
57384W        W25778  41.871  18.192   3.655
57385W        W25779  29.474  27.691   2.365
57386W        W25780  32.136  27.873  10.977
57387W        W25781  31.819   1.351  12.160
57388W        W25782  19.683  41.016   0.081
57389W        W25783  28.412  31.394   0.779
57390W        W25784   5.703   2.823   2.807
57391W        W25785   9.272  42.694   3.603
57392W        W25786  25.594   8.723   0.227
57393W        W25787  17.733   3.757  14.830
57394W        W25788  34.039  27.934  14.746
57395W        W25789  40.046  26.423   5.051
57396W        W25790  18.711  28.038   2.784
57397W        W25791  27.301  27.591   0.572
57398W        W25792  33.120   1.315  11.973
57399W        W25793  29.991  31.844   0.764
57400W        W25794  42.518   3.894   1.713
57401W        W25795  26.684  17.125  11.655
57402W        W25796  25.015   9.475   3.204
57403W        W25797  35.455  27.521   2.807
57404W        W25798  32.932  34.961  13.389
57405W        W25799   4.824   2.501   3.276
57406W        W25800  41.574  35.371  13.346
57407W        W25801  40.916  14.167  13.324
57408W        W25802  25.590   1.055  13.381
57409W        W25803  33.451   9.937   1.272
57410W        W25804   7.282   6.769   3.402
57411W        W25805  27.022  42.962  14.076
57412W        W25806  23.887  10.103   4.948
57413W        W25807  38.288   4.111  13.540
57414W        W25808   8.201   5.940   4.830
57415W        W25809  28.717   4.645  13.597
57416W        W25810  32.480   0.673  14.140
57417W        W25811  32.240  44.825   0.211
57418W        W25812  17.099  22.936   3.218
57419W        W25813  30.232   9.744  11.185
57420W        W25814  27.414   8.432  11.147
57421W        W25815  39.588  35.887   1.817
57422W        W25816  13.012  22.816  10.511
57423W        W25817  40.265  14.058  11.169
57424W        W25818  19.116  43.396   3.679
57425W        W25819  27.482  38.114  12.198
57426W        W25820  34.919  32.117   3.341
57427W        W25821   6.380  36.635  13.553
57428W        W25822   9.253  40.369   4.342
57429W        W25823  38.442  15.662   4.534
57430W        W25824   5.722  34.179   4.961
57431W        W25825  14.107   3.626   1.960
57432W        W25826  20.141  14.044   4.382
57433W        W25827  38.031  17.133   3.891
57434W        W25828  12.673  42.860  13.541
57435W        W25829  39.030   0.731  12.581
57436W        W25830  19.349  18.614   1.393
57437W        W25831  19.413  39.853   4.655
57438W        W25832  41.778  25.326   2.227
57439W        W25833  11.194   0.158  10.434
57440W        W25834   8.052  28.775   2.263
57441W        W25835  12.135  30.439  12.734
57442W        W25836   2.947  28.399   0.961
57443W        W25837  20.230   1.398   1.243
57444W        W25838  40.011  23.952  12.125
57445W        W25839  26.535  35.792  12.556
57446W        W25840  25.067  14.541  14.725
57447W        W25841  19.703  37.867  11.512
57448W        W25842   2.499  38.159   4.131
57449W        W25843  38.289   1.836  14.756
57450W        W25844  42.034  40.930   1.465
57451W        W25845  30.093  35.588  13.468
57452W        W25846  42.450  38.456  12.218
57453W        W25847  25.771  36.784   4.463
57454W        W25848  28.374  10.811  11.655
57455W        W25849  37.757  19.049   3.661
57456W        W25850  24.174  37.349  11.970
57457W        W25851   9.646   9.683  12.486
57458W        W25852  22.973  12.049  10.189
57459W        W25853  14.672  36.581  10.378
57460W        W25854   2.926  39.112   0.364
57461W        W25855  38.307   2.756  12.998
57462W        W25856  34.102  24.819  13.730
57463W        W25857  43.211   9.656   2.160
57464W        W25858  30.652  27.148  12.395
57465W        W25859   3.688   5.163   1.276
57466W        W25860  15.495   6.663   4.075
57467W        W25861  25.196  36.934  14.322
57468W        W25862  35.284  29.141  12.037
57469W        W25863  36.980   2.751  10.625
57470W        W25864  23.248   6.690   1.676
57471W        W25865  34.444   9.143  14.724
57472W        W25866  27.335  16.823  14.275
57473W        W25867  43.228  14.238  10.732
57474W        W25868  28.676   6.873   1.088
57475W        W25869   0.833  30.557  12.636
57476W        W25870   1.633  23.080   1.995
57477W        W25871  10.195   9.062  11.179
57478W        W25872  43.468  38.974  14.851
57479W        W25873  25.104  18.973   4.837
57480W        W25874  11.601  40.861   4.362
57481W        W25875  37.399  34.122   2.454
57482W        W25876  20.321   6.211   1.796
57483W        W25877  12.318  24.036   4.837
57484W        W25878  15.157  10.513  11.199
57485W        W25879  36.417  42.456   2.633
57486W        W25880  12.323  29.457  14.276
57487W        W25881  29.256  36.441  10.661
57488W        W25882  35.184  17.087  14.235
57489W        W25883  30.561  34.988  13.276
57490W        W25884  31.512  35.507   2.883
57491W        W25885  28.572   6.644  13.554
57492W        W25886  11.697  22.580   2.798
57493W        W25887  23.599   8.936   0.529
57494W        W25888  27.521   6.179   1.338
57495W        W25889  22.530  44.000   0.357
57496W        W25890  20.109  13.138   0.026
57497W        W25891  44.337  13.914   3.724
57498W        W25892  17.077  38.448   3.243
57499W        W25893   5.455   7.675   4.595
57500W        W25894  27.013   5.150  11.139
57501W        W25895  35.622   4.629   4.143
57502W        W25896  16.560  10.763  13.377
57503W        W25897  22.123  37.165   1.746
57504W        W25898  31.658  30.990  13.898
57505W        W25899   3.924  12.402   1.673
57506W        W25900  28.558  16.084  10.667
57507W        W25901  36.425   6.236   3.930
57508W        W25902  31.271  10.130  11.973
57509W        W25903  29.937   0.511  13.824
57510W        W25904  40.940   1.452   2.148
57511W        W25905   8.320  11.249  10.701
57512W        W25906  40.462   2.633  12.480
57513W        W25907  15.148   4.297   1.701
57514W        W25908  32.588  30.470   4.593
57515W        W25909  18.922  31.067  10.808
57516W        W25910  34.560   5.510   2.225
57517W        W25911  43.241  27.281  10.796
57518W        W25912  44.522  19.286  14.875
57519W        W25913  32.979  41.770  10.584
57520W        W25914  13.370   7.970   3.640
57521W        W25915  20.466  23.984  13.949
57522W        W25916  33.745  10.828   2.863
57523W        W25917  40.469  24.675  10.767
57524W        W25918   6.407  15.797   2.129
57525W        W25919  42.635  14.192   4.069
57526W        W25920   0.801  27.993   3.703
57527W        W25921  23.741  27.606  12.389
57528W        W25922  35.864  33.494   0.526
57529W        W25923  18.253  17.699   3.604
57530W        W25924  10.214  37.956   2.326
57531W        W25925  17.799  36.424  10.085
57532W        W25926  36.816   4.948   3.782
57533W        W25927   7.700   9.317  10.725
57534W        W25928  40.567   4.616   4.121
57535W        W25929  39.535   8.630  14.568
57536W        W25930   1.605  23.309   4.686
57537W        W25931  17.296  33.267  13.524
57538W        W25932  11.118   2.620  11.610
57539W        W25933  14.405   4.279  11.541
57540W        W25934  10.946  19.200  11.578
57541W        W25935  38.908  31.549   4.407
57542W        W25936  10.751  17.338   2.319
57543W        W25937  31.643  42.437   4.378
57544W        W25938  15.989   0.295   4.394
57545W        W25939  15.088  42.583  11.237
57546W        W25940  20.636  44.309  13.828
57547W        W25941  16.186  24.226  14.596
57548W        W25942  23.553  15.170   1.739
57549W        W25943  13.609  33.497   3.604
57550W        W25944  22.516  21.096   3.604
57551W        W25945   8.096  27.962   4.639
57552W        W25946  14.632  28.201  13.500
57553W        W25947   2.561  31.070   0.776
57554W        W25948   9.336  30.214   2.635
57555W        W25949   3.071  38.035   0.395
57556W        W25950   0.536  15.093   1.462
57557W        W25951  40.392  36.728  13.744
57558W        W25952  29.434  33.020  10.953
57559W        W25953  21.249  19.009  14.510
57560W        W25954  13.350  36.483  12.594
57561W        W25955  12.804  28.743  14.340
57562W        W25956  26.028  18.507   1.284
57563W        W25957  17.423  11.756  12.107
57564W        W25958  44.903   9.757   4.691
57565W        W25959  26.223  17.546   3.328
57566W        W25960   7.150  14.881  10.676
57567W        W25961   1.321   8.120  11.271
57568W        W25962   9.368  32.048   4.571
57569W        W25963  28.263  26.649  11.458
57570W        W25964  39.966  36.388   0.691
57571W        W25965  19.165  40.243   2.740
57572W        W25966   7.316  18.125   4.239
57573W        W25967  41.502  41.276   0.866
57574W        W25968  42.507  38.270  13.201
57575W        W25969  29.432  18.298   0.469
57576W        W25970  21.925  30.994   3.352
57577W        W25971   4.825  34.443  10.258
57578W        W25972  23.502  31.566  11.685
57579W        W25973  26.511  21.296   3.728
57580W        W25974  21.574  25.768  14.868
57581W        W25975   5.677  39.263  12.640
57582W        W25976  36.004  39.671   4.157
57583W        W25977   2.619  24.496   4.408
57584W        W25978  32.485   5.918  11.531
57585W        W25979   9.280   1.774  11.924
57586W        W25980  32.151  12.674   2.955
57587W        W25981  19.009  27.278   2.716
57588W        W25982  31.508   2.804  13.364
57589W        W25983  26.580  40.562   2.227
57590W        W25984  38.815   7.422  13.894
57591W        W25985  41.959  39.606   0.762
57592W        W25986  41.749  24.429   4.135
57593W        W25987   0.754   5.769  13.408
57594W        W25988  19.592  14.842  13.830
57595W        W25989   1.242   0.005  10.769
57596W        W25990  39.785  10.795  10.626
57597W        W25991  39.933  25.645   2.765
57598W        W25992   6.105  11.661  12.643
57599W        W25993   0.828  14.315  10.778
57600W        W25994  31.198  26.121   1.264
57601W        W25995  25.924  27.097  13.926
57602W        W25996  44.430  42.298   1.783
57603W        W25997  44.328  39.747  11.364
57604W        W25998  33.762   1.070   3.696
57605W        W25999  25.011  20.660   0.691
57606W        W26000  14.619   4.555   0.865
57607W        W26001  40.125  21.088   2.860
57608W        W26002  18.782  40.069   1.393
57609W        W26003   9.277  20.099  12.081
57610W        W26004   9.648  10.764   2.289
57611W        W26005  21.652  25.263  14.963
57612W        W26006  14.697  14.144   3.770
57613W        W26007   9.388  39.081   4.718
57614W        W26008  36.427  18.064  13.402
57615W        W26009  21.541  20.543   3.065
57616W        W26010  21.124  10.233   2.612
57617W        W26011  28.591  21.998  12.846
57618W        W26012  44.290  12.830   4.775
57619W        W26013   4.467  17.225   3.127
57620W        W26014  40.789  11.386   3.210
57621W        W26015  19.084   4.001  14.840
57622W        W26016   5.205  37.266  11.960
57623W        W26017   7.162  26.563   2.786
57624W        W26018  42.318  12.268   1.391
57625W        W26019   4.284   9.715  12.818
57626W        W26020  33.223  16.827   2.614
57627W        W26021  43.366  41.614   2.707
57628W        W26022  28.437  22.109  11.396
57629W        W26023  22.236  30.581   3.183
57630W        W26024  35.975  43.991  12.341
57631W        W26025  14.047  40.796   1.226
57632W        W26026  12.830   4.651   3.225
57633W        W26027  40.557  39.374  11.985
57634W        W26028   0.073  19.181   4.811
57635W        W26029  36.902  34.017  10.890
57636W        W26030  44.369  28.099  12.667
57637W        W26031  34.604   6.324   0.016
57638W        W26032  21.178  23.848  14.953
57639W        W26033  25.143  27.568   4.229
57640W        W26034   8.663  37.262  13.911
57641W        W26035   9.875  22.149   1.822
57642W        W26036  16.398   7.737   0.216
57643W        W26037  34.893  13.456   3.561
57644W        W26038  43.543  31.216   1.895
57645W        W26039   6.350   0.480  10.664
57646W        W26040  33.486  27.017  12.061
57647W        W26041  39.121  19.568   2.076
57648W        W26042   7.352  10.187   4.092
57649W        W26043  34.605  34.877   4.637
57650W        W26044  14.107   9.815  12.853
57651W        W26045  39.486   1.464   0.953
57652W        W26046  25.123   1.667   2.738
57653W        W26047  30.965  34.179  13.095
57654W        W26048  16.020  28.710  10.724
57655W        W26049  31.899   4.934  14.612
57656W        W26050   5.030  19.993  14.758
57657W        W26051  33.579  20.195   2.359
57658W        W26052  31.974   7.707   0.007
57659W        W26053  40.533  25.445  13.339
57660W        W26054  33.984  43.000  11.155
57661W        W26055  32.075  11.232  13.582
57662W        W26056  22.473  31.048  11.158
57663W        W26057  29.833  44.483  12.025
57664W        W26058  34.562  34.052   0.792
57665W        W26059  24.734   5.656   0.395
57666W        W26060  37.792  33.990  13.123
57667W        W26061  19.920  11.357  14.975
57668W        W26062   0.084  22.812   3.700
57669W        W26063  15.134   1.816   0.977
57670W        W26064   3.016  27.558   4.633
57671W        W26065  40.245   9.399  12.663
57672W        W26066  14.447  41.291  11.901
57673W        W26067  31.977   1.771   1.319
57674W        W26068  17.027   0.792  11.604
57675W        W26069  37.627   7.460  11.123
57676W        W26070  28.083   8.901   3.710
57677W        W26071   8.403  18.119  14.435
57678W        W26072   2.953  30.466   4.446
57679W        W26073  13.129  44.983  11.377
57680W        W26074  33.373  34.651  11.870
57681W        W26075   4.247   0.912  14.526
57682W        W26076  19.236  27.306  13.930
57683W        W26077  39.244   1.972   0.770
57684W        W26078  32.999   3.385  13.905
57685W        W26079  29.174  32.853  12.516
57686W        W26080   3.842  15.270   1.687
57687W        W26081  13.344  32.118   5.074
57688W        W26082  28.184   1.582  13.062
57689W        W26083  12.188  16.774   2.456
57690W        W26084  29.939  39.601   4.047
57691W        W26085  27.420  41.400  10.917
57692W        W26086  24.555  38.977   4.572
57693W        W26087  42.311  32.117   4.211
57694W        W26088  18.755  26.610   4.242
57695W        W26089   9.414   8.753  10.236
57696W        W26090  10.757  15.320  14.023
57697W        W26091  37.804  39.810  13.830
57698W        W26092  23.470  29.486  11.139
57699W        W26093   4.203  34.486   0.025
57700W        W26094  43.970  16.152  11.538
57701W        W26095  17.167   7.624  12.983
57702W        W26096   2.411   8.793  13.831
57703W        W26097  17.951  12.380   1.406
57704W        W26098  11.860  33.599   1.180
57705W        W26099  12.380  41.880  11.543
57706W        W26100  44.464  44.951  13.155
57707W        W26101  21.655  40.220   0.897
57708W        W26102   7.701  15.082  14.787
57709W        W26103  27.485  23.779   3.653
57710W        W26104  14.843  44.035  13.802
57711W        W26105   1.445  25.088   2.106
57712W        W26106  25.879  23.967   1.194
57713W        W26107   2.212  19.112  13.899
57714W        W26108  44.975  13.321  10.480
57715W        W26109  22.590  39.031  10.699
57716W        W26110  26.489  30.961  14.313
57717W        W26111  44.761   9.809   0.398
57718W        W26112  32.112  25.198   0.180
57719W        W26113  18.499  36.119  11.943
57720W        W26114  20.176  29.913   1.644
57721W        W26115   4.347  30.476   2.572
57722W        W26116  38.361  32.639  14.065
57723W        W26117  28.057  36.409   2.120
57724W        W26118   2.914   0.864  13.397
57725W        W26119   4.181  44.827  11.112
57726W        W26120  28.144  33.919   3.706
57727W        W26121  10.489   1.565   2.228
57728W        W26122   1.215  22.695   4.116
57729W        W26123  29.128  23.662   4.021
57730W        W26124  43.311  10.993  12.626
57731W        W26125  39.484   7.170  12.022
57732W        W26126  29.957  13.350  14.998
57733W        W26127  31.657  39.855   1.231
57734W        W26128  20.171  16.088  13.498
57735W        W26129   7.254  25.570   2.006
57736W        W26130  43.244  27.595  12.452
57737W        W26131  10.322   0.436   4.250
57738W        W26132  22.490   8.670  13.852
57739W        W26133  11.973  17.098  12.469
57740W        W26134   5.890   1.258  13.324
57741W        W26135  20.909   2.261   0.922
57742W        W26136  25.034  41.030  12.340
57743W        W26137  23.646  24.085   4.202
57744W        W26138   6.314  21.075  10.217
57745W        W26139  38.330  33.971   1.999
57746W        W26140  36.467  20.168   0.664
57747W        W26141   6.497  44.379   0.484
57748W        W26142  14.342  29.489  12.581
57749W        W26143  44.019  41.319   0.916
57750W        W26144   9.131  33.460  12.452
57751W        W26145  42.605  17.041   2.330
57752W        W26146  33.088  31.225  13.904
57753W        W26147  43.605  12.515   2.151
57754W        W26148  38.357  44.829  12.507
57755W        W26149  27.075  27.134  14.704
57756W        W26150  18.462  14.487   3.254
57757W        W26151  39.388  38.647  12.326
57758W        W26152  23.296  30.363   2.083
57759W        W26153  30.335  17.623  14.377
57760W        W26154  11.360   9.746   2.190
57761W        W26155  32.325  40.291  14.237
57762W        W26156   3.039   3.271   2.887
57763W        W26157   5.175  10.233  11.853
57764W        W26158  41.942  14.842   0.950
57765W        W26159  21.019  22.113   4.765
57766W        W26160  30.984   8.593  11.215
57767W        W26161   9.453  26.733   3.343
57768W        W26162  25.193  30.962   4.999
57769W        W26163  31.480   6.618  13.831
57770W        W26164  43.742  37.380  12.894
57771W        W26165  25.289  34.985   0.871
57772W        W26166  35.750  37.232   1.377
57773W        W26167  43.778   3.133  10.551
57774W        W26168  22.638  16.149  11.876
57775W        W26169  43.988  25.281   1.439
57776W        W26170  34.002  36.548  13.320
57777W        W26171  17.999  27.618  14.754
57778W        W26172  18.477  18.994  11.722
57779W        W26173  39.507  39.530   3.555
57780W        W26174  18.036  44.784  10.678
57781W        W26175  28.466  30.106   1.414
57782W        W26176  35.951   5.089  14.103
57783W        W26177  31.922   6.462  13.073
57784W        W26178  43.469  11.168   4.531
57785W        W26179  38.057  12.230  11.228
57786W        W26180   4.547   1.140  11.551
57787W        W26181  43.653  17.090   1.649
57788W        W26182  24.125  23.432   0.409
57789W        W26183   4.661  41.560   1.718
57790W        W26184  24.427  21.432  12.905
57791W        W26185   3.971  36.547   2.109
57792W        W26186  44.914  42.528   1.694
57793W        W26187   2.636  18.153  13.798
57794W        W26188  40.245   2.219  11.652
57795W        W26189  27.596  44.857  11.799
57796W        W26190   9.103  14.474   4.084
57797W        W26191  11.815   5.661  11.901
57798W        W26192  10.336  22.566  11.678
57799W        W26193   3.102  24.928  13.066
57800W        W26194   2.965   4.062   3.488
57801W        W26195  22.030  26.510   5.112
57802W        W26196  16.624  22.794  11.184
57803W        W26197  15.877  12.288  11.163
57804W        W26198   2.927  20.232   1.213
57805W        W26199  21.437  14.174   0.951
57806W        W26200  24.062   5.231   3.138
57807W        W26201  43.993  19.194  13.069
57808W        W26202   3.302  37.029   1.235
57809W        W26203   8.954  23.006  12.067
57810W        W26204  22.141   3.439   4.144
57811W        W26205  14.020  36.283   5.058
57812W        W26206  13.242  43.921  10.446
57813W        W26207  21.603  37.289  10.891
57814W        W26208  30.023  17.265  13.617
57815W        W26209   2.434   4.588  10.778
57816W        W26210   0.070  17.572   0.405
57817W        W26211   6.732  17.770   0.166
57818W        W26212   1.458  36.165   0.861
57819W        W26213  28.264  23.765   1.399
57820W        W26214  27.529  42.966   4.574
57821W        W26215   0.776   7.240   2.661
57822W        W26216  18.030   3.330   2.856
57823W        W26217  26.590  23.198  14.554
57824W        W26218  10.347  27.162   4.537
57825W        W26219  15.880  11.528  13.258
57826W        W26220  29.652  24.026   1.453
57827W        W26221   1.224   9.670   0.360
57828W        W26222  27.045   8.678   0.873
57829W        W26223  23.589  29.759   0.313
57830W        W26224   8.759  31.085   0.086
57831W        W26225   3.750  13.839   3.215
57832W        W26226  12.747  38.312  11.205
57833W        W26227  23.763  28.146  13.811
57834W        W26228  21.670   8.553   2.467
57835W        W26229  39.251  13.350  14.480
57836W        W26230  17.793  23.448   0.254
57837W        W26231  40.301  31.186   3.853
57838W        W26232  37.965  14.839  13.163
57839W        W26233   5.265   2.797   3.138
57840W        W26234   9.299  27.509  10.920
57841W        W26235   3.497  37.072   2.238
57842W        W26236  10.915  27.566  12.095
57843W        W26237  19.070  41.689  13.958
57844W        W26238   6.858  23.452   5.500
57845W        W26239  37.727  44.425  12.396
57846W        W26240  25.211  16.191   2.015
57847W        W26241  31.061  34.087  12.495
57848W        W26242   5.075  24.148   2.110
57849W        W26243  24.275  15.678   3.571
57850W        W26244  20.110   3.096  11.045
57851W        W26245  10.509  26.135   0.058
57852W        W26246   2.888  22.310  12.357
57853W        W26247  21.496   8.158   0.326
57854W        W26248  43.456  37.593  14.325
57855W        W26249   3.599  28.134   3.230
57856W        W26250   2.432  37.452  10.638
57857W        W26251  27.927  36.796  12.911
57858W        W26252  24.051  33.634  10.235
57859W        W26253  23.103  29.554   2.838
57860W        W26254  13.268   2.214  11.006
57861W        W26255   3.953  31.484   1.727
57862W        W26256  11.837  43.962  12.540
57863W        W26257   4.366  13.824   2.535
57864W        W26258  43.947  40.886   4.744
57865W        W26259   2.836  36.037  10.414
57866W        W26260  32.652  28.589  10.647
57867W        W26261  38.808  33.145  12.882
57868W        W26262  28.741  42.278  12.863
57869W        W26263   2.776  12.666   3.728
57870W        W26264  13.752  43.048  13.953
57871W        W26265  41.371  27.041  11.196
57872W        W26266   3.723  17.319   3.687
57873W        W26267  16.165   0.056  14.030
57874W        W26268  40.802   4.481   3.676
57875W        W26269  37.582  24.544   1.392
57876W        W26270  39.357  27.818  12.543
57877W        W26271  33.406  39.280   0.865
57878W        W26272   1.748  22.786   2.400
57879W        W26273  25.085  39.598   1.775
57880W        W26274  23.716  31.483  12.642
57881W        W26275  35.980  38.878   2.880
57882W        W26276  20.098  39.468   3.355
57883W        W26277  26.462  14.499  12.495
57884W        W26278  17.782  23.734  12.594
57885W        W26279  31.690  36.279   1.291
57886W        W26280  23.117  26.098   2.750
57887W        W26281  27.069   2.264  12.113
57888W        W26282  12.709  28.583  10.719
57889W        W26283   6.700  43.818  13.789
57890W        W26284  13.549  17.585  10.457
57891W        W26285  30.668  43.415  11.768
57892W        W26286  41.224  31.797   3.492
57893W        W26287   3.015  14.334  13.873
57894W        W26288   2.997  33.136  14.291
57895W        W26289   3.759  11.150   3.795
57896W        W26290  43.819  13.617  11.503
57897W        W26291   2.179   3.186  10.745
57898W        W26292   3.991   5.472   3.156
57899W        W26293   8.855  17.156   0.819
57900W        W26294  22.226  19.511  10.354
57901W        W26295  18.950  41.243  12.660
57902W        W26296  40.260  32.035   1.904
57903W        W26297  40.378  20.183  10.323
57904W        W26298  11.861  42.071   0.308
57905W        W26299  34.605  27.342   2.781
57906W        W26300  14.440   5.309   2.580
57907W        W26301  35.455  33.320   2.336
57908W        W26302   8.420  44.545   1.900
57909W        W26303   8.247  42.002  11.186
57910W        W26304  12.286   1.687   3.078
57911W        W26305  40.830  26.577  11.754
57912W        W26306   6.403  19.238   0.802
57913W        W26307  34.155  19.449  13.328
57914W        W26308  24.771  12.238  11.633
57915W        W26309  22.048  16.285   2.161
57916W        W26310   0.265  44.363  13.370
57917W        W26311   0.239  27.990   0.299
57918W        W26312  38.707   5.657  14.370
57919W        W26313   8.159  12.745   9.863
57920W        W26314   8.678  25.277   2.228
57921W        W26315  33.383  33.954  11.000
57922W        W26316  36.533  30.416  14.308
57923W        W26317  33.566  15.605  13.199
57924W        W26318  16.733  17.750   2.260
57925W        W26319  19.721   2.564   4.022
57926W        W26320  44.479  28.217   4.228
57927W        W26321  26.650  18.196   4.726
57928W        W26322  27.017   0.015   5.457
57929W        W26323  41.443  37.436  13.910
57930W        W26324  43.896   3.259   3.969
57931W        W26325  12.137  41.846  12.908
57932W        W26326  11.760  41.269   1.648
57933W        W26327  36.047   5.167  13.589
57934W        W26328  28.665  42.504   3.609
57935W        W26329   2.260  33.138  11.560
57936W        W26330  37.352  41.800   3.707
57937W        W26331  42.771  28.073  14.870
57938W        W26332  12.318  42.529  14.709
57939W        W26333  10.368   3.354  14.728
57940W        W26334  18.578  27.095   0.985
57941W        W26335  30.776  30.414   1.265
57942W        W26336   0.389   5.363  13.357
57943W        W26337  37.792  42.247   2.775
57944W        W26338  38.308   1.031   0.360
57945W        W26339   3.366  19.565  10.342
57946W        W26340   4.661   7.098   3.847
57947W        W26341  26.872  16.876  13.509
57948W        W26342  28.481  26.669   4.176
57949W        W26343  44.050  40.422   4.988
57950W        W26344  26.683  16.225  12.558
57951W        W26345  13.167  41.799  11.958
57952W        W26346  31.144  33.985   4.144
57953W        W26347  31.436  39.464  13.057
57954W        W26348   7.109  41.500   1.864
57955W        W26349   5.403   2.360   2.855
57956W        W26350   2.262  38.810   2.194
57957W        W26351   7.993  32.093   1.633
57958W        W26352  19.296   2.315   2.294
57959W        W26353   7.918  41.698  14.581
57960W        W26354  15.430  20.097  12.907
57961W        W26355   4.284  10.255   3.087
57962W        W26356   4.852  34.906   1.172
57963W        W26357  22.355  37.650   1.722
57964W        W26358  18.696   0.009  14.942
57965W        W26359  33.317  42.252   3.662
57966W        W26360  11.781  43.740  13.363
57967W        W26361  18.170  28.366  12.344
57968W        W26362  19.086  15.866   1.465
57969W        W26363  11.825  27.388   2.850
57970W        W26364  26.121   4.634  12.743
57971W        W26365  26.445  34.641  11.336
57972W        W26366  20.166  19.234   3.837
57973W        W26367   1.886  22.935  11.636
57974W        W26368  30.622  35.444  13.512
57975W        W26369  43.057  27.038  13.519
57976W        W26370  41.561   5.350   2.950
57977W        W26371  32.943  30.413   2.386
57978W        W26372  11.684  38.009  14.103
57979W        W26373  15.972   8.463  14.026
57980W        W26374  19.585   7.091   0.567
57981W        W26375  35.796   3.129   4.346
57982W        W26376  24.481  40.795   1.949
57983W        W26377  37.512   7.000  14.431
57984W        W26378  18.953  20.137  12.951
57985W        W26379  29.028  40.374   0.674
57986W        W26380  30.932  12.906   2.539
57987W        W26381  17.441  23.066   0.974
57988W        W26382   2.689   6.700  11.390
57989W        W26383  31.080  15.072  12.001
57990W        W26384   9.288  36.718   3.681
57991W        W26385  34.687  25.910  11.228
57992W        W26386  39.352  24.288  10.962
57993W        W26387  19.465   2.881   3.707
57994W        W26388  23.256  24.019   3.605
57995W        W26389  28.858  32.889  11.677
57996W        W26390  23.603  31.101   2.388
57997W        W26391   5.354  18.316  12.643
57998W        W26392  16.404   0.373   2.902
57999W        W26393  12.200  23.634  14.910
58000W        W26394  13.256   3.875  12.967
58001W        W26395  20.352  14.117   2.747
58002W        W26396  28.037   3.155   3.280
58003W        W26397  42.387  28.345   1.829
58004W        W26398  39.704  12.671  12.591
58005W        W26399  14.200  37.145   1.892
58006W        W26400  29.681  42.519   2.342
58007W        W26401  37.073  40.258  14.876
58008W        W26402  15.714  44.462   1.780
58009W        W26403  33.690  42.961   4.149
58010W        W26404  10.292   7.619   1.683
58011W        W26405  37.515  27.108   3.762
58012W        W26406   0.504  13.111   4.122
58013W        W26407  35.996  24.261   4.740
58014W        W26408  21.563  42.306  13.550
58015W        W26409  35.982  22.480   0.976
58016W        W26410  37.588   4.947  10.578
58017W        W26411  21.355  32.964   2.565
58018W        W26412   2.995  35.569  14.444
58019W        W26413  15.535  31.944   2.745
58020W        W26414  43.379  22.903  10.352
58021W        W26415  33.795  11.929   3.516
58022W        W26416   9.251  28.468  10.856
58023W        W26417  15.339   9.826   4.503
58024W        W26418   7.757  39.108  13.847
58025W        W26419  26.908  35.415  11.969
58026W        W26420   7.685  14.366   1.296
58027W        W26421  28.231   5.843  11.409
58028W        W26422   3.727  26.060   1.348
58029W        W26423  33.145   4.373  11.604
58030W        W26424  10.440  21.756   4.226
58031W        W26425   9.655  38.208   3.640
58032W        W26426  18.013  20.551   1.475
58033W        W26427  35.482   2.945   4.717
58034W        W26428  43.883  35.882   4.448
58035W        W26429  40.184  42.519  13.026
58036W        W26430  32.438   8.101  12.930
58037W        W26431   9.623  13.232  10.925
58038W        W26432  30.147  22.720   3.181
58039W        W26433  38.853  14.343  11.066
58040W        W26434  44.994   0.563   1.757
58041W        W26435  39.460  12.324   1.847
58042W        W26436   3.759  28.998  12.962
58043W        W26437   0.025   6.259  13.050
58044W        W26438  24.755  20.569   3.744
58045W        W26439   1.179  32.488   4.366
58046W        W26440  16.324   9.191   4.119
58047W        W26441  10.946  13.821   2.523
58048W        W26442  37.867  31.114   3.444
58049W        W26443  38.069  23.206   3.087
58050W        W26444  18.909  33.371   1.676
58051W        W26445  26.636  26.509   4.590
58052W        W26446   9.310  11.398   1.729
58053W        W26447  36.858  12.053   2.472
58054W        W26448  18.589  18.709   4.370
58055W        W26449  30.189  11.630  13.742
58056W        W26450  19.639  40.085   2.887
58057W        W26451  28.554   8.743   2.463
58058W        W26452  15.284   2.412   4.621
58059W        W26453  12.960   1.948   0.161
58060W        W26454  34.123   7.790  11.222
58061W        W26455  12.834  17.793   1.208
58062W        W26456  14.911  39.811   2.777
58063W        W26457  44.475  31.543   0.344
58064W        W26458  16.590  16.074  14.682
58065W        W26459   0.823  25.068  10.958
58066W        W26460  17.725   7.790  12.945
58067W        W26461  31.493  38.950  12.984
58068W        W26462  35.702  30.195  14.423
58069W        W26463  10.738   8.301   2.236
58070W        W26464   8.594  29.841   0.414
58071W        W26465  26.289  23.578   0.899
58072W        W26466  16.785  33.237   2.687
58073W        W26467  40.967  36.106   3.569
58074W        W26468  27.492   3.617   0.366
58075W        W26469  42.497  43.366   1.116
58076W        W26470  30.528  33.593   3.683
58077W        W26471  10.202  11.891   1.712
58078W        W26472   6.016  36.614  11.836
58079W        W26473  36.893  31.690   1.396
58080W        W26474  28.884   9.923  10.663
58081W        W26475  14.267  18.217   4.140
58082W        W26476  26.254  29.216  14.840
58083W        W26477   9.709  25.282  14.767
58084W        W26478  37.379  27.502   0.772
58085W        W26479  31.381  36.316  14.554
58086W        W26480  14.819  32.418  13.856
58087W        W26481  11.636  38.074  11.900
58088W        W26482   7.706  14.681   0.883
58089W        W26483  13.186  18.286   3.828
58090W        W26484  25.165   8.886  13.381
58091W        W26485   7.898   6.416   1.865
58092W        W26486   3.747  42.481   0.353
58093W        W26487  28.050  20.297   1.819
58094W        W26488  27.137  41.448   2.430
58095W        W26489  19.007  34.885  14.020
58096W        W26490   0.350  15.370  12.865
58097W        W26491  41.791  42.540   2.651
58098W        W26492  24.169   6.808   4.165
58099W        W26493  18.640  41.044  13.557
58100W        W26494  38.858   0.024   0.183
58101W        W26495   3.194  31.696  13.522
58102W        W26496  29.087   1.992   3.357
58103W        W26497  26.548  29.999  11.813
58104W        W26498  27.385   7.903  11.152
58105W        W26499  15.037  39.640  13.027
58106W        W26500  35.045  11.509  11.173
58107W        W26501  31.153  10.737   1.837
58108W        W26502  32.522  28.007   3.196
58109W        W26503  37.386  30.552  13.066
58110W        W26504  22.571   8.673   3.980
58111W        W26505  10.267   2.671   3.653
58112W        W26506  12.072  23.279  14.557
58113W        W26507  37.331  40.414  14.425
58114W        W26508   6.139  13.241  11.717
58115W        W26509  26.759   3.092  14.913
58116W        W26510  20.420  14.341   9.977
58117W        W26511   1.903  27.614  11.148
58118W        W26512  43.101   3.986   4.769
58119W        W26513   4.201  24.470  14.514
58120W        W26514  30.313  28.998  11.371
58121W        W26515  26.929  18.271  12.081
58122W        W26516   6.232  21.725  11.409
58123W        W26517   5.355  28.227   3.551
58124W        W26518  31.617  33.435   2.793
58125W        W26519   7.620  35.636  14.030
58126W        W26520  21.043  27.959   0.322
58127W        W26521  42.948   4.466  14.477
58128W        W26522  26.581  36.022   1.649
58129W        W26523   3.833  21.984  13.854
58130W        W26524   4.815  10.231  13.561
58131W        W26525  40.437  20.122   3.913
58132W        W26526   0.829  10.635   0.203
58133W        W26527  10.761   7.832  10.542
58134W        W26528  27.104  13.623   4.864
58135W        W26529  38.459   2.292   1.761
58136W        W26530  40.910  21.947   3.149
58137W        W26531  41.956   2.477   3.906
58138W        W26532   7.380  39.949   4.218
58139W        W26533  25.666   7.375  12.390
58140W        W26534  43.105   3.502  10.073
58141W        W26535   0.283  33.859   2.154
58142W        W26536  27.458  19.244   3.566
58143W        W26537  19.456  33.019  13.921
58144W        W26538  12.709  24.605  13.096
58145W        W26539  18.478   7.894   2.713
58146W        W26540  34.106  21.624   2.204
58147W        W26541  25.767  41.287   3.740
58148W        W26542  21.934  34.120   2.805
58149W        W26543   4.745   7.209   0.453
58150W        W26544   7.219   1.727   2.567
58151W        W26545   3.271  39.027  14.943
58152W        W26546  21.921  19.666  14.636
58153W        W26547   6.753  21.493   2.749
58154W        W26548  35.605  41.848   2.678
58155W        W26549  24.189  30.330  11.068
58156W        W26550  30.762  39.839   0.472
58157W        W26551  27.925  36.342  12.558
58158W        W26552  36.457  37.643   5.001
58159W        W26553   7.154  36.617   1.743
58160W        W26554  18.315  11.927  14.404
58161W        W26555  36.076  28.877  10.790
58162W        W26556  19.502  27.077   2.693
58163W        W26557  33.355  21.138   1.658
58164W        W26558  27.697  36.734  13.399
58165W        W26559  44.926  44.755   4.272
58166W        W26560  15.264  33.966   4.855
58167W        W26561  19.487   1.876  14.784
58168W        W26562  27.060  27.593  14.451
58169W        W26563  21.480  17.134   4.562
58170W        W26564   4.812   9.177   2.389
58171W        W26565  42.974  12.577  11.039
58172W        W26566  18.301   9.634   2.245
58173W        W26567  28.564  34.565  11.633
58174W        W26568  43.978   9.229  12.474
58175W        W26569   6.878  22.011   2.783
58176W        W26570  40.395  13.233  12.588
58177W        W26571  31.441  16.055  12.430
58178W        W26572  18.604  25.995   4.555
58179W        W26573  15.809   9.231   4.144
58180W        W26574  29.735  31.428   0.282
58181W        W26575  42.943  38.285   2.332
58182W        W26576  36.008  28.550  14.483
58183W        W26577   0.623  25.276   3.157
58184W        W26578  41.259  39.686  14.474
58185W        W26579  26.290  15.287   2.816
58186W        W26580  34.480   7.631   4.559
58187W        W26581  19.277   4.223   1.499
58188W        W26582  38.347  21.738  12.987
58189W        W26583  32.555  17.309  14.422
58190W        W26584  38.806  40.834  11.607
58191W        W26585  33.067  24.137  14.410
58192W        W26586   7.687   4.405  12.895
58193W        W26587  19.305  18.189  13.057
58194W        W26588  33.603  39.057  11.227
58195W        W26589  31.137  23.584   4.651
58196W        W26590  38.467   3.847  14.840
58197W        W26591   0.887   2.440  14.490
58198W        W26592  43.968  22.387   4.475
58199W        W26593  39.870  42.526   2.798
58200W        W26594   4.860  38.647  11.199
58201W        W26595   4.421  18.165  10.972
58202W        W26596  29.524  32.282   1.803
58203W        W26597  43.446  23.003  14.857
58204W        W26598  37.021  17.860  12.447
58205W        W26599  25.654  25.051  14.273
58206W        W26600  37.783  24.991  11.533
58207W        W26601  31.700  11.982   1.778
58208W        W26602  31.304  26.955  14.057
58209W        W26603  33.289  29.932   1.161
58210W        W26604   3.632  30.077   2.126
58211W        W26605   3.393  30.069  12.975
58212W        W26606  10.756  23.756   2.478
58213W        W26607  21.386  27.397  12.507
58214W        W26608  31.157  36.140  10.619
58215W        W26609  36.898  37.479   1.948
58216W        W26610  22.176  32.648   2.908
58217W        W26611  26.116   9.867   5.112
58218W        W26612  40.872  32.601  10.741
58219W        W26613  34.892  20.223  14.383
58220W        W26614  41.940  40.018   4.327
58221W        W26615   6.628  16.400  10.283
58222W        W26616   5.792  12.935  11.995
58223W        W26617  19.987   4.228   0.456
58224W        W26618  15.314  16.748   1.336
58225W        W26619  41.334  31.943  14.895
58226W        W26620  37.995  44.377  14.869
58227W        W26621  18.948  37.932  14.476
58228W        W26622  19.762  23.237  12.873
58229W        W26623  16.320  36.594   0.893
58230W        W26624   4.561  24.036   2.130
58231W        W26625  20.545  33.069  12.846
58232W        W26626  15.919   6.265   2.716
58233W        W26627  32.834  27.421  12.878
58234W        W26628   6.709  27.755  11.068
58235W        W26629  35.427  30.400   4.045
58236W        W26630   7.821  12.116   2.953
58237W        W26631  32.585  25.000  11.571
58238W        W26632   7.584  22.912   4.136
58239W        W26633  23.550  17.538   4.338
58240W        W26634  34.108  16.616   2.299
58241W        W26635   3.333  43.962  14.103
58242W        W26636  20.646  36.309  12.504
58243W        W26637  41.906  13.903   3.324
58244W        W26638  21.684  24.687   0.918
58245W        W26639  23.082  18.631   3.883
58246W        W26640  25.636  30.162  12.584
58247W        W26641  15.024  21.917   0.503
58248W        W26642   5.698  44.921  13.614
58249W        W26643   6.462  44.181   1.912
58250W        W26644  39.580  24.917   2.585
58251W        W26645  15.850  44.320   5.302
58252W        W26646  15.249   3.291   3.636
58253W        W26647   1.685  11.069  13.996
58254W        W26648  13.066   6.430  12.162
58255W        W26649  22.507  39.631  13.631
58256W        W26650  40.910  14.125   4.188
58257W        W26651  25.676  44.758  12.912
58258W        W26652  38.052  12.621  13.403
58259W        W26653  44.339  29.777   3.242
58260W        W26654  26.673  13.970   2.720
58261W        W26655   4.466  42.528  13.986
58262W        W26656  22.618  11.775  14.336
58263W        W26657  29.486  33.434  13.659
58264W        W26658  33.546  13.693   0.037
58265W        W26659   7.985  12.693   3.711
58266W        W26660  37.156  11.269  10.592
58267W        W26661  14.142  22.244   2.244
58268W        W26662   6.471  38.518  11.971
58269W        W26663  44.916   5.648   3.470
58270W        W26664  40.743   9.672   3.136
58271W        W26665  11.858  16.189   3.196
58272W        W26666  42.275  12.558   0.084
58273W        W26667  44.860  29.396  11.482
58274W        W26668  38.950  16.555   0.795
58275W        W26669  22.247  38.376  12.567
58276W        W26670  35.399  41.683  14.669
58277W        W26671  20.738   3.081   0.412
58278W        W26672   7.289   4.465   0.314
58279W        W26673   8.236  18.166   3.726
58280W        W26674  38.361   5.255   2.993
58281W        W26675  10.175   5.496  10.543
58282W        W26676   5.359  23.894  13.763
58283W        W26677  31.966  33.360   0.951
58284W        W26678   3.161  36.633   2.344
58285W        W26679  34.112  13.278   1.660
58286W        W26680   8.648  33.058  13.762
58287W        W26681   3.314   4.240  12.677
58288W        W26682   0.774  40.970   1.217
58289W        W26683  24.540  27.517  12.148
58290W        W26684  20.236  20.729  13.981
58291W        W26685  33.410  11.294  13.958
58292W        W26686  37.776   7.873   1.278
58293W        W26687  10.736  33.912   3.424
58294W        W26688  10.093  41.535  14.319
58295W        W26689   2.178  12.099   4.146
58296W        W26690   9.329  34.350   4.415
58297W        W26691  17.956  43.409   0.706
58298W        W26692   1.034  14.054   2.399
58299W        W26693  13.736  21.647  13.417
58300W        W26694  21.993  14.193   2.361
58301W        W26695  27.717  16.371   3.631
58302W        W26696   0.504  21.414   4.264
58303W        W26697  10.299  34.307   2.291
58304W        W26698  10.918  31.580  14.715
58305W        W26699  38.107  31.172  14.826
58306W        W26700  31.639  28.933  11.167
58307W        W26701  27.123  14.155  14.782
58308W        W26702   4.892   6.366   4.237
58309W        W26703  12.651  43.204   0.398
58310W        W26704  31.353  25.223  14.822
58311W        W26705  11.636  42.062  12.899
58312W        W26706  35.558  37.649   3.574
58313W        W26707  23.702  44.265   0.959
58314W        W26708  39.562  14.631   1.773
58315W        W26709  31.471  29.595  14.839
58316W        W26710  21.161   5.690  10.445
58317W        W26711  16.783  33.397  14.908
58318W        W26712   8.811  35.148   3.706
58319W        W26713  24.215  33.977   2.168
58320W        W26714  24.600   8.703   2.789
58321W        W26715  35.960  43.508  14.354
58322W        W26716  19.533  37.328  14.413
58323W        W26717  23.433  41.570   0.336
58324W        W26718  15.110   0.326  14.269
58325W        W26719  16.752  32.986  10.451
58326W        W26720  26.558  39.565  11.930
58327W        W26721  19.381  12.884   2.727
58328W        W26722  39.096  23.390  11.623
58329W        W26723  43.501  36.074   2.749
58330W        W26724  35.281  17.616  11.653
58331W        W26725  27.994  37.562   0.631
58332W        W26726  14.368  37.744  13.317
58333W        W26727  35.606   4.483  13.133
58334W        W26728  25.725  35.169   4.485
58335W        W26729  32.024  34.917   2.297
58336W        W26730   3.784  16.001  14.385
58337W        W26731  33.534  28.990  10.653
58338W        W26732  41.322  32.246   3.276
58339W        W26733   9.847  20.640  12.368
58340W        W26734  26.431  28.825   4.040
58341W        W26735  40.474  19.803   2.617
58342W        W26736  16.255  23.012  14.434
58343W        W26737  33.708   9.615  10.715
58344W        W26738   6.485  11.571  14.407
58345W        W26739  22.734  26.597   0.747
58346W        W26740  13.408   5.268   2.220
58347W        W26741  29.187   2.862  11.495
58348W        W26742  14.287  38.613   3.796
58349W        W26743  26.499  15.597  13.139
58350W        W26744  31.815  23.094  13.889
58351W        W26745  39.538  44.253   1.006
58352W        W26746  34.868  33.918  11.906
58353W        W26747  21.247   5.251   3.643
58354W        W26748  42.802  27.933   0.836
58355W        W26749  20.588   1.045  12.049
58356W        W26750  25.476  10.852  12.463
58357W        W26751   3.472  19.556  12.882
58358W        W26752  15.641  36.631  12.378
58359W        W26753  35.967  15.508  10.866
58360W        W26754  41.633  34.069   2.197
58361W        W26755   5.576  11.613  12.136
58362W        W26756   6.720  41.489  12.415
58363W        W26757  13.521  15.283  14.850
58364W        W26758  32.253  11.321  13.113
58365W        W26759  31.134  35.923   9.813
58366W        W26760  36.927  14.808   3.033
58367W        W26761  11.331  43.316  12.061
58368W        W26762  13.612   8.141  13.746
58369W        W26763  32.701  29.810  12.196
58370W        W26764  43.847  36.266  14.358
58371W        W26765  43.047  10.104   1.308
58372W        W26766  15.308   7.938   4.549
58373W        W26767  37.297   9.257   3.026
58374W        W26768  37.465  14.343  12.403
58375W        W26769  20.983  39.024   3.198
58376W        W26770  39.694   9.717  14.462
58377W        W26771  15.859  42.979   1.826
58378W        W26772  30.243  36.074   1.304
58379W        W26773  25.120  28.637   0.844
58380W        W26774   0.768  18.223  10.306
58381W        W26775   3.349  10.382  10.201
58382W        W26776  24.061  27.641   1.424
58383W        W26777   2.734  21.791  10.704
58384W        W26778   5.402  39.948   4.192
58385W        W26779  17.599  43.876  10.902
58386W        W26780  19.542  22.070  10.444
58387W        W26781   1.870  41.200  13.944
58388W        W26782  40.975  14.399   2.414
58389W        W26783  23.058  38.946  10.870
58390W        W26784  40.281  17.355  12.402
58391W        W26785  26.535   3.749   1.848
58392W        W26786  20.143  16.212  10.066
58393W        W26787  36.331  28.039  11.293
58394W        W26788  40.008  26.000   3.933
58395W        W26789  13.642  34.474  13.430
58396W        W26790  41.097  32.321   4.764
58397W        W26791  12.323  14.038  13.481
58398W        W26792  42.488  11.160   0.974
58399W        W26793  32.782  19.605   1.280
58400W        W26794  26.967  10.439   3.169
58401W        W26795  28.078   1.405  14.937
58402W        W26796   3.207  39.806  11.619
58403W        W26797  16.242   6.724   3.573
58404W        W26798  28.569  21.541  12.543
58405W        W26799  16.864   5.184  10.490
58406W        W26800  12.639  13.674  12.589
58407W        W26801  36.602  25.714   3.601
58408W        W26802  24.108   7.244   2.052
58409W        W26803  16.003  16.287   2.925
58410W        W26804   4.160  33.426   1.583
58411W        W26805  23.341   4.862   4.175
58412W        W26806   0.739  38.230  14.595
58413W        W26807  44.599  13.565   4.009
58414W        W26808  34.494  41.647  12.296
58415W        W26809  32.213  31.613  12.000
58416W        W26810   6.394  12.360   5.103
58417W        W26811   0.920  28.465   0.606
58418W        W26812  14.146  26.769   1.595
58419W        W26813  41.000  18.022  14.872
58420W        W26814  28.991  29.255   0.822
58421W        W26815  21.084  30.656   4.393
58422W        W26816   1.500   4.924  14.870
58423W        W26817  29.726  34.451  13.464
58424W        W26818  44.417  30.357   3.670
58425W        W26819  22.259  13.684   4.260
58426W        W26820  43.409  33.370   1.306
58427W        W26821  28.971  37.950   3.657
58428W        W26822  42.953  14.652   4.168
58429W        W26823  11.818   3.180   0.314
58430W        W26824  30.557   0.502  10.865
58431W        W26825  38.932  35.480   3.858
58432W        W26826  38.007  18.225   2.351
58433W        W26827  20.780  17.707  10.731
58434W        W26828   4.540  14.852  13.867
58435W        W26829  18.017   1.510   0.441
58436W        W26830  18.206   7.215   0.485
58437W        W26831  20.641  15.053   3.276
58438W        W26832  17.400   0.830  13.095
58439W        W26833   0.437   5.890   2.880
58440W        W26834  16.880  39.912   2.021
58441W        W26835   6.842  38.462   4.038
58442W        W26836  41.330  18.284  10.770
58443W        W26837  10.494  15.128  11.732
58444W        W26838  27.208  28.938   0.238
58445W        W26839  25.997   5.777  14.436
58446W        W26840  21.161   7.497  13.398
58447W        W26841  28.005  31.075   2.372
58448W        W26842  31.461  33.824  12.686
58449W        W26843  13.220   6.286  12.633
58450W        W26844  36.574  36.794  11.166
58451W        W26845  33.548  14.284   1.273
58452W        W26846  13.229  36.936  10.968
58453W        W26847  13.737  19.113  10.711
58454W        W26848  25.086  38.053  12.426
58455W        W26849  17.177  11.358  14.421
58456W        W26850  30.503  38.845   4.981
58457W        W26851  43.203  31.138   3.609
58458W        W26852  21.755  29.669  13.907
58459W        W26853   3.054   2.496  12.525
58460W        W26854  10.896  43.733   1.366
58461W        W26855  42.990   1.391   0.203
58462W        W26856  25.141  26.714   2.399
58463W        W26857  16.679  27.277   0.237
58464W        W26858   6.924  36.511   2.441
58465W        W26859  41.251  44.721   4.807
58466W        W26860   7.580  41.522   0.987
58467W        W26861  34.883  26.557  10.673
58468W        W26862   9.181  18.139  12.481
58469W        W26863  37.442  28.199  13.850
58470W        W26864  22.970  39.963   1.228
58471W        W26865  43.247  25.153  13.505
58472W        W26866  40.476  18.301  10.647
58473W        W26867  30.077  35.387  14.880
58474W        W26868  41.353   4.997  11.934
58475W        W26869   3.436   2.768  10.705
58476W        W26870   7.197  20.568  14.478
58477W        W26871  15.925  36.854   4.315
58478W        W26872  13.698  33.053   3.321
58479W        W26873  22.298  17.155   4.885
58480W        W26874  33.910  16.888   0.536
58481W        W26875  18.594   3.253   4.570
58482W        W26876  25.413   3.417  10.536
58483W        W26877  37.352  33.672   3.792
58484W        W26878  36.931  44.277  10.657
58485W        W26879  16.652  37.457  12.448
58486W        W26880  43.604  24.173  11.190
58487W        W26881   8.217  31.414  11.493
58488W        W26882  32.555  41.324   4.788
58489W        W26883  44.422  31.448   1.312
58490W        W26884  27.623   9.857   1.738
58491W        W26885   0.423  42.782   1.922
58492W        W26886  35.554   5.620   0.457
58493W        W26887  37.858  17.321   1.366
58494W        W26888   4.162  34.080  14.709
58495W        W26889  18.329   7.405   2.475
58496W        W26890  21.103  30.252  14.292
58497W        W26891   4.251  14.322  11.231
58498W        W26892  38.576   7.326  11.066
58499W        W26893  16.283  12.377  12.465
58500W        W26894  30.942  38.284   1.761
58501W        W26895  16.554  16.574   4.199
58502W        W26896  20.339  30.605  11.957
58503W        W26897   1.342   0.941   4.533
58504W        W26898  17.621  43.845  12.577
58505W        W26899  28.170  34.122  12.062
58506W        W26900  44.881  20.101   2.691
58507W        W26901   2.748   7.624   2.275
58508W        W26902   1.527   3.982  13.229
58509W        W26903  40.705  15.184   1.735
58510W        W26904  30.192  10.175   0.704
58511W        W26905  43.691   6.356   0.297
58512W        W26906  20.003  38.478   0.945
58513W        W26907  12.891  22.176   1.684
58514W        W26908  12.598   6.650  11.128
58515W        W26909  26.053  30.129  10.583
58516W        W26910   1.858  22.237  12.544
58517W        W26911  19.320  18.336   3.320
58518W        W26912  17.039   6.805   0.914
58519W        W26913   4.207   7.947   2.384
58520W        W26914  32.527  32.607   1.895
58521W        W26915   1.230  21.700   0.322
58522W        W26916   4.383  26.027   2.304
58523W        W26917  31.422  21.707  11.806
58524W        W26918  42.392  29.973   1.312
58525W        W26919  26.345  17.728  12.630
58526W        W26920  16.498   7.716  14.365
58527W        W26921  10.325   8.760   4.275
58528W        W26922  10.750   5.061   3.097
58529W        W26923  42.092   6.225   3.145
58530W        W26924   5.721   2.187  12.851
58531W        W26925  25.000  22.522   0.429
58532W        W26926  39.264  20.530   1.316
58533W        W26927  26.507  41.891   2.776
58534W        W26928  23.673  31.084  12.985
58535W        W26929  13.761   8.184  11.887
58536W        W26930  18.992  31.539   2.443
58537W        W26931   0.383   6.875   1.879
58538W        W26932  26.178  33.984  10.577
58539W        W26933  43.780  31.953   3.221
58540W        W26934  11.666  42.052  12.022
58541W        W26935   7.138   9.670   0.714
58542W        W26936  13.788  40.990  10.653
58543W        W26937  42.531  38.084  13.665
58544W        W26938   9.682  19.012   1.792
58545W        W26939   1.252  28.357  12.299
58546W        W26940   4.521  15.149   4.581
58547W        W26941  25.905  41.439  11.097
58548W        W26942  39.288   7.210  12.566
58549W        W26943  40.311  15.435  10.180
58550W        W26944  39.501  42.478  10.770
58551W        W26945  30.178   3.582  11.096
58552W        W26946  26.288  21.170   3.301
58553W        W26947  18.665  25.973  10.312
58554W        W26948  38.663  31.501   3.139
58555W        W26949  33.425   1.331  11.545
58556W        W26950  36.995   7.778   3.898
58557W        W26951  25.416  29.169  13.306
58558W        W26952  35.258   5.262   2.875
58559W        W26953  20.550   7.458   4.306
58560W        W26954  24.184  37.869  12.846
58561W        W26955  32.522  14.320   4.479
58562W        W26956  29.921  17.067   4.291
58563W        W26957   7.421  34.658  12.105
58564W        W26958  10.661  44.358   2.375
58565W        W26959  44.830   4.649  13.265
58566W        W26960  38.410  22.052   2.480
58567W        W26961   8.719   2.825   2.630
58568W        W26962  20.670   0.064  14.525
58569W        W26963  18.570  39.822  11.484
58570W        W26964   1.359  41.348   0.169
58571W        W26965  38.406  25.191   4.902
58572W        W26966  15.198  35.302  10.742
58573W        W26967   6.313  38.136   2.052
58574W        W26968  10.580  31.082  12.549
58575W        W26969   5.378  30.842   4.552
58576W        W26970   0.482  30.903   2.380
58577W        W26971   5.330   0.527   4.197
58578W        W26972  18.221  41.604   2.233
58579W        W26973  12.996   5.425  13.159
58580W        W26974  29.602  11.631  14.852
58581W        W26975   2.989  36.461   1.904
58582W        W26976  21.262  39.862  11.743
58583W        W26977  39.904  32.472  13.747
58584W        W26978  23.645  12.686  11.182
58585W        W26979  22.151   0.973  10.444
58586W        W26980  39.980   3.263  10.490
58587W        W26981  21.110  34.571   0.857
58588W        W26982  35.658  40.515   1.965
58589W        W26983   5.451  15.334  12.207
58590W        W26984  14.338  13.163   4.504
58591W        W26985  28.164  35.881   3.874
58592W        W26986   8.823   7.280   3.308
58593W        W26987  37.830   7.166   4.693
58594W        W26988  29.160  11.411  11.659
58595W        W26989   4.385  32.020  14.322
58596W        W26990  21.777  19.584   4.587
58597W        W26991   7.129  14.338   2.797
58598W        W26992  40.146  27.192  14.496
58599W        W26993  28.673  25.605   2.807
58600W        W26994  32.931  23.161   4.716
58601W        W26995  41.937  25.568   1.809
58602W        W26996  24.091  28.925  13.415
58603W        W26997   6.961  41.877  13.884
58604W        W26998   4.666   8.341   3.671
58605W        W26999   9.271  31.578   4.810
58606W        W27000   8.686  12.787  12.168
58607W        W27001   5.165  33.450  11.177
58608W        W27002  13.691  32.101  13.752
58609W        W27003   5.525  15.797   2.664
58610W        W27004   9.174  15.086   4.627
58611W        W27005   3.164  12.709  10.652
58612W        W27006  24.552  16.686  14.348
58613W        W27007   1.216   6.620  14.414
58614W        W27008  41.966  40.364  10.470
58615W        W27009  32.662  39.165   3.656
58616W        W27010  30.841   8.884   0.852
58617W        W27011  13.089   6.440   9.856
58618W        W27012  20.942  30.755  14.901
58619W        W27013  44.456  29.129  12.056
58620W        W27014  29.925   2.925   4.646
58621W        W27015  23.559  16.838   3.247
58622W        W27016  19.300  42.786  13.525
58623W        W27017  18.774  11.639  12.955
58624W        W27018  40.396   8.095  14.341
58625W        W27019  15.828  41.928  14.409
58626W        W27020   5.805  32.135   0.749
58627W        W27021  13.711  37.547   0.640
58628W        W27022   2.310  16.533   1.912
58629W        W27023  17.914  11.818  12.128
58630W        W27024  40.412  30.109   2.681
58631W        W27025  36.861  12.221   1.992
58632W        W27026  16.581   4.517   4.177
58633W        W27027  22.789  29.408   1.829
58634W        W27028  23.324   5.944  13.023
58635W        W27029  35.611   2.041   2.225
58636W        W27030  12.941   7.926   2.395
58637W        W27031  19.300  37.794   1.290
58638W        W27032  42.952  31.899   4.207
58639W        W27033   4.335  33.124  11.522
58640W        W27034   8.203  17.713   3.935
58641W        W27035  30.586  35.378  12.138
58642W        W27036  43.337  25.410  11.310
58643W        W27037  28.899  35.636  12.024
58644W        W27038  28.114   5.839  14.793
58645W        W27039  19.941  29.556   4.219
58646W        W27040  35.618  16.224   2.347
58647W        W27041  14.553  21.099  11.752
58648W        W27042  44.753  32.961  11.139
58649W        W27043   3.629  26.263  12.946
58650W        W27044  25.258  10.323  13.369
58651W        W27045   8.175  39.143  14.163
58652W        W27046  27.490   7.882   4.295
58653W        W27047  22.502  28.722   4.998
58654W        W27048  30.396  15.745   2.323
58655W        W27049  27.987   6.322  14.941
58656W        W27050  27.855   9.253  14.319
58657W        W27051  25.382   7.801  14.251
58658W        W27052  11.844  22.063  14.055
58659W        W27053  31.684  31.988  13.747
58660W        W27054  31.841  12.727   2.502
58661W        W27055  26.734  13.638  14.949
58662W        W27056  26.648  30.532  11.687
58663W        W27057  16.270  43.565   3.100
58664W        W27058  24.588  36.988   2.137
58665W        W27059  10.766  10.341   3.147
58666W        W27060  18.528  26.296  13.524
58667W        W27061   2.992  17.673  10.591
58668W        W27062  29.083  31.856  12.466
58669W        W27063  18.599   0.782   1.842
58670W        W27064  25.177  23.115  11.640
58671W        W27065   4.623   5.942   4.202
58672W        W27066  17.319  31.033  11.050
58673W        W27067   6.900  20.136  14.373
58674W        W27068  24.003  32.163  13.960
58675W        W27069  33.659  15.279  11.154
58676W        W27070  13.699   9.767   3.884
58677W        W27071   4.781  29.810   0.018
58678W        W27072   0.826   9.810  10.920
58679W        W27073  18.269  43.413   0.306
58680W        W27074  22.756  33.222  10.627
58681W        W27075  10.606  18.212   2.450
58682W        W27076  13.732   9.289   0.490
58683W        W27077  22.692  43.254  11.083
58684W        W27078  40.672  10.069  14.453
58685W        W27079   6.865  12.304   1.876
58686W        W27080  23.741  16.566   2.849
58687W        W27081  21.441  37.356   4.109
58688W        W27082  37.842   2.095  12.341
58689W        W27083  40.030  28.712   0.939
58690W        W27084  39.053  37.023  14.929
58691W        W27085  32.674  40.957   1.853
58692W        W27086  30.511  22.615   2.329
58693W        W27087  12.378   7.199  14.660
58694W        W27088  15.668  20.711   1.155
58695W        W27089  32.894  37.754   4.235
58696W        W27090  19.493   5.680  13.211
58697W        W27091  11.935   2.218   1.361
58698W        W27092  33.823  17.495  14.939
58699W        W27093   8.906  23.795   1.819
58700W        W27094  11.385  43.402  14.876
58701W        W27095  13.378  14.531   4.544
58702W        W27096   9.383  34.000  10.849
58703W        W27097  42.548  36.853   4.224
58704W        W27098  44.358   5.047   4.648
58705W        W27099  37.532  24.179  12.927
58706W        W27100  12.250  18.568  14.865
58707W        W27101  38.107  34.684  14.732
58708W        W27102  20.321  33.337   2.271
58709W        W27103  13.377  22.119  14.542
58710W        W27104  41.313   4.466  11.921
58711W        W27105  17.269  12.689  11.133
58712W        W27106  13.824  16.238   2.375
58713W        W27107  38.110  32.930   0.364
58714W        W27108  12.676  32.830   0.385
58715W        W27109  41.525   6.782  12.344
58716W        W27110  35.630   7.547  14.889
58717W        W27111  32.501  10.218  10.249
58718W        W27112  16.655  40.820   4.470
58719W        W27113  42.109  10.464  14.371
58720W        W27114   9.324  23.554  13.023
58721W        W27115  15.614  19.084  12.550
58722W        W27116  32.334  13.756   2.957
58723W        W27117  11.747   4.256   1.201
58724W        W27118  36.298  40.952   0.359
58725W        W27119   9.674  14.744   4.912
58726W        W27120  18.189  18.651  11.459
58727W        W27121  24.030  44.630   3.755
58728W        W27122  17.807   5.410  13.044
58729W        W27123  26.466   1.930   3.115
58730W        W27124  20.295   6.128  13.048
58731W        W27125  38.547  36.976  11.225
58732W        W27126   2.221  35.186  11.850
58733W        W27127  22.184  34.947   0.440
58734W        W27128   4.609  13.327   3.145
58735W        W27129  16.350  11.785  14.325
58736W        W27130  23.104   3.762  13.395
58737W        W27131  12.273  19.770  14.446
58738W        W27132   4.908  22.922  11.373
58739W        W27133  26.751  21.204  14.919
58740W        W27134  15.186  12.060   2.289
58741W        W27135  29.478  24.388   3.226
58742W        W27136  43.275  10.208   3.693
58743W        W27137   4.782  15.112   0.208
58744W        W27138  29.871  13.296  13.557
58745W        W27139  29.601  33.936  13.455
58746W        W27140  24.202  14.383  12.041
58747W        W27141  33.133  37.800  10.126
58748W        W27142   3.325  37.526   2.434
58749W        W27143  10.601  42.357   3.277
58750W        W27144   3.363  28.926   4.634
58751W        W27145  20.850  29.567  12.526
58752W        W27146  36.855   7.759  13.038
58753W        W27147  37.067   3.353   3.367
58754W        W27148  29.216   4.228  13.418
58755W        W27149  12.232  23.762   3.160
58756W        W27150  18.733  20.568  14.447
58757W        W27151   6.958  28.468   2.354
58758W        W27152   4.340   0.625   0.809
58759W        W27153   1.201  35.957  14.006
58760W        W27154   3.217   6.267  10.273
58761W        W27155  22.577  41.586   1.323
58762W        W27156  20.048  17.294   2.792
58763W        W27157  31.813  23.316   4.325
58764W        W27158  12.590  10.389   2.779
58765W        W27159  40.359  39.671   4.930
58766W        W27160  35.840  33.075  13.983
58767W        W27161   5.266  41.291   0.460
58768W        W27162  20.459   0.894  13.940
58769W        W27163  23.511  23.487   2.738
58770W        W27164  18.587  11.827   4.367
58771W        W27165  26.969   3.315   4.244
58772W        W27166  24.577  39.795   1.561
58773W        W27167  26.094   5.895   0.848
58774W        W27168  34.750  10.624   0.425
58775W        W27169   9.522   0.755   2.842
58776W        W27170   3.858  35.175   1.337
58777W        W27171   4.401  38.222  14.820
58778W        W27172  39.380  15.526  11.023
58779W        W27173  22.723  27.372   1.357
58780W        W27174   1.998   4.100   2.362
58781W        W27175  14.254   2.406  11.938
58782W        W27176  25.633  18.765   1.519
58783W        W27177  16.760   3.338   2.321
58784W        W27178   2.943  30.166   1.330
58785W        W27179  41.543  20.239   0.774
58786W        W27180   6.704   5.411   5.464
58787W        W27181  40.817  13.327   4.051
58788W        W27182  26.851  17.676   4.586
58789W        W27183  17.769  29.451   1.714
58790W        W27184  41.804  30.918   3.688
58791W        W27185  14.133   7.725   0.830
58792W        W27186  11.036  38.512   3.540
58793W        W27187  22.070   8.091  11.043
58794W        W27188  28.553   9.441   1.046
58795W        W27189  16.050   4.262   1.767
58796W        W27190  38.325  20.694  12.833
58797W        W27191  44.988  39.370   2.798
58798W        W27192  36.034  44.039   0.264
58799W        W27193  20.213  38.326  13.315
58800W        W27194   6.668  25.021   0.030
58801W        W27195   1.150  23.531   0.133
58802W        W27196  22.981   8.253  12.661
58803W        W27197   4.362  16.987   4.462
58804W        W27198   1.021   4.447   4.114
58805W        W27199  44.635  19.116   4.561
58806W        W27200  28.459  10.898   0.757
58807W        W27201  17.842  19.094   2.812
58808W        W27202  35.822  25.400   2.743
58809W        W27203   2.818  26.657   0.281
58810W        W27204  34.439   2.145   3.216
58811W        W27205  12.481   8.227   4.479
58812W        W27206  36.909   0.300  11.950
58813W        W27207  10.316   7.283  10.032
58814W        W27208  29.711   1.477   2.377
58815W        W27209   0.226  29.841   1.519
58816W        W27210   5.335  35.416   4.714
58817W        W27211  13.669  43.055  12.923
58818W        W27212  17.310  10.119  11.038
58819W        W27213   3.131  17.726   1.324
58820W        W27214   5.155   9.722  11.551
58821W        W27215  17.495  20.652   0.284
58822W        W27216  28.100  14.517  11.545
58823W        W27217  10.979  12.294   1.931
58824W        W27218  21.629   8.882  13.771
58825W        W27219  33.360  23.230   2.695
58826W        W27220   5.865  40.591  12.124
58827W        W27221  31.587  30.152  12.997
58828W        W27222  24.656  28.734   0.229
58829W        W27223   8.773  32.586   3.698
58830W        W27224  12.085  37.611  10.750
58831W        W27225  14.315  24.933   2.692
58832W        W27226   3.223   2.876   0.263
58833W        W27227  36.576  40.888  13.851
58834W        W27228   8.225  28.469   4.569
58835W        W27229  11.690   2.958   3.225
58836W        W27230  33.011  22.797  14.422
58837W        W27231  37.745  10.897   0.399
58838W        W27232  17.190  37.840   1.879
58839W        W27233   9.865   0.374   2.391
58840W        W27234  36.107  15.857  11.221
58841W        W27235  24.379  24.505   1.045
58842W        W27236  39.881  33.050  11.574
58843W        W27237  21.804   0.778  12.611
58844W        W27238  11.577   7.667  12.856
58845W        W27239   2.824  35.461  13.518
58846W        W27240  32.734  35.442  13.378
58847W        W27241  14.609  42.932  13.298
58848W        W27242   9.255   4.590  14.750
58849W        W27243  13.808  12.292   0.385
58850W        W27244  15.701  37.285   5.041
58851W        W27245  23.776  25.097   1.139
58852W        W27246   8.795  37.060  10.932
58853W        W27247  30.489   1.051   3.826
58854W        W27248  30.043  31.910  12.583
58855W        W27249  12.675  16.042  14.429
58856W        W27250  30.688  17.218  14.433
58857W        W27251   0.802  21.038   4.084
58858W        W27252  33.139   0.055   1.402
58859W        W27253  32.165   6.835   4.184
58860W        W27254   9.756  20.824   3.399
58861W        W27255  40.140  16.857  12.431
58862W        W27256  39.559  24.918   3.463
58863W        W27257  13.583  20.605   4.383
58864W        W27258  36.160  21.153  10.480
58865W        W27259  41.148  28.230   4.301
58866W        W27260  27.072   7.468   0.382
58867W        W27261  18.834   7.762   3.224
58868W        W27262  23.601  36.401  13.822
58869W        W27263   0.595   2.513   0.857
58870W        W27264  15.588  24.377   3.716
58871W        W27265  18.990  12.736  10.749
58872W        W27266  18.495   5.429  10.606
58873W        W27267  28.268  39.047   2.422
58874W        W27268  41.822  29.339  12.106
58875W        W27269  31.395  14.161   2.742
58876W        W27270  27.018  22.243  11.513
58877W        W27271  29.373  35.074   0.933
58878W        W27272  14.670  28.236   3.906
58879W        W27273   6.280   0.187   3.660
58880W        W27274  25.469  12.712  10.625
58881W        W27275   4.531  13.069   4.521
58882W        W27276   7.222   7.334  11.922
58883W        W27277  43.400  24.741  13.074
58884W        W27278   7.968  22.734  11.861
58885W        W27279   6.647  26.552   2.704
58886W        W27280  12.822  40.345   1.910
58887W        W27281   4.256   1.822   1.338
58888W        W27282   3.222   6.877  11.943
58889W        W27283  39.274  12.694   4.607
58890W        W27284   1.721  31.115   1.730
58891W        W27285  29.078  41.515   4.563
58892W        W27286   5.646   6.747  11.508
58893W        W27287  38.037  29.610   4.671
58894W        W27288  19.370  16.134   4.968
58895W        W27289  29.046  28.970  12.036
58896W        W27290  25.915  16.652   2.348
58897W        W27291   0.688   0.785   0.466
58898W        W27292  38.973  26.569  12.931
58899W        W27293  16.185  20.463  10.944
58900W        W27294  32.161  29.060  11.224
58901W        W27295  33.129  28.438  13.848
58902W        W27296  41.346  35.572   0.393
58903W        W27297  38.539   6.431  11.467
58904W        W27298   9.341  27.943  14.378
58905W        W27299  15.240   9.375  11.294
58906W        W27300  36.001  23.524   0.775
58907W        W27301   0.270   9.500   3.164
58908W        W27302  17.012  19.016  12.547
58909W        W27303  35.017  20.135   3.569
58910W        W27304  19.616   3.965  14.828
58911W        W27305  12.190  25.614  12.004
58912W        W27306   9.571  30.496   1.411
58913W        W27307   6.796   8.691   3.202
58914W        W27308  39.750  15.557   2.209
58915W        W27309  29.404  22.330  11.435
58916W        W27310   4.393  14.657  11.606
58917W        W27311  41.593  30.550   0.379
58918W        W27312  15.490  13.685  14.589
58919W        W27313  17.361  27.506   3.907
58920W        W27314   4.496  22.594  13.496
58921W        W27315  21.307   9.219  11.595
58922W        W27316   0.901  42.022   0.230
58923W        W27317  25.297   6.859   3.401
58924W        W27318   0.714  19.687   3.240
58925W        W27319  10.355  32.354  12.884
58926W        W27320  26.798  35.354  11.150
58927W        W27321  24.752  35.994   1.977
58928W        W27322  10.866  21.996  10.341
58929W        W27323  29.471   3.194  14.434
58930W        W27324  35.424  31.951   4.593
58931W        W27325  33.952  30.032   1.776
58932W        W27326   1.793  30.023   2.146
58933W        W27327  28.129   0.799   4.029
58934W        W27328  11.581  34.888   3.684
58935W        W27329  23.367  31.438   0.692
58936W        W27330  27.084  40.429   2.182
58937W        W27331  42.863   1.306   4.691
58938W        W27332   8.976   6.852   4.432
58939W        W27333  15.318   5.430   3.780
58940W        W27334  21.081  42.300  12.852
58941W        W27335  25.433  16.380   3.912
58942W        W27336  33.454  31.927   2.815
58943W        W27337  31.610  24.667  12.380
58944W        W27338  41.029  44.683  13.222
58945W        W27339  12.514   8.994   2.293
58946W        W27340   9.590  12.060  11.116
58947W        W27341  34.446  36.709  12.518
58948W        W27342  10.711  10.695   3.788
58949W        W27343  19.829  22.332  12.966
58950W        W27344  41.257   1.275   0.360
58951W        W27345  35.970   2.679   4.205
58952W        W27346  27.661  42.471  11.092
58953W        W27347   9.773  43.951  13.459
58954W        W27348  24.122  32.651  11.345
58955W        W27349   9.806  34.592   1.138
58956W        W27350  17.647  13.617   0.868
58957W        W27351  14.114  43.528   1.643
58958W        W27352  39.001  10.162   3.723
58959W        W27353  28.937  32.378  11.456
58960W        W27354  36.676   6.958   1.140
58961W        W27355  31.617  41.051   2.052
58962W        W27356  27.463  33.691   0.182
58963W        W27357  40.413  11.010  14.508
58964W        W27358  22.455  31.404  12.511
58965W        W27359  16.248  22.958   2.685
58966W        W27360   7.665  19.121   3.334
58967W        W27361  26.456  19.490   3.404
58968W        W27362  40.774  19.194   0.669
58969W        W27363  23.398  26.195  10.651
58970W        W27364  20.700  23.463  11.625
58971W        W27365  10.574  23.460  12.040
58972W        W27366  41.290  15.994   1.814
58973W        W27367  34.922  21.243  14.196
58974W        W27368  37.123   3.015  13.990
58975W        W27369  30.104  12.380   3.766
58976W        W27370  15.018  41.904  11.580
58977W        W27371  26.213  31.509  13.636
58978W        W27372  11.575  23.154   0.488
58979W        W27373   0.009  28.145  13.343
58980W        W27374  31.885  42.944  14.409
58981W        W27375  16.832   4.989   1.741
58982W        W27376   7.440  14.736  11.392
58983W        W27377   8.691   9.860  11.254
58984W        W27378  18.140  16.253  10.371
58985W        W27379   0.537  11.330  14.456
58986W        W27380   8.080  10.051  12.872
58987W        W27381  10.163   5.756  11.037
58988W        W27382  28.980  42.425   4.853
58989W        W27383  10.260  28.897   3.059
58990W        W27384  27.010  16.095   4.876
58991W        W27385  10.644  35.909   4.372
58992W        W27386   9.427  21.037   0.371
58993W        W27387  27.678   0.688   1.276
58994W        W27388  10.767   4.811   2.641
58995W        W27389  16.114  39.354   3.347
58996W        W27390  10.740  44.343  12.524
58997W        W27391  41.948   0.784  11.689
58998W        W27392  18.573   3.757   0.950
58999W        W27393  35.802   2.948   0.882
59000W        W27394  25.436   2.402  10.794
59001W        W27395   5.455  40.620   2.324
59002W        W27396  39.022  18.444  13.138
59003W        W27397  23.024  13.395   4.109
59004W        W27398  30.890   1.279   0.433
59005W        W27399  14.007  10.191  10.245
59006W        W27400   3.572  35.016   5.076
59007W        W27401  31.403  20.230  14.304
59008W        W27402  38.912   4.732  12.839
59009W        W27403   6.601  30.496  12.114
59010W        W27404  41.576  35.938   0.984
59011W        W27405   0.756  26.651  13.569
59012W        W27406  11.243   5.163   0.438
59013W        W27407   5.903  31.154  10.794
59014W        W27408   9.410  40.873   2.319
59015W        W27409  42.148  37.946   2.653
59016W        W27410  44.756  26.923   4.540
59017W        W27411  43.487  41.318   5.185
59018W        W27412  19.678  43.488  12.511
59019W        W27413  11.894  12.409  12.904
59020W        W27414   2.906   5.303  11.204
59021W        W27415  11.036  11.082   3.734
59022W        W27416  14.735  42.299   4.335
59023W        W27417  16.154  38.362  11.859
59024W        W27418  28.996  14.085   4.175
59025W        W27419   2.433   0.946  13.105
59026W        W27420   0.388   4.040   0.463
59027W        W27421  37.194  36.128  11.701
59028W        W27422  36.802  35.547  13.377
59029W        W27423  28.381  34.367  13.974
59030W        W27424   4.852  37.365   3.374
59031W        W27425  24.694   1.886  13.995
59032W        W27426  28.098   3.331  13.366
59033W        W27427  42.046  26.970  13.514
59034W        W27428  37.000  10.405   3.338
59035W        W27429  38.070   1.457  14.461
59036W        W27430  19.978  38.495  10.732
59037W        W27431  32.559  35.760   1.115
59038W        W27432  13.323  31.132   0.422
59039W        W27433  21.259  22.491  13.385
59040W        W27434  22.686  20.307  12.369
59041W        W27435  38.616  24.130   0.778
59042W        W27436  28.665  25.783   3.622
59043W        W27437  33.120   7.203   1.800
59044W        W27438  37.836  35.101   0.843
59045W        W27439   2.304  35.457   4.573
59046W        W27440  39.828  24.203  11.160
59047W        W27441  28.259  33.493   1.419
59048W        W27442   5.839  34.340  11.162
59049W        W27443  27.112  34.417  11.396
59050W        W27444  21.140  22.234  11.059
59051W        W27445  43.993  25.136   4.229
59052W        W27446   9.641  18.198  12.139
59053W        W27447  34.862  23.738   1.845
59054W        W27448  41.803   8.954   4.177
59055W        W27449  25.173  37.949  14.472
59056W        W27450  37.869  26.063   2.608
59057W        W27451  14.678  43.579   4.021
59058W        W27452  10.561   9.842   0.065
59059W        W27453  12.366  10.187  14.428
59060W        W27454  35.677  33.450  14.306
59061W        W27455  25.947  16.566  14.380
59062W        W27456  16.627  39.262  13.845
59063W        W27457  35.507  11.091  12.081
59064W        W27458  10.824  42.516  14.323
59065W        W27459  28.053  27.368  12.904
59066W        W27460   7.855  25.513   0.336
59067W        W27461  32.506  32.643   2.401
59068W        W27462   7.849   2.835   2.888
59069W        W27463   3.502  14.884  13.872
59070W        W27464  17.126  32.884  11.629
59071W        W27465   4.836   4.889   0.859
59072W        W27466   7.597  19.840  12.764
59073W        W27467  38.883  20.980  10.585
59074W        W27468  16.510  41.258  10.819
59075W        W27469  20.968  40.548  11.963
59076W        W27470  37.555  32.466  13.794
59077W        W27471  26.724  16.418  14.781
59078W        W27472  38.286   1.811   1.868
59079W        W27473  35.113  14.137  12.866
59080W        W27474  43.154   4.959  14.427
59081W        W27475  18.154  35.885  11.605
59082W        W27476  28.118  37.022   1.922
59083W        W27477  31.477  32.340   3.781
59084W        W27478  28.977  41.066   4.817
59085W        W27479  10.644  24.691  12.487
59086W        W27480  39.054  29.625   2.150
59087W        W27481  32.070  42.230  10.618
59088W        W27482  26.206   6.407   4.286
59089W        W27483  43.389   5.849   1.920
59090W        W27484  30.927  25.461   0.020
59091W        W27485  13.823   5.725  12.961
59092W        W27486  21.289  38.082  11.100
59093W        W27487  11.109  43.700  14.046
59094W        W27488   6.738  24.123  11.194
59095W        W27489  27.425  15.772   4.989
59096W        W27490  23.222  11.175  14.908
59097W        W27491  37.901   1.038   1.322
59098W        W27492  41.881   5.479   0.907
59099W        W27493  27.287  44.311   0.325
59100W        W27494  18.038  25.600  13.165
59101W        W27495  18.558  39.098  14.529
59102W        W27496  11.594  24.697   4.354
59103W        W27497  41.031  17.168  11.581
59104W        W27498   8.364  10.734  10.774
59105W        W27499   3.700   6.833   3.633
59106W        W27500  29.646  21.554  14.585
59107W        W27501   8.191  39.303  13.577
59108W        W27502  38.418  13.051   4.785
59109W        W27503   5.167  11.556  14.369
59110W        W27504  32.863  42.488   3.528
59111W        W27505  24.008  36.789   0.458
59112W        W27506  11.755   6.176  14.056
59113W        W27507  28.361   4.819   0.465
59114W        W27508  42.877  12.117  12.449
59115W        W27509  42.022  17.080   3.722
59116W        W27510   9.314  43.972  14.850
59117W        W27511  12.275  37.768   1.517
59118W        W27512  23.765  37.894  12.537
59119W        W27513  44.338   6.681  13.027
59120W        W27514  31.608  14.857  12.027
59121W        W27515  30.563   7.350   3.402
59122W        W27516   9.211  11.610   1.249
59123W        W27517  23.098   2.214  11.692
59124W        W27518  23.013  11.356   2.449
59125W        W27519  20.526  35.589  10.529
59126W        W27520   9.614   5.826   0.017
59127W        W27521  12.934  43.215  14.786
59128W        W27522  28.942  37.821  11.463
59129W        W27523  44.880  16.776   3.688
59130W        W27524  12.508  31.048  11.508
59131W        W27525   6.730  15.848  12.341
59132W        W27526  44.469   6.959  13.884
59133W        W27527   7.423  26.658   2.339
59134W        W27528  12.672  15.123  14.496
59135W        W27529   0.397  37.564  11.368
59136W        W27530  12.108  14.143   1.827
59137W        W27531  39.541  38.396   3.026
59138W        W27532  28.966  23.191  13.040
59139W        W27533   1.411  16.879   2.656
59140W        W27534  24.646  21.310  10.987
59141W        W27535  30.046  40.940   0.554
59142W        W27536  16.679  44.962   4.572
59143W        W27537  42.800  16.076   3.335
59144W        W27538  41.588  42.418   0.505
59145W        W27539  28.332   0.888  14.758
59146W        W27540  13.328  38.702   3.778
59147W        W27541  40.674  36.402  11.072
59148W        W27542  36.432   1.757   3.330
59149W        W27543   1.012  24.824   2.214
59150W        W27544   0.711  11.110  10.805
59151W        W27545  39.068  18.050  11.217
59152W        W27546  20.007  16.648   0.718
59153W        W27547   9.112   8.784  13.881
59154W        W27548  15.707   9.151  12.564
59155W        W27549  39.549  38.594   1.724
59156W        W27550   7.887   1.681   0.155
59157W        W27551  35.641   7.799   0.935
59158W        W27552  44.299   4.570  13.542
59159W        W27553   8.844  20.716  11.876
59160W        W27554  37.506  35.793  14.247
59161W        W27555  28.865  36.495  12.525
59162W        W27556  28.455  40.425  13.094
59163W        W27557  43.940  23.234   2.667
59164W        W27558   1.408  15.679   1.419
59165W        W27559  20.528  14.389   0.910
59166W        W27560  22.762  34.905  12.907
59167W        W27561  11.434  33.805   2.244
59168W        W27562  12.786  27.378   3.794
59169W        W27563  31.639  43.618   1.189
59170W        W27564   2.981   8.520   0.766
59171W        W27565   6.053  26.549  13.801
59172W        W27566  19.235  39.950   1.950
59173W        W27567  14.769  36.063  10.250
59174W        W27568  41.427  22.138   2.407
59175W        W27569  35.169  18.213   1.910
59176W        W27570   8.614  10.900   1.353
59177W        W27571   9.364  24.309  10.959
59178W        W27572  27.828  30.010  11.185
59179W        W27573   2.086  22.811  14.794
59180W        W27574   8.893  17.146  14.921
59181W        W27575  30.123  25.666  10.616
59182W        W27576   4.554  21.580   3.631
59183W        W27577  22.134  41.304   1.416
59184W        W27578  28.094  12.625   3.302
59185W        W27579  30.594  13.452   3.201
59186W        W27580  26.728   1.987   1.220
59187W        W27581  44.282  27.663  12.399
59188W        W27582  10.782  17.428  12.410
59189W        W27583   6.833   9.194  14.077
59190W        W27584  12.259  40.780   1.392
59191W        W27585   9.918  36.858  12.341
59192W        W27586  11.817   2.065  13.808
59193W        W27587  34.347   3.395   0.824
59194W        W27588  17.138  20.743   2.459
59195W        W27589   2.718  26.243  11.564
59196W        W27590  25.423  12.285  14.792
59197W        W27591   2.954  40.049   3.610
59198W        W27592  28.059   5.976  12.040
59199W        W27593  20.702  16.333   1.927
59200W        W27594  37.060  23.681  10.660
59201W        W27595  35.017  26.011   2.217
59202W        W27596   0.386  14.041  11.529
59203W        W27597  23.067  27.451   0.268
59204W        W27598  14.741  20.713  11.375
59205W        W27599   2.031  24.713  12.027
59206W        W27600  30.343  25.676   1.323
59207W        W27601  40.375  44.572   4.457
59208W        W27602  29.691  21.590   2.746
59209W        W27603  39.302  44.293  11.452
59210W        W27604  38.593  14.083   3.098
59211W        W27605   0.345  27.718  14.448
59212W        W27606  21.117  19.546  11.666
59213W        W27607  16.349   6.193   3.664
59214W        W27608   4.434  38.877   4.054
59215W        W27609  30.327  25.551  13.336
59216W        W27610   9.908  10.306  10.923
59217W        W27611  40.010  25.517   2.038
59218W        W27612  25.879   3.982   0.882
59219W        W27613  38.982   9.480  14.664
59220W        W27614  41.817   0.379   4.208
59221W        W27615  21.394  35.335   3.841
59222W        W27616  33.429  19.728   2.042
59223W        W27617   6.341  14.379  12.910
59224W        W27618  33.868  26.920   3.626
59225W        W27619   9.547  14.616   3.422
59226W        W27620  30.319  23.777   3.193
59227W        W27621   0.346  21.787  13.127
59228W        W27622  15.425  39.913  10.753
59229W        W27623   1.891  43.004   3.794
59230W        W27624   1.350  10.362  14.734
59231W        W27625  15.666   3.421  10.678
59232W        W27626  42.309  14.601  14.270
59233W        W27627  15.727  29.887  14.662
59234W        W27628  10.979  31.358  11.214
59235W        W27629  34.002   2.191  13.888
59236W        W27630  24.506   1.989  13.512
59237W        W27631  37.944   6.684   0.986
59238W        W27632  16.284   3.429   1.310
59239W        W27633  22.072  12.845   3.333
59240W        W27634  26.715   3.911  13.615
59241W        W27635  27.976  37.870  13.848
59242W        W27636  32.665  41.877   2.328
59243W        W27637  26.057  15.743   0.906
59244W        W27638  22.936  19.025  13.086
59245W        W27639   1.992  14.563   2.694
59246W        W27640  37.546  15.265  10.902
59247W        W27641  22.954   8.265   3.165
59248W        W27642  42.008  27.439  14.491
59249W        W27643  20.602   8.940   4.577
59250W        W27644  22.103  38.019  11.215
59251W        W27645  20.686  21.674   4.744
59252W        W27646  42.329  21.101   1.294
59253W        W27647  19.968  22.205  10.732
59254W        W27648  17.270  10.384  13.506
59255W        W27649   0.353  12.688  10.731
59256W        W27650  29.220  19.770  12.151
59257W        W27651  18.221  36.040   2.618
59258W        W27652  24.462  36.553   0.358
59259W        W27653  15.333  37.319  10.707
59260W        W27654  23.078  43.013   0.792
59261W        W27655   1.238   8.855   4.084
59262W        W27656  11.289  19.212   4.594
59263W        W27657  24.492  15.215  11.696
59264W        W27658   9.061  18.650   1.624
59265W        W27659  34.073  29.568  11.844
59266W        W27660   3.511  23.192  11.612
59267W        W27661  18.742  15.149  10.967
59268W        W27662  26.647  42.897  10.480
59269W        W27663  32.331   8.716   3.272
59270W        W27664  18.517  41.333  10.645
59271W        W27665  11.688  42.487  10.603
59272W        W27666  33.018   4.712  11.190
59273W        W27667   3.329  20.484  10.857
59274W        W27668  23.001  15.211   4.596
59275W        W27669  21.783  39.985   0.207
59276W        W27670  25.711  19.987  11.270
59277W        W27671  40.400  41.405  11.153
59278W        W27672  34.179  43.455   3.524
59279W        W27673  37.834  41.142   0.271
59280W        W27674  17.047  14.636  13.774
59281W        W27675   8.313  25.797  11.252
59282W        W27676  21.604  30.555   1.500
59283W        W27677   4.651   8.925  10.645
59284W        W27678  17.852  20.192   3.242
59285W        W27679  31.489   7.416   2.823
59286W        W27680  12.633  35.423   0.429
59287W        W27681   1.797   4.413   1.118
59288W        W27682  33.834   8.944  10.338
59289W        W27683  42.475  19.352   0.184
59290W        W27684  40.893  27.225   2.913
59291W        W27685  42.222   9.737   0.377
59292W        W27686  36.327   6.082   0.433
59293W        W27687  36.784  29.089  13.897
59294W        W27688   2.979  21.324  10.696
59295W        W27689  30.168  19.898  13.083
59296W        W27690  16.549  24.540   4.302
59297W        W27691  15.678   1.903  10.393
59298W        W27692   8.788  25.431  13.783
59299W        W27693  20.514  41.974  12.355
59300W        W27694  44.211  33.220  12.445
59301W        W27695   6.488  37.977  13.966
59302W        W27696   4.482  17.982   2.542
59303W        W27697   8.374  43.326   3.859
59304W        W27698  40.334   7.660   3.253
59305W        W27699   7.201   7.755  12.673
59306W        W27700  28.708  12.304   0.440
59307W        W27701  34.382   3.157   1.300
59308W        W27702  13.221  42.056  12.408
59309W        W27703   9.318   4.086  14.578
59310W        W27704   4.455   5.200   2.824
59311W        W27705  10.015  30.828  11.098
59312W        W27706  18.418  10.033   0.005
59313W        W27707  41.241   6.213   5.187
59314W        W27708  28.001  44.891   2.491
59315W        W27709  34.940  29.634  10.749
59316W        W27710  37.518  13.186   3.095
59317W        W27711  21.668   6.374   4.602
59318W        W27712  28.502  15.058   5.015
59319W        W27713   5.129  27.693   2.354
59320W        W27714  22.162  32.127  13.980
59321W        W27715  11.631  18.972   0.934
59322W        W27716   1.375  15.978   4.335
59323W        W27717  11.553  35.080  14.934
59324W        W27718  34.534  31.598   0.421
59325W        W27719  10.556  43.566  11.486
59326W        W27720  43.912  33.448  11.536
59327W        W27721  27.965  44.080  13.771
59328W        W27722   0.759  20.564   1.198
59329W        W27723  38.791  13.370  13.523
59330W        W27724   3.434  12.205  10.645
59331W        W27725   7.395  22.029   1.250
59332W        W27726  31.374  10.093  14.999
59333W        W27727  38.941  22.497   0.457
59334W        W27728   5.964  34.169   3.950
59335W        W27729  10.102  30.095   0.778
59336W        W27730  14.771  23.240  13.994
59337W        W27731  42.364   1.494  13.574
59338W        W27732  25.602   4.890   2.858
59339W        W27733  32.246  13.603   3.518
59340W        W27734  34.394  13.369   3.624
59341W        W27735   8.252  28.518  12.154
59342W        W27736  24.547  29.038  14.816
59343W        W27737  12.754  16.764  12.172
59344W        W27738  19.943  11.613  10.246
59345W        W27739  33.925  35.450  10.680
59346W        W27740  17.371  36.317   1.744
59347W        W27741   9.378  16.510   0.441
59348W        W27742  42.801  34.361  12.751
59349W        W27743  18.118  32.988   3.664
59350W        W27744  39.371  22.483  13.279
59351W        W27745  27.901  40.326   0.308
59352W        W27746   7.157  17.389  11.747
59353W        W27747  25.031   6.081   0.345
59354W        W27748   0.019  10.370   1.874
59355W        W27749  25.932  13.586   3.183
59356W        W27750  20.741   8.721  14.190
59357W        W27751  14.150  16.772   4.563
59358W        W27752  30.876   5.475   1.431
59359W        W27753  42.797  18.812   1.843
59360W        W27754  16.029  13.753   4.417
59361W        W27755  15.190  39.383  13.444
59362W        W27756  33.690  25.035  11.001
59363W        W27757   7.238  27.680  11.115
59364W        W27758  11.182  27.481   1.703
59365W        W27759  23.228  19.536  13.990
59366W        W27760  19.203  13.862   1.304
59367W        W27761  20.170  36.537  13.806
59368W        W27762   3.411  22.172  11.686
59369W        W27763  18.751  19.383   2.673
59370W        W27764   4.021  28.159   2.351
59371W        W27765  20.652  28.422   0.319
59372W        W27766  24.706   2.959  10.658
59373W        W27767  44.129   0.265  12.118
59374W        W27768   3.460   3.059   3.103
59375W        W27769  39.337   2.837   3.159
59376W        W27770  15.311  34.941  12.324
59377W        W27771  26.125  10.835   1.676
59378W        W27772  37.842  32.516   0.208
59379W        W27773  21.232  14.612   3.765
59380W        W27774  12.356  12.603  10.797
59381W        W27775  32.059  39.390  10.756
59382W        W27776  28.872  32.884   0.403
59383W        W27777  12.568  38.072   0.030
59384W        W27778  42.309  21.496  11.639
59385W        W27779   8.315  28.550   0.001
59386W        W27780  11.359  44.721  14.947
59387W        W27781  18.684   2.136  13.326
59388W        W27782  31.535  19.936  14.730
59389W        W27783   1.204  14.798   2.721
59390W        W27784   6.331   1.015  14.408
59391W        W27785  18.715  39.005   4.063
59392W        W27786  29.518   5.875   2.232
59393W        W27787  10.672  14.111   1.861
59394W        W27788  39.916  29.595  14.805
59395W        W27789   6.524   7.400   5.069
59396W        W27790  36.785  44.991  13.950
59397W        W27791  34.450  34.244  11.839
59398W        W27792   5.498   4.247   0.864
59399W        W27793  25.273  15.602   3.745
59400W        W27794  37.832  23.499   0.490
59401W        W27795  32.922  12.885   3.091
59402W        W27796  25.141   3.242   4.480
59403W        W27797  20.563   4.499  10.975
59404W        W27798  30.567  38.990  14.855
59405W        W27799  17.668  17.812  13.916
59406W        W27800  13.770   1.014  13.384
59407W        W27801   2.474   1.857   1.852
59408W        W27802  41.754  19.230  11.618
59409W        W27803  18.061   7.850   2.326
59410W        W27804  19.791  44.783  12.569
59411W        W27805  33.632   7.000  12.671
59412W        W27806  20.426  21.483  11.103
59413W        W27807  18.912  12.996  13.104
59414W        W27808  27.120   8.855   4.562
59415W        W27809   4.842  11.291   3.578
59416W        W27810  34.932  18.466  14.977
59417W        W27811   6.368   6.185  10.106
59418W        W27812  15.576  33.982   0.933
59419W        W27813   3.479  43.980   0.400
59420W        W27814  31.101   9.091  11.217
59421W        W27815   9.698  18.773  14.471
59422W        W27816  22.986   3.306  13.193
59423W        W27817  37.847  39.990   2.162
59424W        W27818  21.303  14.156  14.399
59425W        W27819  32.203   3.320   5.132
59426W        W27820  12.900  20.825   2.583
59427W        W27821  44.236  33.569  10.575
59428W        W27822   0.395  38.299  11.590
59429W        W27823  35.585   9.379   1.759
59430W        W27824  24.715   7.369   4.649
59431W        W27825  44.854  40.558   4.622
59432W        W27826  34.036   2.277  13.367
59433W        W27827  38.542   5.121  12.651
59434W        W27828   8.356  39.995  12.943
59435W        W27829  14.239  42.402  13.400
59436W        W27830  11.465  31.008  14.320
59437W        W27831  26.484  14.242  13.338
59438W        W27832  16.594  13.156  11.211
59439W        W27833   3.340   8.322   2.150
59440W        W27834   2.378  24.468   3.051
59441W        W27835  36.368  15.235  13.670
59442W        W27836  17.091  25.907   2.416
59443W        W27837   5.599  26.578   2.239
59444W        W27838  18.083  17.206  13.390
59445W        W27839  12.627  43.608   2.571
59446W        W27840  29.663  21.511   4.521
59447W        W27841  18.026  14.294  12.203
59448W        W27842  25.864  29.344   4.996
59449W        W27843  34.586  38.099   2.651
59450W        W27844   1.812  44.794   4.248
59451W        W27845  24.041  35.047   3.782
59452W        W27846  36.361  36.558  11.618
59453W        W27847  18.607  26.628  11.152
59454W        W27848   9.259  17.819  11.498
59455W        W27849  32.125   1.331   4.225
59456W        W27850   0.084   9.794   0.878
59457W        W27851   4.840  12.116   5.009
59458W        W27852   9.795  25.744   3.065
59459W        W27853  31.202  42.101   5.045
59460W        W27854  22.581  20.533   1.822
59461W        W27855  27.643   4.878  13.808
59462W        W27856   6.749  14.896   2.862
59463W        W27857  35.621  10.605   1.038
59464W        W27858   6.887   0.758  12.548
59465W        W27859  40.806  43.652  11.619
59466W        W27860  13.172  21.241  14.514
59467W        W27861  12.889   7.693  11.455
59468W        W27862  27.369  11.873   3.242
59469W        W27863  11.132  12.059  12.566
59470W        W27864  28.810  16.285   1.850
59471W        W27865  15.847   4.552   2.161
59472W        W27866   1.877   3.578  11.683
59473W        W27867  13.823  32.532   3.849
59474W        W27868  27.334  41.966  10.240
59475W        W27869  25.346  29.160  13.802
59476W        W27870  15.568  13.257  11.154
59477W        W27871  11.877  28.927  10.657
59478W        W27872  15.380  44.150   2.007
59479W        W27873  22.044  17.341  11.936
59480W        W27874  16.036  34.779  11.393
59481W        W27875   5.706  36.876   0.455
59482W        W27876  24.739  15.017  11.255
59483W        W27877  39.175  35.079  13.627
59484W        W27878  22.742  22.996   2.847
59485W        W27879  14.689  28.432  11.528
59486W        W27880   8.967  23.444   2.819
59487W        W27881  31.008  42.580   0.289
59488W        W27882  36.463  25.135   0.752
59489W        W27883  16.750  24.549   2.227
59490W        W27884  28.116  21.753   4.066
59491W        W27885  11.276  18.103   4.645
59492W        W27886   1.436  40.908  14.891
59493W        W27887  32.350  41.180  14.022
59494W        W27888  39.571  38.935   2.330
59495W        W27889   5.160  42.451   1.430
59496W        W27890  21.513  23.618  11.883
59497W        W27891  10.949  42.850   1.442
59498W        W27892  11.950  37.837   0.868
59499W        W27893  37.377  18.490   1.189
59500W        W27894   5.360   3.448  12.999
59501W        W27895  22.228  17.845   0.445
59502W        W27896   9.401  15.737   0.839
59503W        W27897  40.189  23.793   3.911
59504W        W27898  14.138  39.774   3.046
59505W        W27899   3.249  16.185   0.335
59506W        W27900  17.246  29.689  13.404
59507W        W27901   6.924  33.631   1.772
59508W        W27902  44.985  43.410   2.972
59509W        W27903  10.223  35.168   2.000
59510W        W27904   7.596  11.620  10.797
59511W        W27905  17.300  19.780   5.389
59512W        W27906  18.550  33.983   0.898
59513W        W27907  43.427  32.891  13.575
59514W        W27908  29.938  31.337  13.175
59515W        W27909  12.092  30.085  14.986
59516W        W27910  14.673   4.877   1.742
59517W        W27911  41.311   5.470  14.354
59518W        W27912  19.354  42.577   3.298
59519W        W27913  11.122   3.189  14.290
59520W        W27914  43.510  24.002   2.110
59521W        W27915   9.603  25.135   5.185
59522W        W27916  40.762  41.511   4.241
59523W        W27917  40.544  21.010   4.687
59524W        W27918  44.478  25.485  14.533
59525W        W27919   7.551  29.949   0.218
59526W        W27920  23.601  12.463   4.711
59527W        W27921  23.699  20.462   4.841
59528W        W27922  39.811  13.398   1.316
59529W        W27923  36.074  16.570  10.749
59530W        W27924  21.022  22.070  13.928
59531W        W27925  31.627  34.597   2.849
59532W        W27926  12.677  37.835  14.299
59533W        W27927   5.664  28.413  11.968
59534W        W27928  17.580  27.455   1.147
59535W        W27929  41.685   1.502   1.352
59536W        W27930  36.357  44.526   3.272
59537W        W27931  18.815   2.729   1.883
59538W        W27932  15.100   7.373   2.351
59539W        W27933  41.041  42.689  10.666
59540W        W27934  35.295  25.160   1.189
59541W        W27935  16.673  23.244   2.660
59542W        W27936  43.817   8.815  13.569
59543W        W27937  20.662  40.110  12.783
59544W        W27938  37.525   6.498   1.483
59545W        W27939   4.399  11.262  10.935
59546W        W27940  39.455  33.172  14.424
59547W        W27941  34.139   2.963  13.427
59548W        W27942   5.679  16.374  14.594
59549W        W27943  38.125  41.943  12.583
59550W        W27944  38.794  13.310   1.280
59551W        W27945  44.374  26.470   1.483
59552W        W27946  38.514  44.725   3.015
59553W        W27947  15.656   3.374   4.888
59554W        W27948  21.190   7.128  13.939
59555W        W27949   1.542  43.562  14.815
59556W        W27950  10.702  21.660  14.586
59557W        W27951  43.997  35.459   3.234
59558W        W27952  34.681  36.509  11.064
59559W        W27953  25.008   8.334   3.916
59560W        W27954  34.816  13.496  12.278
59561W        W27955   7.821   5.271  11.816
59562W        W27956   6.693  30.668  10.799
59563W        W27957  27.500  37.629   2.155
59564W        W27958  29.051  23.767   2.740
59565W        W27959  25.175   1.293   1.055
59566W        W27960   9.745   4.848   4.561
59567W        W27961  35.579   9.656   0.730
59568W        W27962  41.818  11.738  11.037
59569W        W27963  43.361  39.136  13.493
59570W        W27964   5.922   3.166  11.931
59571W        W27965  33.345  18.749   2.724
59572W        W27966  28.700  32.941   4.607
59573W        W27967   7.670  26.602   1.884
59574W        W27968   7.935   8.911  14.848
59575W        W27969  33.887  29.490   1.639
59576W        W27970  11.864   1.488   4.235
59577W        W27971  30.750  34.586  12.503
59578W        W27972  37.572   7.531  12.800
59579W        W27973  18.527  30.910  11.703
59580W        W27974  35.521   7.213   4.177
59581W        W27975  15.206  24.178   4.084
59582W        W27976  29.601  29.961   0.916
59583W        W27977  40.033  24.612  14.982
59584W        W27978  29.186  32.110   3.710
59585W        W27979  27.131  32.603  12.816
59586W        W27980  32.815  28.137  11.502
59587W        W27981   7.794   7.332  11.065
59588W        W27982  41.977  33.115  10.759
59589W        W27983  24.252  30.508   3.180
59590W        W27984  15.340  44.405   4.646
59591W        W27985  35.877  38.196   2.333
59592W        W27986  21.143   5.985  14.327
59593W        W27987   3.132  18.550  11.158
59594W        W27988  22.830  39.473   4.628
59595W        W27989   0.275  17.260   2.459
59596W        W27990  38.027  41.146   1.857
59597W        W27991  10.340  12.264  10.669
59598W        W27992  34.075  32.358  13.895
59599W        W27993  20.187   4.292   0.944
59600W        W27994  17.506  14.079  14.943
59601W        W27995  31.924   5.248   2.364
59602W        W27996  43.355  13.107  14.992
59603W        W27997  26.461  19.478  12.509
59604W        W27998  35.828   7.312   0.766
59605W        W27999  41.992  22.163   3.756
59606W        W28000  14.405  21.007  13.477
59607W        W28001  32.896  19.948   1.931
59608W        W28002  44.868  13.342  13.555
59609W        W28003  40.504  42.269   4.897
59610W        W28004  22.019  15.872   1.745
59611W        W28005  24.280   0.293   0.403
59612W        W28006  39.573  25.450  12.537
59613W        W28007  13.597   7.779   0.859
59614W        W28008  27.461  18.268  12.139
59615W        W28009   0.237   8.362  13.384
59616W        W28010  31.846   3.779  13.010
59617W        W28011  19.621  23.647   4.106
59618W        W28012  19.022  12.900   2.317
59619W        W28013   5.273  33.586   0.449
59620W        W28014  37.300  25.213   9.910
59621W        W28015   9.343  16.469   4.661
59622W        W28016  19.724  26.756   1.845
59623W        W28017  38.101  16.363  11.572
59624W        W28018  27.156  30.713   4.026
59625W        W28019  18.856  44.774   2.909
59626W        W28020  18.009  28.591   2.610
59627W        W28021  19.233   6.823  10.644
59628W        W28022  42.333  39.901   2.575
59629W        W28023   9.921  15.820   0.816
59630W        W28024  13.011  21.602   2.733
59631W        W28025  34.094  32.626   4.646
59632W        W28026  37.534  30.131  14.612
59633W        W28027  34.832  25.743  13.092
59634W        W28028  31.100  19.951   4.157
59635W        W28029   6.424  10.812  14.868
59636W        W28030  25.721  28.472  10.729
59637W        W28031  30.090  26.199   4.042
59638W        W28032  24.225  31.741  12.885
59639W        W28033  31.920   6.065   4.598
59640W        W28034  34.031   1.854   3.963
59641W        W28035  24.289  23.238   4.176
59642W        W28036  30.128  19.652  10.529
59643W        W28037  35.078  20.492  13.630
59644W        W28038  27.636  20.015   1.912
59645W        W28039  38.412   4.840  13.051
59646W        W28040   1.971  28.326   1.852
59647W        W28041  43.511   4.009   3.616
59648W        W28042  11.079   0.682  14.711
59649W        W28043  23.322   1.462   2.178
59650W        W28044  23.162  13.422  12.942
59651W        W28045  16.726  35.559  11.668
59652W        W28046  41.485  36.297  12.906
59653W        W28047   0.490  38.834   1.235
59654W        W28048  36.985  16.206  10.728
59655W        W28049  21.035  28.482   3.594
59656W        W28050   3.158   4.412   3.145
59657W        W28051  30.637   7.745   4.611
59658W        W28052  23.028  21.218  11.927
59659W        W28053  16.952  28.497  14.030
59660W        W28054  24.600   4.705   0.027
59661W        W28055  14.302  43.166  11.645
59662W        W28056  29.705  30.862  11.003
59663W        W28057   0.029  18.259   1.947
59664W        W28058  37.774  28.710   1.657
59665W        W28059  10.653   3.037   0.899
59666W        W28060  10.021   7.175   2.653
59667W        W28061  14.046  43.297   2.130
59668W        W28062  23.190   7.501  14.116
59669W        W28063  35.525  37.851   2.114
59670W        W28064   6.407  42.028   2.752
59671W        W28065  13.815  30.503  11.626
59672W        W28066   8.373  25.350  14.909
59673W        W28067   2.926  22.326   3.226
59674W        W28068  42.233  36.516   3.382
59675W        W28069   2.023  13.070  11.121
59676W        W28070  13.922  11.370  10.938
59677W        W28071  43.455  34.993  14.954
59678W        W28072  12.785  26.929  12.891
59679W        W28073  11.262  26.764   2.504
59680W        W28074   7.654  24.070   0.017
59681W        W28075  38.468  32.081  12.833
59682W        W28076  20.203   2.586  11.080
59683W        W28077  39.529   9.618   1.827
59684W        W28078   2.144  19.563   1.005
59685W        W28079  25.057  14.094  11.162
59686W        W28080  16.152   1.455   0.549
59687W        W28081  39.445  15.216   4.286
59688W        W28082  37.623  31.075   4.499
59689W        W28083  17.621   8.215   9.823
59690W        W28084  12.281   8.111  13.511
59691W        W28085  37.457  36.275  11.270
59692W        W28086  12.687  11.149  10.763
59693W        W28087  15.156   2.970  14.410
59694W        W28088  34.914  27.796   4.535
59695W        W28089  39.277  43.623  13.848
59696W        W28090  30.235  29.355  10.937
59697W        W28091  33.560  38.669   0.007
59698W        W28092  29.501   6.965   1.364
59699W        W28093  14.953  36.844  10.033
59700W        W28094  20.395   5.302   0.778
59701W        W28095  11.844   5.670  10.520
59702W        W28096  16.814  40.072  14.170
59703W        W28097   0.257  12.905  13.018
59704W        W28098  43.011   2.691   0.926
59705W        W28099  37.599   5.052  10.028
59706W        W28100   6.073   5.345   1.814
59707W        W28101  19.791  26.468   2.774
59708W        W28102  22.464  26.022  12.331
59709W        W28103  24.672  34.527   4.795
59710W        W28104  18.071  40.068   0.877
59711W        W28105  19.065   5.719   0.773
59712W        W28106  34.525   0.679   2.744
59713W        W28107   1.261  34.883  11.212
59714W        W28108  26.179  27.649  13.123
59715W        W28109  43.523  20.084  10.687
59716W        W28110  39.480  30.726  13.208
59717W        W28111   3.217  31.922  14.851
59718W        W28112  23.834  24.608  10.680
59719W        W28113   1.706  19.665   1.325
59720W        W28114  36.047  27.408  12.913
59721W        W28115   4.993  35.871   0.813
59722W        W28116  36.061   7.026  13.255
59723W        W28117   9.823  14.665  11.737
59724W        W28118  36.648  13.764  12.107
59725W        W28119  39.813  14.205   0.375
59726W        W28120  37.124  40.369   4.716
59727W        W28121   5.665  43.975  12.952
59728W        W28122  17.653  10.320   1.242
59729W        W28123  23.280  27.692  13.210
59730W        W28124  25.910   1.648  10.989
59731W        W28125  17.858   0.637   0.868
59732W        W28126   7.644  27.549   4.024
59733W        W28127  22.653  17.867  12.531
59734W        W28128  13.230   1.691  11.468
59735W        W28129   7.320  40.123   2.779
59736W        W28130  32.872  20.509   0.729
59737W        W28131  40.387  34.864  12.623
59738W        W28132  31.962   8.763  14.858
59739W        W28133  27.969   9.633   2.055
59740W        W28134  40.724  36.112  11.957
59741W        W28135   2.309  34.914   0.817
59742W        W28136  28.156  18.101  14.160
59743W        W28137  14.075  17.741   0.808
59744W        W28138   4.427  24.615   4.613
59745W        W28139  24.672   3.200   4.721
59746W        W28140  37.864   0.930  14.458
59747W        W28141  34.380  24.146  11.099
59748W        W28142  25.259   4.246   3.594
59749W        W28143  35.974  17.776  14.261
59750W        W28144  19.393  36.902   5.095
59751W        W28145   6.785   2.707   5.407
59752W        W28146  25.153   6.417   5.079
59753W        W28147  32.366  17.074  12.339
59754W        W28148  43.825  25.857   3.725
59755W        W28149   6.306  20.995   0.573
59756W        W28150  44.815  35.100   4.077
59757W        W28151  42.302  28.574   4.684
59758W        W28152  33.539  42.816   2.411
59759W        W28153   3.385  38.024   4.409
59760W        W28154  24.263  37.486  14.665
59761W        W28155  27.376  34.805  11.146
59762W        W28156  40.326  29.148   0.882
59763W        W28157  39.978   9.090   1.404
59764W        W28158  39.263  21.672  13.983
59765W        W28159   9.936  33.392  11.229
59766W        W28160   9.282  37.777  13.109
59767W        W28161  11.427  28.547   2.293
59768W        W28162  35.123  26.406   0.183
59769W        W28163  28.232  23.558   4.113
59770W        W28164   5.500  15.828   4.181
59771W        W28165   7.405  35.551  11.077
59772W        W28166  11.904  22.040   4.271
59773W        W28167  17.177  37.241   1.816
59774W        W28168  24.728  21.618  12.504
59775W        W28169  12.795  23.567   0.423
59776W        W28170  29.022  14.376   4.628
59777W        W28171  11.645  37.241   0.277
59778W        W28172  21.876  39.046   4.855
59779W        W28173   1.309  30.998   2.831
59780W        W28174   6.734  43.830   4.072
59781W        W28175  15.028  15.508  11.551
59782W        W28176  12.139  37.541   3.365
59783W        W28177  44.303  44.362  14.819
59784W        W28178  28.644  24.517  11.090
59785W        W28179  41.621  12.350   3.684
59786W        W28180   2.840  39.483   2.586
59787W        W28181  25.603  35.720   1.923
59788W        W28182  35.768   4.135   0.282
59789W        W28183  31.541  17.727   4.929
59790W        W28184  27.678   2.766   0.685
59791W        W28185  18.342   1.531   3.719
59792W        W28186  14.874  24.846   3.172
59793W        W28187  16.287  15.685  11.020
59794W        W28188  40.265   3.700   0.818
59795W        W28189  20.607   6.385   1.391
59796W        W28190  34.586  13.814  13.975
59797W        W28191  22.236  35.966   3.606
59798W        W28192  11.627  13.802  14.659
59799W        W28193  22.627  21.953  13.497
59800W        W28194   2.587   0.575  14.973
59801W        W28195  39.308  38.434  10.546
59802W        W28196  13.161  29.593  10.976
59803W        W28197   6.415  33.365   4.150
59804W        W28198  29.427   3.752  13.224
59805W        W28199  11.874  26.046   2.613
59806W        W28200  17.754  24.983   1.380
59807W        W28201  30.435  29.286  10.482
59808W        W28202  43.765   2.976  13.654
59809W        W28203  21.732  35.425  12.528
59810W        W28204  30.476  11.773  12.025
59811W        W28205   5.888  20.221   0.778
59812W        W28206  24.533  36.159  14.302
59813W        W28207  13.201  23.528   0.745
59814W        W28208   6.156  32.515   0.885
59815W        W28209   4.225  35.572   1.166
59816W        W28210  23.341  16.618   4.260
59817W        W28211  16.417  15.431   1.159
59818W        W28212  33.330  29.453  14.523
59819W        W28213  42.849  17.627  10.824
59820W        W28214   0.407  20.345   2.155
59821W        W28215  19.583  19.383  12.084
59822W        W28216  28.053  10.644   1.380
59823W        W28217  28.521   2.785  13.251
59824W        W28218  18.604  44.082   1.528
59825W        W28219   5.951  17.559   0.561
59826W        W28220  44.858  16.530  11.031
59827W        W28221  23.704  14.471   2.687
59828W        W28222  22.988  23.464   2.797
59829W        W28223  34.876   9.789  12.119
59830W        W28224  38.461   6.923   1.712
59831W        W28225  17.648  31.402   3.268
59832W        W28226  21.715  20.648  13.733
59833W        W28227  28.664  13.894   1.699
59834W        W28228   5.388   1.320  11.182
59835W        W28229  34.019  40.484   3.405
59836W        W28230  26.603  24.194   2.782
59837W        W28231  17.765   6.891   1.364
59838W        W28232   1.663  27.407   3.576
59839W        W28233  37.268   0.864  13.034
59840W        W28234  35.421  37.501  11.023
59841W        W28235   6.898  22.850  14.657
59842W        W28236  11.656  29.965  14.691
59843W        W28237  29.066   8.055  14.355
59844W        W28238  18.552  36.975  12.354
59845W        W28239  24.950  16.874  12.926
59846W        W28240  12.698  10.211  14.840
59847W        W28241  32.652  30.587  10.670
59848W        W28242  18.364  15.140   2.847
59849W        W28243   7.238  37.612   0.796
59850W        W28244   9.605  27.934  14.868
59851W        W28245  21.074   1.931  13.324
59852W        W28246  25.553   5.816  12.392
59853W        W28247  29.504   4.480   2.120
59854W        W28248   5.278  34.486  12.742
59855W        W28249  43.346  16.142  11.289
59856W        W28250  33.881  19.176  12.941
59857W        W28251   8.645   5.809  11.949
59858W        W28252  18.928  34.980  14.965
59859W        W28253  23.009  25.829  13.981
59860W        W28254  39.842  23.469   2.676
59861W        W28255   8.382  43.532  13.946
59862W        W28256  43.421   3.330   4.759
59863W        W28257   4.248  29.924  14.157
59864W        W28258  24.630  33.200  14.510
59865W        W28259  36.843   5.332   0.892
59866W        W28260  22.682  35.750  12.099
59867W        W28261  16.216  27.699  13.394
59868W        W28262  27.034  18.369  11.222
59869W        W28263   9.731  20.671   0.162
59870W        W28264  12.783   9.748  11.829
59871W        W28265   8.083  18.228   1.405
59872W        W28266  25.378  23.610  10.158
59873W        W28267  28.861  10.745  12.088
59874W        W28268  43.360  31.520   1.456
59875W        W28269  28.424  13.504   0.018
59876W        W28270   8.699  26.254  13.443
59877W        W28271  19.257   9.000  14.520
59878W        W28272  29.772  26.619   1.416
59879W        W28273  10.319  25.704  10.432
59880W        W28274  41.049   6.098  11.685
59881W        W28275   7.533  12.436  13.367
59882W        W28276   2.294  16.875  12.886
59883W        W28277  15.049  24.964  14.357
59884W        W28278  33.596  38.861   2.665
59885W        W28279  34.489  26.467   3.133
59886W        W28280   7.825  28.123   0.696
59887W        W28281  33.323   6.477  11.256
59888W        W28282  34.946  42.235  14.317
59889W        W28283  18.107  32.624  14.246
59890W        W28284  15.294   6.897   2.350
59891W        W28285  17.499  32.522   4.661
59892W        W28286  21.062   7.607  10.768
59893W        W28287   0.437  38.617   1.700
59894W        W28288  41.813  33.654   3.281
59895W        W28289   7.726  31.868   4.077
59896W        W28290  27.672  44.002   0.129
59897W        W28291  13.767  38.355  13.552
59898W        W28292  20.314   6.592   4.204
59899W        W28293  32.850  44.475  13.416
59900W        W28294  15.152  27.576   1.986
59901W        W28295  21.559  33.013  11.125
59902W        W28296  11.319  23.810  12.365
59903W        W28297  36.156  13.372   3.229
59904W        W28298  42.326  24.693  11.174
59905W        W28299  31.695  19.525  12.261
59906W        W28300  40.865  18.987  11.545
59907W        W28301   9.357  14.727  13.026
59908W        W28302   1.753  17.143   2.346
59909W        W28303  30.938  26.421   2.257
59910W        W28304  19.030  10.088   3.136
59911W        W28305   4.437   5.864   1.388
59912W        W28306  13.021  17.709   4.106
59913W        W28307  24.612  29.760   0.435
59914W        W28308   0.906  42.106  13.761
59915W        W28309  24.213  20.729  14.042
59916W        W28310   3.251  37.479  11.981
59917W        W28311  10.098  39.579   2.886
59918W        W28312  12.014  21.672  10.851
59919W        W28313   6.736  26.488   1.764
59920W        W28314  22.042   1.908  11.188
59921W        W28315  35.552   7.865   1.842
59922W        W28316  41.703  11.001   1.787
59923W        W28317   6.420  27.073  12.427
59924W        W28318  18.177  27.898   3.729
59925W        W28319  32.544  16.978  11.878
59926W        W28320  34.466   1.114   2.475
59927W        W28321  36.906   6.264   2.088
59928W        W28322  31.649  44.466   5.031
59929W        W28323  18.229   2.052  12.590
59930W        W28324  14.787  43.567   2.374
59931W        W28325  22.596  34.547   0.950
59932W        W28326  27.269  24.642   3.793
59933W        W28327   2.410  20.681   3.443
59934W        W28328  40.707  17.056   3.191
59935W        W28329   7.450  33.820   3.412
59936W        W28330  39.002  22.249  10.806
59937W        W28331   6.518  27.117   2.281
59938W        W28332  32.567   3.463  13.302
59939W        W28333  27.287   3.113   3.401
59940W        W28334  19.649  38.817  10.495
59941W        W28335  17.124  31.072  13.745
59942W        W28336  25.462  36.012  14.304
59943W        W28337  33.090  14.398   1.924
59944W        W28338  34.470   7.122   1.872
59945W        W28339   0.519  39.663   1.651
59946W        W28340  18.513  38.284   0.645
59947W        W28341  27.955   7.442  14.052
59948W        W28342  40.939  22.132   1.640
59949W        W28343   2.226  10.882   1.394
59950W        W28344  20.967   5.949  14.832
59951W        W28345  30.241   8.585   1.455
59952W        W28346   4.973  24.732  13.129
59953W        W28347  21.844  10.161   4.635
59954W        W28348  40.355   0.307  10.702
59955W        W28349   4.297  32.347  12.057
59956W        W28350  30.500  33.505   0.425
59957W        W28351  30.937  20.545   0.191
59958W        W28352  17.718   1.406   4.556
59959W        W28353  18.240   4.823  14.287
59960W        W28354  22.573  14.080  13.640
59961W        W28355   1.899   1.167   0.492
59962W        W28356  10.191  40.560   1.307
59963W        W28357  38.477   7.411  12.974
59964W        W28358  30.575  42.141   5.097
59965W        W28359   7.176  20.034   0.393
59966W        W28360  26.307   9.643  13.024
59967W        W28361   1.192  21.951   2.669
59968W        W28362  13.871  10.044   5.000
59969W        W28363   9.378  19.468   4.154
59970W        W28364  41.087  38.469  12.992
59971W        W28365   8.729  34.611  10.557
59972W        W28366  15.002   2.799   4.865
59973W        W28367  19.631  28.665   2.422
59974W        W28368   6.669   3.946  12.292
59975W        W28369   7.403  38.216  12.412
59976W        W28370  23.527  11.287   1.322
59977W        W28371  37.769   4.961  14.545
59978W        W28372  40.030  31.822  12.052
59979W        W28373  34.905  11.904   3.303
59980W        W28374   3.408   5.538   3.680
59981W        W28375  33.017  13.531   4.771
59982W        W28376  29.359  15.352   4.647
59983W        W28377  40.931  18.855   3.827
59984W        W28378  27.944  12.071  13.516
59985W        W28379  41.802   4.411   0.054
59986W        W28380  21.230   8.585  12.433
59987W        W28381  32.141  28.655  11.578
59988W        W28382  43.648   4.286  11.158
59989W        W28383   0.748  13.249   1.254
59990W        W28384  14.560  21.306   1.767
59991W        W28385   7.310  33.906   2.001
59992W        W28386  39.099   4.958   1.240
59993W        W28387  27.886  35.574  10.252
59994W        W28388  16.001  14.246   0.803
59995W        W28389  37.462  44.017   4.236
59996W        W28390   5.371  20.023  13.318
59997W        W28391  16.168  27.611  12.541
59998W        W28392  25.601  19.641   1.924
59999W        W28393   1.147  18.972  13.030
60000W        W28394  34.794  12.769  13.385
60001W        W28395  41.748  24.954  10.772
60002W        W28396  30.998  12.533  10.755
60003W        W28397   5.424  43.508   3.239
60004W        W28398   0.978  26.718   1.275
60005W        W28399  43.113  17.180  14.817
60006W        W28400  13.280  14.806  14.691
60007W        W28401  35.851   0.468  13.326
60008W        W28402  35.318  26.799   2.694
60009W        W28403  23.527  21.606  11.151
60010W        W28404  17.806  32.122   1.254
60011W        W28405  26.975   2.934  14.358
60012W        W28406  43.476  39.075  10.682
60013W        W28407   2.904   0.393   2.120
60014W        W28408   1.476   1.402   1.405
60015W        W28409   9.397  36.400  10.690
60016W        W28410  16.669  42.112   5.374
60017W        W28411  21.460  35.409  12.093
60018W        W28412   9.960  23.153  13.295
60019W        W28413  42.267  35.904   4.984
60020W        W28414  34.148   3.716   1.827
60021W        W28415  28.648   1.806   4.714
60022W        W28416  35.145   5.724  12.160
60023W        W28417  12.250   9.550   4.734
60024W        W28418  41.780   1.276   0.343
60025W        W28419  26.702  15.369  10.790
60026W        W28420  13.862  11.276   1.314
60027W        W28421   4.638  27.905  12.967
60028W        W28422  17.245   2.379   2.243
60029W        W28423  21.295  23.629   0.941
60030W        W28424  25.958   1.169  12.380
60031W        W28425  22.462  40.037   1.297
60032W        W28426  14.066   8.300  13.517
60033W        W28427  16.037  10.869   9.950
60034W        W28428  42.862   7.968  12.071
60035W        W28429  14.179   3.954  11.205
60036W        W28430   8.799  43.417   3.568
60037W        W28431  21.248  12.397  10.891
60038W        W28432  44.928  43.936  13.560
60039W        W28433  38.481   3.050   1.038
60040W        W28434  17.156  31.354  14.432
60041W        W28435   0.941  25.012   4.941
60042W        W28436   2.803  14.707  14.936
60043W        W28437   8.461  21.612  14.254
60044W        W28438  40.502  17.692  10.633
60045W        W28439  37.543  32.504  10.946
60046W        W28440  14.106  27.755   1.244
60047W        W28441  32.705  11.820   2.661
60048W        W28442  16.751   7.592  14.824
60049W        W28443  40.681  42.425   3.866
60050W        W28444  29.533  13.603   3.786
60051W        W28445  12.592  34.221   1.362
60052W        W28446   1.269  11.400  11.576
60053W        W28447   7.447  28.285   4.097
60054W        W28448   1.723   8.261  14.491
60055W        W28449  29.974  18.707  10.739
60056W        W28450  30.126  42.441  11.642
60057W        W28451   5.543  25.717  10.739
60058W        W28452  29.533  26.067  12.758
60059W        W28453  13.279  40.913   2.635
60060W        W28454  40.508  43.404   0.264
60061W        W28455  28.758  40.058  10.766
60062W        W28456  12.090  34.442  11.664
60063W        W28457  11.780  41.564  14.036
60064W        W28458  28.434   0.474  12.554
60065W        W28459  17.135  30.926  11.520
60066W        W28460  11.322  41.687  13.827
60067W        W28461   1.083  36.942   3.747
60068W        W28462  17.537  17.246   0.364
60069W        W28463  22.310   7.880   4.357
60070W        W28464  24.482  43.963   4.724
60071W        W28465  42.203  19.628  13.798
60072W        W28466  43.929  35.812   0.265
60073W        W28467  21.175   2.796   2.773
60074W        W28468  25.992  19.300   3.833
60075W        W28469  27.162  36.005   0.234
60076W        W28470   6.333  32.457   3.755
60077W        W28471  38.182  43.402   1.460
60078W        W28472  21.541  19.260   2.693
60079W        W28473   8.072  40.913  14.725
60080W        W28474  37.365  34.959   1.819
60081W        W28475  36.423  12.017  13.833
60082W        W28476   8.200  38.663   2.635
60083W        W28477  43.265  29.491  12.209
60084W        W28478  42.016  34.405   2.795
60085W        W28479  32.905  41.608   2.819
60086W        W28480  42.634  37.521   2.357
60087W        W28481  37.800  12.525  13.845
60088W        W28482  15.083  23.265  10.697
60089W        W28483  36.978  33.643  13.437
60090W        W28484  14.781   0.422   4.249
60091W        W28485   0.368  37.360   3.878
60092W        W28486  38.078   9.858  13.392
60093W        W28487  40.917   0.265  14.589
60094W        W28488   9.201   1.216   1.890
60095W        W28489   2.495  26.631   3.133
60096W        W28490  43.542  41.005  11.516
60097W        W28491  32.401   2.435  11.632
60098W        W28492  15.510   9.805   3.188
60099W        W28493  29.698   7.692   2.692
60100W        W28494  21.627   7.190   3.743
60101W        W28495  22.440  16.632   0.933
60102W        W28496  36.716   4.793  13.883
60103W        W28497   3.738   6.390  10.065
60104W        W28498  43.880  43.044  14.527
60105W        W28499  29.172  16.600   1.327
60106W        W28500  31.463  27.715  12.073
60107W        W28501  32.166   9.163   4.875
60108W        W28502  26.499   2.915   0.374
60109W        W28503  28.232  20.006   4.097
60110W        W28504  32.654   2.319   1.386
60111W        W28505  44.443  31.069  13.962
60112W        W28506  23.221  13.177  10.627
60113W        W28507  20.318   1.459   2.696
60114W        W28508  35.363  19.137  13.899
60115W        W28509  18.296  34.760   0.197
60116W        W28510   1.865  42.593   2.368
60117W        W28511  26.104  12.373   3.641
60118W        W28512  36.590   2.431  12.707
60119W        W28513  25.178  39.926  12.990
60120W        W28514  28.970  17.810  14.845
60121W        W28515   9.886  26.872   2.419
60122W        W28516  18.615  26.948   2.702
60123W        W28517  30.328  17.247   0.457
60124W        W28518  22.935  37.409  14.483
60125W        W28519  40.656   5.218  11.577
60126W        W28520  19.950  20.627   0.562
60127W        W28521  19.716   2.776   4.822
60128W        W28522  30.984  23.620  12.988
60129W        W28523  30.317   3.767  12.996
60130W        W28524  37.182   3.751  12.762
60131W        W28525  42.573  23.461  13.578
60132W        W28526  11.294   5.640   2.689
60133W        W28527  30.401  40.032   3.364
60134W        W28528  33.925  33.977  10.856
60135W        W28529  10.703  24.083   1.457
60136W        W28530   5.361  10.235   3.142
60137W        W28531  11.167  36.180  13.647
60138W        W28532   8.712   1.804  13.815
60139W        W28533  21.760  12.626   1.650
60140W        W28534  34.117  43.609  13.732
60141W        W28535  40.653   8.358  11.551
60142W        W28536   0.576  24.679  12.858
60143W        W28537  35.631  34.840  12.590
60144W        W28538   7.386  37.983   4.445
60145W        W28539  31.986  43.415  11.799
60146W        W28540  29.059  16.783  14.845
60147W        W28541  26.099  21.585   3.107
60148W        W28542  10.782  19.808  12.635
60149W        W28543   3.847  39.030   3.200
60150W        W28544   3.426  28.539   1.356
60151W        W28545  11.445  38.258   3.744
60152W        W28546  42.354  41.702  12.407
60153W        W28547  26.886  44.419  14.027
60154W        W28548  37.294  42.479  11.715
60155W        W28549   0.565   6.990   0.738
60156W        W28550  20.889   8.574   9.975
60157W        W28551  15.991   3.270   0.910
60158W        W28552   7.544   0.275   4.145
60159W        W28553  16.227  33.284  11.356
60160W        W28554  18.354  23.055   0.702
60161W        W28555  12.784  18.776   3.279
60162W        W28556  11.643  39.743   2.855
60163W        W28557  28.667  19.831  10.986
60164W        W28558   3.228  43.304   1.691
60165W        W28559  44.398  21.932  13.500
60166W        W28560  21.007   3.077  11.793
60167W        W28561  19.820   6.886   1.396
60168W        W28562  28.624  20.645  13.561
60169W        W28563  37.081  15.248  14.348
60170W        W28564  41.325  37.157  14.848
60171W        W28565  26.619  39.772   4.828
60172W        W28566  31.119  36.850   3.575
60173W        W28567   0.901  43.566  14.127
60174W        W28568  41.828  29.386   1.856
60175W        W28569  39.762  37.349  11.859
60176W        W28570   3.452  17.407  14.827
60177W        W28571  20.992   7.948   2.444
60178W        W28572  35.819  20.443  13.490
60179W        W28573   7.896  44.593  10.457
60180W        W28574   5.427  24.125   0.742
60181W        W28575   3.840  38.408   0.801
60182W        W28576  15.681  40.990   3.704
60183W        W28577  17.528  17.131   3.686
60184W        W28578  33.585  43.391   1.259
60185W        W28579  43.247  16.687  10.693
60186W        W28580  32.954  36.079   0.999
60187W        W28581  30.598  21.254   1.815
60188W        W28582  26.056  35.127  12.301
60189W        W28583  13.634  35.451  14.428
60190W        W28584  34.157  19.685  11.146
60191W        W28585  31.849  26.447   5.087
60192W        W28586  33.386  20.761  12.482
60193W        W28587   0.908  15.577   2.337
60194W        W28588  13.112  26.193   4.803
60195W        W28589   1.709  15.812   3.413
60196W        W28590   3.196  38.969   3.717
60197W        W28591  12.051  38.613  12.662
60198W        W28592   4.507  12.725  10.481
60199W        W28593  38.761   9.609   2.282
60200W        W28594  29.451   3.729   1.482
60201W        W28595  15.759  41.331   4.625
60202W        W28596  40.401  18.761  13.952
60203W        W28597   2.747  12.661   4.690
60204W        W28598  35.138  25.668  11.657
60205W        W28599  35.121  38.866   0.835
60206W        W28600  21.158  44.753   2.283
60207W        W28601  33.224  22.483  11.092
60208W        W28602   2.346  15.005   2.445
60209W        W28603  13.212   8.216  12.557
60210W        W28604   8.632  33.027   4.688
60211W        W28605  32.883  37.352  10.229
60212W        W28606  13.573  16.857  11.042
60213W        W28607  42.265   7.825   4.026
60214W        W28608  11.929  30.950   4.113
60215W        W28609   2.770  41.229   1.050
60216W        W28610  37.812  42.112  12.975
60217W        W28611  29.727  44.855   4.216
60218W        W28612   3.014  19.740   0.060
60219W        W28613  31.962  21.541  11.705
60220W        W28614  11.625   3.925   2.470
60221W        W28615  36.558  16.117  13.291
60222W        W28616  18.755  23.807   1.715
60223W        W28617  42.028  30.962  13.932
60224W        W28618  20.582  44.516   0.315
60225W        W28619  39.150  35.576   1.297
60226W        W28620  19.768  24.072  11.877
60227W        W28621   7.963   6.277  12.448
60228W        W28622  22.705  33.335  14.357
60229W        W28623  30.095  20.946  13.024
60230W        W28624  30.226  34.610  13.433
60231W        W28625  10.400  25.578   2.370
60232W        W28626  39.003   5.688   0.838
60233W        W28627  21.212  12.346  14.707
60234W        W28628   8.615  34.865  14.395
60235W        W28629  40.887  25.582  14.127
60236W        W28630  37.566  40.526   2.720
60237W        W28631  14.380   7.677   1.308
60238W        W28632  19.235  27.413   4.347
60239W        W28633  28.271  40.626   4.553
60240W        W28634  25.819  35.053   3.974
60241W        W28635  29.155  24.953  12.481
60242W        W28636   2.904  18.508  13.498
60243W        W28637   8.210  25.843  14.899
60244W        W28638  44.480   6.166  13.186
60245W        W28639  28.041   9.172   0.874
60246W        W28640  24.518  28.951  11.132
60247W        W28641  33.859  11.411   0.964
60248W        W28642  41.500  22.648  12.804
60249W        W28643   6.380   9.472  12.866
60250W        W28644   2.491  11.280   1.124
60251W        W28645  38.561  23.191  13.589
60252W        W28646  14.386  39.744  12.480
60253W        W28647  32.839  29.235   4.469
60254W        W28648  34.816  19.606  10.454
60255W        W28649   8.927   8.716  11.983
60256W        W28650  24.166  22.628  10.692
60257W        W28651  38.862  44.520  11.275
60258W        W28652  15.150  40.624  12.110
60259W        W28653   1.901  25.824   4.702
60260W        W28654  32.462  16.607   1.544
60261W        W28655  28.515  30.644  13.784
60262W        W28656   0.297  41.379   4.870
60263W        W28657   1.434  34.027  14.128
60264W        W28658   5.820   1.242  12.827
60265W        W28659  22.623   3.811  13.856
60266W        W28660  37.883  29.088   4.952
60267W        W28661  16.745  33.997   4.644
60268W        W28662  20.435  43.112   0.527
60269W        W28663  27.528  10.582   1.472
60270W        W28664   8.246  30.112   4.506
60271W        W28665   8.689   5.927   4.657
60272W        W28666  21.131  20.812   3.769
60273W        W28667  10.765  23.371   2.864
60274W        W28668  40.626  31.449   3.538
60275W        W28669  12.797   9.338  10.706
60276W        W28670  22.199  26.579   4.124
60277W        W28671  14.071   2.981   0.285
60278W        W28672  34.846  15.103   2.415
60279W        W28673  24.590  17.656  14.367
60280W        W28674  15.753  12.145   4.720
60281W        W28675  30.272  29.701   3.843
60282W        W28676   9.441   0.403  12.603
60283W        W28677   3.380  40.460  11.567
60284W        W28678  14.399   2.808  11.669
60285W        W28679  14.765  40.050  11.577
60286W        W28680  36.099   4.883  11.509
60287W        W28681  16.789  12.118  10.470
60288W        W28682   9.405  42.353   0.441
60289W        W28683  29.962  37.625   0.286
60290W        W28684   1.165  22.014  11.529
60291W        W28685  18.721  36.475  14.471
60292W        W28686   4.480  11.133  13.409
60293W        W28687  25.135  16.119  14.728
60294W        W28688   3.431   3.487  11.174
60295W        W28689  30.586  34.054   0.532
60296W        W28690  29.464  19.345  12.072
60297W        W28691  19.746  10.397  10.695
60298W        W28692  25.655  14.215   4.957
60299W        W28693  19.008  36.917  14.421
60300W        W28694  15.801  28.072  14.576
60301W        W28695  30.973  13.270   2.909
60302W        W28696  24.905   5.812  13.117
60303W        W28697  14.275  40.489  13.059
60304W        W28698  43.320  13.725  11.514
60305W        W28699  28.617  29.390  14.798
60306W        W28700  34.128   9.386  12.809
60307W        W28701   1.172  13.552   2.346
60308W        W28702  23.716   7.857  12.334
60309W        W28703   1.031  37.348   2.653
60310W        W28704  29.733  38.972   2.344
60311W        W28705  41.250   6.790  12.799
60312W        W28706  13.741  27.496  12.296
60313W        W28707   6.248   5.931  10.536
60314W        W28708  44.168  24.215   4.040
60315W        W28709  14.570   0.057   3.122
60316W        W28710  22.222  17.751  10.746
60317W        W28711  11.939  23.350   3.251
60318W        W28712  12.838  33.381  13.796
60319W        W28713   9.887   6.323  14.356
60320W        W28714  13.140  39.014  13.372
60321W        W28715  20.848   0.259   4.964
60322W        W28716  25.884  38.398   3.696
60323W        W28717  23.972  14.151  10.289
60324W        W28718  32.097   1.463   2.236
60325W        W28719   2.947  27.546  12.455
60326W        W28720  31.192  10.112   4.251
60327W        W28721  34.695  34.860   5.171
60328W        W28722   7.863  17.765  12.589
60329W        W28723  39.929  35.912  10.211
60330W        W28724  44.790  34.560   0.910
60331W        W28725  36.347  23.111   0.433
60332W        W28726  28.416   6.106  10.507
60333W        W28727  30.098   1.127   3.330
60334W        W28728  29.651  28.611   3.139
60335W        W28729   1.998  40.391  11.479
60336W        W28730   6.283  43.038   4.945
60337W        W28731  18.946  40.598  10.063
60338W        W28732  23.013  29.817  13.624
60339W        W28733  23.060  13.021  11.934
60340W        W28734  17.555  44.253  13.006
60341W        W28735  41.149  42.940  13.630
60342W        W28736  27.360  44.929  11.345
60343W        W28737  18.070  44.458   4.176
60344W        W28738   2.340  21.667  11.484
60345W        W28739  11.145  13.134  11.576
60346W        W28740   0.876  38.331   4.638
60347W        W28741  26.064  39.842  11.733
60348W        W28742   6.329   7.659   4.641
60349W        W28743  34.109   1.344   4.033
60350W        W28744  17.117  13.896  14.617
60351W        W28745  20.072  22.722  10.704
60352W        W28746  44.574  10.308   1.368
60353W        W28747  31.455  23.417  11.696
60354W        W28748  42.800  13.131   4.461
60355W        W28749  38.884  43.426  10.767
60356W        W28750   4.966  26.573  14.002
60357W        W28751  14.330  12.613  11.120
60358W        W28752  40.000  35.370  12.501
60359W        W28753   9.443   5.110   2.736
60360W        W28754  32.254  34.822   2.769
60361W        W28755  28.733  23.797   3.229
60362W        W28756  44.497  13.316   2.853
60363W        W28757  39.442  33.319  10.688
60364W        W28758  40.898  41.276   3.322
60365W        W28759   9.460  15.781  11.176
60366W        W28760  13.091  41.302  12.902
60367W        W28761  22.148  31.970   0.488
60368W        W28762   8.545  39.556  13.865
60369W        W28763  17.048  19.061  13.410
60370W        W28764   5.884   6.467  11.171
60371W        W28765   6.668  28.262  11.035
60372W        W28766  32.808   9.765  11.912
60373W        W28767  24.634   3.361   4.224
60374W        W28768   0.130  30.645   1.331
60375W        W28769   0.856  18.222  13.935
60376W        W28770  28.475   2.435   0.879
60377W        W28771  22.567  28.211  10.910
60378W        W28772  26.930   3.201   0.443
60379W        W28773  19.788  20.011   4.070
60380W        W28774   4.010  38.550   1.771
60381W        W28775   6.468  11.744   4.440
60382W        W28776  33.391  41.113  10.490
60383W        W28777  19.918  14.256   3.917
60384W        W28778   5.471   6.886  11.061
60385W        W28779  38.866  21.039   1.833
60386W        W28780  30.511  41.876  12.850
60387W        W28781  40.398  29.350  13.623
60388W        W28782  29.350  19.572   2.632
60389W        W28783   7.706  10.686   2.137
60390W        W28784   7.654  34.010  12.010
60391W        W28785  35.001   1.869  13.197
60392W        W28786  36.013  40.231   2.216
60393W        W28787  31.977  15.186  12.892
60394W        W28788  12.270  18.120   2.461
60395W        W28789  31.871  25.459  12.010
60396W        W28790   7.731  24.725  13.627
60397W        W28791   8.146  32.953  13.087
60398W        W28792  23.572  10.878   0.492
60399W        W28793  21.487  43.706   2.516
60400W        W28794  31.650  38.924  13.996
60401W        W28795  19.589   1.985   0.731
60402W        W28796  11.262  19.043  13.425
60403W        W28797   1.413  36.563  10.519
60404W        W28798  21.171  31.596   1.840
60405W        W28799  39.817  43.463   4.229
60406W        W28800  43.942  42.531  14.536
60407W        W28801  14.118  28.919   4.903
60408W        W28802   1.497   1.327   4.166
60409W        W28803  29.493  31.881   0.308
60410W        W28804  12.382  19.219   3.209
60411W        W28805  11.207   0.663  10.528
60412W        W28806  39.041  14.593  14.829
60413W        W28807  14.106   2.459   3.776
60414W        W28808  20.457  38.257   4.079
60415W        W28809  19.565  44.269   1.361
60416W        W28810  14.547  12.918   4.063
60417W        W28811  36.256  32.108   0.513
60418W        W28812   7.615  16.506  14.809
60419W        W28813  43.722  10.824   3.288
60420W        W28814  44.940  28.545  11.419
60421W        W28815   1.246  21.535  12.618
60422W        W28816  43.877  13.790   2.343
60423W        W28817  41.505  35.425   3.240
60424W        W28818  26.672   6.317  12.494
60425W        W28819  35.699  42.809  13.590
60426W        W28820  21.304  29.328  12.581
60427W        W28821   4.107  28.700   3.724
60428W        W28822  36.167  21.653   2.430
60429W        W28823  19.202  16.092   2.772
60430W        W28824  15.660  28.560  14.525
60431W        W28825  21.712  18.538  10.911
60432W        W28826   8.007  15.087  13.279
60433W        W28827  20.647   5.339  12.073
60434W        W28828  24.317  14.245   0.881
60435W        W28829  11.361  13.750   0.720
60436W        W28830   5.860   7.772   4.906
60437W        W28831  31.391  35.852   1.942
60438W        W28832   9.811  41.033   0.363
60439W        W28833   6.999  16.040  10.420
60440W        W28834  31.452  20.824   4.182
60441W        W28835  37.790  34.962   3.622
60442W        W28836  28.636  21.064  14.862
60443W        W28837  26.014  27.669  12.637
60444W        W28838   3.720  18.540  14.400
60445W        W28839  29.833  39.966   1.734
60446W        W28840  31.402   8.245  11.270
60447W        W28841  15.298  40.800  10.574
60448W        W28842  36.791  40.327   2.685
60449W        W28843  29.519  24.933  14.865
60450W        W28844  19.560   7.849   3.714
60451W        W28845   8.220  33.459   1.227
60452W        W28846  38.801  39.553   2.273
60453W        W28847  11.391  20.761  10.426
60454W        W28848  35.609  36.617   0.884
60455W        W28849   4.246   7.426   3.113
60456W        W28850  19.479  23.240  13.335
60457W        W28851  38.329  18.814   0.250
60458W        W28852  35.512  24.783   2.186
60459W        W28853  12.313  29.079   4.274
60460W        W28854   6.892   8.432  14.816
60461W        W28855  23.931   8.314  10.232
60462W        W28856  23.696   1.338   1.774
60463W        W28857  32.584  10.659   1.656
60464W        W28858  41.749  39.917  14.340
60465W        W28859  41.307   2.456  13.539
60466W        W28860  32.989  14.708   3.393
60467W        W28861   6.798  44.172  14.547
60468W        W28862  35.682  18.239   3.264
60469W        W28863  20.201  44.860  14.440
60470W        W28864   4.043  14.459   1.310
60471W        W28865  10.636  18.814  11.440
60472W        W28866  23.727   8.863   2.215
60473W        W28867  30.725  34.591   2.626
60474W        W28868  11.487  36.860   4.329
60475W        W28869  11.600  25.206  13.440
60476W        W28870  19.007  20.313   4.878
60477W        W28871  37.843   7.120   1.951
60478W        W28872  30.910  38.417   3.201
60479W        W28873  21.022  23.095   3.917
60480W        W28874  20.651  44.988   2.209
60481W        W28875  16.311   0.051  12.979
60482W        W28876  11.412   2.204  11.649
60483W        W28877  43.534  30.717   3.737
60484W        W28878  15.639  38.439  11.966
60485W        W28879   4.898  32.025   2.367
60486W        W28880  38.223  20.179  10.869
60487W        W28881   9.466  15.786  14.919
60488W        W28882  35.600  14.116  14.850
60489W        W28883  40.319  13.358   4.455
60490W        W28884  13.774  28.392  11.378
60491W        W28885  28.951  43.108  11.966
60492W        W28886  39.339   8.535   2.556
60493W        W28887  20.801  33.394   4.201
60494W        W28888  36.528  42.259  11.118
60495W        W28889   8.766  11.060   3.255
60496W        W28890  34.626   9.261  12.907
60497W        W28891  27.942  16.025   1.734
60498W        W28892  32.986  26.556  10.122
60499W        W28893   5.976  27.508  11.374
60500W        W28894  13.718  34.063   4.465
60501W        W28895  21.573  23.469   2.190
60502W        W28896  34.403  16.037  14.544
60503W        W28897  20.811  33.859  12.515
60504W        W28898  37.587  24.701  14.954
60505W        W28899  42.864  34.260   2.153
60506W        W28900  44.134  27.090  11.825
60507W        W28901  38.809  35.383   1.933
60508W        W28902  41.255  40.843   3.710
60509W        W28903  14.091  29.734   1.843
60510W        W28904  33.635  19.570  11.197
60511W        W28905  19.696  14.113   2.188
60512W        W28906  32.409  26.647  13.291
60513W        W28907  24.118  34.992   9.981
60514W        W28908  39.960  25.825  14.490
60515W        W28909  39.289  16.008  10.850
60516W        W28910  11.669   7.840   1.058
60517W        W28911  43.100  26.018  10.729
60518W        W28912   4.385  31.857  11.963
60519W        W28913   2.912   3.282  12.031
60520W        W28914  23.211  16.708   2.866
60521W        W28915  31.114  28.412  13.865
60522W        W28916  25.522  22.766   1.797
60523W        W28917  12.622  13.500  12.101
60524W        W28918   5.414  10.590  14.533
60525W        W28919  11.647  33.394   4.111
60526W        W28920   2.125  27.308   2.676
60527W        W28921  29.027  28.159  14.412
60528W        W28922  24.190  17.087   1.927
60529W        W28923  28.188  13.499   3.412
60530W        W28924  27.452  19.039   3.097
60531W        W28925  13.114  19.805   4.698
60532W        W28926   5.370  14.720   1.821
60533W        W28927  13.725  37.014  10.800
60534W        W28928  27.655  32.049   0.832
60535W        W28929  17.701  16.357  10.125
60536W        W28930  23.222  42.653   1.577
60537W        W28931  32.468  41.698   1.031
60538W        W28932  26.669  10.268  14.329
60539W        W28933  21.086  32.106   4.082
60540W        W28934  12.780   9.122   0.468
60541W        W28935  43.475  23.929   2.622
60542W        W28936  16.227  18.528   2.190
60543W        W28937  23.766   3.808  11.084
60544W        W28938  11.127   3.673  12.319
60545W        W28939  24.691   8.830  13.632
60546W        W28940  34.109   3.891  14.032
60547W        W28941  27.959  26.663   4.186
60548W        W28942  41.361  26.648  12.035
60549W        W28943   8.368  43.250  14.384
60550W        W28944  11.667  21.234   3.737
60551W        W28945  24.619  18.098   4.740
60552W        W28946   7.158  21.430   3.369
60553W        W28947  29.021  23.620  11.409
60554W        W28948   1.210  13.869   0.666
60555W        W28949  40.598  32.406   1.695
60556W        W28950  42.200  35.425   2.856
60557W        W28951  34.915  43.349   1.346
60558W        W28952  44.245   5.944   1.610
60559W        W28953  24.609  11.277   3.386
60560W        W28954  39.939   2.350   0.178
60561W        W28955  26.977   3.873   4.574
60562W        W28956   5.019  12.818   0.511
60563W        W28957  25.042  17.810   0.831
60564W        W28958  15.548  24.368  13.004
60565W        W28959  27.699  34.679   0.340
60566W        W28960   3.201   6.456   0.229
60567W        W28961  21.717  22.691  13.525
60568W        W28962  10.461  24.194   0.860
60569W        W28963  31.465   0.773   4.744
60570W        W28964   2.791   1.447   2.050
60571W        W28965  37.275  18.374   4.037
60572W        W28966  37.888   4.175   4.325
60573W        W28967   8.124  28.513   0.495
60574W        W28968  40.753  29.598   0.883
60575W        W28969  26.557  42.030  12.913
60576W        W28970   8.363  23.131   1.873
60577W        W28971  11.219  22.154  11.557
60578W        W28972  24.495  40.256   3.345
60579W        W28973  26.959   1.202   2.881
60580W        W28974   0.047  38.502  10.254
60581W        W28975  35.788  13.397  12.529
60582W        W28976  18.304  29.735   4.792
60583W        W28977  17.097   1.899  14.067
60584W        W28978  13.507  40.574  10.847
60585W        W28979  22.128  37.243  13.325
60586W        W28980  37.318  37.783   4.090
60587W        W28981  34.106  41.289   1.850
60588W        W28982  23.739   8.443  13.518
60589W        W28983  11.928   8.151  12.075
60590W        W28984  39.130  20.124   3.858
60591W        W28985  23.730   1.385   0.811
60592W        W28986  37.901  35.921  12.918
60593W        W28987  15.780   3.437   2.200
60594W        W28988   4.621  25.885   1.599
60595W        W28989  23.169  24.163  14.528
60596W        W28990  19.292  31.252   4.630
60597W        W28991  30.490  35.031   2.118
60598W        W28992  42.731   6.901   0.308
60599W        W28993  33.936  21.048   4.547
60600W        W28994  41.750   6.077  11.208
60601W        W28995  36.405  32.913  11.461
60602W        W28996  31.692   9.209   4.584
60603W        W28997   1.249   7.201   2.486
60604W        W28998  41.099   1.822  12.391
60605W        W28999  20.298  23.690  14.355
60606W        W29000  15.760   0.306  13.499
60607W        W29001   6.836  19.904  13.923
60608W        W29002  35.360  23.559  13.512
60609W        W29003  28.218  36.543  14.087
60610W        W29004  27.074  32.872  12.383
60611W        W29005  29.484  42.326   1.887
60612W        W29006  32.412  23.664  13.295
60613W        W29007  33.893   2.971   3.240
60614W        W29008  40.899  44.368   0.020
60615W        W29009  15.574  17.273  13.151
60616W        W29010  41.037   5.429   1.733
60617W        W29011  13.616  16.075  14.423
60618W        W29012  43.729   7.687   4.164
60619W        W29013  34.057  10.733   1.224
60620W        W29014  32.076  34.668  13.968
60621W        W29015  34.680  20.240   2.194
60622W        W29016   2.916  23.299  13.547
60623W        W29017  31.952  21.628   0.518
60624W        W29018   5.155  10.104  12.605
60625W        W29019  14.114  12.046   2.466
60626W        W29020   4.943  12.959  11.216
60627W        W29021  43.490  14.153  11.167
60628W        W29022   4.706  40.391  12.967
60629W        W29023  36.657   2.953   0.354
60630W        W29024   4.784  11.082  10.595
60631W        W29025  18.392   0.318  11.888
60632W        W29026  35.741  43.814   2.480
60633W        W29027   1.298  37.938   4.557
60634W        W29028  43.053  19.365   1.266
60635W        W29029  10.393   7.780   4.119
60636W        W29030  27.201  14.757   1.228
60637W        W29031  37.939  12.174  14.821
60638W        W29032   0.053  34.963  12.528
60639W        W29033  19.541  25.545  10.295
60640W        W29034  21.454  33.820  11.878
60641W        W29035  16.429  37.217  14.420
60642W        W29036   8.717  26.057   3.797
60643W        W29037  24.250   8.163   1.257
60644W        W29038  27.965  15.760  14.872
60645W        W29039  30.948  23.282   4.194
60646W        W29040  17.269  32.221   0.379
60647W        W29041  44.461  13.658  13.498
60648W        W29042  26.696   9.433   2.614
60649W        W29043  26.005   7.127  14.123
60650W        W29044  13.471  14.076   5.278
60651W        W29045   5.948  25.075   4.116
60652W        W29046   8.830   0.457  13.925
60653W        W29047  44.309  35.636   4.611
60654W        W29048  25.176  39.489   3.566
60655W        W29049  29.554  23.185  12.512
60656W        W29050  41.704  30.701   2.719
60657W        W29051  13.625  17.634   0.567
60658W        W29052  25.011  27.363  10.395
60659W        W29053  32.408  29.514  11.919
60660W        W29054  28.409  20.370   0.546
60661W        W29055  30.692  29.317  11.171
60662W        W29056  29.470   1.411  12.112
60663W        W29057  20.783  10.660   3.944
60664W        W29058  43.059  43.085  13.592
60665W        W29059  42.143   6.679  13.570
60666W        W29060  39.310   3.927   4.245
60667W        W29061  36.564  15.334  14.311
60668W        W29062  38.570   7.880  13.859
60669W        W29063  39.061  13.358  10.656
60670W        W29064   5.329  35.125  13.574
60671W        W29065  33.828  36.095   3.180
60672W        W29066  38.251  19.820  14.964
60673W        W29067   6.955  20.011  12.240
60674W        W29068  22.694  27.202  14.821
60675W        W29069  18.933  36.802  11.785
60676W        W29070  10.405  20.291   4.594
60677W        W29071   6.454   1.976  14.687
60678W        W29072  40.459  44.334   0.783
60679W        W29073  16.691   4.346  10.197
60680W        W29074  39.349  12.414   1.206
60681W        W29075   5.114  35.969   3.630
60682W        W29076  11.168  12.890  11.102
60683W        W29077  20.459   5.731   2.604
60684W        W29078  18.408  38.219   1.198
60685W        W29079  19.271  19.445  11.698
60686W        W29080   7.871  21.032  13.997
60687W        W29081   9.278  37.196  13.332
60688W        W29082  39.587   1.582   1.977
60689W        W29083  24.482   7.752   3.368
60690W        W29084  28.849   0.709   3.210
60691W        W29085   9.347  26.594  10.229
60692W        W29086   8.150  21.274   2.822
60693W        W29087  21.530  17.518  12.027
60694W        W29088   9.720  41.265  12.852
60695W        W29089  20.448  17.122   1.306
60696W        W29090  34.489  26.993   1.204
60697W        W29091  24.639  25.069   1.632
60698W        W29092  24.122  28.143  14.988
60699W        W29093   3.571  17.826   3.701
60700W        W29094  31.126  29.942   0.755
60701W        W29095  15.348   7.448   5.053
60702W        W29096  37.912   6.448  12.493
60703W        W29097  18.205  34.586   1.423
60704W        W29098  19.604  39.253  10.196
60705W        W29099  31.477  44.813   4.668
60706W        W29100  11.288   9.289   1.963
60707W        W29101  15.484   3.375   1.770
60708W        W29102   9.214   8.147  13.507
60709W        W29103   7.132  15.568  11.219
60710W        W29104   1.781  33.193  12.228
60711W        W29105  30.413  23.971   4.293
60712W        W29106  21.454  42.582  13.083
60713W        W29107  20.085  34.841   2.673
60714W        W29108   0.888   0.334   4.717
60715W        W29109  31.077  38.589  13.567
60716W        W29110  16.972   2.304   1.807
60717W        W29111  38.859  39.464  13.461
60718W        W29112   0.719  26.544   0.869
60719W        W29113   7.697  33.518   1.279
60720W        W29114  14.007  14.080  12.049
60721W        W29115   9.553  31.727   4.198
60722W        W29116  20.003  15.787   4.967
60723W        W29117   8.449  31.792   1.820
60724W        W29118   2.939  18.765   4.099
60725W        W29119   8.561  22.686   2.679
60726W        W29120  12.779  17.062   2.799
60727W        W29121   0.960  26.238  10.606
60728W        W29122  34.389  40.390  10.594
60729W        W29123  34.806  16.678  12.213
60730W        W29124  23.727  37.658  10.146
60731W        W29125  16.614  26.981  12.844
60732W        W29126  29.598  39.299  12.490
60733W        W29127  41.590  31.587   3.833
60734W        W29128  21.042  32.478   4.717
60735W        W29129  29.088  16.073  14.365
60736W        W29130  36.272  30.235  12.632
60737W        W29131  31.729  15.549  11.213
60738W        W29132  40.776  38.878  12.998
60739W        W29133  41.928  16.569   4.580
60740W        W29134  21.158  27.717   0.778
60741W        W29135  28.722  30.492   2.236
60742W        W29136  12.372  40.480   4.345
60743W        W29137   6.929  25.716   2.437
60744W        W29138  28.346  22.549   1.780
60745W        W29139  29.465   0.916  10.744
60746W        W29140  13.734  11.173  11.377
60747W        W29141   0.841  10.324  12.003
60748W        W29142  23.379   9.501  11.051
60749W        W29143  12.323  31.624  10.763
60750W        W29144  34.199  22.677  13.389
60751W        W29145   1.297  10.563  11.984
60752W        W29146  27.060  27.593  14.977
60753W        W29147  20.474  12.898  14.775
60754W        W29148   9.357  40.273  13.031
60755W        W29149  41.264  13.962  11.202
60756W        W29150  10.199  16.255   3.444
60757W        W29151  33.556  29.175   0.742
60758W        W29152   8.743  33.532   5.006
60759W        W29153  44.853  28.030  12.856
60760W        W29154  32.353  14.761  10.979
60761W        W29155  23.987  42.883   3.520
60762W        W29156  41.501  15.177   2.330
60763W        W29157  38.481   2.988   5.083
60764W        W29158  43.756  11.277  12.590
60765W        W29159  41.557  44.827  11.641
60766W        W29160   9.633   1.691  14.851
60767W        W29161  20.264  20.291  11.017
60768W        W29162  28.075  23.186   3.177
60769W        W29163  41.052  43.384   0.369
60770W        W29164  17.043  17.126   0.269
60771W        W29165  41.796  11.785   0.541
60772W        W29166  19.639  32.275  12.089
60773W        W29167  39.230  43.893   4.782
60774W        W29168   1.952  32.542   2.398
60775W        W29169  36.972  15.615   5.109
60776W        W29170  13.654  23.042  13.348
60777W        W29171  39.817  43.450  10.761
60778W        W29172  25.233   9.249   2.763
60779W        W29173  41.552  37.650  14.817
60780W        W29174  21.561  44.548  11.433
60781W        W29175  18.140   2.162  11.282
60782W        W29176  31.179  37.314  14.312
60783W        W29177  21.966  36.278  12.405
60784W        W29178  35.914  30.966  14.874
60785W        W29179  22.539  24.780   0.960
60786W        W29180   0.855  15.047   2.420
60787W        W29181  25.718  15.030  14.279
60788W        W29182  19.314  18.136   2.144
60789W        W29183   8.908  21.734   0.974
60790W        W29184  30.055  27.715  13.025
60791W        W29185   9.426  32.581   4.486
60792W        W29186   6.452  41.302  11.739
60793W        W29187   8.230  19.271   2.613
60794W        W29188  10.155  13.953  10.662
60795W        W29189  29.101  35.430  10.732
60796W        W29190  18.697   1.850   4.573
60797W        W29191  29.249   2.470  14.374
60798W        W29192  11.460  15.909  14.443
60799W        W29193  13.392  31.074   2.157
60800W        W29194  12.107   0.167  14.707
60801W        W29195  41.553  27.868   0.346
60802W        W29196   0.461   0.263   3.876
60803W        W29197  21.999  21.017  14.008
60804W        W29198   0.483  37.033  14.169
60805W        W29199  10.449  41.031  12.168
60806W        W29200  37.228  16.060   0.293
60807W        W29201  12.178  24.808  12.476
60808W        W29202   5.800   0.028   0.459
60809W        W29203  39.041  42.064   1.191
60810W        W29204   1.800  31.041   0.301
60811W        W29205  12.298  42.815  11.145
60812W        W29206  44.321   2.762   4.308
60813W        W29207  37.769   0.513   1.301
60814W        W29208  21.297   0.391   4.069
60815W        W29209  32.720   6.371   0.040
60816W        W29210  38.017  36.805  11.975
60817W        W29211   8.925  22.056   0.570
60818W        W29212   7.881  10.517  12.895
60819W        W29213   9.144  42.214   3.451
60820W        W29214   4.639  32.361  11.195
60821W        W29215  25.516  42.587   3.224
60822W        W29216  28.001   7.028  10.358
60823W        W29217  15.823  16.891  10.178
60824W        W29218  43.632  35.697  11.681
60825W        W29219  14.678  14.421   4.234
60826W        W29220  26.037  19.773   5.074
60827W        W29221   0.444  17.333  12.466
60828W        W29222   0.396   5.325  13.894
60829W        W29223  43.393  44.205  12.477
60830W        W29224  27.922  42.910  14.577
60831W        W29225  17.646  39.409   1.124
60832W        W29226   7.166  39.145  11.582
60833W        W29227  12.625  43.406   1.607
60834W        W29228  16.116  19.837  10.302
60835W        W29229  25.377  27.467  11.807
60836W        W29230  39.274  15.057  11.684
60837W        W29231   2.678   4.737   4.766
60838W        W29232  39.964  39.279   3.669
60839W        W29233   1.448  44.322   0.625
60840W        W29234  23.170  44.825   1.724
60841W        W29235  29.125   0.449   1.236
60842W        W29236  31.220  14.654   2.628
60843W        W29237  20.451  44.119  12.437
60844W        W29238  30.919  24.107   0.471
60845W        W29239  35.244  30.840   2.749
60846W        W29240  12.722  44.500  13.377
60847W        W29241  35.849  10.137  12.330
60848W        W29242  37.056  15.111  11.177
60849W        W29243  38.855  39.501  12.656
60850W        W29244  22.586  24.445   1.355
60851W        W29245   6.717   6.104   5.499
60852W        W29246  32.615  15.075  13.973
60853W        W29247  39.406   0.779   3.226
60854W        W29248  24.965   4.537   3.315
60855W        W29249  37.053  35.065  10.698
60856W        W29250  18.136  42.777   4.477
60857W        W29251  24.436  22.682  13.518
60858W        W29252  15.063  17.501   2.724
60859W        W29253  19.277   3.592   4.936
60860W        W29254  32.021   6.147  12.665
60861W        W29255  35.162  31.122  12.445
60862W        W29256  13.044  22.011   4.497
60863W        W29257   1.925   4.694   0.157
60864W        W29258  32.152  33.836  14.258
60865W        W29259  15.685  17.369   4.645
60866W        W29260  34.694  12.824   2.666
60867W        W29261  16.082  41.052   2.619
60868W        W29262  41.650  43.128   3.238
60869W        W29263  25.335  26.974  11.958
60870W        W29264  10.986  23.084  13.387
60871W        W29265   7.511   6.200   5.073
60872W        W29266   9.700  29.534  10.934
60873W        W29267   0.211  32.427   0.902
60874W        W29268  39.061  23.192  12.915
60875W        W29269   0.610   1.729   1.149
60876W        W29270  42.193  15.369   1.795
60877W        W29271  29.044  14.728  14.775
60878W        W29272  29.014  24.130  12.050
60879W        W29273   3.038   5.281   3.408
60880W        W29274  36.067   9.028  14.069
60881W        W29275   0.921  33.842  13.477
60882W        W29276  35.003  24.711   0.825
60883W        W29277   7.105   7.651   3.099
60884W        W29278  22.853  44.505  13.747
60885W        W29279  41.252  20.957  10.997
60886W        W29280  40.267  16.867   3.410
60887W        W29281  20.170  18.533   3.136
60888W        W29282  19.099   2.492  13.389
60889W        W29283  16.081  18.242   5.446
60890W        W29284  43.012   2.836   3.569
60891W        W29285  26.947  30.889   0.379
60892W        W29286  13.336  23.952  14.119
60893W        W29287   5.693  22.210   2.252
60894W        W29288  31.599  38.346   1.518
60895W        W29289  12.376  29.411  13.749
60896W        W29290  17.699  24.248  12.592
60897W        W29291  17.285  24.262   3.269
60898W        W29292  19.676   5.351  13.634
60899W        W29293  17.242   4.735   3.714
60900W        W29294  40.000  36.445  11.864
60901W        W29295   2.019  30.773   4.579
60902W        W29296   6.256   4.357  13.068
60903W        W29297   3.118  37.081   2.585
60904W        W29298  26.601  26.468   2.257
60905W        W29299  41.461  20.298  14.796
60906W        W29300   6.479  23.880  13.151
60907W        W29301  10.420  30.499   0.903
60908W        W29302  35.157  31.593  12.210
60909W        W29303   7.942   6.181   2.337
60910W        W29304  34.089  24.407  14.069
60911W        W29305  37.969   3.119   3.187
60912W        W29306  36.053  30.393  14.044
60913W        W29307   0.944  39.150   4.033
60914W        W29308  23.922  40.512   1.216
60915W        W29309  29.109  37.044   4.174
60916W        W29310   5.369  11.207   4.969
60917W        W29311  15.026  26.045   1.212
60918W        W29312  44.948   1.323   1.036
60919W        W29313  22.035  18.339   0.400
60920W        W29314  38.232  14.827   3.731
60921W        W29315  38.570  40.374   1.845
60922W        W29316  10.350   2.249  13.251
60923W        W29317  21.429  21.600  12.120
60924W        W29318   3.280  22.545  12.602
60925W        W29319   5.931  44.948  11.613
60926W        W29320  30.802  36.938  14.342
60927W        W29321   5.309  25.611  12.129
60928W        W29322  36.038   8.208  10.461
60929W        W29323  25.064  17.275  13.203
60930W        W29324  11.174  28.076   2.227
60931W        W29325  24.396   2.931  11.070
60932W        W29326  16.052   5.008  12.873
60933W        W29327   1.016  15.084   3.838
60934W        W29328  38.880   4.284  13.104
60935W        W29329   7.192  24.969   1.919
60936W        W29330  37.176  44.315  11.109
60937W        W29331  28.420  43.439   3.666
60938W        W29332  42.771  36.137  12.363
60939W        W29333  11.794  13.106   0.345
60940W        W29334  12.370  30.577  13.164
60941W        W29335  10.320  25.073  12.626
60942W        W29336  42.589   1.719   0.365
60943W        W29337  41.581  34.464   0.736
60944W        W29338   9.410  42.597  13.462
60945W        W29339  26.002  43.992  12.423
60946W        W29340  10.669  29.538  13.983
60947W        W29341  31.507   0.995  11.248
60948W        W29342  36.664  44.494  11.063
60949W        W29343   4.310  40.273  11.038
60950W        W29344  32.153  11.316  11.629
60951W        W29345  42.587  34.384   5.268
60952W        W29346   8.312  43.026  11.032
60953W        W29347   6.839  15.377   4.255
60954W        W29348  34.017   5.975  14.172
60955W        W29349  32.918  36.907   3.833
60956W        W29350  28.584  35.610  11.547
60957W        W29351  32.302  34.093   0.396
60958W        W29352  42.078  29.724   3.573
60959W        W29353  18.315   8.472   3.746
60960W        W29354  43.624   1.413  14.027
60961W        W29355  11.433   3.335  13.875
60962W        W29356  25.182   6.202   0.833
60963W        W29357  34.965  10.275  14.058
60964W        W29358  32.442   8.266  12.054
60965W        W29359   6.435  36.051   1.819
60966W        W29360  31.524  31.808  10.696
60967W        W29361  25.886  32.044   3.904
60968W        W29362  35.366   2.026   4.631
60969W        W29363  22.516   5.981   1.340
60970W        W29364   8.594  18.183  13.919
60971W        W29365   1.885   9.625   0.859
60972W        W29366   1.380  28.741  11.355
60973W        W29367  29.000  34.499   1.870
60974W        W29368  23.473   1.325  12.280
60975W        W29369   6.892  27.008   2.742
60976W        W29370  37.994  35.558  10.682
60977W        W29371   9.669  30.239  12.536
60978W        W29372  10.853   4.702  10.744
60979W        W29373  21.694  23.220   1.761
60980W        W29374  10.922  10.199  11.514
60981W        W29375  44.284  44.058   3.268
60982W        W29376  18.989   1.414  12.619
60983W        W29377  39.696   9.583   3.557
60984W        W29378  38.019  28.256   1.621
60985W        W29379  21.875   0.129  14.284
60986W        W29380  30.244  38.556  10.835
60987W        W29381   2.937  15.777  13.005
60988W        W29382  24.871  25.653  10.515
60989W        W29383  23.722  29.190  11.574
60990W        W29384  37.884  40.925   5.001
60991W        W29385  35.996  24.827   2.737
60992W        W29386  17.650  23.514  12.167
60993W        W29387  40.606   0.708  14.854
60994W        W29388  40.310   5.122  11.136
60995W        W29389  43.864   2.219  12.513
60996W        W29390   3.672  42.308  12.442
60997W        W29391  15.267  44.276   0.889
60998W        W29392  17.062  38.350   3.746
60999W        W29393  25.188  34.995  14.090
61000W        W29394  23.104   0.162   0.122
61001W        W29395  17.447  43.373   3.342
61002W        W29396  36.056  35.346  12.858
61003W        W29397  36.522  19.925   2.714
61004W        W29398  12.690   3.413   4.472
61005W        W29399  20.957  20.361   3.594
61006W        W29400  23.512  40.878  14.080
61007W        W29401  39.572  17.827   1.425
61008W        W29402  36.691  24.512  13.879
61009W        W29403  27.452  36.141   1.250
61010W        W29404  43.150  12.064   2.851
61011W        W29405   4.234  14.298  14.290
61012W        W29406  24.861  20.968   1.842
61013W        W29407  23.878  44.916  10.674
61014W        W29408  26.911  22.439  13.409
61015W        W29409  35.827  14.535  12.915
61016W        W29410  44.174   9.165   1.848
61017W        W29411  30.610  21.831  13.580
61018W        W29412  44.398  10.644   2.858
61019W        W29413  15.808   7.318  11.908
61020W        W29414  25.210  30.701  13.922
61021W        W29415   2.421   2.960  14.794
61022W        W29416   5.515  34.575   1.405
61023W        W29417   4.310  17.666   4.423
61024W        W29418  21.045   6.328   0.187
61025W        W29419  16.519  44.467  14.780
61026W        W29420   7.660  41.455   2.757
61027W        W29421   7.811   9.533  12.290
61028W        W29422  38.681  40.871   0.068
61029W        W29423  44.486  40.729   3.643
61030W        W29424  24.195   8.540  11.976
61031W        W29425  21.478  24.202   3.370
61032W        W29426  19.428  39.477   3.956
61033W        W29427  15.528   4.726  11.096
61034W        W29428  24.073  17.170  12.986
61035W        W29429  18.840  13.446  12.368
61036W        W29430  14.709  15.153  12.354
61037W        W29431  10.833  24.995  12.889
61038W        W29432   0.330  17.587  14.350
61039W        W29433  11.912  19.909  14.034
61040W        W29434   1.015  31.583   1.239
61041W        W29435  17.509  25.157  14.566
61042W        W29436  24.120  21.191  14.843
61043W        W29437  27.746   8.414   3.190
61044W        W29438  29.215   3.169  11.053
61045W        W29439  12.218  12.754  13.080
61046W        W29440  39.966  21.659  11.222
61047W        W29441  43.219   0.710   3.905
61048W        W29442  21.618  43.547  12.853
61049W        W29443   4.613   6.735  14.087
61050W        W29444  22.936  15.736   3.135
61051W        W29445  13.503   2.295   3.099
61052W        W29446  39.341  37.010   3.867
61053W        W29447  13.371  20.604   0.366
61054W        W29448  12.062  43.446   2.864
61055W        W29449  20.168  33.921  11.520
61056W        W29450  35.793  17.579  14.690
61057W        W29451  23.655  40.613   3.649
61058W        W29452  34.939   2.639   0.741
61059W        W29453  10.868  23.906  11.883
61060W        W29454  44.796   9.743  10.562
61061W        W29455   9.338  34.454   3.913
61062W        W29456  27.151   9.572   4.403
61063W        W29457  24.005   6.812   4.669
61064W        W29458  23.062   7.738   0.597
61065W        W29459   5.932  42.034   1.934
61066W        W29460  31.369  15.536   1.318
61067W        W29461  37.278  44.779   4.629
61068W        W29462   8.819  43.991  12.230
61069W        W29463  22.136  32.084  14.938
61070W        W29464  27.682  22.477   1.238
61071W        W29465  42.326  31.441  14.322
61072W        W29466  29.156   8.792  13.609
61073W        W29467  22.286  12.545   0.278
61074W        W29468   9.456  21.532  12.006
61075W        W29469   2.024  20.367   3.204
61076W        W29470   9.189  43.492  11.476
61077W        W29471   6.315   5.810   4.353
61078W        W29472  28.305   8.945   3.244
61079W        W29473  34.696  31.661  11.975
61080W        W29474  19.687   8.885  13.002
61081W        W29475  11.935  17.185  14.841
61082W        W29476  37.092   3.334  12.448
61083W        W29477   7.376  22.155   2.814
61084W        W29478  20.730  24.290  10.692
61085W        W29479  36.379  42.891   9.900
61086W        W29480  23.563  37.816   2.997
61087W        W29481  12.317  29.130  12.428
61088W        W29482   7.735  38.020  12.952
61089W        W29483   2.229  20.703   0.137
61090W        W29484  11.786  17.872  11.072
61091W        W29485   3.413  32.620   0.714
61092W        W29486  44.466  14.160   2.362
61093W        W29487  12.804  19.763  12.149
61094W        W29488   3.319  31.263  11.139
61095W        W29489  30.851  24.685  11.492
61096W        W29490  10.036   0.766   2.691
61097W        W29491  11.494  10.081   2.792
61098W        W29492  25.123  17.650  14.254
61099W        W29493  11.589  39.005  11.443
61100W        W29494  13.562  25.126   2.775
61101W        W29495  42.015   7.353   2.723
61102W        W29496  10.694  28.702  10.992
61103W        W29497  33.581  35.487  13.946
61104W        W29498   8.978  13.406   3.214
61105W        W29499  20.819   8.584   1.789
61106W        W29500  14.717  10.440   3.139
61107W        W29501  21.691  11.386  12.500
61108W        W29502   3.825  16.042   2.431
61109W        W29503  16.048   9.287  14.418
61110W        W29504   5.756  11.239   0.416
61111W        W29505  31.661   2.872   3.737
61112W        W29506  31.938  41.806   1.000
61113W        W29507   8.026   4.121   0.654
61114W        W29508   6.325  22.187  13.269
61115W        W29509   9.222  29.610   3.763
61116W        W29510  36.651  26.565   1.446
61117W        W29511  19.609  43.992  11.839
61118W        W29512  35.998  28.452   0.990
61119W        W29513  34.971  27.079  14.281
61120W        W29514  39.465  19.625   4.753
61121W        W29515  22.157  28.874  13.907
61122W        W29516  11.359   1.397  14.609
61123W        W29517   0.038  22.146   3.427
61124W        W29518   0.168   9.237  13.404
61125W        W29519  15.605   7.301  14.387
61126W        W29520  19.696  25.583   5.485
61127W        W29521   4.136  16.339   0.551
61128W        W29522  29.684  26.081  11.839
61129W        W29523  28.647  17.620   4.529
61130W        W29524  12.091  16.210   0.362
61131W        W29525  26.476  32.032  12.476
61132W        W29526  36.890  41.909  11.247
61133W        W29527  29.879  21.427  10.879
61134W        W29528  40.650  21.732   3.828
61135W        W29529  21.170   6.242  13.451
61136W        W29530  23.720  14.639   1.752
61137W        W29531  10.413   3.046  12.916
61138W        W29532  27.999  32.901  10.701
61139W        W29533  37.119  15.078  12.220
61140W        W29534  28.441   1.372   2.759
61141W        W29535   1.297  38.386   0.269
61142W        W29536  16.676  44.467   4.705
61143W        W29537   1.923   6.886  12.643
61144W        W29538  40.865  10.067  12.871
61145W        W29539  15.369  37.908  13.283
61146W        W29540  10.067   3.753  12.362
61147W        W29541  12.825  34.935   0.678
61148W        W29542  41.571  22.700  13.302
61149W        W29543  39.583  30.925  14.294
61150W        W29544  33.577  27.751   3.602
61151W        W29545  29.161  41.710  13.559
61152W        W29546  24.167  34.266   3.120
61153W        W29547  38.828  12.430   4.013
61154W        W29548  44.789   5.079  10.672
61155W        W29549  27.520  31.342   2.355
61156W        W29550  28.145  22.195  12.203
61157W        W29551  24.597  39.976   1.050
61158W        W29552  17.609   0.358  12.446
61159W        W29553   7.908  30.584   9.866
61160W        W29554   3.669   6.351  11.059
61161W        W29555   3.698  11.789   9.947
61162W        W29556  43.893  23.686  13.384
61163W        W29557  18.550  41.020   0.527
61164W        W29558  10.163  14.346  13.927
61165W        W29559  43.323  30.660  12.563
61166W        W29560  23.112  30.722   0.383
61167W        W29561  11.639  44.459   4.479
61168W        W29562  41.456  25.551   2.876
61169W        W29563  30.029  26.681  14.881
61170W        W29564  24.107  28.850  12.043
61171W        W29565  41.967   5.815  10.493
61172W        W29566   8.216   2.251   1.248
61173W        W29567  24.246  41.340   0.733
61174W        W29568  43.291  44.410  11.991
61175W        W29569  34.385  26.744   3.574
61176W        W29570  40.381  15.401   2.724
61177W        W29571  20.264   8.222  10.733
61178W        W29572  40.846  17.633  12.013
61179W        W29573  28.467  18.670  12.528
61180W        W29574   7.638   4.418   1.875
61181W        W29575   8.601  29.260   2.806
61182W        W29576   9.304  37.023   4.103
61183W        W29577  10.590  26.510   2.943
61184W        W29578   4.788  26.934  13.082
61185W        W29579  30.325  37.942   0.028
61186W        W29580  38.423   7.848   1.805
61187W        W29581  11.136  19.008   3.585
61188W        W29582  40.468  38.122   1.939
61189W        W29583  38.475  32.622   3.806
61190W        W29584   0.280   2.934   4.582
61191W        W29585   6.362   7.793  11.066
61192W        W29586  10.681  20.232  12.903
61193W        W29587  16.261  16.349   0.487
61194W        W29588  29.480   2.227  12.900
61195W        W29589  29.124  16.362  11.601
61196W        W29590   9.616  40.802  11.157
61197W        W29591  26.748  32.845  14.411
61198W        W29592  23.855  29.451  10.732
61199W        W29593  29.028  16.992   0.323
61200W        W29594  24.240   3.462   4.646
61201W        W29595  40.056  12.368   4.631
61202W        W29596  38.338  15.192   1.646
61203W        W29597  37.864  30.773   4.947
61204W        W29598  11.393   4.485  12.073
61205W        W29599  15.804  11.046  12.436
61206W        W29600  30.672  42.748   3.733
61207W        W29601  18.844  15.715   2.899
61208W        W29602  41.994  19.979  11.109
61209W        W29603  37.524   0.895  14.056
61210W        W29604  38.705  44.029   0.930
61211W        W29605  22.585  38.455   4.617
61212W        W29606  19.235  34.550  14.941
61213W        W29607  36.093  32.932   4.373
61214W        W29608  38.353  12.228  13.506
61215W        W29609  19.537  36.017   2.353
61216W        W29610  18.104  35.669  10.640
61217W        W29611  27.956   2.333  10.429
61218W        W29612  14.268  41.498   0.479
61219W        W29613  20.320   4.300  13.852
61220W        W29614  36.582  19.964   1.837
61221W        W29615  18.714  41.722   4.336
61222W        W29616   1.796  22.718  12.797
61223W        W29617   5.281   5.668  13.567
61224W        W29618   1.833  27.554   0.176
61225W        W29619  12.293  15.589  12.572
61226W        W29620  30.567  35.485   2.957
61227W        W29621   5.886   1.230  14.298
61228W        W29622  43.561  27.153   1.514
61229W        W29623  42.439  29.521   4.797
61230W        W29624  27.493  39.499   1.193
61231W        W29625  31.464  41.176   5.116
61232W        W29626  15.247  44.662   1.975
61233W        W29627  35.023  10.331   3.249
61234W        W29628  20.195  37.870  13.577
61235W        W29629  13.856  22.318  10.820
61236W        W29630  40.262  26.478  10.471
61237W        W29631   8.842  43.871   3.342
61238W        W29632  11.789  43.329   4.591
61239W        W29633  44.781  17.234   4.938
61240W        W29634   2.194  24.552   4.090
61241W        W29635   0.023  16.333  11.579
61242W        W29636   3.024  23.684  14.941
61243W        W29637  44.895   6.385  14.469
61244W        W29638  21.009  26.491   2.271
61245W        W29639   9.807  29.981   3.704
61246W        W29640   8.351  10.788  11.612
61247W        W29641  42.752  17.334  12.999
61248W        W29642  20.837  36.569   3.344
61249W        W29643  37.931  12.845   0.141
61250W        W29644   7.752  14.187   4.570
61251W        W29645  21.153   7.227  10.422
61252W        W29646  11.184  20.311  10.628
61253W        W29647  35.437  22.622  14.802
61254W        W29648  34.403  25.437  13.290
61255W        W29649  21.673  21.023   2.893
61256W        W29650   9.286  22.445  10.761
61257W        W29651  39.210  27.332  12.473
61258W        W29652  31.043  13.722  10.633
61259W        W29653  13.621  19.885   4.065
61260W        W29654  18.742  11.227  13.611
61261W        W29655  21.891  37.228  11.723
61262W        W29656   8.672  11.484   4.191
61263W        W29657  39.430   8.207  14.286
61264W        W29658  31.442  29.747  13.523
61265W        W29659   3.449   1.396   1.436
61266W        W29660  36.069  25.559   2.310
61267W        W29661  28.911  16.841  10.734
61268W        W29662  20.787  13.221  12.472
61269W        W29663  39.913  27.741  13.847
61270W        W29664  12.634  27.712  13.420
61271W        W29665  19.452  19.122  13.419
61272W        W29666  30.576  24.750   3.252
61273W        W29667  35.949  22.413  11.064
61274W        W29668  14.829  34.214   4.750
61275W        W29669  26.224  40.363  13.990
61276W        W29670  42.617   2.205  14.534
61277W        W29671  21.969  42.835   4.692
61278W        W29672  21.317  29.677   4.643
61279W        W29673  27.500   7.623  11.564
61280W        W29674  21.111  17.610   1.129
61281W        W29675  14.861   9.330  10.939
61282W        W29676  40.278   1.409  12.158
61283W        W29677  18.461   4.379   3.682
61284W        W29678  40.015  41.775  12.956
61285W        W29679  25.859  23.092   2.302
61286W        W29680  23.968  29.814   1.458
61287W        W29681  35.932  22.499  14.902
61288W        W29682   0.509  16.350   1.734
61289W        W29683  22.262  41.421  12.677
61290W        W29684  28.204  32.796  13.409
61291W        W29685  31.198  34.988  14.413
61292W        W29686   9.744  15.660   0.353
61293W        W29687  18.283  32.178  12.594
61294W        W29688  19.735  24.931   4.523
61295W        W29689  31.904  29.476   0.648
61296W        W29690  15.869  35.484   3.131
61297W        W29691  34.499  26.468   5.088
61298W        W29692  35.467  18.297  12.882
61299W        W29693   7.890   5.486   1.357
61300W        W29694  18.044  43.517  11.918
61301W        W29695  24.533  15.611  13.894
61302W        W29696  25.471  22.471  11.064
61303W        W29697  40.257  39.457  14.790
61304W        W29698  21.089   6.156   0.675
61305W        W29699  10.364  33.208  10.943
61306W        W29700  37.925  14.980  12.677
61307W        W29701  18.191  35.103   4.589
61308W        W29702   1.995  23.297   3.269
61309W        W29703  34.030   4.679   1.577
61310W        W29704   6.201  33.479  12.656
61311W        W29705  18.648  31.451  11.722
61312W        W29706  14.659  10.147   3.567
61313W        W29707  35.215  17.398   0.722
61314W        W29708  21.697  16.307   0.795
61315W        W29709  39.759  34.357  10.672
61316W        W29710  16.321   8.676   0.437
61317W        W29711   2.687   2.974   0.279
61318W        W29712  20.589  35.130  11.938
61319W        W29713  34.958  27.677   2.954
61320W        W29714   6.699  44.325  12.483
61321W        W29715  43.328  41.581   2.168
61322W        W29716  43.466   7.705  14.311
61323W        W29717  31.357  26.953   1.026
61324W        W29718  29.069  26.815  14.104
61325W        W29719  24.500   1.385  11.046
61326W        W29720   2.017  33.405  12.937
61327W        W29721   0.197  38.776  13.339
61328W        W29722  41.395  34.552   3.021
61329W        W29723  20.208  10.245  10.489
61330W        W29724  20.820  11.641  12.354
61331W        W29725  14.020  30.225   1.572
61332W        W29726  37.212  11.895  11.126
61333W        W29727  23.740  36.345  14.751
61334W        W29728  21.001  39.857  13.096
61335W        W29729  12.393  30.331   4.593
61336W        W29730  34.074   3.656  12.143
61337W        W29731  21.913  36.502  11.144
61338W        W29732  20.679  11.227  12.603
61339W        W29733  19.129  22.672   3.640
61340W        W29734  38.926  21.579   4.577
61341W        W29735  16.289  38.038   4.320
61342W        W29736  37.297  13.241  11.010
61343W        W29737  32.140  19.558  12.017
61344W        W29738  24.534   4.262   1.458
61345W        W29739  14.605  15.171  14.235
61346W        W29740  21.604  10.214   2.842
61347W        W29741  14.134  24.707   4.588
61348W        W29742  16.143   9.308   1.765
61349W        W29743  30.200  16.717   1.450
61350W        W29744   0.364   0.378  11.160
61351W        W29745  21.107  36.960   2.644
61352W        W29746  11.807  20.132   1.033
61353W        W29747  25.310  33.303   2.561
61354W        W29748   4.689  41.499   0.744
61355W        W29749  39.745  10.432   3.471
61356W        W29750  19.520   2.890   1.318
61357W        W29751  38.841  42.854   2.408
61358W        W29752  11.265  36.066  13.147
61359W        W29753  41.251  33.955   3.149
61360W        W29754  19.114   3.902   4.157
61361W        W29755  20.915  40.959  13.509
61362W        W29756  31.592   5.249   3.234
61363W        W29757  22.733  19.361  14.049
61364W        W29758  12.266  32.668  12.065
61365W        W29759   2.296  39.565  13.612
61366W        W29760  10.131  43.950  13.857
61367W        W29761  28.534   3.982  12.200
61368W        W29762  23.751  15.635   3.572
61369W        W29763  34.742  26.593  13.145
61370W        W29764   7.589  42.492  11.542
61371W        W29765   4.265   3.671   2.370
61372W        W29766  44.385  34.809  10.910
61373W        W29767  36.573  16.679  13.172
61374W        W29768  18.135  10.765  14.999
61375W        W29769   1.509  24.619   2.352
61376W        W29770  23.113  36.131  11.765
61377W        W29771  43.463  42.501  14.315
61378W        W29772   6.374  21.809   0.973
61379W        W29773  12.822   0.171  10.925
61380W        W29774   0.228  23.727  12.665
61381W        W29775  43.756  15.208   1.629
61382W        W29776   6.395  42.519  11.010
61383W        W29777  13.856  12.935  12.233
61384W        W29778   5.201  16.899  11.406
61385W        W29779   4.028   7.709   3.826
61386W        W29780   2.923   8.586   3.165
61387W        W29781  39.931  43.942  14.469
61388W        W29782   8.740  12.497   4.132
61389W        W29783  12.088  33.699   4.909
61390W        W29784  17.025  19.538  13.598
61391W        W29785  26.162  10.404  12.623
61392W        W29786  38.918  41.223   0.362
61393W        W29787  41.444  11.111   0.769
61394W        W29788   8.873  29.641  11.085
61395W        W29789  17.712  15.881   0.334
61396W        W29790   0.876  37.579   1.233
61397W        W29791  34.589  35.367   0.342
61398W        W29792   4.963  35.363  10.715
61399W        W29793   3.940  37.829  12.917
61400W        W29794  39.828  34.195   0.468
61401W        W29795   1.273  34.659   0.802
61402W        W29796   3.896  11.571  12.009
61403W        W29797  44.811  40.785  10.665
61404W        W29798  20.897  26.881  14.505
61405W        W29799  17.144  22.488  11.152
61406W        W29800   0.565  34.593   0.390
61407W        W29801  25.044   6.175  12.312
61408W        W29802  38.391  16.644  14.885
61409W        W29803  23.895  26.596   3.251
61410W        W29804  44.202  43.252   3.687
61411W        W29805  36.503  43.742   1.344
61412W        W29806  32.620   0.651   2.385
61413W        W29807  27.969  11.125  13.933
61414W        W29808  14.242   0.728   2.834
61415W        W29809   3.504  30.059  12.011
61416W        W29810  36.890  25.224  11.192
61417W        W29811  16.457   8.536  13.865
61418W        W29812  41.269  26.450  13.887
61419W        W29813  10.723  26.220  14.282
61420W        W29814  20.980  18.009   4.066
61421W        W29815  27.203  44.029   1.805
61422W        W29816  37.573   5.594   0.433
61423W        W29817  20.134  32.169  14.873
61424W        W29818  22.220  42.296  13.593
61425W        W29819   4.867  44.395  14.909
61426W        W29820   1.896  21.245   0.679
61427W        W29821  17.348  37.971   0.363
61428W        W29822   3.679  19.660   1.423
61429W        W29823   9.184   4.154   2.305
61430W        W29824  34.259  39.463  14.502
61431W        W29825  36.051  37.382  11.209
61432W        W29826  37.068  39.356  11.879
61433W        W29827   3.450  17.274  12.487
61434W        W29828  43.017  32.978  11.557
61435W        W29829   7.142  26.942   3.205
61436W        W29830   2.288  20.607  10.508
61437W        W29831  15.081  30.119   2.368
61438W        W29832  13.316  38.513  14.413
61439W        W29833  35.762   8.668   1.034
61440W        W29834  37.235   8.216   3.712
61441W        W29835  25.233  13.196  10.764
61442W        W29836  37.835  32.481  14.687
61443W        W29837  37.602  14.845   2.835
61444W        W29838  22.706  10.129  10.225
61445W        W29839  29.808  40.264   1.222
61446W        W29840  21.103  10.502   0.362
61447W        W29841  31.529  39.384  12.077
61448W        W29842  15.658  33.586   4.958
61449W        W29843  22.636   0.306   0.770
61450W        W29844  17.212   4.269   5.015
61451W        W29845  10.646  12.433   4.497
61452W        W29846   6.425  32.025  14.944
61453W        W29847   6.595  25.860   1.494
61454W        W29848   6.620  23.220   0.894
61455W        W29849  26.236   6.645  13.980
61456W        W29850  29.026   3.400  11.480
61457W        W29851  29.988  37.666  13.379
61458W        W29852  36.560  39.930  11.584
61459W        W29853  31.903  29.793  13.296
61460W        W29854   2.198  24.945  10.351
61461W        W29855  31.194  29.545  13.927
61462W        W29856  33.199  18.390   2.398
61463W        W29857  24.596  13.235  14.437
61464W        W29858  13.276  43.803   4.111
61465W        W29859  16.020  12.607   2.700
61466W        W29860  38.469   9.668  12.568
61467W        W29861  14.749  14.667  11.165
61468W        W29862  20.223   7.076   4.030
61469W        W29863   2.001  12.446  14.887
61470W        W29864   7.037  30.336   2.190
61471W        W29865  13.130  42.432   3.054
61472W        W29866  35.125  10.604  13.673
61473W        W29867  25.734  10.006   0.857
61474W        W29868  15.683  35.607   1.293
61475W        W29869   5.435  13.994   1.329
61476W        W29870  23.543  19.664   0.408
61477W        W29871   6.751   0.726  14.490
61478W        W29872  40.515  16.100   3.123
61479W        W29873   4.935  41.903  11.346
61480W        W29874  11.185   9.463  11.127
61481W        W29875   3.898  26.912   1.634
61482W        W29876   2.741  13.400   4.292
61483W        W29877  12.304  20.207  13.818
61484W        W29878  11.804  29.545   4.486
61485W        W29879  42.590  30.465   2.405
61486W        W29880  21.409  22.043  10.626
61487W        W29881  20.567  27.225   1.894
61488W        W29882  36.358   3.201   4.652
61489W        W29883  23.420  18.552  11.209
61490W        W29884  26.266   5.472   2.293
61491W        W29885  15.087  43.952  14.542
61492W        W29886  38.371  23.636   0.877
61493W        W29887   1.546  19.688   3.553
61494W        W29888  29.463  40.743  11.575
61495W        W29889  14.623  40.102  14.467
61496W        W29890  11.506  39.564   3.315
61497W        W29891  27.111  37.501   4.363
61498W        W29892  22.278  44.428  14.936
61499W        W29893  40.807  32.044  13.398
61500W        W29894   6.780  26.865   4.536
61501W        W29895  31.686  36.945  11.555
61502W        W29896  38.324  26.739   2.110
61503W        W29897  19.933  44.632  11.182
61504W        W29898  32.453  21.006   4.133
61505W        W29899  44.468  38.421   4.554
61506W        W29900  12.613  20.035   4.611
61507W        W29901   8.132  15.796  11.019
61508W        W29902   3.446  26.024  13.414
61509W        W29903  23.734   5.844  11.709
61510W        W29904  38.561  19.759   5.058
61511W        W29905  35.160  42.125   2.914
61512W        W29906  27.879  36.967   1.429
61513W        W29907  30.021  38.753   1.655
61514W        W29908  26.093  35.326   2.440
61515W        W29909   4.348  18.014  12.451
61516W        W29910  26.129   4.726   1.700
61517W        W29911  38.594  39.939  12.573
61518W        W29912   3.707  37.996  11.597
61519W        W29913  27.067  23.035   1.895
61520W        W29914   2.335  13.601   1.701
61521W        W29915   8.116  40.889   2.186
61522W        W29916  38.950   5.972   0.407
61523W        W29917   9.119  38.913   3.289
61524W        W29918  40.800   8.863   0.367
61525W        W29919   4.098   5.022   2.231
61526W        W29920  38.741  43.532   0.872
61527W        W29921  42.282   7.306   2.258
61528W        W29922   5.806  36.806  10.589
61529W        W29923  41.447   8.914  11.951
61530W        W29924  22.556  11.409  13.374
61531W        W29925  40.019  43.438  14.506
61532W        W29926   4.845  20.416   3.393
61533W        W29927  18.152   7.341  11.138
61534W        W29928  12.673   6.154   9.942
61535W        W29929  23.003  15.567   0.069
61536W        W29930   3.230  34.351  14.734
61537W        W29931   3.127  11.097  12.583
61538W        W29932   4.990  31.613   4.239
61539W        W29933  37.047   1.980   3.694
61540W        W29934   8.108  14.090   1.365
61541W        W29935  44.882  12.067   2.073
61542W        W29936   3.095  36.200   1.144
61543W        W29937  18.317   3.128   4.986
61544W        W29938   9.918  29.773  14.911
61545W        W29939   7.978  14.880  11.475
61546W        W29940  43.515  31.406  13.106
61547W        W29941  38.322  36.789  12.669
61548W        W29942   1.861  28.187   4.195
61549W        W29943  35.125  24.989  13.477
61550W        W29944   4.704  26.274  14.306
61551W        W29945  17.763  22.979   2.242
61552W        W29946   5.948   2.716  10.565
61553W        W29947  11.224   4.644  12.570
61554W        W29948  22.649  32.104  13.322
61555W        W29949  14.115  18.203   3.640
61556W        W29950   6.134  12.717   3.205
61557W        W29951   7.393  36.851  11.165
61558W        W29952   2.159  38.876  11.563
61559W        W29953  31.109  22.683  13.582
61560W        W29954  17.125  36.529   1.333
61561W        W29955  37.807  17.158   3.415
61562W        W29956  17.802  40.921  13.803
61563W        W29957  27.591   5.265  11.565
61564W        W29958   5.225  11.421   3.862
61565W        W29959  18.366  30.972   3.688
61566W        W29960   1.199  35.261   2.069
61567W        W29961   7.863  23.022   2.022
61568W        W29962  25.607  16.590   0.744
61569W        W29963   5.186   0.720  14.928
61570W        W29964  14.141  20.100   1.900
61571W        W29965  31.466  29.241  12.052
61572W        W29966  24.750  28.516  12.038
61573W        W29967  23.763   7.967  13.350
61574W        W29968  25.899  38.976   3.161
61575W        W29969   2.632  18.634  11.081
61576W        W29970  32.814  17.465   3.054
61577W        W29971  27.447  43.010   1.668
61578W        W29972  19.326   1.251   3.780
61579W        W29973  17.498  12.032  14.954
61580W        W29974  17.223  44.349  10.561
61581W        W29975  28.010   7.908   4.410
61582W        W29976  32.967  33.642  13.093
61583W        W29977  31.123  40.525  14.367
61584W        W29978  17.514   1.652   3.309
61585W        W29979  16.264  16.117   4.095
61586W        W29980   1.399  11.773  14.766
61587W        W29981  35.547   1.929  12.450
61588W        W29982  38.937  23.027   3.214
61589W        W29983   0.431   3.426  12.036
61590W        W29984  24.154  35.747   5.223
61591W        W29985  15.380  34.447   3.709
61592W        W29986   0.683  24.054   4.150
61593W        W29987  32.203  14.234   1.869
61594W        W29988   0.612  12.200   3.621
61595W        W29989  19.041  22.041  13.101
61596W        W29990  38.192   3.646  13.817
61597W        W29991   0.302  21.517  14.993
61598W        W29992  30.576  28.014  11.916
61599W        W29993  32.017  20.034   1.762
61600W        W29994  28.448   4.745   3.321
61601W        W29995   0.121   7.961  11.374
61602W        W29996  25.071  10.944   4.102
61603W        W29997  15.167  27.531   4.235
61604W        W29998  18.069  43.453  13.286
61605W        W29999  18.344  13.114  13.806
61606W        W30000   7.189   1.341   9.510
61607W        W30001   2.716   1.480   5.008
61608W        W30002  32.887  44.952   3.728
61609W        W30003  38.002  13.360   4.870
61610W        W30004  28.260  40.655   2.855
61611W        W30005   5.516  11.633   2.585
61612W        W30006   6.822  26.980   0.516
61613W        W30007  42.050  44.261  14.833
61614W        W30008  22.001   9.286  13.481
61615W        W30009   1.934  25.212   0.712
61616W        W30010  42.841   8.763  12.453
61617W        W30011  36.235  27.270   3.039
61618W        W30012   0.170  43.743  10.876
61619W        W30013   9.350   8.763  10.806
61620W        W30014  22.464  28.393   2.925
61621W        W30015  28.026  10.093  14.029
61622W        W30016   9.322  17.858   0.989
61623W        W30017   2.269  32.328   1.923
61624W        W30018  22.546  16.498   3.726
61625W        W30019  26.732   0.860   3.233
61626W        W30020  15.769  31.596   3.482
61627W        W30021   0.412   6.507   0.839
61628W        W30022  13.301  35.448   4.165
61629W        W30023  32.035  17.259   3.157
61630W        W30024  11.367   2.236  13.086
61631W        W30025   6.695  12.825   1.923
61632W        W30026  13.542  14.584  14.222
61633W        W30027  24.547  16.312  10.739
61634W        W30028  40.895  14.876   3.707
61635W        W30029  37.767  12.135  13.510
61636W        W30030  12.325  38.330   2.903
61637W        W30031   4.747   9.817   0.867
61638W        W30032  38.718   0.214   3.074
61639W        W30033  39.877  18.626   1.544
61640W        W30034  30.439  31.863  13.341
61641W        W30035  15.490  39.749  10.234
61642W        W30036   5.747   7.846   1.182
61643W        W30037  19.639  27.546   3.498
61644W        W30038  43.858  33.950  10.638
61645W        W30039  27.694  19.504   1.737
61646W        W30040  29.712  25.963  10.709
61647W        W30041  22.480  28.216  12.043
61648W        W30042  16.308  19.727  11.622
61649W        W30043  10.127  25.107   3.720
61650W        W30044  27.559  18.333   0.831
61651W        W30045  19.945   1.366  12.837
61652W        W30046  28.916  33.121  12.921
61653W        W30047  19.995  39.422  11.540
61654W        W30048  16.771  32.165   1.062
61655W        W30049  27.526   9.702   2.318
61656W        W30050  39.361   9.302  12.534
61657W        W30051  22.002   6.421   3.648
61658W        W30052   3.096   8.747  12.015
61659W        W30053  14.693  19.161  12.317
61660W        W30054  42.266  21.746  13.048
61661W        W30055  37.272  13.887  13.554
61662W        W30056  31.443  19.135  12.092
61663W        W30057  10.607  17.571  13.284
61664W        W30058  24.999  16.341  10.456
61665W        W30059  41.968  31.468   3.075
61666W        W30060  22.539  25.629   3.131
61667W        W30061  19.661  29.457   1.892
61668W        W30062  10.508   4.911   4.186
61669W        W30063  21.781  35.634  11.241
61670W        W30064  41.837  21.841   2.305
61671W        W30065  26.896  20.857   1.242
61672W        W30066  10.727   8.461  13.303
61673W        W30067   0.850  19.480   2.478
61674W        W30068  18.538   8.745   2.165
61675W        W30069  39.875  29.936   3.340
61676W        W30070   6.578  22.650   5.026
61677W        W30071  26.848  32.013  10.551
61678W        W30072  38.726   0.275  10.749
61679W        W30073   2.711  35.402   2.306
61680W        W30074  23.301   7.419   2.256
61681W        W30075   9.733  14.760  14.869
61682W        W30076  33.225  38.361  14.243
61683W        W30077  19.645   3.413  10.765
61684W        W30078   5.714   1.243  11.585
61685W        W30079  21.298   1.711   4.226
61686W        W30080  33.750  18.149  10.498
61687W        W30081   1.599  36.422  14.558
61688W        W30082  33.391  24.389  13.280
61689W        W30083   9.739   3.765  12.983
61690W        W30084   0.947   9.748   2.354
61691W        W30085  41.847  29.858  12.126
61692W        W30086  11.312  43.242   4.390
61693W        W30087  36.622   3.094  13.958
61694W        W30088  44.452  28.130  12.172
61695W        W30089  43.282  41.936   4.481
61696W        W30090  36.671  16.255  11.565
61697W        W30091  21.787  23.538  13.285
61698W        W30092  36.511  15.252   4.679
61699W        W30093   6.703  43.400  13.464
61700W        W30094  42.620  25.153   4.270
61701W        W30095  10.386  33.242   5.168
61702W        W30096   3.447  26.115  10.930
61703W        W30097   1.334  31.229   3.305
61704W        W30098   1.302  31.231  12.590
61705W        W30099  11.834   4.771  12.945
61706W        W30100   5.253  40.414  11.936
61707W        W30101  19.051  43.909   0.189
61708W        W30102  44.864  20.208   1.583
61709W        W30103  17.436  33.727  10.304
61710W        W30104  17.305  37.325   4.591
61711W        W30105  30.020  31.366   1.017
61712W        W30106  38.179  27.242  14.531
61713W        W30107  25.455  28.140  13.526
61714W        W30108  28.479  22.907  10.922
61715W        W30109  24.003  34.829   1.816
61716W        W30110  27.927   5.264   3.605
61717W        W30111  29.652  26.149  13.807
61718W        W30112   9.424  37.635  13.585
61719W        W30113  13.783  26.760  14.077
61720W        W30114  24.495  16.225  14.098
61721W        W30115   3.631  26.092   4.823
61722W        W30116   5.686  36.601  13.913
61723W        W30117   2.087  19.621  13.544
61724W        W30118  24.819  32.010  11.571
61725W        W30119  16.561  42.541  12.042
61726W        W30120  21.023  44.903  11.957
61727W        W30121  43.270  31.769  14.066
61728W        W30122  18.601  21.959  13.881
61729W        W30123  21.703  39.060   4.360
61730W        W30124  26.128   4.932   0.728
61731W        W30125  15.766  26.978   4.556
61732W        W30126  27.729  40.403   0.782
61733W        W30127  42.846  25.265   4.740
61734W        W30128   1.515  12.267  13.438
61735W        W30129   6.641  22.122  11.548
61736W        W30130  42.405  10.644  13.406
61737W        W30131  18.289  40.193   1.327
61738W        W30132  13.298   3.512  10.017
61739W        W30133  14.042  26.642   3.504
61740W        W30134  36.174  40.910   1.274
61741W        W30135  43.046  37.385  14.047
61742W        W30136  34.115   1.445  12.316
61743W        W30137  30.934  41.918   1.827
61744W        W30138  18.728  23.100   4.762
61745W        W30139   5.297  21.337  13.020
61746W        W30140  39.456   1.051  11.272
61747W        W30141  39.107   8.477   4.131
61748W        W30142  12.795  25.094  11.096
61749W        W30143   5.420   0.613   1.806
61750W        W30144  38.363  31.381  12.020
61751W        W30145  30.593  12.217   4.955
61752W        W30146  42.158  43.010  13.306
61753W        W30147  13.790  43.774   4.418
61754W        W30148  16.350   8.655  14.349
61755W        W30149   5.223  11.302   2.290
61756W        W30150  34.896  11.997   4.686
61757W        W30151  43.083  39.982  14.805
61758W        W30152  36.355   5.832   3.626
61759W        W30153  11.798  44.441  11.603
61760W        W30154  23.441  16.612  13.335
61761W        W30155  16.947  37.151  14.457
61762W        W30156  21.381   0.952   4.655
61763W        W30157  38.780  23.202   4.071
61764W        W30158  44.808   2.948   0.067
61765W        W30159  19.572  26.974  11.641
61766W        W30160  10.734  19.083   1.446
61767W        W30161  37.850  29.408  13.923
61768W        W30162  39.789  21.489  12.197
61769W        W30163   7.815  37.677  11.099
61770W        W30164  23.704  18.024   4.324
61771W        W30165  35.587  35.041   4.453
61772W        W30166  10.620  30.021   0.776
61773W        W30167  35.925   6.657  11.123
61774W        W30168  29.397  43.951  13.566
61775W        W30169  11.110  41.993   2.788
61776W        W30170  11.621  25.400  14.023
61777W        W30171  34.603  28.450   1.464
61778W        W30172   9.855  29.543  11.646
61779W        W30173  37.849  26.447   0.246
61780W        W30174  13.774  10.622   2.772
61781W        W30175  27.288  39.417   4.593
61782W        W30176  38.336  27.016  12.365
61783W        W30177   8.771   2.863   1.623
61784W        W30178  22.534  13.584   1.825
61785W        W30179  11.662  30.653   4.465
61786W        W30180  24.555   4.338   0.410
61787W        W30181  40.344  13.619   0.853
61788W        W30182  17.524  29.848   3.275
61789W        W30183   8.478  33.011  12.702
61790W        W30184  24.715  12.172  13.981
61791W        W30185  19.168  24.275  14.916
61792W        W30186   7.368  18.059  12.363
61793W        W30187   0.824  34.325   4.164
61794W        W30188   5.883  43.637   1.434
61795W        W30189  40.052  33.152   0.360
61796W        W30190   8.376   3.590   4.952
61797W        W30191  29.123  19.096   2.547
61798W        W30192  26.624  10.769   2.455
61799W        W30193   5.048  20.751   3.060
61800W        W30194  15.132   3.235   2.683
61801W        W30195  35.488  29.295   2.958
61802W        W30196   7.198  32.887  11.972
61803W        W30197   7.195  20.823   2.556
61804W        W30198   2.015  33.090   2.841
61805W        W30199  16.581  40.269   3.744
61806W        W30200   6.426  41.297   1.314
61807W        W30201   0.520  24.348  14.248
61808W        W30202  28.360  42.843  14.336
61809W        W30203  10.403  28.002   2.742
61810W        W30204  24.102  29.474  14.479
61811W        W30205   1.320  41.782   0.422
61812W        W30206  42.654  26.790  11.096
61813W        W30207  21.066  23.206   0.765
61814W        W30208   6.952  11.711   3.552
61815W        W30209  10.994  34.080   0.681
61816W        W30210  32.209  30.217  13.995
61817W        W30211  34.067  39.929  14.309
61818W        W30212  28.442  43.462   0.942
61819W        W30213  35.624  27.583  11.629
61820W        W30214   2.277  26.535  14.712
61821W        W30215  20.482  40.441   1.997
61822W        W30216  21.119  43.980  10.758
61823W        W30217  43.863   4.878  13.434
61824W        W30218  41.931  37.569  11.105
61825W        W30219  33.012  24.073   0.327
61826W        W30220  31.386   6.619   3.635
61827W        W30221  42.867  40.982  11.097
61828W        W30222  16.554   7.672  12.554
61829W        W30223  41.247   8.379   1.000
61830W        W30224   6.412  23.211   5.382
61831W        W30225   7.419  39.601   4.746
61832W        W30226  20.679  33.407  10.642
61833W        W30227  33.701   4.881  10.623
61834W        W30228  42.471  15.217  12.460
61835W        W30229   9.301  39.882   1.320
61836W        W30230  38.585  25.945  14.899
61837W        W30231  29.442  14.674  13.487
61838W        W30232  28.558  20.862   0.343
61839W        W30233  26.112  27.543  12.145
61840W        W30234  33.978  21.775  13.907
61841W        W30235   4.273  43.068  11.888
61842W        W30236   3.224   9.302   3.117
61843W        W30237  11.646  36.658  14.417
61844W        W30238   5.963  24.140  12.105
61845W        W30239  42.815  14.367  14.920
61846W        W30240  36.647  22.092   4.361
61847W        W30241  34.051   7.465   1.767
61848W        W30242  40.261  14.981  11.116
61849W        W30243  27.160  35.000   3.808
61850W        W30244   3.380  34.942   1.242
61851W        W30245  42.409  15.092   2.262
61852W        W30246   0.703  10.318  10.206
61853W        W30247  41.864   8.201   2.288
61854W        W30248  11.066   4.931  11.179
61855W        W30249  24.633  38.696   1.325
61856W        W30250  20.223  16.869   4.867
61857W        W30251  30.023  39.183   1.955
61858W        W30252  34.915  12.084   3.794
61859W        W30253   0.406   1.657   2.481
61860W        W30254  11.568  29.026  14.694
61861W        W30255  24.572  27.497  10.708
61862W        W30256  34.092   2.811   2.353
61863W        W30257   0.803  38.972  12.529
61864W        W30258   9.478   1.732   3.572
61865W        W30259  28.685  42.618   2.184
61866W        W30260  42.061   3.387  10.241
61867W        W30261  40.589   8.355  10.763
61868W        W30262  30.017   4.836   3.725
61869W        W30263  34.033   6.703  12.616
61870W        W30264  27.976  13.789   4.321
61871W        W30265  24.479   6.672  14.507
61872W        W30266   9.129  33.192   0.354
61873W        W30267  18.781  35.975   3.695
61874W        W30268  12.846  30.037  10.909
61875W        W30269  22.579   3.386  12.877
61876W        W30270  17.749  25.862  12.281
61877W        W30271  43.863   1.665  13.053
61878W        W30272  27.166  21.253   1.412
61879W        W30273   3.752  18.144  12.183
61880W        W30274  25.612  24.752   0.288
61881W        W30275  44.261  10.010  13.782
61882W        W30276  24.445  41.955  14.854
61883W        W30277  19.634  10.448  11.606
61884W        W30278  40.934  17.948   1.946
61885W        W30279   0.510  26.104   3.174
61886W        W30280   3.435  27.432  11.758
61887W        W30281  26.240  23.820  12.476
61888W        W30282  16.283  33.497   4.191
61889W        W30283   0.512   3.205  14.348
61890W        W30284  16.095  35.423   0.708
61891W        W30285  39.912  38.292  13.379
61892W        W30286  35.375  37.507  14.254
61893W        W30287  21.732  15.159  14.430
61894W        W30288  31.423   8.280  13.461
61895W        W30289   3.615  28.434   4.572
61896W        W30290  35.022  40.002  11.036
61897W        W30291  19.169  25.031   1.400
61898W        W30292  30.049   8.228  10.939
61899W        W30293  16.639  20.701   2.187
61900W        W30294  37.072  17.545   3.731
61901W        W30295  30.381  15.765  13.973
61902W        W30296  23.572  30.147   0.660
61903W        W30297  30.886  16.075   3.522
61904W        W30298  24.785   2.012  14.491
61905W        W30299  26.503  30.218  12.267
61906W        W30300  39.531  44.397  14.987
61907W        W30301   8.636  11.430  11.097
61908W        W30302  20.069  25.981   3.649
61909W        W30303   8.763   6.993   1.163
61910W        W30304  44.316   4.442   4.038
61911W        W30305  10.107  22.681   1.769
61912W        W30306  19.948   0.477  13.304
61913W        W30307  38.968  17.832   3.255
61914W        W30308  18.678   1.435  10.994
61915W        W30309  19.054   5.433  11.485
61916W        W30310  28.458   3.793   1.397
61917W        W30311   2.580  41.585   4.427
61918W        W30312  32.962  19.599  11.636
61919W        W30313  18.315  14.554   0.383
61920W        W30314  37.057  24.475   1.297
61921W        W30315  18.212  41.818  14.548
61922W        W30316  37.881  37.597  10.838
61923W        W30317  30.503  21.572   0.038
61924W        W30318  14.592  24.193   2.403
61925W        W30319   1.823   0.045  11.899
61926W        W30320  19.853   7.883   3.301
61927W        W30321   0.660  44.447   0.056
61928W        W30322  18.518  17.058   2.730
61929W        W30323  29.574  30.154   4.188
61930W        W30324  26.810  42.399  11.591
61931W        W30325   0.852  12.320   2.215
61932W        W30326   2.695   7.232  10.659
61933W        W30327  10.900  21.662   1.042
61934W        W30328  38.376   5.212  11.002
61935W        W30329  24.079  44.645  12.542
61936W        W30330   6.783  22.152   5.121
61937W        W30331  34.053  40.377  14.001
61938W        W30332  37.387  16.309   4.718
61939W        W30333  23.997   1.306  14.356
61940W        W30334   2.226  21.222   3.120
61941W        W30335  31.876  16.084  11.073
61942W        W30336  29.928  26.589  10.679
61943W        W30337  14.617  30.527  11.250
61944W        W30338  17.228  27.080   0.016
61945W        W30339  26.977  35.477  12.489
61946W        W30340  44.552  33.460  10.994
61947W        W30341   7.231  29.641  12.934
61948W        W30342  20.253  22.198  13.418
61949W        W30343   5.653  28.921   0.268
61950W        W30344  19.018   7.354  13.990
61951W        W30345  34.887   7.400  13.485
61952W        W30346   2.168  29.928  12.468
61953W        W30347  38.967  23.467   4.825
61954W        W30348  44.172  16.624  11.621
61955W        W30349  39.322  38.227  12.648
61956W        W30350  14.350  38.125   2.117
61957W        W30351   0.356  43.747   3.122
61958W        W30352  32.132  32.128   0.013
61959W        W30353  37.067   8.190  12.782
61960W        W30354   2.753  33.570  14.468
61961W        W30355  12.849  27.018   1.329
61962W        W30356  34.914  28.644  11.833
61963W        W30357   7.787  43.495   1.459
61964W        W30358  29.555   1.890  10.325
61965W        W30359  13.401  38.824  13.829
61966W        W30360  29.709  31.672  14.425
61967W        W30361  26.523  10.981  11.600
61968W        W30362  36.193  27.132  14.087
61969W        W30363   9.190  44.803  13.550
61970W        W30364  37.048   3.757   0.052
61971W        W30365   8.692  33.628   2.160
61972W        W30366  37.313   9.708  11.404
61973W        W30367  31.084  40.694   0.403
61974W        W30368  24.349  19.482  10.470
61975W        W30369  39.978  13.178  12.928
61976W        W30370  14.094  38.847   0.288
61977W        W30371  21.582  10.757   5.020
61978W        W30372   9.993  13.192   0.720
61979W        W30373  10.771  44.450   4.399
61980W        W30374  28.418  29.421   2.130
61981W        W30375  26.243  22.435  13.953
61982W        W30376  29.537   7.616  10.636
61983W        W30377   5.356  18.625   1.392
61984W        W30378   8.328   9.419   3.697
61985W        W30379  11.858   6.670  13.499
61986W        W30380  27.841  35.390  11.092
61987W        W30381  12.882  10.139  10.645
61988W        W30382   3.117  44.987  13.811
61989W        W30383  38.814  18.767   3.302
61990W        W30384  39.790   2.923  12.520
61991W        W30385  21.006  21.455   1.264
61992W        W30386  37.516   2.482  13.123
61993W        W30387  39.092  25.016   2.740
61994W        W30388   7.285  40.761   0.381
61995W        W30389  44.213  34.851   2.357
61996W        W30390  21.506  14.778  13.826
61997W        W30391   4.958   3.224   4.524
61998W        W30392   7.967  39.769   1.811
61999W        W30393   3.344  29.682   4.421
62000W        W30394  43.891  31.445   1.350
62001W        W30395  20.115  24.833  13.793
62002W        W30396  34.004  33.978  11.783
62003W        W30397  33.269  16.673  12.434
62004W        W30398  40.896  38.225  11.663
62005W        W30399  36.309  36.386  12.117
62006W        W30400  13.318  11.994  10.639
62007W        W30401  22.767   9.342   0.767
62008W        W30402  13.230   8.657   1.853
62009W        W30403  11.911  32.804   2.742
62010W        W30404  18.750   1.437  11.985
62011W        W30405   8.142  32.436  11.590
62012W        W30406   3.124  24.488  11.265
62013W        W30407  42.226  18.320  11.023
62014W        W30408  41.931  39.800  11.423
62015W        W30409  27.591  17.833  13.465
62016W        W30410  22.493  11.661  13.848
62017W        W30411   7.308  16.060   4.728
62018W        W30412  24.853  33.186   2.371
62019W        W30413  11.282  35.871  14.532
62020W        W30414  26.944  18.676  11.613
62021W        W30415   1.721  41.566   3.592
62022W        W30416  17.279   7.027  12.498
62023W        W30417  35.426  12.242  12.861
62024W        W30418  17.208  33.135  14.974
62025W        W30419  23.202  17.373   1.778
62026W        W30420   6.307  15.089  12.522
62027W        W30421   3.233   0.589  11.118
62028W        W30422  38.581  32.362  12.009
62029W        W30423  24.778  11.015   0.858
62030W        W30424   1.509  26.956   0.880
62031W        W30425  40.567  21.402   1.115
62032W        W30426  22.090  30.568  13.987
62033W        W30427   0.771  27.158   4.819
62034W        W30428  39.909  13.499  12.520
62035W        W30429  23.244   9.658  13.861
62036W        W30430  30.129  19.172  11.107
62037W        W30431   8.806  29.739   2.831
62038W        W30432  24.391   5.813  13.030
62039W        W30433  33.513  21.284  10.745
62040W        W30434   9.720  37.650  11.734
62041W        W30435  31.263  16.195  13.812
62042W        W30436   3.286   6.661   1.637
62043W        W30437  41.917  22.032   1.825
62044W        W30438   7.774  33.523  12.172
62045W        W30439  40.038  15.167   2.416
62046W        W30440  13.772   7.044   3.282
62047W        W30441  38.466   8.783   0.240
62048W        W30442  18.583   6.525   4.602
62049W        W30443  14.883   8.389   4.065
62050W        W30444  34.632   0.822  13.577
62051W        W30445  15.364   8.975   4.748
62052W        W30446  40.467  29.430  10.281
62053W        W30447   1.847  14.946   3.930
62054W        W30448  10.839  28.447   2.054
62055W        W30449  12.875  12.458   1.573
62056W        W30450  26.453  22.490   1.375
62057W        W30451   6.418  37.175  12.365
62058W        W30452  26.589  44.213  14.413
62059W        W30453  40.311  34.332   0.336
62060W        W30454   2.488  26.722  11.451
62061W        W30455  20.772  31.104   1.887
62062W        W30456   6.786  15.761   4.580
62063W        W30457  32.487  16.530   4.696
62064W        W30458  31.133  13.194   4.844
62065W        W30459   5.357  30.639  11.568
62066W        W30460  41.070  27.711  10.812
62067W        W30461  15.204   4.150  10.641
62068W        W30462   5.204  27.134  11.677
62069W        W30463  28.693  11.636  11.598
62070W        W30464   9.023  18.634  12.478
62071W        W30465  39.480   1.665  13.573
62072W        W30466  27.015  43.078   3.843
62073W        W30467  31.985   0.833  11.399
62074W        W30468  31.627  40.017   4.119
62075W        W30469  43.824  33.753   3.252
62076W        W30470  27.409  33.297   4.178
62077W        W30471  13.893  42.384  14.556
62078W        W30472  38.545  11.088   2.072
62079W        W30473  32.339  17.270  14.929
62080W        W30474  26.167  33.163  12.998
62081W        W30475   5.054   5.300   1.667
62082W        W30476  33.876  36.404   0.731
62083W        W30477   4.324   6.622  11.386
62084W        W30478   2.537  28.417  11.055
62085W        W30479   3.169  21.636   2.443
62086W        W30480  37.351  31.969   0.505
62087W        W30481  15.191  37.377  13.254
62088W        W30482  39.305  29.214  12.040
62089W        W30483  21.338   0.926  12.756
62090W        W30484  43.420  24.483   1.895
62091W        W30485   8.830  34.749  13.957
62092W        W30486   2.331  17.491   0.883
62093W        W30487   1.886  30.543   0.981
62094W        W30488  33.573  17.643   4.427
62095W        W30489  28.278  30.833   3.885
62096W        W30490  12.723  33.986   0.213
62097W        W30491  24.910  22.570   3.185
62098W        W30492  43.668  21.862   4.364
62099W        W30493  30.526   0.355  11.851
62100W        W30494  44.506  37.396   1.353
62101W        W30495  38.270  36.857  13.262
62102W        W30496  22.062  39.434   4.408
62103W        W30497  18.481  37.435  11.266
62104W        W30498  26.672  25.094  10.710
62105W        W30499  10.104  30.928  11.888
62106W        W30500  35.379  36.888  13.417
62107W        W30501  41.485  32.385   0.873
62108W        W30502  37.976  31.916  12.848
62109W        W30503  36.703   6.791   3.720
62110W        W30504   5.794  15.037   3.206
62111W        W30505  42.214  15.644   2.652
62112W        W30506   1.464  37.070  12.580
62113W        W30507  42.048  30.481   3.853
62114W        W30508  19.309  28.397   4.408
62115W        W30509   6.772   4.806  10.868
62116W        W30510  37.014  37.827   3.139
62117W        W30511  43.325  30.199   0.314
62118W        W30512  38.559  42.319  13.461
62119W        W30513   8.641   0.131  11.474
62120W        W30514   3.009  38.556   0.379
62121W        W30515   4.751  24.435  12.195
62122W        W30516  20.776   6.384   1.963
62123W        W30517  42.952  17.634   3.851
62124W        W30518  36.378  21.236  12.616
62125W        W30519  38.940  32.875   4.673
62126W        W30520  26.121  32.991   0.752
62127W        W30521  26.209   7.105   4.610
62128W        W30522  36.527  40.471   4.114
62129W        W30523  32.454  44.604   3.606
62130W        W30524   8.623   2.480   4.255
62131W        W30525  30.149  34.384   2.814
62132W        W30526  10.307  33.685   1.929
62133W        W30527  18.846  22.633  12.838
62134W        W30528  23.535  30.471   0.233
62135W        W30529  32.619   6.488   2.168
62136W        W30530  39.040  33.601  12.891
62137W        W30531  21.651  39.530   3.544
62138W        W30532  29.992  40.590  11.665
62139W        W30533  44.828   2.380   1.313
62140W        W30534  29.474  10.748   2.338
62141W        W30535  22.837  20.231  13.626
62142W        W30536   7.197  22.031  14.832
62143W        W30537  14.331   5.507   4.404
62144W        W30538   4.354   5.476   4.131
62145W        W30539  13.229  16.808   2.651
62146W        W30540  39.620  15.840  14.084
62147W        W30541  35.288  10.660  12.846
62148W        W30542  40.632   0.584   0.870
62149W        W30543  10.611  34.542  11.628
62150W        W30544  15.638  18.552   9.828
62151W        W30545  36.388  23.834   0.959
62152W        W30546  22.060  20.935  11.769
62153W        W30547  33.646  31.469   2.704
62154W        W30548  24.676  15.316  14.326
62155W        W30549  11.400  23.079   3.821
62156W        W30550  10.845   9.315   2.266
62157W        W30551  24.644   7.348   2.150
62158W        W30552  18.761   4.697   2.672
62159W        W30553   5.842  16.734  10.565
62160W        W30554  27.467  35.658   2.222
62161W        W30555  11.125  38.922  13.462
62162W        W30556   9.331  16.727   2.771
62163W        W30557   9.675  11.148   3.628
62164W        W30558  29.441  14.031  11.108
62165W        W30559  38.502  14.765   2.418
62166W        W30560  44.170  31.129   2.678
62167W        W30561  13.672  44.815  11.213
62168W        W30562  40.746  31.521   0.277
62169W        W30563  39.994  16.513  14.392
62170W        W30564  28.063  19.003   3.304
62171W        W30565  10.246   5.113   3.704
62172W        W30566  27.951  25.822  12.252
62173W        W30567  27.938   3.473  10.274
62174W        W30568  23.156  14.830   0.407
62175W        W30569   1.779  19.280   1.932
62176W        W30570  32.529   4.904   0.409
62177W        W30571  23.508   0.290   1.771
62178W        W30572  14.058  21.473   4.048
62179W        W30573  14.767  33.463   1.927
62180W        W30574  26.636   8.805   3.668
62181W        W30575  19.240  11.705  12.174
62182W        W30576  28.184  31.849  10.466
62183W        W30577   1.177   9.655  13.560
62184W        W30578  25.742  42.200   4.589
62185W        W30579  11.289   7.935  14.562
62186W        W30580  26.679   6.820   3.825
62187W        W30581   9.885   6.847  12.803
62188W        W30582  32.542  23.628   1.023
62189W        W30583  15.349  44.145  13.830
62190W        W30584  18.085  34.839  10.938
62191W        W30585  16.891  44.193   3.244
62192W        W30586  41.722  11.345   1.419
62193W        W30587  27.567   6.631  14.889
62194W        W30588   5.412  43.516  12.084
62195W        W30589  31.024  21.505   4.274
62196W        W30590  31.925  17.019  11.062
62197W        W30591  11.034  18.130   0.954
62198W        W30592  18.036  36.538  10.792
62199W        W30593  36.450   0.790   0.160
62200W        W30594   7.913   4.655   2.300
62201W        W30595   2.342  26.966  11.884
62202W        W30596   7.830  36.708   4.155
62203W        W30597  37.939  32.623   2.933
62204W        W30598  36.127  16.707   1.633
62205W        W30599  16.796  37.049   2.283
62206W        W30600  36.666  23.110  12.463
62207W        W30601  18.305  18.622  13.901
62208W        W30602  12.592   6.647  11.640
62209W        W30603  22.723   9.173  14.265
62210W        W30604  31.417  43.317   2.084
62211W        W30605  31.188  12.070   1.658
62212W        W30606  34.867  32.924  12.855
62213W        W30607  34.381  14.856  11.465
62214W        W30608  21.651   6.432   3.263
62215W        W30609  15.148   4.339  11.128
62216W        W30610  26.177  38.462  12.476
62217W        W30611  10.638   7.880   1.954
62218W        W30612  42.379   9.229  12.523
62219W        W30613  39.254   5.409   3.288
62220W        W30614  11.991  43.947  11.606
62221W        W30615  32.902  29.657   4.113
62222W        W30616  24.404  11.658   5.362
62223W        W30617  15.778  42.992  10.678
62224W        W30618   3.217  44.198  11.522
62225W        W30619  39.979  17.831   4.505
62226W        W30620  39.480  17.043  10.719
62227W        W30621  35.048  27.450   2.481
62228W        W30622   4.571  13.666  11.684
62229W        W30623  20.584  19.074   3.541
62230W        W30624  24.675  39.525   0.769
62231W        W30625  42.375  21.131   2.746
62232W        W30626  12.489  10.510   3.710
62233W        W30627  34.606  36.097   3.655
62234W        W30628  36.180   6.178  11.190
62235W        W30629  34.973  32.110  14.284
62236W        W30630  19.790   3.414  13.937
62237W        W30631  20.016  14.591  14.037
62238W        W30632  41.865  11.936   0.007
62239W        W30633   7.305  37.490   4.226
62240W        W30634  23.725  28.120  13.173
62241W        W30635  30.766   1.742   4.647
62242W        W30636   1.448  16.462  14.979
62243W        W30637  41.464   3.979  11.961
62244W        W30638  27.390   3.250   0.735
62245W        W30639   8.577  30.510  14.397
62246W        W30640  34.172  44.819   4.154
62247W        W30641  17.441  14.372  10.821
62248W        W30642  35.896  11.510  12.864
62249W        W30643  27.630  35.631  11.477
62250W        W30644  18.821   7.440  13.470
62251W        W30645  43.713  42.997   1.499
62252W        W30646  17.140   7.436   4.020
62253W        W30647   6.608  15.295   0.950
62254W        W30648  18.112   0.398  12.308
62255W        W30649   4.092  24.694   4.226
62256W        W30650  36.736  21.974   1.161
62257W        W30651  40.206  11.184   2.354
62258W        W30652  25.200  25.263   2.939
62259W        W30653  18.259  41.892   9.784
62260W        W30654  33.927  15.069  13.901
62261W        W30655  41.452  24.456   4.586
62262W        W30656  21.731  34.289   1.918
62263W        W30657  43.369  15.207  14.083
62264W        W30658  43.240  23.708   3.303
62265W        W30659   5.479  31.006   1.265
62266W        W30660   1.983  21.770   0.680
62267W        W30661  38.627   0.549  12.849
62268W        W30662  17.347  17.273  11.993
62269W        W30663  37.037  36.011  14.349
62270W        W30664  40.200  31.042   0.880
62271W        W30665   5.313  39.150   4.867
62272W        W30666  20.154   5.509  11.904
62273W        W30667  17.252  41.256  14.519
62274W        W30668  19.433   0.381   3.262
62275W        W30669  28.454  42.424   1.762
62276W        W30670  30.420   0.805   2.487
62277W        W30671  43.416  17.474   2.591
62278W        W30672  22.236   7.175   1.246
62279W        W30673  36.318  30.374  11.461
62280W        W30674  16.770  32.919   3.671
62281W        W30675  26.042  21.374   0.435
62282W        W30676  15.526  39.805   4.889
62283W        W30677  11.755  26.573  11.237
62284W        W30678  14.685  34.465  14.467
62285W        W30679  29.931  35.726  12.044
62286W        W30680  28.186  20.527   4.805
62287W        W30681  28.528  28.216   0.384
62288W        W30682  20.162  28.623   3.394
62289W        W30683   1.346  26.575  13.540
62290W        W30684  25.225  12.007   1.353
62291W        W30685  23.197  17.225   2.743
62292W        W30686  15.706  22.272  12.538
62293W        W30687  12.409  12.167  12.905
62294W        W30688  42.735  21.618  12.137
62295W        W30689  43.214  15.199   1.858
62296W        W30690  35.408  41.011  11.562
62297W        W30691  12.824  33.550   2.137
62298W        W30692  44.790  11.085  13.425
62299W        W30693   3.164   6.243  14.776
62300W        W30694  40.517   4.340   4.568
62301W        W30695  36.399  30.950  10.662
62302W        W30696   0.927  11.279   1.321
62303W        W30697  33.267  26.936   2.737
62304W        W30698   0.351  22.095   3.003
62305W        W30699  32.057  13.989   3.832
62306W        W30700  14.299  26.155   3.393
62307W        W30701   0.391   2.910  12.127
62308W        W30702  39.588  21.853   4.049
62309W        W30703   2.289  15.589   1.415
62310W        W30704  38.384  16.113  14.989
62311W        W30705  43.868  11.305   2.682
62312W        W30706  28.981  36.983   3.653
62313W        W30707  24.423   2.748  12.482
62314W        W30708  17.649  11.736  10.468
62315W        W30709  33.995  31.910   2.870
62316W        W30710  17.913  27.646  13.871
62317W        W30711  34.350  24.564   3.339
62318W        W30712  35.757  30.586   0.757
62319W        W30713   8.491  25.325  11.178
62320W        W30714  41.564   2.313   4.251
62321W        W30715   6.574  43.916  11.228
62322W        W30716   2.456  28.163   0.063
62323W        W30717  21.172   9.996   5.077
62324W        W30718   8.444   9.384  11.038
62325W        W30719   9.665  17.083   0.377
62326W        W30720  27.939  21.631   0.362
62327W        W30721  12.102   6.587  13.010
62328W        W30722   1.517  13.709  14.097
62329W        W30723  14.859  42.066   0.014
62330W        W30724  25.772  36.410  13.771
62331W        W30725  16.041  29.658   0.324
62332W        W30726   6.186  21.586  14.035
62333W        W30727  39.982  17.588  11.155
62334W        W30728  27.873  12.346  13.103
62335W        W30729  30.315   1.193  14.597
62336W        W30730  17.001  29.037  10.676
62337W        W30731  31.450   9.423  12.501
62338W        W30732   2.958   4.162  12.325
62339W        W30733  40.383  11.808   0.463
62340W        W30734  20.799  14.390   2.751
62341W        W30735   8.924  17.043  12.924
62342W        W30736  39.485  23.551   2.278
62343W        W30737   9.201   9.844   1.755
62344W        W30738  39.582  19.176  13.453
62345W        W30739  19.241  34.341   0.417
62346W        W30740  17.605  15.669  13.574
62347W        W30741   4.348  21.688   1.240
62348W        W30742  43.994   8.285  10.665
62349W        W30743  12.117  36.049   0.782
62350W        W30744  39.286  20.015   1.330
62351W        W30745  38.234  18.250  14.365
62352W        W30746  31.046  18.725   3.678
62353W        W30747  10.193   3.683  11.285
62354W        W30748  29.640   0.560   0.467
62355W        W30749   5.680  38.883   0.719
62356W        W30750  27.425  17.326  14.413
62357W        W30751  22.768  19.508   2.614
62358W        W30752  15.284  14.612   2.682
62359W        W30753   7.325   4.721  11.481
62360W        W30754   8.361   7.961  14.744
62361W        W30755  42.068  13.663   1.227
62362W        W30756  11.660  44.450  10.619
62363W        W30757   5.445  21.197   0.229
62364W        W30758  29.129  43.332  11.451
62365W        W30759  18.286  20.660  10.094
62366W        W30760  43.162  32.081   2.739
62367W        W30761   1.861  10.310  14.898
62368W        W30762  15.011  23.740   3.850
62369W        W30763   9.193   9.410  12.524
62370W        W30764  24.640  37.831  12.574
62371W        W30765  42.605   5.853  14.399
62372W        W30766  19.560  42.407  12.982
62373W        W30767   4.898  18.262   2.356
62374W        W30768  35.792  13.588  13.025
62375W        W30769  12.162  33.551   3.893
62376W        W30770  38.447  33.870   3.441
62377W        W30771  22.515  38.884   2.138
62378W        W30772  26.709   4.762  12.482
62379W        W30773  34.524  15.218   1.359
62380W        W30774  37.497  23.260  13.170
62381W        W30775  36.921  36.486   0.712
62382W        W30776  22.968   3.872   0.105
62383W        W30777  35.520  21.593   1.133
62384W        W30778  44.231  39.455  11.760
62385W        W30779  31.884  32.574  14.998
62386W        W30780   7.882  42.833  10.824
62387W        W30781  37.727  43.846   0.807
62388W        W30782  13.420  16.339  12.881
62389W        W30783  22.208  34.904   0.977
62390W        W30784  29.161  34.926   0.456
62391W        W30785   6.512   3.676  11.505
62392W        W30786  44.906  27.498   3.186
62393W        W30787  36.829   4.182   1.375
62394W        W30788   5.771  44.561  10.330
62395W        W30789  43.080  31.096  11.975
62396W        W30790  35.589   7.865  12.510
62397W        W30791  43.884  11.045  10.573
62398W        W30792   0.578  13.004  13.952
62399W        W30793  31.776  12.357   4.495
62400W        W30794  42.010  21.623  12.584
62401W        W30795   5.344   6.164  11.980
62402W        W30796  13.205  30.078   2.076
62403W        W30797  15.792  37.389  11.088
62404W        W30798  33.513  28.611  14.164
62405W        W30799  31.436  42.037   1.824
62406W        W30800  18.254   1.554  11.255
62407W        W30801  37.495  37.913   0.525
62408W        W30802   9.019  22.726   4.945
62409W        W30803  44.097  19.744   1.043
62410W        W30804  30.014  12.148  13.858
62411W        W30805  42.146  34.366  10.598
62412W        W30806  41.251  13.707  12.604
62413W        W30807  39.383  29.024  11.057
62414W        W30808  43.492   0.002  11.029
62415W        W30809   4.152  29.337  12.933
62416W        W30810   3.181   5.884   3.318
62417W        W30811  43.201  19.778  10.366
62418W        W30812  10.058  43.445  11.246
62419W        W30813  30.676  20.759  13.386
62420W        W30814   4.668   9.122  13.937
62421W        W30815   0.909  41.837   1.701
62422W        W30816  40.405  16.596   4.462
62423W        W30817  29.056  25.654   0.982
62424W        W30818  25.566  14.051  11.191
62425W        W30819  37.551  36.841  14.402
62426W        W30820  16.701   2.756  13.904
62427W        W30821  36.319  32.886  14.044
62428W        W30822  43.841  12.378  13.916
62429W        W30823  19.224  32.421  14.831
62430W        W30824   1.344  21.308  14.462
62431W        W30825  24.152  13.743   3.056
62432W        W30826  16.190  39.928  14.900
62433W        W30827   6.144  27.095  10.679
62434W        W30828   5.294  40.334  13.863
62435W        W30829  43.055   9.441  10.915
62436W        W30830  38.628  20.242   1.752
62437W        W30831  25.968  14.672   4.532
62438W        W30832  30.144  25.526  14.415
62439W        W30833  14.779  18.132  12.944
62440W        W30834  14.486   4.306   0.329
62441W        W30835  43.997  41.741   2.202
62442W        W30836  38.096  11.709   4.338
62443W        W30837   3.709  14.416  13.445
62444W        W30838  35.841  10.787   2.750
62445W        W30839  36.874  12.379   1.480
62446W        W30840  42.925  11.654  12.235
62447W        W30841  37.424  41.827  12.796
62448W        W30842  21.099  42.798   1.134
62449W        W30843   5.639  30.385   2.364
62450W        W30844  33.837  14.648  13.036
62451W        W30845   8.889  41.712  12.361
62452W        W30846  23.735  16.245   4.252
62453W        W30847  42.302   8.816   0.543
62454W        W30848  12.791   4.619   4.529
62455W        W30849  41.289  39.480   3.292
62456W        W30850   3.008  29.943  14.461
62457W        W30851  33.026  17.803  10.895
62458W        W30852  31.532  18.319  14.315
62459W        W30853  29.924  41.552   1.384
62460W        W30854  23.163   2.905  14.073
62461W        W30855  43.417  39.187   9.734
62462W        W30856  27.187  21.717  11.322
62463W        W30857   3.907  31.878   2.409
62464W        W30858   1.469  44.382   3.810
62465W        W30859  41.292   7.637   3.412
62466W        W30860  38.890  32.539   0.767
62467W        W30861  42.892   4.017   1.332
62468W        W30862   0.319   7.302  14.242
62469W        W30863  36.056  12.760   0.718
62470W        W30864   8.912  32.015  11.044
62471W        W30865  44.881  27.418  14.498
62472W        W30866  37.105  15.386  10.202
62473W        W30867   2.421  15.499   2.283
62474W        W30868  12.887   8.201   1.851
62475W        W30869  19.807  33.208   2.238
62476W        W30870  19.329  26.125  11.084
62477W        W30871   9.908  13.731  12.101
62478W        W30872   1.243  24.231  12.011
62479W        W30873  20.650  31.557  12.945
62480W        W30874  10.949  31.136  14.351
62481W        W30875   2.478  38.487  11.574
62482W        W30876  13.265  21.159   2.740
62483W        W30877  33.847  44.408   4.940
62484W        W30878   5.479  40.412   0.747
62485W        W30879  10.993  10.238   3.596
62486W        W30880  31.878  42.496   3.237
62487W        W30881   3.682   1.922  14.437
62488W        W30882   3.796   7.234   2.916
62489W        W30883  34.025  35.391  12.354
62490W        W30884  15.325  38.193  10.676
62491W        W30885  26.762  10.768  14.402
62492W        W30886   1.608  31.079  10.576
62493W        W30887   0.086  31.228  11.980
62494W        W30888  18.643  10.725   3.681
62495W        W30889   9.140  21.556  13.411
62496W        W30890  27.916   2.960   2.357
62497W        W30891  13.901  44.441   1.946
62498W        W30892   5.337   3.270   0.564
62499W        W30893   6.861  25.607   0.712
62500W        W30894  33.292  12.119   0.915
62501W        W30895  10.758  32.641   1.157
62502W        W30896  28.759  11.794   1.747
62503W        W30897  17.267  13.720  12.403
62504W        W30898  22.690  17.972  14.282
62505W        W30899  34.029  13.579   2.374
62506W        W30900  29.161  18.527   1.179
62507W        W30901  23.050  19.191   1.928
62508W        W30902   0.469   6.378  10.993
62509W        W30903  39.237  40.635   4.394
62510W        W30904  40.938  32.837   4.563
62511W        W30905  35.708  39.598   1.753
62512W        W30906  26.340   9.224   1.268
62513W        W30907  10.188  26.346  14.450
62514W        W30908   9.382  17.725   0.292
62515W        W30909  25.072  19.325  14.764
62516W        W30910  38.885  25.137   0.751
62517W        W30911  43.867  25.922   2.873
62518W        W30912  29.893  20.986  12.532
62519W        W30913  42.357   2.426  13.099
62520W        W30914  37.388   6.836  13.577
62521W        W30915  41.075  18.392  12.654
62522W        W30916  28.511  17.459  13.514
62523W        W30917  42.124  26.158  12.458
62524W        W30918   0.659  18.721   0.921
62525W        W30919  15.137  33.426  14.761
62526W        W30920  38.826   2.329   3.745
62527W        W30921  11.749  31.837  12.207
62528W        W30922  30.723  18.075  12.118
62529W        W30923  44.388  36.493  10.638
62530W        W30924  22.081  28.401  11.119
62531W        W30925  36.692   7.071   4.153
62532W        W30926  30.654  31.860  10.679
62533W        W30927  36.283  43.480   1.752
62534W        W30928  44.673   6.317   2.795
62535W        W30929  36.308  34.799  11.125
62536W        W30930   6.667  31.364  12.648
62537W        W30931  26.225  20.040   2.174
62538W        W30932  30.664   6.713   1.132
62539W        W30933  13.459  14.633  12.814
62540W        W30934   9.363  27.964   2.866
62541W        W30935  23.225  24.528  14.168
62542W        W30936   9.969   6.716   0.757
62543W        W30937  44.554  38.426  11.266
62544W        W30938   1.802  44.005   3.647
62545W        W30939  28.486   8.203   3.613
62546W        W30940  26.919  29.186  13.463
62547W        W30941  26.614   1.302   2.359
62548W        W30942  21.047   1.698  10.726
62549W        W30943  42.016   7.466   0.585
62550W        W30944   7.930   3.304  12.105
62551W        W30945  18.123   2.018   1.295
62552W        W30946  16.483  42.805   3.278
62553W        W30947  27.753  43.043  10.283
62554W        W30948  42.513  42.179   0.180
62555W        W30949  30.548  10.203  12.604
62556W        W30950  21.909  26.786  13.451
62557W        W30951   9.784  33.532   0.633
62558W        W30952   4.202  10.902  11.248
62559W        W30953  32.662  26.703   3.610
62560W        W30954  44.338  43.725  10.650
62561W        W30955  37.532  10.400  11.159
62562W        W30956  18.554   5.500   4.804
62563W        W30957  29.560  12.036   0.209
62564W        W30958  40.554   0.306  13.629
62565W        W30959   2.340  41.132   0.272
62566W        W30960  28.674   9.605   3.953
62567W        W30961  13.877   9.379  11.710
62568W        W30962  28.429  43.207   4.571
62569W        W30963  18.205  13.668   1.441
62570W        W30964  18.628  29.209   2.424
62571W        W30965  31.593   3.422   2.708
62572W        W30966  43.795  24.285   4.397
62573W        W30967   7.134  23.152  11.882
62574W        W30968  42.007  35.415  10.605
62575W        W30969   3.702   7.314   0.954
62576W        W30970  19.306  23.745   4.591
62577W        W30971   1.512   8.730   1.127
62578W        W30972  17.091  35.311   4.281
62579W        W30973   6.962  25.206   0.403
62580W        W30974   1.006  16.617  10.638
62581W        W30975   3.810  15.247  12.109
62582W        W30976  19.235  17.695  12.947
62583W        W30977  27.965  41.537   4.235
62584W        W30978  18.099  16.244  12.140
62585W        W30979   5.876   1.544   2.123
62586W        W30980  15.586   4.703  14.905
62587W        W30981  28.147   5.469   4.681
62588W        W30982  41.787  41.359   4.123
62589W        W30983   9.657  19.726   4.510
62590W        W30984  42.356  12.183  12.327
62591W        W30985   2.748  17.531  13.245
62592W        W30986   0.997  17.911   1.330
62593W        W30987  38.581  44.520  12.153
62594W        W30988   2.505  38.787   0.398
62595W        W30989  27.750   3.803  14.943
62596W        W30990  18.059  42.485  14.866
62597W        W30991  44.521  14.724  12.919
62598W        W30992  17.001  33.044  12.610
62599W        W30993  18.772  31.481  14.866
62600W        W30994   2.970  25.863  11.091
62601W        W30995   6.244  30.162  11.510
62602W        W30996   3.262  19.857  14.332
62603W        W30997  33.866  44.949  13.027
62604W        W30998  23.970  22.183   0.831
62605W        W30999  16.134   1.673   0.078
62606W        W31000  10.113   2.448   0.116
62607W        W31001   0.958  13.274   3.215
62608W        W31002   4.849  21.454  14.962
62609W        W31003   7.810   4.850  13.558
62610W        W31004  30.461  12.655  11.525
62611W        W31005  42.374   1.443   4.927
62612W        W31006  34.604  20.259  12.959
62613W        W31007  12.123  13.783   4.151
62614W        W31008  42.847  31.654   1.216
62615W        W31009   6.880  20.127  11.243
62616W        W31010  10.667  11.103  14.248
62617W        W31011  35.401  40.964   0.917
62618W        W31012  23.454  10.243   0.273
62619W        W31013  25.468  25.955  11.564
62620W        W31014   0.772  25.653   1.926
62621W        W31015   2.862  17.780   0.793
62622W        W31016  16.604  30.110   3.245
62623W        W31017  20.185  34.446   0.045
62624W        W31018  20.927  34.543  11.220
62625W        W31019  21.924  28.159  13.196
62626W        W31020  18.431  35.956   1.595
62627W        W31021  22.426   6.774  14.983
62628W        W31022  44.743  40.015   2.107
62629W        W31023  33.069  20.062   1.465
62630W        W31024  16.485  16.629   5.524
62631W        W31025  42.419  38.393  12.724
62632W        W31026  37.375  27.253  12.503
62633W        W31027  24.527   9.646   4.224
62634W        W31028  22.811   2.532   0.846
62635W        W31029  18.243  19.301  14.173
62636W        W31030  40.711  21.699  14.025
62637W        W31031   6.740  34.071   4.628
62638W        W31032  40.757  40.992   4.697
62639W        W31033  22.328   9.221  13.899
62640W        W31034  22.677  22.134  11.030
62641W        W31035  21.032  38.216  12.451
62642W        W31036  30.006   2.607   3.152
62643W        W31037  38.128  31.904   4.026
62644W        W31038  26.051  33.727   4.499
62645W        W31039  15.304  19.796  14.405
62646W        W31040  11.406   5.833  12.835
62647W        W31041  33.365  32.406  11.684
62648W        W31042  38.422  33.436   1.194
62649W        W31043  34.948   7.950  10.823
62650W        W31044  35.084  25.998  13.967
62651W        W31045  18.270   4.280  14.820
62652W        W31046  10.270  17.769   1.259
62653W        W31047   5.201  44.854  10.943
62654W        W31048  29.132  41.566  11.566
62655W        W31049   9.266  42.112   2.973
62656W        W31050  12.252  26.648   3.728
62657W        W31051   5.699  43.546   3.662
62658W        W31052  22.220  30.069   4.715
62659W        W31053  41.291  43.766  11.498
62660W        W31054  32.017  39.252   0.532
62661W        W31055   4.148   2.797  13.481
62662W        W31056  34.819  40.812   2.338
62663W        W31057   6.375  35.710   2.512
62664W        W31058   2.588  13.702  11.490
62665W        W31059  37.332  15.128   1.805
62666W        W31060  17.558  20.622   4.712
62667W        W31061   9.686  39.241  11.128
62668W        W31062   8.790   5.052  12.674
62669W        W31063  44.946  20.016  12.958
62670W        W31064  39.016  31.568  10.760
62671W        W31065  43.311  29.696   1.714
62672W        W31066  27.755   0.473   1.886
62673W        W31067  35.381  33.461   0.725
62674W        W31068  22.411  14.061  12.275
62675W        W31069  33.727  26.579   1.408
62676W        W31070   4.896  36.029   3.156
62677W        W31071  18.684  42.480  11.442
62678W        W31072  14.688  40.783   3.666
62679W        W31073  20.273   6.341   0.868
62680W        W31074  36.577   3.721   2.673
62681W        W31075  23.984   7.280   0.478
62682W        W31076  31.092  17.276   0.756
62683W        W31077   8.775   9.724   4.683
62684W        W31078  23.475  10.159  13.993
62685W        W31079  29.563  32.568   4.784
62686W        W31080  30.571   3.921  13.889
62687W        W31081  13.377  11.638   2.763
62688W        W31082  28.037  12.270   2.007
62689W        W31083  25.970   9.862   4.567
62690W        W31084  36.945  26.838  13.193
62691W        W31085  32.437  15.555  11.733
62692W        W31086   0.476  19.463  13.658
62693W        W31087  10.907  24.712  11.543
62694W        W31088  42.066  12.186  11.110
62695W        W31089  42.049  41.928   3.724
62696W        W31090  25.208  29.057  12.353
62697W        W31091   9.414  14.020   0.342
62698W        W31092  29.500   5.413  13.040
62699W        W31093  13.507  40.949  11.526
62700W        W31094  32.653  35.533  11.078
62701W        W31095  24.255  41.417  12.539
62702W        W31096  28.591  23.011  10.431
62703W        W31097  19.437  29.693  11.270
62704W        W31098  21.571  44.897   2.794
62705W        W31099  17.811  42.921  14.350
62706W        W31100  19.516  21.790   3.689
62707W        W31101  32.476   8.103  14.339
62708W        W31102  15.750   2.220   2.169
62709W        W31103  19.262  39.280  14.005
62710W        W31104  37.618  25.653   1.491
62711W        W31105  22.280  33.722   4.210
62712W        W31106  42.811  38.749   4.992
62713W        W31107  21.082  39.319  10.545
62714W        W31108  20.088   2.887  12.811
62715W        W31109  12.394  17.129   4.043
62716W        W31110  39.438  17.758   4.440
62717W        W31111   6.391  21.187  14.298
62718W        W31112  22.016  12.224   1.868
62719W        W31113  38.339  35.159  14.765
62720W        W31114  19.335  43.357  12.142
62721W        W31115   9.812  37.835  13.263
62722W        W31116  17.861  30.001   2.896
62723W        W31117   7.727   3.121   0.404
62724W        W31118  21.412   4.832   4.914
62725W        W31119  23.037  16.846   1.822
62726W        W31120  38.165   9.135   1.898
62727W        W31121   4.808  31.453  14.920
62728W        W31122  12.130  43.832   3.182
62729W        W31123  12.658  31.439  11.985
62730W        W31124  29.484  27.043  13.323
62731W        W31125  38.110  38.787  11.165
62732W        W31126  14.306  19.525   3.120
62733W        W31127  31.598   0.202   0.709
62734W        W31128  28.685  24.636  13.766
62735W        W31129  32.725  17.363   1.779
62736W        W31130   2.347  17.648   4.442
62737W        W31131  24.048   4.397   0.561
62738W        W31132  20.586  30.031   0.084
62739W        W31133  12.277  42.779   3.390
62740W        W31134  20.759  40.626   0.975
62741W        W31135  12.981   1.522  12.589
62742W        W31136  22.184  26.025   1.415
62743W        W31137   0.266   5.312   0.906
62744W        W31138  25.981   2.695  12.046
62745W        W31139  23.032  42.984  12.565
62746W        W31140  16.883   4.252   4.572
62747W        W31141   9.653  30.753  12.473
62748W        W31142  14.844  11.227  11.612
62749W        W31143  16.394   0.363  14.827
62750W        W31144  11.399  21.231   2.239
62751W        W31145  28.143  14.532  12.091
62752W        W31146  13.417  18.987   0.852
62753W        W31147  17.620  19.534   4.559
62754W        W31148  38.023  22.510  13.521
62755W        W31149  32.404   6.098   1.873
62756W        W31150  33.977   9.401   0.323
62757W        W31151  24.516  13.704  10.792
62758W        W31152   8.717  22.623  11.458
62759W        W31153  27.943   1.480   2.838
62760W        W31154  10.297  10.582  11.113
62761W        W31155  35.590   0.908   3.224
62762W        W31156   5.283  25.707  11.620
62763W        W31157   6.881  41.626  12.893
62764W        W31158  44.028  22.043   1.302
62765W        W31159  13.040   2.740  11.927
62766W        W31160   8.280  19.783   1.712
62767W        W31161  21.937  34.509   0.318
62768W        W31162  38.795  13.660   0.856
62769W        W31163   3.719  13.246  14.454
62770W        W31164  35.224  41.939  13.321
62771W        W31165  23.329   7.742   4.323
62772W        W31166  31.126  41.064   3.834
62773W        W31167   8.797   4.011  12.467
62774W        W31168   2.344   4.405   0.971
62775W        W31169  41.846  41.546  10.801
62776W        W31170  19.069  21.763  10.976
62777W        W31171  38.066  24.679  14.776
62778W        W31172  18.849  44.514  14.427
62779W        W31173  17.547  40.861   0.652
62780W        W31174  23.809  24.611   4.040
62781W        W31175  34.279  12.298   0.755
62782W        W31176  21.058   5.813  13.779
62783W        W31177   5.712  37.422  11.943
62784W        W31178  41.537  43.757   4.670
62785W        W31179  19.080  27.406  14.504
62786W        W31180  10.213  20.427  14.816
62787W        W31181  44.666   1.879  10.738
62788W        W31182   5.175  16.608  12.496
62789W        W31183  31.918  26.411  13.315
62790W        W31184  20.100  17.634   0.835
62791W        W31185  27.887  25.722  10.340
62792W        W31186  23.230   5.355  11.353
62793W        W31187  32.611  17.807  11.578
62794W        W31188  20.082  26.256  11.525
62795W        W31189  33.382   0.141  13.187
62796W        W31190  30.587  23.791  13.870
62797W        W31191   2.969  29.376   2.017
62798W        W31192  31.766   9.476   4.144
62799W        W31193  15.217  39.749   4.099
62800W        W31194  26.184  38.473  10.822
62801W        W31195   0.887   4.335   3.625
62802W        W31196  37.565  31.293   3.851
62803W        W31197  43.753  16.586  13.945
62804W        W31198  44.678   0.414  13.287
62805W        W31199  41.642  11.853   3.014
62806W        W31200  11.118  43.384   0.329
62807W        W31201   8.812  29.211   4.543
62808W        W31202  26.044  13.705   0.508
62809W        W31203  38.381   2.315   2.289
62810W        W31204  11.724  26.683   1.709
62811W        W31205   3.972  26.685  13.002
62812W        W31206  15.788  41.890  12.957
62813W        W31207  30.925  32.461  13.028
62814W        W31208   8.220  29.970  10.836
62815W        W31209  14.628  33.447  13.798
62816W        W31210  14.162  28.082  10.738
62817W        W31211  17.392  24.604   0.133
62818W        W31212  34.985  28.608  13.331
62819W        W31213  38.749  34.347  11.168
62820W        W31214   8.368  33.052  12.192
62821W        W31215  35.184   4.539  13.457
62822W        W31216  42.237  40.021  10.745
62823W        W31217  14.776  41.332  11.095
62824W        W31218  17.692  39.469   4.928
62825W        W31219   0.993  26.444   1.718
62826W        W31220  16.762  12.439   4.224
62827W        W31221   6.412   8.706  12.431
62828W        W31222  28.855   9.032  11.555
62829W        W31223  20.331  21.184  14.269
62830W        W31224  34.578  27.215   3.640
62831W        W31225  30.490  42.570   3.286
62832W        W31226  31.947  40.370   1.373
62833W        W31227  23.963  17.218   0.360
62834W        W31228  20.216  35.928   0.867
62835W        W31229  10.248  41.889  12.481
62836W        W31230  29.962  10.923  12.608
62837W        W31231  43.388  12.597  14.985
62838W        W31232  12.222  24.643   4.706
62839W        W31233  27.935  35.894  13.146
62840W        W31234   5.414   6.509  10.467
62841W        W31235   4.583   4.688   3.599
62842W        W31236  35.500  25.331   0.733
62843W        W31237  38.536  39.596  13.062
62844W        W31238  38.832  36.798  12.571
62845W        W31239  19.914  22.699  14.887
62846W        W31240  32.066   2.029   3.455
62847W        W31241  43.334   1.738  14.714
62848W        W31242  25.606   4.551   1.259
62849W        W31243  42.432   0.780   1.361
62850W        W31244  34.487  37.407  14.376
62851W        W31245  44.167   4.539   4.554
62852W        W31246  12.864   0.784   2.035
62853W        W31247   0.217  25.236   0.772
62854W        W31248  32.776  28.206  12.496
62855W        W31249   9.537  18.287   4.317
62856W        W31250  30.150  34.364  13.883
62857W        W31251  31.667  25.957   1.127
62858W        W31252   1.873   8.704  12.575
62859W        W31253  32.777   4.313  11.937
62860W        W31254  25.480   0.938  14.996
62861W        W31255  41.731  28.715   1.236
62862W        W31256  21.690  41.785  11.957
62863W        W31257  30.897  18.509   0.476
62864W        W31258   0.188   6.903  12.074
62865W        W31259  11.225   0.725  12.960
62866W        W31260  33.422  19.676  12.547
62867W        W31261  21.225   9.448  12.031
62868W        W31262  15.899   1.395   1.908
62869W        W31263  12.866  29.046   1.433
62870W        W31264   7.373  32.058  12.354
62871W        W31265  33.405  10.635   2.023
62872W        W31266   7.161  39.212   3.814
62873W        W31267  33.890  10.800  13.363
62874W        W31268   4.262  14.123   3.372
62875W        W31269  29.688  11.846  12.423
62876W        W31270  10.844   3.382  11.683
62877W        W31271  36.084  26.495   1.603
62878W        W31272  21.396  25.059  12.956
62879W        W31273  37.574  43.184  13.614
62880W        W31274  12.014  43.534  10.628
62881W        W31275  34.706  23.032  11.612
62882W        W31276   7.442  22.749  10.146
62883W        W31277  32.384  39.404  14.267
62884W        W31278   2.398  25.004   3.893
62885W        W31279   8.958  33.598   0.049
62886W        W31280  13.332  35.601   0.918
62887W        W31281  37.507   3.275  12.088
62888W        W31282  41.579  38.742   0.363
62889W        W31283  42.379  38.790  14.274
62890W        W31284  20.763  20.961   4.339
62891W        W31285  38.400  38.593   2.705
62892W        W31286  41.836  41.246  12.999
62893W        W31287  31.112  30.891   3.898
62894W        W31288  11.302  30.698  12.533
62895W        W31289  22.083  33.482  12.935
62896W        W31290   5.020  19.687   0.466
62897W        W31291  32.586  35.465   4.075
62898W        W31292  25.722   0.163   1.780
62899W        W31293  12.148  17.102  11.971
62900W        W31294  31.146   9.188   0.265
62901W        W31295  37.775  37.566   1.659
62902W        W31296  22.688  17.822  13.381
62903W        W31297  30.609  37.006   4.250
62904W        W31298  22.756   3.428  14.928
62905W        W31299  10.192  39.367  13.372
62906W        W31300  39.045  31.675  10.258
62907W        W31301   7.885  35.975  10.196
62908W        W31302  10.361  26.408   1.340
62909W        W31303  28.626  35.983   3.685
62910W        W31304  27.740  13.742  14.720
62911W        W31305  11.819  38.506   1.594
62912W        W31306  25.014  31.433  11.226
62913W        W31307   6.387  25.555   3.336
62914W        W31308   9.003   1.815   3.749
62915W        W31309   5.907  19.667   3.244
62916W        W31310  19.587  30.978   2.315
62917W        W31311  38.749  24.666   0.258
62918W        W31312  15.830   3.801   2.936
62919W        W31313  41.388  30.491  10.612
62920W        W31314  17.738  33.545   2.495
62921W        W31315  24.099  21.957  12.098
62922W        W31316  11.111   3.382   1.784
62923W        W31317   8.122  35.543   4.083
62924W        W31318  16.816  21.514  12.145
62925W        W31319  17.621  34.864   4.598
62926W        W31320  29.601   3.439   2.994
62927W        W31321  18.290  36.084   3.666
62928W        W31322  26.536  30.867   2.793
62929W        W31323   2.919   9.626  12.831
62930W        W31324   5.260  22.550   3.021
62931W        W31325  31.659   3.667  13.999
62932W        W31326  33.087  38.874  14.932
62933W        W31327   5.677  42.390   0.038
62934W        W31328  21.404  44.042  12.845
62935W        W31329   2.791  28.880  11.552
62936W        W31330   0.709  15.876  12.456
62937W        W31331  37.962  23.245  12.400
62938W        W31332  17.185  10.206   4.592
62939W        W31333  36.430  14.621   3.242
62940W        W31334  14.669  12.342   2.289
62941W        W31335   8.392   4.636   4.703
62942W        W31336  29.470   3.605  11.273
62943W        W31337   7.819   4.028   3.612
62944W        W31338  43.798  37.781   3.926
62945W        W31339  27.472  13.153  14.984
62946W        W31340  14.103   6.198   3.499
62947W        W31341  21.011   3.563  11.978
62948W        W31342  30.980  10.690   4.616
62949W        W31343  25.241  40.516  10.815
62950W        W31344  19.699  20.520   0.079
62951W        W31345  28.572   6.232  11.621
62952W        W31346  10.805  36.896  11.856
62953W        W31347  38.747  27.148   2.203
62954W        W31348  10.104  10.390   1.864
62955W        W31349  22.282   1.958  14.905
62956W        W31350  35.443  33.675   3.220
62957W        W31351  39.268  12.745   0.754
62958W        W31352  36.971  38.647   4.129
62959W        W31353  12.117   6.417  11.672
62960W        W31354  22.006  40.475   1.802
62961W        W31355  10.286  19.148   1.147
62962W        W31356  24.982  27.652   1.314
62963W        W31357   6.748  23.241   2.279
62964W        W31358  24.708  26.969  14.790
62965W        W31359   1.035  37.895  14.311
62966W        W31360   3.207  33.851   3.086
62967W        W31361  32.334  29.523   0.944
62968W        W31362  10.123  31.770  13.531
62969W        W31363  33.937  14.545   2.110
62970W        W31364  13.206  27.489   2.692
62971W        W31365  27.982  37.777   4.019
62972W        W31366  42.459  15.068  14.538
62973W        W31367   2.667   4.320   0.128
62974W        W31368  20.085   2.420   1.881
62975W        W31369  16.528  44.784  10.880
62976W        W31370   4.947  34.698   3.091
62977W        W31371  19.782  23.081   1.015
62978W        W31372  27.711  20.719   2.733
62979W        W31373  16.750   8.643  12.433
62980W        W31374  39.254  30.089   0.327
62981W        W31375   5.185  31.236  13.911
62982W        W31376   1.271  14.382   3.651
62983W        W31377  23.659  31.594  14.676
62984W        W31378  28.461   5.422  14.860
62985W        W31379   0.322  33.588   2.679
62986W        W31380  33.128   3.278   3.478
62987W        W31381  17.712   9.749   3.438
62988W        W31382   0.481  39.386  12.622
62989W        W31383  21.045   1.375   3.303
62990W        W31384   9.475  14.119  11.033
62991W        W31385  17.424  32.046  13.503
62992W        W31386  29.481  11.909  14.427
62993W        W31387  25.596  35.238  11.438
62994W        W31388  29.746  14.023   2.000
62995W        W31389  24.909  35.516  11.966
62996W        W31390  30.561  23.831  14.724
62997W        W31391  30.867  28.666  12.051
62998W        W31392   0.431  39.084   4.224
62999W        W31393  29.993  42.297  13.481
63000W        W31394   5.830  28.376   2.282
63001W        W31395   0.975  44.812  11.935
63002W        W31396   9.636  30.583   0.506
63003W        W31397  34.646  12.137   2.206
63004W        W31398  36.871  33.522  11.091
63005W        W31399  25.447  27.986   3.819
63006W        W31400  28.098  28.750   0.767
63007W        W31401  19.141  23.206  14.823
63008W        W31402  22.175  16.211   4.920
63009W        W31403   0.352  32.977  11.948
63010W        W31404  10.421  25.774  11.622
63011W        W31405  38.939   2.896   2.783
63012W        W31406  15.308  31.536  12.930
63013W        W31407  20.224  23.181  12.614
63014W        W31408   7.117   1.130   3.937
63015W        W31409  32.954  14.246  14.253
63016W        W31410  14.731  23.993   4.243
63017W        W31411   9.995  23.806   9.764
63018W        W31412   4.772  41.936  11.850
63019W        W31413  23.486  36.893  13.829
63020W        W31414  24.372  36.630   4.074
63021W        W31415   1.153   3.138   4.117
63022W        W31416  17.471  17.090  12.849
63023W        W31417  38.631  42.802  11.562
63024W        W31418  39.769  42.228  12.881
63025W        W31419  15.710  18.774  13.477
63026W        W31420   4.308  18.549  13.132
63027W        W31421  32.460  17.148  13.250
63028W        W31422  11.780  12.199   4.447
63029W        W31423   0.980  35.083  10.784
63030W        W31424  21.593   3.889  13.806
63031W        W31425  32.299  28.088  14.169
63032W        W31426  44.844  21.854   0.150
63033W        W31427  19.516  15.958   3.650
63034W        W31428  38.344  18.078   1.199
63035W        W31429  27.100  38.377  10.979
63036W        W31430   2.887  37.048   1.555
63037W        W31431  27.498  19.339   4.073
63038W        W31432  28.026  10.612  13.999
63039W        W31433  41.323   6.545   1.220
63040W        W31434   8.309   2.399  11.583
63041W        W31435  44.821  17.823  12.500
63042W        W31436  39.318  13.326  13.635
63043W        W31437  21.066  16.077   0.850
63044W        W31438  14.188   0.343   3.790
63045W        W31439  32.941  43.693  14.303
63046W        W31440  31.989  12.425   1.723
63047W        W31441  15.077  42.348   2.514
63048W        W31442  28.866  43.393   1.298
63049W        W31443   6.669   9.395   1.446
63050W        W31444  43.365  23.751  14.423
63051W        W31445  34.131  23.735  13.537
63052W        W31446  19.072  17.867   3.305
63053W        W31447   6.647  33.864   0.892
63054W        W31448  11.347  31.886   4.879
63055W        W31449  18.614   1.866   1.366
63056W        W31450   9.733  31.111   0.409
63057W        W31451  35.450  28.106  11.990
63058W        W31452   9.104  21.285  12.973
63059W        W31453  10.418   4.354  11.184
63060W        W31454   7.445  17.598  12.129
63061W        W31455  39.923  30.344  12.055
63062W        W31456  10.405  16.213  11.676
63063W        W31457   2.390  26.758   4.386
63064W        W31458   5.045  10.229  14.500
63065W        W31459  24.141  20.897   2.941
63066W        W31460  36.106  44.975  14.558
63067W        W31461   3.813   9.240  13.449
63068W        W31462  15.412  27.663  13.832
63069W        W31463  30.902  33.139   0.428
63070W        W31464   7.966   7.563  12.935
63071W        W31465   8.710  28.206  14.948
63072W        W31466  19.675   6.982  12.880
63073W        W31467  21.299  23.491   3.679
63074W        W31468  12.190  17.641   1.852
63075W        W31469  25.122  21.689   0.232
63076W        W31470  35.070  37.042  11.544
63077W        W31471  22.264  23.497  13.066
63078W        W31472   4.693  39.559  14.055
63079W        W31473   5.325  13.084  13.867
63080W        W31474  27.657  41.874   2.635
63081W        W31475   2.451  16.034   2.165
63082W        W31476   1.476   5.891  14.782
63083W        W31477  40.422  16.151   2.173
63084W        W31478   9.329  19.328   4.651
63085W        W31479  23.464  31.369   2.816
63086W        W31480   0.269  24.052   2.828
63087W        W31481  25.242  26.537   0.431
63088W        W31482  36.412  22.699   3.655
63089W        W31483   8.177  41.488   2.779
63090W        W31484  17.389   0.477  11.997
63091W        W31485  24.453  10.151  13.064
63092W        W31486  17.640  19.263   0.998
63093W        W31487  24.030  40.839  11.311
63094W        W31488  10.128  14.098   2.741
63095W        W31489  17.336  15.774   1.387
63096W        W31490  26.197  11.819  14.900
63097W        W31491  20.226  36.350   2.728
63098W        W31492  13.378  35.012  14.667
63099W        W31493  43.041   5.691   0.339
63100W        W31494  22.505  24.955  11.593
63101W        W31495  41.699  43.417  11.592
63102W        W31496  37.333   4.190   5.037
63103W        W31497  41.553   0.610   2.160
63104W        W31498  25.494  31.377   3.539
63105W        W31499   1.917   6.657   1.639
63106W        W31500  33.106   0.474   2.785
63107W        W31501  23.087  33.387  14.924
63108W        W31502   1.348  19.615  13.139
63109W        W31503  31.190  32.290   1.908
63110W        W31504   9.468  16.109  13.463
63111W        W31505   5.731  36.496   3.916
63112W        W31506   8.648  27.696  12.675
63113W        W31507  19.213   5.739   3.236
63114W        W31508   1.668   9.048  11.867
63115W        W31509  14.517   1.047   0.832
63116W        W31510  35.931  36.958  14.530
63117W        W31511  11.841   7.428   4.736
63118W        W31512  34.924  38.400  12.868
63119W        W31513  35.447  29.766   2.714
63120W        W31514   5.988  30.415  10.341
63121W        W31515  27.044  41.146  11.200
63122W        W31516  10.654  13.872  11.650
63123W        W31517  16.427  22.502  14.472
63124W        W31518  10.302  15.127   3.814
63125W        W31519  10.298   8.652  13.076
63126W        W31520  42.806  18.392   5.083
63127W        W31521  26.386   8.407  12.415
63128W        W31522  32.840  11.627  14.312
63129W        W31523  16.254  31.168   4.578
63130W        W31524  21.606   4.496   2.656
63131W        W31525  11.234  22.618  12.207
63132W        W31526   3.894  38.045  13.848
63133W        W31527  22.112  20.649  11.048
63134W        W31528  29.318  25.721  10.957
63135W        W31529  14.263  42.591   4.945
63136W        W31530  25.231  26.610  14.015
63137W        W31531  24.574   3.253  13.259
63138W        W31532   6.551  27.992  11.582
63139W        W31533  18.805  25.508  14.323
63140W        W31534   6.397  35.196  14.671
63141W        W31535  10.860  14.854  11.507
63142W        W31536  17.719  30.408  14.855
63143W        W31537   5.723   7.958   3.656
63144W        W31538   2.812   5.439  12.949
63145W        W31539  16.620  15.146   2.146
63146W        W31540  32.083   7.408   3.719
63147W        W31541   4.934  27.255  14.321
63148W        W31542  20.284   5.415   2.190
63149W        W31543   4.151   8.751   1.710
63150W        W31544   5.390   9.806  13.769
63151W        W31545  17.569  21.511   1.381
63152W        W31546  19.997  11.367  14.126
63153W        W31547   6.542   0.215  13.366
63154W        W31548  25.574  18.022   0.940
63155W        W31549  24.239  28.033   0.657
63156W        W31550  15.644  12.452   4.241
63157W        W31551  36.043  31.748   4.168
63158W        W31552  24.134   8.360  14.845
63159W        W31553  26.458  16.055  11.718
63160W        W31554  41.462   5.174  14.751
63161W        W31555  10.262  36.630  10.333
63162W        W31556  22.283  37.946  12.897
63163W        W31557  39.538  11.277   4.411
63164W        W31558   7.429  24.026   0.764
63165W        W31559  43.124  23.629   1.654
63166W        W31560  19.409  39.034   5.284
63167W        W31561   8.278  26.916  12.461
63168W        W31562  39.060  31.066   0.073
63169W        W31563   6.302   8.558  12.935
63170W        W31564  30.004  28.960  13.604
63171W        W31565  41.809  10.824  11.844
63172W        W31566   0.877  43.318   1.472
63173W        W31567  10.568  13.249  12.151
63174W        W31568  43.326  14.106  14.861
63175W        W31569  22.105  11.958  14.400
63176W        W31570   6.307  15.905  12.066
63177W        W31571  30.802  23.967   3.185
63178W        W31572  20.307   5.814  13.537
63179W        W31573  35.533  43.408   2.220
63180W        W31574  28.571  19.541   1.846
63181W        W31575   2.320   7.997  11.207
63182W        W31576   9.857  14.322   3.138
63183W        W31577  23.201  30.444   0.856
63184W        W31578  41.423  22.936  10.645
63185W        W31579   3.450  19.359  14.304
63186W        W31580  43.126  19.764   1.615
63187W        W31581  12.839  10.190   0.353
63188W        W31582  10.191   6.238   1.337
63189W        W31583  43.498  26.399  14.374
63190W        W31584   9.930  13.841  11.146
63191W        W31585  36.295   0.730  14.193
63192W        W31586  17.456  23.124   0.465
63193W        W31587  25.342  36.760   0.318
63194W        W31588  26.084  14.770   3.642
63195W        W31589  33.539   9.369  13.938
63196W        W31590   1.475  24.495  12.495
63197W        W31591  30.907  30.168   1.728
63198W        W31592  34.691  15.810  11.508
63199W        W31593  33.380  33.991   0.368
63200W        W31594  41.885   9.840   3.667
63201W        W31595  31.475  29.585   3.251
63202W        W31596  32.419   7.936  14.875
63203W        W31597  43.320  28.342   2.546
63204W        W31598  15.333   3.365  13.059
63205W        W31599  23.642  20.654   2.905
63206W        W31600  27.265   4.159   0.791
63207W        W31601  29.711   2.713  12.437
63208W        W31602   6.347  11.848   4.939
63209W        W31603  20.383  39.912   4.600
63210W        W31604  43.591  21.462  14.682
63211W        W31605  19.935  37.643  10.246
63212W        W31606  12.695   3.839  13.028
63213W        W31607  26.154  35.613  11.132
63214W        W31608  30.353  12.413  14.936
63215W        W31609  32.648  24.060   4.953
63216W        W31610  41.997  12.877   3.053
63217W        W31611  29.397  18.339  10.676
63218W        W31612  14.796  42.382   3.821
63219W        W31613  14.018  16.452   0.394
63220W        W31614   4.691   3.083  11.518
63221W        W31615   6.293  37.382  12.819
63222W        W31616  36.899   0.604   0.358
63223W        W31617  15.708   3.472   0.477
63224W        W31618   4.006  39.290   2.769
63225W        W31619   4.251  10.308   5.017
63226W        W31620  39.060  27.186   4.874
63227W        W31621   1.341  27.026  14.371
63228W        W31622  44.255  40.049   0.817
63229W        W31623  27.263  30.046   3.589
63230W        W31624  31.087  41.551  12.898
63231W        W31625  31.616  37.986   2.191
63232W        W31626   3.479  40.420   4.753
63233W        W31627  12.309  20.560  11.977
63234W        W31628  41.052  20.035   0.045
63235W        W31629   4.048  17.561   1.122
63236W        W31630   7.119  40.031   1.827
63237W        W31631   0.408  33.103   4.110
63238W        W31632   5.894   0.988  10.504
63239W        W31633  31.315  29.297   2.866
63240W        W31634  26.633  14.757   3.437
63241W        W31635   4.187  11.123  12.094
63242W        W31636  26.434  26.079  13.541
63243W        W31637  22.965  10.293   0.440
63244W        W31638   7.627   2.047   4.199
63245W        W31639   1.970  11.220  12.099
63246W        W31640   5.239  40.026  11.554
63247W        W31641  12.105  35.650  11.967
63248W        W31642   4.332  44.726   2.991
63249W        W31643   8.141  41.349  13.478
63250W        W31644  12.863  37.028  13.366
63251W        W31645  16.531  22.010  10.679
63252W        W31646  20.457  10.173   4.604
63253W        W31647  21.213  40.521  13.447
63254W        W31648  15.228  12.241   3.237
63255W        W31649  17.130  43.320  14.434
63256W        W31650  42.861  13.200  13.568
63257W        W31651  41.520  35.113  11.228
63258W        W31652  42.921   1.753  12.162
63259W        W31653  22.319  41.895   2.919
63260W        W31654  37.789  40.132   3.171
63261W        W31655  21.071  17.732   2.169
63262W        W31656   5.782  35.045   0.847
63263W        W31657   6.753  26.254   9.906
63264W        W31658  41.963  43.293   4.132
63265W        W31659  11.312  28.150   4.046
63266W        W31660  41.257  19.284   1.714
63267W        W31661  16.459  36.923  10.208
63268W        W31662  33.629  32.914  12.356
63269W        W31663   4.666  13.071  11.627
63270W        W31664  43.335  34.577  11.118
63271W        W31665  44.715   6.515   3.960
63272W        W31666  18.096  12.369  14.251
63273W        W31667  20.715   7.629  13.175
63274W        W31668  42.489  43.189   1.614
63275W        W31669   9.720  29.150  10.606
63276W        W31670  13.768  32.515  12.848
63277W        W31671   1.924  16.636   0.723
63278W        W31672  19.483  42.835   4.507
63279W        W31673  36.141  31.516   3.731
63280W        W31674  43.894   9.408   2.702
63281W        W31675  40.523  36.502  10.590
63282W        W31676  38.297  14.741   4.641
63283W        W31677   5.833  13.406  14.215
63284W        W31678  35.381  13.344   3.687
63285W        W31679  13.223  17.524  13.416
63286W        W31680  14.094  12.840   1.819
63287W        W31681  12.755  20.302   1.191
63288W        W31682  29.258  28.616  14.322
63289W        W31683  27.268  12.676  12.008
63290W        W31684  12.407  34.937   0.373
63291W        W31685   8.394   0.252   1.431
63292W        W31686  27.924  15.051   4.190
63293W        W31687  33.173  11.298   4.411
63294W        W31688  16.067  10.098   9.455
63295W        W31689   4.292  19.749   3.257
63296W        W31690  26.467   3.416   0.215
63297W        W31691   9.752  40.940   4.516
63298W        W31692  39.340  19.210   2.679
63299W        W31693  36.408  22.193  11.177
63300W        W31694  18.076  15.562  13.805
63301W        W31695  32.513   9.234   0.377
63302W        W31696  21.733  34.436   2.414
63303W        W31697  33.838   9.791  12.145
63304W        W31698  25.397  34.505   2.818
63305W        W31699   3.209  31.878   3.189
63306W        W31700  30.267  14.833  11.200
63307W        W31701  14.673  17.074  14.458
63308W        W31702  26.213   9.369   5.081
63309W        W31703  32.603  16.007  12.041
63310W        W31704  24.594   9.269  13.903
63311W        W31705  36.075  21.240   0.404
63312W        W31706  34.049  29.183  13.530
63313W        W31707  43.515  43.832   2.108
63314W        W31708   4.803  31.169   2.757
63315W        W31709  42.394  15.519  11.176
63316W        W31710  13.701  18.606   2.763
63317W        W31711  27.619  19.027  14.763
63318W        W31712  11.166  44.993   0.876
63319W        W31713  14.152  32.517   2.533
63320W        W31714  10.086  34.320   0.380
63321W        W31715  28.045   5.336  10.289
63322W        W31716  29.488  12.343  14.740
63323W        W31717  21.273  27.732   9.942
63324W        W31718  36.609  16.782   1.870
63325W        W31719  38.547  23.219   4.533
63326W        W31720  43.471  43.318   4.367
63327W        W31721  32.907  24.749   4.635
63328W        W31722   0.619  21.418   0.916
63329W        W31723  26.882  31.149   4.022
63330W        W31724  44.981  24.616  10.384
63331W        W31725  43.796  29.503   0.400
63332W        W31726   0.633  41.914  12.918
63333W        W31727  15.836  33.855   3.648
63334W        W31728   6.446  32.892  11.397
63335W        W31729  24.208  11.645  10.741
63336W        W31730  36.638   0.000   3.211
63337W        W31731  39.111  21.073   4.336
63338W        W31732  32.710  22.089  12.136
63339W        W31733  19.558  11.749  14.984
63340W        W31734  12.197   2.806   2.199
63341W        W31735   1.754  18.754   4.907
63342W        W31736  40.953   2.000  14.963
63343W        W31737  36.307  18.541  11.886
63344W        W31738  16.021  40.829   0.320
63345W        W31739   3.296  15.691   4.052
63346W        W31740  13.075  29.436  13.563
63347W        W31741  15.306  19.649   4.540
63348W        W31742   0.039  20.154  13.459
63349W        W31743  34.350  32.866   1.744
63350W        W31744  35.109  44.921   0.382
63351W        W31745  42.267  42.438   1.880
63352W        W31746  24.078  39.485  11.222
63353W        W31747  12.729  14.321  13.234
63354W        W31748   2.829   6.880   4.716
63355W        W31749  22.612  33.502  13.021
63356W        W31750   8.558  12.616   0.763
63357W        W31751  25.714  43.808  12.810
63358W        W31752  31.465   9.406  14.463
63359W        W31753   0.040  13.175   3.262
63360W        W31754  24.471  15.567  12.073
63361W        W31755  21.088  13.732   4.670
63362W        W31756  27.487  42.095   1.243
63363W        W31757  21.481  26.097   1.728
63364W        W31758  39.023  41.654  11.024
63365W        W31759  25.536   6.325  13.588
63366W        W31760  11.374   0.916   0.495
63367W        W31761  33.595  11.764   0.711
63368W        W31762  26.100  40.212   2.575
63369W        W31763  14.120  21.815   2.532
63370W        W31764  25.585  27.118   1.662
63371W        W31765  33.897   6.279  12.359
63372W        W31766  13.635  36.590  10.536
63373W        W31767  14.729   1.741   0.347
63374W        W31768  31.367  30.638  12.567
63375W        W31769  40.600  31.004   4.270
63376W        W31770  42.502  35.781  12.031
63377W        W31771  25.089  20.993  13.846
63378W        W31772   0.984  20.519  14.337
63379W        W31773   7.775  39.308  12.431
63380W        W31774  37.923  19.276   0.948
63381W        W31775  29.986  10.151  11.450
63382W        W31776  34.447  22.993  14.094
63383W        W31777   5.886   8.929  14.512
63384W        W31778  32.499  36.573  11.008
63385W        W31779  43.256  26.531   4.196
63386W        W31780  35.429  26.803   3.229
63387W        W31781  38.067  16.867  11.568
63388W        W31782  28.765  31.892   4.660
63389W        W31783  18.373  40.421  14.369
63390W        W31784   4.984   0.849  11.219
63391W        W31785  24.313  41.764  14.370
63392W        W31786  10.227  36.697   5.089
63393W        W31787   4.955  22.643  10.376
63394W        W31788  29.044  14.220   3.626
63395W        W31789  20.287  27.093   3.167
63396W        W31790   0.720  11.108   0.833
63397W        W31791  44.510  15.298   3.271
63398W        W31792   5.912  29.415  13.540
63399W        W31793  24.789  33.486  10.664
63400W        W31794  39.849   9.607   0.345
63401W        W31795   4.051  40.953   0.996
63402W        W31796  38.096  34.423  13.109
63403W        W31797  41.576   4.815   1.211
63404W        W31798  22.879  19.333  11.101
63405W        W31799  25.153   6.709   1.673
63406W        W31800  28.147  39.109   4.368
63407W        W31801   2.761  26.699   2.701
63408W        W31802  31.539  43.147  14.059
63409W        W31803  24.185  37.958  14.360
63410W        W31804   8.016  21.739  14.483
63411W        W31805  43.906  26.739   1.353
63412W        W31806  23.516  35.534   0.726
63413W        W31807  39.478  37.891  11.263
63414W        W31808   4.346  27.032   2.807
63415W        W31809   2.249  14.376  10.930
63416W        W31810  33.062   3.602  11.208
63417W        W31811  44.903  39.139   4.182
63418W        W31812  17.088  14.196   1.715
63419W        W31813   2.261  20.731  11.004
63420W        W31814   4.008   8.097  13.074
63421W        W31815  33.461  12.003  14.757
63422W        W31816  15.287  11.233   1.871
63423W        W31817  36.327   2.747   2.486
63424W        W31818  32.208  18.181   9.907
63425W        W31819   3.735  17.713   0.144
63426W        W31820  34.193  43.446   2.098
63427W        W31821  37.962   4.504  11.306
63428W        W31822  26.902  32.976   2.099
63429W        W31823  35.792   5.887   1.250
63430W        W31824  26.457  24.668  10.516
63431W        W31825  41.483  36.195   5.571
63432W        W31826  15.612  26.512  11.715
63433W        W31827  13.267  12.568  11.565
63434W        W31828  16.689  28.739  11.092
63435W        W31829   5.428  41.448  11.986
63436W        W31830  36.798  15.161  14.797
63437W        W31831   3.858  38.128   4.178
63438W        W31832  26.569  28.922  10.809
63439W        W31833  12.312  11.772   2.676
63440W        W31834  39.800   4.943  12.571
63441W        W31835  35.591  39.780  14.291
63442W        W31836  10.692   8.674   2.848
63443W        W31837   9.321  26.454   1.250
63444W        W31838   4.111  18.498   3.306
63445W        W31839  43.043   4.157   0.458
63446W        W31840  25.818  23.299  11.136
63447W        W31841  20.731  41.007  14.015
63448W        W31842  44.048  24.548  14.475
63449W        W31843  31.347   8.920  12.485
63450W        W31844   5.931  18.961  12.815
63451W        W31845  27.204  35.455   3.051
63452W        W31846  42.528  41.255  11.429
63453W        W31847   8.815  34.586   2.146
63454W        W31848  21.288  33.504  14.871
63455W        W31849  43.368  24.744  12.150
63456W        W31850  37.474   7.987   3.263
63457W        W31851  10.269  40.856   4.459
63458W        W31852  41.534  29.073   2.202
63459W        W31853  11.425  13.650  12.057
63460W        W31854  28.570  17.754   0.387
63461W        W31855  40.806  19.478   1.870
63462W        W31856   5.591  41.912   2.765
63463W        W31857  28.698  39.882   0.514
63464W        W31858  40.510  31.304  13.930
63465W        W31859  40.007  30.500  13.917
63466W        W31860   5.406   4.778  14.098
63467W        W31861  22.746  16.714  10.753
63468W        W31862  24.607  31.916   3.769
63469W        W31863  32.160  20.149   2.714
63470W        W31864  17.955  20.754   3.848
63471W        W31865   5.488   1.366   0.347
63472W        W31866  20.463   1.470  11.806
63473W        W31867  22.950  21.658   4.082
63474W        W31868  25.932  14.290   3.594
63475W        W31869   9.925  16.783  13.807
63476W        W31870  17.394  27.337  11.101
63477W        W31871   4.147   4.456  10.242
63478W        W31872  32.051  35.932   3.643
63479W        W31873   3.174   3.058  14.741
63480W        W31874  30.456  24.130   1.854
63481W        W31875  13.333  28.048  13.303
63482W        W31876  29.567  41.033   0.803
63483W        W31877  29.680  22.019   2.359
63484W        W31878  44.359  42.113   0.940
63485W        W31879  35.713   4.634  14.013
63486W        W31880   4.295  39.286   2.329
63487W        W31881  36.559  20.220  14.707
63488W        W31882  33.095  42.457  10.295
63489W        W31883  14.799  25.880   4.246
63490W        W31884  28.646  23.094   2.459
63491W        W31885  34.077  34.887   4.566
63492W        W31886  30.418   4.853   4.941
63493W        W31887  12.476   7.812  13.101
63494W        W31888  22.764  34.933   5.126
63495W        W31889   6.128  35.578  14.438
63496W        W31890  40.056  40.245  13.538
63497W        W31891  29.542  23.021   1.412
63498W        W31892   5.409  44.931  12.783
63499W        W31893  33.189   4.315   4.586
63500W        W31894  41.867   9.227  11.719
63501W        W31895  25.181   3.739  13.181
63502W        W31896  13.342  10.229  11.572
63503W        W31897  15.260  32.405   2.663
63504W        W31898  41.776  37.975  10.821
63505W        W31899   8.300   4.698   3.483
63506W        W31900  11.898  13.760   2.302
63507W        W31901  10.610  14.388   3.327
63508W        W31902  26.958   6.811  14.437
63509W        W31903   2.389  31.097  13.754
63510W        W31904  44.308  37.935  13.312
63511W        W31905  34.976  18.162  13.530
63512W        W31906  35.136   1.457   1.405
63513W        W31907  32.899  29.601   1.162
63514W        W31908  39.292  31.659  11.581
63515W        W31909  41.556  34.599  11.350
63516W        W31910  41.727  26.434  11.725
63517W        W31911  35.556  12.791   4.655
63518W        W31912  23.709   0.776  14.643
63519W        W31913  15.141  10.225   1.740
63520W        W31914   2.738  14.885  11.543
63521W        W31915  29.798  36.617  12.120
63522W        W31916  13.180  13.932  11.925
63523W        W31917  15.176  24.123   3.564
63524W        W31918   4.875   7.692   0.656
63525W        W31919  37.188  39.109  11.286
63526W        W31920  40.747  15.163  11.177
63527W        W31921  21.659  37.579   3.705
63528W        W31922  28.947   4.928  11.407
63529W        W31923  14.891  38.844   9.823
63530W        W31924  22.367  43.551  11.855
63531W        W31925  18.726   3.348   1.228
63532W        W31926  15.310  38.562  11.559
63533W        W31927  19.695  23.076   4.888
63534W        W31928  24.115   6.669   3.156
63535W        W31929  10.171  32.348  10.670
63536W        W31930   6.162   2.373  14.894
63537W        W31931   5.220   2.854  12.444
63538W        W31932   6.002  17.686   4.206
63539W        W31933  42.505  38.626  13.587
63540W        W31934  21.271  44.417   0.907
63541W        W31935  20.606   0.812  12.921
63542W        W31936  25.615   6.310  14.096
63543W        W31937  42.480  21.527  13.451
63544W        W31938  10.340  44.579   4.106
63545W        W31939  31.944  17.305   2.660
63546W        W31940  12.258   2.172  12.948
63547W        W31941  19.573   2.761   2.291
63548W        W31942  29.723  39.210  10.435
63549W        W31943  36.956  11.676  13.491
63550W        W31944  11.748  31.864   4.030
63551W        W31945  26.164   1.519   2.227
63552W        W31946   0.231  18.440   0.941
63553W        W31947  13.155  38.410   0.836
63554W        W31948  38.746  36.113  14.321
63555W        W31949  39.361  28.947   0.900
63556W        W31950   7.747  17.243   2.298
63557W        W31951   1.027  27.593  10.578
63558W        W31952   3.286  20.134   4.267
63559W        W31953   6.342  11.605   2.934
63560W        W31954  37.594   8.184   0.459
63561W        W31955  18.047   3.667   4.133
63562W        W31956   9.330  35.642  12.564
63563W        W31957   2.532  33.894  14.028
63564W        W31958  37.570  28.588  14.858
63565W        W31959  29.473  19.157  14.802
63566W        W31960   0.957  27.287  12.983
63567W        W31961  39.419  10.449  14.390
63568W        W31962  12.106  32.135  14.394
63569W        W31963  28.894  15.087   4.263
63570W        W31964  40.597   7.302   0.427
63571W        W31965  22.614   1.439   2.889
63572W        W31966  15.388  43.263   2.289
63573W        W31967  32.901  32.903  10.470
63574W        W31968   9.598  12.404   4.473
63575W        W31969  20.284  19.893   2.303
63576W        W31970  26.830  21.230   4.696
63577W        W31971   2.383  29.380  11.095
63578W        W31972   3.928  19.561   4.261
63579W        W31973  14.305  24.480  11.088
63580W        W31974  17.347   8.375   5.195
63581W        W31975   3.964  30.585  13.498
63582W        W31976  19.048   5.317   3.591
63583W        W31977  39.572  32.556   2.867
63584W        W31978  23.309  17.740   2.750
63585W        W31979   5.157   5.913  11.202
63586W        W31980  13.407   6.271  13.104
63587W        W31981  31.603  31.123   3.411
63588W        W31982  36.546   5.800  11.049
63589W        W31983   6.435  36.503   1.499
63590W        W31984  16.125  12.103  14.917
63591W        W31985  12.692  23.061   0.742
63592W        W31986  27.051   4.780   1.534
63593W        W31987  20.744  26.013  10.646
63594W        W31988  29.126   7.154  12.245
63595W        W31989   1.599   9.762   3.999
63596W        W31990  35.744  25.867  12.524
63597W        W31991  20.839  31.538  12.040
63598W        W31992  13.894  10.239  10.744
63599W        W31993   6.213  42.379  13.219
63600W        W31994  32.929  43.856   4.731
63601W        W31995  32.164  35.573  10.978
63602W        W31996  31.822  27.921  14.252
63603W        W31997   1.242   6.123   1.905
63604W        W31998  22.605  30.681   3.856
63605W        W31999   9.179  36.047   5.088
63606W        W32000   8.422  24.648   3.147
63607W        W32001   4.380  44.381  13.148
63608W        W32002  22.083  21.647   0.304
63609W        W32003  28.627   2.716  12.740
63610W        W32004  43.661  28.173  14.428
63611W        W32005   0.345  37.407   2.858
63612W        W32006  11.601  26.964   0.866
63613W        W32007  32.673  37.919   0.433
63614W        W32008  31.414  41.041   0.814
63615W        W32009  12.859  10.407   0.842
63616W        W32010   7.871  37.899   1.612
63617W        W32011   6.051   2.141   9.765
63618W        W32012  30.143  12.890   1.398
63619W        W32013   4.805  35.583   3.468
63620W        W32014  15.021  29.872   4.849
63621W        W32015  39.363  31.608  14.504
63622W        W32016   2.994   9.657   2.356
63623W        W32017  40.037  13.847   2.185
63624W        W32018  17.281  28.491  12.177
63625W        W32019  10.851  11.703  13.523
63626W        W32020  23.078  31.609   3.734
63627W        W32021  34.430  10.752   3.440
63628W        W32022  32.892  11.264  13.956
63629W        W32023  27.959  39.022  12.033
63630W        W32024  12.257  12.801  14.534
63631W        W32025   1.022   6.733   0.738
63632W        W32026  13.059  41.100   4.523
63633W        W32027  44.788  43.942  12.466
63634W        W32028  35.946   6.399   1.262
63635W        W32029  30.146   2.115   3.028
63636W        W32030  40.101  17.089  11.117
63637W        W32031  42.980  27.896   0.347
63638W        W32032  25.866  29.073  13.570
63639W        W32033  10.176  34.864   4.135
63640W        W32034  21.588  12.916   3.139
63641W        W32035  25.909  28.467   2.757
63642W        W32036  24.173  11.679   3.265
63643W        W32037   4.777  31.845  13.553
63644W        W32038  43.756   2.309   4.394
63645W        W32039  18.684  13.545   1.215
63646W        W32040  28.450  20.283  11.132
63647W        W32041   6.817  36.670   3.835
63648W        W32042  42.012  27.144  12.364
63649W        W32043   9.122   7.474  10.772
63650W        W32044  24.532   4.880  11.556
63651W        W32045  31.406   0.494   0.337
63652W        W32046  37.873  35.393  12.903
63653W        W32047  34.515   0.732   3.268
63654W        W32048  32.689  20.763  12.102
63655W        W32049   8.393  26.743  14.957
63656W        W32050  39.629  24.611   3.039
63657W        W32051   2.762  29.269  12.855
63658W        W32052  36.621  11.211   4.071
63659W        W32053  40.481  43.461  12.938
63660W        W32054  42.909   7.284  11.648
63661W        W32055  23.068  15.054   0.908
63662W        W32056   8.628  31.442  12.939
63663W        W32057  29.515   4.986   3.774
63664W        W32058  23.499  41.227  10.718
63665W        W32059  25.508  26.326   3.114
63666W        W32060   8.789  14.443  10.337
63667W        W32061  38.825  35.173  13.256
63668W        W32062   1.522  32.937   2.720
63669W        W32063  30.499  44.485   2.949
63670W        W32064  23.835  18.773  12.544
63671W        W32065   8.308  39.407   2.911
63672W        W32066  42.175  10.115  12.439
63673W        W32067  15.076   7.175   3.317
63674W        W32068   7.580  26.038   1.192
63675W        W32069  23.646  32.380  12.438
63676W        W32070  17.223   4.392  14.992
63677W        W32071   8.871  32.992  10.974
63678W        W32072  20.583  18.644   3.840
63679W        W32073  11.675  39.513  13.932
63680W        W32074  17.337   1.204   2.748
63681W        W32075  28.995  36.006  12.372
63682W        W32076   7.267  39.142   1.897
63683W        W32077  14.094  18.686   3.843
63684W        W32078  29.716  25.681  14.114
63685W        W32079  15.330  33.034   1.875
63686W        W32080  24.219   3.227   3.667
63687W        W32081  29.285  37.503  10.670
63688W        W32082  16.030  33.250   2.418
63689W        W32083  42.832  26.949  14.305
63690W        W32084  33.520  34.464  12.872
63691W        W32085  43.750  25.222  11.648
63692W        W32086  44.325  39.904   4.657
63693W        W32087  11.987   3.209   1.456
63694W        W32088  21.121  39.749  13.967
63695W        W32089  12.197  42.015  14.787
63696W        W32090   0.837   4.985  10.712
63697W        W32091  27.085   3.662  13.333
63698W        W32092  42.871  35.824   1.482
63699W        W32093  39.216  34.553  11.240
63700W        W32094   6.679  18.109  14.767
63701W        W32095  32.715  32.680   3.331
63702W        W32096  29.439   5.886   4.658
63703W        W32097   0.076  15.552  13.769
63704W        W32098   1.516  30.903   0.738
63705W        W32099  11.629   0.930  14.597
63706W        W32100  20.701  14.799  14.586
63707W        W32101   7.866   5.667  14.113
63708W        W32102  11.801  43.215   4.100
63709W        W32103   1.895  19.571  12.879
63710W        W32104  32.710  33.397  10.394
63711W        W32105  40.239   6.886  10.636
63712W        W32106  39.497  18.823  11.629
63713W        W32107  12.776  24.070   2.267
63714W        W32108  44.177   8.308  10.158
63715W        W32109  39.872  19.293   2.712
63716W        W32110  19.805  19.858  10.948
63717W        W32111  13.243   4.825  13.413
63718W        W32112  33.029  32.625   2.324
63719W        W32113  17.113   3.016   4.992
63720W        W32114  42.317  19.180  10.530
63721W        W32115   3.258   1.910   1.366
63722W        W32116  43.544  32.361   1.592
63723W        W32117   6.915  28.802  12.870
63724W        W32118  21.717   0.866  13.111
63725W        W32119  43.854  34.940   4.869
63726W        W32120  12.370  28.479  14.593
63727W        W32121  33.055   2.057  13.399
63728W        W32122  22.011  19.627   3.178
63729W        W32123  22.234  14.641   2.239
63730W        W32124  35.401  30.985   0.702
63731W        W32125  19.165  36.376   2.372
63732W        W32126  42.773  35.174   3.691
63733W        W32127  39.644   3.938  14.730
63734W        W32128   3.270  32.257   4.200
63735W        W32129  39.308   6.868   4.973
63736W        W32130  27.206   9.303   0.314
63737W        W32131  17.591  20.631  13.796
63738W        W32132  34.793  21.499   4.888
63739W        W32133  17.155  18.988  14.870
63740W        W32134  10.288  38.828  14.797
63741W        W32135  37.793   1.670  13.954
63742W        W32136  42.094  11.232   3.607
63743W        W32137  25.621  11.701   1.451
63744W        W32138  39.409  36.620  10.697
63745W        W32139  34.606  41.129  13.143
63746W        W32140  32.052   2.480  13.455
63747W        W32141  28.026  37.210   4.053
63748W        W32142  13.315  29.605  12.622
63749W        W32143  29.527  34.434  12.083
63750W        W32144  42.901  28.559  14.215
63751W        W32145  10.249  31.865   1.348
63752W        W32146  26.632  43.283   4.578
63753W        W32147  38.816  29.395  13.917
63754W        W32148   0.861   0.960   3.399
63755W        W32149  19.138  22.871   5.020
63756W        W32150  26.028   2.360  13.866
63757W        W32151  26.129  33.377  11.490
63758W        W32152  42.043  11.343  11.284
63759W        W32153  36.471  30.471   0.240
63760W        W32154   9.179  29.201  11.926
63761W        W32155  22.883  25.712  14.761
63762W        W32156   7.907  31.239   2.485
63763W        W32157  13.202  41.077   0.985
63764W        W32158  35.515  41.487   1.859
63765W        W32159  38.311  26.197   0.344
63766W        W32160  19.310  23.094   3.365
63767W        W32161  18.692   2.023  12.009
63768W        W32162  34.962  29.376  13.795
63769W        W32163  23.100  35.884   5.242
63770W        W32164  18.116  13.308  12.824
63771W        W32165  36.596  44.858   2.292
63772W        W32166  38.099  17.159   0.001
63773W        W32167  21.249  31.921  12.097
63774W        W32168  44.498   8.423  11.645
63775W        W32169   1.515   8.490   4.928
63776W        W32170   6.647  31.737  12.268
63777W        W32171   3.457  12.385  12.079
63778W        W32172  16.808   8.737   1.629
63779W        W32173  23.760   9.859   1.218
63780W        W32174  30.109  18.986   2.206
63781W        W32175  43.255  36.001   2.256
63782W        W32176  14.221   3.332  10.347
63783W        W32177  26.405  42.058   4.116
63784W        W32178  18.068  34.322  12.445
63785W        W32179   8.882  37.445  12.280
63786W        W32180  31.066   6.102   2.194
63787W        W32181  13.788  35.870  13.386
63788W        W32182  30.004  38.288   1.905
63789W        W32183  34.461  33.591   2.421
63790W        W32184   2.294  38.917   3.586
63791W        W32185  12.559   5.457   4.200
63792W        W32186  28.957  42.301   1.879
63793W        W32187  30.931   1.480  13.383
63794W        W32188   6.673  34.182  12.273
63795W        W32189  13.770   2.809   3.945
63796W        W32190  37.424   2.185  11.180
63797W        W32191  42.577   2.520   0.696
63798W        W32192  19.015  32.104  11.496
63799W        W32193  27.127  40.015  12.624
63800W        W32194  38.189  13.875   2.751
63801W        W32195  38.169  30.910  12.117
63802W        W32196  32.650  18.326   1.772
63803W        W32197   2.977   9.871  11.086
63804W        W32198  42.323   2.336  14.125
63805W        W32199  41.568   8.230   1.365
63806W        W32200  28.644  44.873  13.524
63807W        W32201  34.378  12.650  12.374
63808W        W32202  23.993   3.285  12.156
63809W        W32203  16.149  44.535  13.945
63810W        W32204   5.793   8.824  11.474
63811W        W32205  21.888   5.220  10.938
63812W        W32206   6.347  27.357   1.415
63813W        W32207  18.783   7.846   4.136
63814W        W32208  13.902  14.185   3.132
63815W        W32209   4.935  39.967  13.847
63816W        W32210   4.524  26.981   9.925
63817W        W32211  44.297  44.403  11.026
63818W        W32212  20.531  38.563  12.961
63819W        W32213  40.615  13.182  11.489
63820W        W32214  24.082   4.899   1.883
63821W        W32215  36.787  43.549   2.741
63822W        W32216  33.051  29.573  12.756
63823W        W32217  20.727   4.586  13.214
63824W        W32218  33.052  44.435  13.905
63825W        W32219   9.316   0.449   1.568
63826W        W32220  40.610  33.403  10.307
63827W        W32221  29.750  35.756   2.359
63828W        W32222  43.779  33.530   4.191
63829W        W32223  33.102  20.316   3.735
63830W        W32224  41.017   1.372   3.136
63831W        W32225  27.143   3.591   3.286
63832W        W32226  44.218  20.245  11.572
63833W        W32227  28.061   9.627   9.812
63834W        W32228  41.534  37.287   1.188
63835W        W32229  10.299  13.187   2.817
63836W        W32230  33.507   4.704  13.583
63837W        W32231  10.581  44.813  12.383
63838W        W32232  10.703  10.595   2.357
63839W        W32233  16.738   3.279   3.636
63840W        W32234  36.461  10.107  11.543
63841W        W32235  39.958  32.786   3.174
63842W        W32236  18.550  24.089   4.638
63843W        W32237   1.898   8.504  13.048
63844W        W32238  15.141  10.364   3.612
63845W        W32239  25.637   6.730  11.656
63846W        W32240  10.006  14.197   4.126
63847W        W32241   9.704   2.475  11.324
63848W        W32242  34.386  34.551  13.845
63849W        W32243  41.031  13.623  14.530
63850W        W32244  37.430  27.195  14.912
63851W        W32245   5.240  16.253  14.291
63852W        W32246   3.035  27.428   1.329
63853W        W32247  37.947  17.572   0.930
63854W        W32248  29.694  39.306   2.751
63855W        W32249  14.752  35.204  11.014
63856W        W32250  43.936  14.396  14.012
63857W        W32251  14.572  37.594   1.230
63858W        W32252   8.838  31.254   1.372
63859W        W32253  26.978  34.553  12.246
63860W        W32254  14.640  16.638   4.774
63861W        W32255  26.920   0.526   1.444
63862W        W32256  36.284  26.538   9.793
63863W        W32257  14.996  10.728  11.652
63864W        W32258  31.960   1.245   1.770
63865W        W32259  18.290  37.381   3.635
63866W        W32260   3.756  25.514  14.415
63867W        W32261   7.925  21.524   4.279
63868W        W32262  23.710  12.962   4.566
63869W        W32263  31.507  41.009  10.803
63870W        W32264  23.513   8.352  13.979
63871W        W32265  40.341  11.700  13.132
63872W        W32266  37.480  22.030  13.727
63873W        W32267   9.866  16.186   0.402
63874W        W32268  26.705  24.271   2.283
63875W        W32269   8.061  36.535   4.595
63876W        W32270  31.113  36.018   0.357
63877W        W32271  43.231  17.018   9.976
63878W        W32272   9.819  36.427   3.065
63879W        W32273  21.205  41.357  13.333
63880W        W32274   5.933   4.415  14.977
63881W        W32275  26.059  32.049   2.429
63882W        W32276  25.971  43.396  12.995
63883W        W32277  18.474  40.365   1.816
63884W        W32278   1.269  35.152   0.910
63885W        W32279  20.693  23.971  11.546
63886W        W32280  30.577  27.489  10.689
63887W        W32281  40.053   9.746   3.940
63888W        W32282  33.064  16.442   4.101
63889W        W32283   3.410  34.377   3.296
63890W        W32284  27.137  27.998   0.292
63891W        W32285  23.405  26.630   3.320
63892W        W32286  35.418  41.983   2.231
63893W        W32287  36.451   4.450   2.171
63894W        W32288  18.558  43.327   2.750
63895W        W32289  31.000  21.776   2.010
63896W        W32290  24.166  34.537  11.414
63897W        W32291  15.901  32.255   5.013
63898W        W32292   7.876  42.085   3.787
63899W        W32293  38.470  20.041   4.580
63900W        W32294  28.952  31.635  13.747
63901W        W32295  32.467   1.563  11.465
63902W        W32296  36.362  25.202   1.248
63903W        W32297  15.852  29.411  14.477
63904W        W32298  20.522  21.824  11.916
63905W        W32299  23.181  32.135   3.769
63906W        W32300  36.560  32.554   1.373
63907W        W32301  21.767  38.072  12.928
63908W        W32302  42.296   2.171   0.352
63909W        W32303   0.351  21.186  12.040
63910W        W32304  26.014  17.103  13.223
63911W        W32305  15.674  21.632   4.156
63912W        W32306   1.368  25.061  14.568
63913W        W32307   9.617   7.853  13.037
63914W        W32308  39.029  43.735   1.369
63915W        W32309   8.408  15.624   0.881
63916W        W32310  42.663  13.046   3.606
63917W        W32311   2.978   1.504   3.852
63918W        W32312  17.667  24.903   0.475
63919W        W32313   1.516  37.899  10.727
63920W        W32314   1.853   3.712   1.359
63921W        W32315  37.341  14.327  10.315
63922W        W32316  35.944  16.964  14.885
63923W        W32317  35.320  22.680  12.535
63924W        W32318  15.426  29.652  13.246
63925W        W32319  21.252   0.888   3.304
63926W        W32320  41.488  43.428  12.119
63927W        W32321   5.210  14.111   3.567
63928W        W32322  25.098  30.166  14.826
63929W        W32323   1.403  17.203  14.286
63930W        W32324   1.012   1.439   1.197
63931W        W32325   8.416   5.983   2.201
63932W        W32326  38.640  43.006   3.519
63933W        W32327  29.638   7.447  13.988
63934W        W32328   7.765  33.320   4.326
63935W        W32329  40.952  10.745  10.752
63936W        W32330   9.287   4.621   3.695
63937W        W32331  29.981  19.044  14.746
63938W        W32332   3.491  36.631   1.949
63939W        W32333  12.775   7.220  11.252
63940W        W32334  31.908  13.570  13.400
63941W        W32335  23.313  22.267  14.403
63942W        W32336  22.502   5.707   4.499
63943W        W32337  31.090  36.373   4.447
63944W        W32338  29.418  31.676   3.289
63945W        W32339  12.727   7.378   1.427
63946W        W32340  12.511   2.350   1.464
63947W        W32341  42.374   2.017   2.308
63948W        W32342  28.493   2.583   4.573
63949W        W32343  42.514   0.397   0.974
63950W        W32344  21.880   3.281   3.332
63951W        W32345  18.252  17.152   2.288
63952W        W32346   1.391  28.925  14.585
63953W        W32347  29.224  30.977   0.848
63954W        W32348   7.165  23.478   1.476
63955W        W32349  10.377   4.739  14.803
63956W        W32350   7.773   9.273   4.433
63957W        W32351  21.764  39.492  13.392
63958W        W32352   4.689   1.794  14.380
63959W        W32353  22.081  37.962   3.361
63960W        W32354  31.521  39.716  14.351
63961W        W32355  28.851  39.996  12.011
63962W        W32356  21.499  36.803  14.683
63963W        W32357   3.258  26.940  12.500
63964W        W32358  32.598  36.724  12.894
63965W        W32359  12.110  36.800   1.917
63966W        W32360  13.259  39.681   3.984
63967W        W32361   9.503   5.409   1.714
63968W        W32362  43.424   8.359  12.786
63969W        W32363   4.919  11.165  13.144
63970W        W32364  26.167  34.207  12.937
63971W        W32365  11.072   9.476   3.344
63972W        W32366  29.982   0.851   2.164
63973W        W32367  42.354   2.492   2.087
63974W        W32368  31.450  35.539  13.055
63975W        W32369   5.237  44.240   1.720
63976W        W32370  33.890  13.881   1.363
63977W        W32371  24.206  14.752   3.468
63978W        W32372  36.351  13.279  11.150
63979W        W32373  34.397   4.460   3.215
63980W        W32374  15.743  25.714  10.615
63981W        W32375  38.510  39.634   3.613
63982W        W32376  22.418  32.855  11.029
63983W        W32377   4.473  36.898  12.105
63984W        W32378  26.015   0.767   2.726
63985W        W32379  23.794  14.923   1.256
63986W        W32380  10.753  37.407   4.832
63987W        W32381  12.747  26.444   4.519
63988W        W32382  44.348  24.179   0.688
63989W        W32383  25.609  34.188  13.020
63990W        W32384  26.927  37.439   2.967
63991W        W32385  36.599  36.097   0.154
63992W        W32386  13.549  13.164   4.098
63993W        W32387  37.977  35.064  14.380
63994W        W32388   3.261  29.649  11.147
63995W        W32389  26.791   8.949   2.199
63996W        W32390  27.201  29.097   3.465
63997W        W32391  15.825  41.398   2.310
63998W        W32392   7.785  33.662  10.651
63999W        W32393  44.403  43.534   0.764
64000W        W32394  38.134  39.011  11.638
64001W        W32395   9.532  19.027   2.303
64002W        W32396  18.078   8.927   0.740
64003W        W32397  27.505  38.356   3.649
64004W        W32398  24.570  34.133   1.818
64005W        W32399  12.101  28.051  11.003
64006W        W32400  37.935  32.814  13.841
64007W        W32401  36.086  15.608  12.476
64008W        W32402  21.125  34.371   4.638
64009W        W32403   7.172  35.916   1.401
64010W        W32404  32.953   7.177  13.286
64011W        W32405  25.959  36.562  14.429
64012W        W32406  44.524  37.632  10.786
64013W        W32407  22.808  20.264   3.154
64014W        W32408  30.172  26.518   2.762
64015W        W32409  28.077  34.561  14.359
64016W        W32410  13.694  29.999  12.033
64017W        W32411  19.790  28.211   1.398
64018W        W32412  33.121  15.866   4.686
64019W        W32413  43.362  34.033  10.427
64020W        W32414  18.737  41.472   0.317
64021W        W32415   2.709  13.165  11.478
64022W        W32416  41.461  13.856  13.898
64023W        W32417  38.561  10.421   3.185
64024W        W32418  27.375  31.161  14.463
64025W        W32419  21.219  13.146  10.300
64026W        W32420  36.859  44.565  12.601
64027W        W32421  37.456  23.094  10.827
64028W        W32422  16.123  24.404   2.827
64029W        W32423  44.051  38.050   2.604
64030W        W32424  26.005  15.892  14.854
64031W        W32425  13.215  10.162  14.974
64032W        W32426  26.246   3.016  14.945
64033W        W32427  15.680  43.698  11.198
64034W        W32428  41.350   3.361   2.764
64035W        W32429   3.222   3.801   2.412
64036W        W32430  42.038  39.461   1.325
64037W        W32431  15.294  13.258  13.865
64038W        W32432   7.367  14.140   4.220
64039W        W32433  40.655  24.406  14.844
64040W        W32434   2.181  16.725  13.867
64041W        W32435  27.478  37.373   4.683
64042W        W32436   5.894  15.278  10.039
64043W        W32437  27.226  14.727   2.764
64044W        W32438  41.428  44.169   2.435
64045W        W32439  31.999  43.865  12.099
64046W        W32440   1.503   9.898  14.879
64047W        W32441  17.754   3.218  14.883
64048W        W32442   1.077  10.406   1.317
64049W        W32443  18.754  32.962   4.258
64050W        W32444  21.374  23.557   4.530
64051W        W32445  12.021  20.737  11.045
64052W        W32446  24.318  30.979   3.599
64053W        W32447  36.585  40.452   3.155
64054W        W32448  16.162  24.467  11.483
64055W        W32449  40.728   6.489  12.631
64056W        W32450  15.285  37.129  11.973
64057W        W32451   3.302  26.149  14.971
64058W        W32452  41.602  39.806   2.067
64059W        W32453  39.557  33.325  13.905
64060W        W32454   1.043  12.139  11.115
64061W        W32455  24.496   0.970   2.737
64062W        W32456   1.431  44.769  11.673
64063W        W32457  35.155  41.603   2.742
64064W        W32458  27.671  44.518   0.015
64065W        W32459  11.966  44.279   4.836
64066W        W32460  19.547  25.641   0.037
64067W        W32461  18.331   2.930   2.749
64068W        W32462  25.474  11.498  13.814
64069W        W32463  12.829  21.617   3.226
64070W        W32464   9.193  14.377  13.990
64071W        W32465   4.708  29.891  13.463
64072W        W32466  23.208   3.708  11.183
64073W        W32467  21.301   7.393   3.304
64074W        W32468  11.596  43.463  10.914
64075W        W32469   4.002  15.176   3.094
64076W        W32470  41.532   7.186   2.861
64077W        W32471  42.856  33.139  14.983
64078W        W32472   7.948  12.729  10.675
64079W        W32473   4.008   2.219  11.026
64080W        W32474   0.690  40.033   1.315
64081W        W32475  28.101  24.182  14.887
64082W        W32476  31.613  22.132  11.605
64083W        W32477  20.759  41.509  13.121
64084W        W32478  34.446  34.469  14.362
64085W        W32479  37.313  16.780  11.161
64086W        W32480   9.627  25.024   3.634
64087W        W32481  23.714  39.359  10.406
64088W        W32482  15.148  25.166   0.811
64089W        W32483   9.052  42.357  11.654
64090W        W32484   4.957   4.238  11.944
64091W        W32485  27.421  12.357  12.407
64092W        W32486  31.273  28.072   5.267
64093W        W32487  36.780  11.365  11.548
64094W        W32488  23.888  44.756   2.327
64095W        W32489   8.278  10.253  14.853
64096W        W32490  38.922  25.900  11.973
64097W        W32491   4.152  20.369  13.027
64098W        W32492  34.939  10.734   2.231
64099W        W32493  11.678   0.393   3.998
64100W        W32494  44.456  34.713  14.582
64101W        W32495  41.720  29.942   1.665
64102W        W32496   6.431  24.051  14.888
64103W        W32497  31.416   9.095   4.136
64104W        W32498   8.727  12.995   2.473
64105W        W32499  26.894   7.312  12.579
64106W        W32500   8.800  43.738  11.278
64107W        W32501  14.590  25.792   1.117
64108W        W32502  33.565  30.703   1.397
64109W        W32503  14.542  33.640   3.670
64110W        W32504  26.663  41.356  11.571
64111W        W32505  30.134  19.719  11.047
64112W        W32506  20.905  31.776   1.270
64113W        W32507  29.528  43.623  11.297
64114W        W32508  32.227  15.864   2.738
64115W        W32509  26.521  37.146  10.443
64116W        W32510  27.590  12.193  11.958
64117W        W32511  31.490  34.948  11.083
64118W        W32512  10.085  21.160  14.378
64119W        W32513  39.451  28.064   2.800
64120W        W32514  39.336  34.949  14.514
64121W        W32515  27.306  24.182  11.046
64122W        W32516  34.074   5.192   2.394
64123W        W32517  38.449  20.617  10.684
64124W        W32518  20.245  16.374   2.375
64125W        W32519   0.470  10.290  13.367
64126W        W32520  22.920   8.726   1.909
64127W        W32521  20.735  41.834   3.142
64128W        W32522  22.280   0.115   4.152
64129W        W32523  18.218  12.035  12.484
64130W        W32524  34.671   8.923   1.997
64131W        W32525   8.422   4.466  13.868
64132W        W32526   8.000   0.940   4.929
64133W        W32527   1.827  34.525   4.722
64134W        W32528  25.030  15.771   0.691
64135W        W32529   2.471  13.646   0.716
64136W        W32530  27.753  11.325  11.175
64137W        W32531  37.433  25.568   4.576
64138W        W32532  33.285  36.959   4.241
64139W        W32533  35.493  34.296   1.319
64140W        W32534  10.805  29.449   4.541
64141W        W32535   9.456  21.063  11.623
64142W        W32536  42.803  30.725   2.802
64143W        W32537   0.449   8.425   1.691
64144W        W32538  37.725   6.498  10.837
64145W        W32539  39.457  40.004  10.707
64146W        W32540  14.259  17.710   3.411
64147W        W32541  35.842   0.868  14.479
64148W        W32542  10.618  37.279  10.489
64149W        W32543  33.164   7.369  12.801
64150W        W32544   9.640  19.720  10.887
64151W        W32545  20.818   6.431   4.230
64152W        W32546   3.036  23.447  11.580
64153W        W32547  32.366   7.728   0.347
64154W        W32548   1.623  23.712  12.998
64155W        W32549  38.165  23.617  10.646
64156W        W32550  41.989  35.897   2.672
64157W        W32551   9.741   8.193  13.472
64158W        W32552  36.657   5.548   1.804
64159W        W32553  34.802  30.113  10.502
64160W        W32554  29.408   3.724  12.525
64161W        W32555  32.702  32.974  12.682
64162W        W32556  11.715   2.923   2.340
64163W        W32557  44.180  39.935  10.622
64164W        W32558   9.872   9.413  13.878
64165W        W32559  40.557  27.529   3.215
64166W        W32560   2.716  44.463  14.424
64167W        W32561   0.678   7.680   0.898
64168W        W32562  29.953  22.206  12.118
64169W        W32563  29.409  27.291  11.186
64170W        W32564   8.427  20.181  14.426
64171W        W32565   5.316  28.483  13.869
64172W        W32566  21.213  40.961   3.126
64173W        W32567  19.799   9.320  12.067
64174W        W32568   7.882   4.751   3.148
64175W        W32569  20.596  43.894  10.737
64176W        W32570  35.088   2.880  13.798
64177W        W32571  18.340   5.788   1.248
64178W        W32572  32.000  40.994   3.668
64179W        W32573  32.135  35.953   2.301
64180W        W32574  38.935   5.179  13.102
64181W        W32575  33.425  25.259   0.537
64182W        W32576  36.817  22.647  10.669
64183W        W32577  21.947  14.298   0.964
64184W        W32578  31.475   6.680   0.616
64185W        W32579  40.933  26.100  12.976
64186W        W32580  30.893  29.692  11.959
64187W        W32581  38.168  29.594   1.276
64188W        W32582   0.792  29.687  12.297
64189W        W32583  37.987   9.204  14.195
64190W        W32584  18.877  44.281   3.110
64191W        W32585  29.572  13.340   2.956
64192W        W32586  26.196  21.080   2.350
64193W        W32587  15.561   2.946  10.921
64194W        W32588  44.293  11.148  10.287
64195W        W32589  36.286   6.023   1.184
64196W        W32590   2.821  32.035   4.081
64197W        W32591   2.607  24.960  12.943
64198W        W32592  34.453  40.344   4.584
64199W        W32593  33.078  33.787  10.509
64200W        W32594  37.177  26.342   4.370
64201W        W32595  26.979  14.808  12.163
64202W        W32596  19.967  37.552   2.313
64203W        W32597  22.679   8.168   4.082
64204W        W32598   1.517  39.319  11.031
64205W        W32599   3.256  33.623   1.670
64206W        W32600  16.170  30.340   3.366
64207W        W32601  17.701   1.606  13.413
64208W        W32602   1.331  22.608   1.671
64209W        W32603  25.456   9.949   4.551
64210W        W32604  29.447  21.486  11.168
64211W        W32605  42.013   9.928  11.397
64212W        W32606  32.619  39.962   0.340
64213W        W32607  22.465  21.607   1.486
64214W        W32608  34.543  28.620  13.002
64215W        W32609  10.148  41.829   2.773
64216W        W32610  16.025   8.557   3.600
64217W        W32611  40.393  36.391  11.521
64218W        W32612   5.120  12.089  11.554
64219W        W32613  33.846  16.213   1.106
64220W        W32614  27.923  17.745   3.750
64221W        W32615   4.548  15.322  13.330
64222W        W32616  26.166  33.218   4.502
64223W        W32617  36.016   4.081   2.887
64224W        W32618   7.448  16.726   0.299
64225W        W32619  29.721  27.206   2.328
64226W        W32620  26.538  30.867   1.872
64227W        W32621  27.817  44.415  11.981
64228W        W32622   2.212   9.658  14.319
64229W        W32623  36.417  31.312   0.690
64230W        W32624  43.936   1.233   2.248
64231W        W32625  19.988  44.745   0.929
64232W        W32626  19.815  30.841   3.733
64233W        W32627  43.473   9.370  14.014
64234W        W32628   0.444  21.033   1.675
64235W        W32629   1.866  34.821   1.641
64236W        W32630   3.993  11.404   1.316
64237W        W32631  32.387  12.593  10.784
64238W        W32632   2.167  40.867  11.016
64239W        W32633  39.553  32.352  14.981
64240W        W32634   7.462   6.192   2.660
64241W        W32635   6.970  18.157  13.377
64242W        W32636  21.694  43.264  10.942
64243W        W32637  30.394  37.020  13.426
64244W        W32638  20.408  30.557  10.106
64245W        W32639  10.215  15.335  13.966
64246W        W32640  34.389  38.083  11.480
64247W        W32641  36.099  11.677   4.576
64248W        W32642  20.275   3.717   2.686
64249W        W32643  25.683   5.403  13.989
64250W        W32644  17.852  35.627  11.106
64251W        W32645  31.861   7.795   3.410
64252W        W32646  19.177  21.123   3.644
64253W        W32647   3.209  21.303  14.363
64254W        W32648  24.905   4.489  10.406
64255W        W32649  25.508  34.496  14.895
64256W        W32650  25.723  23.788   0.217
64257W        W32651  21.232   4.086   0.933
64258W        W32652  20.534  30.243   2.067
64259W        W32653  23.845   7.108   5.113
64260W        W32654  21.692  13.206  14.504
64261W        W32655  42.918  35.641   0.488
64262W        W32656   8.673  34.692  11.545
64263W        W32657   5.430  11.795  13.424
64264W        W32658  26.947  13.016   2.140
64265W        W32659  25.322  16.876  13.890
64266W        W32660  10.147  29.678   1.268
64267W        W32661  16.520  29.937   3.821
64268W        W32662  29.920  15.714   1.343
64269W        W32663   8.915   5.597  11.561
64270W        W32664  18.807  32.025   4.995
64271W        W32665  42.566  44.308   3.653
64272W        W32666  19.472  43.830  14.264
64273W        W32667  25.176  11.910  11.622
64274W        W32668   4.407  34.299  11.035
64275W        W32669  37.417  23.025   1.435
64276W        W32670   8.296  31.404   2.154
64277W        W32671   8.049   7.330  11.526
64278W        W32672  36.974   5.072  11.111
64279W        W32673   8.231  40.468  14.940
64280W        W32674  33.415  31.011   1.783
64281W        W32675   1.279  13.687  12.628
64282W        W32676  26.955  37.081  10.689
64283W        W32677  31.865  28.930   4.618
64284W        W32678  43.535  23.041   0.459
64285W        W32679  22.547   4.592  13.514
64286W        W32680  39.555  16.446   1.220
64287W        W32681  14.661  22.503   1.421
64288W        W32682  30.499  35.344  14.008
64289W        W32683  24.323  17.562   2.097
64290W        W32684  21.171   6.748   2.718
64291W        W32685  42.816  36.899   4.659
64292W        W32686  31.795  16.719   3.973
64293W        W32687  30.360  36.733  11.145
64294W        W32688  36.537   0.945   1.158
64295W        W32689   0.489  42.923  11.228
64296W        W32690  34.255  35.410   2.903
64297W        W32691   3.517  40.762  14.583
64298W        W32692  16.830  43.778  12.977
64299W        W32693   5.408  24.417  12.505
64300W        W32694  30.158  30.260  10.742
64301W        W32695   3.356   0.240   0.853
64302W        W32696   6.695  27.177   1.786
64303W        W32697  17.174  39.072   2.762
64304W        W32698  31.184  31.619  10.168
64305W        W32699  31.805   7.863  11.256
64306W        W32700   5.815  18.326   3.418
64307W        W32701   0.027  40.058   0.693
64308W        W32702  39.464  26.084  13.854
64309W        W32703  17.998  37.225  13.535
64310W        W32704  37.387   1.889  12.520
64311W        W32705  25.093  18.556   2.872
64312W        W32706  36.436  39.790   2.829
64313W        W32707   0.801   3.009   4.633
64314W        W32708  33.327  37.565   2.587
64315W        W32709  37.627  15.759  12.518
64316W        W32710   3.422  41.672   3.264
64317W        W32711  26.918  35.950  13.430
64318W        W32712  14.712  37.626   4.192
64319W        W32713   0.470   0.474  12.992
64320W        W32714  44.310  21.772  10.694
64321W        W32715  21.244   9.316  13.224
64322W        W32716  33.392  32.976   4.583
64323W        W32717  37.378  37.791  14.702
64324W        W32718  35.436  26.803   0.343
64325W        W32719  41.038  14.935   2.510
64326W        W32720   9.639  32.604  10.746
64327W        W32721  18.583  12.523   3.253
64328W        W32722  15.196  32.031   3.441
64329W        W32723  13.086   0.735  13.816
64330W        W32724  18.461  41.539  13.947
64331W        W32725  24.562   4.966  12.568
64332W        W32726  35.439   6.458   4.751
64333W        W32727  25.925  38.667   2.688
64334W        W32728  24.872  23.202  12.050
64335W        W32729   6.335  10.851   2.395
64336W        W32730  10.667  24.559   2.746
64337W        W32731  11.736  28.192   0.756
64338W        W32732  22.971  11.656  12.050
64339W        W32733  22.979  21.359  12.967
64340W        W32734  37.959  35.634   2.194
64341W        W32735  21.202  30.641  11.168
64342W        W32736  28.980  39.923  12.905
64343W        W32737   9.275  10.590  14.958
64344W        W32738   8.228   6.404   4.170
64345W        W32739  18.323  32.484   3.706
64346W        W32740  34.630  24.292  10.675
64347W        W32741   4.297  14.284   2.328
64348W        W32742  23.876  14.178   4.304
64349W        W32743  26.400  18.292  12.074
64350W        W32744  10.411  15.139   1.278
64351W        W32745  25.286  18.192   5.004
64352W        W32746  19.423   8.367   4.461
64353W        W32747   6.636  12.203   4.682
64354W        W32748  44.369  25.191   0.813
64355W        W32749  42.402   4.220  10.510
64356W        W32750  44.395  27.972  13.160
64357W        W32751   5.684  16.766  11.548
64358W        W32752  29.564  17.007  13.723
64359W        W32753  21.657   8.242  13.143
64360W        W32754   8.694  43.236  11.308
64361W        W32755   7.998   1.009  13.931
64362W        W32756   5.304  39.800  12.013
64363W        W32757  42.233  34.443   1.502
64364W        W32758  37.559  44.716  14.923
64365W        W32759  14.352  15.861   5.027
64366W        W32760   2.261  12.839   3.687
64367W        W32761  30.420  29.177   3.135
64368W        W32762  30.240  26.759  12.979
64369W        W32763  32.104   3.419   4.623
64370W        W32764  14.362  31.569  14.545
64371W        W32765  35.221  21.295  11.979
64372W        W32766  37.166  34.637   1.203
64373W        W32767   9.212  17.467  12.467
64374W        W32768  38.646  16.137  13.085
64375W        W32769  31.994  43.904  14.389
64376W        W32770   5.180  34.872  12.099
64377W        W32771  18.780   0.329  11.544
64378W        W32772  18.795  43.890   1.961
64379W        W32773  41.587  19.578  13.517
64380W        W32774   3.058  38.658  10.269
64381W        W32775  15.607  17.663  13.593
64382W        W32776   1.395   9.776   3.513
64383W        W32777  39.034  37.979  10.598
64384W        W32778  11.903  21.197   2.430
64385W        W32779  14.650  36.745   4.830
64386W        W32780  22.809  28.399  13.324
64387W        W32781  26.389  26.633   3.170
64388W        W32782  32.678  35.929  12.692
64389W        W32783  12.185  14.993   4.432
64390W        W32784  35.657   6.906  12.579
64391W        W32785  29.756   0.092  11.292
64392W        W32786  37.382   7.992   5.464
64393W        W32787  10.164  15.663   2.162
64394W        W32788  25.169  30.147  11.467
64395W        W32789  31.111   6.118  11.612
64396W        W32790  20.054  19.267   3.327
64397W        W32791   8.445  36.852   5.050
64398W        W32792  26.908  35.843  11.113
64399W        W32793   7.655  40.313  12.764
64400W        W32794  11.679  24.275  11.616
64401W        W32795  30.001  18.655  12.428
64402W        W32796  20.454  33.189   4.592
64403W        W32797  25.260  12.256   2.938
64404W        W32798  25.472  39.730   0.235
64405W        W32799  29.378  24.176   2.716
64406W        W32800  32.217   7.727   1.833
64407W        W32801  43.036  34.842   0.377
64408W        W32802  16.823  33.539  12.507
64409W        W32803  36.354   5.786  13.055
64410W        W32804   3.755  39.587   1.059
64411W        W32805  43.727  18.738  12.067
64412W        W32806  24.900  30.643  14.802
64413W        W32807  44.119  25.605  11.618
64414W        W32808  16.117  39.153  13.054
64415W        W32809   8.304  15.293  12.281
64416W        W32810  39.012  12.380  10.535
64417W        W32811  26.047  17.179   0.794
64418W        W32812  42.107  43.642   0.919
64419W        W32813  32.981  36.339   3.817
64420W        W32814  30.800  21.854  14.704
64421W        W32815  16.106  27.053   0.950
64422W        W32816  41.383  42.816  14.340
64423W        W32817   1.494  24.186  12.899
64424W        W32818  29.918   9.573  10.781
64425W        W32819  12.384   4.248  14.404
64426W        W32820  15.604  25.232  10.874
64427W        W32821  30.195   4.804   1.819
64428W        W32822  31.002   4.015   4.786
64429W        W32823  19.884   3.210   5.232
64430W        W32824   9.567  38.622  12.377
64431W        W32825  19.610   8.673   2.231
64432W        W32826  23.246  10.559  13.275
64433W        W32827  25.761  39.641  11.204
64434W        W32828  16.354  20.753  12.461
64435W        W32829  32.649  12.195   4.341
64436W        W32830  28.030  27.151  11.940
64437W        W32831  39.508   9.959   2.680
64438W        W32832   2.169  34.434   4.009
64439W        W32833  24.174  19.315   3.637
64440W        W32834  31.076  32.138   0.350
64441W        W32835   1.970  11.836   1.371
64442W        W32836  12.125  36.557  12.846
64443W        W32837   4.375  25.991   0.815
64444W        W32838  40.871   8.130  14.093
64445W        W32839  28.914   0.594  13.453
64446W        W32840  27.460   5.845   4.415
64447W        W32841  39.710  10.607   2.764
64448W        W32842  29.273  18.553  11.140
64449W        W32843   6.630  31.175  13.954
64450W        W32844  20.034  14.070   1.782
64451W        W32845  34.019  12.585  12.821
64452W        W32846  37.026  27.247  12.906
64453W        W32847  38.405  42.536   0.060
64454W        W32848  36.777  18.140  11.558
64455W        W32849  43.258  41.215  12.886
64456W        W32850  20.559   1.062  14.442
64457W        W32851   2.512  26.332   4.111
64458W        W32852  19.981  34.866  13.584
64459W        W32853  19.331   1.962   1.883
64460W        W32854  34.825  21.893  12.507
64461W        W32855  36.166   5.518   1.291
64462W        W32856  31.933  18.653   1.642
64463W        W32857  26.700  17.750   0.180
64464W        W32858  38.081  32.050   0.283
64465W        W32859  24.232  36.807  12.943
64466W        W32860   8.587  21.997  14.590
64467W        W32861  19.704   3.205  11.716
64468W        W32862  27.875  28.540  13.724
64469W        W32863   5.371  26.469   4.509
64470W        W32864  21.483  14.142   3.772
64471W        W32865  16.422  11.071   2.742
64472W        W32866  23.052   3.091   3.157
64473W        W32867  40.951   1.291  12.587
64474W        W32868  42.388  18.770  13.930
64475W        W32869  19.436  23.370   2.640
64476W        W32870  25.620  33.221   0.261
64477W        W32871  22.699  26.606   4.119
64478W        W32872  42.231   0.263   1.969
64479W        W32873  30.047  11.862   3.678
64480W        W32874  37.142   7.262  11.148
64481W        W32875   4.813   8.114   0.327
64482W        W32876  43.334  27.162  12.154
64483W        W32877  19.689   3.240  12.641
64484W        W32878  13.894  12.187   4.118
64485W        W32879  34.608  39.959   2.457
64486W        W32880  22.615   3.671   1.743
64487W        W32881   9.878   1.345  11.477
64488W        W32882  29.111  22.258  14.634
64489W        W32883   0.168  10.167   4.532
64490W        W32884  28.936  21.648  10.398
64491W        W32885  18.227  23.512  12.479
64492W        W32886  31.344   6.276   3.194
64493W        W32887  25.542  35.997   1.484
64494W        W32888   4.153  13.464   0.390
64495W        W32889   7.753   1.304   0.489
64496W        W32890   6.990   3.335   4.062
64497W        W32891  29.911  17.535   0.884
64498W        W32892  33.437  14.378  13.236
64499W        W32893  40.465  42.424   0.247
64500W        W32894  35.887  20.808  14.314
64501W        W32895   9.735  15.057   2.606
64502W        W32896  23.044  21.989  14.768
64503W        W32897   9.624  20.778  13.345
64504W        W32898  41.219  20.996   0.322
64505W        W32899  30.371  20.923   1.437
64506W        W32900  18.302  37.398  12.575
64507W        W32901   3.505   2.238  12.477
64508W        W32902  11.636  30.106   0.857
64509W        W32903  35.885   0.107   1.474
64510W        W32904  21.243  24.658   1.831
64511W        W32905  36.864  37.908  12.982
64512W        W32906   5.070  27.078  10.753
64513W        W32907  33.545  43.326  12.916
64514W        W32908  34.908   0.450   1.293
64515W        W32909   5.404   4.434  14.969
64516W        W32910   6.416  21.174  13.777
64517W        W32911  31.533  24.438  14.309
64518W        W32912   8.156   8.363   2.268
64519W        W32913  34.703  21.355  13.147
64520W        W32914  40.818  16.210   1.843
64521W        W32915   0.492  28.448  13.650
64522W        W32916  23.243  12.614   1.339
64523W        W32917  41.912  34.369  12.609
64524W        W32918  36.791   1.325   2.343
64525W        W32919  42.353  12.764   1.863
64526W        W32920  12.264  32.596   1.148
64527W        W32921  24.148  40.990   4.515
64528W        W32922  14.755  42.847  10.916
64529W        W32923  29.182  37.390  14.964
64530W        W32924  12.215  42.243  14.288
64531W        W32925  34.561  36.156  12.529
64532W        W32926  12.492  33.397   4.731
64533W        W32927  37.484  14.988   3.740
64534W        W32928  36.620  26.416  11.993
64535W        W32929   0.376  35.453   4.374
64536W        W32930  21.538  44.308   4.435
64537W        W32931  11.869  31.478   3.702
64538W        W32932  41.884  17.615  11.914
64539W        W32933  24.551  36.383   2.839
64540W        W32934  36.908  19.318   3.210
64541W        W32935  13.262  29.973  10.605
64542W        W32936   0.862   7.901   4.736
64543W        W32937  22.986  35.547  14.888
64544W        W32938  44.266   4.408   2.269
64545W        W32939   1.387  29.472  13.953
64546W        W32940  26.058  35.934   1.744
64547W        W32941  30.952  31.522  13.666
64548W        W32942   0.216  29.753  11.177
64549W        W32943  31.317  13.749   0.003
64550W        W32944  33.527  14.065   1.757
64551W        W32945  17.229  40.410   2.319
64552W        W32946  17.561  34.015  14.207
64553W        W32947  31.220  40.617  12.000
64554W        W32948  39.260  31.412   1.269
64555W        W32949   1.337   6.687  11.462
64556W        W32950  11.323  22.058   0.031
64557W        W32951  40.491  10.601  13.598
64558W        W32952   3.277  32.523   3.746
64559W        W32953   6.439   7.212   0.898
64560W        W32954  23.481   4.175   1.580
64561W        W32955  33.993  37.062  13.315
64562W        W32956  21.499  42.898   3.788
64563W        W32957  32.141   5.391   0.861
64564W        W32958  43.339   8.959  13.735
64565W        W32959  23.711  42.434   4.845
64566W        W32960   6.008  26.975   4.218
64567W        W32961   4.345  37.796   4.889
64568W        W32962   3.518  42.490  11.604
64569W        W32963  28.474  14.768   4.068
64570W        W32964  42.701  33.900  12.969
64571W        W32965  15.342  17.787  11.195
64572W        W32966  40.467  30.379   1.344
64573W        W32967   5.396  21.473   2.696
64574W        W32968   3.016   5.154  13.362
64575W        W32969  15.928  20.098  13.112
64576W        W32970   0.586  16.851   1.793
64577W        W32971  39.057  42.597  14.269
64578W        W32972  31.181  39.919   1.494
64579W        W32973  39.630   0.102   2.668
64580W        W32974  10.175  33.972  12.864
64581W        W32975   6.237  30.795  10.624
64582W        W32976  31.891  37.329   3.714
64583W        W32977  21.684  26.121   0.251
64584W        W32978   4.051  41.021  13.912
64585W        W32979  10.285   2.614   2.214
64586W        W32980  23.210  32.879  11.882
64587W        W32981  30.839   2.097   1.543
64588W        W32982  26.530  10.816   0.986
64589W        W32983  38.007  31.824  11.937
64590W        W32984  17.689  34.879   3.726
64591W        W32985  19.033  19.960   2.652
64592W        W32986  14.016  38.088  14.862
64593W        W32987  37.319  22.905   4.099
64594W        W32988  18.671   5.412  11.112
64595W        W32989  37.017  15.456   4.589
64596W        W32990  43.025  28.218  10.720
64597W        W32991  33.059  11.750  12.909
64598W        W32992   0.889  41.518   0.425
64599W        W32993  13.620  28.916   4.054
64600W        W32994  12.855  18.485  11.074
64601W        W32995   8.302  39.789   4.746
64602W        W32996  13.333  31.334  14.380
64603W        W32997  37.844  40.617   2.283
64604W        W32998  36.838  16.982  11.046
64605W        W32999  13.169  27.164   2.284
64606W        W33000  14.252  18.102   2.619
64607W        W33001  30.807   4.339  12.424
64608W        W33002  32.563  18.837   0.357
64609W        W33003  43.700  22.458  13.129
64610W        W33004  43.782  37.934   1.499
64611W        W33005   0.552  30.046   3.254
64612W        W33006  32.537  28.936   2.162
64613W        W33007  36.471  13.191  11.956
64614W        W33008  19.851  26.031   4.117
64615W        W33009  21.796   4.766   0.190
64616W        W33010  22.976   9.031  13.215
64617W        W33011  43.254  26.356   1.910
64618W        W33012  36.127  24.144  11.822
64619W        W33013  18.534  35.033  13.050
64620W        W33014  20.854  21.213   4.975
64621W        W33015  34.640  35.709  11.627
64622W        W33016  30.471  29.206   4.532
64623W        W33017  24.644   4.876  10.631
64624W        W33018  10.639  38.202   3.623
64625W        W33019  17.788  22.495  10.695
64626W        W33020  11.157   5.386  12.622
64627W        W33021  13.601  33.544  11.564
64628W        W33022  26.688  15.737  10.405
64629W        W33023  36.467  35.150  13.599
64630W        W33024  17.975   4.370   0.214
64631W        W33025  21.863  33.077   3.419
64632W        W33026  24.203  37.547   3.755
64633W        W33027  26.633   2.699  13.987
64634W        W33028  22.158  41.035  11.375
64635W        W33029   0.643   3.141   4.143
64636W        W33030   6.200   9.723   2.980
64637W        W33031  18.091  19.238  10.147
64638W        W33032   9.291  24.379   1.461
64639W        W33033  17.112  20.283   2.803
64640W        W33034  32.976  26.224  14.496
64641W        W33035  25.024  32.686   3.773
64642W        W33036  25.252  23.063  13.912
64643W        W33037  33.466   6.149   0.853
64644W        W33038  27.461  21.444   0.432
64645W        W33039  10.398  39.085  12.973
64646W        W33040  25.127  11.797   0.872
64647W        W33041   5.785  24.656   1.812
64648W        W33042   4.784  42.910  13.838
64649W        W33043  23.714   9.137  11.208
64650W        W33044  17.504   2.255   1.787
64651W        W33045  23.488  37.013  14.936
64652W        W33046  23.089  23.188  10.446
64653W        W33047  25.376  18.212  13.389
64654W        W33048  24.362  26.987   3.566
64655W        W33049  40.778   8.377   3.138
64656W        W33050  32.465  35.602   2.609
64657W        W33051  11.095  11.581   2.309
64658W        W33052   0.859   5.292  13.127
64659W        W33053   5.900  37.296  10.737
64660W        W33054   5.054  23.903  11.416
64661W        W33055   3.605  36.251   2.348
64662W        W33056  20.814  37.097  14.191
64663W        W33057  36.589  12.528   0.548
64664W        W33058   5.724  36.649  12.997
64665W        W33059  37.640   9.797   4.630
64666W        W33060  38.345  29.610   2.719
64667W        W33061  12.392  25.633  14.561
64668W        W33062  43.971  21.117  11.982
64669W        W33063   7.826  24.231   0.474
64670W        W33064  14.946  38.966   2.215
64671W        W33065  34.108   9.829  13.596
64672W        W33066  16.255  23.840  10.743
64673W        W33067  26.519   6.144  13.911
64674W        W33068  13.109  43.742  12.070
64675W        W33069  30.874  44.263   4.607
64676W        W33070   5.538  34.123  13.018
64677W        W33071  43.768  27.561   0.779
64678W        W33072   9.413  34.382   2.913
64679W        W33073  40.746   5.743   0.237
64680W        W33074  42.581   8.382   0.395
64681W        W33075  16.580  19.102   3.227
64682W        W33076  10.138  12.650   4.415
64683W        W33077  38.516  36.153  12.155
64684W        W33078  33.568   4.605   0.762
64685W        W33079  28.689  41.246  14.171
64686W        W33080   7.174  35.780  11.667
64687W        W33081  30.568  17.262  13.079
64688W        W33082  32.338  41.340  13.525
64689W        W33083  44.720   1.173  11.549
64690W        W33084  34.573   9.549   1.404
64691W        W33085  42.091  37.549  11.593
64692W        W33086  25.513  10.173  12.893
64693W        W33087  14.760  11.290  10.603
64694W        W33088   0.460  20.506   1.643
64695W        W33089   7.427  38.976  13.086
64696W        W33090   0.859   3.412   4.955
64697W        W33091  14.426  17.780   4.401
64698W        W33092   7.860  28.816  10.732
64699W        W33093  37.210  31.512   4.798
64700W        W33094  12.740  15.564  14.221
64701W        W33095  19.735  21.386  13.525
64702W        W33096  26.959   1.591  10.123
64703W        W33097  21.718  12.371  10.176
64704W        W33098  33.699  18.556   3.032
64705W        W33099  41.171  29.957   1.609
64706W        W33100  25.972  20.176  13.374
64707W        W33101  39.976  30.121  13.442
64708W        W33102  28.288  19.405  11.602
64709W        W33103  17.980  25.140   0.810
64710W        W33104  34.906  36.908   4.267
64711W        W33105  24.211  36.478  10.731
64712W        W33106  19.990  31.456   2.771
64713W        W33107   0.707  12.530  14.852
64714W        W33108   8.076  14.429  12.470
64715W        W33109   2.810  44.470   4.100
64716W        W33110  19.198  12.350  14.803
64717W        W33111  30.137  27.180  14.943
64718W        W33112  16.901  26.457   3.041
64719W        W33113  42.114  31.040  12.073
64720W        W33114  22.092   0.936   3.089
64721W        W33115  33.632   4.338   2.834
64722W        W33116  20.575  41.987  14.233
64723W        W33117  33.748  15.589   1.688
64724W        W33118  30.012  33.852   2.238
64725W        W33119  14.067  35.850   3.228
64726W        W33120  10.017   6.902   0.114
64727W        W33121  32.498  16.473  11.876
64728W        W33122  39.416  22.151   0.904
64729W        W33123  32.497  33.089   0.238
64730W        W33124  27.974   5.848  10.440
64731W        W33125   4.734  12.145  13.047
64732W        W33126  23.935   4.175   4.104
64733W        W33127  44.320  25.097  10.660
64734W        W33128   5.720  36.453  14.735
64735W        W33129  27.325  21.296   0.911
64736W        W33130  35.292   5.253  11.982
64737W        W33131  11.025  21.683  10.969
64738W        W33132  22.259  38.892  12.476
64739W        W33133  10.630  36.363   4.667
64740W        W33134  25.134  15.672   1.226
64741W        W33135  41.799  23.058   3.573
64742W        W33136  25.444   3.401   9.988
64743W        W33137  22.089  18.124   3.174
64744W        W33138  24.202  37.472  10.453
64745W        W33139  18.945   8.261  11.592
64746W        W33140  23.505  13.617  10.773
64747W        W33141   9.821  17.866   0.045
64748W        W33142  39.466  34.156  11.052
64749W        W33143  29.926  18.897  13.049
64750W        W33144   7.462  22.704  11.551
64751W        W33145  10.135  38.432   0.876
64752W        W33146   7.766  38.166  14.927
64753W        W33147   8.738  21.242   0.969
64754W        W33148   0.058  15.178  12.427
64755W        W33149  20.134   2.479   4.742
64756W        W33150  30.885  28.007   3.358
64757W        W33151  40.460   8.431  12.497
64758W        W33152  24.412  14.271   5.126
64759W        W33153  14.772  23.358   3.590
64760W        W33154  19.162  43.901   3.811
64761W        W33155  35.470  27.627  12.190
64762W        W33156  26.708  35.518   1.776
64763W        W33157  38.554  37.486  11.126
64764W        W33158   6.867  19.026   2.844
64765W        W33159   1.839   6.775   3.595
64766W        W33160  34.120   5.999   4.081
64767W        W33161  20.767  16.495  12.039
64768W        W33162  30.587   5.865   2.293
64769W        W33163  31.084  31.568  10.675
64770W        W33164  27.529  17.703  10.655
64771W        W33165   1.220  16.279   4.737
64772W        W33166   1.226  26.609  11.324
64773W        W33167   2.455  37.531  14.048
64774W        W33168   9.178  18.184   0.412
64775W        W33169  29.200   1.028  13.498
64776W        W33170  33.931   3.485  14.282
64777W        W33171  15.273  18.187  12.838
64778W        W33172  43.887  26.365  12.543
64779W        W33173  31.805  34.092  12.932
64780W        W33174  44.438  26.957   0.721
64781W        W33175  41.926  36.085  14.395
64782W        W33176   0.239   9.703   4.277
64783W        W33177  21.630   9.837  13.380
64784W        W33178  43.073  11.180   3.784
64785W        W33179  24.043   5.264   0.617
64786W        W33180  34.333  40.423  11.599
64787W        W33181  18.160  18.980  11.026
64788W        W33182  24.598  41.867   1.146
64789W        W33183  22.253  31.258  12.979
64790W        W33184  27.250  14.028  12.243
64791W        W33185   7.953  30.581  10.834
64792W        W33186   9.457   6.710   4.406
64793W        W33187  44.735   3.919  14.403
64794W        W33188  44.857  34.053  10.754
64795W        W33189   4.031   9.802   2.397
64796W        W33190  11.429  33.498   1.798
64797W        W33191  32.993   6.443  11.876
64798W        W33192  37.736  11.831  11.998
64799W        W33193  16.410  31.032  11.047
64800W        W33194   2.299  17.824  11.962
64801W        W33195  35.116  44.404  13.908
64802W        W33196  20.450  14.814   4.582
64803W        W33197   8.442  10.261   0.367
64804W        W33198  31.420  33.402   2.164
64805W        W33199  25.184   1.724  10.587
64806W        W33200   6.336  27.362   5.572
64807W        W33201   8.967   0.210   0.764
64808W        W33202  17.713   9.108   1.738
64809W        W33203  23.393  38.830   3.101
64810W        W33204  33.841  44.470  13.370
64811W        W33205  13.641  17.809  11.435
64812W        W33206  33.502   5.621   0.834
64813W        W33207  20.215  29.162   0.555
64814W        W33208  23.509  17.553  11.047
64815W        W33209  40.181  25.198  14.578
64816W        W33210   7.839   4.880  10.156
64817W        W33211  10.759  27.327   3.166
64818W        W33212  21.269   7.980   0.769
64819W        W33213  12.149  26.525  14.369
64820W        W33214  22.101  43.182  13.548
64821W        W33215  27.560  31.847  11.105
64822W        W33216  23.223   5.429   2.098
64823W        W33217  13.381  10.844  11.146
64824W        W33218  39.371  24.964  14.517
64825W        W33219  27.674   8.104   0.190
64826W        W33220  23.460  35.640   2.532
64827W        W33221   1.861  25.111   1.205
64828W        W33222   4.762  13.749   2.891
64829W        W33223  22.254  19.575   1.737
64830W        W33224  34.058   9.820   1.396
64831W        W33225  34.963  15.988  12.890
64832W        W33226  33.494  25.642  13.150
64833W        W33227  34.016  26.474   3.841
64834W        W33228  43.005  25.338  13.992
64835W        W33229  44.836  11.606   2.997
64836W        W33230  10.453  42.839  11.121
64837W        W33231  14.600  18.222  14.759
64838W        W33232   1.318  12.651  10.322
64839W        W33233   0.841   1.778   4.168
64840W        W33234   4.422  25.508   1.309
64841W        W33235  17.288  17.028   0.752
64842W        W33236   5.206  16.885   0.216
64843W        W33237   4.772  15.791  11.211
64844W        W33238   6.921   5.697  12.447
64845W        W33239   3.736  13.853   0.251
64846W        W33240  24.737  42.421   3.682
64847W        W33241  38.535  14.611  10.634
64848W        W33242   7.778   1.476  10.722
64849W        W33243   8.274  40.974   2.677
64850W        W33244   2.952  28.732  11.080
64851W        W33245  13.702   2.814   4.999
64852W        W33246  26.278  18.903  12.936
64853W        W33247   4.687  11.115  12.062
64854W        W33248   3.536  36.480  14.254
64855W        W33249  24.700   0.015   4.262
64856W        W33250  26.343   5.266   3.139
64857W        W33251  37.939  27.669  11.908
64858W        W33252   0.256  41.865   4.700
64859W        W33253  35.523  41.839   3.175
64860W        W33254  14.925  44.779  11.748
64861W        W33255   9.821  23.120   5.059
64862W        W33256  11.577  19.247   3.683
64863W        W33257  37.043   3.941   4.669
64864W        W33258  25.960  24.102  12.106
64865W        W33259  30.589  12.637   4.026
64866W        W33260  34.965  11.966   1.810
64867W        W33261  11.572  42.559  12.977
64868W        W33262  18.775  39.862   0.503
64869W        W33263   9.618   7.948   2.334
64870W        W33264  42.731  35.002  13.945
64871W        W33265   3.262  16.644   4.161
64872W        W33266  22.493  26.557   3.624
64873W        W33267  31.833  35.914  13.109
64874W        W33268  15.010  28.539  13.603
64875W        W33269   6.924  32.425  13.838
64876W        W33270  41.922  16.557   1.459
64877W        W33271  30.652  28.190  13.789
64878W        W33272  41.318   9.402  11.794
64879W        W33273   0.915  20.716   1.679
64880W        W33274   2.790   2.866  11.189
64881W        W33275  38.746   2.410   2.709
64882W        W33276  34.583  24.720  12.234
64883W        W33277   4.421  18.043  10.454
64884W        W33278  33.437  25.073  11.993
64885W        W33279   2.931  38.836   0.796
64886W        W33280   4.190  12.496  14.459
64887W        W33281   4.092   7.849  11.630
64888W        W33282  24.447  16.713   3.555
64889W        W33283  39.912  44.948   4.421
64890W        W33284   9.627  16.245   1.696
64891W        W33285  13.110   7.728  12.703
64892W        W33286  16.135  38.314  14.301
64893W        W33287  20.765  12.388  11.059
64894W        W33288  15.073  30.401  13.384
64895W        W33289  31.459  39.931  13.329
64896W        W33290  19.000  32.464   4.772
64897W        W33291  19.284   4.732  14.268
64898W        W33292  20.538  30.637   0.909
64899W        W33293  44.197   1.919  13.483
64900W        W33294  17.193  18.018  13.782
64901W        W33295  15.905  39.750   2.581
64902W        W33296  20.785  31.095   4.809
64903W        W33297  22.061  32.146   2.770
64904W        W33298   6.349  13.254   3.252
64905W        W33299  19.981  26.324  12.391
64906W        W33300  18.533  44.599   3.321
64907W        W33301  22.613  36.016  11.643
64908W        W33302   9.656  17.381   4.229
64909W        W33303  38.473   0.549  12.009
64910W        W33304   2.652   0.810  12.160
64911W        W33305  10.848  24.656   0.016
64912W        W33306  23.195  28.580  12.340
64913W        W33307  27.541  40.796   4.530
64914W        W33308  22.412   8.568   1.141
64915W        W33309  38.131  34.739  13.522
64916W        W33310  37.301   9.734   4.247
64917W        W33311  40.496  10.418   3.126
64918W        W33312  39.576   6.940   0.876
64919W        W33313  20.384  19.141   4.832
64920W        W33314  34.069  15.936   4.774
64921W        W33315  22.482  30.127  14.472
64922W        W33316  31.038  37.659  14.714
64923W        W33317  40.548  32.519  13.561
64924W        W33318   7.814  11.236  10.530
64925W        W33319   0.533  28.998  13.511
64926W        W33320   0.781  33.241   9.872
64927W        W33321  36.780   2.887   1.642
64928W        W33322   2.437  19.773  11.958
64929W        W33323   1.474   8.874   3.131
64930W        W33324  18.518  22.497  12.057
64931W        W33325  39.594  16.325   0.296
64932W        W33326  27.893  25.499  11.843
64933W        W33327  24.137  10.242   2.819
64934W        W33328  13.182   0.767   3.293
64935W        W33329   1.335  35.344  14.482
64936W        W33330   5.372   3.891   1.756
64937W        W33331   5.749  35.911  14.570
64938W        W33332  44.364  27.261  11.043
64939W        W33333  35.184  13.902   3.568
64940W        W33334   1.954   1.835   1.864
64941W        W33335  20.755  33.357  12.450
64942W        W33336  21.167  23.237   1.604
64943W        W33337  21.573  36.519   3.857
64944W        W33338  22.283  34.451  11.616
64945W        W33339   4.932   4.474  12.379
64946W        W33340  38.651  26.565   4.353
64947W        W33341  21.667  33.985  13.807
64948W        W33342   0.919  18.302  11.172
64949W        W33343  10.850  22.581  13.442
64950W        W33344  23.595  20.207  14.571
64951W        W33345  25.241  14.394  13.021
64952W        W33346  25.369  27.198   1.192
64953W        W33347  21.646   9.760  11.964
64954W        W33348   6.146   7.981   0.383
64955W        W33349  38.102  25.597   3.784
64956W        W33350  38.336  35.051   1.740
64957W        W33351  21.956  35.051   2.747
64958W        W33352   2.903  41.973  12.004
64959W        W33353   6.279  30.395  13.923
64960W        W33354  40.894  44.644  10.720
64961W        W33355  36.040   8.400   2.562
64962W        W33356  12.199   0.989  12.021
64963W        W33357   9.176  28.734   4.011
64964W        W33358   2.095   3.974   0.986
64965W        W33359   3.770  31.318   1.286
64966W        W33360  16.820   9.354   0.902
64967W        W33361  25.399  41.979  13.284
64968W        W33362  14.586  14.168   0.943
64969W        W33363  26.654  24.080  14.570
64970W        W33364  30.717   0.982  11.238
64971W        W33365  24.553  39.311   4.173
64972W        W33366  17.597  33.636   2.992
64973W        W33367  34.566  27.184  10.824
64974W        W33368  16.760  16.031   3.325
64975W        W33369  29.636  22.054   3.728
64976W        W33370   6.957  18.613  12.822
64977W        W33371   9.886  32.062   3.654
64978W        W33372  38.558  30.383   1.380
64979W        W33373  11.353  35.989  10.666
64980W        W33374   7.609  43.772   0.895
64981W        W33375  20.753  35.506  13.292
64982W        W33376   3.884  43.428  13.885
64983W        W33377  40.503  11.906  14.093
64984W        W33378  26.440  14.330   3.673
64985W        W33379  20.678   0.063   1.347
64986W        W33380   8.723  26.857   4.697
64987W        W33381  24.385   4.582  10.307
64988W        W33382   0.192  37.498  14.156
64989W        W33383  44.240  30.075   2.823
64990W        W33384   6.875  14.671  10.289
64991W        W33385  31.198  30.656   0.299
64992W        W33386  17.760  27.708  11.052
64993W        W33387  41.361   9.853  12.050
64994W        W33388  43.343  41.912  12.482
64995W        W33389  14.340  13.397   3.058
64996W        W33390  30.458  12.349  14.059
64997W        W33391  19.121   1.306  11.213
64998W        W33392   4.450  15.599   4.067
64999W        W33393  44.863  26.727  13.545
65000W        W33394  42.493  14.855   0.331
65001W        W33395  18.534  15.205  12.805
65002W        W33396   6.951  19.716   3.189
65003W        W33397  20.686  18.190  13.459
65004W        W33398  18.355  29.513  10.691
65005W        W33399  36.943  15.621   2.705
65006W        W33400   4.919  14.383  14.727
65007W        W33401  34.873  36.617  13.424
65008W        W33402  11.085  32.180  10.855
65009W        W33403  21.182  29.922   3.677
65010W        W33404  19.360  18.158   1.631
65011W        W33405   8.314  22.841   1.446
65012W        W33406   3.311  34.993   1.736
65013W        W33407  16.744  16.346  10.703
65014W        W33408  26.671  33.539   3.708
65015W        W33409   3.057  13.089   4.618
65016W        W33410  10.302  43.940   2.894
65017W        W33411  42.300  22.849   1.607
65018W        W33412   6.470  43.507  14.493
65019W        W33413  32.552  14.594   2.663
65020W        W33414  21.625   5.729   1.824
65021W        W33415   6.813   7.917  14.815
65022W        W33416   9.497  28.073   0.375
65023W        W33417  11.543  24.380   2.258
65024W        W33418   6.754  38.047  10.928
65025W        W33419  23.256   2.421  13.852
65026W        W33420  27.572   8.766  13.875
65027W        W33421   4.855  38.362   0.280
65028W        W33422  22.109  10.236   2.577
65029W        W33423  18.523  16.265  11.696
65030W        W33424   0.788  21.230   5.078
65031W        W33425  11.619  29.201  12.880
65032W        W33426  18.784  19.273  13.982
65033W        W33427  28.266  38.002   3.116
65034W        W33428   3.410   0.003   1.782
65035W        W33429  25.221  18.730   3.747
65036W        W33430  40.479  32.990  14.341
65037W        W33431   0.340  20.867   2.145
65038W        W33432  17.020  27.538  14.900
65039W        W33433  20.571  32.578   2.637
65040W        W33434   4.016  17.380  11.012
65041W        W33435  43.905  25.396   0.934
65042W        W33436  11.539  36.637  10.674
65043W        W33437  33.153   0.204   2.335
65044W        W33438  43.822   4.618  13.878
65045W        W33439   4.213  33.894   0.642
65046W        W33440   8.029  14.315   3.125
65047W        W33441  32.816  38.394   2.838
65048W        W33442  30.981  22.678  13.028
65049W        W33443  10.956  11.051   2.399
65050W        W33444   8.322  34.575  12.861
65051W        W33445  28.541   7.322  12.985
65052W        W33446   4.700  15.722   3.233
65053W        W33447  41.865  40.092   0.629
65054W        W33448  24.581  24.259   2.335
65055W        W33449  30.077   6.809  13.923
65056W        W33450  34.499  14.283  11.191
65057W        W33451   8.391  29.378  12.418
65058W        W33452  32.709  35.308   1.339
65059W        W33453  16.090  13.604   2.883
65060W        W33454  14.841  33.738  11.863
65061W        W33455   2.431   9.098   4.240
65062W        W33456   9.718  26.266  12.323
65063W        W33457   5.712  36.310  10.394
65064W        W33458  29.366  14.641   3.666
65065W        W33459   6.069   1.532   5.079
65066W        W33460  38.873  17.161   4.618
65067W        W33461  31.170  38.334   4.535
65068W        W33462  41.567  13.639   1.149
65069W        W33463  30.694  29.414   3.936
65070W        W33464  18.466  14.109  11.576
65071W        W33465  17.746  38.953   3.488
65072W        W33466  12.176  25.716   0.032
65073W        W33467  22.771  24.268  12.595
65074W        W33468  20.237  23.688  11.635
65075W        W33469  42.980  12.028  13.362
65076W        W33470  26.432  11.773  13.469
65077W        W33471   6.458  36.118   0.161
65078W        W33472  25.638  12.079   2.325
65079W        W33473  11.730  31.701   4.521
65080W        W33474  26.550   7.329  14.292
65081W        W33475  34.915  41.647  11.992
65082W        W33476  16.294  27.758  11.915
65083W        W33477  21.153   1.951  11.153
65084W        W33478   8.759  10.918   4.152
65085W        W33479  20.673  33.898   1.699
65086W        W33480   4.289  32.227   4.944
65087W        W33481   0.992   5.861   1.401
65088W        W33482  17.811  44.993   2.773
65089W        W33483  25.887  16.611  13.039
65090W        W33484   5.670  26.940  13.015
65091W        W33485  11.750  37.995  14.616
65092W        W33486  33.937  37.467  10.672
65093W        W33487   6.150  33.787  11.509
65094W        W33488   0.269   4.213   0.018
65095W        W33489   7.106  16.770   4.143
65096W        W33490  44.335  28.408  13.948
65097W        W33491  29.681  42.832  13.018
65098W        W33492  11.625  36.370  11.103
65099W        W33493  28.667  33.186  11.189
65100W        W33494  21.595  31.915  11.115
65101W        W33495  43.903   2.461  14.858
65102W        W33496  25.588  30.618   5.026
65103W        W33497   9.497   9.824   0.841
65104W        W33498  26.121  23.938  13.916
65105W        W33499  40.617  27.029   3.336
65106W        W33500  36.475  12.572   1.916
65107W        W33501   1.298  22.163   4.034
65108W        W33502  40.553   7.093   5.279
65109W        W33503  16.527   6.370  14.303
65110W        W33504  39.545  38.236   4.424
65111W        W33505  28.936  19.052  12.852
65112W        W33506  39.285   4.638   0.340
65113W        W33507  32.182   9.471  13.069
65114W        W33508   5.356  39.546   0.857
65115W        W33509  38.896  26.690  10.333
65116W        W33510  40.367   8.440   4.500
65117W        W33511  40.871  16.964   0.738
65118W        W33512  33.396  31.618  14.798
65119W        W33513  14.489  18.582  11.746
65120W        W33514  27.581   5.222  10.497
65121W        W33515  33.207   1.157   4.107
65122W        W33516  38.951  42.366  11.642
65123W        W33517  39.894  37.014   5.071
65124W        W33518  30.778   7.892   0.673
65125W        W33519  30.587  17.323   3.106
65126W        W33520  31.901  16.035   1.915
65127W        W33521  34.533  27.548   3.246
65128W        W33522  10.569  38.753   1.967
65129W        W33523  15.181  12.186   0.026
65130W        W33524  37.349  24.654  13.552
65131W        W33525  17.839   9.707  13.496
65132W        W33526  32.458  11.303  12.631
65133W        W33527  27.411  29.226   3.025
65134W        W33528  44.268   0.055  12.676
65135W        W33529  35.577   9.355  11.566
65136W        W33530  24.955  36.717  12.141
65137W        W33531  11.078  35.641   1.079
65138W        W33532   0.808  16.967  12.561
65139W        W33533   9.551  22.229  13.634
65140W        W33534  14.066  26.252  11.079
65141W        W33535  33.008   9.879   3.811
65142W        W33536  20.241  33.523  14.969
65143W        W33537  18.770  12.417   2.262
65144W        W33538  12.676  33.880   4.552
65145W        W33539   5.181   9.287  13.334
65146W        W33540   5.404  35.514   1.495
65147W        W33541  38.455  15.931   1.834
65148W        W33542   2.310   6.997   3.614
65149W        W33543  27.929  34.602  13.855
65150W        W33544  14.966   2.425  13.449
65151W        W33545  16.770  31.204  14.956
65152W        W33546   7.340  16.873  13.421
65153W        W33547  34.860   1.707   3.345
65154W        W33548  10.953  35.435  14.075
65155W        W33549  33.149  24.628  14.115
65156W        W33550  13.389  19.600   1.838
65157W        W33551  18.689  35.313   2.936
65158W        W33552  30.891  16.447  11.619
65159W        W33553   8.862   3.387  10.658
65160W        W33554  16.112  14.800   0.907
65161W        W33555   9.376  33.539   1.442
65162W        W33556  43.418  29.041   3.835
65163W        W33557  18.579  27.757   3.200
65164W        W33558  30.676  33.610  12.412
65165W        W33559   6.352  40.713   2.829
65166W        W33560  41.535   3.265   0.067
65167W        W33561  10.200  44.796   1.266
65168W        W33562  38.349  16.272   3.719
65169W        W33563  23.999  23.072  11.692
65170W        W33564  29.057  31.679   1.342
65171W        W33565  22.143  44.984  11.038
65172W        W33566  29.235   6.308  14.430
65173W        W33567  17.317  28.618   3.772
65174W        W33568  12.614  34.973  11.518
65175W        W33569  11.237  43.587   4.818
65176W        W33570   7.179   6.620   4.924
65177W        W33571  12.336   2.220   3.071
65178W        W33572  25.579  21.170   2.720
65179W        W33573  41.127  40.331  13.972
65180W        W33574  13.779  21.574   3.179
65181W        W33575  15.685  39.126   1.812
65182W        W33576  43.973  23.134  10.586
65183W        W33577  16.478  12.619  13.986
65184W        W33578  39.621  41.171   3.193
65185W        W33579  18.038  30.828  13.895
65186W        W33580  10.316  16.102   2.412
65187W        W33581  20.552  36.202   2.348
65188W        W33582   2.302  25.508  13.164
65189W        W33583   8.737  22.578  13.901
65190W        W33584  24.901   4.725   0.488
65191W        W33585   0.053  26.766  11.928
65192W        W33586  40.780  34.948   0.812
65193W        W33587  19.724  13.241  12.409
65194W        W33588   8.558  19.673  10.636
65195W        W33589  29.239  36.517  14.980
65196W        W33590   9.450  42.091   4.257
65197W        W33591  17.627  21.908   1.728
65198W        W33592  24.181   2.780   0.305
65199W        W33593   3.151   2.291  12.051
65200W        W33594   8.750   6.414   4.529
65201W        W33595  40.330  12.136  14.562
65202W        W33596  17.691  38.379  12.456
65203W        W33597   6.401  14.931  10.309
65204W        W33598  30.022  40.965  12.853
65205W        W33599  20.189  29.402   1.918
65206W        W33600  15.478  25.736   3.744
65207W        W33601  18.538  13.806   2.871
65208W        W33602   1.862  42.801   2.848
65209W        W33603   0.262  33.671  11.358
65210W        W33604  29.182  26.929  14.614
65211W        W33605  10.227  32.003  14.518
65212W        W33606   4.130  35.127   4.849
65213W        W33607  35.377  21.706  11.678
65214W        W33608  38.122  16.646   4.162
65215W        W33609  21.493  16.299  14.053
65216W        W33610  19.032  26.932   2.337
65217W        W33611  42.484  25.033   1.199
65218W        W33612  21.508  31.131  14.467
65219W        W33613  42.877  27.045  14.811
65220W        W33614  31.185  40.326  12.506
65221W        W33615  13.257   8.098  13.063
65222W        W33616   9.495   8.310   3.335
65223W        W33617  18.480  32.562  11.977
65224W        W33618  38.788  10.988  10.668
65225W        W33619  16.496   3.311  12.443
65226W        W33620  26.760   9.729  10.195
65227W        W33621   9.378  27.525  11.970
65228W        W33622  40.273  42.573   0.715
65229W        W33623  24.732  37.911  13.582
65230W        W33624  35.098   0.712  12.068
65231W        W33625  41.591  12.882   4.207
65232W        W33626  26.628  31.956   4.475
65233W        W33627  16.013   1.001  11.120
65234W        W33628  17.485   4.937   0.950
65235W        W33629  26.567  32.227  12.015
65236W        W33630   9.915   3.411  10.230
65237W        W33631  41.579  33.145   0.469
65238W        W33632  36.910  44.724  14.393
65239W        W33633   8.132  35.194   2.773
65240W        W33634  21.547  23.187  13.600
65241W        W33635  41.310   7.634  13.098
65242W        W33636  36.362  16.747   1.171
65243W        W33637  12.369  36.002   1.237
65244W        W33638  11.700  16.679  12.399
65245W        W33639   2.951  12.082   2.960
65246W        W33640   4.660   7.296   1.262
65247W        W33641  36.678   0.911   4.946
65248W        W33642  14.356  33.139   1.741
65249W        W33643  30.630  43.036  11.431
65250W        W33644  20.104   4.245  12.436
65251W        W33645  13.612  12.744   4.845
65252W        W33646  24.871   8.125   2.669
65253W        W33647  29.545  22.804  11.556
65254W        W33648  38.294   6.096   3.303
65255W        W33649  31.160  11.262   1.307
65256W        W33650  32.556  39.389  11.501
65257W        W33651  20.488   9.253   3.730
65258W        W33652   3.468  16.831  11.512
65259W        W33653  19.128  32.673  13.444
65260W        W33654  40.777  33.700  13.395
65261W        W33655  12.386  42.036   4.214
65262W        W33656  28.418  19.372   3.285
65263W        W33657  22.607  29.640  11.931
65264W        W33658  10.407  33.157  14.904
65265W        W33659   5.473  20.375   0.440
65266W        W33660  36.480   8.449   2.314
65267W        W33661  10.739  30.748   1.852
65268W        W33662  37.597   6.983   1.194
65269W        W33663   7.598  15.769  11.123
65270W        W33664  16.999  28.184  11.908
65271W        W33665  20.088  42.429  12.982
65272W        W33666  26.586  37.815   3.388
65273W        W33667  17.674   5.477  13.552
65274W        W33668  31.551  30.892  10.732
65275W        W33669   9.309   3.207  14.517
65276W        W33670  32.951  42.740  14.013
65277W        W33671  33.643   5.237   3.718
65278W        W33672  22.246  27.038  10.368
65279W        W33673   8.816  24.369   0.174
65280W        W33674  33.554  37.878  13.011
65281W        W33675  26.106   4.954   4.042
65282W        W33676  12.833  23.821  13.110
65283W        W33677  18.991  34.127  14.731
65284W        W33678  11.732  20.931  14.826
65285W        W33679  13.213  11.864   1.436
65286W        W33680  25.038   5.178  12.592
65287W        W33681  28.432  13.873   3.105
65288W        W33682  28.701  28.350  11.478
65289W        W33683  17.640   9.586   1.526
65290W        W33684   9.097   9.677   0.320
65291W        W33685  18.132  36.384  13.525
65292W        W33686  38.537  36.376  13.498
65293W        W33687   6.752   1.145  11.726
65294W        W33688   3.872  25.598   4.008
65295W        W33689   1.159  20.321   1.419
65296W        W33690  14.472   8.875   1.435
65297W        W33691  39.883  38.896   0.893
65298W        W33692  17.801  41.526  12.430
65299W        W33693  16.509  25.911   9.732
65300W        W33694  13.821   3.640  12.447
65301W        W33695  14.144  23.126  10.768
65302W        W33696   0.823  36.304   4.592
65303W        W33697  33.172   3.816  13.694
65304W        W33698  36.935   6.302   3.667
65305W        W33699   2.755  25.679   2.650
65306W        W33700  14.948   0.255  11.568
65307W        W33701  28.481  30.994   1.463
65308W        W33702   4.243  30.533   3.091
65309W        W33703  13.228  28.766   4.590
65310W        W33704  16.107  35.129   1.281
65311W        W33705  40.376  44.308  12.465
65312W        W33706  40.288  19.176   4.917
65313W        W33707  16.649  42.839  11.121
65314W        W33708   3.440  12.272   9.892
65315W        W33709   7.668  13.785   3.274
65316W        W33710  29.972  21.261   3.324
65317W        W33711  38.926  15.279  13.057
65318W        W33712  11.387  13.115  13.341
65319W        W33713  42.787   4.279   3.218
65320W        W33714  38.840   9.228   2.621
65321W        W33715  12.340  38.885  13.850
65322W        W33716  20.087  28.416   2.384
65323W        W33717  37.406  24.605  14.474
65324W        W33718  15.009  37.844  10.938
65325W        W33719  26.415  35.472  12.109
65326W        W33720   6.847  16.871  12.102
65327W        W33721  40.767  31.883   3.264
65328W        W33722   4.976  10.673   1.193
65329W        W33723  25.037  26.145   3.065
65330W        W33724  39.583  25.699  11.175
65331W        W33725  23.286   4.710   2.278
65332W        W33726  34.094  20.567  13.505
65333W        W33727  36.796   6.112  14.493
65334W        W33728  25.645  23.549   2.361
65335W        W33729  30.144  37.254  11.136
65336W        W33730  11.205  31.380  10.612
65337W        W33731  13.024   9.123  12.439
65338W        W33732  12.467  25.511  11.092
65339W        W33733   2.841   2.430   4.033
65340W        W33734  31.472  24.942   1.556
65341W        W33735  19.279   6.860   1.388
65342W        W33736  16.640  35.763   3.283
65343W        W33737  29.616  12.572  12.083
65344W        W33738   6.386  24.108   0.838
65345W        W33739  40.447  18.775  14.842
65346W        W33740   3.350   6.571  10.686
65347W        W33741  29.471   1.913  13.317
65348W        W33742  31.781  42.726  13.878
65349W        W33743  30.981  43.514  12.919
65350W        W33744  13.693  44.647  12.574
65351W        W33745  33.566  14.596   1.714
65352W        W33746  26.858   6.498   0.244
65353W        W33747   4.517  10.212   2.607
65354W        W33748  43.201  41.881   1.735
65355W        W33749  30.522  10.743  13.333
65356W        W33750  33.919  24.229   4.562
65357W        W33751  27.523  13.634  12.907
65358W        W33752  39.497  21.255   0.790
65359W        W33753  38.314  27.509  12.574
65360W        W33754  42.463   5.665  10.628
65361W        W33755  15.789   2.740   1.040
65362W        W33756  35.512  24.723  12.824
65363W        W33757   1.312  23.171   2.953
65364W        W33758   1.446   7.975   4.192
65365W        W33759  12.766   7.140  15.000
65366W        W33760  37.976  35.566  14.277
65367W        W33761  33.649  32.930   2.134
65368W        W33762  35.635   5.952   1.740
65369W        W33763  24.183  11.306  14.136
65370W        W33764   9.687  10.306  13.684
65371W        W33765  26.440   0.922  10.248
65372W        W33766  42.223  42.515  13.964
65373W        W33767   3.234   1.445   4.728
65374W        W33768  30.646  10.948   0.318
65375W        W33769  16.702  27.563   1.407
65376W        W33770  27.626  23.138  10.401
65377W        W33771  31.941  44.641   4.419
65378W        W33772  16.262  35.421   3.478
65379W        W33773  12.708  32.294   2.455
65380W        W33774  23.695  35.479   1.219
65381W        W33775  23.035  22.403   1.168
65382W        W33776  22.698  16.582  10.254
65383W        W33777  11.181   0.581  13.910
65384W        W33778   6.165  38.911  10.738
65385W        W33779  39.848  21.275  14.525
65386W        W33780  12.654  33.620   3.215
65387W        W33781  34.463   5.655  12.434
65388W        W33782  42.108   8.262  12.376
65389W        W33783  19.952  38.712  14.615
65390W        W33784  11.022   2.433   4.853
65391W        W33785  37.519  35.422   2.047
65392W        W33786  10.462   1.766   1.669
65393W        W33787  22.734  30.149   3.876
65394W        W33788  24.782   5.730   3.653
65395W        W33789   5.189  25.258   0.472
65396W        W33790  25.921  23.245   2.812
65397W        W33791  34.323  21.351   4.176
65398W        W33792  41.955   6.988   4.247
65399W        W33793  29.301   0.966   0.446
65400W        W33794  37.226  16.926  12.357
65401W        W33795  27.726  30.961  14.804
65402W        W33796  25.582  13.595  10.906
65403W        W33797   3.774  40.378   3.673
65404W        W33798  39.394  33.648  11.084
65405W        W33799  22.954  42.418   3.329
65406W        W33800  32.381  40.060  11.502
65407W        W33801  30.039  32.183  13.470
65408W        W33802  40.986   3.533  13.884
65409W        W33803  32.801   6.981   0.931
65410W        W33804  21.087  20.752   3.235
65411W        W33805  23.524  11.740   2.704
65412W        W33806  40.187   1.748  13.956
65413W        W33807  20.728  16.917   4.182
65414W        W33808  31.595  25.671   3.459
65415W        W33809   9.277  36.347   0.813
65416W        W33810   8.690   5.546  12.806
65417W        W33811   3.778  40.223   1.231
65418W        W33812  23.687  44.329   3.128
65419W        W33813  33.186  19.086   1.429
65420W        W33814  16.567  34.034  12.874
65421W        W33815  20.481  41.251  11.951
65422W        W33816  44.134   8.168   0.968
65423W        W33817  35.688   1.387  14.275
65424W        W33818  25.465  32.650  11.499
65425W        W33819   9.641  11.274   2.143
65426W        W33820  34.023  20.366  11.766
65427W        W33821  35.138  18.142   4.704
65428W        W33822   3.710  13.738  12.368
65429W        W33823   7.892  39.995  11.121
65430W        W33824   6.565  25.064   4.130
65431W        W33825  12.419  32.933  12.499
65432W        W33826  13.091   7.185   2.596
65433W        W33827   0.465  14.644  13.412
65434W        W33828  24.102   9.040  11.954
65435W        W33829   3.790   8.103   2.894
65436W        W33830  13.845  38.914   1.225
65437W        W33831  18.220  17.623  13.068
65438W        W33832  10.467  10.299   3.575
65439W        W33833  27.131  25.849  11.369
65440W        W33834  14.897  33.227   4.365
65441W        W33835  39.819  40.571  11.157
65442W        W33836  18.526  23.006  11.978
65443W        W33837  38.381   0.728  13.666
65444W        W33838   2.754  39.038   1.643
65445W        W33839  35.156   1.063   1.927
65446W        W33840  23.063  37.865  14.679
65447W        W33841   2.710  43.600   0.395
65448W        W33842  28.749  41.463   3.343
65449W        W33843  38.818  22.975  11.476
65450W        W33844  26.006  25.767  14.250
65451W        W33845  41.004  21.097  11.936
65452W        W33846  18.605  32.533  14.316
65453W        W33847  12.601  38.845  10.697
65454W        W33848  25.355   6.889  12.071
65455W        W33849   9.641  24.973   2.224
65456W        W33850  12.748  42.554   3.386
65457W        W33851   7.333  41.062  10.748
65458W        W33852  40.479  24.898  14.906
65459W        W33853  12.943  41.963  10.669
65460W        W33854  11.354   6.480  14.015
65461W        W33855  35.737  32.141  14.092
65462W        W33856  38.519   0.348   3.941
65463W        W33857  39.721  17.277   0.322
65464W        W33858  27.459   9.680   5.122
65465W        W33859  39.058  19.214  14.908
65466W        W33860  35.590  38.232   3.576
65467W        W33861  39.688  25.255  11.960
65468W        W33862  41.000  22.138  13.832
65469W        W33863  31.409  39.392  13.937
65470W        W33864  27.153  19.687   3.689
65471W        W33865  12.270   6.455  10.708
65472W        W33866  42.042  42.268  13.042
65473W        W33867  39.776  42.931  14.768
65474W        W33868  20.212  24.996   2.320
65475W        W33869  39.938  17.608   1.725
65476W        W33870  43.253  28.208   4.900
65477W        W33871  25.979  22.677   4.096
65478W        W33872  23.104   2.417   2.440
65479W        W33873  33.306   4.837  11.609
65480W        W33874  25.593  11.633  11.414
65481W        W33875  35.429  23.120   4.106
65482W        W33876  17.274  42.010   1.366
65483W        W33877  42.974  39.923   0.311
65484W        W33878  43.458  12.317   0.425
65485W        W33879   3.023   1.074   5.058
65486W        W33880  38.615  17.821   3.873
65487W        W33881  37.546  30.261  12.668
65488W        W33882  20.172  13.332   3.714
65489W        W33883   8.688  15.344   3.349
65490W        W33884  41.792  28.719   3.987
65491W        W33885  44.558  20.414  11.221
65492W        W33886  12.154  39.111  10.645
65493W        W33887  30.725   1.457   2.743
65494W        W33888  17.988  31.199  14.282
65495W        W33889   3.322  40.471  13.795
65496W        W33890  41.555   0.453  12.009
65497W        W33891   4.368  37.995  10.732
65498W        W33892  33.909  27.018  14.790
65499W        W33893  24.362  19.606   0.827
65500W        W33894   9.219  41.854   3.824
65501W        W33895  37.231   6.702   3.903
65502W        W33896  23.805  29.707   4.712
65503W        W33897  33.948  44.666  11.683
65504W        W33898   1.273  37.814   2.686
65505W        W33899  32.200  39.982   3.623
65506W        W33900  42.944  40.007   3.209
65507W        W33901  39.520  43.379  14.782
65508W        W33902   8.167   1.934  14.769
65509W        W33903   0.533  14.073  13.329
65510W        W33904   7.371  21.198   0.619
65511W        W33905  24.356  37.417   0.944
65512W        W33906  43.834  13.139   3.937
65513W        W33907  24.841  30.044   2.264
65514W        W33908  36.536   7.611  13.876
65515W        W33909  20.720  39.577   2.253
65516W        W33910  34.455  38.418   3.044
65517W        W33911  13.657  27.013   4.640
65518W        W33912  27.202  44.246  12.817
65519W        W33913  32.540  11.538  14.713
65520W        W33914  26.657  26.078  12.529
65521W        W33915  32.552  41.321   0.385
65522W        W33916   8.871  11.180   0.816
65523W        W33917  34.633  17.003   3.436
65524W        W33918  19.003  11.187  12.912
65525W        W33919  41.491   5.217  11.082
65526W        W33920  13.561  40.938   4.547
65527W        W33921  17.176  28.647  14.469
65528W        W33922  31.168   5.781  13.000
65529W        W33923  21.672  29.900  11.110
65530W        W33924  39.297  37.332   0.999
65531W        W33925   4.508   2.886   1.900
65532W        W33926   0.942  23.401  11.678
65533W        W33927  19.402  35.316  12.809
65534W        W33928  13.883  18.393  12.894
65535W        W33929  31.314  26.936   4.759
65536W        W33930  31.671  32.970   1.223
65537W        W33931  41.288  38.499   3.855
65538W        W33932   4.890  14.870  10.867
65539W        W33933   6.114  36.059   2.222
65540W        W33934   9.200  43.324   4.902
65541W        W33935   6.782  42.386  13.917
65542W        W33936  10.981  41.971   1.601
65543W        W33937  22.678  37.324   4.705
65544W        W33938   7.422  18.371  11.112
65545W        W33939  24.596   3.746   0.549
65546W        W33940   4.946  12.813   5.049
65547W        W33941  32.413  43.885   3.787
65548W        W33942  40.585   1.003  11.999
65549W        W33943  13.168  32.638   0.322
65550W        W33944  29.525  30.556   3.853
65551W        W33945  30.143  21.614   0.456
65552W        W33946  25.661  29.730   4.695
65553W        W33947  34.876  12.207  11.756
65554W        W33948  21.675  16.765   1.447
65555W        W33949  32.863   4.784   3.601
65556W        W33950  31.569   5.304  14.831
65557W        W33951  30.498  21.126   0.957
65558W        W33952  34.697  22.210  12.872
65559W        W33953   1.863  13.071  10.580
65560W        W33954  35.029  22.220  10.925
65561W        W33955  16.274  40.552   1.909
65562W        W33956   1.294  43.635  10.646
65563W        W33957  13.693   0.946   2.379
65564W        W33958  28.427  42.875   4.131
65565W        W33959  19.081   4.689  10.198
65566W        W33960   7.399   9.794  10.743
65567W        W33961   0.236  18.272  12.481
65568W        W33962   8.315   7.830  12.670
65569W        W33963  14.440  44.646  11.627
65570W        W33964  38.575  22.706  13.042
65571W        W33965  25.669  20.074   4.273
65572W        W33966  32.060  25.860   0.790
65573W        W33967  42.850  36.502   3.999
65574W        W33968  33.445  26.471   2.643
65575W        W33969   5.242  33.972   3.661
65576W        W33970  29.034  14.810  10.516
65577W        W33971  27.162  22.895   2.954
65578W        W33972  31.820  44.585   3.779
65579W        W33973  41.017   3.755   2.866
65580W        W33974  37.311  10.658   4.264
65581W        W33975  14.524  42.792  11.908
65582W        W33976  24.184  10.162  12.616
65583W        W33977  24.632  27.443   4.304
65584W        W33978  43.969  41.837  13.930
65585W        W33979  11.869  29.516  14.528
65586W        W33980  36.917  44.407  11.547
65587W        W33981  38.036  17.143   4.405
65588W        W33982  22.623  15.136  10.631
65589W        W33983  38.469   3.254   1.659
65590W        W33984   4.150  33.298  11.068
65591W        W33985  24.956  23.990  13.526
65592W        W33986  16.583  25.655   4.618
65593W        W33987  37.593   3.964  12.494
65594W        W33988  29.196  39.089  12.792
65595W        W33989  15.615  24.130   0.400
65596W        W33990  31.085  31.427   4.226
65597W        W33991  32.853   0.884   1.862
65598W        W33992  27.700  11.258   2.248
65599W        W33993  15.123  24.929   4.300
65600W        W33994  12.535  34.945   2.409
65601W        W33995  14.642  13.232   1.344
65602W        W33996  21.223  17.315   4.973
65603W        W33997  27.891   8.820   4.199
65604W        W33998  40.736  17.248   0.320
65605W        W33999   0.807   1.037   1.961
65606W        W34000  39.770  28.970   1.303
65607W        W34001  19.530  30.177  12.510
65608W        W34002   8.489  26.721  14.084
65609W        W34003  40.889  40.612  12.113
65610W        W34004  32.212  44.075  10.740
65611W        W34005  13.347  44.551   4.518
65612W        W34006  21.605  41.059   3.982
65613W        W34007   2.820  14.620   3.680
65614W        W34008  33.691  33.407   4.558
65615W        W34009   1.436  32.913  11.934
65616W        W34010   1.125  22.197   2.204
65617W        W34011  31.975  30.371   0.482
65618W        W34012  24.901   8.038   0.358
65619W        W34013  20.192  11.207   4.601
65620W        W34014  13.339  42.221  11.560
65621W        W34015  23.302  14.851   1.419
65622W        W34016   3.670  44.800  11.056
65623W        W34017  14.721  12.722  13.267
65624W        W34018  44.431  36.591   0.372
65625W        W34019  11.908  12.495   1.775
65626W        W34020  44.403  34.907   0.064
65627W        W34021  18.487  35.050   3.325
65628W        W34022  20.199  10.281  11.943
65629W        W34023  39.480  31.328  10.632
65630W        W34024  31.069  42.997  11.720
65631W        W34025  38.283  31.218  11.217
65632W        W34026  32.995  25.287   0.216
65633W        W34027   7.387  42.951  10.632
65634W        W34028  43.861  37.095   1.045
65635W        W34029  28.524   2.859  14.730
65636W        W34030  18.325   9.316   0.970
65637W        W34031  39.926  21.659   3.216
65638W        W34032  20.001   1.964  14.065
65639W        W34033  36.763  31.939  10.856
65640W        W34034   2.049  10.818   4.671
65641W        W34035  42.246  33.599  11.932
65642W        W34036  37.245  19.764   0.325
65643W        W34037  40.488  36.230   1.990
65644W        W34038  31.348  19.820   3.500
65645W        W34039   0.194  40.950   4.596
65646W        W34040  26.784  14.464   2.755
65647W        W34041  28.533   2.923   3.145
65648W        W34042   1.522   4.321   4.121
65649W        W34043  36.618  23.255  14.494
65650W        W34044  39.601   0.949   0.947
65651W        W34045  23.202  26.716   4.174
65652W        W34046  41.858  33.957  11.854
65653W        W34047   1.103  40.048  14.069
65654W        W34048  17.721  20.184   0.842
65655W        W34049  27.812  40.049  11.072
65656W        W34050   4.362  32.354   1.671
65657W        W34051  39.788  13.403   2.200
65658W        W34052  17.138   0.818  10.564
65659W        W34053  25.517  11.185   3.276
65660W        W34054   4.448  18.604  14.890
65661W        W34055  16.188   7.854   1.134
65662W        W34056  34.676  35.885   4.574
65663W        W34057  21.184  11.717  10.609
65664W        W34058  19.123  16.623   0.799
65665W        W34059  32.443   3.345   1.261
65666W        W34060  18.361  29.708  12.044
65667W        W34061   7.179  40.865   3.241
65668W        W34062  32.574  10.478   2.635
65669W        W34063   4.461  24.788  11.983
65670W        W34064   7.442  10.890   3.966
65671W        W34065  41.816  24.422  12.892
65672W        W34066   7.030  14.619   5.012
65673W        W34067  19.022  42.868   4.731
65674W        W34068   9.360  44.313  13.555
65675W        W34069   3.703  12.115   5.042
65676W        W34070   9.003   7.494  14.349
65677W        W34071   6.737  20.179   3.266
65678W        W34072  12.810  21.672  13.642
65679W        W34073  14.606  18.451   3.840
65680W        W34074  21.614   2.420   0.035
65681W        W34075  26.378  21.071  10.440
65682W        W34076   2.877   1.416   4.361
65683W        W34077  35.843  33.514  14.961
65684W        W34078  28.036  29.286  12.011
65685W        W34079   3.501   5.400   5.513
65686W        W34080  23.578  23.639  12.376
65687W        W34081  24.986  43.120  11.673
65688W        W34082  32.509  35.528   4.604
65689W        W34083  22.974  13.608  11.540
65690W        W34084   8.889   9.478  12.956
65691W        W34085   6.700   4.248   2.887
65692W        W34086  17.380  36.058   4.628
65693W        W34087  34.872  28.172   3.117
65694W        W34088  32.366  40.566  14.696
65695W        W34089  38.798   1.453  13.754
65696W        W34090  40.346   8.179  11.171
65697W        W34091  32.433  42.762   0.186
65698W        W34092  43.506  32.419   2.991
65699W        W34093  13.857   7.835   0.394
65700W        W34094  17.241  33.621   3.789
65701W        W34095  27.856  32.423   0.535
65702W        W34096  13.667   8.395   1.185
65703W        W34097  41.961   9.079  11.248
65704W        W34098   7.015   3.739  11.445
65705W        W34099  38.972  23.978   1.462
65706W        W34100  29.965  32.650  11.127
65707W        W34101  44.227  38.375  12.053
65708W        W34102  12.753  44.790   2.187
65709W        W34103  38.297   6.101  12.413
65710W        W34104  11.659   0.779   1.019
65711W        W34105  35.966  24.011   2.426
65712W        W34106  16.157  18.270   4.563
65713W        W34107  14.339  31.143  13.438
65714W        W34108   1.118  14.179  14.872
65715W        W34109  26.011  19.150  11.019
65716W        W34110  23.135  39.465  13.413
65717W        W34111   7.757  36.475   0.921
65718W        W34112  32.122  43.237   4.473
65719W        W34113  12.164   8.614   3.586
65720W        W34114   9.790   6.711  12.283
65721W        W34115  33.672  19.614   2.802
65722W        W34116  20.455  28.716   4.973
65723W        W34117  19.181  40.766   2.717
65724W        W34118  13.689  19.637   2.952
65725W        W34119  27.097   1.949   4.076
65726W        W34120  42.860   0.349   2.660
65727W        W34121  36.276   9.903   4.021
65728W        W34122  34.549   7.192   1.326
65729W        W34123  41.553  19.036  12.502
65730W        W34124  44.929  34.288  13.361
65731W        W34125  33.435  22.300  11.552
65732W        W34126  12.679  20.365   2.640
65733W        W34127  42.963  38.395  14.923
65734W        W34128  33.192  43.372  12.551
65735W        W34129   9.619   2.692  11.807
65736W        W34130  22.556  25.338  14.947
65737W        W34131  27.203   9.455  10.231
65738W        W34132  33.593  26.976   1.723
65739W        W34133  23.007  42.928   3.799
65740W        W34134  39.582  23.892   0.960
65741W        W34135  11.137  12.894  12.958
65742W        W34136  18.164  19.896   1.624
65743W        W34137  29.871  34.919  10.441
65744W        W34138  28.555  25.080   0.041
65745W        W34139  17.284   4.696   1.878
65746W        W34140   8.323  28.084  11.854
65747W        W34141  13.956   1.896  14.427
65748W        W34142  11.174   5.727  13.584
65749W        W34143  42.040   9.622  12.375
65750W        W34144  22.632  36.017   2.499
65751W        W34145  21.493  18.750   2.258
65752W        W34146  19.262  21.024   2.665
65753W        W34147   1.978  38.003  11.003
65754W        W34148  21.744  38.884  12.572
65755W        W34149  16.358  32.627  12.936
65756W        W34150   9.298  20.991   4.129
65757W        W34151  33.955  31.208  11.411
65758W        W34152  39.123  16.385   4.238
65759W        W34153  31.411  18.533  13.374
65760W        W34154  40.569  30.899   1.251
65761W        W34155  26.109  43.733   0.307
65762W        W34156  28.404  23.401  14.790
65763W        W34157  42.449  44.579   2.893
65764W        W34158  35.413  20.025   0.344
65765W        W34159  28.871  27.695   1.331
65766W        W34160  36.856  32.439  12.019
65767W        W34161  19.304  26.575  13.354
65768W        W34162  28.977  37.727  14.171
65769W        W34163  24.751   6.472  14.111
65770W        W34164   7.686  26.673   4.539
65771W        W34165  23.203  20.751  12.009
65772W        W34166  23.317  44.772  14.847
65773W        W34167  15.639  29.351  10.282
65774W        W34168  19.744  13.443  10.762
65775W        W34169  34.281  27.606  10.778
65776W        W34170  26.639  18.643  13.661
65777W        W34171  29.475   0.663  12.654
65778W        W34172  23.588  27.203   0.947
65779W        W34173  24.121  16.281  12.883
65780W        W34174  22.067  26.294  13.484
65781W        W34175  32.011  10.258  14.507
65782W        W34176  19.225  24.413   4.673
65783W        W34177  19.100  27.770   2.612
65784W        W34178   1.151  30.501  14.867
65785W        W34179   2.195  33.056  12.533
65786W        W34180  32.714  22.180   2.472
65787W        W34181   7.173  25.174   3.400
65788W        W34182   5.430   6.177  13.610
65789W        W34183  11.726  27.847   4.104
65790W        W34184   1.545  37.476  13.440
65791W        W34185   4.913  37.207   2.861
65792W        W34186  38.009  42.112   4.615
65793W        W34187   4.198  12.630  10.880
65794W        W34188  38.310   7.346  13.880
65795W        W34189   6.532  38.281   4.416
65796W        W34190  11.450  27.948  14.452
65797W        W34191   0.485  20.218   0.273
65798W        W34192  10.761   7.440  13.399
65799W        W34193  43.048   8.672   2.270
65800W        W34194  24.896   0.561  10.764
65801W        W34195   1.866  13.906   1.878
65802W        W34196  15.061  43.534  12.018
65803W        W34197  11.114  43.288   1.215
65804W        W34198  24.209   8.569   2.190
65805W        W34199   2.963  24.954   0.396
65806W        W34200  28.482   5.934   1.295
65807W        W34201  22.461  11.767   0.943
65808W        W34202  29.422  35.620  12.006
65809W        W34203  42.773  16.565   1.187
65810W        W34204   0.557  36.513   3.294
65811W        W34205  31.501  41.408  11.123
65812W        W34206  35.489   7.317  10.733
65813W        W34207  10.512  31.916  14.948
65814W        W34208  29.567  24.232   3.751
65815W        W34209  41.962  35.361  11.126
65816W        W34210  22.466  26.618  10.087
65817W        W34211  29.511  41.713  11.248
65818W        W34212  19.946  11.762  11.126
65819W        W34213  17.252  10.393   1.914
65820W        W34214  31.410  44.371   2.391
65821W        W34215  43.397   1.284   0.516
65822W        W34216  35.058  14.310   0.243
65823W        W34217  43.842   3.101   2.169
65824W        W34218  19.241   3.298  11.990
65825W        W34219  44.001  17.728  12.712
65826W        W34220  25.722  17.177   0.391
65827W        W34221  40.034  39.248   4.620
65828W        W34222   4.397  16.462   0.097
65829W        W34223   2.783  15.117   4.188
65830W        W34224   9.125  18.791  11.602
65831W        W34225  12.051   2.842  12.116
65832W        W34226  11.142  35.587   4.136
65833W        W34227   7.938   4.861  13.068
65834W        W34228  30.833  17.190  13.836
65835W        W34229  16.159  41.315   0.586
65836W        W34230  38.942   3.238   4.333
65837W        W34231  23.977  22.749  11.157
65838W        W34232   4.708  44.821  13.864
65839W        W34233  17.604  15.919   4.576
65840W        W34234  31.468  18.337  11.572
65841W        W34235   8.185  18.872  10.604
65842W        W34236  36.597   1.230  12.488
65843W        W34237  22.563  16.827   0.446
65844W        W34238  40.339  16.743   2.410
65845W        W34239   4.874   8.853  12.545
65846W        W34240  17.649  19.737  11.154
65847W        W34241  27.501   0.351  11.630
65848W        W34242   6.353  42.872   1.323
65849W        W34243  31.961  27.909  12.025
65850W        W34244   6.439  43.836  12.475
65851W        W34245  23.621  42.896  13.933
65852W        W34246  30.922   8.328   2.104
65853W        W34247  27.756   2.228   1.885
65854W        W34248  44.364  31.532  13.026
65855W        W34249  13.712  11.922  13.674
65856W        W34250   7.266  11.231  10.684
65857W        W34251  15.803  40.914  12.534
65858W        W34252  30.012   9.703   3.925
65859W        W34253  12.097  26.988  13.600
65860W        W34254  26.672  41.335  14.848
65861W        W34255   6.698  37.902  13.459
65862W        W34256  22.454  42.887   3.726
65863W        W34257  30.696   9.169   3.187
65864W        W34258  11.808  11.761   1.404
65865W        W34259  30.868  38.860   4.607
65866W        W34260  29.906  24.773  12.999
65867W        W34261  36.481  40.077  13.373
65868W        W34262  22.614  29.018   0.726
65869W        W34263  11.078  16.265  11.635
65870W        W34264  12.284   6.948  10.860
65871W        W34265  11.192  43.862   3.052
65872W        W34266  44.835  43.857  10.480
65873W        W34267  34.862   9.880   1.735
65874W        W34268   5.899  38.590  11.401
65875W        W34269  27.069  24.276  12.466
65876W        W34270  30.462  17.287  12.042
65877W        W34271   3.293  12.808   0.297
65878W        W34272  21.263  17.703  13.822
65879W        W34273  20.264  34.402  14.067
65880W        W34274  14.695   4.916   2.773
65881W        W34275  31.666  33.597  14.182
65882W        W34276  28.028  19.305  11.162
65883W        W34277  25.281  44.378  11.160
65884W        W34278  37.091  37.257  12.218
65885W        W34279   4.322  14.801  14.343
65886W        W34280   4.674  11.838  13.477
65887W        W34281  26.590   7.316  11.495
65888W        W34282   7.791  21.212  13.338
65889W        W34283  16.207  18.086   4.091
65890W        W34284  32.964  21.740   3.096
65891W        W34285  19.625  15.145  11.268
65892W        W34286  32.427  16.799  14.475
65893W        W34287  23.048  30.349  13.729
65894W        W34288   5.708  25.052  12.481
65895W        W34289   1.811   8.188  11.370
65896W        W34290  18.277  22.992  12.435
65897W        W34291  34.071   0.753   0.342
65898W        W34292  37.972  13.560   1.821
65899W        W34293  35.958  12.196  12.076
65900W        W34294   8.422  17.550  14.964
65901W        W34295  28.522  23.085  14.403
65902W        W34296   8.545  23.811   1.464
65903W        W34297  17.022  44.260  13.013
65904W        W34298  27.531   5.940  13.756
65905W        W34299  20.664  16.057  13.190
65906W        W34300  41.531   2.968   1.958
65907W        W34301  37.605  38.115  14.342
65908W        W34302  17.060  15.025   3.854
65909W        W34303  27.448  38.030  13.937
65910W        W34304   6.334  15.268  14.814
65911W        W34305  12.900  31.372  11.533
65912W        W34306  24.137  28.150   3.657
65913W        W34307  22.810  32.618  14.980
65914W        W34308  43.570  19.771  13.486
65915W        W34309  13.811  17.818   2.340
65916W        W34310  28.514   6.444   1.342
65917W        W34311  11.267   7.420  14.479
65918W        W34312  25.885  24.493   4.929
65919W        W34313  25.642   2.223   3.777
65920W        W34314  15.712  16.097  12.381
65921W        W34315  13.078  44.262   4.167
65922W        W34316  41.342  17.346   3.237
65923W        W34317  42.175   5.612   4.728
65924W        W34318  41.057  35.400  12.572
65925W        W34319   8.443   8.940   2.847
65926W        W34320  12.305   4.721   4.716
65927W        W34321  15.589   6.976   4.475
65928W        W34322  16.239   3.804  11.627
65929W        W34323  40.449  12.736  11.306
65930W        W34324  40.167   6.649   4.081
65931W        W34325  33.207  18.756  13.413
65932W        W34326  13.900  16.744  14.789
65933W        W34327   7.948  43.856   2.864
65934W        W34328   7.223  38.600   2.753
65935W        W34329  38.109  26.988  10.558
65936W        W34330   7.359   0.950   1.203
65937W        W34331  44.377   7.281   1.323
65938W        W34332  24.118  27.176  12.790
65939W        W34333   1.999  40.569   3.670
65940W        W34334  34.064  26.461   2.274
65941W        W34335  21.313  25.083  13.703
65942W        W34336  24.541  13.110   3.763
65943W        W34337  30.255  44.651  11.445
65944W        W34338  38.964   7.204  11.983
65945W        W34339  34.997  39.583  13.942
65946W        W34340   8.598   4.991   3.854
65947W        W34341   3.634  26.540  10.292
65948W        W34342  10.309  16.672  11.446
65949W        W34343  15.177  24.654   0.665
65950W        W34344   7.669  23.734  13.393
65951W        W34345  25.455  35.137  14.543
65952W        W34346  30.601  31.643   4.124
65953W        W34347  14.350  38.853   1.369
65954W        W34348  38.480  36.908   4.395
65955W        W34349  17.301  35.948  10.586
65956W        W34350  44.748  12.639   3.641
65957W        W34351  17.053   8.285   1.779
65958W        W34352  42.858   1.607  10.368
65959W        W34353  40.316  13.406   1.321
65960W        W34354  24.332  36.114   4.185
65961W        W34355  18.514  17.285   0.375
65962W        W34356   3.866  42.356  11.957
65963W        W34357  30.056  25.977  12.526
65964W        W34358  43.239  24.284  13.556
65965W        W34359  23.954  29.848   3.008
65966W        W34360   3.739  33.989   0.857
65967W        W34361  16.333  15.315   3.126
65968W        W34362  19.933  30.233  14.321
65969W        W34363  44.871  24.549  14.892
65970W        W34364   7.654  26.617  13.211
65971W        W34365  40.513   4.638  14.759
65972W        W34366   5.060  19.242   1.474
65973W        W34367  40.558  17.625   3.636
65974W        W34368  20.243   4.289   3.882
65975W        W34369  26.694  25.940   0.914
65976W        W34370  35.606   9.744   2.142
65977W        W34371   7.855  21.607  10.777
65978W        W34372   1.739  36.768   2.658
65979W        W34373  20.792  39.963  11.885
65980W        W34374  41.802  15.900   2.368
65981W        W34375  26.758  18.703   4.991
65982W        W34376  31.008  25.879  12.221
65983W        W34377  35.587  44.190   0.016
65984W        W34378   0.900   7.763   3.916
65985W        W34379  38.823  26.468  14.377
65986W        W34380  15.062  34.406  12.918
65987W        W34381   3.689  27.085  13.895
65988W        W34382  10.940  38.564  11.107
65989W        W34383   9.144  40.330   4.961
65990W        W34384  37.354  28.167   0.027
65991W        W34385  32.787  29.404   0.687
65992W        W34386  38.001  36.626  14.212
65993W        W34387  25.483  19.203   3.765
65994W        W34388  25.615  42.132  12.842
65995W        W34389  12.310  24.057  12.184
65996W        W34390   0.802  17.148   3.204
65997W        W34391  15.598  31.028   2.833
65998W        W34392  14.331  36.415  10.712
65999W        W34393   6.535  24.475  13.832
66000W        W34394   4.790  24.217  14.753
66001W        W34395  42.801  33.802  11.908
66002W        W34396  34.481  30.068   1.828
66003W        W34397  22.677   1.316   4.235
66004W        W34398   8.792  34.580  12.019
66005W        W34399  18.499   1.059   1.382
66006W        W34400  38.668  18.827   1.439
66007W        W34401  41.633  13.173   3.622
66008W        W34402  40.858  31.462  10.667
66009W        W34403  12.378  22.274   2.874
66010W        W34404  23.965   7.907  14.344
66011W        W34405  16.765   0.741   0.310
66012W        W34406  15.885  34.965   0.850
66013W        W34407  21.510  20.950  12.504
66014W        W34408  19.130  25.718  14.694
66015W        W34409  11.680  13.257   1.361
66016W        W34410  40.071  25.575  13.152
66017W        W34411  32.085  24.387  10.745
66018W        W34412  29.771  36.585   4.363
66019W        W34413  41.752  23.657  14.855
66020W        W34414  22.648  27.398   2.797
66021W        W34415  11.570  20.912  11.298
66022W        W34416  22.417  25.497  14.484
66023W        W34417  26.170   1.536  13.810
66024W        W34418  27.196  27.148  13.437
66025W        W34419  26.972   1.755   3.113
66026W        W34420  21.081  19.260   0.906
66027W        W34421  17.714  40.893  11.732
66028W        W34422  21.722  20.174  11.171
66029W        W34423  19.029  37.314   4.222
66030W        W34424  14.606   1.291  14.405
66031W        W34425   5.211   9.613  12.469
66032W        W34426  41.213  43.966   0.001
66033W        W34427  31.121   4.803  13.990
66034W        W34428   4.462  16.217  13.392
66035W        W34429  25.360  16.627  10.713
66036W        W34430  22.050  21.401   2.799
66037W        W34431   9.297  12.291  13.132
66038W        W34432   3.063  31.263  11.579
66039W        W34433  14.318  26.448  10.692
66040W        W34434  12.186  22.143  14.885
66041W        W34435  39.533  18.095  14.844
66042W        W34436  13.244  27.782  11.064
66043W        W34437   1.905  34.071  12.255
66044W        W34438  15.774  41.432  13.219
66045W        W34439   4.941  30.327  13.585
66046W        W34440  15.796  33.701   0.561
66047W        W34441  14.710  20.575  12.110
66048W        W34442  22.066   0.445  14.654
66049W        W34443  10.425   1.387  13.583
66050W        W34444  20.758  43.436   0.297
66051W        W34445  30.962  30.041   4.864
66052W        W34446  34.581   8.581  12.334
66053W        W34447  21.148  15.135   1.759
66054W        W34448   1.725   4.072  11.663
66055W        W34449  33.537   1.803   3.608
66056W        W34450   7.437  22.183   2.112
66057W        W34451  38.801  27.060  13.141
66058W        W34452  25.423  36.841   3.584
66059W        W34453  30.530  22.297   3.195
66060W        W34454  10.905  17.306  14.568
66061W        W34455  25.762  29.423  11.618
66062W        W34456   9.417  37.240   2.820
66063W        W34457  24.033   9.471  14.312
66064W        W34458  24.659  34.011  12.369
66065W        W34459   2.767  16.460   0.398
66066W        W34460  42.931  18.356  11.545
66067W        W34461   3.807  20.071   3.580
66068W        W34462  25.504  35.471   4.081
66069W        W34463  24.865  38.613  12.054
66070W        W34464  42.550   9.451  13.864
66071W        W34465  17.393   2.385   4.488
66072W        W34466  23.153  37.084   4.595
66073W        W34467  28.206  36.439  14.964
66074W        W34468   8.293   8.633  11.148
66075W        W34469   6.820  43.332   1.883
66076W        W34470   8.896  44.526   2.146
66077W        W34471  25.587  41.438   1.455
66078W        W34472  15.051  33.357  10.917
66079W        W34473  26.957   8.203  11.170
66080W        W34474  12.980  42.411  13.702
66081W        W34475   4.593  33.626  11.581
66082W        W34476  39.479  42.420  11.587
66083W        W34477  28.699  34.637  10.598
66084W        W34478  28.704  29.516  10.749
66085W        W34479  37.604  29.438  11.132
66086W        W34480  30.230  24.710   3.640
66087W        W34481  11.049  29.414   3.277
66088W        W34482  44.309   0.286   2.465
66089W        W34483  17.639  29.710   2.163
66090W        W34484  24.494  33.793   4.579
66091W        W34485  17.505  39.395  14.384
66092W        W34486   7.250  24.020  11.374
66093W        W34487   8.404  30.421  10.636
66094W        W34488  22.533  40.846  10.762
66095W        W34489  44.348  23.999  11.416
66096W        W34490  33.190  28.946  14.963
66097W        W34491  19.794  28.077  14.048
66098W        W34492  34.068  34.433  11.523
66099W        W34493  34.377  18.035   4.395
66100W        W34494   0.416  18.144   1.618
66101W        W34495  40.519  27.333  11.444
66102W        W34496  19.397  10.888  13.036
66103W        W34497  34.373  28.926  12.599
66104W        W34498  43.014  43.593   0.471
66105W        W34499   6.317  20.728  13.527
66106W        W34500  37.538   3.827   4.553
66107W        W34501  30.640  19.539  13.776
66108W        W34502  28.221  25.358   2.791
66109W        W34503  25.796  31.540  13.988
66110W        W34504  18.237   8.599  13.840
66111W        W34505  39.652  42.434   2.345
66112W        W34506  38.122  20.528   0.644
66113W        W34507  44.479  13.842  10.435
66114W        W34508   4.479  44.967  14.312
66115W        W34509   6.905   9.382  12.635
66116W        W34510  33.548  27.268  13.404
66117W        W34511  12.151  30.824  11.198
66118W        W34512  30.133   0.244  13.398
66119W        W34513  25.073  18.220   1.610
66120W        W34514  39.058  11.461   3.773
66121W        W34515  23.742  18.059   1.519
66122W        W34516  37.991  31.574  10.985
66123W        W34517  13.010  35.632   3.311
66124W        W34518  38.357  37.626  10.609
66125W        W34519   3.497   0.021   1.287
66126W        W34520  30.948  42.220   2.271
66127W        W34521  26.184   3.664   2.774
66128W        W34522  21.072  10.232  11.041
66129W        W34523  24.320   2.249  11.609
66130W        W34524   7.295  21.909  13.282
66131W        W34525  43.227   1.607  13.766
66132W        W34526   0.812   4.104   3.143
66133W        W34527  23.044  35.874   2.199
66134W        W34528  12.247  15.782  10.638
66135W        W34529   9.179  44.194   0.321
66136W        W34530  41.407  42.324   1.801
66137W        W34531   8.447   1.730  14.333
66138W        W34532   0.968  42.429   0.870
66139W        W34533   5.809   1.073   2.846
66140W        W34534  28.675  23.736  12.491
66141W        W34535   3.326  38.147  10.636
66142W        W34536  18.543   0.610  11.183
66143W        W34537  25.961  23.394  12.348
66144W        W34538  44.920  28.837   1.320
66145W        W34539  24.265  27.580   1.883
66146W        W34540  42.202   8.863  12.907
66147W        W34541   1.350  12.371  14.002
66148W        W34542   4.190   2.274  11.894
66149W        W34543  28.547  38.614   2.717
66150W        W34544  42.881  19.384   3.579
66151W        W34545  33.135  33.315  10.682
66152W        W34546   0.229   4.427  11.911
66153W        W34547  35.752   8.342   4.869
66154W        W34548  18.413  25.966   2.794
66155W        W34549  23.807  17.547   3.560
66156W        W34550  30.064  39.429  12.715
66157W        W34551   8.082  35.945   0.118
66158W        W34552  32.027   5.621  14.291
66159W        W34553  44.592  27.210   4.128
66160W        W34554  22.882   3.745   4.189
66161W        W34555  34.159   1.434   2.727
66162W        W34556  41.822  18.692   3.886
66163W        W34557  38.697  16.407   1.862
66164W        W34558   2.020  37.138   3.618
66165W        W34559  35.385  30.210   0.338
66166W        W34560  36.550  24.810   2.546
66167W        W34561  37.587  32.959   0.346
66168W        W34562  37.143  32.765   2.263
66169W        W34563  15.807  37.636  12.404
66170W        W34564  23.055  18.729   1.456
66171W        W34565   4.209  14.675   3.181
66172W        W34566  35.937   7.825  12.157
66173W        W34567   3.721  20.400   4.397
66174W        W34568   8.022  34.951   1.933
66175W        W34569   3.734   5.970  13.784
66176W        W34570  28.066  44.070  12.611
66177W        W34571   7.773  32.960  14.083
66178W        W34572  28.951  13.302   0.928
66179W        W34573  26.277   4.108  12.908
66180W        W34574  43.950   1.348   3.575
66181W        W34575  27.968  32.913  14.847
66182W        W34576  10.898  39.217  10.278
66183W        W34577  38.755   9.677   1.392
66184W        W34578  41.544   4.882   2.670
66185W        W34579  21.556  36.172  12.860
66186W        W34580  34.895  13.116   2.275
66187W        W34581  43.958  13.328   2.953
66188W        W34582  22.715  36.108   0.721
66189W        W34583  36.945   6.033  11.344
66190W        W34584  37.306  38.835   1.357
66191W        W34585  12.839  22.094   3.009
66192W        W34586  43.464  29.005  11.216
66193W        W34587  27.063  34.061  10.658
66194W        W34588  38.489  28.921  11.225
66195W        W34589  36.025  15.600  13.821
66196W        W34590  36.969   4.267   4.277
66197W        W34591   0.499  35.734   0.895
66198W        W34592  30.154  42.518   1.644
66199W        W34593  17.659  21.563  10.713
66200W        W34594  15.117  21.533  11.566
66201W        W34595  33.647  17.679  14.010
66202W        W34596  44.877  33.434  12.990
66203W        W34597   1.920   9.142   3.683
66204W        W34598  11.954  31.158  11.569
66205W        W34599  27.601   8.144   4.738
66206W        W34600  23.549  40.502   4.141
66207W        W34601  31.589   8.338   4.608
66208W        W34602  35.545  20.253   4.831
66209W        W34603  34.403  32.228   1.064
66210W        W34604  16.768  32.101  12.456
66211W        W34605  35.642  25.651  11.592
66212W        W34606  18.186  33.910  11.318
66213W        W34607  33.350  25.138  14.051
66214W        W34608  26.413  25.546  11.570
66215W        W34609  40.440  27.015   4.810
66216W        W34610  13.423  32.643  13.561
66217W        W34611  33.171  14.516  11.233
66218W        W34612  29.948   5.027   0.492
66219W        W34613  27.015   1.680  11.958
66220W        W34614  39.203  17.204   0.227
66221W        W34615   3.778  43.700  14.340
66222W        W34616  13.403  29.633   0.017
66223W        W34617   4.188  10.612   0.000
66224W        W34618  26.609  14.559  14.050
66225W        W34619   1.463  24.489  14.145
66226W        W34620  40.742  18.918   2.988
66227W        W34621  37.285  41.343  13.366
66228W        W34622  29.954  15.643   3.345
66229W        W34623  38.981  21.217   0.802
66230W        W34624   2.746  10.832   3.155
66231W        W34625  28.075   9.575  13.949
66232W        W34626  38.820   4.816   3.659
66233W        W34627  18.974  35.117  10.500
66234W        W34628  33.509  31.125   0.468
66235W        W34629  41.545  16.189   2.814
66236W        W34630  24.400   7.857   2.827
66237W        W34631  30.270  12.925   4.701
66238W        W34632   1.959  38.983   4.244
66239W        W34633  41.132  10.171   1.144
66240W        W34634  42.780  22.171   1.912
66241W        W34635  21.456  44.895  10.542
66242W        W34636  10.294   3.201  11.073
66243W        W34637   6.868  28.203   3.812
66244W        W34638   3.334   2.983  10.250
66245W        W34639   2.542  34.104   1.509
66246W        W34640  32.900   9.584   3.384
66247W        W34641   8.183  33.518   2.146
66248W        W34642   3.636  33.572   2.850
66249W        W34643  17.325  36.429  13.208
66250W        W34644  39.276   4.209  14.444
66251W        W34645  32.639  13.793  13.511
66252W        W34646  30.353   7.109   1.694
66253W        W34647  33.568  11.827  13.065
66254W        W34648   2.869  28.362  11.443
66255W        W34649  39.539  42.459  14.797
66256W        W34650  38.023   5.799   1.124
66257W        W34651  39.517   5.890  14.244
66258W        W34652   7.418   0.795   3.646
66259W        W34653  13.550  23.563   4.665
66260W        W34654   4.674  41.838   1.118
66261W        W34655  23.321   2.736   0.824
66262W        W34656  18.919  39.485   3.937
66263W        W34657  43.748  24.016  13.907
66264W        W34658  19.809  15.731  10.675
66265W        W34659  44.197   6.117   2.830
66266W        W34660  20.404  35.301   0.308
66267W        W34661  14.209  20.236  10.856
66268W        W34662  29.291  36.844  14.270
66269W        W34663   5.108  24.089   5.468
66270W        W34664  25.133  32.572  13.605
66271W        W34665  33.633   1.931   1.379
66272W        W34666   6.293  30.634   2.872
66273W        W34667  12.197  44.404   2.704
66274W        W34668   0.322  25.638   1.693
66275W        W34669  12.955  34.061   2.203
66276W        W34670   0.295   0.460   2.161
66277W        W34671  31.556  13.773  10.777
66278W        W34672  31.191  17.771   4.111
66279W        W34673  43.784  20.658   1.450
66280W        W34674   1.661  13.948  10.189
66281W        W34675  36.718  19.729   0.491
66282W        W34676  39.974  33.004   1.724
66283W        W34677  12.433  32.669  13.436
66284W        W34678  11.351  36.000   2.883
66285W        W34679  37.902  28.229   0.739
66286W        W34680  15.736   6.821  13.667
66287W        W34681  22.465  34.864  14.401
66288W        W34682  34.606  39.135  14.812
66289W        W34683  38.313  10.842   3.387
66290W        W34684   6.795  37.096  10.634
66291W        W34685  24.265  18.398   3.627
66292W        W34686  11.326  13.077   2.248
66293W        W34687   5.662  16.235  10.444
66294W        W34688  10.920   3.976  11.961
66295W        W34689  25.530  12.278  13.455
66296W        W34690  15.714  24.128   4.159
66297W        W34691  14.326  40.831   1.686
66298W        W34692  23.080  13.175  14.424
66299W        W34693   3.233  32.100  10.759
66300W        W34694   2.867  30.434   0.880
66301W        W34695  39.839  30.629   4.049
66302W        W34696  25.735  28.418  12.139
66303W        W34697  16.713  19.275   0.892
66304W        W34698  29.034   7.497   0.476
66305W        W34699  27.612   5.031   2.183
66306W        W34700  17.030  14.359  12.994
66307W        W34701  42.007   8.424  14.677
66308W        W34702  26.851  24.543   0.037
66309W        W34703   5.431   4.469  11.165
66310W        W34704   6.115   1.134   2.433
66311W        W34705  12.649  23.068   1.248
66312W        W34706  23.335  19.544   4.612
66313W        W34707  17.265  42.051   1.892
66314W        W34708  17.770   2.431  13.048
66315W        W34709  42.464  30.647  13.873
66316W        W34710   2.016  31.014   2.255
66317W        W34711  37.026  36.793   4.603
66318W        W34712   4.231  12.608  13.475
66319W        W34713   0.590  11.430   2.718
66320W        W34714  29.107  41.926  14.025
66321W        W34715  44.404  12.889   0.356
66322W        W34716   7.210  37.366   4.769
66323W        W34717  27.996  21.199  13.253
66324W        W34718  40.474  43.162   2.249
66325W        W34719  34.872  32.941   1.781
66326W        W34720  10.167  16.015  10.729
66327W        W34721  40.447  25.701   2.895
66328W        W34722  42.761  17.305   0.803
66329W        W34723   7.677  41.023   1.077
66330W        W34724  40.481  42.030  12.850
66331W        W34725  29.599  22.097   2.867
66332W        W34726  15.552  26.614  11.161
66333W        W34727   1.030  10.226   0.463
66334W        W34728  36.082   3.714  11.031
66335W        W34729  33.043  20.437   4.580
66336W        W34730   1.546  21.194  12.046
66337W        W34731  28.574  23.220   3.343
66338W        W34732  29.541  38.492  14.228
66339W        W34733  30.799  18.225  13.843
66340W        W34734  13.388  24.551   0.849
66341W        W34735  22.455   2.979  14.935
66342W        W34736  18.583  33.178   0.257
66343W        W34737   7.225  13.721  10.592
66344W        W34738   4.805  30.310  12.527
66345W        W34739   3.800  15.283  11.235
66346W        W34740  34.986  40.860  13.386
66347W        W34741  44.500   0.416   0.958
66348W        W34742   4.376  22.123   1.505
66349W        W34743  27.590  13.215   4.696
66350W        W34744   1.806  26.817  13.443
66351W        W34745  40.931   5.409   3.775
66352W        W34746  19.064   5.890   3.705
66353W        W34747  41.993  22.895   2.585
66354W        W34748  37.065  11.616   2.310
66355W        W34749  37.495  38.820   4.009
66356W        W34750  33.592   0.511   2.518
66357W        W34751   7.750   1.223   2.880
66358W        W34752   8.223  40.800   3.519
66359W        W34753   9.090  18.672   3.577
66360W        W34754  16.124   5.532  12.819
66361W        W34755  24.122  43.350   0.193
66362W        W34756   6.824  23.755  14.996
66363W        W34757  16.344  15.621   4.234
66364W        W34758   1.650  31.978  11.669
66365W        W34759   9.702  19.264  11.139
66366W        W34760   4.401   0.235   4.157
66367W        W34761  28.827  25.701  10.709
66368W        W34762  40.077  43.695  13.176
66369W        W34763   9.365  31.963  13.889
66370W        W34764  17.162  37.318   5.635
66371W        W34765   1.135  10.846  13.081
66372W        W34766  10.856  20.285   1.036
66373W        W34767  28.586  16.744   1.537
66374W        W34768  37.186  36.701   2.224
66375W        W34769  34.366  10.247   3.618
66376W        W34770  21.180   0.902  10.982
66377W        W34771   4.283  29.670  14.889
66378W        W34772  11.573  14.311  13.972
66379W        W34773  25.908  20.879  14.862
66380W        W34774  12.133  25.550  12.928
66381W        W34775   6.360  14.095   3.124
66382W        W34776  32.169  25.795   4.033
66383W        W34777   1.801   6.992   1.267
66384W        W34778  39.979  13.030  12.329
66385W        W34779  35.937  30.762   3.398
66386W        W34780  11.237  38.885   1.426
66387W        W34781  24.031  44.384  10.922
66388W        W34782  23.951   2.856  13.517
66389W        W34783   5.304  18.112  10.775
66390W        W34784  16.849  26.072   0.252
66391W        W34785  17.551   7.292  12.866
66392W        W34786  40.842  14.814  12.479
66393W        W34787   4.548  25.643  10.114
66394W        W34788  18.812  34.053   4.752
66395W        W34789  44.241  22.556   0.300
66396W        W34790  28.027  33.142  12.010
66397W        W34791  20.537  32.522   4.604
66398W        W34792  25.212  36.343  10.763
66399W        W34793   9.894  11.696  13.670
66400W        W34794  16.262   3.449  11.274
66401W        W34795   1.921  39.902   4.206
66402W        W34796  34.148  43.806  10.686
66403W        W34797  17.627   7.932   5.120
66404W        W34798  23.911  36.384   3.152
66405W        W34799   9.769  22.043  12.624
66406W        W34800  37.483  16.515   0.484
66407W        W34801  19.205  18.985  13.851
66408W        W34802  42.358  27.961   4.870
66409W        W34803  43.228  40.447   2.418
66410W        W34804  17.048  11.637  11.106
66411W        W34805  35.240  26.682  13.206
66412W        W34806  35.409  40.416   0.997
66413W        W34807  16.163  34.606  14.043
66414W        W34808  27.141  26.123   2.227
66415W        W34809   9.105  13.127   1.768
66416W        W34810  29.436  36.553   1.309
66417W        W34811   5.791  16.619  11.053
66418W        W34812  15.605   3.472   4.358
66419W        W34813  15.498  31.065  13.821
66420W        W34814  25.516   6.060   0.164
66421W        W34815  13.592  17.249   0.190
66422W        W34816  37.588  30.562  13.540
66423W        W34817  30.406  41.786  14.473
66424W        W34818   3.455  35.130  12.644
66425W        W34819  22.537  12.377   4.021
66426W        W34820  21.041  14.616   1.795
66427W        W34821  30.017  16.329   0.453
66428W        W34822  34.072  11.313   2.897
66429W        W34823   3.399  14.443  13.021
66430W        W34824   3.354  10.882  13.009
66431W        W34825  44.993  39.089   0.386
66432W        W34826  43.206  34.351   4.135
66433W        W34827   4.618  18.118  14.864
66434W        W34828  26.416  21.084   5.015
66435W        W34829  36.878  34.024   1.653
66436W        W34830  28.154  13.107  11.618
66437W        W34831  31.625   2.483  13.771
66438W        W34832   1.882  34.085  14.799
66439W        W34833  23.764   3.929   0.413
66440W        W34834   5.861   6.430  13.456
66441W        W34835  23.245   4.792   3.227
66442W        W34836   7.816  26.922  13.571
66443W        W34837   0.876   4.850   1.426
66444W        W34838  21.315   2.616   0.857
66445W        W34839   2.702  32.520   4.136
66446W        W34840  14.670  18.272   2.945
66447W        W34841  40.478  29.405   2.269
66448W        W34842  23.795  15.331  14.865
66449W        W34843  34.897  39.910  13.431
66450W        W34844  15.532   9.202  14.451
66451W        W34845  34.577  38.387  11.911
66452W        W34846  37.764  31.096  14.389
66453W        W34847  16.323   7.291  14.978
66454W        W34848   9.726  43.449  13.181
66455W        W34849  34.474  25.096  14.894
66456W        W34850  27.685  21.712   0.847
66457W        W34851  42.997  20.247   0.309
66458W        W34852  22.981  39.511   4.130
66459W        W34853   0.689  24.310  12.471
66460W        W34854   5.975  21.148   0.201
66461W        W34855  17.772  10.850  12.041
66462W        W34856  14.909   4.196  11.566
66463W        W34857  42.980  13.555  12.392
66464W        W34858  15.684   3.409  13.470
66465W        W34859   1.441  36.140  14.951
66466W        W34860  34.625  38.845  11.072
66467W        W34861  35.998  40.393   1.029
66468W        W34862  12.310  42.038  12.456
66469W        W34863  28.948  27.059   3.595
66470W        W34864  17.624  38.569   0.671
66471W        W34865  44.391  33.506  14.802
66472W        W34866  22.268   8.298  13.487
66473W        W34867  12.716  37.991   4.111
66474W        W34868  37.353   4.719  14.391
66475W        W34869  32.622  23.807   0.091
66476W        W34870  37.782  12.164  10.787
66477W        W34871  14.091  15.873  13.538
66478W        W34872  34.971  33.597  10.622
66479W        W34873  23.039  27.915   0.933
66480W        W34874  43.109  42.881  14.932
66481W        W34875  33.551  29.777   9.984
66482W        W34876  29.134  38.192   3.237
66483W        W34877  27.989  13.816   0.957
66484W        W34878  39.515  13.119  10.626
66485W        W34879   1.428  10.256   2.779
66486W        W34880  23.510  20.788  13.273
66487W        W34881   8.262  41.317   3.696
66488W        W34882  42.426  36.899  11.980
66489W        W34883  24.401   3.962   3.721
66490W        W34884  33.889  40.711  11.632
66491W        W34885   3.487  16.724  10.559
66492W        W34886  28.670  24.064  10.788
66493W        W34887  23.167  35.140   3.727
66494W        W34888  31.895   7.117  10.780
66495W        W34889  25.048   5.479   3.241
66496W        W34890  30.338  30.638  11.129
66497W        W34891   4.281  34.379   3.683
66498W        W34892  20.956  35.498  12.010
66499W        W34893  35.031  23.483   4.670
66500W        W34894   3.525  26.731   0.790
66501W        W34895   5.581  42.269   1.172
66502W        W34896  10.033  43.349   0.590
66503W        W34897  20.529   9.375  10.946
66504W        W34898  16.678  21.593   0.914
66505W        W34899  42.263  18.186   3.283
66506W        W34900  33.635  13.905  11.622
66507W        W34901  41.895  23.764   0.345
66508W        W34902  37.476   9.489  14.888
66509W        W34903  36.877  35.532   3.739
66510W        W34904  28.526  18.570   2.779
66511W        W34905  25.037  36.918  11.610
66512W        W34906  23.317   1.917  14.918
66513W        W34907  19.162  35.151  13.575
66514W        W34908  30.642  21.719  11.449
66515W        W34909  23.439  18.781   4.208
66516W        W34910  19.307  14.563   4.227
66517W        W34911  36.780  20.186   4.135
66518W        W34912  40.885   2.482   3.662
66519W        W34913   7.547  41.328  11.160
66520W        W34914  12.928  22.521   3.843
66521W        W34915  34.186  18.985  11.671
66522W        W34916   8.929  10.828  13.562
66523W        W34917  16.171  29.956   4.756
66524W        W34918  26.456  21.744   2.415
66525W        W34919   7.004  15.654   0.286
66526W        W34920   3.869   3.287   3.311
66527W        W34921  16.805  15.103   1.263
66528W        W34922  28.597   2.280  13.109
66529W        W34923  30.183   5.617   4.227
66530W        W34924   3.828  12.938  13.361
66531W        W34925  23.758  32.832  11.062
66532W        W34926  31.418  36.439   3.679
66533W        W34927  24.792  18.797  14.862
66534W        W34928  22.125   2.000   3.224
66535W        W34929  41.148   7.225   0.338
66536W        W34930  33.568  29.011  13.397
66537W        W34931   2.785  19.714   4.589
66538W        W34932  15.999   6.071   0.828
66539W        W34933  15.480   6.442   0.261
66540W        W34934  31.889  29.736   1.119
66541W        W34935  20.350  32.045   4.605
66542W        W34936   7.184  44.081   4.138
66543W        W34937  44.782  43.914   2.856
66544W        W34938  26.185  22.076  13.580
66545W        W34939  30.146  13.216  13.096
66546W        W34940  22.814  16.354   1.839
66547W        W34941  25.971   9.139   1.856
66548W        W34942  11.647   6.309  11.129
66549W        W34943  16.548  44.937  11.722
66550W        W34944   5.947  13.211  13.398
66551W        W34945  37.650  17.550  12.925
66552W        W34946  38.532   0.515  11.185
66553W        W34947  29.110  37.667  13.677
66554W        W34948  24.027  37.315  13.808
66555W        W34949   5.941  15.217  10.545
66556W        W34950   4.406  20.663  11.585
66557W        W34951  43.251   0.866  14.220
66558W        W34952  13.039  39.380  12.981
66559W        W34953  44.678  29.105   2.663
66560W        W34954  14.906  39.825  12.558
66561W        W34955  13.764  20.535  13.421
66562W        W34956  27.338   8.165   3.371
66563W        W34957  11.842  37.900   3.657
66564W        W34958   8.870   8.177  11.281
66565W        W34959  32.901   4.650   2.590
66566W        W34960  42.814  37.142   0.899
66567W        W34961  10.868  25.718  12.427
66568W        W34962   9.315  13.082   4.309
66569W        W34963  23.634   7.654  14.839
66570W        W34964   1.883  17.154   3.346
66571W        W34965  42.799  15.643   0.224
66572W        W34966   0.034   8.262   3.898
66573W        W34967   7.911   2.831   4.903
66574W        W34968  41.017  21.451  11.116
66575W        W34969   0.735  30.582   2.785
66576W        W34970   4.155  10.799   3.054
66577W        W34971  19.010  35.369   0.728
66578W        W34972  28.420  40.424   3.701
66579W        W34973  31.051   2.676   3.102
66580W        W34974   5.767   9.330   1.669
66581W        W34975  35.628  16.576   2.943
66582W        W34976  16.675   6.594   2.935
66583W        W34977  36.075   9.769   0.817
66584W        W34978  23.021  19.111   0.820
66585W        W34979   3.932  39.843   1.535
66586W        W34980  19.747  22.807  13.189
66587W        W34981  37.883  10.779  13.316
66588W        W34982  40.289  12.837   4.583
66589W        W34983  28.405  27.534  12.472
66590W        W34984  35.092  22.739  10.995
66591W        W34985   0.523   8.764   2.884
66592W        W34986   4.036  18.084   3.628
66593W        W34987  19.603  21.004   0.194
66594W        W34988  23.033   4.992   1.894
66595W        W34989  34.676  40.562  14.852
66596W        W34990  36.014  16.607  12.402
66597W        W34991  37.658  10.071   4.136
66598W        W34992  19.827   3.813   2.927
66599W        W34993   8.186   9.170  11.824
66600W        W34994  30.401  41.805   1.733
66601W        W34995  42.028  25.238  12.993
66602W        W34996   6.136  15.442   1.858
66603W        W34997  19.971  24.582  12.810
66604W        W34998   7.934  18.476   0.160
66605W        W34999  30.854  28.848  13.748
66606W        W35000  13.299  17.295  14.221
66607W        W35001  34.876  23.170  14.544
66608W        W35002  38.782  19.196  14.433
66609W        W35003  41.860  28.700   3.485
66610W        W35004   6.349  13.607  14.300
66611W        W35005  26.025   7.774  14.898
66612W        W35006  10.342  18.206   3.259
66613W        W35007  21.678  42.403   2.659
66614W        W35008  37.019  18.843   3.976
66615W        W35009  10.239  38.460   2.220
66616W        W35010  31.801   0.111  13.879
66617W        W35011   2.941   1.427  11.601
66618W        W35012  29.958  33.535  10.942
66619W        W35013  35.005  19.625  13.079
66620W        W35014  11.184  25.199   1.389
66621W        W35015  14.345  32.494  12.089
66622W        W35016  29.828  40.514   3.828
66623W        W35017  15.841   4.383   1.295
66624W        W35018  27.100   0.911   1.847
66625W        W35019   3.149  16.224  12.871
66626W        W35020  29.468  12.352   3.250
66627W        W35021  18.137  14.427   4.523
66628W        W35022  40.745   2.413  10.791
66629W        W35023  18.230  28.083   2.616
66630W        W35024  30.469  24.679   0.809
66631W        W35025  16.096   1.223   4.369
66632W        W35026   8.782  22.134  11.152
66633W        W35027  15.152  21.461   0.680
66634W        W35028  17.723  27.072   2.731
66635W        W35029   0.834  39.057  11.659
66636W        W35030  18.299  32.259  11.563
66637W        W35031  11.185  42.927  12.366
66638W        W35032  32.716   2.012   4.678
66639W        W35033  44.274  24.100   2.771
66640W        W35034   5.103  41.445  11.568
66641W        W35035   5.826   2.611   9.783
66642W        W35036  25.752   3.065  12.872
66643W        W35037  30.685  25.794  11.447
66644W        W35038   6.567  27.320   4.567
66645W        W35039  31.640  15.605   4.543
66646W        W35040  38.971  15.834  12.355
66647W        W35041  44.795  33.434   0.906
66648W        W35042   8.483   8.793  14.575
66649W        W35043  29.724  25.603  11.614
66650W        W35044  18.478  22.830   2.539
66651W        W35045   0.063  29.733   2.353
66652W        W35046  22.985   9.426  12.852
66653W        W35047  36.453   2.056  10.442
66654W        W35048  24.366  44.426   5.451
66655W        W35049  38.504   1.802   1.399
66656W        W35050   8.906  17.733   1.263
66657W        W35051   0.821  10.399  14.733
66658W        W35052  27.180   4.342  14.453
66659W        W35053  28.074   4.516  11.620
66660W        W35054  32.068  11.318  10.819
66661W        W35055  10.724  17.594   1.853
66662W        W35056   8.701  38.300  11.166
66663W        W35057  15.008  12.030  11.128
66664W        W35058   1.212  12.788  13.193
66665W        W35059   4.698   3.782  11.074
66666W        W35060  23.476  13.211   0.193
66667W        W35061  33.506  17.177   4.650
66668W        W35062  13.262  26.157  12.566
66669W        W35063   3.432  23.928  12.806
66670W        W35064   7.905  38.583   1.174
66671W        W35065  11.264   1.161  11.177
66672W        W35066  22.792  44.801  12.297
66673W        W35067  22.471  24.117  12.989
66674W        W35068  28.629   9.183   4.718
66675W        W35069  23.161  10.122  13.568
66676W        W35070  34.888   8.718  13.094
66677W        W35071  41.454  42.340   4.261
66678W        W35072  19.239  34.437  13.930
66679W        W35073  25.233  28.991  12.864
66680W        W35074   7.176  11.335   2.255
66681W        W35075  35.829  30.378   1.249
66682W        W35076  35.846  20.274   3.704
66683W        W35077  14.572  40.062  13.416
66684W        W35078  36.460  14.625   1.782
66685W        W35079  31.650  18.613  11.982
66686W        W35080  15.923   6.365  11.647
66687W        W35081  10.576  42.909  12.023
66688W        W35082  16.927  23.128  12.801
66689W        W35083  42.994  42.071   0.940
66690W        W35084  43.916  17.016  13.343
66691W        W35085   0.186  30.168  13.398
66692W        W35086  33.600  17.526   1.335
66693W        W35087  43.894   7.173  11.562
66694W        W35088  30.034  15.318  11.567
66695W        W35089   5.251  44.263  13.567
66696W        W35090   1.681  32.432   4.286
66697W        W35091  42.974  39.704   1.270
66698W        W35092  20.551  17.494  14.942
66699W        W35093  27.435  24.516   0.656
66700W        W35094  25.205  30.515  11.078
66701W        W35095   3.897  41.077   0.502
66702W        W35096  40.200  32.767  11.876
66703W        W35097  20.376  25.967   2.272
66704W        W35098   0.169  34.443  11.763
66705W        W35099  26.430  28.938  13.510
66706W        W35100  33.414  35.983  11.996
66707W        W35101  15.133   0.534  13.477
66708W        W35102  39.052  32.086  10.640
66709W        W35103  36.986  24.958  14.441
66710W        W35104  42.271  32.500   2.366
66711W        W35105  18.013   7.626   2.797
66712W        W35106  28.024  37.578  14.276
66713W        W35107  10.385  17.585  13.791
66714W        W35108  27.900  29.044   1.496
66715W        W35109   6.886  25.249   2.710
66716W        W35110   2.522  17.817  12.879
66717W        W35111  29.984  33.303   0.288
66718W        W35112  15.150  29.630  11.300
66719W        W35113  27.400  31.480   4.620
66720W        W35114   4.090   5.464   4.876
66721W        W35115  16.835  26.668  10.683
66722W        W35116   2.185  15.875  11.209
66723W        W35117  21.565  39.593   0.508
66724W        W35118  12.320  28.579   3.714
66725W        W35119  38.031  22.562   2.902
66726W        W35120   5.387  13.199   1.952
66727W        W35121  24.153  32.189   2.731
66728W        W35122  34.586  39.783  11.155
66729W        W35123  29.109  37.820  14.674
66730W        W35124   8.883  28.394   4.270
66731W        W35125  40.841  17.400   4.060
66732W        W35126   4.662  39.078  14.782
66733W        W35127  22.670   5.121  13.470
66734W        W35128  31.580  16.356  12.834
66735W        W35129  31.559  19.268  12.695
66736W        W35130  22.715  43.711   2.298
66737W        W35131  42.426  20.919   4.371
66738W        W35132  24.020  23.644   2.748
66739W        W35133  33.027  39.225  11.661
66740W        W35134  38.309  22.462  12.527
66741W        W35135  21.501  25.905   4.713
66742W        W35136  39.159  20.208  14.767
66743W        W35137  13.717  34.940  13.643
66744W        W35138  31.600  14.859  13.036
66745W        W35139  32.309  13.500  11.218
66746W        W35140  19.591  32.832  14.385
66747W        W35141  42.517  16.122  14.149
66748W        W35142  31.362  12.625  11.534
66749W        W35143  13.078   0.413  12.204
66750W        W35144  11.402  25.754  14.364
66751W        W35145   7.774  42.087  12.011
66752W        W35146  30.672  10.266  13.092
66753W        W35147  28.521   7.788   4.193
66754W        W35148  31.254  19.951   2.747
66755W        W35149  26.582  22.363  10.628
66756W        W35150  21.812  30.690  12.523
66757W        W35151   2.355   4.801   2.412
66758W        W35152  10.357  39.774   1.931
66759W        W35153   8.841  27.453   0.397
66760W        W35154  12.144   2.484   2.621
66761W        W35155  21.159  31.208  10.993
66762W        W35156  43.731   9.874  10.480
66763W        W35157  12.360  43.485  12.918
66764W        W35158  37.150  21.563   4.795
66765W        W35159  40.918  26.829  14.927
66766W        W35160  26.613  41.838   1.807
66767W        W35161  26.256   9.587  10.119
66768W        W35162  39.896  23.975  11.611
66769W        W35163   5.095  28.556   3.861
66770W        W35164  38.436  39.198  11.273
66771W        W35165  12.295  37.106  13.455
66772W        W35166   6.409   4.996  14.034
66773W        W35167  11.776  21.579  13.308
66774W        W35168  25.575   5.812   4.114
66775W        W35169  19.599  37.363   1.323
66776W        W35170  38.087   0.927   2.199
66777W        W35171  44.742  25.011  12.075
66778W        W35172  10.614  32.516   2.093
66779W        W35173  37.510   8.276   2.281
66780W        W35174  35.372  19.550   1.204
66781W        W35175  22.429  21.520   2.408
66782W        W35176  10.738  42.492   4.821
66783W        W35177  17.599  18.916  13.411
66784W        W35178   2.235  35.018  13.525
66785W        W35179  41.202  20.469   0.439
66786W        W35180  16.577  30.455   3.693
66787W        W35181  41.898   8.536   3.278
66788W        W35182  21.235  28.345  11.586
66789W        W35183  37.452  29.961   4.692
66790W        W35184  20.280  15.769   0.955
66791W        W35185  44.429  21.508   3.786
66792W        W35186  37.032  40.756  14.831
66793W        W35187  38.039  35.033  11.537
66794W        W35188  25.769  28.898  13.053
66795W        W35189   3.646  41.337  13.806
66796W        W35190  42.740   0.369  10.457
66797W        W35191  21.241  35.136  11.137
66798W        W35192  26.117  21.010   1.301
66799W        W35193  42.020  12.801   3.572
66800W        W35194  28.509   5.218   2.183
66801W        W35195  40.506   6.219   2.365
66802W        W35196  13.324  22.514   4.558
66803W        W35197  38.118  23.646   1.480
66804W        W35198  11.081  42.551  14.765
66805W        W35199  15.356  32.181   1.430
66806W        W35200  41.276  16.673  11.592
66807W        W35201  29.713  22.992  12.954
66808W        W35202  13.863  33.454   0.435
66809W        W35203  29.690  20.736   0.674
66810W        W35204  19.583  40.395   3.759
66811W        W35205  18.167  24.860   2.259
66812W        W35206  28.631  20.331  11.633
66813W        W35207  15.605  18.465  12.540
66814W        W35208  25.627  44.244   1.301
66815W        W35209   1.439   5.329  11.876
66816W        W35210  10.596   1.378  11.015
66817W        W35211  43.605  36.315   1.116
66818W        W35212  13.642  29.661  11.203
66819W        W35213   4.390  29.393  12.470
66820W        W35214  19.215  26.451   4.054
66821W        W35215   3.333  30.332  10.294
66822W        W35216  25.463  29.930   3.659
66823W        W35217  42.770  27.103  13.047
66824W        W35218  13.894  10.183   4.131
66825W        W35219  20.004  35.474   0.035
66826W        W35220  24.562  15.147  12.892
66827W        W35221  31.285  24.811  10.986
66828W        W35222  42.059   5.732  10.990
66829W        W35223  16.111   4.963   2.308
66830W        W35224  25.695  23.052   3.253
66831W        W35225  17.722  39.730  10.009
66832W        W35226  38.326  31.660  13.114
66833W        W35227  16.599  16.475   1.733
66834W        W35228  25.222  21.222  13.355
66835W        W35229   9.016  29.076   2.084
66836W        W35230  16.282   5.179  12.411
66837W        W35231  39.993  26.641   1.186
66838W        W35232  10.046  11.494   3.715
66839W        W35233  16.193  44.968  11.246
66840W        W35234   5.731   8.185   2.679
66841W        W35235  33.213   5.258  13.560
66842W        W35236  18.795  28.462   4.301
66843W        W35237  37.157  27.304  10.751
66844W        W35238   2.435  38.073  13.969
66845W        W35239  13.015  11.570  10.706
66846W        W35240  28.567   0.741  11.821
66847W        W35241  13.018  22.234  14.892
66848W        W35242  31.928  37.911  14.914
66849W        W35243  36.169  33.085  12.698
66850W        W35244  29.633   2.890   1.722
66851W        W35245  44.987   2.336  11.890
66852W        W35246  28.635  40.250   4.670
66853W        W35247  19.820  27.280   3.092
66854W        W35248  27.543  15.791  10.927
66855W        W35249  34.569  26.183  12.904
66856W        W35250  44.489  33.120   4.670
66857W        W35251   4.934  39.135  13.067
66858W        W35252   0.302  10.481   2.845
66859W        W35253  37.350  27.460   2.401
66860W        W35254   4.003  27.837   0.282
66861W        W35255  10.214  32.136   9.693
66862W        W35256  38.814  13.498  14.997
66863W        W35257  25.583   2.669  11.269
66864W        W35258   7.298  42.776   4.964
66865W        W35259  41.509  28.950  12.532
66866W        W35260  43.752  13.809   1.846
66867W        W35261  42.956  10.579  13.893
66868W        W35262  27.603  21.155   1.772
66869W        W35263   7.881   9.622  13.758
66870W        W35264   5.894  12.448  13.773
66871W        W35265  36.428  39.619  14.381
66872W        W35266  14.289  35.199  11.311
66873W        W35267  25.208  35.248  11.085
66874W        W35268  27.973   6.972   3.263
66875W        W35269  29.732  24.655   0.286
66876W        W35270  32.066  26.922  12.438
66877W        W35271   1.780   6.505   1.107
66878W        W35272  29.031   1.978  13.082
66879W        W35273  36.366  42.297   3.874
66880W        W35274  21.227  24.224  13.554
66881W        W35275  35.448  25.585   4.185
66882W        W35276  30.832  15.612   1.382
66883W        W35277  18.851  44.727   3.728
66884W        W35278  13.120  41.614   1.920
66885W        W35279   1.736  14.199   4.534
66886W        W35280  35.798   3.480   0.926
66887W        W35281   3.304  40.434   2.484
66888W        W35282  10.166  10.166  12.910
66889W        W35283  19.602   8.143  14.096
66890W        W35284  31.913  37.944   1.756
66891W        W35285  29.895   0.862  14.774
66892W        W35286  25.768  38.445  14.555
66893W        W35287  13.063  14.292   2.870
66894W        W35288  18.885   4.928  11.489
66895W        W35289  31.783   9.875   1.355
66896W        W35290   4.483  23.666  14.846
66897W        W35291  44.330  24.598   2.051
66898W        W35292  32.081  40.738   4.129
66899W        W35293  29.141  44.025  13.128
66900W        W35294  39.017  25.756  13.894
66901W        W35295   1.404  39.541  11.517
66902W        W35296  39.020  29.634  11.477
66903W        W35297  39.800  41.476  14.232
66904W        W35298   9.659  14.125   1.369
66905W        W35299  30.071   9.061   1.421
66906W        W35300  22.856   8.317   1.210
66907W        W35301   4.233   0.456   3.622
66908W        W35302  32.637  10.603  14.745
66909W        W35303  13.424  26.254  13.066
66910W        W35304  21.947   4.896   3.868
66911W        W35305   3.005   8.389  13.283
66912W        W35306  24.387  22.236  13.794
66913W        W35307   7.307  13.654  14.438
66914W        W35308  29.500  18.040  10.241
66915W        W35309   6.269  12.798   2.348
66916W        W35310  23.241  22.061  12.494
66917W        W35311  15.021  19.526   2.628
66918W        W35312  15.200  19.536  10.900
66919W        W35313  41.526  44.551   4.266
66920W        W35314   8.170  38.889  11.600
66921W        W35315   9.973  18.645   3.144
66922W        W35316  22.201   5.762   4.074
66923W        W35317  44.468  20.365  10.728
66924W        W35318   6.469  17.055  14.900
66925W        W35319  39.453  25.446  14.697
66926W        W35320  35.564   3.833   2.780
66927W        W35321  10.202   2.163   3.648
66928W        W35322  32.539  19.825   0.069
66929W        W35323  16.813  37.692  10.730
66930W        W35324   8.603  43.210  14.883
66931W        W35325  42.874  36.644  12.098
66932W        W35326   7.142  18.166   2.835
66933W        W35327  20.213   8.380  13.454
66934W        W35328  36.774  10.327   2.463
66935W        W35329  37.600  16.777  10.731
66936W        W35330  33.496  37.742   2.123
66937W        W35331   1.943   0.509   1.107
66938W        W35332   9.676  25.483  11.567
66939W        W35333  26.933  39.400   0.725
66940W        W35334  37.891  43.248   0.659
66941W        W35335  27.452  40.515  14.460
66942W        W35336  24.197  38.053   1.745
66943W        W35337  21.461  19.103   3.735
66944W        W35338  14.143  27.682  11.062
66945W        W35339  42.537  29.653  10.537
66946W        W35340  17.848  36.935   5.594
66947W        W35341   3.507   5.559  10.656
66948W        W35342  16.408  17.008  11.661
66949W        W35343  29.036  14.133   2.583
66950W        W35344  41.488  29.050  14.774
66951W        W35345  41.976  34.624   2.329
66952W        W35346  29.699   6.192   1.842
66953W        W35347  24.621   2.005   3.685
66954W        W35348  34.918  38.033  14.776
66955W        W35349  19.913  17.271   4.070
66956W        W35350  38.854  16.380  14.932
66957W        W35351  23.297  25.919   0.694
66958W        W35352   6.827  34.120   4.095
66959W        W35353  15.260  17.565   3.202
66960W        W35354  38.978  30.514  11.997
66961W        W35355  19.315  28.069   1.291
66962W        W35356  21.582   0.226  13.418
66963W        W35357   5.713   2.979   3.321
66964W        W35358  38.805   7.739  14.877
66965W        W35359   1.229  12.831   0.649
66966W        W35360  17.841   9.673   2.458
66967W        W35361  38.001  32.888   4.779
66968W        W35362  41.069  20.183   3.174
66969W        W35363  14.800  29.466  14.859
66970W        W35364   2.714  39.328  13.387
66971W        W35365  32.985  40.286   2.922
66972W        W35366  15.726  37.820   3.309
66973W        W35367   1.933   9.539  13.903
66974W        W35368  41.307  13.965  12.156
66975W        W35369  37.938  17.637   2.584
66976W        W35370   1.828  26.549   0.010
66977W        W35371  25.775  35.543   1.455
66978W        W35372  26.586  37.553   0.472
66979W        W35373  22.365  33.056  13.051
66980W        W35374  21.015  10.253  14.456
66981W        W35375  32.973  34.889  13.943
66982W        W35376   1.393  39.958  14.542
66983W        W35377  10.756  29.370  13.504
66984W        W35378  21.285   8.843  11.953
66985W        W35379  14.039  10.909   3.739
66986W        W35380   9.334  26.951  11.049
66987W        W35381  32.502  43.933  14.124
66988W        W35382  16.583  20.560   3.167
66989W        W35383  19.671  29.650  10.238
66990W        W35384  35.550  16.548   4.247
66991W        W35385  36.372  13.416  13.360
66992W        W35386  27.344  38.922  10.994
66993W        W35387  10.163   7.667   2.655
66994W        W35388   2.498   5.672   2.934
66995W        W35389  26.665   7.450   3.055
66996W        W35390  17.026  33.612  11.127
66997W        W35391   2.016  37.097   1.245
66998W        W35392   1.802   7.782   4.517
66999W        W35393   4.943  25.154  12.829
67000W        W35394  34.493  43.023  12.938
67001W        W35395  32.899   3.607  12.060
67002W        W35396  12.157  28.943   1.834
67003W        W35397  25.047  28.245   1.218
67004W        W35398   4.884  17.010   2.771
67005W        W35399  31.250  30.172   2.411
67006W        W35400  25.273  19.980  12.977
67007W        W35401  42.820  12.273   1.322
67008W        W35402  40.746  21.273  11.517
67009W        W35403  38.820  19.202   1.778
67010W        W35404  39.369  36.440  13.884
67011W        W35405  15.010   4.142   0.352
67012W        W35406  25.730  33.071  11.388
67013W        W35407  14.196   9.904   3.653
67014W        W35408   4.983  21.783   2.666
67015W        W35409  15.722  40.767   2.831
67016W        W35410  22.262  21.127  10.891
67017W        W35411  38.838   6.797  13.277
67018W        W35412  15.638  38.794   3.007
67019W        W35413  19.851   7.303  14.266
67020W        W35414  23.036  32.937  12.350
67021W        W35415   9.721  24.541   1.168
67022W        W35416  41.960  20.653   2.193
67023W        W35417  22.798  19.606   1.752
67024W        W35418  37.664  33.489  14.144
67025W        W35419   1.518  31.493   2.910
67026W        W35420   7.376  28.168  12.593
67027W        W35421  11.801  23.756  11.619
67028W        W35422  43.379  44.697   3.071
67029W        W35423  24.399  25.709  14.824
67030W        W35424  43.936  35.535  10.527
67031W        W35425   1.670   6.427  10.561
67032W        W35426  32.065  23.023  10.938
67033W        W35427   5.171  38.508  14.003
67034W        W35428  23.984  37.773   4.718
67035W        W35429  17.826  13.259   1.373
67036W        W35430  19.806  43.486  11.982
67037W        W35431   1.979  27.080   4.254
67038W        W35432  37.444  24.065  11.416
67039W        W35433  24.941  26.248   4.564
67040W        W35434  36.903  22.418  11.122
67041W        W35435  39.035  15.388  10.177
67042W        W35436  33.610  22.183  10.612
67043W        W35437  18.122  22.191  11.922
67044W        W35438  25.574  22.771  10.660
67045W        W35439  25.701  38.684  13.819
67046W        W35440  41.849   0.780   4.553
67047W        W35441  12.666  18.541  11.917
67048W        W35442   1.182  43.413  13.237
67049W        W35443  15.072  44.376  12.407
67050W        W35444  25.125   9.215  14.736
67051W        W35445   3.989  33.151  13.981
67052W        W35446  12.254   6.064   1.744
67053W        W35447  37.547  24.127  11.909
67054W        W35448  10.700  16.098  12.947
67055W        W35449  13.628  14.584   2.953
67056W        W35450   4.510  39.899   4.133
67057W        W35451  20.819  27.150  13.019
67058W        W35452  37.016  42.779   3.235
67059W        W35453  10.207   9.907   4.805
67060W        W35454  23.607  27.419   1.439
67061W        W35455  15.540  12.720  14.970
67062W        W35456   1.551   5.376   2.127
67063W        W35457  33.433  16.430   0.012
67064W        W35458  37.111  31.148  12.717
67065W        W35459  24.561   8.388   0.546
67066W        W35460   1.765  20.971  14.830
67067W        W35461  14.481  28.696   4.043
67068W        W35462  32.109  21.545   1.000
67069W        W35463   5.400  15.914  13.017
67070W        W35464  21.583  14.012   4.622
67071W        W35465   3.736  19.136  11.634
67072W        W35466  32.731  32.188   2.396
67073W        W35467  20.231  21.738   2.716
67074W        W35468  12.743  22.595   0.974
67075W        W35469   5.149  19.683  10.057
67076W        W35470   7.176  34.834  10.492
67077W        W35471  16.784  30.696  13.712
67078W        W35472  22.811  38.934   1.680
67079W        W35473  30.868  15.048   1.775
67080W        W35474  17.946   8.760  10.703
67081W        W35475  17.607  21.099   3.670
67082W        W35476   2.964  12.554  11.932
67083W        W35477  40.721  24.593   4.064
67084W        W35478  24.567  44.142   3.233
67085W        W35479  34.248  26.656  14.940
67086W        W35480  11.878  17.520  12.191
67087W        W35481  19.113  35.666  11.039
67088W        W35482   3.903  44.368  10.233
67089W        W35483  21.120   9.715   4.100
67090W        W35484   0.476  30.976   4.110
67091W        W35485   3.977  36.569   0.149
67092W        W35486  30.827  29.597   4.410
67093W        W35487  31.484  23.217  12.639
67094W        W35488  25.548  22.157  11.465
67095W        W35489  12.590  31.109  11.004
67096W        W35490  10.984  40.763   3.232
67097W        W35491  31.464  35.849   0.985
67098W        W35492   8.176  35.075  14.203
67099W        W35493  37.401  38.452  12.508
67100W        W35494  16.533   2.695  14.921
67101W        W35495  27.121   4.404   2.234
67102W        W35496   9.887  11.290   0.889
67103W        W35497  31.670  12.787  12.095
67104W        W35498   9.627   9.485   4.213
67105W        W35499  28.697  26.640   3.714
67106W        W35500   1.701  16.062   2.904
67107W        W35501   1.681  41.505  12.052
67108W        W35502   4.910   3.312   0.278
67109W        W35503  39.305  15.693   1.897
67110W        W35504   5.435  37.295   2.852
67111W        W35505   3.229  15.760  12.128
67112W        W35506  44.729  19.499  14.240
67113W        W35507  40.460  33.503  14.554
67114W        W35508  41.901  30.340  11.350
67115W        W35509  18.875  28.056  14.871
67116W        W35510  21.154  11.005   0.257
67117W        W35511   4.794  37.563  12.137
67118W        W35512  14.059  34.321  14.426
67119W        W35513  26.394  21.040   4.515
67120W        W35514   5.960  20.004  11.128
67121W        W35515  14.136  10.300   4.598
67122W        W35516   5.869   5.569   1.388
67123W        W35517  13.276  43.697  13.342
67124W        W35518  20.500  35.607  13.746
67125W        W35519   8.509   3.114  13.548
67126W        W35520  30.040  12.832  14.987
67127W        W35521  22.795  41.503   2.360
67128W        W35522  26.155  44.881  14.627
67129W        W35523  34.427   0.466  12.488
67130W        W35524   1.837  25.064  10.724
67131W        W35525   2.466  23.586   3.229
67132W        W35526  21.458  36.405  12.355
67133W        W35527  43.378   2.463  12.617
67134W        W35528  21.509  22.812   1.488
67135W        W35529   0.873  29.975  10.969
67136W        W35530  35.573  39.985   4.260
67137W        W35531  11.145   7.610  13.094
67138W        W35532  16.319  18.618   3.072
67139W        W35533  35.019  39.848   0.488
67140W        W35534  27.551  41.255  11.489
67141W        W35535  19.627  39.786  11.581
67142W        W35536  29.642   2.936   3.878
67143W        W35537  10.837  18.335   4.449
67144W        W35538  25.705  15.845  13.493
67145W        W35539  27.449  21.716  12.298
67146W        W35540  42.848  32.343   0.441
67147W        W35541   6.231   0.819   1.773
67148W        W35542  32.982   1.205  12.883
67149W        W35543   7.177  20.519   2.148
67150W        W35544   4.391  31.482  14.347
67151W        W35545   6.947   1.324  12.253
67152W        W35546  17.004  12.140  14.782
67153W        W35547  13.709  35.099   3.635
67154W        W35548  14.371  15.156  13.794
67155W        W35549   9.605   4.260   4.587
67156W        W35550  26.053  14.261  11.208
67157W        W35551  25.895  34.241   4.541
67158W        W35552   4.132  23.564   0.886
67159W        W35553  10.746  28.486  13.710
67160W        W35554  39.377   6.674   0.437
67161W        W35555  10.739  13.202   1.216
67162W        W35556   4.802  24.630   3.595
67163W        W35557  25.541  38.199  13.829
67164W        W35558  13.337   7.425   4.428
67165W        W35559  36.613   0.219  13.050
67166W        W35560  20.442  16.229   1.489
67167W        W35561  19.276  43.086   4.104
67168W        W35562   4.695  10.258  11.002
67169W        W35563  27.185  41.104   3.747
67170W        W35564  26.257  18.077   3.316
67171W        W35565  22.138  30.243   1.221
67172W        W35566  15.604   9.277   1.268
67173W        W35567  32.527  44.665   0.877
67174W        W35568  31.240  43.950  13.002
67175W        W35569  38.767  32.950  14.977
67176W        W35570  12.812  20.662  11.492
67177W        W35571  40.486  22.162   2.854
67178W        W35572  40.902   1.819  10.900
67179W        W35573   0.441  25.570   2.309
67180W        W35574  19.367  43.808  12.840
67181W        W35575  37.973  36.527   3.735
67182W        W35576  26.652   5.969  10.274
67183W        W35577  44.412  33.115  14.462
67184W        W35578  12.340   9.701   1.286
67185W        W35579  15.296  43.315   1.282
67186W        W35580  24.132  41.103   0.274
67187W        W35581  35.592  15.617  11.271
67188W        W35582  44.190  43.955   1.457
67189W        W35583  44.107  28.554  14.376
67190W        W35584   5.592  18.748  11.411
67191W        W35585  11.295  13.243   0.359
67192W        W35586   7.235   0.223  14.900
67193W        W35587  43.911   2.425   3.582
67194W        W35588  31.277   8.846  10.804
67195W        W35589  19.294   6.219  14.036
67196W        W35590   2.516   2.775   4.735
67197W        W35591  41.052  32.697   0.004
67198W        W35592  41.998  41.025  12.564
67199W        W35593  44.418  15.146  10.742
67200W        W35594  17.626   6.582   0.091
67201W        W35595  12.571  22.426  14.670
67202W        W35596  13.098   9.908   2.390
67203W        W35597  16.572  12.779   2.755
67204W        W35598  11.821  38.934   2.391
67205W        W35599  37.297   3.006   2.723
67206W        W35600  25.030  21.174  14.354
67207W        W35601  31.787  13.584  14.811
67208W        W35602  22.712  31.916   4.492
67209W        W35603  38.473  19.514   4.596
67210W        W35604   8.324  30.637  12.641
67211W        W35605   3.881  28.594  13.782
67212W        W35606  15.532  35.129   1.259
67213W        W35607  22.518  15.760   0.867
67214W        W35608  30.206   2.432   1.119
67215W        W35609   1.495   4.918  12.179
67216W        W35610  40.498  31.666   1.643
67217W        W35611  13.707  16.242   4.603
67218W        W35612  36.897  24.798  11.627
67219W        W35613   9.270  40.791  14.020
67220W        W35614  22.623  14.261  11.659
67221W        W35615  25.733  12.457  12.032
67222W        W35616  13.958  30.982  11.485
67223W        W35617  33.091  32.063  13.047
67224W        W35618  40.982  32.610   2.128
67225W        W35619   2.118   1.435  14.306
67226W        W35620  11.055  20.994   4.434
67227W        W35621  24.633   7.858  14.957
67228W        W35622  17.286  42.018  12.544
67229W        W35623  43.325  28.564  11.468
67230W        W35624  28.461   8.730   1.431
67231W        W35625  29.027  10.569   3.688
67232W        W35626  14.589  36.154  13.783
67233W        W35627  39.450  33.674  14.259
67234W        W35628  17.286  29.210   1.912
67235W        W35629  24.270  33.105  13.189
67236W        W35630  17.730  44.556  12.054
67237W        W35631  24.268  31.072  11.594
67238W        W35632  20.496  17.275  10.656
67239W        W35633  16.784  10.654  12.418
67240W        W35634  28.709  11.225   2.386
67241W        W35635   8.563   5.229   0.056
67242W        W35636   7.933  39.372  10.718
67243W        W35637  14.883  10.122   2.194
67244W        W35638  30.102  34.110   0.354
67245W        W35639  12.614  37.360   0.760
67246W        W35640  41.296   1.693   2.755
67247W        W35641  18.999  39.950  12.417
67248W        W35642  20.066  11.865  14.292
67249W        W35643   4.578  19.543   3.701
67250W        W35644  40.853   8.801  12.435
67251W        W35645  40.561   6.661  10.955
67252W        W35646   0.260  23.349   4.561
67253W        W35647   1.672   0.288  13.486
67254W        W35648   3.252  26.543  12.142
67255W        W35649   6.879  38.344  14.007
67256W        W35650  34.309  35.252   3.426
67257W        W35651  12.587   7.783   0.772
67258W        W35652  27.636  37.711  14.919
67259W        W35653   3.266   8.930   0.555
67260W        W35654   2.955  28.298  13.056
67261W        W35655  11.073  36.090   0.800
67262W        W35656   2.850   4.881  11.510
67263W        W35657  11.435  33.975   0.940
67264W        W35658  27.616   3.510   4.992
67265W        W35659  41.968   3.905  10.367
67266W        W35660  38.566  17.665  12.843
67267W        W35661  23.571   7.949  10.531
67268W        W35662  36.417  11.094   0.249
67269W        W35663  33.600  23.206  11.295
67270W        W35664  35.699  24.151  11.550
67271W        W35665  38.580  28.611   4.663
67272W        W35666  25.919  37.278   4.333
67273W        W35667  11.849  40.747   2.650
67274W        W35668  28.628  21.267  14.356
67275W        W35669  13.982  44.416  12.968
67276W        W35670  37.001   2.502   4.910
67277W        W35671  41.292  32.622  11.560
67278W        W35672  24.632   8.411   1.902
67279W        W35673   1.462  25.269   4.140
67280W        W35674  39.951  39.865  10.591
67281W        W35675  34.780  35.246  12.593
67282W        W35676  28.845  14.189  13.961
67283W        W35677   7.584  43.297   4.009
67284W        W35678   9.678  15.096  12.035
67285W        W35679  35.313  20.713   2.482
67286W        W35680  22.076  32.862   3.862
67287W        W35681   7.043  17.908  11.947
67288W        W35682   6.883   4.163   3.758
67289W        W35683   7.834  19.280  13.520
67290W        W35684   3.228  35.963  12.977
67291W        W35685  22.765  12.126   0.688
67292W        W35686  32.932  40.069   0.765
67293W        W35687  39.541  29.362  13.423
67294W        W35688  16.193   4.805   3.347
67295W        W35689  35.162  43.053  11.161
67296W        W35690  16.251  37.293   1.798
67297W        W35691  28.286  23.561  14.292
67298W        W35692  30.934   6.227  11.104
67299W        W35693  15.374   8.933   2.733
67300W        W35694   9.544  43.957   4.146
67301W        W35695   2.867  11.372  13.548
67302W        W35696  23.578  41.789  13.069
67303W        W35697  42.392  20.796  11.133
67304W        W35698   0.812  44.067  10.748
67305W        W35699  37.473  32.692   2.677
67306W        W35700  14.609  28.673  11.987
67307W        W35701  42.208  21.146   2.197
67308W        W35702  28.739  18.662  12.072
67309W        W35703  28.166  39.264   2.918
67310W        W35704  25.650  30.120  13.538
67311W        W35705  27.747  37.415  13.882
67312W        W35706  15.196  33.478   1.645
67313W        W35707   4.823  31.193  10.755
67314W        W35708  28.276  22.787   5.072
67315W        W35709  19.771  36.847   3.674
67316W        W35710   4.713   0.656   3.711
67317W        W35711   6.955  43.351  11.949
67318W        W35712  20.744   1.658  12.905
67319W        W35713  12.818   3.157   0.346
67320W        W35714  32.285  28.103  13.345
67321W        W35715  36.034  12.763   2.120
67322W        W35716   5.929  44.707  14.364
67323W        W35717  12.377  25.692  13.421
67324W        W35718   1.717  39.409  14.837
67325W        W35719  11.904  29.676  11.725
67326W        W35720  16.220   8.768  12.417
67327W        W35721  14.646  12.684   2.687
67328W        W35722  25.986  34.714  13.104
67329W        W35723  15.367  28.232   1.142
67330W        W35724  43.496  31.164  12.652
67331W        W35725  20.153   6.258   3.322
67332W        W35726  25.381   0.394   4.257
67333W        W35727  28.675  12.090   2.791
67334W        W35728   9.232  19.493  11.144
67335W        W35729  36.610   2.726   3.957
67336W        W35730  27.518  10.665  10.632
67337W        W35731  33.774   2.636  13.634
67338W        W35732  20.703  27.500   0.739
67339W        W35733  33.262  39.927   3.350
67340W        W35734  15.938   9.351   5.030
67341W        W35735  23.512  16.682   1.649
67342W        W35736  25.566  29.165   0.373
67343W        W35737  32.989   5.312  12.603
67344W        W35738  26.219  13.833   1.000
67345W        W35739   7.736  37.857   2.861
67346W        W35740  34.386  13.215  14.796
67347W        W35741  29.101  23.550  10.898
67348W        W35742  27.752  43.333  11.555
67349W        W35743  19.959  10.174   4.638
67350W        W35744  34.161   7.191   0.349
67351W        W35745  35.486  35.365  13.454
67352W        W35746  17.810  14.047   2.186
67353W        W35747  14.081  13.233  11.848
67354W        W35748   3.463   3.835   0.398
67355W        W35749  38.831   6.209   1.758
67356W        W35750  36.152   6.880   1.115
67357W        W35751   3.934  38.482  11.661
67358W        W35752  18.452  40.321  11.455
67359W        W35753  22.247  18.590  13.871
67360W        W35754  37.869  43.681   2.767
67361W        W35755  37.099   3.241  13.488
67362W        W35756  25.015  20.678  13.334
67363W        W35757  33.621  29.556   2.185
67364W        W35758  36.471   2.740   1.234
67365W        W35759   7.966  30.547   4.437
67366W        W35760  20.195  14.931  11.696
67367W        W35761   8.410  17.283  13.780
67368W        W35762  35.810  34.013  11.670
67369W        W35763  37.885  25.687  11.954
67370W        W35764  22.110  31.721   1.900
67371W        W35765  10.178  21.826  11.120
67372W        W35766  44.386  24.241   1.676
67373W        W35767  13.821  35.464  14.910
67374W        W35768  30.064  43.817   4.981
67375W        W35769  21.751  33.348   0.040
67376W        W35770  24.122   6.163  11.888
67377W        W35771  18.613  29.218  14.492
67378W        W35772  18.199  27.561  14.286
67379W        W35773  42.331  17.287  11.130
67380W        W35774  14.152  19.277   1.205
67381W        W35775  30.775  32.509   3.188
67382W        W35776  12.362  26.990   0.386
67383W        W35777  30.125  29.740   4.810
67384W        W35778  33.645  17.230  10.770
67385W        W35779  40.864  10.980  14.856
67386W        W35780  40.517  34.441  13.583
67387W        W35781   5.293   2.360  12.591
67388W        W35782  25.949   8.618   1.766
67389W        W35783  35.610  22.163  14.590
67390W        W35784   3.490  41.844   4.846
67391W        W35785   1.740  40.671   3.225
67392W        W35786  22.457  34.170   3.673
67393W        W35787  13.094  17.346  11.610
67394W        W35788  21.117  36.534   4.166
67395W        W35789  38.528  28.937  13.715
67396W        W35790  29.561   1.478   0.865
67397W        W35791   6.238   6.132  11.009
67398W        W35792  28.056  18.426  10.995
67399W        W35793  21.556  33.334  11.993
67400W        W35794  23.515  42.386  13.036
67401W        W35795  25.558   2.729   0.130
67402W        W35796  28.474  27.223  13.510
67403W        W35797  24.134   5.469   4.675
67404W        W35798  37.422  27.562  11.560
67405W        W35799   3.486  17.078  13.296
67406W        W35800  22.468  43.576  12.834
67407W        W35801  36.019  22.013   0.001
67408W        W35802  26.289   3.318  13.004
67409W        W35803  28.447  21.993  13.344
67410W        W35804  22.271  30.361   2.261
67411W        W35805  11.662   4.828   4.113
67412W        W35806  15.228  29.254   3.251
67413W        W35807  29.717   5.824  13.798
67414W        W35808  21.545  37.202  12.107
67415W        W35809  33.662  43.432   2.177
67416W        W35810  40.758   0.009  12.015
67417W        W35811  44.703  29.711   1.391
67418W        W35812  35.632   5.836   3.146
67419W        W35813  35.565  42.237   1.368
67420W        W35814  20.104  14.993  12.942
67421W        W35815  14.352  29.923   3.789
67422W        W35816  15.221   5.740   4.176
67423W        W35817  14.496   3.003   2.094
67424W        W35818  16.748   7.494   4.980
67425W        W35819   0.785  29.357   0.404
67426W        W35820  39.108  13.761   3.837
67427W        W35821  15.339  20.840  14.402
67428W        W35822  11.465  31.441   1.683
67429W        W35823   6.994  17.227  12.580
67430W        W35824  31.648  23.117  11.250
67431W        W35825  31.679  11.794  12.422
67432W        W35826  15.649  38.543   1.399
67433W        W35827  41.716  34.177   3.214
67434W        W35828  15.540  36.662   2.172
67435W        W35829  14.533  20.099  11.254
67436W        W35830  34.739  44.328   1.503
67437W        W35831   5.464  28.940  12.504
67438W        W35832  11.107  12.186  14.919
67439W        W35833  15.801  38.896  13.576
67440W        W35834  26.094  11.621  13.073
67441W        W35835  15.808  10.829  14.638
67442W        W35836  25.700  36.302   2.815
67443W        W35837   0.210   3.945  11.639
67444W        W35838   6.395  27.339  11.118
67445W        W35839  39.559  39.017   4.699
67446W        W35840  30.275  37.494   3.204
67447W        W35841  36.342  35.990   3.950
67448W        W35842  29.607  24.240  11.230
67449W        W35843   8.403  16.748  14.283
67450W        W35844  16.035  42.846  11.134
67451W        W35845  19.261  34.211   2.706
67452W        W35846  40.800  13.189  13.837
67453W        W35847  34.954  20.593  10.760
67454W        W35848  34.018  39.938  12.317
67455W        W35849  35.365  43.807  12.120
67456W        W35850  11.642   7.093   4.417
67457W        W35851  15.611  33.222  12.387
67458W        W35852  36.381  42.170   0.628
67459W        W35853  20.800  27.423  14.776
67460W        W35854   9.662  19.577  13.104
67461W        W35855  39.136   1.446  10.676
67462W        W35856  19.140  15.869   2.311
67463W        W35857  38.966   6.705   4.565
67464W        W35858   0.229   4.259   4.246
67465W        W35859  43.866  35.756  13.869
67466W        W35860  12.607  29.270   0.433
67467W        W35861   3.812  35.414   0.866
67468W        W35862  31.967  15.698  13.816
67469W        W35863  24.454  32.846  12.796
67470W        W35864  19.986  10.191   1.000
67471W        W35865  17.708  15.078  14.984
67472W        W35866   2.008   5.716   1.433
67473W        W35867  44.696  29.899   3.633
67474W        W35868  33.428   9.083   4.084
67475W        W35869   5.843  18.513   4.420
67476W        W35870  13.018  10.478   4.810
67477W        W35871   0.325  17.600  13.296
67478W        W35872   0.017   8.268  13.858
67479W        W35873  42.909   3.279  11.116
67480W        W35874  21.814   7.344   3.273
67481W        W35875  30.013  17.605  14.813
67482W        W35876   2.787   3.337  13.959
67483W        W35877   4.855  12.508   4.640
67484W        W35878  28.725  32.819   3.704
67485W        W35879  27.044   8.670  12.952
67486W        W35880   9.820  37.372   3.889
67487W        W35881  21.340  10.929   1.670
67488W        W35882   9.361   2.390  12.816
67489W        W35883  33.210   6.938   1.312
67490W        W35884  13.088  10.129   1.803
67491W        W35885   7.448  38.326   3.592
67492W        W35886  13.178  32.525   2.416
67493W        W35887  26.901   0.042   4.945
67494W        W35888  23.347  35.905   4.162
67495W        W35889   3.244  21.105   4.605
67496W        W35890  12.095  41.400  13.638
67497W        W35891   9.878   7.400  11.249
67498W        W35892  31.655  34.519   0.704
67499W        W35893  23.597  19.549  10.790
67500W        W35894   9.412  25.116   4.509
67501W        W35895  16.073  39.659   4.331
67502W        W35896   3.345  32.413   4.696
67503W        W35897  18.185  37.048   2.607
67504W        W35898  28.477  37.176   2.236
67505W        W35899  36.367  19.286  10.763
67506W        W35900  12.168   8.758  14.349
67507W        W35901  14.064  20.250   0.976
67508W        W35902   0.733  44.833   3.947
67509W        W35903  11.095  32.627  12.432
67510W        W35904  11.162  38.610   4.648
67511W        W35905  36.577   8.694   4.959
67512W        W35906  42.907  43.990   3.880
67513W        W35907  17.802  13.452   3.084
67514W        W35908  25.598  20.018   0.074
67515W        W35909  39.398  27.409   4.058
67516W        W35910  18.475  21.518   0.424
67517W        W35911  32.631   8.057   1.776
67518W        W35912   1.519  14.057   5.444
67519W        W35913  21.567   4.700   1.683
67520W        W35914  19.137   7.765  10.618
67521W        W35915  38.095  24.907  10.711
67522W        W35916  32.584  44.463   0.394
67523W        W35917  27.938  22.031  10.674
67524W        W35918  30.151  10.180  12.262
67525W        W35919  36.452   2.576  14.530
67526W        W35920   1.130  43.740   3.088
67527W        W35921  32.182  29.050  10.331
67528W        W35922  13.733  30.698   4.572
67529W        W35923   8.845  21.460   1.427
67530W        W35924  15.699  22.812   3.594
67531W        W35925  34.414  12.510  13.638
67532W        W35926  23.119  18.228  14.310
67533W        W35927   3.669  22.493   1.386
67534W        W35928  43.536   1.781  12.390
67535W        W35929  43.635  18.157  14.004
67536W        W35930  23.630  13.675  12.974
67537W        W35931  15.888  19.699  13.563
67538W        W35932  24.129  15.800  13.618
67539W        W35933   7.032  41.243  11.159
67540W        W35934  43.280  13.107   0.856
67541W        W35935   2.955   8.905  13.329
67542W        W35936  21.614  24.382   4.555
67543W        W35937  16.918   4.321   1.447
67544W        W35938  43.789  28.679  14.749
67545W        W35939  17.864  23.303   0.753
67546W        W35940   3.851   3.821  11.222
67547W        W35941  25.939  39.156   0.877
67548W        W35942  27.321  16.718  10.760
67549W        W35943  13.875  24.739   0.856
67550W        W35944  34.577  15.798  12.593
67551W        W35945  20.208  41.997   3.237
67552W        W35946  13.679   5.196  13.721
67553W        W35947  14.447  42.937   0.575
67554W        W35948  39.961  33.046  14.348
67555W        W35949  38.994  33.516   1.858
67556W        W35950  24.539  11.226  11.653
67557W        W35951  23.310  17.496  13.024
67558W        W35952  22.053  20.963   4.587
67559W        W35953  14.605  22.996  13.075
67560W        W35954  11.232   0.972  14.270
67561W        W35955  41.534  26.168   3.714
67562W        W35956   4.162  21.071  13.417
67563W        W35957  32.822  15.668  13.091
67564W        W35958  41.415   9.710  13.858
67565W        W35959  38.454  18.581  10.613
67566W        W35960  25.930   5.433   3.749
67567W        W35961  19.191  33.629   4.338
67568W        W35962  44.614  31.681  11.708
67569W        W35963   0.987  40.549  12.843
67570W        W35964  32.421   6.668   1.158
67571W        W35965  11.684  36.121  11.569
67572W        W35966  19.553   1.785   3.243
67573W        W35967  38.940  39.816   1.843
67574W        W35968  43.439  43.874   0.719
67575W        W35969  10.091  30.480  14.439
67576W        W35970  34.975  29.135  13.335
67577W        W35971  20.855  21.572  13.634
67578W        W35972   6.903   3.900  13.752
67579W        W35973  15.609  43.730   1.389
67580W        W35974  11.612  13.108  12.051
67581W        W35975  43.793   7.692  11.606
67582W        W35976  42.841  43.542  12.412
67583W        W35977  30.175  38.663   0.016
67584W        W35978  35.359  39.706   3.854
67585W        W35979  11.545  11.818   4.204
67586W        W35980  12.623   1.863  14.268
67587W        W35981  29.424  18.726  13.067
67588W        W35982  32.962  40.969   4.653
67589W        W35983  21.972  35.875  12.722
67590W        W35984  21.162   3.018   0.141
67591W        W35985   8.194  17.520   2.379
67592W        W35986  11.660  43.546  11.455
67593W        W35987   1.986  42.862  11.573
67594W        W35988  14.322  27.275   1.371
67595W        W35989  30.243  18.194  10.982
67596W        W35990  23.778  15.043  12.616
67597W        W35991   6.741   6.407  12.887
67598W        W35992  17.769  25.888   4.968
67599W        W35993  20.475  14.772  12.433
67600W        W35994  44.385  18.602   2.917
67601W        W35995  37.500   2.388  14.671
67602W        W35996  44.729  34.565  12.438
67603W        W35997  43.756  38.959  14.386
67604W        W35998  37.998   2.213  11.433
67605W        W35999  16.614  22.026   3.278
67606W        W36000  19.022   1.213   0.242
67607W        W36001   9.813  42.422  14.310
67608W        W36002  32.582  32.003   1.366
67609W        W36003  14.809  36.253   3.871
67610W        W36004  10.351  21.212   2.613
67611W        W36005  17.971  28.502   4.909
67612W        W36006  21.500  15.834   0.758
67613W        W36007  13.884  41.886   3.158
67614W        W36008  38.034  11.132  10.974
67615W        W36009   7.724  19.051   1.809
67616W        W36010  35.414  27.255  14.505
67617W        W36011   7.305   0.762  14.849
67618W        W36012  25.259  17.338   2.407
67619W        W36013  22.150   9.721   1.693
67620W        W36014  37.402  33.123  12.074
67621W        W36015  32.601  14.816  14.417
67622W        W36016  21.992  16.742   1.881
67623W        W36017   8.397  20.959  11.675
67624W        W36018  27.985  23.031   2.627
67625W        W36019  35.583  11.693  14.855
67626W        W36020   9.445  37.143  11.612
67627W        W36021  34.527  18.974  12.057
67628W        W36022  33.950  29.763  11.374
67629W        W36023  29.032  21.503  13.984
67630W        W36024   9.515  14.181   4.257
67631W        W36025  15.069  35.589   1.913
67632W        W36026  17.653  27.767   2.008
67633W        W36027  30.734  37.326   1.405
67634W        W36028   8.354  44.571  11.174
67635W        W36029   2.786  33.681   4.298
67636W        W36030  18.059  27.085   0.967
67637W        W36031  10.744   4.417  12.635
67638W        W36032  42.077  35.931   0.778
67639W        W36033   8.406  26.757  12.946
67640W        W36034  12.249  18.162   4.277
67641W        W36035  34.515  37.681  14.807
67642W        W36036  36.024  41.495   2.564
67643W        W36037  19.858  26.950   0.824
67644W        W36038   4.976  29.756  10.742
67645W        W36039  42.832   1.683  13.444
67646W        W36040  38.497  32.811   4.949
67647W        W36041  34.781  26.872   2.686
67648W        W36042  18.787  26.159  11.148
67649W        W36043  43.495  29.869  13.006
67650W        W36044   6.105  22.510  14.920
67651W        W36045  23.589  32.186   2.664
67652W        W36046  32.086  14.951   1.287
67653W        W36047  44.384  32.336  14.351
67654W        W36048  19.035  22.126  13.611
67655W        W36049  42.132   2.379  14.641
67656W        W36050  38.922  44.000  13.842
67657W        W36051  14.727  42.928  12.345
67658W        W36052  34.425  27.577   1.906
67659W        W36053  18.772  25.215   0.532
67660W        W36054   2.320  16.348   4.260
67661W        W36055  33.183  14.331   3.120
67662W        W36056  11.236  21.495   0.673
67663W        W36057   7.711  31.391   4.298
67664W        W36058  35.840   4.370  14.838
67665W        W36059   2.393  30.584  13.975
67666W        W36060  30.011  27.172   0.882
67667W        W36061   1.475  35.535  11.993
67668W        W36062   5.044  16.766   5.020
67669W        W36063   1.029  42.354  10.632
67670W        W36064  16.298  17.303   1.922
67671W        W36065  20.079  22.574  14.380
67672W        W36066  42.756  40.402   0.258
67673W        W36067  22.045  16.195  14.849
67674W        W36068  21.022  19.701  13.768
67675W        W36069   0.302  20.094  14.434
67676W        W36070  24.098   0.733  11.726
67677W        W36071   7.645  18.566   1.943
67678W        W36072  33.654  44.533   1.871
67679W        W36073   9.792   9.658   3.610
67680W        W36074  30.291  26.603   1.404
67681W        W36075  23.400  43.442   5.062
67682W        W36076  20.231  38.242   5.459
67683W        W36077  30.349   2.110  12.351
67684W        W36078  11.833   3.491   4.640
67685W        W36079  10.417   0.399   0.691
67686W        W36080  29.367  41.229  13.538
67687W        W36081  26.841  42.361  13.184
67688W        W36082  44.797   3.386  14.228
67689W        W36083  27.092  14.515  11.304
67690W        W36084  39.748   2.259   1.103
67691W        W36085   2.770  24.368  14.395
67692W        W36086  36.666  18.516   2.818
67693W        W36087  34.467  17.517  14.383
67694W        W36088  42.187  15.744   4.808
67695W        W36089  34.888   0.707  11.585
67696W        W36090  16.790   6.063  11.638
67697W        W36091   8.059  22.990   4.319
67698W        W36092  41.756  39.957  11.869
67699W        W36093  27.493  29.423   3.746
67700W        W36094  14.724  20.135  13.127
67701W        W36095  29.022  43.619   9.575
67702W        W36096  28.418   3.872   2.173
67703W        W36097  20.937  33.847   2.975
67704W        W36098  30.749  16.217  13.871
67705W        W36099  25.764  29.397  13.988
67706W        W36100  35.045  32.086   1.802
67707W        W36101   8.299   0.750   1.405
67708W        W36102  37.943   4.368   0.849
67709W        W36103  13.851  19.224   4.674
67710W        W36104   8.360  27.627   0.494
67711W        W36105   3.359  44.491  11.964
67712W        W36106  37.629  42.440   0.402
67713W        W36107  31.041  40.809  13.628
67714W        W36108  40.309   8.178   3.196
67715W        W36109  33.236  15.615   1.404
67716W        W36110   6.637   3.016  14.780
67717W        W36111  37.065  10.566   0.722
67718W        W36112  32.950  30.556   0.722
67719W        W36113  37.553  31.124   1.971
67720W        W36114  35.489   7.797  13.826
67721W        W36115  12.723  13.869   3.765
67722W        W36116  37.150  27.208   0.409
67723W        W36117  21.415  31.824  11.609
67724W        W36118  15.418  27.225   2.826
67725W        W36119  41.027  16.692   1.207
67726W        W36120  17.469  38.590   1.386
67727W        W36121  37.861  27.752   1.671
67728W        W36122  28.663  38.359  12.405
67729W        W36123  17.776   7.278   3.117
67730W        W36124  27.732   0.033   2.888
67731W        W36125   2.405   2.750   1.868
67732W        W36126  16.195  21.600  14.958
67733W        W36127  33.039  31.160   4.135
67734W        W36128  34.194  31.497   3.179
67735W        W36129  36.538  36.533  10.726
67736W        W36130  27.105  10.570  13.881
67737W        W36131  37.784  13.017  13.584
67738W        W36132  21.132  11.298  10.287
67739W        W36133   1.379  19.296   1.199
67740W        W36134  25.421  36.473   3.235
67741W        W36135   3.786   5.048  14.858
67742W        W36136  32.217  15.935   3.718
67743W        W36137  29.941  13.150   1.854
67744W        W36138  38.838  14.071  11.975
67745W        W36139   8.957  28.914  11.527
67746W        W36140   2.872   3.802   4.836
67747W        W36141  44.708  38.149  13.016
67748W        W36142  18.750   1.654  10.102
67749W        W36143  24.778  33.704  11.974
67750W        W36144  35.244  26.522   1.508
67751W        W36145  40.045  10.320  13.453
67752W        W36146  19.304  40.307  12.625
67753W        W36147   3.338  23.743  11.868
67754W        W36148   2.249  37.388   0.482
67755W        W36149  35.762  11.745  11.915
67756W        W36150  13.659  13.673   3.354
67757W        W36151   8.503  27.070   2.441
67758W        W36152  39.488   5.969   4.506
67759W        W36153  33.560  28.979   1.262
67760W        W36154  14.606  33.562   2.695
67761W        W36155  44.139  29.884   3.697
67762W        W36156  11.671  14.623   3.791
67763W        W36157  33.592  29.520  13.534
67764W        W36158  40.745  20.690   0.472
67765W        W36159  40.440  44.408  10.927
67766W        W36160   1.458  43.070   2.630
67767W        W36161  42.559  32.779  11.507
67768W        W36162   4.749  18.421   0.283
67769W        W36163  29.547  22.000  14.855
67770W        W36164   6.980   2.755  11.730
67771W        W36165  24.776  38.800  11.556
67772W        W36166  43.816  34.048  12.168
67773W        W36167  14.313  16.551  11.357
67774W        W36168  17.266   4.414  11.107
67775W        W36169  14.234  24.441  13.894
67776W        W36170  18.587  16.102  14.553
67777W        W36171   7.162  13.109   4.809
67778W        W36172   1.548  27.565  10.456
67779W        W36173  41.123  12.293  11.304
67780W        W36174  35.865  20.432  12.628
67781W        W36175  23.960  35.094  14.450
67782W        W36176  41.902   3.877   1.029
67783W        W36177  28.133  37.047   4.557
67784W        W36178  31.633  16.652   0.921
67785W        W36179  18.583  30.445  13.511
67786W        W36180  25.937  33.134   3.154
67787W        W36181  39.802  11.346   1.986
67788W        W36182  10.413   8.973   3.805
67789W        W36183  37.454  14.827   1.097
67790W        W36184  31.029  10.114  11.197
67791W        W36185  17.071   7.631   3.519
67792W        W36186  28.414  17.618   3.598
67793W        W36187  32.630  20.774   4.570
67794W        W36188  18.608   0.328   2.201
67795W        W36189  29.140   0.253   4.522
67796W        W36190  29.242  37.822  12.845
67797W        W36191  22.797  13.833  10.180
67798W        W36192  13.009   9.510   0.718
67799W        W36193  24.174  34.366  13.890
67800W        W36194  36.836  16.054   1.926
67801W        W36195  41.797  16.099  10.995
67802W        W36196  38.614  22.969   3.637
67803W        W36197  40.948  11.306  13.409
67804W        W36198  23.505  19.264   1.697
67805W        W36199  29.803  40.505  12.888
67806W        W36200  28.520  16.879  11.069
67807W        W36201  40.476  26.307  13.183
67808W        W36202   9.438  23.613   1.251
67809W        W36203  12.838   3.950  14.940
67810W        W36204  29.622  11.843   0.746
67811W        W36205   6.236  31.005  12.918
67812W        W36206  37.650   5.434   1.328
67813W        W36207  25.672  25.446   2.956
67814W        W36208  19.582  38.606  14.974
67815W        W36209   8.235  14.586   1.299
67816W        W36210   5.198  22.487   4.164
67817W        W36211  40.549  39.490   1.225
67818W        W36212  40.426  35.612  14.886
67819W        W36213   1.977   7.860  10.680
67820W        W36214  17.874  43.125   3.212
67821W        W36215  28.383   9.262  11.579
67822W        W36216  41.450   3.778   0.794
67823W        W36217  18.139  22.121  13.630
67824W        W36218   8.662  33.771  13.775
67825W        W36219  38.896  38.207  12.349
67826W        W36220  31.001  24.248   2.766
67827W        W36221  26.628  33.404  12.968
67828W        W36222  44.930   3.973  11.176
67829W        W36223  13.450  18.718  13.026
67830W        W36224  19.673  13.568   2.212
67831W        W36225  40.066  16.756  11.503
67832W        W36226   4.885  37.137   1.856
67833W        W36227  41.331   2.049   0.611
67834W        W36228   6.047  18.505  14.544
67835W        W36229  38.366  39.123   3.633
67836W        W36230   9.183  41.112  11.142
67837W        W36231  22.500  22.227  13.959
67838W        W36232   1.420  20.778  14.504
67839W        W36233   1.386   8.451   4.412
67840W        W36234  32.354   4.350   1.329
67841W        W36235  31.099  33.613   0.307
67842W        W36236  32.514  12.396   1.818
67843W        W36237  33.177  33.109   2.278
67844W        W36238  32.081  12.046   1.384
67845W        W36239  35.839   4.665  11.107
67846W        W36240  33.563  44.488  13.828
67847W        W36241  37.907  32.222   1.780
67848W        W36242  15.035   5.206  11.599
67849W        W36243  31.314  27.781  14.306
67850W        W36244  30.335  27.978  10.901
67851W        W36245  18.788  14.042   4.786
67852W        W36246  32.205  11.793   2.757
67853W        W36247   3.486  16.861  14.918
67854W        W36248  25.015  36.850   0.719
67855W        W36249   8.680   9.250   2.213
67856W        W36250  36.178  18.658  13.761
67857W        W36251  30.072  32.487   4.064
67858W        W36252   2.056  29.618   0.421
67859W        W36253  37.959  40.340  10.269
67860W        W36254  39.232   8.775  12.580
67861W        W36255  44.924  27.282  11.159
67862W        W36256  36.605  13.682   4.123
67863W        W36257  44.910  31.065   3.225
67864W        W36258  38.029  41.631   0.253
67865W        W36259  22.712  16.638   1.398
67866W        W36260   2.601  13.226  13.081
67867W        W36261  41.338  38.654   4.328
67868W        W36262   7.225  13.448  13.422
67869W        W36263  20.664  20.491  11.737
67870W        W36264  27.601   9.131  12.472
67871W        W36265   7.323   1.172   0.733
67872W        W36266  44.710  19.544   1.259
67873W        W36267  23.701  11.329  14.315
67874W        W36268  20.148  40.330  13.872
67875W        W36269   9.438  17.404   0.784
67876W        W36270  17.020   9.060  11.964
67877W        W36271  18.353  26.595   0.281
67878W        W36272  16.577  18.315  11.556
67879W        W36273   1.735  38.356  13.064
67880W        W36274   4.690  14.197   0.831
67881W        W36275  28.406  44.226   2.840
67882W        W36276  30.727   4.359   4.172
67883W        W36277  41.362   4.961  14.263
67884W        W36278  21.538  20.220   0.835
67885W        W36279  44.487  21.124   0.410
67886W        W36280   2.735  27.067   0.581
67887W        W36281   4.791  41.302   4.582
67888W        W36282  25.440  31.775  14.379
67889W        W36283   3.502  33.001  14.344
67890W        W36284  11.124  25.949   4.358
67891W        W36285  15.908   6.392   3.854
67892W        W36286  38.986  34.687  13.312
67893W        W36287  42.547  11.378   1.873
67894W        W36288  12.400  20.737  10.664
67895W        W36289  25.975  25.306   1.201
67896W        W36290  13.541   7.504   3.214
67897W        W36291  33.901  26.031  14.491
67898W        W36292  44.776  25.542   0.867
67899W        W36293  12.236   8.363  11.380
67900W        W36294   8.634  12.766  13.989
67901W        W36295  12.102  26.059   0.511
67902W        W36296  30.515   8.553  13.464
67903W        W36297  17.543  30.975   4.080
67904W        W36298  34.413  15.333   2.276
67905W        W36299  26.245  31.700   3.197
67906W        W36300  24.710  35.012   0.006
67907W        W36301   9.409   4.591   2.781
67908W        W36302  29.580   4.907  13.938
67909W        W36303  23.040  11.253  13.511
67910W        W36304  22.719  19.013   2.280
67911W        W36305  34.070  15.499   5.041
67912W        W36306  34.931  43.916  13.928
67913W        W36307   0.899  30.090   2.833
67914W        W36308   4.434  36.666   2.276
67915W        W36309  36.004  15.066   3.787
67916W        W36310  13.780  26.514   0.413
67917W        W36311   3.780  27.714   1.139
67918W        W36312  15.785  16.128   1.737
67919W        W36313  37.485  18.299   1.727
67920W        W36314   5.046   6.813   0.608
67921W        W36315  32.724   1.559  14.394
67922W        W36316   5.240  41.348  11.053
67923W        W36317  19.248  44.028   2.862
67924W        W36318  25.234  37.896   0.353
67925W        W36319   8.674  17.757   4.177
67926W        W36320  28.258  33.295   4.498
67927W        W36321  32.907  41.510   3.362
67928W        W36322  18.116  42.205   1.431
67929W        W36323  20.612  30.926   1.371
67930W        W36324   2.474  39.564   2.963
67931W        W36325   4.098  39.974  13.469
67932W        W36326   6.320   8.788   2.978
67933W        W36327   8.344  32.696   2.201
67934W        W36328  29.864   9.190  12.431
67935W        W36329  38.322   1.745   4.448
67936W        W36330  30.795  24.625   0.400
67937W        W36331   5.884  37.709   3.292
67938W        W36332  20.821  38.468   3.119
67939W        W36333  29.048  34.380  14.265
67940W        W36334  38.571  40.520  14.706
67941W        W36335  44.981  32.901   3.887
67942W        W36336  24.355  23.500   3.739
67943W        W36337   8.575  39.150   0.378
67944W        W36338  38.873  22.245   2.941
67945W        W36339  17.534  36.350   5.047
67946W        W36340  18.090  20.557   0.972
67947W        W36341  11.338  41.872  13.341
67948W        W36342  25.967   1.887   3.262
67949W        W36343  13.805  21.132   3.481
67950W        W36344  44.395  26.238  11.308
67951W        W36345  31.210  25.603   3.845
67952W        W36346  37.307  44.135  13.926
67953W        W36347  40.953  18.686   2.382
67954W        W36348   8.716  35.109  12.104
67955W        W36349  12.412  26.201   0.124
67956W        W36350   5.652  40.096   3.764
67957W        W36351   6.859  37.049  14.428
67958W        W36352  18.158  24.999   4.104
67959W        W36353  23.021  17.273  11.742
67960W        W36354  33.990  40.942   2.583
67961W        W36355  24.689  35.840  12.297
67962W        W36356  15.965  16.330  14.082
67963W        W36357  21.708  26.022   5.178
67964W        W36358  37.090  35.187   0.463
67965W        W36359  16.666  23.794  12.047
67966W        W36360  40.768   0.209   0.475
67967W        W36361  44.943   4.352  14.108
67968W        W36362  37.144   3.355  11.507
67969W        W36363  20.735  40.491  13.650
67970W        W36364   5.148  37.865  14.388
67971W        W36365  31.964  16.765  14.758
67972W        W36366   2.530   9.637   2.119
67973W        W36367  20.661  43.796  12.802
67974W        W36368   7.006  26.032   4.158
67975W        W36369  25.714  36.924  10.919
67976W        W36370   7.983  12.631  11.531
67977W        W36371  40.366  28.122   0.723
67978W        W36372  43.389  41.282  14.380
67979W        W36373  22.486  16.191   1.220
67980W        W36374  24.007  24.106  10.762
67981W        W36375  38.848  34.132   3.575
67982W        W36376  44.710  18.675  10.968
67983W        W36377   2.432  27.072   3.962
67984W        W36378   8.598  18.142  10.791
67985W        W36379  43.578  21.970  14.740
67986W        W36380  38.651  40.098   3.754
67987W        W36381   5.293  28.365   0.490
67988W        W36382   9.367  21.844   0.741
67989W        W36383  12.521  36.640  13.477
67990W        W36384  15.061  43.340  13.063
67991W        W36385   5.653  40.833   1.264
67992W        W36386  15.836   6.018   1.340
67993W        W36387   3.523  36.463  12.001
67994W        W36388   8.633  28.462   0.408
67995W        W36389  44.891   7.093   3.136
67996W        W36390  29.760  37.512   3.266
67997W        W36391   6.184  27.242   0.915
67998W        W36392  38.510  32.145   2.410
67999W        W36393  28.907  28.183   2.247
68000W        W36394  44.896  37.239   4.085
68001W        W36395  10.679  41.186   0.756
68002W        W36396   8.333   7.117  14.405
68003W        W36397  44.292  42.016  14.433
68004W        W36398  27.142  17.580   1.144
68005W        W36399  19.064  22.673  10.936
68006W        W36400  39.836  19.812   0.447
68007W        W36401   5.340   1.028   4.292
68008W        W36402  27.706  34.014  11.905
68009W        W36403  23.213   6.313   2.109
68010W        W36404  40.774  28.539   4.853
68011W        W36405  40.911   6.943   0.736
68012W        W36406  26.255  32.483  14.971
68013W        W36407  14.639  10.155   4.609
68014W        W36408   4.771  40.892   3.927
68015W        W36409  36.823  25.476   4.789
68016W        W36410  37.856  12.926  14.162
68017W        W36411  35.869  16.651   0.296
68018W        W36412   6.527  39.352  14.923
68019W        W36413   6.202  15.452  11.162
68020W        W36414  21.935  28.998   3.331
68021W        W36415  11.483  38.500   3.278
68022W        W36416  42.330   3.460   3.312
68023W        W36417  20.454  39.011   0.346
68024W        W36418   8.845  43.900  10.798
68025W        W36419  43.370   0.580   2.799
68026W        W36420  11.079  16.282  14.435
68027W        W36421  10.226   1.135   3.745
68028W        W36422  42.515  41.351   4.868
68029W        W36423  10.013  44.734   0.024
68030W        W36424  10.904   7.824  12.016
68031W        W36425   2.469  23.171  10.837
68032W        W36426   8.430  42.489  12.465
68033W        W36427  32.159   9.167   4.328
68034W        W36428  34.218   0.381  10.650
68035W        W36429  24.692  44.704   9.804
68036W        W36430  15.580  13.092   3.658
68037W        W36431  23.771  17.049  13.388
68038W        W36432  35.352  16.746  13.047
68039W        W36433  29.585  12.838   3.116
68040W        W36434  16.740  19.018   0.441
68041W        W36435  14.279  44.772   4.683
68042W        W36436  37.377  26.418   0.450
68043W        W36437  29.729   2.252  11.141
68044W        W36438  43.957  34.380   1.567
68045W        W36439  22.632   4.450  14.999
68046W        W36440  27.440  11.416   1.724
68047W        W36441  17.657  40.122   2.125
68048W        W36442  29.904   1.702  13.508
68049W        W36443  12.562   9.631  13.637
68050W        W36444  24.228  25.472   2.789
68051W        W36445  21.463  38.998  14.897
68052W        W36446  28.906  35.295   0.200
68053W        W36447   0.493   4.742  11.030
68054W        W36448  37.933  35.647  13.361
68055W        W36449  26.676  15.006  14.328
68056W        W36450   1.489  35.874  11.004
68057W        W36451  13.157  22.628   2.405
68058W        W36452  20.379  43.949   4.928
68059W        W36453  11.409  38.245   2.280
68060W        W36454  28.769   5.202   3.283
68061W        W36455  14.816  34.478   3.792
68062W        W36456  12.180  32.078   2.042
68063W        W36457   0.656  14.155   4.305
68064W        W36458  19.970  40.565  14.322
68065W        W36459  12.958  21.896   0.297
68066W        W36460   6.120  28.544   9.995
68067W        W36461  31.719  26.756  11.672
68068W        W36462   8.706  20.098   1.659
68069W        W36463  13.425  17.057   1.904
68070W        W36464   8.330  44.572   3.147
68071W        W36465  39.057  32.010   0.766
68072W        W36466   0.887  25.253  14.490
68073W        W36467  11.587  10.591   2.797
68074W        W36468  26.047  14.548  13.350
68075W        W36469  42.300   3.722   0.215
68076W        W36470   2.019  32.312  14.400
68077W        W36471   1.094   7.989  12.479
68078W        W36472   2.283  11.644  12.172
68079W        W36473  11.099   3.946  14.769
68080W        W36474  12.175   4.643  11.372
68081W        W36475  18.309  25.646  14.450
68082W        W36476   8.668  27.748  12.145
68083W        W36477  11.418  41.190  13.942
68084W        W36478  10.296   7.384  14.070
68085W        W36479   2.808  10.834  10.905
68086W        W36480  17.369  42.508  12.332
68087W        W36481  23.034   5.828   4.490
68088W        W36482  11.558   1.786  12.535
68089W        W36483  14.659  31.683   4.918
68090W        W36484  41.371   5.517  11.973
68091W        W36485  44.400   0.384  11.252
68092W        W36486  29.616  44.791  13.775
68093W        W36487  30.937  38.537  13.091
68094W        W36488  23.712  41.367   1.877
68095W        W36489  11.386   9.674  12.877
68096W        W36490   2.876  39.626   0.289
68097W        W36491  27.611  40.912   4.011
68098W        W36492  43.985  34.942  11.911
68099W        W36493   6.242   2.410   0.833
68100W        W36494  29.554  44.220   3.640
68101W        W36495  12.717  12.744  13.624
68102W        W36496   9.186  13.098  10.630
68103W        W36497  42.333  43.306  12.464
68104W        W36498  38.268  29.045  14.582
68105W        W36499   3.225  18.317  11.624
68106W        W36500  18.744  14.220   3.846
68107W        W36501  36.111  38.137   4.560
68108W        W36502  14.858  31.507  14.729
68109W        W36503  31.927  34.683   1.825
68110W        W36504   3.478  12.835  11.181
68111W        W36505  30.826  43.186  13.320
68112W        W36506  18.444  38.046  14.480
68113W        W36507  20.035  39.818  11.192
68114W        W36508  30.912  37.764   2.601
68115W        W36509  27.753   8.329   4.250
68116W        W36510  22.522  44.623  10.561
68117W        W36511  23.289  39.973   2.359
68118W        W36512  21.760  35.486   1.425
68119W        W36513  43.517   1.523  11.038
68120W        W36514  40.819   3.995   4.233
68121W        W36515  24.634  18.651  13.359
68122W        W36516   0.475  38.857  12.914
68123W        W36517  10.625  35.996   3.845
68124W        W36518  21.913   2.625  13.745
68125W        W36519  43.982  40.067  14.384
68126W        W36520  38.338   4.793   4.695
68127W        W36521  42.925   4.569   2.798
68128W        W36522  23.535   4.618  12.497
68129W        W36523  15.887  32.863   4.178
68130W        W36524  35.044  18.582  14.482
68131W        W36525  42.116  19.110  12.906
68132W        W36526  18.779   2.996  10.463
68133W        W36527   2.770  38.244   1.397
68134W        W36528   3.053  32.566  12.618
68135W        W36529  41.891  16.366  12.884
68136W        W36530  35.621  30.972  14.409
68137W        W36531  14.798   6.504  13.673
68138W        W36532  41.295  18.754  12.984
68139W        W36533  32.408  40.910   3.308
68140W        W36534  13.310  30.488  14.890
68141W        W36535  38.377  25.688  14.446
68142W        W36536  40.929   5.449   0.942
68143W        W36537   8.894  34.478   3.074
68144W        W36538  24.500  36.829   1.640
68145W        W36539  30.416   7.450   1.285
68146W        W36540  11.995  39.630  14.844
68147W        W36541  27.503   4.749   4.461
68148W        W36542  21.914  31.739   4.054
68149W        W36543  34.506  16.476  14.296
68150W        W36544  21.202   1.551   0.324
68151W        W36545   6.160   6.833  13.923
68152W        W36546  42.102  35.010   1.319
68153W        W36547  13.146  41.816  14.967
68154W        W36548  34.201  36.057   0.500
68155W        W36549   6.594  27.271  12.891
68156W        W36550  44.271  13.212   4.222
68157W        W36551  43.721  34.952  10.492
68158W        W36552   7.344  19.441  13.639
68159W        W36553  24.788  37.744   2.736
68160W        W36554  34.743  34.732  12.544
68161W        W36555  26.678  33.537  11.231
68162W        W36556  41.668  23.270  14.536
68163W        W36557  36.821  13.414  11.006
68164W        W36558  17.790  44.489  11.105
68165W        W36559  39.671  32.773  11.175
68166W        W36560  14.220  37.014  12.958
68167W        W36561  36.115   0.335   4.533
68168W        W36562  16.884  34.870   0.940
68169W        W36563  33.939  17.706  14.448
68170W        W36564  27.331  14.210   2.675
68171W        W36565  34.972  33.065   4.358
68172W        W36566  29.213  10.069  11.073
68173W        W36567  11.722  38.980   1.366
68174W        W36568  34.023  44.096  11.099
68175W        W36569  32.891   4.244  13.862
68176W        W36570  40.325  29.597   1.776
68177W        W36571  34.984  27.449   0.804
68178W        W36572  18.042  11.242  11.040
68179W        W36573  30.625  30.850  10.753
68180W        W36574   3.885  44.264   4.295
68181W        W36575  11.713  30.685  12.894
68182W        W36576   0.885  33.353  10.582
68183W        W36577   8.625   8.159   2.305
68184W        W36578  16.078   6.849  14.858
68185W        W36579  10.032  39.908  12.648
68186W        W36580  22.829  33.566   1.822
68187W        W36581  36.573   9.084  13.984
68188W        W36582  23.433  43.737  11.203
68189W        W36583  39.625   6.065   2.866
68190W        W36584  13.719  43.854   3.884
68191W        W36585  40.591  13.748   4.275
68192W        W36586  20.045  31.999   1.011
68193W        W36587  28.275  25.284  11.549
68194W        W36588  42.064  41.780  14.315
68195W        W36589   0.310  25.011  13.695
68196W        W36590  10.256  22.642  10.440
68197W        W36591  17.660  33.070   1.749
68198W        W36592   7.894   2.840   3.390
68199W        W36593   9.449  29.407  12.608
68200W        W36594  41.014  26.948  14.395
68201W        W36595  34.106  15.047  11.089
68202W        W36596  43.455  10.814   3.726
68203W        W36597  39.071  40.428  13.717
68204W        W36598   3.240   4.306   0.886
68205W        W36599  43.860  39.310  13.500
68206W        W36600  12.488  16.431  14.853
68207W        W36601  20.482  18.216   4.109
68208W        W36602  33.345  13.924  10.439
68209W        W36603   7.351  12.969  12.542
68210W        W36604  36.503  24.013  10.670
68211W        W36605  37.611  29.524   1.256
68212W        W36606  20.959  28.619   5.075
68213W        W36607  33.429  24.974  11.477
68214W        W36608  22.582  30.390   2.692
68215W        W36609  36.431  39.973   3.299
68216W        W36610  32.786  28.045   1.683
68217W        W36611  44.705   1.972  13.564
68218W        W36612  25.040  27.077  11.567
68219W        W36613  10.643  37.483  12.452
68220W        W36614   1.927  19.865   3.202
68221W        W36615  34.378  38.686  14.724
68222W        W36616   4.753  24.572   1.884
68223W        W36617  37.452  27.301  13.435
68224W        W36618   2.282  17.734  13.368
68225W        W36619  38.860  43.047   0.798
68226W        W36620   3.956  21.506  14.949
68227W        W36621  38.557  23.237  13.072
68228W        W36622  25.526  36.565   2.348
68229W        W36623  35.371  16.833  14.946
68230W        W36624  30.782  11.115  11.143
68231W        W36625  27.330  10.861  13.043
68232W        W36626   0.968   7.369   1.611
68233W        W36627  33.372  26.702  11.055
68234W        W36628  26.567  19.097  14.855
68235W        W36629  11.748  40.920   4.873
68236W        W36630   1.267  30.731  12.383
68237W        W36631   7.502  26.457  13.963
68238W        W36632  44.898  33.663   3.392
68239W        W36633   3.036  29.427  12.422
68240W        W36634  16.079  32.142   3.687
68241W        W36635  13.548  30.401   1.781
68242W        W36636  28.442   8.865  13.812
68243W        W36637  36.003  34.031  11.184
68244W        W36638  35.855  41.917  14.448
68245W        W36639   1.150  25.479   0.981
68246W        W36640  29.848  33.653   3.165
68247W        W36641  41.015  27.201   2.055
68248W        W36642  12.049   9.854   3.334
68249W        W36643  36.991  30.021   4.382
68250W        W36644  19.855  28.383  14.853
68251W        W36645  13.431  38.012  13.294
68252W        W36646   5.771  20.844   3.773
68253W        W36647   0.296  40.895   3.195
68254W        W36648   3.101  12.917  10.168
68255W        W36649  32.377   0.827   2.899
68256W        W36650  33.033  33.065  13.583
68257W        W36651  11.019   5.378  14.892
68258W        W36652   6.143   2.157  14.313
68259W        W36653  28.702   7.396  12.048
68260W        W36654  28.942   0.749   1.729
68261W        W36655   5.368   7.336   3.277
68262W        W36656  41.158  10.388   2.356
68263W        W36657  12.339   2.664   4.409
68264W        W36658  44.515  42.974   4.627
68265W        W36659   9.190  31.008   2.201
68266W        W36660  18.276  11.636  12.964
68267W        W36661   2.177  27.349   1.683
68268W        W36662  15.722  18.075   2.279
68269W        W36663   0.369  33.857   3.579
68270W        W36664  26.231  15.584  14.496
68271W        W36665  20.990  21.051  13.525
68272W        W36666  11.990  10.834  11.942
68273W        W36667  40.418  28.833  13.511
68274W        W36668  28.019  18.924  11.570
68275W        W36669  34.363  35.145   4.231
68276W        W36670  43.725  28.956  10.521
68277W        W36671  17.568  40.377  12.973
68278W        W36672   8.739  19.816   0.897
68279W        W36673  28.608  30.595   0.431
68280W        W36674  28.685  12.537  14.871
68281W        W36675   9.283  12.162   3.814
68282W        W36676   0.301  10.226   2.307
68283W        W36677  10.196   7.740  12.376
68284W        W36678  22.497   5.686  12.057
68285W        W36679  35.519  35.557   4.347
68286W        W36680   6.869  28.228  12.381
68287W        W36681  14.855  25.699   2.941
68288W        W36682   2.858  23.089   4.859
68289W        W36683   7.629  23.008  13.952
68290W        W36684   1.203   2.957  11.521
68291W        W36685   5.757  25.068  14.781
68292W        W36686  44.235   4.201   0.953
68293W        W36687  27.553  35.897  12.802
68294W        W36688  20.808  44.748  14.928
68295W        W36689   7.924  42.822  11.340
68296W        W36690  20.354  20.725   1.421
68297W        W36691   5.875   2.020   4.672
68298W        W36692  22.619  15.583  10.144
68299W        W36693  32.567  27.561   0.088
68300W        W36694  34.575  15.672  13.102
68301W        W36695  28.018  30.762   1.389
68302W        W36696  11.413  24.053   4.292
68303W        W36697  12.265  44.626  14.882
68304W        W36698  21.520  41.900   4.484
68305W        W36699   2.804  12.248   4.045
68306W        W36700  39.366  44.176  13.634
68307W        W36701  13.279  36.137  11.727
68308W        W36702  38.130   2.234   0.510
68309W        W36703  18.497  41.709   1.779
68310W        W36704  35.527  21.430   1.715
68311W        W36705  32.026   5.808   0.555
68312W        W36706  15.722  14.257   3.379
68313W        W36707   0.305  18.031   0.617
68314W        W36708   3.706  12.695   0.622
68315W        W36709  23.983   0.554  11.239
68316W        W36710   7.619   7.510   1.151
68317W        W36711  34.381  34.882   3.065
68318W        W36712  25.686   0.024   0.012
68319W        W36713  32.283  43.885   2.269
68320W        W36714  20.158  39.911   3.094
68321W        W36715  28.955  28.916   3.661
68322W        W36716  27.145  16.587  13.859
68323W        W36717  18.681  19.738   2.326
68324W        W36718  38.547  13.782   2.395
68325W        W36719   5.768  41.423  10.633
68326W        W36720  40.378  38.832   4.652
68327W        W36721  41.782  18.022   3.175
68328W        W36722  27.727  29.565  10.763
68329W        W36723  13.684  22.816   0.832
68330W        W36724  20.225   8.347   4.045
68331W        W36725  43.118  40.244  11.345
68332W        W36726  30.340  27.531  11.162
68333W        W36727  17.355  39.118  12.820
68334W        W36728   9.785  30.156   2.367
68335W        W36729  32.987   7.193   0.424
68336W        W36730  40.340  24.235  11.463
68337W        W36731  38.857  23.117   1.830
68338W        W36732  31.664  13.782  14.010
68339W        W36733  16.656  44.099  13.353
68340W        W36734  37.393  20.691  14.339
68341W        W36735   3.386   7.278  13.880
68342W        W36736  31.902  13.748   0.708
68343W        W36737   2.405   0.357   4.635
68344W        W36738  15.659   9.849  10.088
68345W        W36739  10.739  34.982   4.832
68346W        W36740   1.608  38.667  11.478
68347W        W36741  38.045  41.505  14.337
68348W        W36742  26.977  26.405  14.539
68349W        W36743   5.912  39.752  14.405
68350W        W36744  15.113  10.416   2.671
68351W        W36745  42.004   0.288  13.280
68352W        W36746   0.046  31.028   0.522
68353W        W36747  39.630  30.467   0.410
68354W        W36748   9.372   2.759  10.979
68355W        W36749  41.520  20.248  10.437
68356W        W36750  23.605  16.754  12.018
68357W        W36751  24.508  27.124   1.776
68358W        W36752  40.559  30.036  12.565
68359W        W36753  30.411  22.901  14.370
68360W        W36754  38.898  15.332  12.532
68361W        W36755  30.593  42.249   3.685
68362W        W36756  40.591   4.634   2.472
68363W        W36757  38.943  19.727  13.874
68364W        W36758  13.189  42.366  14.160
68365W        W36759  35.110  39.066  13.962
68366W        W36760  41.856  34.535   1.169
68367W        W36761  31.656  28.008  11.133
68368W        W36762  28.355  44.208   0.470
68369W        W36763  43.932  33.887   1.920
68370W        W36764  42.284  40.449  14.934
68371W        W36765   1.749  15.314  10.392
68372W        W36766  44.816  34.115   0.387
68373W        W36767  25.022  35.065   0.440
68374W        W36768  16.950  28.968   4.955
68375W        W36769  39.099  36.533  14.314
68376W        W36770  11.263  35.833  14.032
68377W        W36771  35.240  37.110  12.081
68378W        W36772  40.242  44.403  13.196
68379W        W36773  36.479  24.065  12.627
68380W        W36774  33.956  14.698  11.754
68381W        W36775  18.069  44.963   4.304
68382W        W36776  44.211   7.860  13.828
68383W        W36777  29.538  20.761  13.844
68384W        W36778  21.128  23.222  11.699
68385W        W36779  25.947  40.488   0.373
68386W        W36780   2.469   7.383   1.734
68387W        W36781  38.601   1.420  14.633
68388W        W36782  26.119  18.255   4.637
68389W        W36783  42.959   3.491   1.367
68390W        W36784  12.994  42.964  11.607
68391W        W36785   7.655  37.104  13.771
68392W        W36786  16.302  30.093   0.383
68393W        W36787  13.625   5.902   5.472
68394W        W36788  28.185  20.988  14.249
68395W        W36789  44.739   8.357   2.451
68396W        W36790  20.697  31.088   3.756
68397W        W36791  43.511  20.024  12.115
68398W        W36792  22.372  37.368  11.539
68399W        W36793   9.011   4.371  10.211
68400W        W36794  39.393  44.692   4.928
68401W        W36795   8.628  31.006   3.066
68402W        W36796  43.570  22.825  13.487
68403W        W36797   6.368  36.325  11.574
68404W        W36798  36.361  26.681  11.617
68405W        W36799  28.227  43.267   3.213
68406W        W36800  20.080  19.578  13.607
68407W        W36801  41.038  25.527  14.607
68408W        W36802  33.133  40.070  14.775
68409W        W36803   2.527  21.995  13.094
68410W        W36804  30.977  17.242  14.894
68411W        W36805  24.984  16.305  11.459
68412W        W36806  18.273   6.771   1.329
68413W        W36807  29.719  28.643  12.918
68414W        W36808  22.582  17.085  12.993
68415W        W36809   9.623  13.285  11.910
68416W        W36810  23.649  25.032   4.340
68417W        W36811  29.105  25.530   1.900
68418W        W36812  38.042  33.629   0.877
68419W        W36813  22.997  21.007   3.826
68420W        W36814   7.247   6.109   0.685
68421W        W36815  34.216  31.581   3.686
68422W        W36816  29.863   6.216   1.340
68423W        W36817   5.130  35.728  11.033
68424W        W36818  26.676   8.877  13.351
68425W        W36819  25.723   7.337  14.979
68426W        W36820  14.555   8.635   2.336
68427W        W36821  36.931  28.677  14.254
68428W        W36822  41.301  21.677  13.140
68429W        W36823  10.776   4.014   1.146
68430W        W36824  37.020  28.434  14.720
68431W        W36825  18.969  41.825   2.961
68432W        W36826  31.485  32.615   4.633
68433W        W36827  11.334  35.306  14.436
68434W        W36828  10.120  11.232  13.589
68435W        W36829  11.384  17.043  13.336
68436W        W36830  29.311  17.343  14.034
68437W        W36831  39.376  12.249  12.524
68438W        W36832  29.954  28.605  14.921
68439W        W36833  14.754  26.412  14.980
68440W        W36834  17.106   1.342  12.313
68441W        W36835   2.567  40.594   2.827
68442W        W36836  29.551  36.387   2.796
68443W        W36837   5.264  20.065  10.659
68444W        W36838   0.836  33.078  12.155
68445W        W36839  39.143  41.753  12.450
68446W        W36840  13.122  25.358   2.099
68447W        W36841   9.100  42.992  12.210
68448W        W36842   4.779  24.034  10.111
68449W        W36843  18.257  27.659   1.643
68450W        W36844  42.006   2.118  12.845
68451W        W36845  34.686   3.000   0.381
68452W        W36846  30.433   5.275   0.055
68453W        W36847   3.392  42.823   1.890
68454W        W36848   9.648  42.852  11.150
68455W        W36849   3.525  21.498   4.814
68456W        W36850  40.979  43.415  11.128
68457W        W36851  26.247   6.692   3.086
68458W        W36852  40.292   6.404   1.473
68459W        W36853  21.477  38.850   2.192
68460W        W36854  20.808  15.064   0.438
68461W        W36855  33.879  25.043   0.696
68462W        W36856  12.279  38.066  14.538
68463W        W36857  13.722  11.048  14.984
68464W        W36858   7.885   5.760   0.459
68465W        W36859  12.497  41.807  14.405
68466W        W36860  19.391   6.371   1.043
68467W        W36861  29.545  35.128  10.777
68468W        W36862  23.580  27.029  13.798
68469W        W36863  42.265  44.703   3.807
68470W        W36864  40.633  22.284  14.744
68471W        W36865  36.319   9.709  12.880
68472W        W36866  26.644  42.312   3.730
68473W        W36867  15.637  30.186   1.749
68474W        W36868  32.077  44.946   4.033
68475W        W36869  14.585  24.003  12.992
68476W        W36870  33.956  16.208   2.640
68477W        W36871   6.702  18.316  14.270
68478W        W36872  10.826  17.800  13.715
68479W        W36873  16.891  27.031  12.418
68480W        W36874  19.545   2.936   4.365
68481W        W36875   8.622  15.723  13.344
68482W        W36876  39.271   2.840   4.450
68483W        W36877   5.333  26.456   1.271
68484W        W36878  16.679  40.822   2.871
68485W        W36879  42.940  39.660   5.163
68486W        W36880  39.617  38.583  11.879
68487W        W36881  26.975   1.445   2.000
68488W        W36882  39.157  21.733  14.932
68489W        W36883  13.324  25.432  10.829
68490W        W36884  42.754  17.820  13.115
68491W        W36885  22.136  29.035  13.016
68492W        W36886  33.792  28.080  12.517
68493W        W36887  42.778  39.918   4.653
68494W        W36888  11.953  22.545   4.113
68495W        W36889  42.050  22.891  11.837
68496W        W36890   5.280  26.414  14.789
68497W        W36891  23.581  15.777  11.768
68498W        W36892  13.848  18.577   1.595
68499W        W36893  39.961  33.635  13.865
68500W        W36894  34.400   8.381   0.755
68501W        W36895  22.688  12.072   3.096
68502W        W36896   5.429  40.609  13.461
68503W        W36897  41.136  24.052   4.681
68504W        W36898  35.861  36.024  11.876
68505W        W36899  35.489   1.499   1.985
68506W        W36900  40.742  26.366  12.572
68507W        W36901  40.313  32.518  14.543
68508W        W36902  22.405   3.310  10.141
68509W        W36903   8.681   2.782  11.558
68510W        W36904  33.069  44.035   1.247
68511W        W36905  22.545  24.279  11.196
68512W        W36906  20.048  36.859   4.515
68513W        W36907  36.432  43.293  14.509
68514W        W36908  25.390  39.581  10.846
68515W        W36909   8.735  18.501  14.307
68516W        W36910  16.345   5.328  14.611
68517W        W36911  28.959   9.852  13.591
68518W        W36912  32.025  40.895  13.499
68519W        W36913   1.064  31.460   2.694
68520W        W36914  21.454  25.158   4.222
68521W        W36915  26.680   3.462   1.395
68522W        W36916  11.651   0.214   0.948
68523W        W36917  43.376  12.598   4.300
68524W        W36918  15.848  15.795   4.137
68525W        W36919  42.995  34.686   3.789
68526W        W36920  31.554  24.686   1.104
68527W        W36921  17.570   2.898   1.406
68528W        W36922  33.518   1.996   4.099
68529W        W36923  38.080   6.632  14.890
68530W        W36924  23.632  27.057   3.116
68531W        W36925   0.527   7.165  11.108
68532W        W36926  15.806  13.954  13.021
68533W        W36927  38.638  18.518  11.453
68534W        W36928  18.553  20.616  13.478
68535W        W36929  23.143  44.693  11.928
68536W        W36930  23.872  33.841   1.774
68537W        W36931  19.071   2.789   2.360
68538W        W36932  10.185  27.314   5.072
68539W        W36933  22.209  10.617  11.097
68540W        W36934   9.082  34.819   2.737
68541W        W36935  11.550  14.142   1.016
68542W        W36936  43.579  30.134  13.832
68543W        W36937   4.239  37.095   1.337
68544W        W36938  30.904   6.982  11.562
68545W        W36939  39.026  29.138   0.279
68546W        W36940  22.590  18.509  11.233
68547W        W36941  30.986   4.321  11.925
68548W        W36942  33.733  22.476  13.540
68549W        W36943   6.778  22.666   0.520
68550W        W36944  11.234  30.636  14.821
68551W        W36945  21.479   2.175  13.086
68552W        W36946  33.863  32.084  12.369
68553W        W36947  32.179  14.332   2.925
68554W        W36948  36.655   8.913   2.425
68555W        W36949  28.749  43.334   3.267
68556W        W36950  11.343  35.190  12.557
68557W        W36951  39.387   2.361  12.919
68558W        W36952  11.334  25.239  14.464
68559W        W36953  44.587   5.876   0.305
68560W        W36954  10.136  40.031  11.305
68561W        W36955  37.447  22.032  14.749
68562W        W36956  13.408  24.682   3.095
68563W        W36957   7.951  29.722  14.873
68564W        W36958  37.541  27.749   4.297
68565W        W36959  32.885  23.684  11.465
68566W        W36960  27.151  25.573   4.883
68567W        W36961  23.525  16.078   4.691
68568W        W36962  36.201   1.225   0.809
68569W        W36963   3.811  40.613   0.270
68570W        W36964  44.694  21.459  10.887
68571W        W36965   9.228  39.410   3.387
68572W        W36966  17.206  43.474   1.348
68573W        W36967  16.642  17.845  13.107
68574W        W36968  18.264  13.352   2.892
68575W        W36969   0.049  41.307  14.836
68576W        W36970  12.063  10.756  10.659
68577W        W36971  10.363  26.910   2.635
68578W        W36972  41.994  13.035  10.758
68579W        W36973  26.464  25.144   1.279
68580W        W36974  21.268  31.077   4.666
68581W        W36975  44.194  23.579  14.779
68582W        W36976  22.339  31.562   4.406
68583W        W36977  44.434  26.513   0.448
68584W        W36978  40.863  10.605  11.986
68585W        W36979  10.776  39.742   2.306
68586W        W36980  12.590  31.335   2.130
68587W        W36981  44.955  27.694  11.910
68588W        W36982   0.487  37.541   0.831
68589W        W36983  24.325   5.838  10.250
68590W        W36984   3.693  12.341   4.104
68591W        W36985  34.944   3.110  13.139
68592W        W36986  38.472  38.302   4.029
68593W        W36987   5.381  15.275  11.701
68594W        W36988  23.506  13.898  10.350
68595W        W36989  28.991  43.822  14.985
68596W        W36990   1.418  38.978   4.167
68597W        W36991   4.834  20.513  14.115
68598W        W36992  16.278  10.716   1.822
68599W        W36993  43.236   8.811   0.295
68600W        W36994   6.189   0.894   0.828
68601W        W36995   5.977  34.675   1.199
68602W        W36996  37.851  33.145   4.342
68603W        W36997   3.867  21.094  10.161
68604W        W36998  26.237   7.510   0.860
68605W        W36999  36.976  27.268   4.252
68606W        W37000  37.615  41.468  11.442
68607W        W37001   8.765   0.828   0.682
68608W        W37002  35.641   2.629   0.492
68609W        W37003   8.192   1.415   0.727
68610W        W37004   7.442  25.725   4.955
68611W        W37005  30.980  40.534   2.253
68612W        W37006   8.841  17.819   4.691
68613W        W37007   6.876  39.102  12.393
68614W        W37008  40.949  35.665  14.263
68615W        W37009  26.747  42.055   2.282
68616W        W37010   8.280  15.147  12.800
68617W        W37011  32.164  29.029   0.858
68618W        W37012  25.321  35.015   4.192
68619W        W37013   6.975  21.584  14.543
68620W        W37014  21.547  31.585  13.020
68621W        W37015  26.910   4.945  12.047
68622W        W37016  40.454  40.606  10.827
68623W        W37017  43.809  25.427   2.732
68624W        W37018  12.800  11.199   3.272
68625W        W37019  30.266   9.829  14.370
68626W        W37020   9.128  15.873  12.155
68627W        W37021  39.292  25.079   0.033
68628W        W37022   9.741  40.545  12.097
68629W        W37023  18.979  19.139   0.734
68630W        W37024  18.018  12.834  13.495
68631W        W37025  20.706  29.651  10.486
68632W        W37026  38.940  40.371  12.794
68633W        W37027  10.159  44.653   3.606
68634W        W37028  13.800  40.928  14.971
68635W        W37029  13.024  28.641   0.997
68636W        W37030  25.727  18.966   2.512
68637W        W37031   5.544  13.935   2.261
68638W        W37032  22.945  14.254   4.008
68639W        W37033   6.743  15.738   0.720
68640W        W37034  41.779  19.653   0.336
68641W        W37035   7.159  38.674  12.497
68642W        W37036  25.496   9.164  12.966
68643W        W37037   0.781  36.100  13.159
68644W        W37038   0.636  32.128  12.481
68645W        W37039  17.619  36.373  13.631
68646W        W37040  22.405  36.459  11.208
68647W        W37041   0.644  22.962   3.127
68648W        W37042  22.715  35.367  14.322
68649W        W37043  32.620  37.372  10.685
68650W        W37044   6.288   7.920  10.355
68651W        W37045  13.901  13.107   0.764
68652W        W37046   5.840  14.400   2.389
68653W        W37047  36.703   1.328   0.827
68654W        W37048  17.990  37.683  11.805
68655W        W37049   7.302  30.901  14.439
68656W        W37050  44.871  24.976  14.465
68657W        W37051   1.137  11.899   0.291
68658W        W37052  34.888  16.097  14.304
68659W        W37053   1.868   7.327  11.563
68660W        W37054  10.103  18.573  10.671
68661W        W37055  40.941  29.934  10.786
68662W        W37056  43.219  14.718  12.292
68663W        W37057  20.017  12.056   1.681
68664W        W37058   4.350  30.439   0.336
68665W        W37059  16.068   3.914   1.323
68666W        W37060  10.940   6.252  11.932
68667W        W37061  38.593  33.549  13.987
68668W        W37062  34.827  11.633   1.371
68669W        W37063  28.607  40.077   3.371
68670W        W37064  19.163  32.008  12.085
68671W        W37065  31.973  19.037   4.726
68672W        W37066  21.072  39.406  14.356
68673W        W37067   5.892  26.475   3.111
68674W        W37068   8.572  15.189   1.856
68675W        W37069  41.614  19.744  11.681
68676W        W37070  26.843  21.949  14.447
68677W        W37071   2.981  38.802   4.138
68678W        W37072  34.044  27.703   3.284
68679W        W37073  40.158  22.983   0.784
68680W        W37074   0.218  40.488   4.208
68681W        W37075  31.644   4.674  11.520
68682W        W37076  11.371  43.262   0.761
68683W        W37077  34.457   6.793  14.795
68684W        W37078   5.098  28.683  11.432
68685W        W37079  29.146  12.612   4.060
68686W        W37080   2.854  12.762  14.006
68687W        W37081  25.667  39.337   0.484
68688W        W37082  24.075  25.701  12.199
68689W        W37083  21.472  43.955  12.021
68690W        W37084  14.884   5.881   1.522
68691W        W37085  20.289  24.537  12.355
68692W        W37086  29.352   6.607   2.000
68693W        W37087  31.075  26.648  12.934
68694W        W37088   0.502  44.000   2.289
68695W        W37089   9.944  14.897  14.413
68696W        W37090  30.387  15.029   1.988
68697W        W37091  29.287  16.810  12.475
68698W        W37092  41.627  23.014   4.753
68699W        W37093  34.448  30.212  11.221
68700W        W37094  13.059  32.468  13.915
68701W        W37095  11.474  15.984   2.154
68702W        W37096  33.864  35.124   4.143
68703W        W37097  35.354   1.474  11.169
68704W        W37098  11.869  17.248   4.089
68705W        W37099   4.870  36.539   4.432
68706W        W37100   6.986  21.101  13.849
68707W        W37101  39.369   3.555   3.159
68708W        W37102   5.702   5.984   4.088
68709W        W37103  21.209   5.349  13.632
68710W        W37104  31.702  32.712  10.839
68711W        W37105   9.294  40.359   0.061
68712W        W37106  15.856  36.383  10.951
68713W        W37107  28.428  30.042  14.143
68714W        W37108  13.329  40.169   4.184
68715W        W37109   7.460  18.657  12.982
68716W        W37110  12.742  38.888   2.158
68717W        W37111   4.772  44.003   3.498
68718W        W37112  33.119  42.001  11.594
68719W        W37113   2.475  32.565   4.640
68720W        W37114  42.459  20.204   1.023
68721W        W37115   0.418  12.772  11.311
68722W        W37116  21.244  33.652  12.339
68723W        W37117   7.567  11.311   0.407
68724W        W37118  36.125  25.728  11.399
68725W        W37119  44.615  39.204   2.224
68726W        W37120  22.008  13.672  14.431
68727W        W37121  34.436  14.237   4.361
68728W        W37122  30.436  16.495  14.461
68729W        W37123  24.524  35.018   4.689
68730W        W37124  42.314  34.566  12.870
68731W        W37125  19.733  17.109   0.345
68732W        W37126  16.748  12.105   3.738
68733W        W37127  30.945  20.554   3.308
68734W        W37128   6.956  37.540  14.343
68735W        W37129  42.841   9.253   0.980
68736W        W37130  36.358   0.740  12.538
68737W        W37131  38.294  36.550  11.465
68738W        W37132   6.138  31.405  13.862
68739W        W37133   0.746  36.468  10.964
68740W        W37134   2.473  42.511   4.745
68741W        W37135  18.105  40.978  10.736
68742W        W37136   1.302  38.298  12.104
68743W        W37137  35.593  35.049  10.932
68744W        W37138  19.461  15.671  12.458
68745W        W37139  40.517  18.590  11.674
68746W        W37140  13.730  23.455  10.569
68747W        W37141  13.280  19.764   1.377
68748W        W37142  21.690  26.600  12.042
68749W        W37143  27.473  39.972   3.750
68750W        W37144  11.670  32.124  14.086
68751W        W37145  39.545   6.479  13.010
68752W        W37146  17.545  24.639  14.603
68753W        W37147  19.096  35.370  11.498
68754W        W37148   9.642  11.791   0.993
68755W        W37149   3.745   9.397  12.108
68756W        W37150  17.021  37.502   2.271
68757W        W37151  23.815  38.864   1.647
68758W        W37152  40.042   5.923  14.236
68759W        W37153  16.708   4.025   4.116
68760W        W37154  27.670  10.141  14.412
68761W        W37155  24.710  26.467   0.418
68762W        W37156  33.500   6.916  14.912
68763W        W37157  24.795  39.314  11.452
68764W        W37158  29.871  14.170   4.229
68765W        W37159  16.081  43.125   4.390
68766W        W37160  32.367   6.876   2.416
68767W        W37161   9.223   2.922   1.911
68768W        W37162  38.823   7.681  13.428
68769W        W37163  15.005  32.129   1.039
68770W        W37164   0.912  21.299   0.503
68771W        W37165  21.980  38.598   1.750
68772W        W37166   3.847   3.849   5.028
68773W        W37167   3.364  30.591   4.922
68774W        W37168  42.340  36.398   2.889
68775W        W37169  44.844  38.050   4.633
68776W        W37170  21.126  19.590   3.200
68777W        W37171  14.187  24.137  10.691
68778W        W37172  16.683  20.629   2.685
68779W        W37173  25.223   1.834  13.971
68780W        W37174  21.088  33.864   2.490
68781W        W37175  21.626  39.507  14.999
68782W        W37176  24.687  10.222  12.578
68783W        W37177  37.600  20.433  14.766
68784W        W37178   1.763  10.917  14.871
68785W        W37179  34.572  34.447  11.396
68786W        W37180  10.304  35.948   0.501
68787W        W37181  15.229   7.218  12.508
68788W        W37182  25.571  25.139  12.856
68789W        W37183  33.418  28.875  12.075
68790W        W37184  41.345  13.186   2.302
68791W        W37185   3.333  23.204  14.397
68792W        W37186  18.795  24.619  13.421
68793W        W37187  36.621  27.035  14.790
68794W        W37188  17.256  31.913  13.985
68795W        W37189  16.316  25.874   1.425
68796W        W37190  16.670  11.170   4.592
68797W        W37191   0.521  26.989  14.828
68798W        W37192   6.259  41.250  10.749
68799W        W37193  23.282  33.039  12.825
68800W        W37194  11.726  20.115  10.777
68801W        W37195  32.021   9.573   0.597
68802W        W37196  18.188  29.991  10.768
68803W        W37197  20.125  22.315  12.127
68804W        W37198  15.083  29.395   4.538
68805W        W37199   4.048   0.572   0.403
68806W        W37200  37.550  15.260  12.450
68807W        W37201  27.560  28.999  13.750
68808W        W37202  26.473  27.747  14.944
68809W        W37203   1.065  25.447  12.473
68810W        W37204   2.507  37.188   4.153
68811W        W37205  22.214  25.792  13.578
68812W        W37206   5.170   9.357   2.725
68813W        W37207  31.093  38.427  11.861
68814W        W37208   6.819  40.754  13.476
68815W        W37209  43.526  26.723   4.618
68816W        W37210  42.423   6.771   2.359
68817W        W37211  17.903  27.566   4.011
68818W        W37212  37.302  18.835   0.257
68819W        W37213  16.296  42.735  14.372
68820W        W37214  13.703   2.720   0.005
68821W        W37215  35.446  10.611   3.045
68822W        W37216  31.621  23.176  10.178
68823W        W37217  28.471  35.883   2.653
68824W        W37218  36.737  23.510  12.868
68825W        W37219  26.951   7.176   0.855
68826W        W37220  16.200   9.750   2.380
68827W        W37221   4.257  41.470   1.129
68828W        W37222  18.315  12.137  11.479
68829W        W37223   8.289   2.231   2.393
68830W        W37224  24.673  24.182   4.831
68831W        W37225  26.722   5.138  14.099
68832W        W37226  24.574  31.122  12.041
68833W        W37227  25.525  12.663   1.514
68834W        W37228  28.479  26.555  10.357
68835W        W37229  35.852  27.857  11.195
68836W        W37230  37.969   1.685   2.834
68837W        W37231  28.929  18.567  13.065
68838W        W37232  18.649  28.994   0.523
68839W        W37233  38.655   9.818   4.709
68840W        W37234  30.933  31.346   4.849
68841W        W37235  33.030  38.003  11.631
68842W        W37236  40.942   0.743   4.684
68843W        W37237   7.408  10.455  13.780
68844W        W37238  11.765  35.780   3.644
68845W        W37239  10.791  38.354   3.110
68846W        W37240  33.482   3.387   3.875
68847W        W37241  39.016  10.400  12.881
68848W        W37242  34.527  16.676   0.685
68849W        W37243  19.339  44.981   2.937
68850W        W37244  10.293  14.542   2.976
68851W        W37245  33.913  43.286   3.093
68852W        W37246  13.364  25.167  10.385
68853W        W37247  23.616  10.706   4.041
68854W        W37248  17.334   7.227   0.766
68855W        W37249  39.610  35.200   3.107
68856W        W37250   2.966  40.797  12.519
68857W        W37251  33.340  34.730  14.933
68858W        W37252  15.757  24.370   2.199
68859W        W37253   8.330   3.476   1.811
68860W        W37254  34.564  43.385  14.673
68861W        W37255  33.136  16.058  12.040
68862W        W37256   9.844  33.017  14.354
68863W        W37257   6.388  23.730   5.409
68864W        W37258  12.599  36.092  12.502
68865W        W37259  24.961  35.896   0.056
68866W        W37260  11.409  30.678   0.761
68867W        W37261  16.049  34.395  10.496
68868W        W37262  32.829  30.482   2.893
68869W        W37263  19.614  20.001   1.922
68870W        W37264  35.852  31.346  12.983
68871W        W37265  25.535   6.864  14.727
68872W        W37266  31.978  11.829  12.842
68873W        W37267  14.685   4.710  10.304
68874W        W37268  33.458  21.646  12.880
68875W        W37269   4.763  16.250  10.292
68876W        W37270  21.163  32.979   2.068
68877W        W37271  30.464  32.678   1.232
68878W        W37272  29.085  26.257  12.948
68879W        W37273   4.953  15.753   4.103
68880W        W37274  26.224   5.928  12.924
68881W        W37275  24.215   4.959   4.646
68882W        W37276  31.874  43.543   2.183
68883W        W37277  39.986  16.634   0.453
68884W        W37278  19.475  37.369   2.414
68885W        W37279  26.509  36.311   0.770
68886W        W37280  39.555  14.257   4.542
68887W        W37281  16.350  17.769   3.071
68888W        W37282  22.762  35.771   0.322
68889W        W37283   4.419  40.966  11.699
68890W        W37284  43.039  31.360  13.840
68891W        W37285   9.746  25.848   0.725
68892W        W37286  39.245   1.316  14.707
68893W        W37287   1.195  37.074  13.453
68894W        W37288   8.264   6.432   4.673
68895W        W37289  32.031  38.207   4.267
68896W        W37290  11.334   7.723   3.133
68897W        W37291  40.863  43.592  13.814
68898W        W37292  26.485   9.270   3.547
68899W        W37293  24.685  26.237  12.002
68900W        W37294  19.833  41.040  11.193
68901W        W37295  44.757  15.137   0.749
68902W        W37296  24.771  41.219   3.373
68903W        W37297  42.976  31.842   0.363
68904W        W37298  22.827  12.160  12.098
68905W        W37299  30.803  12.849  13.275
68906W        W37300   0.795   1.744  11.988
68907W        W37301  27.563  27.372  11.923
68908W        W37302  15.289  10.326  12.572
68909W        W37303  44.551  42.143  11.838
68910W        W37304  25.611  19.753   3.818
68911W        W37305   6.627  11.613  11.253
68912W        W37306  13.173   0.966   2.397
68913W        W37307  25.029  23.280  10.428
68914W        W37308   7.840   3.692   3.209
68915W        W37309   7.306  43.261   1.648
68916W        W37310  41.321   9.151  14.795
68917W        W37311   7.282  27.676   2.206
68918W        W37312  27.397   4.456   3.373
68919W        W37313  18.057  25.672  12.658
68920W        W37314  13.577  30.530  11.163
68921W        W37315  25.162   9.943   3.032
68922W        W37316  20.592   4.263   1.750
68923W        W37317  27.832  15.689  12.999
68924W        W37318  39.531  18.337  11.123
68925W        W37319   5.132  11.588   2.963
68926W        W37320   7.959   6.498  14.454
68927W        W37321  19.769   4.309  11.263
68928W        W37322  35.485  26.722  11.865
68929W        W37323  17.672  13.232   4.022
68930W        W37324  31.344  11.438   4.229
68931W        W37325  23.490  39.597  12.167
68932W        W37326  28.361  44.904   2.110
68933W        W37327   8.777  10.335  12.185
68934W        W37328  11.882  19.680  10.550
68935W        W37329  29.613  15.082   1.839
68936W        W37330  37.447  36.628   2.949
68937W        W37331  19.692  31.007   0.727
68938W        W37332  43.945  35.301  14.126
68939W        W37333   8.151  35.505   0.963
68940W        W37334  37.953  40.569  13.039
68941W        W37335   1.716   7.213   2.258
68942W        W37336  39.105  38.070   1.902
68943W        W37337  21.655   4.088   3.366
68944W        W37338  41.899   1.546  12.262
68945W        W37339   6.907   3.122   3.599
68946W        W37340  11.890   3.306  10.971
68947W        W37341  18.281  16.783  11.194
68948W        W37342  12.023  11.660  10.524
68949W        W37343  18.823  18.306   3.155
68950W        W37344  22.103  37.365   3.596
68951W        W37345  25.948  29.254   2.426
68952W        W37346  16.659  44.734   1.170
68953W        W37347   2.402   9.596  12.541
68954W        W37348   5.204   8.191  11.125
68955W        W37349   8.121  44.286  10.805
68956W        W37350   7.661  27.500   0.958
68957W        W37351   8.408   1.557  11.611
68958W        W37352  22.616  17.502   2.366
68959W        W37353  33.545  44.552   2.806
68960W        W37354  31.044  20.212   3.691
68961W        W37355  30.589  30.194  11.020
68962W        W37356  44.521  44.666   4.593
68963W        W37357  12.052  31.465   4.193
68964W        W37358  13.326  33.075   3.677
68965W        W37359  17.347  26.978   3.106
68966W        W37360  37.091  43.700  10.918
68967W        W37361  43.668  19.304  11.575
68968W        W37362  38.446  37.284   1.042
68969W        W37363  42.771  42.087   3.328
68970W        W37364  32.898   7.579   2.106
68971W        W37365   7.357   6.291  13.751
68972W        W37366  30.477  18.873  10.864
68973W        W37367  37.863  20.494  13.030
68974W        W37368  19.087  18.358  14.301
68975W        W37369  29.026  36.062  14.813
68976W        W37370  14.171   3.616  14.486
68977W        W37371  20.785  29.363  13.385
68978W        W37372  28.446  23.733  13.797
68979W        W37373  40.344  33.076   3.373
68980W        W37374  10.956  27.144  11.587
68981W        W37375  33.369  32.617  14.895
68982W        W37376  36.011  24.937   0.925
68983W        W37377  16.097   7.899   2.546
68984W        W37378  15.205   0.375   3.638
68985W        W37379  18.671  20.213  14.063
68986W        W37380  37.844   9.173  14.683
68987W        W37381  34.020  27.929  12.944
68988W        W37382  27.280  33.830  12.085
68989W        W37383  23.815  32.597  14.853
68990W        W37384   8.570  32.577   2.808
68991W        W37385  44.391   9.157   0.926
68992W        W37386   2.106  43.713  12.934
68993W        W37387   8.774   8.928  11.062
68994W        W37388  20.927  25.843   4.808
68995W        W37389  29.568  29.896  11.933
68996W        W37390  25.015  44.276   4.009
68997W        W37391  23.794  22.554  11.623
68998W        W37392  12.337  21.683   2.150
68999W        W37393  14.092   1.946  11.425
69000W        W37394  14.306  35.768   2.200
69001W        W37395   4.191  42.315   3.243
69002W        W37396  25.392   1.456  13.658
69003W        W37397  23.059  35.671  14.046
69004W        W37398   5.056  18.013   4.524
69005W        W37399   6.679   3.040   2.442
69006W        W37400  27.157  38.541  13.552
69007W        W37401  31.893  33.871   2.790
69008W        W37402   7.193   5.822  13.881
69009W        W37403  23.939  18.146  10.181
69010W        W37404  44.002  42.706  11.499
69011W        W37405  16.130   1.584  13.849
69012W        W37406  24.395  43.315  12.084
69013W        W37407  10.665  41.480  10.496
69014W        W37408  39.063  37.723  13.482
69015W        W37409  31.523  15.334  12.121
69016W        W37410  32.107   1.255  11.724
69017W        W37411  40.432  44.269   0.236
69018W        W37412  16.638  31.475  10.754
69019W        W37413  20.442  14.234   3.923
69020W        W37414  38.903  17.524   2.839
69021W        W37415  43.846  11.840  14.804
69022W        W37416  34.165  25.954   2.695
69023W        W37417  13.909   3.656   4.998
69024W        W37418  35.970  33.005  11.192
69025W        W37419   6.338   6.882   2.227
69026W        W37420  37.010   1.882  13.614
69027W        W37421  25.670  10.122  10.611
69028W        W37422   9.650  17.457   3.271
69029W        W37423  13.324   0.022  10.908
69030W        W37424  42.264  37.123   4.557
69031W        W37425  31.822  42.352  12.544
69032W        W37426  41.598  38.395  13.093
69033W        W37427  25.205  26.043   0.589
69034W        W37428  43.449   2.191  14.956
69035W        W37429  37.969  21.968  14.575
69036W        W37430   6.134  36.132   2.717
69037W        W37431   4.466  12.262   0.905
69038W        W37432  32.010  29.674  12.801
69039W        W37433  43.341   5.747  14.894
69040W        W37434  44.835  29.458  10.975
69041W        W37435  15.596  36.229   0.500
69042W        W37436  38.483   9.747  11.686
69043W        W37437  17.945   8.112   5.502
69044W        W37438  31.398   7.004   4.380
69045W        W37439  36.700  36.420   3.279
69046W        W37440  32.341  31.248  13.476
69047W        W37441   8.186   5.763  13.490
69048W        W37442  32.905  43.238   1.777
69049W        W37443   4.711  41.889   3.826
69050W        W37444   2.964  42.817   4.811
69051W        W37445  34.176   4.856  10.776
69052W        W37446  39.628   6.413   0.816
69053W        W37447  22.709  28.806  12.291
69054W        W37448  18.909  29.590   1.341
69055W        W37449  25.317  25.898   2.217
69056W        W37450  32.921  42.884   2.898
69057W        W37451   0.789   2.441   3.326
69058W        W37452  40.739  12.250  10.909
69059W        W37453  36.451   5.094   4.143
69060W        W37454   1.631  41.881   3.177
69061W        W37455  28.200  42.438  11.986
69062W        W37456  27.164  43.528   4.047
69063W        W37457  16.310  33.033   3.892
69064W        W37458  40.922  41.041  13.468
69065W        W37459  28.484   7.757   4.836
69066W        W37460  33.586   8.813   0.778
69067W        W37461  24.617  24.148   0.763
69068W        W37462  44.520   2.119   2.134
69069W        W37463  15.008  41.992  13.349
69070W        W37464   0.341  36.496   4.643
69071W        W37465  33.911  23.064   2.435
69072W        W37466  36.672  10.094  12.938
69073W        W37467  13.273  28.736  12.049
69074W        W37468  41.894  22.807   0.429
69075W        W37469  41.444  19.806   3.144
69076W        W37470  14.482  31.640  13.411
69077W        W37471  31.585   8.882   0.272
69078W        W37472  41.037  22.465  12.621
69079W        W37473  43.295  42.136  10.836
69080W        W37474  13.161  17.665  11.226
69081W        W37475  40.952  12.273   0.237
69082W        W37476  24.564  22.030   2.164
69083W        W37477  28.671  37.875  14.962
69084W        W37478  17.758  32.115   0.294
69085W        W37479  36.107   7.943  12.642
69086W        W37480  30.689  28.512   3.337
69087W        W37481  10.214  43.985   4.790
69088W        W37482   7.429  33.508   0.847
69089W        W37483  44.610  23.723  10.507
69090W        W37484  41.119  11.382  10.841
69091W        W37485  37.989  44.017   3.675
69092W        W37486   1.375  37.025   4.718
69093W        W37487  28.364  24.413   0.851
69094W        W37488  40.741  31.914   4.762
69095W        W37489  18.154  35.635   3.829
69096W        W37490  23.944   9.741  13.322
69097W        W37491  38.634   6.365   0.913
69098W        W37492  14.603  32.044  11.510
69099W        W37493  26.030  42.434  10.538
69100W        W37494  24.139  11.632   0.930
69101W        W37495  37.895  44.480  13.519
69102W        W37496  14.636  43.093  13.776
69103W        W37497  43.170  42.657   5.000
69104W        W37498  43.570  24.578   1.400
69105W        W37499  12.148  19.736   2.342
69106W        W37500  43.195  17.026   1.840
69107W        W37501  37.432   4.249  12.057
69108W        W37502  37.223   6.344  13.644
69109W        W37503  27.169  22.502  14.952
69110W        W37504  23.309  43.504   2.225
69111W        W37505  32.344   6.836   4.722
69112W        W37506  22.986  15.105  11.383
69113W        W37507  41.389  31.860   1.915
69114W        W37508  38.059  15.472   1.275
69115W        W37509  39.362   4.491  12.992
69116W        W37510  29.090  41.822  12.041
69117W        W37511  41.856  21.230   1.439
69118W        W37512  21.665  28.490   2.391
69119W        W37513  10.828  32.403  12.032
69120W        W37514  31.033  32.339   0.866
69121W        W37515  23.697   5.686   0.870
69122W        W37516  24.607  13.566   4.594
69123W        W37517   6.344   1.763   3.734
69124W        W37518  29.371  19.506  13.640
69125W        W37519  24.018  15.690   3.120
69126W        W37520  44.566  38.923   4.606
69127W        W37521  29.534  35.296   2.364
69128W        W37522   6.610  43.017   0.325
69129W        W37523   2.529  15.652   3.590
69130W        W37524  24.312   5.414  10.608
69131W        W37525  39.551  24.038  12.455
69132W        W37526  37.251  33.821   4.300
69133W        W37527   9.973   8.710   3.903
69134W        W37528  36.019  44.821   4.570
69135W        W37529   0.702  27.132   3.379
69136W        W37530  10.980   8.102  13.822
69137W        W37531   2.495  42.357  12.883
69138W        W37532   8.733  11.173  12.665
69139W        W37533  18.545  10.448   2.204
69140W        W37534  33.535  22.729   2.659
69141W        W37535  21.934   7.707   4.021
69142W        W37536  34.979   0.220  10.687
69143W        W37537  29.499  26.644   0.105
69144W        W37538  20.667  33.990   5.103
69145W        W37539   9.773  35.143   4.908
69146W        W37540  18.133  44.770  14.983
69147W        W37541  31.223  32.858  14.937
69148W        W37542  11.557  13.595  13.387
69149W        W37543  12.211  30.495   5.053
69150W        W37544   1.075   8.314  12.097
69151W        W37545  26.882  17.645  12.499
69152W        W37546  39.528  35.410  13.399
69153W        W37547   7.898  25.759   3.710
69154W        W37548  16.143  23.230   4.258
69155W        W37549  26.179  12.186   0.285
69156W        W37550   1.482  33.965   4.600
69157W        W37551  26.597  40.024  13.960
69158W        W37552   2.358  36.356   1.542
69159W        W37553   4.175  37.861  13.451
69160W        W37554   7.305  20.383  10.986
69161W        W37555  26.507  17.048  10.840
69162W        W37556  31.302  12.720   0.641
69163W        W37557  23.625  30.882   0.560
69164W        W37558  13.219   1.413   4.563
69165W        W37559  19.965  18.558   2.250
69166W        W37560  13.117  20.350   2.929
69167W        W37561  44.974   4.938   2.379
69168W        W37562  16.231  22.544   4.899
69169W        W37563   6.872  39.877  11.117
69170W        W37564  19.078  21.293  10.358
69171W        W37565  28.239  19.799  11.274
69172W        W37566  39.095  34.555   0.844
69173W        W37567  20.717  35.504   4.599
69174W        W37568  33.675  13.634  14.542
69175W        W37569   9.264  36.387  12.070
69176W        W37570  26.260   7.622   4.578
69177W        W37571  13.547   4.852   0.070
69178W        W37572  38.934  20.828   2.728
69179W        W37573  35.137  31.581  11.707
69180W        W37574   7.462  40.547   4.128
69181W        W37575  43.046  36.184  10.325
69182W        W37576  42.398  20.006  11.445
69183W        W37577  34.705  27.312  12.098
69184W        W37578  29.690  42.923   0.758
69185W        W37579  27.243  36.972   3.155
69186W        W37580  35.010  11.453   4.616
69187W        W37581  19.194  22.280   1.345
69188W        W37582  43.125   9.815  13.281
69189W        W37583  27.984  24.069  12.554
69190W        W37584  10.249  32.999   4.357
69191W        W37585   7.806  44.528   0.571
69192W        W37586  18.631  12.334   3.728
69193W        W37587  17.241  12.820   4.502
69194W        W37588  41.711   9.804   0.438
69195W        W37589  30.388  17.232   2.282
69196W        W37590   8.883  13.558   0.216
69197W        W37591  25.865  30.563  14.597
69198W        W37592  11.651  12.719  12.388
69199W        W37593   3.953  31.356   4.173
69200W        W37594  42.861  26.069   0.891
69201W        W37595  29.049  32.825  11.213
69202W        W37596   9.778  16.624   0.130
69203W        W37597  34.022   0.991  12.058
69204W        W37598  11.642  17.403  11.240
69205W        W37599  29.014   8.703  13.111
69206W        W37600   2.985  40.388   4.923
69207W        W37601  23.286   3.942  13.848
69208W        W37602  24.126  29.229  13.849
69209W        W37603   3.332  35.436  13.913
69210W        W37604  37.438  23.338   1.007
69211W        W37605  33.567   8.566   5.260
69212W        W37606  39.907   1.310  11.797
69213W        W37607  21.175   3.225   1.190
69214W        W37608   1.508  27.948   0.892
69215W        W37609  43.738  33.280  14.407
69216W        W37610   0.463  39.465  12.123
69217W        W37611  24.212   8.919   3.602
69218W        W37612   4.906  13.265   0.762
69219W        W37613  27.129  41.085  12.619
69220W        W37614  38.186  20.214   3.660
69221W        W37615  32.814  11.744   3.159
69222W        W37616  43.497  25.009   4.111
69223W        W37617   6.849  38.342  12.944
69224W        W37618  40.125  33.529  10.149
69225W        W37619  37.354  37.670  12.957
69226W        W37620  31.537  34.407  11.946
69227W        W37621  19.307   8.405   3.893
69228W        W37622  18.992  43.143   0.786
69229W        W37623  22.515  43.104  12.600
69230W        W37624   0.202  10.377  13.807
69231W        W37625  20.763  17.056  11.077
69232W        W37626  11.443  10.929   3.295
69233W        W37627  41.849  40.911   1.946
69234W        W37628  27.873  11.190   4.047
69235W        W37629  16.094  19.477   1.325
69236W        W37630  30.110   1.493   0.979
69237W        W37631  36.246  13.154  12.426
69238W        W37632  26.115  29.868   1.282
69239W        W37633  38.061  39.175   3.218
69240W        W37634  14.354   3.269   3.454
69241W        W37635  15.267  44.346  13.327
69242W        W37636  31.591  21.404   0.807
69243W        W37637  19.338  43.585   3.229
69244W        W37638  31.942   4.122  10.865
69245W        W37639  33.750  22.834   1.848
69246W        W37640   0.712  40.741  11.551
69247W        W37641  15.161   8.217  14.428
69248W        W37642  26.011   3.419   5.015
69249W        W37643   1.972   9.081  11.455
69250W        W37644  18.884  31.082   3.698
69251W        W37645  14.067  38.033  11.184
69252W        W37646   4.761  13.623  13.768
69253W        W37647  32.442  20.777   1.963
69254W        W37648   7.774  17.836   3.674
69255W        W37649  12.714  30.562  11.538
69256W        W37650  10.756  44.952  14.306
69257W        W37651   3.421  29.046  11.194
69258W        W37652   0.049  24.136   2.366
69259W        W37653  36.076  29.207   3.223
69260W        W37654  27.444  22.196   2.387
69261W        W37655  16.213   5.762  11.043
69262W        W37656  18.142  24.331  11.979
69263W        W37657   9.313  42.770   2.214
69264W        W37658  10.613  30.209  12.413
69265W        W37659  15.749  15.251   3.781
69266W        W37660  31.586  33.514   3.671
69267W        W37661   6.186  28.631   0.902
69268W        W37662   1.373  34.829  14.473
69269W        W37663  22.988   0.788   3.236
69270W        W37664  36.930  40.467   0.840
69271W        W37665  19.304  16.658   4.989
69272W        W37666  28.644   2.936   4.162
69273W        W37667   2.190   2.290   3.705
69274W        W37668  14.763   2.055  10.383
69275W        W37669   1.331  13.174  10.528
69276W        W37670   9.291  20.601   1.390
69277W        W37671  30.762  43.387  12.443
69278W        W37672  42.937  14.900  11.430
69279W        W37673   4.188  40.035  11.622
69280W        W37674  38.519  35.306   4.132
69281W        W37675  33.463  14.603   3.631
69282W        W37676  37.784  13.978   1.244
69283W        W37677  11.266  17.699  13.938
69284W        W37678   9.931  11.171  14.968
69285W        W37679  22.410  36.443   2.215
69286W        W37680  27.475  20.257  11.758
69287W        W37681  21.080  37.132  12.576
69288W        W37682  11.030  15.867  10.529
69289W        W37683   7.918   2.673   0.205
69290W        W37684  11.511  42.528   0.271
69291W        W37685  20.658  33.143  11.975
69292W        W37686   1.222   7.368   0.137
69293W        W37687   9.053  21.265   4.489
69294W        W37688  40.013  35.374   2.378
69295W        W37689  23.937  35.632  10.701
69296W        W37690  37.103  33.234   1.470
69297W        W37691   4.297  41.583  13.068
69298W        W37692   0.078  31.974   2.233
69299W        W37693  13.402  13.102  12.422
69300W        W37694  21.792  13.282  12.627
69301W        W37695  23.782   9.505   4.928
69302W        W37696  34.552  12.348  13.163
69303W        W37697  14.162  27.626   4.502
69304W        W37698  10.305  36.145  12.184
69305W        W37699  40.781  41.587  10.747
69306W        W37700  18.398  20.131  13.621
69307W        W37701   4.395   0.242  10.885
69308W        W37702  19.352   3.236   3.329
69309W        W37703   9.871  34.820   1.632
69310W        W37704  11.574  26.075   4.646
69311W        W37705  42.346  43.420   2.092
69312W        W37706  43.043  18.166  10.858
69313W        W37707  31.932  28.214   2.259
69314W        W37708   9.727  22.967  14.296
69315W        W37709  32.060  18.068  10.433
69316W        W37710  24.863   9.210   4.972
69317W        W37711   6.660  35.839  11.594
69318W        W37712  11.583  28.786  11.305
69319W        W37713  33.002  25.288  11.445
69320W        W37714  26.118  36.973  12.588
69321W        W37715   2.410  18.307   0.439
69322W        W37716  44.254  20.228  12.503
69323W        W37717  38.376  40.102  12.999
69324W        W37718  36.887   6.962   1.633
69325W        W37719  35.924   2.885   2.806
69326W        W37720  18.199  21.792   0.890
69327W        W37721  25.566  39.851  11.627
69328W        W37722  38.002   9.347   4.626
69329W        W37723  17.060  10.340  10.640
69330W        W37724   4.136  20.877   2.882
69331W        W37725  36.343  44.948  12.090
69332W        W37726  19.260  25.621   9.864
69333W        W37727   2.598  23.688   2.576
69334W        W37728   4.136  42.988   1.173
69335W        W37729  21.764  39.947  12.324
69336W        W37730  28.582  13.849   0.375
69337W        W37731  25.973  22.059   3.267
69338W        W37732   9.154  10.217   0.929
69339W        W37733   6.096  15.482  13.435
69340W        W37734  13.200  10.834   4.051
69341W        W37735  15.161  19.635   0.187
69342W        W37736  25.303   6.400  14.802
69343W        W37737   8.647  29.080   0.804
69344W        W37738  15.650  20.221   2.773
69345W        W37739  35.882  10.319  13.435
69346W        W37740  17.258  24.305  10.660
69347W        W37741  33.789  29.627   0.806
69348W        W37742   3.702  30.873  11.134
69349W        W37743  28.165  41.280  13.029
69350W        W37744  29.202  32.211   4.671
69351W        W37745  44.848  20.768   2.300
69352W        W37746  42.532   5.659  12.818
69353W        W37747  30.059  41.789   2.382
69354W        W37748  33.545  20.979   4.938
69355W        W37749  27.355  24.173   4.527
69356W        W37750  15.188  15.428  14.819
69357W        W37751  10.203   8.487   0.932
69358W        W37752   1.333  37.519   4.910
69359W        W37753  20.384   7.753   1.786
69360W        W37754  14.672  31.134   3.148
69361W        W37755  35.252   1.351  14.565
69362W        W37756   3.728  24.554  10.444
69363W        W37757  12.866  30.434  10.601
69364W        W37758  16.642   9.692  10.669
69365W        W37759   2.694  17.226  12.837
69366W        W37760  27.411  25.498  14.717
69367W        W37761  24.309  35.156   4.233
69368W        W37762  20.216  40.414   4.580
69369W        W37763  22.757  22.775   0.890
69370W        W37764  30.632  34.961   3.847
69371W        W37765  36.234  12.656   1.185
69372W        W37766  28.548   0.885  12.828
69373W        W37767  14.136   0.465   4.402
69374W        W37768  36.583  38.031  10.667
69375W        W37769   3.202  12.536   2.784
69376W        W37770   4.784  31.915   3.272
69377W        W37771  41.392   2.919   0.966
69378W        W37772  13.296  26.843   3.734
69379W        W37773  31.388  12.797   3.392
69380W        W37774  25.716  41.911  11.209
69381W        W37775  28.237  20.656   2.805
69382W        W37776  19.377  18.212  14.715
69383W        W37777  12.538  12.651   2.943
69384W        W37778   7.121  29.173  13.165
69385W        W37779  34.910   1.782  10.844
69386W        W37780  11.822  40.342  14.788
69387W        W37781  42.995  18.719  13.108
69388W        W37782  18.015  40.774  12.565
69389W        W37783  35.401  13.225  12.834
69390W        W37784  25.514  41.036   2.248
69391W        W37785  14.803  15.631  14.043
69392W        W37786  12.757  20.477   2.141
69393W        W37787  19.160  40.071  10.888
69394W        W37788  40.992  21.720   4.227
69395W        W37789  19.566  40.548   1.857
69396W        W37790  30.935  40.008   4.709
69397W        W37791  38.065  35.077   3.111
69398W        W37792  10.368   8.899  12.630
69399W        W37793   9.227  16.548   3.260
69400W        W37794  32.265  39.836  13.921
69401W        W37795  39.186  15.612   0.792
69402W        W37796  16.754  20.132  10.771
69403W        W37797  42.502  10.154   0.458
69404W        W37798   5.903  36.865  13.527
69405W        W37799  26.745  21.745   3.717
69406W        W37800   7.734   9.921   4.360
69407W        W37801   3.140  16.753  13.654
69408W        W37802  25.350  23.064   2.336
69409W        W37803  17.510  40.853  12.741
69410W        W37804   4.460  24.988   1.725
69411W        W37805  33.859  12.892   4.279
69412W        W37806  31.008  38.422   0.449
69413W        W37807  24.977  36.441  14.215
69414W        W37808  37.580   8.795   4.659
69415W        W37809  17.561  36.393  10.579
69416W        W37810  42.209  26.838   4.112
69417W        W37811  25.556  29.472   1.734
69418W        W37812  40.399  19.696   1.586
69419W        W37813  41.049   6.742   3.887
69420W        W37814   4.660  19.647   2.283
69421W        W37815  20.591  14.315   4.458
69422W        W37816   7.007  23.466   0.395
69423W        W37817  41.793  33.426   2.822
69424W        W37818  23.989   6.748   2.186
69425W        W37819   4.757  40.523  11.191
69426W        W37820  22.245  26.862   1.237
69427W        W37821  12.955  39.463   0.900
69428W        W37822  22.335   9.908   2.876
69429W        W37823  23.206  42.105   4.121
69430W        W37824   1.042  13.710  11.613
69431W        W37825  30.318   6.504   3.036
69432W        W37826  37.273  17.555  14.855
69433W        W37827  15.779  18.665   2.401
69434W        W37828   9.744  38.200  14.603
69435W        W37829  18.821  24.129  13.807
69436W        W37830  18.414  43.553   3.278
69437W        W37831   5.299  36.475   3.200
69438W        W37832  34.102  35.152   0.402
69439W        W37833  14.691   2.843  13.473
69440W        W37834  29.963  21.730   1.332
69441W        W37835  12.415  25.244  13.790
69442W        W37836   2.609  16.826   5.014
69443W        W37837  19.374  30.194   2.556
69444W        W37838  10.139  38.045  12.025
69445W        W37839  14.254  29.609  11.572
69446W        W37840  16.274  21.945  11.920
69447W        W37841  16.166  11.194   4.061
69448W        W37842  44.215  12.015  12.331
69449W        W37843  40.654  29.572  13.997
69450W        W37844  16.703   7.720   4.119
69451W        W37845  33.460   7.668  10.536
69452W        W37846  19.012   2.837   1.245
69453W        W37847  29.248  32.972   0.863
69454W        W37848   7.056  22.621   5.281
69455W        W37849  27.190  23.625   4.067
69456W        W37850  26.200  29.745  12.982
69457W        W37851  20.667  35.463   2.671
69458W        W37852  17.708  20.166   0.297
69459W        W37853  21.639  38.096   0.305
69460W        W37854  33.676   0.444  12.896
69461W        W37855  29.905  40.710   1.002
69462W        W37856  27.521  21.738   2.659
69463W        W37857  20.616  22.736   3.978
69464W        W37858  29.949  33.609  11.437
69465W        W37859  15.604  17.092  14.487
69466W        W37860   0.327  10.085  14.768
69467W        W37861  33.302   2.658  11.102
69468W        W37862   2.071  40.984   1.151
69469W        W37863  32.628   3.421   4.809
69470W        W37864  14.801  31.617  11.284
69471W        W37865  15.762  40.018   3.905
69472W        W37866   3.846  12.186   3.099
69473W        W37867  10.149   0.783   1.310
69474W        W37868  42.779  40.332  12.549
69475W        W37869   7.565  23.596  11.361
69476W        W37870  25.562  10.638  11.990
69477W        W37871  30.940  23.279   1.842
69478W        W37872  27.661  34.605   1.255
69479W        W37873  18.183   5.395   3.615
69480W        W37874  11.213  23.585  13.992
69481W        W37875  34.391   9.224   1.042
69482W        W37876   2.943  18.599  14.005
69483W        W37877  24.441   7.900  10.743
69484W        W37878  41.227   2.226   2.775
69485W        W37879  11.100  27.455  10.786
69486W        W37880  24.788  28.496  13.006
69487W        W37881  35.808  11.346   1.825
69488W        W37882  43.741  40.378  12.683
69489W        W37883  13.767   8.650  14.420
69490W        W37884  12.882  23.513   4.087
69491W        W37885  24.540   7.616  11.197
69492W        W37886  13.259  11.922  13.942
69493W        W37887  32.603  13.530  14.013
69494W        W37888  23.040  37.804   3.423
69495W        W37889  13.063  44.492  14.213
69496W        W37890  16.871  36.639  10.087
69497W        W37891  44.481   7.789   0.801
69498W        W37892  35.853  10.251  13.957
69499W        W37893  36.632   3.209  11.593
69500W        W37894  28.499  30.685  12.872
69501W        W37895  11.445   6.755  11.041
69502W        W37896  31.500  40.390   2.170
69503W        W37897  11.628  26.173  10.905
69504W        W37898  34.948   3.620  13.042
69505W        W37899  21.019  14.910   2.222
69506W        W37900   1.906  12.044   0.882
69507W        W37901  32.647   2.263   2.329
69508W        W37902  41.387   0.235  12.465
69509W        W37903  18.037  35.123  12.863
69510W        W37904  34.600  37.014   0.846
69511W        W37905  18.942  10.167  14.908
69512W        W37906  20.181  24.413   3.747
69513W        W37907  32.995  32.883  14.521
69514W        W37908  31.237  14.654   1.268
69515W        W37909  23.788  12.372   5.209
69516W        W37910  18.531   6.391   3.510
69517W        W37911  14.126  23.446   3.341
69518W        W37912  43.310  22.018  12.411
69519W        W37913  33.816  44.989  12.111
69520W        W37914  29.125  13.060   0.508
69521W        W37915   5.651   3.631  14.928
69522W        W37916  44.742   9.057  14.966
69523W        W37917  10.579  40.520  12.425
69524W        W37918  27.229  42.516  14.389
69525W        W37919  12.117   2.463   1.771
69526W        W37920  19.785  18.215   1.340
69527W        W37921  41.746  33.417  10.211
69528W        W37922   6.270  40.933   4.164
69529W        W37923   2.181  20.200   2.729
69530W        W37924  38.622   3.196  13.213
69531W        W37925  26.525  19.334  10.296
69532W        W37926  37.819  22.655   2.277
69533W        W37927  33.040  28.117   3.075
69534W        W37928  37.831  37.581  13.745
69535W        W37929  26.573   9.123  13.849
69536W        W37930  16.274  26.958   2.218
69537W        W37931  30.063  23.257   1.373
69538W        W37932  42.839  30.294  13.607
69539W        W37933  10.166  13.816  13.921
69540W        W37934  37.349  42.202   1.272
69541W        W37935  38.228  42.592   4.716
69542W        W37936  37.776  27.062   3.283
69543W        W37937  23.314  41.159  14.828
69544W        W37938  38.008  14.147   0.798
69545W        W37939  43.850  25.389  11.178
69546W        W37940   0.801  43.850   4.355
69547W        W37941  38.652  13.073  10.490
69548W        W37942  21.674   9.817   1.904
69549W        W37943  28.485  25.832  13.474
69550W        W37944  31.104  12.163  14.456
69551W        W37945  39.460  10.892  11.103
69552W        W37946  38.619  41.299  11.705
69553W        W37947  28.317  18.133   1.378
69554W        W37948  26.051  14.299   1.208
69555W        W37949  20.706  29.869   2.408
69556W        W37950  39.296   2.473   0.942
69557W        W37951   0.508  23.296  13.419
69558W        W37952   0.239  29.920   3.684
69559W        W37953  38.976  10.178   4.498
69560W        W37954  22.131  26.185  10.334
69561W        W37955  42.928   4.848   0.855
69562W        W37956  27.759  30.771   4.109
69563W        W37957  39.658   0.861  11.699
69564W        W37958  12.327  11.184  12.103
69565W        W37959  11.358  35.378  11.831
69566W        W37960   3.802  18.744  12.948
69567W        W37961  14.209  23.148   2.746
69568W        W37962   9.751  21.681   2.147
69569W        W37963  15.824  39.519  10.906
69570W        W37964  43.454   4.217  12.476
69571W        W37965   5.772  15.063   1.840
69572W        W37966  18.052  11.595   0.295
69573W        W37967   8.412   3.177  10.522
69574W        W37968   7.219  24.910   2.475
69575W        W37969  38.536  27.934   4.455
69576W        W37970  30.308   5.617   2.677
69577W        W37971  16.654   2.141  12.337
69578W        W37972  19.045  38.075   4.623
69579W        W37973  36.918  42.485   1.215
69580W        W37974  44.711  43.081  11.510
69581W        W37975  13.159  12.741  13.346
69582W        W37976  15.971  38.850   3.378
69583W        W37977  36.128  33.493  13.028
69584W        W37978   8.405  30.078  13.063
69585W        W37979  33.635   9.608  14.468
69586W        W37980  35.525  40.422   3.207
69587W        W37981  37.649  11.534   4.632
69588W        W37982   5.860  41.285   3.466
69589W        W37983  35.077   6.415  11.153
69590W        W37984  19.049   9.744   4.529
69591W        W37985  42.462  33.652   0.483
69592W        W37986   5.999   0.294  11.018
69593W        W37987  31.029  32.854   0.868
69594W        W37988  26.980  12.022  10.527
69595W        W37989  39.424   1.293   0.189
69596W        W37990  20.760  26.984   0.031
69597W        W37991  35.258   3.771   3.235
69598W        W37992  37.750  10.182   2.680
69599W        W37993  21.791  18.777   0.455
69600W        W37994  31.801   3.898  10.374
69601W        W37995   3.699  34.338  12.573
69602W        W37996  43.651   2.227  14.454
69603W        W37997  29.948  36.131  13.451
69604W        W37998  35.016  34.058   0.276
69605W        W37999  20.939  33.557  11.043
69606W        W38000  32.424   7.091  10.747
69607W        W38001  19.710   2.745  14.864
69608W        W38002  17.693  40.441   2.536
69609W        W38003  19.131  27.050   3.169
69610W        W38004  43.895  17.283   2.525
69611W        W38005   0.476  30.698  14.757
69612W        W38006  11.232  37.937  12.239
69613W        W38007   5.350  23.639   3.139
69614W        W38008  11.748  11.108   0.717
69615W        W38009  15.812  44.428   0.918
69616W        W38010  38.508  31.156   0.925
69617W        W38011  13.694   5.147  10.236
69618W        W38012   3.482  11.409  12.791
69619W        W38013  17.491  18.998   2.462
69620W        W38014   0.872  41.393   1.478
69621W        W38015   1.914  35.405  13.625
69622W        W38016  32.703  16.691   3.837
69623W        W38017  34.165  30.701   3.857
69624W        W38018  37.335  24.507   0.868
69625W        W38019  36.152  32.935   3.849
69626W        W38020  35.411   1.922  10.955
69627W        W38021  25.702  29.937  13.053
69628W        W38022  25.762  25.194  12.375
69629W        W38023  41.380  36.765  13.972
69630W        W38024  16.301  41.964   2.300
69631W        W38025  42.146  21.161  14.329
69632W        W38026   5.761   5.794   1.850
69633W        W38027   8.951  25.706   2.199
69634W        W38028   4.585   3.418   2.742
69635W        W38029  13.388   5.884  11.510
69636W        W38030  33.612  38.748   3.541
69637W        W38031  44.822  14.837  10.610
69638W        W38032   0.165  40.847  14.315
69639W        W38033   5.545  11.701   4.263
69640W        W38034  41.867   6.028   4.564
69641W        W38035  24.330  30.113   3.933
69642W        W38036  41.807  17.321   1.838
69643W        W38037  43.752  37.500   0.739
69644W        W38038  22.434  43.890  14.865
69645W        W38039   1.857  29.500   0.878
69646W        W38040  29.974   9.325   2.591
69647W        W38041  35.157  12.837  14.950
69648W        W38042  40.460  31.153  14.424
69649W        W38043  21.298  28.438  10.677
69650W        W38044  16.266   8.259  10.719
69651W        W38045  31.124  12.367  12.496
69652W        W38046  38.395  39.559   1.208
69653W        W38047  40.027   1.923   0.444
69654W        W38048  24.182  31.496  12.426
69655W        W38049   0.995  44.395   4.022
69656W        W38050  38.382  33.136  13.183
69657W        W38051   0.810  16.462  11.569
69658W        W38052  33.607  42.467  14.349
69659W        W38053  40.293  15.639   1.690
69660W        W38054   7.191  29.987  11.651
69661W        W38055   3.855  14.202  12.977
69662W        W38056  22.153   6.705   4.232
69663W        W38057  22.044   1.953  14.451
69664W        W38058  32.136  29.182   2.378
69665W        W38059  35.085   8.826  14.540
69666W        W38060  17.209  37.553  14.596
69667W        W38061   8.621  24.894   3.924
69668W        W38062  11.112  25.421  13.999
69669W        W38063  40.432  19.769   2.105
69670W        W38064  31.536  18.521   3.742
69671W        W38065  27.704   6.952   3.786
69672W        W38066  19.094  34.870   1.793
69673W        W38067  19.001  10.226  10.617
69674W        W38068  15.385   8.414  11.199
69675W        W38069  16.672  13.625   0.965
69676W        W38070  36.358  32.440  14.294
69677W        W38071  16.112   2.165  12.241
69678W        W38072  26.152  27.723  14.516
69679W        W38073  44.725  22.406  10.883
69680W        W38074  31.870  26.315  14.481
69681W        W38075  20.062  36.945  10.518
69682W        W38076  35.179  16.562  13.494
69683W        W38077  19.650   0.545  13.837
69684W        W38078   4.480   2.916  13.871
69685W        W38079  41.541  30.484   3.840
69686W        W38080   5.938   0.227   2.525
69687W        W38081  37.575  41.282  14.361
69688W        W38082  24.581  36.474   2.316
69689W        W38083  27.090   8.768  14.545
69690W        W38084  40.574   7.326   1.955
69691W        W38085  27.694   5.661  12.904
69692W        W38086   2.233  27.580  13.256
69693W        W38087  28.242  22.502   3.506
69694W        W38088  30.704  23.275  11.645
69695W        W38089  31.140   4.395  14.300
69696W        W38090  33.284   5.406   2.801
69697W        W38091  20.810  28.231   1.370
69698W        W38092  16.741  41.944  14.403
69699W        W38093  15.787  18.831  12.963
69700W        W38094  22.209   3.546  12.038
69701W        W38095  39.817   8.655   0.356
69702W        W38096  22.526  19.322  13.281
69703W        W38097  33.413  36.562  12.634
69704W        W38098  44.466  28.405   2.190
69705W        W38099  12.711   8.744   4.418
69706W        W38100   5.358  15.350   4.056
69707W        W38101  38.316   9.364   1.447
69708W        W38102  29.698  15.615  12.829
69709W        W38103  35.122  24.405  14.821
69710W        W38104  34.463  21.998   2.412
69711W        W38105   3.709   0.927  14.544
69712W        W38106   0.910  18.686   0.351
69713W        W38107  43.002   8.420   0.065
69714W        W38108   7.478  36.178   1.743
69715W        W38109  33.519   3.414   4.374
69716W        W38110  26.391   4.175  13.949
69717W        W38111  16.738  23.755   1.727
69718W        W38112   3.965  18.323   1.785
69719W        W38113  34.532  18.515  11.840
69720W        W38114  31.364  22.978   1.751
69721W        W38115  33.350  21.014  11.164
69722W        W38116  26.458   3.286   4.791
69723W        W38117  26.767  35.584  13.800
69724W        W38118  13.288  33.419  14.090
69725W        W38119  28.268  43.282  11.461
69726W        W38120   1.235  37.020   4.229
69727W        W38121  38.344  28.941   3.644
69728W        W38122  28.020  34.332  14.827
69729W        W38123  27.976   9.347   3.434
69730W        W38124  19.012   1.904  14.971
69731W        W38125  32.131  38.504  12.388
69732W        W38126  21.529  34.553   3.367
69733W        W38127  10.008  41.048   3.264
69734W        W38128  13.097   6.927  12.030
69735W        W38129  33.190  27.737   2.755
69736W        W38130  28.783   0.942   4.751
69737W        W38131  27.027  41.836  12.110
69738W        W38132  41.293  39.889  12.090
69739W        W38133  37.753  43.164   2.710
69740W        W38134  34.645   6.946  13.416
69741W        W38135  21.734  39.981   1.882
69742W        W38136  14.056   7.512   3.198
69743W        W38137  40.153  39.725  13.659
69744W        W38138  20.714  18.796   1.103
69745W        W38139  43.619  25.714  11.638
69746W        W38140  25.708   1.707   3.703
69747W        W38141  23.060  19.673   1.298
69748W        W38142  37.970  15.025  11.102
69749W        W38143  36.386  37.610  11.538
69750W        W38144  13.679  28.249  14.999
69751W        W38145  37.990  34.325   1.870
69752W        W38146   0.945  13.195  12.974
69753W        W38147  25.983  41.727   4.169
69754W        W38148  25.174  12.880  12.947
69755W        W38149  10.113   0.908   4.192
69756W        W38150  42.840  23.230   1.874
69757W        W38151   1.167  19.783   1.348
69758W        W38152  43.283   9.651  11.400
69759W        W38153  27.458  23.734  13.889
69760W        W38154  17.031  36.362  10.489
69761W        W38155  29.904  34.972   4.540
69762W        W38156  10.258  39.850   0.444
69763W        W38157  25.104   2.482   4.081
69764W        W38158   8.423  22.696  10.642
69765W        W38159  17.085  22.956   1.787
69766W        W38160  25.902  11.539   4.027
69767W        W38161  38.349  12.780  11.230
69768W        W38162  33.288  18.565   0.620
69769W        W38163  26.962  38.227  12.054
69770W        W38164  29.184  11.050   3.278
69771W        W38165  20.269  23.156  12.091
69772W        W38166   6.271   9.378   4.189
69773W        W38167   3.878  20.859  10.642
69774W        W38168  39.976  17.967   0.804
69775W        W38169  38.391  10.660   0.316
69776W        W38170   5.824  12.967  13.870
69777W        W38171   6.410  14.936   0.260
69778W        W38172  11.836   4.835  10.473
69779W        W38173  39.005  30.206  10.749
69780W        W38174  35.059  22.912   2.670
69781W        W38175  39.969  14.314   4.211
69782W        W38176  26.958  11.752  11.006
69783W        W38177  43.737   0.225  12.999
69784W        W38178  28.446  15.508  14.840
69785W        W38179  18.022  20.580  14.926
69786W        W38180   7.494  37.001  12.915
69787W        W38181  16.259  31.656   3.681
69788W        W38182  28.907  35.599  12.926
69789W        W38183   7.099  31.629  12.471
69790W        W38184   8.263  37.418  11.119
69791W        W38185  35.303   7.178   3.689
69792W        W38186  38.040  34.205   0.768
69793W        W38187  38.728   6.848  10.701
69794W        W38188  10.194  25.061  13.574
69795W        W38189  19.352  33.527   3.818
69796W        W38190  40.739   3.937  12.927
69797W        W38191  26.503  14.978  11.030
69798W        W38192   7.418  23.099   2.266
69799W        W38193  17.971   9.284  10.808
69800W        W38194  27.164  18.116  12.523
69801W        W38195  23.587  20.052   0.057
69802W        W38196  21.814  22.595  11.723
69803W        W38197  37.795  23.977   3.498
69804W        W38198  31.569  18.662   1.231
69805W        W38199   6.704  44.876   0.613
69806W        W38200  10.924  11.411   2.770
69807W        W38201  21.642  16.116  10.746
69808W        W38202  23.574   8.943   1.385
69809W        W38203  30.655  17.262  12.555
69810W        W38204  18.896  15.183   2.747
69811W        W38205  39.419  26.180   2.209
69812W        W38206  37.194  22.372  12.003
69813W        W38207  14.390   4.300   4.118
69814W        W38208  44.886   6.942  11.594
69815W        W38209  18.254  22.285   1.640
69816W        W38210  42.763  17.494  11.317
69817W        W38211  34.105  14.433  12.642
69818W        W38212  27.300  19.626  11.400
69819W        W38213   0.959  22.305  12.357
69820W        W38214   3.317   1.922   3.726
69821W        W38215  43.786  28.601   2.717
69822W        W38216  15.829   4.353   0.255
69823W        W38217  20.327  16.312   0.446
69824W        W38218  30.940   9.256  12.443
69825W        W38219  37.516  42.962   1.815
69826W        W38220  11.463  10.730  12.584
69827W        W38221  10.683   2.724   4.576
69828W        W38222   3.468   1.530  11.658
69829W        W38223  35.655  12.703   1.754
69830W        W38224  32.658  12.400   0.442
69831W        W38225   6.629  37.980  11.953
69832W        W38226  33.150  31.493   2.860
69833W        W38227   2.843  17.980  11.374
69834W        W38228   9.856  28.422  12.123
69835W        W38229  25.608  28.490   3.756
69836W        W38230  39.458  30.558  12.209
69837W        W38231  36.575  43.979  11.683
69838W        W38232  24.084  20.514  12.102
69839W        W38233  40.680  17.105  12.043
69840W        W38234  43.334  31.535  14.525
69841W        W38235  44.491   8.348  13.859
69842W        W38236  10.834  26.047   1.679
69843W        W38237  23.650   8.008   5.070
69844W        W38238   5.623   5.785  13.952
69845W        W38239  41.533  19.084  11.173
69846W        W38240  34.237  12.779  11.117
69847W        W38241  11.620  35.997  14.943
69848W        W38242  27.474  34.038   2.296
69849W        W38243   0.707  42.356  14.375
69850W        W38244  12.411  25.048   0.474
69851W        W38245  12.851  12.067   1.914
69852W        W38246  22.233  35.215  11.376
69853W        W38247  10.822   6.369  12.415
69854W        W38248  11.781  30.247   3.219
69855W        W38249  32.828  13.776   0.403
69856W        W38250  16.434  33.134   2.091
69857W        W38251  30.411   6.237   0.472
69858W        W38252   5.982  19.568   2.738
69859W        W38253  17.353   6.156   3.692
69860W        W38254  33.552  15.937   0.197
69861W        W38255  28.336  16.606  10.675
69862W        W38256  34.575   0.318  14.782
69863W        W38257   1.541  27.990   1.773
69864W        W38258   5.277  16.926  12.926
69865W        W38259  33.435  20.950  14.042
69866W        W38260  15.833  25.872   0.555
69867W        W38261  18.765   6.149   1.852
69868W        W38262  36.934  42.180  13.883
69869W        W38263  12.581   8.737  11.591
69870W        W38264  10.337  19.543   4.257
69871W        W38265   5.280  26.212  14.120
69872W        W38266  28.214   7.434  11.998
69873W        W38267  21.135  30.293  13.501
69874W        W38268  13.658  37.097  13.977
69875W        W38269  29.827  37.516   4.447
69876W        W38270  38.063  28.668  14.252
69877W        W38271  18.229  21.557   4.037
69878W        W38272   6.462  29.991  11.941
69879W        W38273  25.499  34.831  11.102
69880W        W38274   6.304  17.207  10.145
69881W        W38275   4.775   7.781   3.124
69882W        W38276  40.896  28.421  12.838
69883W        W38277  39.430  27.985  13.805
69884W        W38278  33.570   6.712   4.312
69885W        W38279  44.015   1.023  13.366
69886W        W38280  37.437  27.580  12.981
69887W        W38281  35.397  32.872   2.894
69888W        W38282  13.792  14.031   3.701
69889W        W38283  37.993   6.778  14.375
69890W        W38284  36.940  42.612   2.749
69891W        W38285   5.746  16.744   2.362
69892W        W38286  10.285  25.433   4.203
69893W        W38287  25.206  35.081  12.117
69894W        W38288   6.099  26.607  10.912
69895W        W38289  28.683  39.069   3.637
69896W        W38290  42.871  14.789   1.937
69897W        W38291   6.351  42.564  12.226
69898W        W38292   0.991  23.143   3.896
69899W        W38293  29.148  24.151   0.765
69900W        W38294  26.467  38.820  13.234
69901W        W38295  39.560  34.192  12.481
69902W        W38296  36.636  24.344  11.058
69903W        W38297   1.982  44.508   1.826
69904W        W38298  11.893  36.412   1.658
69905W        W38299   7.414   9.966   2.389
69906W        W38300   1.282   7.968  13.407
69907W        W38301  24.559   8.795   4.788
69908W        W38302   7.750  11.188   4.856
69909W        W38303  20.634  42.375  13.118
69910W        W38304  24.928  35.332  10.644
69911W        W38305   0.265  14.275  13.716
69912W        W38306  40.716   1.019  12.980
69913W        W38307  26.897   4.301   1.769
69914W        W38308  14.104  31.402   0.844
69915W        W38309   8.862  39.397  14.893
69916W        W38310  14.329  26.654   0.157
69917W        W38311  18.775   0.280  10.831
69918W        W38312  26.196  26.237   0.319
69919W        W38313  40.898  20.065  14.029
69920W        W38314  10.856  24.146   4.767
69921W        W38315  24.428  10.703   0.350
69922W        W38316  44.322   2.724  13.859
69923W        W38317  25.020  41.554   2.793
69924W        W38318  27.903   0.091   3.673
69925W        W38319  42.287  40.976   3.768
69926W        W38320  42.333  34.087  12.678
69927W        W38321  13.111   4.532   0.444
69928W        W38322  31.103  28.656  14.919
69929W        W38323  29.003  25.509  13.391
69930W        W38324   3.243  41.346   0.851
69931W        W38325  23.995   0.141   1.252
69932W        W38326  14.610  10.181   1.749
69933W        W38327  12.292  32.130   4.820
69934W        W38328   4.826  31.196   0.421
69935W        W38329  19.138   1.699  10.448
69936W        W38330  24.280  33.493  10.691
69937W        W38331  37.395  10.766   2.889
69938W        W38332  16.775   2.062   3.398
69939W        W38333  32.326   6.425   0.524
69940W        W38334  21.023  32.555  10.937
69941W        W38335  29.470  35.039   2.830
69942W        W38336   0.581  14.398  12.900
69943W        W38337  38.093  40.507   0.924
69944W        W38338  11.426   0.498  14.377
69945W        W38339  43.768   7.464  11.130
69946W        W38340   5.182   2.365   4.758
69947W        W38341   3.373  12.673  13.465
69948W        W38342  43.792  22.008   1.815
69949W        W38343   9.551  26.983   0.028
69950W        W38344  34.921  16.171   3.120
69951W        W38345  44.981   3.249  13.753
69952W        W38346  32.117  22.556   4.059
69953W        W38347  18.136  29.428   2.375
69954W        W38348  23.084  22.467   3.070
69955W        W38349  17.239  22.826  14.271
69956W        W38350  43.814  39.775   0.934
69957W        W38351   8.794  37.396  11.328
69958W        W38352  39.105   3.012  13.090
69959W        W38353  16.239  41.314  12.582
69960W        W38354   2.666  32.476   2.827
69961W        W38355  38.058   2.988  14.894
69962W        W38356  19.541  30.618  14.878
69963W        W38357  26.898  28.647  13.461
69964W        W38358  31.842  37.989   3.181
69965W        W38359  25.274  28.163   0.726
69966W        W38360   1.991  23.766   2.343
69967W        W38361   9.855  31.618   0.292
69968W        W38362   3.371  36.957  12.097
69969W        W38363  34.093  31.480   1.708
69970W        W38364  19.078  10.923   3.481
69971W        W38365  30.422  19.208   0.038
69972W        W38366   9.117   7.621  12.473
69973W        W38367  33.355  38.286   0.928
69974W        W38368  15.156  21.013   2.910
69975W        W38369  13.952  33.162  11.558
69976W        W38370  16.513   7.771  11.647
69977W        W38371  44.976   0.858  13.449
69978W        W38372  36.808  24.023   5.191
69979W        W38373  22.181  25.717   2.688
69980W        W38374  19.579  24.258   0.202
69981W        W38375  41.005  25.038   2.227
69982W        W38376  21.706  41.314  14.525
69983W        W38377   3.276   5.000   0.444
69984W        W38378  38.326  33.219  14.948
69985W        W38379  33.167  39.502   3.831
69986W        W38380  24.516  34.892   5.220
69987W        W38381  26.436  28.938   0.942
69988W        W38382  22.507  30.421  13.094
69989W        W38383  25.208  33.182   3.724
69990W        W38384  35.940   4.789  12.547
69991W        W38385  13.192   6.498  13.917
69992W        W38386  31.378  11.145  13.893
69993W        W38387  11.123   2.627   0.183
69994W        W38388  26.133  38.913  11.725
69995W        W38389  23.812  24.395  11.602
69996W        W38390  18.728  34.399  13.375
69997W        W38391  33.493  33.421   2.019
69998W        W38392  35.124  21.278   0.733
69999W        W38393  40.680  44.405   3.220
70000W        W38394  41.316  35.978   0.071
70001W        W38395  14.745  22.325   1.906
70002W        W38396  19.726  42.302  10.983
70003W        W38397  18.702  39.890  13.801
70004W        W38398  25.086   0.136   9.838
70005W        W38399  42.122  12.150   0.394
70006W        W38400   2.221   8.272  11.662
70007W        W38401  35.291  36.599  12.124
70008W        W38402   2.466  36.679  11.637
70009W        W38403  21.531   6.719  14.742
70010W        W38404  30.236  15.038  13.422
70011W        W38405  14.321  20.355   5.159
70012W        W38406  21.839   5.216   0.506
70013W        W38407  27.550  41.950   3.721
70014W        W38408  13.792   0.624  10.417
70015W        W38409  34.990   1.459   0.013
70016W        W38410   7.891  19.450  11.209
70017W        W38411  10.614  12.642   3.608
70018W        W38412  33.023  18.657   1.118
70019W        W38413   5.870   7.489  13.502
70020W        W38414  30.031   0.244   0.325
70021W        W38415   6.360  21.265  11.262
70022W        W38416  21.189  32.638   3.258
70023W        W38417  16.964   3.546  12.429
70024W        W38418  27.717  36.373  14.886
70025W        W38419  31.288  35.983   4.153
70026W        W38420   5.664  14.073   3.314
70027W        W38421  17.711  32.981  13.366
70028W        W38422   2.330  41.913   3.528
70029W        W38423  42.477  25.308  14.725
70030W        W38424  24.132  39.051   2.842
70031W        W38425  43.730  38.011  11.119
70032W        W38426  43.492  34.980  12.056
70033W        W38427  11.798   9.739   4.818
70034W        W38428  32.378   7.279  11.955
70035W        W38429   5.672  38.972  11.657
70036W        W38430  12.670   9.249  13.970
70037W        W38431   5.916   6.373  14.824
70038W        W38432   8.025   6.393  11.607
70039W        W38433  14.771  17.860   3.919
70040W        W38434  10.644  38.857   2.996
70041W        W38435  16.565  29.991  11.513
70042W        W38436  26.090  39.889  13.832
70043W        W38437  15.343   8.113   3.170
70044W        W38438  22.016  17.798   4.392
70045W        W38439   0.724   6.994  14.334
70046W        W38440  44.286  36.235  12.530
70047W        W38441  14.087  42.497   1.386
70048W        W38442  13.865  18.871   4.271
70049W        W38443  30.885  23.801  14.301
70050W        W38444   1.498  40.532  10.567
70051W        W38445  23.498  41.374   4.506
70052W        W38446   4.940  36.170  13.818
70053W        W38447  21.727  15.990  12.045
70054W        W38448  33.132  44.447   1.934
70055W        W38449  37.246   5.262  10.364
70056W        W38450  27.229  22.222   1.470
70057W        W38451  32.511  30.085  12.603
70058W        W38452  43.928   0.711  11.076
70059W        W38453   2.513  31.701   1.287
70060W        W38454  23.560  20.559  14.182
70061W        W38455  34.891  44.798  12.484
70062W        W38456  43.205   7.274  12.615
70063W        W38457  30.649  44.217  12.355
70064W        W38458  17.647  13.688  13.445
70065W        W38459  21.554  14.583  12.784
70066W        W38460  10.752  13.616  13.985
70067W        W38461  17.811  21.017   4.943
70068W        W38462  33.137  28.643   3.845
70069W        W38463   6.815  13.880  14.411
70070W        W38464   6.448  11.795   3.422
70071W        W38465  32.032  18.329   3.789
70072W        W38466   5.104  37.543  14.844
70073W        W38467  41.737   1.658   4.978
70074W        W38468  34.379  28.074   1.758
70075W        W38469  44.881  21.940  13.304
70076W        W38470  14.745  35.067   3.120
70077W        W38471   8.097   4.489  11.922
70078W        W38472  19.767  32.063   4.710
70079W        W38473  29.156  39.397  13.664
70080W        W38474  18.444   5.060   0.500
70081W        W38475   9.398  23.933  14.826
70082W        W38476  18.334  40.529  10.779
70083W        W38477  15.597  18.953   4.078
70084W        W38478  36.106  32.419  13.845
70085W        W38479  37.333   5.323  13.710
70086W        W38480  43.781  20.279   4.541
70087W        W38481  13.581   2.449   3.583
70088W        W38482  19.436  38.784  14.476
70089W        W38483  10.889   0.261   5.052
70090W        W38484   9.378   5.651   2.194
70091W        W38485  27.916  10.168   2.628
70092W        W38486  32.493   5.440   3.095
70093W        W38487  17.345  19.784   1.549
70094W        W38488  32.202   5.803  11.094
70095W        W38489  30.452  35.747   3.575
70096W        W38490  36.489  35.749   1.127
70097W        W38491  17.698  22.178  13.352
70098W        W38492  41.539  15.364   3.189
70099W        W38493  10.616  20.722  13.136
70100W        W38494  15.201  14.013   4.966
70101W        W38495  18.134  41.694   1.398
70102W        W38496  21.256  37.381   2.324
70103W        W38497  39.028  16.743   2.183
70104W        W38498  23.627  24.479  12.967
70105W        W38499  10.095  37.321  11.610
70106W        W38500  15.422   2.502  10.634
70107W        W38501  15.737  39.378  13.960
70108W        W38502   8.221   7.845   1.596
70109W        W38503   6.481  37.822   1.668
70110W        W38504   3.647   2.898   2.198
70111W        W38505  25.150  18.695  13.435
70112W        W38506   9.754  20.611   2.934
70113W        W38507  17.674  22.073   3.535
70114W        W38508  26.676  26.300   0.539
70115W        W38509  20.111  26.576  11.118
70116W        W38510  41.733  24.022   1.766
70117W        W38511  39.561   2.919  11.195
70118W        W38512  34.043  20.395   1.394
70119W        W38513  17.595  25.419   0.532
70120W        W38514  10.751  37.005  13.293
70121W        W38515  41.797  40.192  12.834
70122W        W38516   9.754   3.852  11.489
70123W        W38517  41.491   8.317   0.311
70124W        W38518  35.603  14.653  11.129
70125W        W38519  22.003  11.372  13.359
70126W        W38520  33.170  10.854   0.838
70127W        W38521  19.008  36.865   1.376
70128W        W38522  23.091   6.190  14.333
70129W        W38523   0.240  33.899   1.256
70130W        W38524  37.093  30.029   3.876
70131W        W38525  12.065   6.296   4.554
70132W        W38526  17.360   6.378  10.370
70133W        W38527  33.451  33.746  14.691
70134W        W38528  14.608  42.578   1.457
70135W        W38529  36.703   3.305   1.277
70136W        W38530  25.291   3.305  11.984
70137W        W38531   9.443  18.709   0.415
70138W        W38532  37.626  40.002   2.648
70139W        W38533  37.442  12.742   2.341
70140W        W38534  39.455  17.859   3.836
70141W        W38535  39.028   9.823   4.131
70142W        W38536  11.607  15.987   0.315
70143W        W38537   9.105  28.373   0.238
70144W        W38538  41.561  30.564  14.858
70145W        W38539   1.341  12.837   2.820
70146W        W38540  17.184  10.841   2.726
70147W        W38541  33.164  41.778   2.324
70148W        W38542  37.603  35.143   0.398
70149W        W38543  44.211  40.462   4.015
70150W        W38544  36.998   0.234   4.475
70151W        W38545  36.620  32.382  13.840
70152W        W38546  42.043  41.303  14.114
70153W        W38547  11.216  41.730  12.862
70154W        W38548  14.648  16.153   2.807
70155W        W38549   6.810  29.573  13.240
70156W        W38550  39.016  44.869  10.921
70157W        W38551  16.806  25.022  12.487
70158W        W38552   9.181  34.525  13.654
70159W        W38553  43.231  33.128  14.449
70160W        W38554  15.997   3.369   1.744
70161W        W38555  15.910  23.850   2.082
70162W        W38556  42.556  27.174   1.950
70163W        W38557   7.382  23.343  12.630
70164W        W38558  25.438  12.432   3.391
70165W        W38559  20.756  32.625   0.940
70166W        W38560  42.058  18.107  11.864
70167W        W38561  29.516  40.828  14.270
70168W        W38562  19.196  41.144  10.555
70169W        W38563  14.353  16.344   1.691
70170W        W38564  43.690  40.588  14.862
70171W        W38565  23.442   6.269  10.942
70172W        W38566   1.401  11.805   1.345
70173W        W38567   2.267  41.359   4.768
70174W        W38568  22.669  27.892   1.484
70175W        W38569  19.537  27.187  13.509
70176W        W38570  28.685  10.153   3.635
70177W        W38571  13.594   6.274   0.731
70178W        W38572  40.455  17.670   0.242
70179W        W38573  31.557  24.318   1.462
70180W        W38574  26.157  18.983  10.541
70181W        W38575  33.704  14.771   1.177
70182W        W38576   4.665  33.464   4.358
70183W        W38577   7.900  14.745   2.213
70184W        W38578  43.339   3.962   4.098
70185W        W38579  41.328  12.514   0.497
70186W        W38580   6.695  43.577   3.443
70187W        W38581  22.152  33.094   4.323
70188W        W38582  38.014   7.346   2.400
70189W        W38583   0.441  43.464   1.216
70190W        W38584  29.551  42.921  14.710
70191W        W38585  20.026  40.499   5.032
70192W        W38586  15.153  43.730  14.083
70193W        W38587   2.248   9.372   1.764
70194W        W38588  12.445   1.739   0.207
70195W        W38589   9.221  41.880   0.313
70196W        W38590  12.593  16.473  12.572
70197W        W38591   7.730   6.802   3.639
70198W        W38592  15.621  35.999   4.098
70199W        W38593  28.468   6.521   4.042
70200W        W38594  30.445  39.517   4.229
70201W        W38595  31.840  27.447  13.570
70202W        W38596  27.644   8.345  14.171
70203W        W38597  24.622  44.392   5.003
70204W        W38598  30.221  21.924   2.230
70205W        W38599  29.701  23.888   2.291
70206W        W38600   1.057  13.850  10.796
70207W        W38601  40.276  14.544  12.014
70208W        W38602  29.381  39.940  13.281
70209W        W38603   3.204  12.952   1.885
70210W        W38604  41.574  38.950   2.150
70211W        W38605  36.368  38.136   1.801
70212W        W38606   0.420   7.399   1.828
70213W        W38607  12.474  12.591  12.146
70214W        W38608   2.254   5.136  11.466
70215W        W38609  11.235  19.748  13.867
70216W        W38610   0.772  42.333  12.638
70217W        W38611   9.118  35.960  10.617
70218W        W38612   4.793  32.561   1.431
70219W        W38613   4.559   6.539  12.810
70220W        W38614  27.066  13.147   4.615
70221W        W38615  35.599  34.844   2.221
70222W        W38616  28.933  40.502   3.687
70223W        W38617  27.830  37.507   5.028
70224W        W38618  17.741  43.980   2.856
70225W        W38619   2.358  17.946  10.659
70226W        W38620  38.344  43.822  12.435
70227W        W38621  37.730  14.719   4.669
70228W        W38622  15.257  33.525   2.150
70229W        W38623  31.114  28.128  14.812
70230W        W38624  29.397  12.173   4.242
70231W        W38625  25.645  28.476  11.629
70232W        W38626  19.689  13.354  12.921
70233W        W38627  34.121  30.450  14.907
70234W        W38628  36.087  16.016  10.209
70235W        W38629  34.308  13.575   1.260
70236W        W38630  31.996  14.030  10.658
70237W        W38631  41.543  24.107   0.523
70238W        W38632  17.089   8.632   3.309
70239W        W38633  25.603  14.041   1.193
70240W        W38634  31.701   5.970  11.088
70241W        W38635   8.964  24.430  12.920
70242W        W38636  36.637  38.188   1.349
70243W        W38637  10.669  34.611  11.058
70244W        W38638  19.040  41.947  11.109
70245W        W38639   5.386  21.055   4.079
70246W        W38640  27.904  37.074  11.017
70247W        W38641  44.839   8.371  11.275
70248W        W38642   3.560  40.717  11.165
70249W        W38643  44.270  19.688   2.028
70250W        W38644  10.925  14.300   2.321
70251W        W38645  31.429  37.400   0.528
70252W        W38646  24.369  27.848   3.068
70253W        W38647  31.682  19.975   0.354
70254W        W38648  25.568  31.569   4.008
70255W        W38649  26.633  19.155  13.860
70256W        W38650  28.406  14.308   0.250
70257W        W38651  19.254  14.786  12.208
70258W        W38652  35.926   2.434   0.932
70259W        W38653   8.411  32.235   3.690
70260W        W38654   5.293  12.623   2.827
70261W        W38655   9.833  41.337   4.886
70262W        W38656   3.896   7.736   0.245
70263W        W38657   2.843   0.487   4.371
70264W        W38658  35.664  35.634  13.058
70265W        W38659  17.564  15.288  14.471
70266W        W38660  31.768  20.744   2.349
70267W        W38661  12.766  31.963   3.938
70268W        W38662   4.376  22.604   0.318
70269W        W38663  34.704  32.424   0.685
70270W        W38664   8.351  28.871   1.300
70271W        W38665  19.271  39.562  14.795
70272W        W38666   9.088  12.189  14.603
70273W        W38667  42.396  14.270  10.895
70274W        W38668  37.507  31.571  14.258
70275W        W38669  13.594  38.643   2.412
70276W        W38670  27.677  12.746  12.642
70277W        W38671  37.134  43.311   4.486
70278W        W38672  29.565  17.188  10.580
70279W        W38673  20.602  21.975   1.731
70280W        W38674   1.237   1.919   3.427
70281W        W38675   8.094  32.640  12.649
70282W        W38676   7.776   8.131   0.306
70283W        W38677   7.285  40.372   3.244
70284W        W38678  22.172  14.607   2.779
70285W        W38679   1.740  27.029   1.699
70286W        W38680   4.156  41.528   0.625
70287W        W38681  31.338  27.573  11.114
70288W        W38682   8.310  20.312  10.867
70289W        W38683   2.774  24.882   4.730
70290W        W38684  23.220  32.372  12.109
70291W        W38685  43.544  33.049   0.906
70292W        W38686  25.770  28.004  11.202
70293W        W38687  29.079  26.875   0.575
70294W        W38688  26.024   5.382   0.986
70295W        W38689  25.628  27.160   3.342
70296W        W38690  33.893  31.781  14.797
70297W        W38691  35.872  18.278  14.128
70298W        W38692  25.194   9.204   3.611
70299W        W38693  33.942   4.438  12.839
70300W        W38694  41.559  13.718   4.214
70301W        W38695  36.334  31.987  13.596
70302W        W38696   4.203   5.970   0.933
70303W        W38697  17.641  42.372   1.284
70304W        W38698  15.304  37.002   3.726
70305W        W38699   3.302   2.918   2.607
70306W        W38700   4.102  14.165   4.360
70307W        W38701  39.036  23.984  11.782
70308W        W38702  16.188  22.002  11.098
70309W        W38703  20.647  25.016  12.432
70310W        W38704  40.566  34.452   0.771
70311W        W38705   4.133  40.339   3.243
70312W        W38706  40.801   3.673   1.503
70313W        W38707  44.354  30.024  12.105
70314W        W38708  39.517   6.547  11.564
70315W        W38709   1.061  32.007  12.982
70316W        W38710  20.797  34.554  11.821
70317W        W38711  38.345   2.906   3.447
70318W        W38712  14.339  40.083   0.844
70319W        W38713  17.827  34.620  14.889
70320W        W38714   7.231  11.098  11.181
70321W        W38715   2.775  25.347   2.218
70322W        W38716  13.562  39.042   1.658
70323W        W38717  38.081  38.882  14.771
70324W        W38718   8.621  24.456  14.336
70325W        W38719  43.395  38.529  12.520
70326W        W38720  31.144  17.959   1.312
70327W        W38721  10.708  28.376  10.577
70328W        W38722   3.877  21.196  11.067
70329W        W38723  17.663  15.572   3.242
70330W        W38724   8.593  13.244  11.950
70331W        W38725  20.724  32.389  11.698
70332W        W38726  15.666  22.574  14.478
70333W        W38727  12.470  17.011  14.847
70334W        W38728  42.722   1.796   4.739
70335W        W38729  42.367  26.076  11.233
70336W        W38730   4.439   8.071  10.706
70337W        W38731  32.487  10.651   4.839
70338W        W38732  16.827   6.803  11.753
70339W        W38733  36.800  14.290  13.581
70340W        W38734  15.267  17.049  14.876
70341W        W38735   1.342   3.510  13.043
70342W        W38736  41.929  11.390  12.611
70343W        W38737  18.578  22.144   0.759
70344W        W38738  11.942  29.226  12.012
70345W        W38739  13.805   3.290  14.203
70346W        W38740  23.805   6.298  14.748
70347W        W38741  11.283  42.957   2.927
70348W        W38742  28.952   4.703  11.870
70349W        W38743   9.811  34.996  11.110
70350W        W38744  11.103  18.208  13.910
70351W        W38745  37.382  33.674   0.127
70352W        W38746  35.541   2.062   3.677
70353W        W38747   1.718   5.970   1.007
70354W        W38748  17.564  23.778  13.912
70355W        W38749   8.721  19.030   3.265
70356W        W38750  15.811  20.264  10.675
70357W        W38751   4.915  21.290   0.471
70358W        W38752  21.537   6.530   2.399
70359W        W38753  36.884   2.500   0.447
70360W        W38754   0.945  29.153  13.835
70361W        W38755  17.688  19.997  11.579
70362W        W38756  41.084   6.672   2.897
70363W        W38757  31.612  25.610  12.419
70364W        W38758  36.613  28.592  13.864
70365W        W38759  28.529   4.325   1.672
70366W        W38760  43.881   7.696   1.694
70367W        W38761   3.821  17.424  14.130
70368W        W38762  40.795  31.554  14.317
70369W        W38763  17.296  26.184   2.829
70370W        W38764  36.982  29.554  14.087
70371W        W38765  35.511  28.742  14.480
70372W        W38766   7.192  24.422   2.656
70373W        W38767   3.588  36.000  11.129
70374W        W38768  16.873  11.605   3.664
70375W        W38769  29.561  44.141  11.465
70376W        W38770   0.399  36.843  12.819
70377W        W38771  15.817  35.628  13.044
70378W        W38772  36.933  32.964   4.344
70379W        W38773  17.461  20.198  14.043
70380W        W38774  35.397   3.023  13.396
70381W        W38775   3.811  10.616   3.705
70382W        W38776  20.104  10.087  12.409
70383W        W38777  30.922  15.341  12.634
70384W        W38778  32.499  14.485  12.876
70385W        W38779  35.293  27.315   0.408
70386W        W38780  15.365  12.423  11.202
70387W        W38781  37.823   7.503  13.676
70388W        W38782  12.397  26.615  14.813
70389W        W38783  24.059  10.497  13.415
70390W        W38784  42.054   2.977   3.825
70391W        W38785  18.933   9.664  10.677
70392W        W38786  26.474  24.073  12.100
70393W        W38787  25.777  15.336  13.315
70394W        W38788  39.378  42.952   0.697
70395W        W38789  29.052  33.337  11.480
70396W        W38790  22.187  42.782  13.859
70397W        W38791  43.422  12.480   2.630
70398W        W38792  13.649  11.797   0.419
70399W        W38793   7.912   7.114  11.975
70400W        W38794  15.582   1.205  10.948
70401W        W38795  26.465  11.650   2.451
70402W        W38796  14.073   3.456  11.226
70403W        W38797   0.344  40.352   1.496
70404W        W38798  34.998  37.763   0.523
70405W        W38799  37.320  22.776   2.285
70406W        W38800  11.050  11.763  10.637
70407W        W38801  40.490  38.591  11.580
70408W        W38802  25.400  18.271  11.861
70409W        W38803  14.807  23.722   0.137
70410W        W38804   3.796   2.959   2.712
70411W        W38805  41.386  37.324  12.028
70412W        W38806  21.020   6.798  12.996
70413W        W38807  32.245  22.537  10.223
70414W        W38808   0.942  36.020   0.836
70415W        W38809  11.952  41.399   4.020
70416W        W38810  29.007  17.530  13.401
70417W        W38811  30.393  28.460  12.130
70418W        W38812   0.614  27.807  11.250
70419W        W38813  19.627   9.446  11.624
70420W        W38814  12.753  24.245  14.772
70421W        W38815  15.210  11.412   3.660
70422W        W38816   1.704   9.445  14.959
70423W        W38817  26.951   3.875  14.504
70424W        W38818  25.480  41.930  13.821
70425W        W38819  25.694  30.117   1.897
70426W        W38820  12.714   9.563  12.676
70427W        W38821  16.488  42.800   4.608
70428W        W38822  18.811  24.984   4.566
70429W        W38823  23.417  19.147  11.089
70430W        W38824  38.653  37.586   1.425
70431W        W38825  29.706  29.553  11.574
70432W        W38826  13.731  37.525  13.071
70433W        W38827   7.569  14.587  10.539
70434W        W38828  39.199  44.181   1.819
70435W        W38829   7.157  27.690  12.541
70436W        W38830   7.353   4.799   3.122
70437W        W38831  21.527  13.200   4.084
70438W        W38832  34.597   2.535  11.108
70439W        W38833   2.068  41.591   3.210
70440W        W38834  17.056  41.935  11.327
70441W        W38835  22.580  10.487  14.969
70442W        W38836  21.280  44.531  14.976
70443W        W38837   1.739  31.617  13.389
70444W        W38838  13.817  42.539   4.370
70445W        W38839   6.800   9.391   2.004
70446W        W38840  15.846  15.162  11.354
70447W        W38841  34.611  30.950  11.635
70448W        W38842  38.813  29.127   4.605
70449W        W38843  44.900  21.458   3.090
70450W        W38844  22.348  32.522  14.760
70451W        W38845  30.297  14.945   4.559
70452W        W38846  44.708   7.728  13.077
70453W        W38847  37.198  35.440   3.340
70454W        W38848  29.649  33.891  10.388
70455W        W38849  28.806  32.610   1.351
70456W        W38850  24.289  43.751   3.563
70457W        W38851  23.508  40.785   1.902
70458W        W38852  11.145  36.025   3.837
70459W        W38853  18.334  14.841  14.389
70460W        W38854  10.572   1.080  11.807
70461W        W38855  36.467  35.067  13.079
70462W        W38856  13.893  39.597  12.361
70463W        W38857  42.038  14.095  12.640
70464W        W38858   9.587  23.834   4.546
70465W        W38859   5.921  23.854  14.037
70466W        W38860  29.186  27.007   4.093
70467W        W38861   7.904  13.414  11.500
70468W        W38862   0.535   4.929   0.046
70469W        W38863  40.773   3.771   0.976
70470W        W38864  36.838  21.502   3.801
70471W        W38865  24.495  15.598   0.305
70472W        W38866  33.169  16.577   3.614
70473W        W38867   0.571  38.380  10.168
70474W        W38868  33.022  16.176   3.279
70475W        W38869   7.636  37.801   1.158
70476W        W38870  14.758   7.796   2.893
70477W        W38871  14.590  33.706   0.979
70478W        W38872  11.618   8.761  13.638
70479W        W38873   3.745  36.801   4.532
70480W        W38874   3.521   1.457   3.803
70481W        W38875  17.428  28.089  11.050
70482W        W38876  19.500  35.440   4.148
70483W        W38877  29.980  30.457   3.026
70484W        W38878  17.075   2.977   3.210
70485W        W38879  14.195   1.894  13.406
70486W        W38880   6.846  25.752  11.178
70487W        W38881  20.746  19.052  12.777
70488W        W38882  40.468  26.225  12.130
70489W        W38883  41.434  22.300   0.783
70490W        W38884   2.881  34.026   0.347
70491W        W38885  11.004   2.984  12.045
70492W        W38886  41.300   3.229  12.626
70493W        W38887  38.875  40.517  11.219
70494W        W38888   7.881  37.869   3.743
70495W        W38889  16.878  36.039  11.813
70496W        W38890  13.678   9.281   1.416
70497W        W38891  38.453  44.179   2.143
70498W        W38892  29.107   5.157  14.031
70499W        W38893  16.709  38.223  11.286
70500W        W38894  22.411  28.354   3.665
70501W        W38895  19.757   1.689   3.711
70502W        W38896  13.546  10.683   3.675
70503W        W38897   2.275  17.114  11.463
70504W        W38898   1.547  37.894  12.893
70505W        W38899  42.735   1.691   2.124
70506W        W38900   9.846  36.967   4.882
70507W        W38901   8.738  35.040  11.173
70508W        W38902   3.357  38.039  12.044
70509W        W38903  10.568  27.029  14.840
70510W        W38904  36.464  28.553  10.626
70511W        W38905  42.649   5.438  13.927
70512W        W38906  30.191  20.652   2.652
70513W        W38907  22.679  18.869  13.934
70514W        W38908  31.411   0.974  10.729
70515W        W38909   2.209  41.922  10.695
70516W        W38910  18.045  14.363  14.342
70517W        W38911  17.073  42.549  11.916
70518W        W38912   0.837  29.959   1.316
70519W        W38913  35.351   9.294   2.461
70520W        W38914   1.866  41.709  13.932
70521W        W38915  36.010  37.354  13.060
70522W        W38916  22.378  31.860   3.126
70523W        W38917  12.789  16.690   2.433
70524W        W38918  27.679  40.924   1.650
70525W        W38919  34.924  38.924  14.429
70526W        W38920  39.890  42.073  14.894
70527W        W38921  24.894   3.405  10.486
70528W        W38922  33.064  33.864  14.298
70529W        W38923  13.593  28.753  11.053
70530W        W38924  44.429  42.934  10.181
70531W        W38925   2.559   7.138   2.190
70532W        W38926  40.821  15.732  12.577
70533W        W38927  10.403  44.949   3.245
70534W        W38928  24.476   2.500  10.782
70535W        W38929  19.901  29.135  13.898
70536W        W38930  26.237  22.165  12.282
70537W        W38931   5.739   6.761   2.127
70538W        W38932  21.152  44.895   3.804
70539W        W38933  33.167  18.489  12.975
70540W        W38934  42.972   0.382   0.745
70541W        W38935  27.812  28.235  14.250
70542W        W38936  16.088  36.453   1.339
70543W        W38937  44.319   7.914   0.298
70544W        W38938  12.949  28.216   1.339
70545W        W38939  33.683  12.693   0.374
70546W        W38940  27.645   2.905  10.925
70547W        W38941  16.647  42.526   0.261
70548W        W38942  44.289  15.142  14.409
70549W        W38943  32.391  30.391  11.076
70550W        W38944  34.015  20.602  10.783
70551W        W38945  10.880  23.956   0.647
70552W        W38946  13.207  20.717   2.174
70553W        W38947  28.614   4.726  12.743
70554W        W38948   1.099  38.512  10.158
70555W        W38949  14.598  32.060   3.180
70556W        W38950  39.496  20.983   2.582
70557W        W38951  34.585  24.918   2.917
70558W        W38952  30.007  33.343   4.562
70559W        W38953   5.916  29.433  14.420
70560W        W38954   6.423  19.748   3.002
70561W        W38955  23.260  32.016  11.557
70562W        W38956  24.239   2.593   0.784
70563W        W38957  36.527  37.117   2.063
70564W        W38958   0.726   5.455   2.781
70565W        W38959   3.903  43.708  12.432
70566W        W38960  42.517  31.136   4.271
70567W        W38961  39.426  34.615  13.561
70568W        W38962  23.335  27.980   4.108
70569W        W38963  15.724  32.676  11.082
70570W        W38964   4.527  26.200   0.358
70571W        W38965  26.019   9.711   3.117
70572W        W38966  31.372   5.712  10.732
70573W        W38967  44.471  34.691  11.427
70574W        W38968  44.164  26.002   1.951
70575W        W38969  35.992   9.782   4.451
70576W        W38970  35.619  33.326   2.863
70577W        W38971  28.990   7.377   4.271
70578W        W38972  10.625  12.306  11.149
70579W        W38973  13.568  10.841  13.009
70580W        W38974  24.163  18.276   0.837
70581W        W38975   1.545  13.672  11.640
70582W        W38976  43.607  14.639  11.412
70583W        W38977  15.411  24.898   5.132
70584W        W38978  14.722  20.537  13.464
70585W        W38979  18.682   0.706  13.681
70586W        W38980  40.332  35.419   2.772
70587W        W38981  25.505  15.074  12.915
70588W        W38982  34.327  12.980  13.341
70589W        W38983  12.393  13.139  13.397
70590W        W38984  25.548  19.505  12.688
70591W        W38985  42.979  33.579   1.511
70592W        W38986  18.156   9.560   1.403
70593W        W38987  15.686   0.113  11.095
70594W        W38988  15.781  10.578   2.378
70595W        W38989  43.849   6.738  10.679
70596W        W38990  29.935  36.580   2.506
70597W        W38991  19.762  22.158   0.304
70598W        W38992  15.682  30.572   3.203
70599W        W38993  15.358   5.684  10.734
70600W        W38994   3.762   3.346   0.891
70601W        W38995   6.744  34.440  13.322
70602W        W38996   8.404  16.651   2.867
70603W        W38997  41.668  34.973  14.317
70604W        W38998  43.890  15.174  10.610
70605W        W38999  26.686  43.926  11.085
70606W        W39000   4.636  11.412  14.932
70607W        W39001  37.877   2.599  12.325
70608W        W39002  25.524  25.151   4.380
70609W        W39003  30.293  21.108   2.941
70610W        W39004   5.883  35.551  11.108
70611W        W39005  34.975  38.987   9.936
70612W        W39006  39.874  24.673   1.373
70613W        W39007  14.051  19.639  14.776
70614W        W39008  12.220  16.876  13.162
70615W        W39009   3.308  15.282  11.952
70616W        W39010   7.690  28.378   4.589
70617W        W39011   5.261  31.414  10.430
70618W        W39012  43.812  10.548  10.356
70619W        W39013  32.235  34.320  13.055
70620W        W39014  14.839   1.303  11.139
70621W        W39015  39.385  17.230   0.753
70622W        W39016  12.245  44.704  11.510
70623W        W39017  12.122   8.102   1.338
70624W        W39018  22.629   2.253   2.166
70625W        W39019   9.416  40.327   3.371
70626W        W39020  20.195  39.491   2.327
70627W        W39021   1.861  40.633   2.330
70628W        W39022  19.147  44.712  13.956
70629W        W39023  44.790  21.645   1.648
70630W        W39024  27.548  13.826   1.224
70631W        W39025  33.225  31.177   1.265
70632W        W39026  14.756  30.194  14.368
70633W        W39027   0.785   8.200  13.398
70634W        W39028  29.237  36.126   1.590
70635W        W39029   6.742  13.874  10.717
70636W        W39030  33.873  34.599   4.176
70637W        W39031  22.994  43.934  11.721
70638W        W39032  11.796  16.469   4.521
70639W        W39033  12.915  34.710  11.160
70640W        W39034  28.186   1.420   1.414
70641W        W39035   3.854  25.930  11.966
70642W        W39036  31.087  12.958   5.336
70643W        W39037   3.229  34.111  12.512
70644W        W39038  17.773  26.139   2.582
70645W        W39039   3.681  44.530   0.444
70646W        W39040  32.301  10.299   3.588
70647W        W39041  18.094  25.284  14.125
70648W        W39042   9.918  31.683  14.785
70649W        W39043  24.091  21.552  13.632
70650W        W39044  27.741  14.041   1.730
70651W        W39045  40.815  12.748   0.032
70652W        W39046  43.986  15.062   2.618
70653W        W39047  39.976  37.289  13.398
70654W        W39048  24.533   7.722   1.279
70655W        W39049  18.153  26.594  11.358
70656W        W39050  21.002  23.212   4.658
70657W        W39051  10.388   4.195   3.202
70658W        W39052  25.108  18.607  12.084
70659W        W39053   3.688  23.393   4.167
70660W        W39054   2.799  38.983   4.589
70661W        W39055   3.925  16.476  10.644
70662W        W39056   9.201  32.642  13.355
70663W        W39057   9.227  27.568  11.422
70664W        W39058   0.583  42.751   9.752
70665W        W39059  14.048  11.193   0.814
70666W        W39060  10.325  29.953  10.459
70667W        W39061  24.299   5.477   0.180
70668W        W39062  36.066  15.706   1.575
70669W        W39063  36.982  36.002   1.474
70670W        W39064   6.167  24.751  13.635
70671W        W39065  25.636  41.257  14.406
70672W        W39066  34.127   5.775   1.309
70673W        W39067   0.063   6.900   0.891
70674W        W39068  23.914  18.228  12.399
70675W        W39069  37.393  41.262   3.685
70676W        W39070  12.035  17.191   2.155
70677W        W39071  40.872  21.095  13.820
70678W        W39072  31.521   2.499  10.678
70679W        W39073  15.248  40.378  13.414
70680W        W39074  39.122  38.020  13.927
70681W        W39075  39.151  18.935   5.111
70682W        W39076   6.921  41.018  12.589
70683W        W39077  32.001  15.863   0.304
70684W        W39078  29.680  15.116  12.779
70685W        W39079  19.928  31.900   3.427
70686W        W39080   8.369  13.146  12.937
70687W        W39081  33.409   6.393   2.716
70688W        W39082  36.963  42.406  11.349
70689W        W39083  27.773  22.024  13.409
70690W        W39084  12.939  23.053   1.677
70691W        W39085  30.450  22.959   1.155
70692W        W39086  26.788   8.257  14.937
70693W        W39087  43.826  27.048  13.077
70694W        W39088  11.239  18.682   4.446
70695W        W39089  30.244  27.126   3.238
70696W        W39090   5.653  39.547   1.281
70697W        W39091  12.642  38.068  13.818
70698W        W39092  37.880  12.659  11.423
70699W        W39093  21.131  16.665   0.201
70700W        W39094   1.277  38.260  11.550
70701W        W39095  28.026  28.804  11.827
70702W        W39096  40.946   1.756   4.563
70703W        W39097  33.689  37.868   0.366
70704W        W39098  12.305  12.265  11.189
70705W        W39099   6.461  15.070   4.034
70706W        W39100  31.115  32.039  10.945
70707W        W39101   2.209  25.875   4.230
70708W        W39102  21.919   9.139   3.590
70709W        W39103  33.107  18.324   4.675
70710W        W39104  41.849   2.485   1.760
70711W        W39105  19.621  10.777  12.035
70712W        W39106   3.976  23.215   1.304
70713W        W39107  10.212  39.724   3.392
70714W        W39108   4.828  22.512   3.374
70715W        W39109   2.265   4.399  12.083
70716W        W39110   0.973  19.282   4.434
70717W        W39111   2.269   4.832  10.356
70718W        W39112  30.758  36.094   1.322
70719W        W39113   5.817   1.799  14.565
70720W        W39114   6.601   9.588  14.378
70721W        W39115  21.497   5.373  13.064
70722W        W39116  29.363  23.976  12.989
70723W        W39117  11.129   7.910   1.821
70724W        W39118  26.291  44.902  10.453
70725W        W39119  38.656  11.400  11.713
70726W        W39120  19.423  11.632   3.308
70727W        W39121  19.990   8.098   2.542
70728W        W39122   2.235   8.836   4.801
70729W        W39123  36.347  33.027   3.347
70730W        W39124  30.022  44.010  10.703
70731W        W39125  29.731  42.921   0.212
70732W        W39126  12.578  11.271   2.676
70733W        W39127  16.706  28.940   4.511
70734W        W39128   3.225  16.704   0.457
70735W        W39129  25.004  35.993   3.348
70736W        W39130  18.677  37.762   0.903
70737W        W39131   3.944  40.421   2.766
70738W        W39132  39.972  13.634  11.152
70739W        W39133  44.718   6.204  11.704
70740W        W39134   4.788  32.602  10.762
70741W        W39135  40.363  10.980   3.717
70742W        W39136  17.958  17.756  13.482
70743W        W39137   9.147  20.813   0.908
70744W        W39138  27.089  44.536   1.638
70745W        W39139  28.567   8.614   4.810
70746W        W39140  41.353  44.297  11.484
70747W        W39141   5.960  18.762  14.982
70748W        W39142  43.365  12.600   0.857
70749W        W39143  43.364  19.332  12.652
70750W        W39144  22.822  24.511  11.607
70751W        W39145  15.592  41.537  14.117
70752W        W39146  10.181  12.374  13.029
70753W        W39147  39.581  44.310   2.299
70754W        W39148  17.326   4.836   0.446
70755W        W39149  28.311  20.442   1.048
70756W        W39150  29.552   9.182  10.712
70757W        W39151   7.358   3.771   1.247
70758W        W39152  42.024  38.998  14.595
70759W        W39153   2.290  39.290  11.088
70760W        W39154  21.777  37.884   0.816
70761W        W39155  28.599  10.656  14.457
70762W        W39156  40.535   3.443  12.951
70763W        W39157  12.065   3.957  12.472
70764W        W39158  10.976  44.048  11.784
70765W        W39159  21.659   9.177  10.628
70766W        W39160   3.964  26.018  13.269
70767W        W39161  21.704   9.779  14.970
70768W        W39162  23.998  16.290   1.364
70769W        W39163  27.604   7.955   2.956
70770W        W39164  11.423   5.639   0.327
70771W        W39165  13.453  15.473   3.195
70772W        W39166  14.344  24.240   1.692
70773W        W39167  19.166  42.036  13.010
70774W        W39168  28.157  33.088  11.154
70775W        W39169  34.055   5.688   2.208
70776W        W39170  13.809  12.879  14.074
70777W        W39171  42.877  29.034   0.041
70778W        W39172  23.738  16.087   0.364
70779W        W39173   1.453   2.252  11.515
70780W        W39174  29.977   5.853   4.683
70781W        W39175  35.952  23.637   3.484
70782W        W39176  26.165  40.712   4.201
70783W        W39177  39.919  30.337   1.369
70784W        W39178  29.615  38.798   2.869
70785W        W39179  13.687  24.697   2.272
70786W        W39180  34.615  43.909   3.227
70787W        W39181  42.290   0.486   4.442
70788W        W39182   9.233   5.904  11.214
70789W        W39183  39.636  39.750  14.872
70790W        W39184  27.285  37.992   0.388
70791W        W39185  25.590  27.024  11.526
70792W        W39186  25.066  21.572   3.213
70793W        W39187  17.822  36.068  10.872
70794W        W39188  19.283   6.714  12.403
70795W        W39189  15.701  16.645  13.766
70796W        W39190  15.616   9.985   1.845
70797W        W39191  17.435  25.694   0.945
70798W        W39192  29.388  12.754   3.605
70799W        W39193  38.063   0.751  12.238
70800W        W39194  24.103  15.413  12.847
70801W        W39195  22.541  36.418  13.960
70802W        W39196   1.447  31.568  10.609
70803W        W39197  25.545  29.904  14.012
70804W        W39198  36.297   0.251  13.511
70805W        W39199  22.181  13.134   9.943
70806W        W39200  13.617  32.012   3.791
70807W        W39201  17.758  20.208  14.452
70808W        W39202  31.480  34.623  13.338
70809W        W39203  39.511  11.378  13.459
70810W        W39204  16.707  12.615   0.725
70811W        W39205  17.188  16.553   3.682
70812W        W39206   1.296  10.051  12.088
70813W        W39207   8.647   4.697  11.709
70814W        W39208  42.019   3.877   1.886
70815W        W39209  35.581  38.878  12.466
70816W        W39210  31.517  20.721  14.576
70817W        W39211  28.067  26.122   2.186
70818W        W39212   7.743  29.690   3.699
70819W        W39213  18.827  30.905  13.503
70820W        W39214   7.793  39.870   2.703
70821W        W39215  24.497  25.591  11.487
70822W        W39216  12.969  30.929  11.295
70823W        W39217  30.690  41.107  13.913
70824W        W39218  21.432   3.610   5.199
70825W        W39219  25.475  36.513  14.326
70826W        W39220  33.080  27.581  14.874
70827W        W39221  24.513  25.660   2.377
70828W        W39222  10.873   7.195  12.953
70829W        W39223   4.240  15.356   4.984
70830W        W39224  20.350  14.163  11.826
70831W        W39225  41.961  29.985   3.992
70832W        W39226  11.356   4.429   4.079
70833W        W39227  31.249  21.995   2.414
70834W        W39228   3.912  11.228   2.207
70835W        W39229   8.202  11.150  11.986
70836W        W39230  30.483  20.589  11.480
70837W        W39231  10.774  41.617   1.940
70838W        W39232   1.295  38.354  10.622
70839W        W39233  23.048   4.871   4.611
70840W        W39234  36.358  15.821  12.879
70841W        W39235  30.027  11.883   0.433
70842W        W39236   5.088  22.516  14.901
70843W        W39237  21.348  11.462   2.418
70844W        W39238  18.710  26.390  11.613
70845W        W39239  35.020   9.587  11.380
70846W        W39240   8.792  27.786  13.607
70847W        W39241  13.876  38.372   2.764
70848W        W39242  40.151  10.178  13.994
70849W        W39243  31.425  22.109  14.235
70850W        W39244  37.833   4.450  14.417
70851W        W39245   1.259  22.598   5.025
70852W        W39246  29.092  43.284   2.088
70853W        W39247  21.981  33.621  11.935
70854W        W39248   4.533  33.771   1.757
70855W        W39249  21.902  40.608  11.201
70856W        W39250   6.250  12.836  13.601
70857W        W39251   2.441  21.772   3.026
70858W        W39252  15.120  44.958   0.700
70859W        W39253  20.991  13.158  13.918
70860W        W39254   9.186  10.763   4.425
70861W        W39255  32.033  37.804  13.049
70862W        W39256  30.129  26.494  12.529
70863W        W39257   0.157   4.677  12.419
70864W        W39258  32.604  31.972  14.868
70865W        W39259  38.122  14.546   0.485
70866W        W39260  23.581  15.593   0.273
70867W        W39261  33.145   1.921  14.439
70868W        W39262  26.101   4.787   3.043
70869W        W39263  14.878  23.311  14.485
70870W        W39264  30.104   2.518  12.086
70871W        W39265  36.535  13.594  14.780
70872W        W39266  22.248  39.817  14.927
70873W        W39267  31.855  20.539   3.308
70874W        W39268  37.472  15.857   2.746
70875W        W39269   6.804  10.688   2.237
70876W        W39270  27.174  39.367  11.183
70877W        W39271  19.970  43.593  11.183
70878W        W39272  15.860  17.212   1.661
70879W        W39273  19.721  19.529  14.795
70880W        W39274  29.521  32.042   2.290
70881W        W39275  29.567  38.281   2.854
70882W        W39276  42.845  39.059  14.500
70883W        W39277   9.661  34.119  14.378
70884W        W39278  38.301  39.734  14.581
70885W        W39279  23.091  36.523   2.403
70886W        W39280  18.132  41.402   3.190
70887W        W39281   9.052  28.445   2.774
70888W        W39282   8.676   8.303  10.459
70889W        W39283   0.376   3.545  13.906
70890W        W39284   5.662  18.058  13.007
70891W        W39285  41.049  40.436   2.785
70892W        W39286  12.269  10.791  13.273
70893W        W39287   9.936   9.057   5.088
70894W        W39288  27.261  15.782   0.406
70895W        W39289  24.723  10.282  13.479
70896W        W39290  32.564  37.713   3.614
70897W        W39291  44.493  20.686  12.603
70898W        W39292  19.707   6.103   0.249
70899W        W39293  13.575  30.048   3.517
70900W        W39294   3.712  43.008   0.369
70901W        W39295  22.963   1.960  12.116
70902W        W39296   1.819  42.268   2.789
70903W        W39297  23.103  19.121   4.419
70904W        W39298  21.115  30.046   0.746
70905W        W39299  13.348  39.390   4.402
70906W        W39300  16.359  42.278  13.457
70907W        W39301  15.217   1.245   1.971
70908W        W39302  37.050  12.902  11.678
70909W        W39303  34.425  18.330  10.903
70910W        W39304   2.045  36.542  11.951
70911W        W39305  25.646  33.421  12.165
70912W        W39306  36.121  10.279  10.987
70913W        W39307  17.833   8.888   2.924
70914W        W39308   0.071   4.395   3.765
70915W        W39309   2.482  18.951  11.458
70916W        W39310   1.967   0.544  13.838
70917W        W39311  32.649  38.633  12.492
70918W        W39312  38.387   1.941   0.879
70919W        W39313  38.298  35.988   2.379
70920W        W39314  11.288  10.638   3.716
70921W        W39315  12.764  35.209   1.675
70922W        W39316  34.633  25.716  11.814
70923W        W39317  16.513  31.872   4.958
70924W        W39318  38.882   3.784  10.312
70925W        W39319  36.152  30.290   4.114
70926W        W39320   7.632   8.233  10.552
70927W        W39321  37.624  24.226   0.507
70928W        W39322   8.329  29.478   2.250
70929W        W39323  20.171  29.050   3.688
70930W        W39324   6.745  28.226   4.733
70931W        W39325   6.385  29.255   2.384
70932W        W39326  43.764   7.283  13.485
70933W        W39327   9.400   8.748  14.305
70934W        W39328  13.039   0.392   2.936
70935W        W39329   8.789   3.348   4.788
70936W        W39330  40.031  13.230  14.813
70937W        W39331   5.920  40.397   1.100
70938W        W39332  33.027  34.412   1.688
70939W        W39333   0.570  22.121  11.103
70940W        W39334  11.592  26.263  10.404
70941W        W39335   6.803   1.649  13.471
70942W        W39336  29.402  25.466  11.988
70943W        W39337  17.846  40.438   0.524
70944W        W39338  38.268  33.964  13.352
70945W        W39339  27.078  42.878  12.674
70946W        W39340   3.176  10.863   2.877
70947W        W39341  11.787  15.015  11.456
70948W        W39342  15.601   4.397  12.545
70949W        W39343  38.490  13.563  13.130
70950W        W39344  27.569  25.907   0.962
70951W        W39345  25.901  31.998  10.463
70952W        W39346  44.351   4.150   2.702
70953W        W39347  42.532  42.367  14.417
70954W        W39348  30.854  33.434   3.298
70955W        W39349  29.346  30.301  12.655
70956W        W39350  22.784   5.570   1.155
70957W        W39351  16.625  36.833   4.651
70958W        W39352  12.110  12.034  11.618
70959W        W39353   5.748   3.200  14.232
70960W        W39354  31.203  34.595  10.808
70961W        W39355  30.880  30.696  11.171
70962W        W39356  33.668  39.985   1.344
70963W        W39357  40.700  29.470  10.763
70964W        W39358  34.988  26.967   4.559
70965W        W39359  22.680  17.122   0.878
70966W        W39360  36.421   1.052  12.934
70967W        W39361  35.370  20.474   3.654
70968W        W39362   6.974   5.676  11.703
70969W        W39363  11.386  41.240   1.280
70970W        W39364  16.338  30.924  13.557
70971W        W39365  25.473  28.695  13.558
70972W        W39366  16.780  19.327  14.986
70973W        W39367  28.388   2.674  12.138
70974W        W39368  30.900  11.602   3.207
70975W        W39369  31.917  40.737   2.353
70976W        W39370  43.461  27.214  11.259
70977W        W39371  18.616  20.049   0.987
70978W        W39372   6.769  14.044   9.731
70979W        W39373  42.482  25.638  13.631
70980W        W39374  21.605  43.695   0.341
70981W        W39375  14.088  23.570  14.386
70982W        W39376   2.959  35.511   0.357
70983W        W39377  38.773   4.172   0.801
70984W        W39378  40.771  19.633   0.324
70985W        W39379  15.932   2.262  13.395
70986W        W39380  19.627  40.528   2.555
70987W        W39381  23.969  42.235  10.647
70988W        W39382   1.028  17.505   2.179
70989W        W39383   5.943  38.389  12.862
70990W        W39384   1.983  21.921  13.934
70991W        W39385  18.652  19.275  14.484
70992W        W39386  11.373   6.391  12.144
70993W        W39387  42.493  15.591   2.154
70994W        W39388  38.228  11.065  14.040
70995W        W39389  21.749  21.853   2.879
70996W        W39390  20.014  17.370  11.425
70997W        W39391  12.705  19.532   4.525
70998W        W39392  28.177   1.799   3.755
70999W        W39393  34.136   8.088   3.677
71000W        W39394   7.127  19.186   3.266
71001W        W39395  13.872  23.070  14.306
71002W        W39396  24.730   3.767  11.933
71003W        W39397  18.667  13.858   1.630
71004W        W39398  39.727   5.443  12.511
71005W        W39399  22.734  35.503  10.092
71006W        W39400  39.294   3.341  11.063
71007W        W39401  20.530  24.586   2.317
71008W        W39402  27.694   3.931  14.015
71009W        W39403  30.056  13.801   4.558
71010W        W39404   4.910  28.146   0.205
71011W        W39405  27.537  41.251   4.838
71012W        W39406  37.340   2.805   4.552
71013W        W39407  29.226   4.145  14.208
71014W        W39408  29.442  15.764   1.142
71015W        W39409  23.927  28.452   2.792
71016W        W39410   4.428  26.980  14.422
71017W        W39411   2.896  11.592   3.614
71018W        W39412   0.314  41.396  14.396
71019W        W39413  22.779   2.428   3.747
71020W        W39414  25.967   9.628   1.306
71021W        W39415  24.361  32.054  10.729
71022W        W39416   2.833  36.628   0.209
71023W        W39417   8.883  42.871  10.456
71024W        W39418  31.894   7.384  14.040
71025W        W39419  40.287  23.623   0.025
71026W        W39420  22.115   8.473  13.025
71027W        W39421  31.467  42.272  12.935
71028W        W39422  24.286  25.027   0.990
71029W        W39423  21.361  25.195  11.978
71030W        W39424  12.865  22.328  12.572
71031W        W39425  32.427  35.919   1.867
71032W        W39426  33.629  32.625  14.015
71033W        W39427  19.759   3.377   1.175
71034W        W39428   2.492  37.117   1.906
71035W        W39429  13.357  39.568  14.293
71036W        W39430  41.000  30.709  14.860
71037W        W39431  36.317  14.898  14.122
71038W        W39432  36.951  27.411  13.400
71039W        W39433   6.395  13.178  10.152
71040W        W39434  13.856  24.675   1.767
71041W        W39435  10.097  32.012  12.077
71042W        W39436  37.018   9.849   3.325
71043W        W39437   6.461   7.158   1.826
71044W        W39438  37.366  16.785  14.013
71045W        W39439  25.212   0.825  14.259
71046W        W39440  35.925  28.730   0.541
71047W        W39441  42.952  24.249  11.618
71048W        W39442  19.183  33.693   4.869
71049W        W39443  42.752  27.479  13.417
71050W        W39444  36.263  41.583  13.372
71051W        W39445  31.349  40.606  11.120
71052W        W39446   0.226  18.577  12.944
71053W        W39447  33.131   7.416  14.176
71054W        W39448   2.348  27.237  11.454
71055W        W39449  33.431   9.203  10.518
71056W        W39450  15.362  16.761   2.374
71057W        W39451  35.694   5.278   3.725
71058W        W39452  19.482  38.946   3.221
71059W        W39453  24.558   2.392  12.071
71060W        W39454   5.689  23.684   0.579
71061W        W39455  18.694   9.595   2.548
71062W        W39456  29.864  20.542   1.738
71063W        W39457  39.063  11.657   1.372
71064W        W39458  20.785  16.518  13.001
71065W        W39459   9.266  13.825  14.868
71066W        W39460  36.830  41.771  14.923
71067W        W39461   7.879  14.075   0.901
71068W        W39462   1.614  18.975  10.682
71069W        W39463  34.481  21.729   4.525
71070W        W39464  33.461  16.096   1.434
71071W        W39465  41.385  44.768  14.363
71072W        W39466   3.283   9.744   1.929
71073W        W39467   7.799  30.914  12.604
71074W        W39468   7.299   1.989   1.155
71075W        W39469  16.838  35.905   3.733
71076W        W39470  12.544  26.556   2.364
71077W        W39471  22.644  25.663  12.005
71078W        W39472  29.997  17.117   3.762
71079W        W39473  21.638  32.902  12.271
71080W        W39474  17.038  43.125   3.615
71081W        W39475   9.158  37.089  13.841
71082W        W39476  28.474  20.661  14.552
71083W        W39477  35.866  25.157   1.393
71084W        W39478  16.401  44.043   3.221
71085W        W39479  35.634  39.781  10.683
71086W        W39480  14.830   6.362   3.686
71087W        W39481  31.418  35.364   1.192
71088W        W39482  24.286   9.903  11.997
71089W        W39483  34.389  37.695  13.965
71090W        W39484   8.361   3.726  12.508
71091W        W39485  10.463  20.070   0.433
71092W        W39486  42.329  35.746  14.341
71093W        W39487  34.377  44.565   1.208
71094W        W39488  23.123  17.768  11.526
71095W        W39489   6.020   0.824  12.221
71096W        W39490  38.716  37.217   2.700
71097W        W39491  19.576  14.787   5.062
71098W        W39492  13.395  20.964  10.788
71099W        W39493  25.938  35.947  14.858
71100W        W39494  16.356  26.415   9.728
71101W        W39495  37.041  29.590   4.681
71102W        W39496  22.476  36.114  12.498
71103W        W39497  40.322  44.950   2.087
71104W        W39498   7.301   7.784  12.180
71105W        W39499   9.190  21.294  13.865
71106W        W39500  23.034  30.122  12.410
71107W        W39501  34.161   5.159   3.757
71108W        W39502  14.908  44.281   1.874
71109W        W39503   3.839  10.130   4.431
71110W        W39504   7.781  11.775   0.533
71111W        W39505  32.000  33.683   0.520
71112W        W39506  39.520   0.373  13.318
71113W        W39507   6.942  39.052  14.260
71114W        W39508   5.809  30.974   3.231
71115W        W39509   1.756  26.186  12.199
71116W        W39510  32.553   5.196   4.589
71117W        W39511   8.360  33.822   3.875
71118W        W39512   3.438  30.503  11.751
71119W        W39513  40.417   0.782  10.462
71120W        W39514  13.048  12.908  13.976
71121W        W39515   1.754  11.558  13.874
71122W        W39516  38.533  16.896   3.210
71123W        W39517  21.585  32.221   4.020
71124W        W39518  30.985  38.802   2.862
71125W        W39519  31.049  34.359  11.235
71126W        W39520  31.924  21.738   1.967
71127W        W39521  31.421   2.881   0.934
71128W        W39522  20.679  20.491  10.728
71129W        W39523  24.809  14.577   2.049
71130W        W39524  18.326  31.970   1.217
71131W        W39525  39.536  29.436   1.337
71132W        W39526   3.684   8.294  14.414
71133W        W39527  31.883  37.055   0.783
71134W        W39528  25.165   1.686  14.508
71135W        W39529  14.785  16.538   0.445
71136W        W39530  15.148  32.763   2.293
71137W        W39531  21.460   8.105   2.657
71138W        W39532  37.025  13.685   0.549
71139W        W39533   8.139  23.598  10.592
71140W        W39534   0.348  41.777   0.820
71141W        W39535  18.993  25.570  10.297
71142W        W39536  32.708  39.006  12.914
71143W        W39537  24.962  41.575  11.513
71144W        W39538  25.418  35.532  11.949
71145W        W39539   8.761   2.893  12.457
71146W        W39540  28.346   0.878  13.827
71147W        W39541  18.111  14.101  13.899
71148W        W39542  36.099  33.370  13.544
71149W        W39543  42.727  20.577   1.803
71150W        W39544  39.749  28.496  12.306
71151W        W39545  11.073  15.094  14.737
71152W        W39546  38.969  24.582   1.696
71153W        W39547  23.464  40.501   1.458
71154W        W39548  26.009   9.025  14.936
71155W        W39549   8.192  30.896  14.462
71156W        W39550  35.960  34.534   2.399
71157W        W39551  17.186  27.748  13.412
71158W        W39552  30.564  20.524  14.151
71159W        W39553   5.230  13.400   9.873
71160W        W39554   0.744  32.762   4.302
71161W        W39555  14.309   5.207  14.487
71162W        W39556  11.150  25.398   0.485
71163W        W39557   7.649   8.482  14.866
71164W        W39558   2.187  20.906   3.935
71165W        W39559  22.412  17.400   1.227
71166W        W39560  14.253  17.774   4.893
71167W        W39561   9.956   0.527   0.896
71168W        W39562  37.449  10.912   1.393
71169W        W39563  21.709  41.809  10.595
71170W        W39564  10.790  26.628   1.920
71171W        W39565  25.075   9.441   1.362
71172W        W39566  19.636  16.464  11.753
71173W        W39567   0.316  24.867  14.187
71174W        W39568   3.009   6.671  12.814
71175W        W39569  33.956  10.869  10.547
71176W        W39570   0.383   2.402   4.648
71177W        W39571  18.594   4.766   4.122
71178W        W39572  39.811  41.888  13.411
71179W        W39573  29.694   6.894   4.556
71180W        W39574  16.100  11.332  14.324
71181W        W39575  22.948  10.255  10.844
71182W        W39576   8.864  42.894   2.432
71183W        W39577  26.102  26.231   1.368
71184W        W39578  31.454  34.822   3.343
71185W        W39579  31.557  40.228  14.311
71186W        W39580  31.143  20.184   2.155
71187W        W39581   3.654  39.376  14.811
71188W        W39582  18.482  32.563  10.730
71189W        W39583   5.367  17.597   1.232
71190W        W39584  11.633  42.756   1.976
71191W        W39585  17.017  42.049   5.019
71192W        W39586  30.084  35.496  11.601
71193W        W39587  28.709   7.896   2.712
71194W        W39588  30.815  13.262  11.244
71195W        W39589  20.116   7.308   4.551
71196W        W39590   6.833  26.567  10.785
71197W        W39591  21.039  30.560   0.796
71198W        W39592  22.482   8.916  12.327
71199W        W39593  11.603  33.200   1.412
71200W        W39594  42.940  30.614   4.706
71201W        W39595  16.735  17.634  12.637
71202W        W39596  11.694   8.484  12.379
71203W        W39597  10.155  38.082  12.935
71204W        W39598   8.891  21.661  14.848
71205W        W39599   8.888  21.669  11.346
71206W        W39600  43.497  16.549  11.598
71207W        W39601  25.414  41.796  11.614
71208W        W39602  29.092   1.947  11.538
71209W        W39603  28.123  17.733   4.594
71210W        W39604  31.247   6.614  11.704
71211W        W39605  19.255  29.973   3.593
71212W        W39606  11.958  29.084   3.645
71213W        W39607   8.393   4.000  14.774
71214W        W39608  31.392  36.932  13.361
71215W        W39609  13.148  30.404  13.658
71216W        W39610   1.018  42.567  14.036
71217W        W39611  12.692  44.590   0.215
71218W        W39612   1.805  32.929   3.726
71219W        W39613  28.103   6.412   0.978
71220W        W39614  28.307  30.799  10.261
71221W        W39615  35.392  36.322  11.708
71222W        W39616  15.675  10.141  14.342
71223W        W39617   6.123  44.440   4.215
71224W        W39618  25.632  25.034   2.628
71225W        W39619  12.171  25.237  11.664
71226W        W39620  28.130  10.115   1.860
71227W        W39621  34.196   8.295  13.814
71228W        W39622   3.681  26.564   2.598
71229W        W39623  23.064  15.550  14.542
71230W        W39624   8.594  11.182   0.360
71231W        W39625  10.585  27.620   1.687
71232W        W39626  31.431   7.149   1.444
71233W        W39627  22.172  13.855   1.119
71234W        W39628  10.716  25.638   3.979
71235W        W39629  17.166  20.168   4.199
71236W        W39630   6.680  31.104   1.941
71237W        W39631  28.249  12.673  11.371
71238W        W39632   9.947  19.234  13.369
71239W        W39633  15.653  36.458   4.496
71240W        W39634  20.691  14.621  13.422
71241W        W39635   5.758  23.632   4.528
71242W        W39636  41.298  20.357   3.772
71243W        W39637  40.787   1.929   2.920
71244W        W39638  39.911  42.330   1.854
71245W        W39639  42.686  40.230  11.602
71246W        W39640   6.385  38.463  11.453
71247W        W39641  34.248  33.580  13.716
71248W        W39642  19.234  24.520   1.245
71249W        W39643  21.454  10.125   9.796
71250W        W39644  13.074  24.988   2.823
71251W        W39645   2.556  34.977   4.642
71252W        W39646   4.752  10.126   3.286
71253W        W39647  16.025  13.616   0.326
71254W        W39648  24.084  22.129  11.603
71255W        W39649  19.503  17.221  11.450
71256W        W39650  37.841  34.107   1.244
71257W        W39651   8.378   6.242  11.081
71258W        W39652  29.254  18.617  12.094
71259W        W39653  16.760  37.321   4.874
71260W        W39654   3.726  15.320  13.815
71261W        W39655  43.810  44.514  11.934
71262W        W39656   3.908  31.991  12.160
71263W        W39657   3.237  24.052   3.321
71264W        W39658   9.616   7.158  12.459
71265W        W39659  34.670  38.539  10.629
71266W        W39660  44.739  35.852  11.072
71267W        W39661  14.697   6.255   0.811
71268W        W39662  39.708  21.117  10.934
71269W        W39663  41.414  14.821  11.137
71270W        W39664   1.352  23.633   3.200
71271W        W39665  31.623  36.935  10.714
71272W        W39666  44.776  14.588   2.277
71273W        W39667   3.564  35.026  11.635
71274W        W39668  26.000  17.223   4.529
71275W        W39669  33.439  22.984   3.369
71276W        W39670  22.236  39.557  13.203
71277W        W39671   6.112   4.707  12.713
71278W        W39672  11.207  43.055   2.422
71279W        W39673  40.839  39.894   3.814
71280W        W39674  26.417   7.224   1.247
71281W        W39675   6.663   7.313  13.078
71282W        W39676  14.463  41.074  14.287
71283W        W39677  17.857  19.041  12.959
71284W        W39678  18.669  35.781   0.616
71285W        W39679   2.735  15.107  10.868
71286W        W39680  40.933  34.246   1.450
71287W        W39681   5.937   1.832  10.688
71288W        W39682  16.364  23.081   2.200
71289W        W39683  36.958  12.522   3.751
71290W        W39684  29.410  44.414   1.218
71291W        W39685   8.754  34.826  13.006
71292W        W39686  39.589   2.832   3.609
71293W        W39687  24.496   4.260  11.876
71294W        W39688  34.056   1.282   4.541
71295W        W39689   0.964  40.997   2.180
71296W        W39690  40.911   9.292   2.808
71297W        W39691  32.370  18.804  13.128
71298W        W39692  11.249  16.735   0.517
71299W        W39693  21.114  43.648  12.972
71300W        W39694  25.623   8.879   3.623
71301W        W39695  20.753  16.099  14.589
71302W        W39696  11.462  22.179   1.857
71303W        W39697  26.728  11.850   4.392
71304W        W39698  20.395   3.900  14.513
71305W        W39699   3.395  43.438   0.527
71306W        W39700  43.302   4.369  11.577
71307W        W39701  14.118  24.135   1.228
71308W        W39702  24.382  29.250  13.087
71309W        W39703  43.277  34.554  12.940
71310W        W39704  29.510  18.656  12.541
71311W        W39705   4.059  22.096  14.305
71312W        W39706  20.075  27.526  11.187
71313W        W39707  34.355  14.073  12.271
71314W        W39708  41.735  33.620  13.449
71315W        W39709  44.273  35.920   3.211
71316W        W39710  26.122  42.954   4.278
71317W        W39711  30.081  11.992   0.974
71318W        W39712  44.977  39.440   1.284
71319W        W39713   7.533   3.779  14.879
71320W        W39714  20.099   0.752   0.448
71321W        W39715   1.416   5.354   4.102
71322W        W39716  12.320  33.160  13.508
71323W        W39717   9.035  31.144  13.635
71324W        W39718  10.763   4.767  11.563
71325W        W39719  32.438  41.171   1.000
71326W        W39720   9.595  20.214  12.499
71327W        W39721  42.793  33.545   0.931
71328W        W39722   1.786  15.074  10.883
71329W        W39723  20.890  28.064  13.022
71330W        W39724  38.290  14.112   0.314
71331W        W39725  18.667  30.421  14.996
71332W        W39726  17.552  30.974   0.858
71333W        W39727  13.091  29.038  14.805
71334W        W39728  35.338   4.246   0.019
71335W        W39729   0.510  14.128   2.409
71336W        W39730   5.697   4.289   1.835
71337W        W39731  38.508  43.810   0.514
71338W        W39732  39.800  19.313  14.505
71339W        W39733  40.883   7.672   3.743
71340W        W39734   4.162  29.909  13.648
71341W        W39735  38.829  21.577   3.608
71342W        W39736   8.443  32.065   2.803
71343W        W39737  21.250  41.071   1.733
71344W        W39738  29.463  39.794   2.700
71345W        W39739  10.761  12.573  14.782
71346W        W39740  17.644  16.654   0.839
71347W        W39741  30.643  40.290  14.338
71348W        W39742  14.609   0.062   0.875
71349W        W39743  17.213  43.839   2.695
71350W        W39744  43.966  42.975   0.046
71351W        W39745  41.515  19.706   0.781
71352W        W39746  11.590  14.493   2.653
71353W        W39747  39.493  29.561  14.464
71354W        W39748  21.396  16.782   0.924
71355W        W39749  41.101  38.836   0.729
71356W        W39750  11.876  32.303  12.014
71357W        W39751  31.969   6.596   0.883
71358W        W39752  41.019   6.212  13.929
71359W        W39753  11.579  13.240  13.880
71360W        W39754  37.001  25.045   2.660
71361W        W39755  10.200  16.771   3.335
71362W        W39756  13.358  40.459   1.747
71363W        W39757  35.803  18.590   2.748
71364W        W39758  40.764  16.000  14.007
71365W        W39759   1.191   1.795   2.397
71366W        W39760  33.503  29.506  14.044
71367W        W39761  10.246  40.767  13.999
71368W        W39762  20.304   6.844  13.506
71369W        W39763  28.294  28.229  13.654
71370W        W39764  38.696  10.381   0.714
71371W        W39765   1.205  42.543  11.358
71372W        W39766  29.722  37.119  14.206
71373W        W39767  38.907  23.741   0.983
71374W        W39768  36.282  25.232  14.981
71375W        W39769   4.943   8.261   3.259
71376W        W39770  34.496  40.577  13.820
71377W        W39771  14.082  40.017  14.975
71378W        W39772  11.661   7.423  12.428
71379W        W39773  42.467  25.887  12.125
71380W        W39774  21.567   2.412  11.497
71381W        W39775  12.807  33.338  10.771
71382W        W39776  13.064  22.530  14.458
71383W        W39777  19.740  27.883  11.027
71384W        W39778  40.854  41.258  13.924
71385W        W39779   5.234   7.108   2.802
71386W        W39780   6.896  26.487   3.230
71387W        W39781  30.099  24.659   2.179
71388W        W39782   8.768  44.493  13.583
71389W        W39783   6.357  29.985   3.692
71390W        W39784   3.735   6.773  11.988
71391W        W39785  39.850  42.314   0.956
71392W        W39786  42.850  15.745  11.204
71393W        W39787   1.929  25.601   1.392
71394W        W39788  40.376   9.308  13.980
71395W        W39789  25.490  14.425   2.207
71396W        W39790   5.780  39.397   2.195
71397W        W39791  34.703  31.464  10.910
71398W        W39792  12.534  39.433  13.039
71399W        W39793  39.132  15.214   2.115
71400W        W39794  27.488  33.673  11.539
71401W        W39795  21.198  13.252   3.698
71402W        W39796  18.085  30.655  13.386
71403W        W39797  11.321   6.342   3.027
71404W        W39798  42.998   9.704  14.784
71405W        W39799  38.195   5.774  14.262
71406W        W39800  42.392   9.509   1.662
71407W        W39801   5.308   7.894   3.313
71408W        W39802  15.344   4.893  13.390
71409W        W39803  11.699  25.698   0.300
71410W        W39804  18.160   0.698  14.507
71411W        W39805  42.619  29.043  13.153
71412W        W39806  39.238  13.162   3.051
71413W        W39807   8.197  21.086   4.326
71414W        W39808  23.809   0.422  13.784
71415W        W39809  24.165   6.770   0.417
71416W        W39810  38.990  12.139  10.986
71417W        W39811  14.219  40.937   0.292
71418W        W39812  16.516   1.448   3.251
71419W        W39813  24.262  37.569   1.948
71420W        W39814  33.913  25.625   4.903
71421W        W39815  42.535  34.721   4.877
71422W        W39816  18.355  34.641   2.306
71423W        W39817  38.039   0.277  12.033
71424W        W39818  40.764   7.864  10.746
71425W        W39819  12.813  24.977   0.125
71426W        W39820  35.233  11.314  14.963
71427W        W39821   3.063  37.518   2.858
71428W        W39822  11.132  36.542  10.382
71429W        W39823  35.103  44.416   2.789
71430W        W39824   4.767  38.000   3.563
71431W        W39825  30.310  28.662   0.520
71432W        W39826  13.237  18.555  13.518
71433W        W39827  16.714  40.353  10.627
71434W        W39828  10.764  20.115  10.887
71435W        W39829  38.653  19.782   4.179
71436W        W39830   9.405  33.370   3.184
71437W        W39831  13.121  20.065   1.838
71438W        W39832   0.754  21.061   1.269
71439W        W39833   2.413   6.752  12.842
71440W        W39834   2.125  12.892  12.483
71441W        W39835  20.206  33.888   1.912
71442W        W39836   1.430  40.292  12.866
71443W        W39837  20.207  16.623  14.223
71444W        W39838  36.466  18.584  14.931
71445W        W39839   3.833  39.142   0.735
71446W        W39840   3.830  23.641  11.969
71447W        W39841  43.237  35.892   5.055
71448W        W39842  42.040  18.766   4.346
71449W        W39843   0.459  20.537  12.614
71450W        W39844  30.885  30.929   0.644
71451W        W39845  31.502  40.564  14.718
71452W        W39846  38.036   6.203   0.222
71453W        W39847  33.473  22.689  10.667
71454W        W39848  37.362  30.483  12.235
71455W        W39849   6.700   7.863   1.226
71456W        W39850  38.810  28.674  11.563
71457W        W39851  33.841  40.462   2.393
71458W        W39852  35.385   2.199  13.965
71459W        W39853  22.535  31.023  14.350
71460W        W39854  30.523   9.816   1.346
71461W        W39855   0.368  39.978  14.383
71462W        W39856  28.977  44.838   2.634
71463W        W39857  23.154   3.225   4.194
71464W        W39858  44.679   9.066  13.489
71465W        W39859  16.726  28.750   3.218
71466W        W39860  43.845   2.809  12.015
71467W        W39861  35.037   3.854   0.479
71468W        W39862  42.996  36.406  14.264
71469W        W39863  32.351  26.683   0.948
71470W        W39864  18.340   0.763   0.957
71471W        W39865  14.596  21.602  11.606
71472W        W39866  11.114   5.670  10.871
71473W        W39867  40.802   8.407   1.866
71474W        W39868  19.276  23.913  14.005
71475W        W39869  29.939   8.039  13.348
71476W        W39870  43.739  44.252   4.800
71477W        W39871  21.265  33.555   4.374
71478W        W39872  37.566  35.547   0.060
71479W        W39873  31.762  35.515  12.580
71480W        W39874  13.015  40.778  10.787
71481W        W39875  29.730   4.439   3.832
71482W        W39876  37.275  43.464   1.872
71483W        W39877  21.865  14.431   4.583
71484W        W39878  19.770  36.651  12.170
71485W        W39879   1.862  30.630  14.503
71486W        W39880   8.469  18.202  11.484
71487W        W39881   0.369  35.458   3.856
71488W        W39882  30.679   3.967  11.693
71489W        W39883  27.985   3.776  10.917
71490W        W39884  25.481  10.745   0.389
71491W        W39885   8.757  44.732  12.777
71492W        W39886   0.389  36.972   4.488
71493W        W39887  35.345  38.803  11.489
71494W        W39888  41.706  34.703  14.765
71495W        W39889  20.495  35.073  10.665
71496W        W39890  10.271  12.330  13.966
71497W        W39891  42.405  12.199   4.073
71498W        W39892  11.756  18.206   4.864
71499W        W39893   3.883  23.164  12.589
71500W        W39894   6.977  40.543   3.630
71501W        W39895   3.529   7.018   2.513
71502W        W39896   0.025   6.661  13.792
71503W        W39897  16.380  31.507  14.845
71504W        W39898  15.802  10.035   4.498
71505W        W39899  36.084  19.773  12.069
71506W        W39900  44.220  14.725   0.002
71507W        W39901  11.963  27.184  10.732
71508W        W39902  24.562  44.512  14.445
71509W        W39903  41.385  22.497   1.267
71510W        W39904  43.027   0.398  12.293
71511W        W39905  42.979   9.308   3.885
71512W        W39906   8.535  36.979   1.895
71513W        W39907  28.445  38.334   2.265
71514W        W39908  28.438  17.199   1.314
71515W        W39909  26.470  22.358   0.356
71516W        W39910  23.577  23.688   3.859
71517W        W39911  26.632  30.174   4.084
71518W        W39912  17.781  35.394   1.957
71519W        W39913   9.386  43.277  11.889
71520W        W39914  21.275  33.584  13.791
71521W        W39915  38.112  18.213   3.360
71522W        W39916  32.222  32.123   2.308
71523W        W39917  20.746  32.838  12.414
71524W        W39918  14.685  13.155   3.622
71525W        W39919  27.584   1.435  14.701
71526W        W39920  23.594  28.879  12.587
71527W        W39921  13.409  44.931   4.880
71528W        W39922  10.701  40.472   1.275
71529W        W39923  12.160  24.430   0.372
71530W        W39924  12.216  38.135  12.894
71531W        W39925  19.964  18.218   4.128
71532W        W39926  36.017  31.371  11.285
71533W        W39927  42.097  34.501   5.020
71534W        W39928  17.614  12.779  12.469
71535W        W39929  43.438  11.559   0.946
71536W        W39930  40.008  42.969  14.295
71537W        W39931  25.762  10.184   4.919
71538W        W39932  21.032  15.219  12.987
71539W        W39933  23.687  27.485   2.755
71540W        W39934  12.896  10.808  14.946
71541W        W39935  22.883  20.809  14.551
71542W        W39936  37.813  42.416  11.697
71543W        W39937  36.202   6.927   4.620
71544W        W39938   6.154  14.377  14.715
71545W        W39939  21.982  42.963   2.342
71546W        W39940  33.903  34.836  12.940
71547W        W39941  25.580   7.739   2.309
71548W        W39942  27.497  16.518  11.542
71549W        W39943  12.214  16.616  13.601
71550W        W39944   3.338   7.760   3.542
71551W        W39945  18.085  35.586  14.919
71552W        W39946  20.534  43.027  14.364
71553W        W39947  44.817  30.088  11.224
71554W        W39948   1.203   3.863   4.198
71555W        W39949  37.654  21.310  11.005
71556W        W39950  25.793  37.759   2.867
71557W        W39951  33.643   8.069   0.353
71558W        W39952  40.774  41.898   4.599
71559W        W39953  37.293  42.245   2.806
71560W        W39954  32.568  44.204   1.255
71561W        W39955  12.477  23.101  14.800
71562W        W39956  23.185  18.601  14.947
71563W        W39957  28.086  21.118   0.316
71564W        W39958  12.547  18.917   3.780
71565W        W39959  26.218  22.569   4.549
71566W        W39960  24.167  21.335   0.347
71567W        W39961  12.380  29.425   1.783
71568W        W39962   7.748   7.238  13.775
71569W        W39963   6.472   3.886  12.829
71570W        W39964  18.266  17.642  14.426
71571W        W39965  35.704  23.951   0.931
71572W        W39966   7.928  34.938   3.759
71573W        W39967  44.133   8.140  11.414
71574W        W39968  28.583  32.502   2.267
71575W        W39969   5.263  33.138  13.314
71576W        W39970  19.694  14.347  13.103
71577W        W39971  34.313  24.544   4.205
71578W        W39972   6.421  29.415  13.535
71579W        W39973  40.490   3.690  13.409
71580W        W39974  42.437  39.791  11.598
71581W        W39975  21.052   3.143   2.253
71582W        W39976   4.894   5.291   1.173
71583W        W39977   1.999  35.289   4.157
71584W        W39978  16.193   8.342   2.804
71585W        W39979  39.818  33.028   2.712
71586W        W39980   3.812  19.235  13.145
71587W        W39981  43.095   1.761   0.543
71588W        W39982  40.177  35.667  12.136
71589W        W39983  14.238   5.506  11.142
71590W        W39984  10.182  12.098  13.494
71591W        W39985  14.743  15.184  14.723
71592W        W39986  19.158  15.518  14.513
71593W        W39987   9.192  24.743  12.581
71594W        W39988  25.597  41.554  10.700
71595W        W39989  33.850  28.790   2.030
71596W        W39990   8.365   3.734   2.246
71597W        W39991  13.640   7.317  14.509
71598W        W39992  37.730  36.340   3.309
71599W        W39993  18.022  44.780   0.509
71600W        W39994  42.896  27.967   5.221
71601W        W39995  24.512  27.935   1.444
71602W        W39996  13.627   1.548   2.813
71603W        W39997  11.107  22.628  10.586
71604W        W39998  31.470  17.266   2.098
71605W        W39999  31.710  26.451   1.321
71606W        W40000  29.438  41.410  11.972
71607W        W40001  26.499  40.372   3.610
71608W        W40002  25.544   5.295  12.495
71609W        W40003  18.139  10.656   4.631
71610W        W40004   0.583  22.638  11.126
71611W        W40005  21.559   8.952  14.276
71612W        W40006  14.748  12.728   0.576
71613W        W40007  41.424  41.703   5.028
71614W        W40008  11.095  41.273  14.379
71615W        W40009  13.305  22.269   0.329
71616W        W40010   5.413  10.576   0.937
71617W        W40011   0.096   1.110  12.466
71618W        W40012  13.707  25.491  12.317
71619W        W40013   8.932  27.445   3.352
71620W        W40014   6.811  35.337  12.865
71621W        W40015   7.490  18.952  14.379
71622W        W40016  40.247  26.988   1.446
71623W        W40017  25.677   2.811   0.628
71624W        W40018  33.475  14.451   0.775
71625W        W40019  16.466  31.983   4.038
71626W        W40020  38.966  42.440   2.918
71627W        W40021  28.483  32.196  11.308
71628W        W40022  40.209  33.025  13.340
71629W        W40023   5.291   4.667  12.044
71630W        W40024  26.691  31.988   3.604
71631W        W40025  42.856   4.904   4.479
71632W        W40026   2.689   3.303   0.935
71633W        W40027   3.411   7.402   4.414
71634W        W40028  33.839   8.215   4.108
71635W        W40029  35.664  27.628   1.319
71636W        W40030   5.860  35.914  10.736
71637W        W40031  14.121  25.219   1.297
71638W        W40032  34.506  29.286  10.739
71639W        W40033  33.173  28.509  11.528
71640W        W40034  27.516   0.880   0.365
71641W        W40035  38.479   9.689  13.081
71642W        W40036  17.269   0.181   1.886
71643W        W40037  36.496  25.790  14.349
71644W        W40038  32.543  17.840   1.843
71645W        W40039  31.993  17.988   4.625
71646W        W40040  37.227  37.252   4.070
71647W        W40041   2.175  30.804   1.306
71648W        W40042  41.230   8.756   1.978
71649W        W40043   6.191  13.833  13.838
71650W        W40044  22.888  41.328  14.604
71651W        W40045   8.659  27.870  10.420
71652W        W40046   9.717  24.581   4.280
71653W        W40047  15.882  40.463   2.338
71654W        W40048   5.716   0.788  11.821
71655W        W40049  36.572  22.186   2.436
71656W        W40050  15.303   1.001   4.773
71657W        W40051  37.306  43.872  14.403
71658W        W40052  38.810  23.624   1.810
71659W        W40053  30.543  43.986   2.309
71660W        W40054  41.118  34.612  11.655
71661W        W40055  22.621  39.229  13.307
71662W        W40056   0.996  12.786   1.300
71663W        W40057   6.684  39.496   1.239
71664W        W40058   5.168  31.391  11.995
71665W        W40059  18.004  16.733  13.186
71666W        W40060  43.310  38.841  11.123
71667W        W40061  26.571  10.799   3.985
71668W        W40062  42.301  33.574  12.696
71669W        W40063  37.912   3.971  11.221
71670W        W40064   6.356  40.354  10.136
71671W        W40065  16.084  40.406   3.720
71672W        W40066  27.665  19.281  13.499
71673W        W40067  29.269  11.787  10.716
71674W        W40068   6.229  20.371   2.346
71675W        W40069  35.179  39.465  13.460
71676W        W40070   7.141  36.931   2.179
71677W        W40071  27.913  14.085   5.254
71678W        W40072   8.987  12.151   0.127
71679W        W40073  24.544   4.871  13.439
71680W        W40074  42.201  17.294   2.186
71681W        W40075  43.017  23.961  12.034
71682W        W40076  32.933   5.626  11.441
71683W        W40077  34.900  31.937  10.951
71684W        W40078  30.051  32.297   3.547
71685W        W40079  12.614  34.432   3.692
71686W        W40080  19.170   3.529  12.451
71687W        W40081  16.837  19.575   1.862
71688W        W40082   0.399   4.726   2.146
71689W        W40083  10.935   5.969   3.090
71690W        W40084  27.097  27.320  13.913
71691W        W40085  34.764   1.241  14.358
71692W        W40086   2.326  10.412   1.803
71693W        W40087  39.636  18.308  11.649
71694W        W40088  44.269  34.433  12.103
71695W        W40089  21.138  40.912  10.438
71696W        W40090  26.722  24.491   1.372
71697W        W40091  38.477  17.038   4.167
71698W        W40092  30.513  13.195   2.645
71699W        W40093  18.260  23.755  13.366
71700W        W40094  21.968  16.199   1.241
71701W        W40095   4.731   0.238  12.677
71702W        W40096   3.022   7.668   1.388
71703W        W40097  18.357   6.263   0.732
71704W        W40098  10.869  19.807   3.227
71705W        W40099  29.468  43.374  12.269
71706W        W40100  15.323  30.703  10.431
71707W        W40101  15.036  19.124   2.270
71708W        W40102  11.115  16.007   1.258
71709W        W40103   4.056  21.485   3.700
71710W        W40104  26.967  15.684  14.982
71711W        W40105  37.561  39.960  10.712
71712W        W40106   0.121  33.431   3.830
71713W        W40107  31.290   3.716   0.508
71714W        W40108  24.617   1.216  14.978
71715W        W40109  14.384  15.306   1.724
71716W        W40110  11.592   4.050  14.844
71717W        W40111   8.335  10.354  11.902
71718W        W40112  29.988  10.513   1.066
71719W        W40113  34.452  43.002   1.977
71720W        W40114  39.613  11.439   1.494
71721W        W40115  32.526  34.217  11.957
71722W        W40116  11.798  40.012  13.129
71723W        W40117  44.190   4.337   0.039
71724W        W40118  36.923  38.450  14.955
71725W        W40119  39.375  19.268  11.378
71726W        W40120  42.400  24.312  14.508
71727W        W40121   7.628  28.473   2.453
71728W        W40122  20.813  38.957  13.403
71729W        W40123  33.836  42.670  10.790
71730W        W40124   4.317  36.465   2.733
71731W        W40125  30.955  14.589  11.719
71732W        W40126   1.701  14.080   3.575
71733W        W40127  19.188   6.608   2.822
71734W        W40128  16.808  13.228   1.331
71735W        W40129  19.568  39.036   9.721
71736W        W40130  38.092   7.140  11.041
71737W        W40131   9.216  11.440  12.571
71738W        W40132  10.636  20.805   2.445
71739W        W40133  15.079  13.670  13.604
71740W        W40134   0.910  15.875   3.183
71741W        W40135  12.095  28.141  13.962
71742W        W40136  13.864  13.885  10.707
71743W        W40137  39.797  29.898  12.990
71744W        W40138  32.159  38.890   1.437
71745W        W40139   2.666  15.787   3.105
71746W        W40140  43.501  25.667  13.335
71747W        W40141  20.310  21.102   4.107
71748W        W40142  15.602  37.937   9.767
71749W        W40143   5.884  26.489   0.460
71750W        W40144   2.232  42.398   1.640
71751W        W40145  34.631  13.474  10.549
71752W        W40146  37.580   1.869  14.430
71753W        W40147   9.796  12.822  11.221
71754W        W40148   8.926  16.633  11.352
71755W        W40149  11.811   5.938   2.738
71756W        W40150  28.207   1.417  12.196
71757W        W40151  25.743  21.192   3.201
71758W        W40152   9.611   6.242  13.922
71759W        W40153  24.625  23.241  11.614
71760W        W40154  37.890  36.515   1.834
71761W        W40155   4.392  12.630   1.494
71762W        W40156  17.636  11.234   0.318
71763W        W40157   6.428  16.011   0.447
71764W        W40158  44.378  24.513   1.238
71765W        W40159  18.148   9.819  11.523
71766W        W40160  30.509  44.232   0.045
71767W        W40161  10.328  40.430   4.150
71768W        W40162  40.947  20.245  11.501
71769W        W40163  37.809   6.950  10.553
71770W        W40164  15.414   9.531   4.930
71771W        W40165   0.732   3.064  11.787
71772W        W40166  33.482  25.516   4.569
71773W        W40167  23.559  11.704  12.122
71774W        W40168  41.244   9.700   2.923
71775W        W40169  38.735  32.509   0.264
71776W        W40170   1.705  33.667  12.036
71777W        W40171   5.332  41.692   4.601
71778W        W40172  38.413  31.597  14.911
71779W        W40173  19.085  37.359   2.059
71780W        W40174  18.811  28.171  14.082
71781W        W40175   1.786  27.234  10.800
71782W        W40176  13.496  40.279  13.057
71783W        W40177   1.915  42.296   0.855
71784W        W40178  44.564  42.990   2.303
71785W        W40179  39.142  38.377  11.913
71786W        W40180  36.451  31.677   0.303
71787W        W40181  30.488   5.359   2.225
71788W        W40182   6.343  43.442   4.074
71789W        W40183   3.819  25.050  13.607
71790W        W40184   3.507  38.372   0.387
71791W        W40185  40.457  40.995   3.323
71792W        W40186  43.796   4.913  12.322
71793W        W40187  24.065  39.610   3.755
71794W        W40188   0.382  33.618   1.702
71795W        W40189  35.261  14.162   4.043
71796W        W40190  42.247  37.173   2.349
71797W        W40191  37.584  30.019   2.566
71798W        W40192   4.692  19.054   4.505
71799W        W40193  40.776   0.353  11.633
71800W        W40194  32.147  12.560  12.056
71801W        W40195   2.288  16.173  10.307
71802W        W40196  44.912  31.709   1.827
71803W        W40197   8.634  18.021  13.107
71804W        W40198  27.176  39.564  13.303
71805W        W40199  42.545  44.302  13.864
71806W        W40200   7.211  30.049  10.715
71807W        W40201  22.148  22.540   0.209
71808W        W40202   4.161   1.721  14.425
71809W        W40203   5.962  37.474   4.223
71810W        W40204   4.322  37.757   3.380
71811W        W40205  26.587   4.899   2.874
71812W        W40206  30.093   8.690   4.687
71813W        W40207  39.091  30.333   3.453
71814W        W40208  32.343   4.626   4.530
71815W        W40209   7.402  13.009  13.073
71816W        W40210  41.773  40.252   3.307
71817W        W40211  13.958  15.333   3.145
71818W        W40212  17.054  26.587   4.692
71819W        W40213  37.995   1.720  11.512
71820W        W40214  14.891  21.550  12.006
71821W        W40215  16.381  18.086   5.001
71822W        W40216  29.908  28.155   5.216
71823W        W40217  15.340  33.976   3.482
71824W        W40218  30.386  27.261  13.752
71825W        W40219  26.931  31.899  14.211
71826W        W40220   3.179   5.623  12.521
71827W        W40221  41.816  37.598  12.035
71828W        W40222  25.255  39.528   4.570
71829W        W40223  15.790  24.293  14.290
71830W        W40224  29.988  33.663  11.944
71831W        W40225  19.074   2.027   0.878
71832W        W40226  25.351   0.687  10.493
71833W        W40227   3.791  20.273  10.664
71834W        W40228  44.712  17.204   3.946
71835W        W40229  29.185  41.378   0.891
71836W        W40230  29.786  21.796  13.060
71837W        W40231  41.744  10.867  14.440
71838W        W40232   4.547  17.828  14.349
71839W        W40233  22.058  14.602  13.945
71840W        W40234  38.977  34.560   3.814
71841W        W40235   5.362  44.171   0.007
71842W        W40236  29.105  42.001   2.669
71843W        W40237  32.507  42.260   3.860
71844W        W40238  11.624   3.390   1.794
71845W        W40239  22.786  42.461   3.829
71846W        W40240  18.236   0.311   0.656
71847W        W40241  20.500  21.920  13.809
71848W        W40242  33.110  13.267  12.929
71849W        W40243  26.031  38.838   2.193
71850W        W40244  35.001  35.808  11.980
71851W        W40245  25.069   5.149  12.059
71852W        W40246   3.813  17.067  14.547
71853W        W40247   8.156  23.350  13.843
71854W        W40248  30.000  39.454   4.536
71855W        W40249   0.661   4.495  14.759
71856W        W40250   0.028  12.763   2.268
71857W        W40251  15.958  21.789   0.459
71858W        W40252  44.806  30.565   0.918
71859W        W40253  30.968  13.225   1.528
71860W        W40254  31.180  31.353   1.890
71861W        W40255  32.221  17.463   1.705
71862W        W40256  12.778   2.384   0.953
71863W        W40257  31.672  37.760  11.042
71864W        W40258  41.987  33.188  11.553
71865W        W40259  11.547  12.753   1.349
71866W        W40260  23.740  33.536  14.430
71867W        W40261  37.011  30.189  11.945
71868W        W40262  25.425   3.187  13.252
71869W        W40263   8.788   1.231  10.673
71870W        W40264  34.754  15.343   1.819
71871W        W40265  43.546  13.874  13.379
71872W        W40266  33.427   7.069  13.135
71873W        W40267  21.286  23.592  13.373
71874W        W40268  30.437   5.764  12.486
71875W        W40269  15.802  32.147   1.114
71876W        W40270  11.839   6.739  10.719
71877W        W40271  41.866  13.347  13.188
71878W        W40272  33.694   1.476  13.367
71879W        W40273   7.143  26.958  10.713
71880W        W40274  12.269   1.899   1.615
71881W        W40275   5.983  25.020   0.683
71882W        W40276  33.312  10.336   0.879
71883W        W40277  43.080   8.416   2.800
71884W        W40278  23.927  37.901  11.121
71885W        W40279   4.610  40.418   4.999
71886W        W40280  11.294   3.677  11.512
71887W        W40281   9.098  20.065   0.487
71888W        W40282   1.763   6.131  12.581
71889W        W40283   0.558  15.545   0.846
71890W        W40284  36.969   1.927  11.168
71891W        W40285  38.286  24.425   1.088
71892W        W40286  39.562  16.677   1.810
71893W        W40287  14.314  35.113  13.116
71894W        W40288   8.433   0.399  12.264
71895W        W40289  43.856  24.985  12.972
71896W        W40290   9.319  23.955   3.664
71897W        W40291  44.565  25.883   2.285
71898W        W40292  22.733  40.990   1.843
71899W        W40293  20.402   4.433   3.384
71900W        W40294  32.792  11.640  12.485
71901W        W40295  40.868  43.536  14.358
71902W        W40296  33.465  14.662  13.670
71903W        W40297  39.098  30.091  12.299
71904W        W40298  11.877  35.466   3.249
71905W        W40299  10.005   1.379   0.479
71906W        W40300  42.887   3.909  10.480
71907W        W40301  39.734  24.505   2.240
71908W        W40302  43.692   9.931   3.468
71909W        W40303  17.097  16.806  13.147
71910W        W40304  10.395  21.741   1.483
71911W        W40305  28.208  10.338  11.004
71912W        W40306  32.900  15.691   3.426
71913W        W40307  42.401   5.259  10.921
71914W        W40308  30.678  38.061  10.931
71915W        W40309  29.214  15.091  12.061
71916W        W40310  18.557   6.329  10.634
71917W        W40311  33.473   6.234  10.672
71918W        W40312   9.788  10.530   3.797
71919W        W40313  42.855  15.353  13.927
71920W        W40314  16.187  34.811   3.646
71921W        W40315  44.666  30.993   2.771
71922W        W40316  17.712   9.796   1.063
71923W        W40317  29.997  43.860   0.814
71924W        W40318  29.375  23.044  13.360
71925W        W40319  37.206   1.341   0.788
71926W        W40320  39.778  36.304  10.521
71927W        W40321  43.513  40.613   2.806
71928W        W40322  24.623  29.220   3.647
71929W        W40323  20.484  12.710  10.724
71930W        W40324  36.039   1.550  13.937
71931W        W40325  38.097  39.003   1.799
71932W        W40326   4.551  17.497  12.542
71933W        W40327  20.227  30.114  12.140
71934W        W40328  13.580  37.340  11.184
71935W        W40329   2.707  24.087   3.239
71936W        W40330   1.747  18.009   0.027
71937W        W40331  37.037  26.563  12.232
71938W        W40332  19.631  40.777  12.589
71939W        W40333  14.750  39.576   4.254
71940W        W40334  37.863   7.208   2.878
71941W        W40335  19.550  34.612   1.801
71942W        W40336  44.678  25.205   3.623
71943W        W40337  32.894  33.586   4.136
71944W        W40338   9.949   5.842   2.761
71945W        W40339  17.596   5.335  14.449
71946W        W40340  20.619  28.392   2.387
71947W        W40341   6.965  43.829  12.452
71948W        W40342  28.628   0.886   2.777
71949W        W40343  12.645   9.621   0.370
71950W        W40344  20.344  44.972  11.215
71951W        W40345  41.581  25.053   1.212
71952W        W40346  37.129  16.704   0.849
71953W        W40347  43.250  17.160   0.742
71954W        W40348  33.345  44.637  13.373
71955W        W40349   3.942  35.151  12.044
71956W        W40350  36.051  22.927  12.051
71957W        W40351  22.143  23.988   0.789
71958W        W40352  27.910  42.407  11.563
71959W        W40353  31.248   9.570  12.036
71960W        W40354   3.672  27.295   0.275
71961W        W40355  17.944  22.963   0.368
71962W        W40356  31.417  43.961   2.886
71963W        W40357  24.572  26.910   1.267
71964W        W40358  21.274  35.337  11.626
71965W        W40359  18.694  39.027   0.559
71966W        W40360  13.152  29.455   5.011
71967W        W40361  40.480  30.398  14.906
71968W        W40362  28.993   5.857  11.867
71969W        W40363  19.733  17.546   1.797
71970W        W40364  34.844   2.928  11.957
71971W        W40365  44.423  43.523  13.012
71972W        W40366  18.129  44.304  12.269
71973W        W40367  11.299  17.994   3.641
71974W        W40368   1.214  40.860  14.398
71975W        W40369  35.604  14.067  13.010
71976W        W40370   7.189  13.360  13.945
71977W        W40371   2.181  21.011   2.044
71978W        W40372   1.258  31.751   3.337
71979W        W40373  35.578   8.077  14.269
71980W        W40374  18.541  10.025  10.753
71981W        W40375  17.773  15.833   1.712
71982W        W40376  31.250  43.277  12.515
71983W        W40377  12.469  40.193  11.071
71984W        W40378   8.412  20.105  11.789
71985W        W40379  20.553   6.336   4.657
71986W        W40380  34.516   5.858  14.720
71987W        W40381  33.113  16.629  14.220
71988W        W40382  23.747  12.603   4.199
71989W        W40383  13.650  13.251  13.155
71990W        W40384   9.848  15.850   4.261
71991W        W40385  40.295  31.040   2.838
71992W        W40386  21.056  21.188  11.604
71993W        W40387  29.480  10.296   1.282
71994W        W40388  38.126  25.188   4.090
71995W        W40389  34.588  24.951  13.512
71996W        W40390  22.096   9.438  12.816
71997W        W40391  37.327  40.022   3.957
71998W        W40392  24.689  22.567   4.573
71999W        W40393  11.799   5.081   0.929
72000W        W40394  34.474  32.693   1.259
72001W        W40395   6.748  39.900   4.910
72002W        W40396   8.909  42.363  14.426
72003W        W40397   4.507   9.601   2.387
72004W        W40398   8.161  40.286  11.467
72005W        W40399  37.320  32.981  10.223
72006W        W40400  37.448  13.859  12.184
72007W        W40401  39.885   9.132   4.647
72008W        W40402  10.796  10.533   0.457
72009W        W40403  39.363  26.909   0.055
72010W        W40404   9.719  11.465  14.089
72011W        W40405   8.713  30.121  10.960
72012W        W40406  31.419  31.011   0.767
72013W        W40407  44.721   6.661  11.984
72014W        W40408  35.576  12.589   4.186
72015W        W40409  14.338  36.776  12.510
72016W        W40410  21.527  40.908  12.614
72017W        W40411  27.158  23.707   4.957
72018W        W40412  14.846   3.572  12.821
72019W        W40413  16.320   6.392  14.821
72020W        W40414  28.447  25.219   0.552
72021W        W40415  26.437  32.676  14.007
72022W        W40416  20.711   4.148  14.126
72023W        W40417  34.534  32.221  14.625
72024W        W40418  23.608  29.221  14.446
72025W        W40419  16.962  29.231   4.125
72026W        W40420  26.557   3.905   4.986
72027W        W40421  28.237   8.294  13.282
72028W        W40422  30.261  35.328   5.010
72029W        W40423   4.407  37.175  14.452
72030W        W40424  25.022  19.503  13.788
72031W        W40425  30.504  25.069  14.372
72032W        W40426  12.319   7.243   4.627
72033W        W40427  43.863  28.665  13.927
72034W        W40428  24.900  14.414   3.374
72035W        W40429  27.463  26.192  14.420
72036W        W40430  30.012   0.001  10.498
72037W        W40431  12.338   5.402  11.773
72038W        W40432  24.758   2.858   4.327
72039W        W40433  44.866   1.090  11.073
72040W        W40434  25.697  34.884   3.122
72041W        W40435  13.619   1.791  14.058
72042W        W40436  21.119  28.609  11.143
72043W        W40437  20.749  16.129  10.750
72044W        W40438  30.547  21.742  10.595
72045W        W40439  13.243  16.553  13.795
72046W        W40440   0.261  23.411   3.715
72047W        W40441  26.549  38.887   1.845
72048W        W40442  43.123  40.731  12.758
72049W        W40443  10.206  34.443  13.164
72050W        W40444  35.684  21.163  13.927
72051W        W40445  13.091  30.192   1.579
72052W        W40446   4.275   3.790   3.354
72053W        W40447  35.538  33.881   0.996
72054W        W40448   1.748  35.311   0.804
72055W        W40449  22.622   9.699  14.447
72056W        W40450  44.761   8.550  13.460
72057W        W40451   2.337  10.093  11.143
72058W        W40452  19.785  39.914   3.794
72059W        W40453   8.948  27.311  12.840
72060W        W40454   1.333   0.986   0.348
72061W        W40455   4.817  20.612   1.310
72062W        W40456  35.923  39.049   1.339
72063W        W40457  27.565  36.667   2.369
72064W        W40458   8.295   7.195  11.088
72065W        W40459   5.844  21.781   1.984
72066W        W40460  29.176  18.761  13.539
72067W        W40461   9.053   5.657   0.841
72068W        W40462  38.401  21.457   3.304
72069W        W40463  26.467  23.168  12.916
72070W        W40464  25.285  24.702   3.739
72071W        W40465  24.589  43.653   3.103
72072W        W40466  12.156   5.869  13.947
72073W        W40467   9.400  34.819   3.172
72074W        W40468  13.282  19.012   3.262
72075W        W40469   7.162   4.000   3.042
72076W        W40470  35.785  25.147  12.683
72077W        W40471   2.759  38.070  12.397
72078W        W40472  12.749  10.319   2.283
72079W        W40473   1.364  27.083  13.498
72080W        W40474  37.079  13.621  14.922
72081W        W40475  32.028  22.944   4.691
72082W        W40476   9.287   8.110  12.658
72083W        W40477  24.084  42.675  11.493
72084W        W40478  17.690  29.996   4.398
72085W        W40479  27.740  33.934  10.596
72086W        W40480  36.297  44.754  13.736
72087W        W40481  17.950   6.277  14.379
72088W        W40482  33.086  29.232  13.470
72089W        W40483  12.676  40.320  13.414
72090W        W40484  30.044  32.319  12.876
72091W        W40485  39.930  29.463   0.387
72092W        W40486  16.547   2.294   2.815
72093W        W40487   7.933  23.613   4.551
72094W        W40488  44.470   9.751  10.965
72095W        W40489  15.198  43.821  12.472
72096W        W40490  35.890   6.955   3.307
72097W        W40491  17.899  13.735  14.955
72098W        W40492   5.791  43.914   3.295
72099W        W40493  16.297  31.999   1.847
72100W        W40494  43.504   2.156   1.323
72101W        W40495  14.594   1.882  11.634
72102W        W40496  27.049  37.405   2.427
72103W        W40497  13.526  21.903   4.621
72104W        W40498  16.459   2.283   1.776
72105W        W40499   1.466  37.791  12.080
72106W        W40500   2.744  11.771  11.950
72107W        W40501   9.446  25.720  10.312
72108W        W40502   1.480   2.666  11.209
72109W        W40503  36.354  26.186   2.080
72110W        W40504  40.575   3.824   4.660
72111W        W40505  12.642  15.890   3.634
72112W        W40506   5.381   8.339  10.649
72113W        W40507   6.539   7.493  11.442
72114W        W40508   0.698  29.838   0.271
72115W        W40509  19.646  26.020   1.946
72116W        W40510  18.259   2.860   4.546
72117W        W40511   8.741  40.441  13.562
72118W        W40512  31.506  36.032  14.990
72119W        W40513  20.246  38.981  11.487
72120W        W40514  27.217  31.055  14.971
72121W        W40515  11.351  15.583  13.378
72122W        W40516  20.666  36.753   1.428
72123W        W40517   0.866   5.324  13.647
72124W        W40518   4.483   0.434  14.532
72125W        W40519  36.817  21.153  11.651
72126W        W40520   5.688   8.353  11.066
72127W        W40521  31.683   7.786  14.303
72128W        W40522  39.979  11.341   4.670
72129W        W40523  37.574  11.365   2.173
72130W        W40524  25.592  26.273   1.333
72131W        W40525   1.435  18.411  11.789
72132W        W40526  43.709  29.926  11.176
72133W        W40527  18.384  41.155   2.437
72134W        W40528  25.154  40.459   3.732
72135W        W40529  30.898  11.505   0.884
72136W        W40530  39.943  26.094  14.967
72137W        W40531   1.145   2.850   0.328
72138W        W40532   7.340  34.999   4.671
72139W        W40533   0.865  30.895  10.678
72140W        W40534  35.082  23.341  11.800
72141W        W40535  43.832  43.644   4.216
72142W        W40536  34.042  28.622   4.953
72143W        W40537  27.223  25.625   1.423
72144W        W40538  27.704   2.218   0.414
72145W        W40539  29.617  41.449   4.573
72146W        W40540  13.802  39.428   4.709
72147W        W40541  29.957  30.346   0.805
72148W        W40542   0.973  16.782   4.397
72149W        W40543  32.434  19.299  12.982
72150W        W40544   4.006  44.949   1.268
72151W        W40545  15.788  13.662   2.062
72152W        W40546  12.731   6.220  10.463
72153W        W40547  16.626  33.701   2.854
72154W        W40548  23.945  22.214   4.772
72155W        W40549  43.026  27.137  12.595
72156W        W40550  29.463  37.304   0.923
72157W        W40551  20.955  42.770  13.018
72158W        W40552  20.229   4.927  14.477
72159W        W40553  41.871  29.506   0.927
72160W        W40554   8.394   6.956   2.009
72161W        W40555  19.283   7.104  13.211
72162W        W40556  11.313  26.724   3.796
72163W        W40557  37.967  17.358  11.555
72164W        W40558  44.824  44.836  14.058
72165W        W40559  25.922  15.974  10.902
72166W        W40560  13.615  11.211   3.754
72167W        W40561   7.084  37.991   0.370
72168W        W40562  40.370   9.626  13.580
72169W        W40563  12.543  20.190  12.853
72170W        W40564  39.107   0.970   2.243
72171W        W40565  29.912  19.368   0.771
72172W        W40566  26.116   6.718   2.577
72173W        W40567  16.489   6.189   0.269
72174W        W40568  42.656  42.656   1.580
72175W        W40569  44.866  40.117  12.169
72176W        W40570  10.848   5.212  14.397
72177W        W40571  29.448  20.086   2.671
72178W        W40572  16.535  13.611   3.702
72179W        W40573  27.926   5.184  12.924
72180W        W40574   5.593  31.177   2.766
72181W        W40575  10.533   6.939  14.981
72182W        W40576  34.875  41.162   4.705
72183W        W40577  22.243  15.834  12.060
72184W        W40578  34.596   1.343   0.835
72185W        W40579  36.122   4.344  11.839
72186W        W40580   6.318  23.038  10.600
72187W        W40581  18.538  41.044   3.301
72188W        W40582  38.535  27.950   3.935
72189W        W40583   1.971  41.866  11.165
72190W        W40584  44.986   3.198  11.784
72191W        W40585  39.141  25.558  12.864
72192W        W40586  18.566  18.489  14.326
72193W        W40587  34.244  15.486   3.288
72194W        W40588  32.472  34.624  12.293
72195W        W40589  26.147  31.006  10.581
72196W        W40590   4.443   4.950   4.036
72197W        W40591  17.161  43.344  11.436
72198W        W40592  11.193  21.038  11.596
72199W        W40593  15.147  42.589  12.129
72200W        W40594  40.448   5.610  11.185
72201W        W40595  17.612  21.582   3.267
72202W        W40596  25.602  21.772   1.937
72203W        W40597  17.817  11.803   1.303
72204W        W40598   7.130   8.727  11.085
72205W        W40599   2.356  28.434   1.331
72206W        W40600   6.209  34.668  11.090
72207W        W40601  33.584  42.290   2.345
72208W        W40602  36.540  13.645   1.924
72209W        W40603  44.869  23.499   3.336
72210W        W40604  35.146  22.640   0.241
72211W        W40605  24.549   8.327   5.086
72212W        W40606   3.873   9.086  11.687
72213W        W40607  24.657  19.273  12.402
72214W        W40608  13.401   3.524   5.012
72215W        W40609  26.503  34.459   4.127
72216W        W40610  22.093  24.105  14.874
72217W        W40611  11.357  11.962   3.706
72218W        W40612  23.175  37.422  10.701
72219W        W40613   1.489  35.420  13.966
72220W        W40614  30.106  42.049  11.990
72221W        W40615  24.722  39.562   4.615
72222W        W40616  26.172  42.562   3.664
72223W        W40617  30.390   8.198  14.341
72224W        W40618  34.177   2.564   3.406
72225W        W40619  32.491  38.435   2.417
72226W        W40620   8.784  20.262  14.796
72227W        W40621   3.147  44.615   2.406
72228W        W40622  31.404   8.504   4.076
72229W        W40623  44.521  19.853   3.402
72230W        W40624  42.454   6.872  12.690
72231W        W40625   2.212  18.861   4.601
72232W        W40626  27.968  35.041   4.359
72233W        W40627  34.156  21.620  11.134
72234W        W40628  37.428  42.325  11.158
72235W        W40629   3.254  20.042   0.394
72236W        W40630  35.266  21.178   4.150
72237W        W40631  22.368  28.423  13.064
72238W        W40632  16.763  21.218  13.009
72239W        W40633   6.653  38.636  12.471
72240W        W40634   6.938   8.180  11.805
72241W        W40635  14.280  35.923  10.523
72242W        W40636  37.936  15.575   0.359
72243W        W40637  43.010  14.352   2.710
72244W        W40638  22.038  15.214   3.437
72245W        W40639  17.160  13.175  11.973
72246W        W40640   1.022   9.805  12.842
72247W        W40641   1.462  30.733   3.261
72248W        W40642  40.121  27.528  13.428
72249W        W40643   2.291   7.015  11.562
72250W        W40644  21.357   7.558   2.439
72251W        W40645  13.878  15.306  13.921
72252W        W40646  28.369   4.367  10.364
72253W        W40647  22.192   2.531  13.303
72254W        W40648  43.859  23.190  11.473
72255W        W40649  35.827  38.616   3.299
72256W        W40650  16.432   2.501  12.033
72257W        W40651   8.217   6.872   3.865
72258W        W40652  28.445  17.650  14.889
72259W        W40653  37.334  42.468  14.061
72260W        W40654  15.737  26.385  12.213
72261W        W40655  28.203  40.140   4.371
72262W        W40656   8.436  26.506   4.054
72263W        W40657  25.575  38.561   2.315
72264W        W40658  36.278  39.044  12.973
72265W        W40659  21.597  32.828   1.835
72266W        W40660   5.291  31.117   3.254
72267W        W40661   2.779  25.917   4.339
72268W        W40662  40.288   2.181  10.764
72269W        W40663  26.181   2.253  10.297
72270W        W40664  26.792  18.129   2.377
72271W        W40665   2.371  36.308  14.367
72272W        W40666   1.863  10.291  13.518
72273W        W40667  17.615   3.005   3.203
72274W        W40668  16.593  34.234   2.803
72275W        W40669  38.845  21.458   4.099
72276W        W40670  19.276  37.260   3.407
72277W        W40671   4.666  37.974  13.417
72278W        W40672  21.202  28.711  10.241
72279W        W40673  24.234  37.300   2.397
72280W        W40674  35.385  24.704  11.010
72281W        W40675  24.623  42.490   2.757
72282W        W40676  26.175  27.961  13.553
72283W        W40677  16.955   7.271   1.808
72284W        W40678  29.179  41.063   4.312
72285W        W40679  28.415  30.528   1.710
72286W        W40680  31.461  42.976  13.561
72287W        W40681  23.710  31.978   3.642
72288W        W40682  26.426  28.412  13.449
72289W        W40683  23.134  30.854  13.799
72290W        W40684   6.152  15.696  14.527
72291W        W40685  32.903  25.109  14.321
72292W        W40686  22.774   3.884  12.868
72293W        W40687  26.095  27.395  14.937
72294W        W40688  39.754   6.278  14.511
72295W        W40689  34.927   3.515  14.925
72296W        W40690  26.141   1.963  13.454
72297W        W40691  31.933  44.186   4.657
72298W        W40692   5.114  24.056  14.355
72299W        W40693  34.526  11.400   2.624
72300W        W40694  27.574   6.436  12.430
72301W        W40695  11.864   3.726  12.034
72302W        W40696  23.058  16.362   4.635
72303W        W40697  30.738  40.925   1.962
72304W        W40698  30.562  44.617   3.469
72305W        W40699  31.225  20.160   4.610
72306W        W40700  43.295   2.366   2.381
72307W        W40701  43.195  15.836   4.981
72308W        W40702   9.649  22.105   0.390
72309W        W40703  12.813  40.868   1.818
72310W        W40704  37.053   4.056  11.093
72311W        W40705  30.650  19.138   1.450
72312W        W40706  23.087   1.670   3.421
72313W        W40707  34.393  24.259   3.778
72314W        W40708  40.834  43.952   4.588
72315W        W40709  17.525  40.830   4.557
72316W        W40710  18.608  32.123  10.436
72317W        W40711  40.535  21.594  12.509
72318W        W40712  38.597  19.695  14.331
72319W        W40713  36.595  19.142  11.630
72320W        W40714   0.728  36.904  11.992
72321W        W40715  36.380  43.890   4.569
72322W        W40716   8.814  22.962   1.286
72323W        W40717  26.082  11.730   1.677
72324W        W40718   8.663  24.030   2.295
72325W        W40719  16.034  29.986   2.080
72326W        W40720  26.006  13.735  11.168
72327W        W40721   8.492  36.738  10.621
72328W        W40722  42.896  24.864  13.892
72329W        W40723  28.378  24.965   2.015
72330W        W40724  20.672  43.397   0.905
72331W        W40725  38.010  39.507   1.977
72332W        W40726  14.597  31.738  12.313
72333W        W40727   4.446  22.453  11.968
72334W        W40728  42.946  11.096  11.077
72335W        W40729  23.352   9.367   0.426
72336W        W40730  27.193  18.721  12.056
72337W        W40731   3.757   4.255  10.983
72338W        W40732   0.334  38.070   2.650
72339W        W40733   1.335  18.491   4.168
72340W        W40734  38.883  21.506  11.893
72341W        W40735   4.777  15.499   3.683
72342W        W40736  30.808  15.108   4.591
72343W        W40737  39.807  38.855   3.384
72344W        W40738   5.383  12.230  14.482
72345W        W40739  40.378  43.987  11.567
72346W        W40740   8.581   0.718  11.893
72347W        W40741  28.629  16.225  13.117
72348W        W40742  20.498  39.378   3.669
72349W        W40743  30.101  33.495   2.584
72350W        W40744   6.562  30.096  12.466
72351W        W40745   2.236  27.311   0.454
72352W        W40746  10.846  43.327  11.851
72353W        W40747  11.280  28.412   1.795
72354W        W40748  36.499  29.526  10.639
72355W        W40749  43.906  14.166   3.604
72356W        W40750  36.396   3.386  13.079
72357W        W40751  31.313  12.724  13.445
72358W        W40752  34.793  34.651  10.496
72359W        W40753  44.769   4.840  11.683
72360W        W40754   2.429  24.109   3.949
72361W        W40755  18.541   5.733  14.870
72362W        W40756  13.192  41.005  12.429
72363W        W40757  25.709   5.392  13.008
72364W        W40758  17.089  21.346   1.401
72365W        W40759  30.777  38.478  12.616
72366W        W40760   0.973  31.085  13.772
72367W        W40761  43.036   3.731  10.946
72368W        W40762  41.460  41.245   1.833
72369W        W40763  36.863  13.753   4.603
72370W        W40764  14.160   1.325  14.705
72371W        W40765  30.458  40.096  13.882
72372W        W40766   6.402  26.104   2.797
72373W        W40767  15.103  44.377  14.837
72374W        W40768  40.992  36.429   4.925
72375W        W40769  22.061  43.948  14.022
72376W        W40770  35.731  19.040   0.911
72377W        W40771  17.552  44.428  14.732
72378W        W40772  11.651  33.115  11.605
72379W        W40773   8.045  13.135   0.086
72380W        W40774  11.688  35.992   4.976
72381W        W40775  12.399  39.876   3.239
72382W        W40776   7.906  21.638   0.814
72383W        W40777  13.739   0.094  14.504
72384W        W40778  41.638   5.254  11.589
72385W        W40779   1.729   3.805  11.231
72386W        W40780  11.865  17.702  13.158
72387W        W40781  32.003  42.005  14.563
72388W        W40782   3.901   1.749   4.682
72389W        W40783  16.400   6.896  11.476
72390W        W40784  13.402  14.090  10.811
72391W        W40785  20.881  31.052   0.942
72392W        W40786   3.867  11.639   0.519
72393W        W40787   3.621   2.201  14.852
72394W        W40788  18.197  41.532  12.101
72395W        W40789  15.630  27.131  14.381
72396W        W40790   1.985  24.595   1.221
72397W        W40791   7.522  11.318  12.633
72398W        W40792  11.148  44.325   2.780
72399W        W40793   1.726  21.028  11.580
72400W        W40794  22.054  29.894   2.171
72401W        W40795  16.259  25.673  13.449
72402W        W40796   1.692  22.209  14.269
72403W        W40797  20.776  33.443   3.647
72404W        W40798   4.758  14.191  12.054
72405W        W40799   8.163  22.286  10.494
72406W        W40800   5.621  19.897   1.550
72407W        W40801  10.901  21.521  12.992
72408W        W40802  41.588  16.730  12.024
72409W        W40803   2.449  11.363  10.916
72410W        W40804  24.434   0.176   0.914
72411W        W40805  16.727  27.838  12.197
72412W        W40806  32.689  26.493  12.867
72413W        W40807  27.597   8.666   4.611
72414W        W40808  22.249  23.695  12.181
72415W        W40809  13.931  44.320   0.799
72416W        W40810   9.140  27.693   2.442
72417W        W40811  32.171  22.641  12.137
72418W        W40812  25.632   3.843  12.421
72419W        W40813  25.729  41.295   4.488
72420W        W40814   6.699  42.583  10.604
72421W        W40815  33.121  15.714   2.303
72422W        W40816  28.088  16.776   3.703
72423W        W40817  18.723  32.132  12.344
72424W        W40818   2.918  15.364  13.358
72425W        W40819  15.702  23.109   4.022
72426W        W40820  12.145  21.411  11.649
72427W        W40821  14.648   3.816   0.211
72428W        W40822  28.597  35.607   0.483
72429W        W40823   3.119  34.843  11.425
72430W        W40824  32.507  24.166  13.354
72431W        W40825  32.070  34.572  10.619
72432W        W40826  10.648   0.680  13.867
72433W        W40827  13.767   2.563   2.744
72434W        W40828   3.274   4.727  12.058
72435W        W40829   5.163  22.456  12.544
72436W        W40830  31.152  40.265   4.241
72437W        W40831  11.930  28.037   3.235
72438W        W40832   0.362   6.342  13.457
72439W        W40833  10.704  29.728   1.204
72440W        W40834  26.590  32.912  13.162
72441W        W40835  34.953  29.102   2.751
72442W        W40836  25.066  28.670  14.908
72443W        W40837  10.625  27.657  11.117
72444W        W40838   1.833   6.653   0.208
72445W        W40839  42.508  13.212  12.514
72446W        W40840   4.530  19.794   0.304
72447W        W40841  25.990   7.696  13.104
72448W        W40842  16.831  28.929   0.664
72449W        W40843  26.390  39.741  13.426
72450W        W40844  34.011  36.289  13.770
72451W        W40845   6.725  23.481  11.985
72452W        W40846  23.878  41.803  12.641
72453W        W40847   2.257   7.428   3.340
72454W        W40848   2.133   4.726   4.725
72455W        W40849  29.143  36.941  12.540
72456W        W40850  35.832  32.088  10.810
72457W        W40851   6.973  17.099  13.103
72458W        W40852  20.445  33.162  13.635
72459W        W40853  15.364   5.328   2.894
72460W        W40854  27.691  20.732  10.748
72461W        W40855  36.325   1.336  12.037
72462W        W40856  29.345   2.452  13.822
72463W        W40857   0.805  27.628   4.586
72464W        W40858  22.134  20.517   0.023
72465W        W40859  14.674  23.494  12.845
72466W        W40860  41.391  30.863   0.728
72467W        W40861  13.240  13.642   1.529
72468W        W40862  13.460  44.626  10.200
72469W        W40863  34.445   2.901   3.711
72470W        W40864  41.318   2.981  10.591
72471W        W40865  39.918  36.838   1.477
72472W        W40866   7.198  26.359   1.969
72473W        W40867  29.655   6.671   4.101
72474W        W40868  36.342  10.182  12.490
72475W        W40869  33.993   6.791   0.018
72476W        W40870  39.214  31.873  11.112
72477W        W40871  38.878  20.786  11.089
72478W        W40872  44.887  14.123   0.481
72479W        W40873  34.853  10.086   2.816
72480W        W40874   7.874  12.052   2.403
72481W        W40875   2.813  32.342  11.627
72482W        W40876  31.690  20.552  10.794
72483W        W40877  24.075  31.369   2.282
72484W        W40878   7.191  30.689  10.809
72485W        W40879  33.424  20.051  11.135
72486W        W40880  21.006  20.058  10.651
72487W        W40881  18.595  44.464   4.107
72488W        W40882  29.854   1.042   0.788
72489W        W40883  14.991  12.223   0.904
72490W        W40884   3.770   2.045   4.294
72491W        W40885  18.710  17.062   1.381
72492W        W40886   5.839  29.078   3.633
72493W        W40887   8.218  32.421  14.434
72494W        W40888  30.637   8.672  14.347
72495W        W40889  39.570  26.241   3.176
72496W        W40890  36.469  22.305   0.783
72497W        W40891  43.012  40.009  13.382
72498W        W40892  44.369   2.768  14.795
72499W        W40893  40.402  26.147   2.611
72500W        W40894  29.879  16.808   2.909
72501W        W40895   4.909  21.745  10.465
72502W        W40896  23.071  32.499  11.555
72503W        W40897  13.894   6.277  12.950
72504W        W40898  39.303  23.925  10.586
72505W        W40899  15.776  32.076   4.560
72506W        W40900   4.987  38.055   2.150
72507W        W40901  34.951  29.923  13.835
72508W        W40902  25.602  43.410  11.680
72509W        W40903   7.468   8.795   4.518
72510W        W40904   7.917   3.817  13.594
72511W        W40905  36.376  11.250  14.752
72512W        W40906  23.054   2.895   3.759
72513W        W40907   2.697  34.538   2.796
72514W        W40908  41.076  36.425   3.980
72515W        W40909  16.889  34.902   2.294
72516W        W40910  17.289  29.418   3.404
72517W        W40911  34.875  29.557  11.611
72518W        W40912  31.716  13.403  12.920
72519W        W40913   7.373  40.284   1.324
72520W        W40914  28.982   8.719  14.924
72521W        W40915  36.344  20.506   0.235
72522W        W40916  18.308  13.209   0.252
72523W        W40917  35.878   1.446  13.464
72524W        W40918  32.580  35.080  12.087
72525W        W40919   4.390  37.514   0.400
72526W        W40920   9.372  33.898   3.211
72527W        W40921  26.057  11.793   2.168
72528W        W40922   8.303  24.036   3.878
72529W        W40923   2.184  26.248  12.503
72530W        W40924  30.140   4.974  14.318
72531W        W40925  18.322  27.775   0.737
72532W        W40926  28.650   1.727  12.316
72533W        W40927  13.748  22.214  14.141
72534W        W40928  37.347  13.187   2.627
72535W        W40929  19.523  31.460   2.499
72536W        W40930   5.281  32.145  12.418
72537W        W40931  12.110  29.088  12.884
72538W        W40932  25.148  30.035   3.248
72539W        W40933  43.774  39.281   0.706
72540W        W40934   5.217  16.712   3.068
72541W        W40935  13.260  42.739  12.939
72542W        W40936  15.897  13.869  14.872
72543W        W40937  27.853   1.323  13.475
72544W        W40938  39.846  37.804  12.055
72545W        W40939  21.107  22.446   1.469
72546W        W40940  16.479  30.711   1.370
72547W        W40941  15.189  27.440  14.306
72548W        W40942  36.394  44.429  11.516
72549W        W40943  41.436  11.083  12.618
72550W        W40944  35.865  18.778  12.050
72551W        W40945  19.665  22.704   0.356
72552W        W40946  40.401   0.247  13.149
72553W        W40947  30.985  26.472   3.179
72554W        W40948  13.625   7.832   4.486
72555W        W40949  17.428   3.712  12.480
72556W        W40950  27.126  15.761   1.912
72557W        W40951  10.655  35.400   1.777
72558W        W40952   4.344  44.809  12.849
72559W        W40953  31.510  18.575  13.870
72560W        W40954  43.823  12.186   1.238
72561W        W40955  10.834  19.330  13.496
72562W        W40956  12.426  13.084  11.660
72563W        W40957   2.025  36.697  14.433
72564W        W40958  36.032   7.356  11.961
72565W        W40959  35.092  29.985   0.723
72566W        W40960  23.910  17.178   1.429
72567W        W40961   9.680  29.688  12.972
72568W        W40962  22.750  32.558   2.753
72569W        W40963  19.234   1.373   3.288
72570W        W40964  25.430  14.224  12.532
72571W        W40965  24.452  18.432  11.506
72572W        W40966  44.947   4.614   3.319
72573W        W40967  31.712  24.527   3.933
72574W        W40968  28.255  34.436  10.864
72575W        W40969  26.987  14.681   4.351
72576W        W40970  35.164   4.178   3.573
72577W        W40971   0.913  34.983   0.410
72578W        W40972  41.969  25.661  14.331
72579W        W40973  43.363  35.141   2.850
72580W        W40974  18.682  30.217   4.216
72581W        W40975  13.605  12.193  11.514
72582W        W40976  21.817  24.450  12.239
72583W        W40977  29.576   0.217  14.054
72584W        W40978   3.939  30.852   4.235
72585W        W40979  15.163  21.856   4.939
72586W        W40980  10.781  38.979  13.926
72587W        W40981  38.787  20.701   4.527
72588W        W40982  32.550  13.892   1.693
72589W        W40983  27.671  28.284   1.802
72590W        W40984  42.598   5.834  12.267
72591W        W40985   8.810  39.951  12.635
72592W        W40986  39.423  38.928  14.479
72593W        W40987  21.806   6.806  11.039
72594W        W40988  31.186  29.958  11.632
72595W        W40989  31.040  27.406  14.055
72596W        W40990  31.360  36.441  12.631
72597W        W40991  12.884  12.684   2.528
72598W        W40992  10.852   0.169   0.472
72599W        W40993  33.563  12.202   4.750
72600W        W40994  22.062  34.918  13.036
72601W        W40995  33.630  18.663  12.821
72602W        W40996   2.598  12.731  12.306
72603W        W40997  34.084  23.212  13.531
72604W        W40998  43.958  17.986  13.636
72605W        W40999  11.226  42.044  14.790
72606W        W41000  36.923  41.262   3.483
72607W        W41001   9.711   7.788   2.866
72608W        W41002   2.173  16.653  13.350
72609W        W41003  36.519   9.629   2.619
72610W        W41004  25.430  13.226   4.640
72611W        W41005   6.728  35.812  13.836
72612W        W41006  11.237  19.638  11.375
72613W        W41007  18.804   5.738  11.824
72614W        W41008   6.893  27.077  13.566
72615W        W41009  16.333  41.991  10.840
72616W        W41010  12.678   9.844   2.100
72617W        W41011  19.235  28.572  12.654
72618W        W41012  15.118  27.302  12.899
72619W        W41013  40.140  22.719   4.165
72620W        W41014  34.395  28.382  14.400
72621W        W41015  10.559  40.040   4.412
72622W        W41016  25.582  40.045   4.033
72623W        W41017  21.476  16.707   1.921
72624W        W41018   5.346  19.480  11.557
72625W        W41019  43.949  11.605   0.249
72626W        W41020  20.636   3.451  12.493
72627W        W41021  43.762  16.659  10.688
72628W        W41022  29.974  24.494  13.446
72629W        W41023  36.367  18.997  11.182
72630W        W41024   6.957   8.732  12.466
72631W        W41025  24.268  17.586  13.932
72632W        W41026  23.483  23.112   4.515
72633W        W41027  34.355  30.742   0.655
72634W        W41028  11.512   7.686   2.538
72635W        W41029  44.123  17.993  14.140
72636W        W41030  31.555  28.826   0.117
72637W        W41031  37.362   8.562  13.220
72638W        W41032  17.282   9.365   4.296
72639W        W41033  42.847  34.821   3.316
72640W        W41034  24.514  36.530  13.908
72641W        W41035  17.619   0.185  13.876
72642W        W41036  12.380  15.581  11.084
72643W        W41037  11.396  26.011   2.836
72644W        W41038  37.061   1.817  14.495
72645W        W41039  41.327  32.673   0.460
72646W        W41040  31.901  33.468   2.344
72647W        W41041  13.271  12.480   4.537
72648W        W41042   2.907  17.191  12.367
72649W        W41043  27.934  34.036  14.381
72650W        W41044  33.803  38.333  12.884
72651W        W41045  18.649  16.697  13.927
72652W        W41046  35.489  13.164   1.556
72653W        W41047  20.300  26.898  14.815
72654W        W41048  31.695   7.906   1.903
72655W        W41049  38.136   8.950   0.647
72656W        W41050   7.011   5.792   2.454
72657W        W41051   2.290  28.579   5.078
72658W        W41052  26.389   9.385   3.031
72659W        W41053   7.003  22.476   4.781
72660W        W41054  26.283  17.809  11.217
72661W        W41055  42.315  18.629  12.895
72662W        W41056   0.372  37.482   3.377
72663W        W41057  22.803  38.370  14.921
72664W        W41058   5.165   9.459  11.110
72665W        W41059  35.030  24.800   4.072
72666W        W41060   8.294  42.775  11.709
72667W        W41061   9.341   4.266  12.164
72668W        W41062  41.799  20.704  11.698
72669W        W41063  22.307   6.380  13.855
72670W        W41064   0.494   5.798   1.390
72671W        W41065  14.458  30.897  13.915
72672W        W41066  37.997  12.805   3.575
72673W        W41067  35.934   9.603   1.426
72674W        W41068   0.993  37.821  10.729
72675W        W41069   7.915  28.283  10.724
72676W        W41070  38.279  23.708  12.952
72677W        W41071   8.557  41.291  13.175
72678W        W41072   8.419   2.153   4.625
72679W        W41073  34.448  11.166  10.632
72680W        W41074  42.470  40.771   2.762
72681W        W41075  22.991  20.021   2.709
72682W        W41076   9.370   8.213  14.351
72683W        W41077   9.589   9.272  11.771
72684W        W41078  33.427  33.907   3.727
72685W        W41079  20.472  24.070  11.072
72686W        W41080  27.725  26.739   2.792
72687W        W41081  10.524  44.818  13.337
72688W        W41082  41.423   2.998   4.561
72689W        W41083  39.793  40.324  13.089
72690W        W41084   0.459  30.630  11.454
72691W        W41085  28.105   4.220   2.894
72692W        W41086  38.724  44.495  14.299
72693W        W41087  16.210   7.496  13.835
72694W        W41088  33.014  34.392  14.145
72695W        W41089  25.053   3.507   1.791
72696W        W41090   1.376  25.845  13.833
72697W        W41091  42.564  12.268  11.102
72698W        W41092  17.716  11.679  11.670
72699W        W41093  25.896  31.046  12.432
72700W        W41094  38.828  26.767  11.661
72701W        W41095  39.026   9.426   0.174
72702W        W41096  17.303   9.581  11.084
72703W        W41097   6.927  38.504   0.272
72704W        W41098  22.178  18.976   4.456
72705W        W41099   0.676  25.225  14.017
72706W        W41100   6.472  31.245  10.748
72707W        W41101  38.202  22.953  13.318
72708W        W41102  16.111  19.275  12.464
72709W        W41103  40.251  41.458   4.288
72710W        W41104  13.736  12.657  11.270
72711W        W41105  13.195  18.223   4.350
72712W        W41106  38.086   0.737  11.711
72713W        W41107  11.677  35.905  10.240
72714W        W41108   0.796  30.637  13.120
72715W        W41109  36.889   4.750   2.213
72716W        W41110  11.159  34.504   1.843
72717W        W41111  14.382  19.133   0.243
72718W        W41112  42.985   5.299   3.067
72719W        W41113  39.803  29.610  10.941
72720W        W41114   7.751  26.764  12.518
72721W        W41115  39.008  18.438  13.986
72722W        W41116  18.298  36.862   3.638
72723W        W41117  43.903  11.869   0.737
72724W        W41118  30.179  30.464  11.648
72725W        W41119  37.482  33.674   2.159
72726W        W41120   2.213   7.466   0.015
72727W        W41121   0.816  31.927  11.614
72728W        W41122  12.706  34.966   4.703
72729W        W41123  11.753  23.567   5.012
72730W        W41124  29.301  27.794  11.266
72731W        W41125  27.251  44.986  12.479
72732W        W41126  20.495  36.858  14.534
72733W        W41127  12.026  12.468   4.819
72734W        W41128  23.170  27.924   0.062
72735W        W41129   9.846  28.508  13.663
72736W        W41130  31.331  26.499  11.444
72737W        W41131  28.751   4.352  13.170
72738W        W41132  32.880  17.698  10.397
72739W        W41133  43.729  38.426  12.899
72740W        W41134  29.449  29.562  12.534
72741W        W41135  26.689   1.562  12.833
72742W        W41136   4.368  41.056   1.431
72743W        W41137  17.798  39.879  13.797
72744W        W41138  37.421  25.539  13.026
72745W        W41139  40.062  43.147  13.025
72746W        W41140   3.014  20.725  11.671
72747W        W41141  43.622  27.176   0.478
72748W        W41142  18.841  21.932  12.067
72749W        W41143  37.871  10.715   4.216
72750W        W41144  24.776  44.433   1.324
72751W        W41145  30.075   7.171  11.694
72752W        W41146  29.313  27.941  13.438
72753W        W41147  26.379  37.623  14.022
72754W        W41148  24.902  42.870  14.848
72755W        W41149  34.071   3.454  11.062
72756W        W41150  30.314  22.057  13.949
72757W        W41151  21.780  36.273   1.067
72758W        W41152  27.468  25.763  10.850
72759W        W41153  40.054  38.713  11.109
72760W        W41154  31.948  30.011  14.369
72761W        W41155   2.434   5.543  14.924
72762W        W41156   9.639   1.350   2.240
72763W        W41157   0.516  23.204   0.209
72764W        W41158  23.815  37.757   0.823
72765W        W41159  13.439  19.054  14.343
72766W        W41160  18.038   4.356  13.432
72767W        W41161  25.114  28.388  14.441
72768W        W41162  24.147  15.579   4.050
72769W        W41163  26.231  24.267  14.344
72770W        W41164  12.412   0.867   2.290
72771W        W41165   2.354  40.012  12.864
72772W        W41166  33.560  11.761   2.623
72773W        W41167  11.775  11.375  14.709
72774W        W41168  17.777   5.410   0.881
72775W        W41169  36.080  17.670   2.702
72776W        W41170  35.392  20.148  13.389
72777W        W41171   3.033  34.135   4.250
72778W        W41172  15.746  41.168   1.811
72779W        W41173  43.769  10.639  13.469
72780W        W41174  33.374   2.835  14.416
72781W        W41175  21.665   0.859  10.748
72782W        W41176  28.554  24.284   0.153
72783W        W41177  26.732  20.830  10.733
72784W        W41178  42.306   0.342   0.508
72785W        W41179   2.543   6.166   2.117
72786W        W41180  39.014  14.901  10.380
72787W        W41181  36.915   7.911   4.382
72788W        W41182  14.658  26.154  14.348
72789W        W41183  17.296  13.582   3.006
72790W        W41184  20.055  24.422   2.347
72791W        W41185  30.621   0.962   3.343
72792W        W41186  24.630   1.467  11.894
72793W        W41187  26.883  23.488  10.342
72794W        W41188  13.154   9.628   1.944
72795W        W41189  38.120  21.006   3.175
72796W        W41190   4.893  38.965   2.601
72797W        W41191  14.807  30.413  12.925
72798W        W41192  31.605  24.980  14.428
72799W        W41193  14.344   8.291   0.763
72800W        W41194  28.636  41.805   0.866
72801W        W41195   9.149  24.033  11.950
72802W        W41196  36.971  36.323  13.097
72803W        W41197   7.334  40.501   2.332
72804W        W41198   4.127  19.428  10.835
72805W        W41199  31.419   9.752  12.901
72806W        W41200  23.199  22.236   0.193
72807W        W41201  27.485  43.184  14.753
72808W        W41202   5.841  34.628   3.263
72809W        W41203  38.276  23.970   3.732
72810W        W41204  22.113  35.369   0.760
72811W        W41205  14.657   8.239  14.355
72812W        W41206  28.107  19.273   1.936
72813W        W41207  41.762   2.902  12.115
72814W        W41208  10.755   4.468   1.371
72815W        W41209  43.199  26.987   0.246
72816W        W41210  36.878   8.809  13.424
72817W        W41211   0.802  17.851   1.834
72818W        W41212  16.094  24.041   1.278
72819W        W41213  31.318   7.714  11.222
72820W        W41214  39.081  19.538  12.112
72821W        W41215  17.547   6.914   3.398
72822W        W41216  37.376  20.311  12.945
72823W        W41217  12.413  32.095   1.173
72824W        W41218  21.784  25.679   1.742
72825W        W41219   6.661  21.326   0.346
72826W        W41220   2.048  21.292   1.614
72827W        W41221  43.876  38.964   0.293
72828W        W41222  23.325   2.837  11.883
72829W        W41223   6.221  36.502  14.863
72830W        W41224  11.663  13.757   3.789
72831W        W41225   1.723  26.594  12.534
72832W        W41226  16.767  17.489   1.786
72833W        W41227   0.111  11.160   1.729
72834W        W41228   8.311  35.027  14.781
72835W        W41229   1.721  12.663  14.408
72836W        W41230  21.436  40.846  12.097
72837W        W41231  30.564   5.881   3.251
72838W        W41232  19.589   3.867   0.355
72839W        W41233  14.709  17.290  11.963
72840W        W41234  30.490  13.896   0.680
72841W        W41235  39.033   0.492   1.399
72842W        W41236   1.094  11.579   3.720
72843W        W41237   2.464   4.179  11.102
72844W        W41238  24.344  32.302   1.107
72845W        W41239  43.048  18.250   4.602
72846W        W41240  11.168  27.964  14.915
72847W        W41241  34.140  10.978  14.358
72848W        W41242  23.452  37.063   1.971
72849W        W41243  30.000  17.701  13.352
72850W        W41244  41.504  43.260  11.126
72851W        W41245   0.235  33.301  13.325
72852W        W41246   4.466  34.260   4.697
72853W        W41247   7.917  10.716  13.397
72854W        W41248   7.207  20.435  13.491
72855W        W41249  43.807   3.856  10.540
72856W        W41250  22.592  35.494   4.311
72857W        W41251   5.446  10.599   0.045
72858W        W41252   9.809  36.648   2.059
72859W        W41253  36.337  20.232   3.867
72860W        W41254  19.278  39.945   1.407
72861W        W41255  33.859  36.353  12.829
72862W        W41256  25.578   4.095   0.463
72863W        W41257  44.965  36.203  14.558
72864W        W41258  44.659  39.800   2.650
72865W        W41259  26.984  10.558   4.169
72866W        W41260  23.990  12.851  12.124
72867W        W41261  25.106  14.253   4.673
72868W        W41262  17.066  12.885  11.571
72869W        W41263  18.320  36.018   4.781
72870W        W41264  41.442  28.239  12.992
72871W        W41265  29.022  12.484   1.900
72872W        W41266  36.572   2.421   1.663
72873W        W41267  28.594  14.233   2.319
72874W        W41268  36.494  10.578  12.840
72875W        W41269  30.946   1.058   1.821
72876W        W41270  40.044   0.745   0.746
72877W        W41271  16.856   2.982  10.277
72878W        W41272  14.502  12.767  14.583
72879W        W41273   9.799  42.077   2.279
72880W        W41274  18.893  14.274   2.964
72881W        W41275   6.895  28.479   4.289
72882W        W41276  28.025   9.743  14.440
72883W        W41277  17.221  13.671  14.141
72884W        W41278  42.516  39.069   3.651
72885W        W41279  31.099  25.297   1.663
72886W        W41280  26.374   7.744   3.362
72887W        W41281  31.754  14.550   1.227
72888W        W41282  31.659  35.231  12.057
72889W        W41283   9.097  21.991  10.589
72890W        W41284   8.856   6.264   2.845
72891W        W41285  13.333  23.456  11.769
72892W        W41286   4.302   0.056   1.684
72893W        W41287  35.589  43.419   3.634
72894W        W41288  33.433  32.461  13.109
72895W        W41289  40.340  21.405   3.563
72896W        W41290  32.611  33.454   4.547
72897W        W41291  24.021  24.241   4.501
72898W        W41292  22.004  42.763   3.417
72899W        W41293  17.150   9.455   3.746
72900W        W41294  19.535  30.639   3.196
72901W        W41295  27.544  23.721  11.086
72902W        W41296  39.016  39.557  13.948
72903W        W41297  20.107  22.169   3.487
72904W        W41298   7.961  37.403   2.840
72905W        W41299  17.950  10.147  13.759
72906W        W41300  22.385   7.683   2.205
72907W        W41301   5.864   7.893  11.182
72908W        W41302   7.628  38.969   0.978
72909W        W41303  39.396  17.470  12.434
72910W        W41304  21.482   5.817   4.749
72911W        W41305  10.347  21.232   0.765
72912W        W41306   0.021  30.232  10.767
72913W        W41307  31.110  31.122  13.984
72914W        W41308  36.618   2.098   1.249
72915W        W41309  40.884  33.674   2.874
72916W        W41310  38.189  28.692   1.287
72917W        W41311   2.872  40.759   4.562
72918W        W41312  34.557  32.465   3.851
72919W        W41313  40.900  17.770  11.022
72920W        W41314  44.312  12.565   2.377
72921W        W41315   0.628  24.135  12.969
72922W        W41316   6.367  14.825  14.552
72923W        W41317  15.105  40.336   0.246
72924W        W41318  28.517   3.023  10.930
72925W        W41319  21.255   3.590   0.789
72926W        W41320   1.578  33.557   4.928
72927W        W41321  13.033   0.094   5.192
72928W        W41322   2.975  10.676   4.778
72929W        W41323  43.479  19.155  14.048
72930W        W41324  19.192  34.676  12.047
72931W        W41325   9.741   4.837   3.598
72932W        W41326  28.628   1.424   9.943
72933W        W41327  24.518  21.613   4.523
72934W        W41328  21.776  33.046   2.269
72935W        W41329  37.340  38.419   1.921
72936W        W41330   4.263   2.595  11.471
72937W        W41331  28.195  19.241  13.608
72938W        W41332  21.663  27.961   3.258
72939W        W41333  41.868  21.618   4.508
72940W        W41334  34.831  39.805   4.151
72941W        W41335  37.345   9.338   3.520
72942W        W41336  31.286   1.504   3.509
72943W        W41337   5.409  12.360   0.409
72944W        W41338  15.143  15.855   1.907
72945W        W41339  18.292  35.479   1.387
72946W        W41340  15.772   3.785   0.897
72947W        W41341  11.670  11.303  13.430
72948W        W41342  24.969   2.910  13.344
72949W        W41343   0.858  34.634  11.022
72950W        W41344   5.299  36.475   1.373
72951W        W41345  12.882  16.064  14.907
72952W        W41346  41.888  33.840  12.848
72953W        W41347  24.480  12.672  11.589
72954W        W41348  35.574  21.086   1.214
72955W        W41349  16.187  17.267  10.224
72956W        W41350  19.218  20.980   1.843
72957W        W41351  38.419  33.955   1.011
72958W        W41352  36.519  37.830   4.480
72959W        W41353  20.104  32.175  11.173
72960W        W41354  43.514  20.623  14.447
72961W        W41355  40.360  28.065   0.194
72962W        W41356  29.428  20.194   4.680
72963W        W41357  34.508  17.557   4.728
72964W        W41358   8.939  44.231  12.772
72965W        W41359  20.741   7.894  14.026
72966W        W41360  39.564   5.483   4.117
72967W        W41361  33.224  11.124   4.879
72968W        W41362  41.230  37.476   0.804
72969W        W41363  37.882  43.398  12.013
72970W        W41364   7.819  21.246   4.707
72971W        W41365  21.878  42.161   1.209
72972W        W41366  10.431  40.747   0.880
72973W        W41367  31.585  39.843   0.289
72974W        W41368  37.147  30.025   0.803
72975W        W41369   2.558  41.968   0.189
72976W        W41370  21.218  12.390   4.181
72977W        W41371   7.805  18.149  13.619
72978W        W41372  28.902  39.300   0.355
72979W        W41373  28.404  29.136   1.576
72980W        W41374  12.759  22.348   2.545
72981W        W41375  26.184  36.003  12.890
72982W        W41376  38.973  43.252   4.208
72983W        W41377  19.572  36.423   3.441
72984W        W41378  14.610  38.725   0.955
72985W        W41379  42.418  21.963   0.329
72986W        W41380  43.833  28.234   2.351
72987W        W41381   8.205   7.527   0.018
72988W        W41382   6.235  17.190   4.077
72989W        W41383  35.286  30.033   3.708
72990W        W41384  12.756   5.310  11.396
72991W        W41385  19.692  22.439   2.829
72992W        W41386  22.219   2.935  12.981
72993W        W41387  44.076  29.941   0.964
72994W        W41388  13.136  26.195  11.152
72995W        W41389   8.287  31.401  10.978
72996W        W41390  34.601  20.864  12.981
72997W        W41391   3.231  14.674  13.490
72998W        W41392  22.213  43.253  14.075
72999W        W41393  18.527  27.411  11.574
73000W        W41394  25.131   7.313  14.228
73001W        W41395  32.497  34.966  14.105
73002W        W41396  31.594  22.704  10.425
73003W        W41397  33.520   8.360   2.623
73004W        W41398   9.350  17.578  11.983
73005W        W41399  42.606  21.237   4.766
73006W        W41400  25.705  17.247  13.787
73007W        W41401   2.928  40.206  11.752
73008W        W41402   1.342  20.184  14.523
73009W        W41403  25.463  26.771  11.121
73010W        W41404  16.037  29.163   2.200
73011W        W41405   9.735  19.661  14.439
73012W        W41406  12.126  24.722   4.197
73013W        W41407  14.692  26.536  13.179
73014W        W41408  38.474  11.384  10.840
73015W        W41409  17.303   0.866  13.606
73016W        W41410  29.067  32.424   2.498
73017W        W41411  14.884  22.047  11.589
73018W        W41412  31.629   0.755  12.675
73019W        W41413  35.512  43.292  10.878
73020W        W41414  26.019  29.423   0.281
73021W        W41415  27.497  38.129   2.335
73022W        W41416  25.276   5.634  12.806
73023W        W41417  25.054  12.488   1.409
73024W        W41418  18.222  23.145  14.398
73025W        W41419   3.664   9.739  13.535
73026W        W41420   3.275   2.805  12.127
73027W        W41421  34.694  40.122  10.213
73028W        W41422   3.453  44.942   2.657
73029W        W41423   6.707   6.473   1.274
73030W        W41424  27.243   3.158  11.173
73031W        W41425   1.977  11.627  10.876
73032W        W41426  19.740  39.668   4.301
73033W        W41427  38.274  30.244   0.096
73034W        W41428  14.861  34.082   0.427
73035W        W41429   7.724  42.795  13.997
73036W        W41430  29.130  24.076   0.219
73037W        W41431   0.872   2.679  12.100
73038W        W41432  18.991  26.427   2.351
73039W        W41433   3.405  33.122   2.725
73040W        W41434   2.811  28.232  14.688
73041W        W41435  40.965  43.263  12.870
73042W        W41436   1.976  16.839   4.588
73043W        W41437  28.394  36.473   4.573
73044W        W41438  32.227  10.592   3.016
73045W        W41439  15.865  38.354   2.772
73046W        W41440   8.986  13.486   4.207
73047W        W41441  19.015  22.567   1.732
73048W        W41442  41.877   6.331   2.661
73049W        W41443  13.810  13.126   4.538
73050W        W41444  22.418   7.421   4.138
73051W        W41445  13.836  30.496  14.993
73052W        W41446   2.448  28.153  13.979
73053W        W41447   2.755  32.558   0.324
73054W        W41448  40.993   6.811  12.332
73055W        W41449  13.030  36.189   0.217
73056W        W41450   7.393   0.229  12.120
73057W        W41451  16.057   5.188   4.541
73058W        W41452  40.728   1.772   1.754
73059W        W41453  20.150  39.471   4.510
73060W        W41454   9.647   1.201  10.611
73061W        W41455  14.213  21.826   3.091
73062W        W41456   8.126   8.013  13.849
73063W        W41457  12.780  21.162   0.745
73064W        W41458  35.706  11.100   2.301
73065W        W41459  30.157  43.433   3.484
73066W        W41460  19.316  41.039   4.921
73067W        W41461  25.470  15.567   3.241
73068W        W41462  33.966  10.098  13.043
73069W        W41463  26.821  42.861   0.816
73070W        W41464   1.908  32.811   0.350
73071W        W41465  32.331  22.917  14.897
73072W        W41466  22.281   1.573   4.035
73073W        W41467   5.414  43.514  12.959
73074W        W41468   8.649  32.310   2.373
73075W        W41469  32.584  33.667  14.782
73076W        W41470  41.354  17.723  12.181
73077W        W41471   2.919   4.521  10.536
73078W        W41472  36.256  16.298   0.372
73079W        W41473  20.251  16.966   4.365
73080W        W41474  36.731   2.602  14.099
73081W        W41475  30.468   9.421   2.791
73082W        W41476  33.674  16.978  11.556
73083W        W41477  27.705  12.265   3.294
73084W        W41478   1.126  30.221  12.383
73085W        W41479   3.429  17.065   3.297
73086W        W41480  41.275   3.143   3.255
73087W        W41481  27.608  43.497   0.298
73088W        W41482  44.925  17.335  13.577
73089W        W41483   1.388  33.240   0.919
73090W        W41484  39.621  23.299  11.146
73091W        W41485   9.290  22.945   3.798
73092W        W41486  31.512  27.567   2.868
73093W        W41487   1.796  14.715   0.013
73094W        W41488  15.670   8.443   5.349
73095W        W41489  16.177  13.490  10.775
73096W        W41490  42.949  35.186   0.761
73097W        W41491  21.709  10.929   3.586
73098W        W41492  14.753   9.709  12.192
73099W        W41493  15.057  19.753  10.447
73100W        W41494  24.439  17.293   0.567
73101W        W41495  38.636  44.040  10.094
73102W        W41496  35.469  43.919   1.125
73103W        W41497  13.728  10.081  14.920
73104W        W41498  39.362  27.431   0.073
73105W        W41499  32.025  20.738   1.219
73106W        W41500   8.684   3.846   3.627
73107W        W41501  15.854  33.286   0.855
73108W        W41502  36.322   9.189   2.757
73109W        W41503  12.433  37.594  14.775
73110W        W41504  27.584  37.755  13.500
73111W        W41505   2.871  42.228  14.897
73112W        W41506  13.110  30.936   3.648
73113W        W41507  13.794   7.441  11.167
73114W        W41508  22.701  42.367  13.320
73115W        W41509   9.210   4.025  11.171
73116W        W41510  22.679  26.992  10.663
73117W        W41511  20.623  37.377  12.582
73118W        W41512   0.876  36.810   4.568
73119W        W41513  28.880  22.471   1.674
73120W        W41514   7.897  17.837  12.050
73121W        W41515  15.590  30.568  13.362
73122W        W41516   8.748   0.792  12.744
73123W        W41517  38.246  24.996   1.869
73124W        W41518  17.608  11.299   1.810
73125W        W41519  25.669  33.399   4.363
73126W        W41520   4.940  33.953  12.079
73127W        W41521  20.333  30.583  10.872
73128W        W41522  27.168   9.413  10.756
73129W        W41523   5.753  24.148   3.278
73130W        W41524   3.325  19.307   2.837
73131W        W41525  22.167  27.319   2.087
73132W        W41526  35.318  33.150   3.344
73133W        W41527  40.939  21.520  14.974
73134W        W41528  31.681  39.476  13.508
73135W        W41529   9.298   5.143   3.654
73136W        W41530   2.010  35.931  14.435
73137W        W41531  38.407  27.433   4.342
73138W        W41532  25.623  16.162  11.743
73139W        W41533  35.691  21.794  13.721
73140W        W41534  34.676  15.706   4.169
73141W        W41535  21.758  22.775   0.494
73142W        W41536   2.705  43.786   3.231
73143W        W41537  24.237  23.220  12.882
73144W        W41538  36.767  41.463  13.314
73145W        W41539   7.925  32.494   0.351
73146W        W41540  38.888  35.587  14.107
73147W        W41541  16.635  14.540   3.530
73148W        W41542  38.957  19.773  12.983
73149W        W41543  41.584  44.067   3.507
73150W        W41544   4.803  21.324   1.837
73151W        W41545  26.396  17.213   1.596
73152W        W41546  40.598  27.181   2.403
73153W        W41547  42.711  33.167   4.612
73154W        W41548  40.911  19.702   2.342
73155W        W41549  14.756  22.545  14.986
73156W        W41550  10.253  20.289  14.288
73157W        W41551  16.392  15.636  14.862
73158W        W41552   7.152  44.741  13.968
73159W        W41553  15.333  42.401  13.441
73160W        W41554  36.366   5.482  14.990
73161W        W41555   3.072  30.151  11.223
73162W        W41556  12.074  20.023   1.848
73163W        W41557  44.550  42.667  12.619
73164W        W41558  20.550   5.282  10.486
73165W        W41559  14.569  29.921   1.809
73166W        W41560  29.159  33.393   2.305
73167W        W41561  27.635  14.772   4.563
73168W        W41562  12.727  32.547   0.961
73169W        W41563  23.004   6.394   0.733
73170W        W41564  15.446  27.096   4.142
73171W        W41565  38.927   5.463   0.339
73172W        W41566   9.266  32.068  12.475
73173W        W41567  20.207   1.589  10.956
73174W        W41568   4.673  14.058   3.726
73175W        W41569  25.426   5.426  13.515
73176W        W41570  18.485  31.628  10.530
73177W        W41571  18.598   5.682   1.683
73178W        W41572  22.091  40.326   3.867
73179W        W41573  15.017  12.325   2.698
73180W        W41574   6.768  40.546   3.139
73181W        W41575  37.968  29.169   3.907
73182W        W41576  36.439   7.719   3.019
73183W        W41577  38.559  41.125  12.935
73184W        W41578   4.152  34.583  12.758
73185W        W41579   6.112  28.665   0.337
73186W        W41580  24.516  44.243   0.926
73187W        W41581  25.836   1.536  13.380
73188W        W41582  17.882  34.457   0.395
73189W        W41583  14.387  30.444   1.004
73190W        W41584  10.311  40.262   3.317
73191W        W41585  44.269  10.815  13.563
73192W        W41586  17.817  37.379   4.549
73193W        W41587  10.115  39.112   4.083
73194W        W41588   2.903   1.318   0.278
73195W        W41589  18.999  40.821   4.472
73196W        W41590  33.907  37.065   2.303
73197W        W41591  14.396  31.363   3.518
73198W        W41592  17.864  21.072   3.203
73199W        W41593  17.183  23.519   1.880
73200W        W41594   7.209  40.324  13.066
73201W        W41595  33.392   3.474   2.394
73202W        W41596  16.296  14.969   0.419
73203W        W41597  37.680  43.999  13.600
73204W        W41598   4.335  23.580  13.416
73205W        W41599  35.485  34.660  14.555
73206W        W41600  12.854   8.602  12.463
73207W        W41601  30.272   6.915  14.402
73208W        W41602  21.579  30.134  10.668
73209W        W41603  44.777  12.122  11.604
73210W        W41604   5.577  18.716  14.626
73211W        W41605  10.656   6.507   1.328
73212W        W41606  39.762  34.241   3.149
73213W        W41607   9.347  28.344   3.223
73214W        W41608  15.663  24.909   3.158
73215W        W41609  38.255  38.436   1.734
73216W        W41610  37.120  13.090   5.046
73217W        W41611  27.675  25.509  12.556
73218W        W41612  15.222  34.706  11.421
73219W        W41613   0.823  31.668  13.328
73220W        W41614  26.609  23.830   0.557
73221W        W41615  37.061   1.247  14.398
73222W        W41616   1.771  33.053   1.232
73223W        W41617  32.261  43.467   1.723
73224W        W41618  24.745   0.011   2.604
73225W        W41619  15.805  33.363  13.426
73226W        W41620  37.916   3.937   1.162
73227W        W41621  26.933  12.231  11.367
73228W        W41622  14.072   4.037   4.717
73229W        W41623  28.599  28.980  10.736
73230W        W41624  12.101  15.323   4.052
73231W        W41625  15.482  12.829   1.341
73232W        W41626  29.874   8.842   2.820
73233W        W41627  29.099  24.707   4.043
73234W        W41628   1.849  27.690   2.845
73235W        W41629  19.765  25.715   3.307
73236W        W41630  17.667  29.900  10.623
73237W        W41631  14.388  38.605   2.810
73238W        W41632  19.355  11.716   2.480
73239W        W41633   4.086  25.461   2.959
73240W        W41634  40.137   0.799  11.851
73241W        W41635  31.488  12.131  11.515
73242W        W41636  44.900  38.375  14.042
73243W        W41637  35.564  32.745  11.994
73244W        W41638  34.099  18.228  12.953
73245W        W41639   5.306  13.568  14.919
73246W        W41640  14.186  20.782   3.169
73247W        W41641  31.669  42.491   1.877
73248W        W41642  44.437   3.796  11.242
73249W        W41643  40.889  36.874  14.856
73250W        W41644  44.455  30.026   4.086
73251W        W41645  39.011  42.491   1.468
73252W        W41646  29.398  43.059  13.382
73253W        W41647  25.589   4.002  14.481
73254W        W41648  42.758  11.361   1.393
73255W        W41649   6.140  29.099   3.203
73256W        W41650  16.592   5.285   1.028
73257W        W41651  37.798  19.524  14.815
73258W        W41652  26.782   8.780  10.234
73259W        W41653   7.048  40.951  13.911
73260W        W41654  30.796  43.471   4.108
73261W        W41655   2.817  23.527   4.034
73262W        W41656  28.355  41.898   4.128
73263W        W41657   7.278  24.498   2.135
73264W        W41658   0.219   0.773  14.543
73265W        W41659  37.860  17.046  11.118
73266W        W41660   1.832  17.104  12.134
73267W        W41661  12.598  22.720  11.270
73268W        W41662  24.159  16.338  11.222
73269W        W41663  20.096  31.988  12.048
73270W        W41664  18.075  12.155   2.894
73271W        W41665  18.907  13.603  10.420
73272W        W41666  41.818  34.253   0.234
73273W        W41667  15.676   8.222  14.392
73274W        W41668  29.589  39.145   5.175
73275W        W41669  34.895   9.004  14.093
73276W        W41670   8.136   7.825  10.753
73277W        W41671  33.771  41.443   2.727
73278W        W41672  20.220  10.917  14.858
73279W        W41673  31.431  17.151   2.615
73280W        W41674   0.443  11.932  13.746
73281W        W41675  11.219  20.740  10.918
73282W        W41676  24.103  41.256   2.691
73283W        W41677  18.158  26.244   4.772
73284W        W41678   4.357   0.222  12.352
73285W        W41679  18.127  35.534   4.324
73286W        W41680  30.043  20.909   3.682
73287W        W41681  18.414  19.867   3.709
73288W        W41682  28.752   2.987  12.307
73289W        W41683  21.070  18.774   4.607
73290W        W41684  43.530   1.395   3.204
73291W        W41685  16.742  32.077   1.598
73292W        W41686  21.567  38.316  13.758
73293W        W41687  42.591  26.107  13.857
73294W        W41688  20.804  22.712  13.490
73295W        W41689  42.372  26.180   3.594
73296W        W41690  19.278  12.582  13.019
73297W        W41691  15.664  43.884   0.895
73298W        W41692  41.376  12.930  12.135
73299W        W41693   5.538  40.239  14.862
73300W        W41694  34.737  11.480  14.849
73301W        W41695   9.869   1.217   1.343
73302W        W41696  29.912  34.948  12.522
73303W        W41697  20.807  32.573  14.951
73304W        W41698   1.950  37.620  10.648
73305W        W41699  20.021   7.198  11.665
73306W        W41700  20.846  41.025   2.667
73307W        W41701  41.809  25.602   4.241
73308W        W41702   8.671  34.352  14.373
73309W        W41703  39.287  29.168  13.029
73310W        W41704   4.473  26.696   0.471
73311W        W41705  25.889  32.884  10.608
73312W        W41706  28.087  30.058  13.307
73313W        W41707  29.589  16.624   2.524
73314W        W41708  19.694  22.110   1.222
73315W        W41709  34.697  17.316   0.627
73316W        W41710  12.795  42.027  14.042
73317W        W41711   2.601  10.436   1.344
73318W        W41712  44.179   6.961  13.440
73319W        W41713  26.082  43.227   0.263
73320W        W41714  16.592  40.314   4.557
73321W        W41715  27.709  38.026   2.816
73322W        W41716  24.198  17.889  12.085
73323W        W41717   9.207  17.187   1.228
73324W        W41718   9.595  15.650  12.062
73325W        W41719  40.200  15.170   1.895
73326W        W41720   5.894  10.196   5.245
73327W        W41721  33.976  31.018  10.943
73328W        W41722  34.896  36.322  11.948
73329W        W41723  16.846   0.504   0.771
73330W        W41724   6.232  33.507   4.622
73331W        W41725  11.726  31.066   0.614
73332W        W41726  20.573  26.043  11.585
73333W        W41727  16.545  40.941  13.511
73334W        W41728   0.124  41.942   1.342
73335W        W41729   9.922  25.660   4.958
73336W        W41730  44.234  22.229   0.868
73337W        W41731  37.602  33.565  11.391
73338W        W41732  28.738  41.931  13.364
73339W        W41733   7.013   4.445   0.751
73340W        W41734  15.912   8.411  12.122
73341W        W41735  26.229  14.112   1.913
73342W        W41736   6.847  12.373  11.974
73343W        W41737  43.585   9.386  11.044
73344W        W41738  21.966  23.535   2.942
73345W        W41739   3.986  10.543  10.273
73346W        W41740   0.482  35.770  11.988
73347W        W41741  16.947  18.081   0.950
73348W        W41742   3.984  41.842   4.568
73349W        W41743  23.101   8.727   1.428
73350W        W41744  31.235  27.107  10.367
73351W        W41745  36.940  41.410  11.072
73352W        W41746  34.815   6.819  12.120
73353W        W41747  33.144  39.982  12.103
73354W        W41748   4.964  12.295  13.490
73355W        W41749   0.825  40.949  12.042
73356W        W41750  11.206  39.811  10.864
73357W        W41751  29.198  23.289   1.103
73358W        W41752  25.677  42.793  13.893
73359W        W41753  11.364  20.199  12.134
73360W        W41754  20.160   7.106   0.276
73361W        W41755  24.979  23.337  12.521
73362W        W41756   4.686   8.177  11.136
73363W        W41757  21.980   3.836  12.440
73364W        W41758  30.016  40.192   2.178
73365W        W41759  14.039  37.131  11.535
73366W        W41760  16.531   3.254   0.865
73367W        W41761  29.710  44.698  12.547
73368W        W41762   7.025   0.163  13.659
73369W        W41763  24.597  28.266   3.880
73370W        W41764  12.205  39.061  12.914
73371W        W41765  32.674  38.013   1.317
73372W        W41766   2.757  33.118  14.831
73373W        W41767   6.886  14.298   0.939
73374W        W41768  13.916  17.106   4.077
73375W        W41769  30.906  40.867   3.393
73376W        W41770  28.488  42.016  12.015
73377W        W41771   5.133  34.949   3.497
73378W        W41772  29.004   1.738   1.868
73379W        W41773  25.089   9.132  13.827
73380W        W41774   2.036   8.305  10.929
73381W        W41775  24.035  28.672   2.334
73382W        W41776  34.328   1.744  10.854
73383W        W41777  36.896  10.856  10.760
73384W        W41778  44.171  38.740  12.940
73385W        W41779  16.526   9.797  13.091
73386W        W41780  19.746  17.724  12.870
73387W        W41781  12.897  17.208   4.128
73388W        W41782  14.586   9.219   0.229
73389W        W41783  20.645  44.078   3.393
73390W        W41784   0.260  38.337   1.256
73391W        W41785  40.401  23.276   3.870
73392W        W41786   3.319  20.244   0.858
73393W        W41787  36.094  22.984   0.922
73394W        W41788  40.794  35.066  12.915
73395W        W41789  12.720  41.827  11.140
73396W        W41790  26.727  11.346  13.402
73397W        W41791   0.367   8.341   0.353
73398W        W41792  14.794  40.324   0.818
73399W        W41793  17.114  11.304   1.990
73400W        W41794   8.793  20.266  12.148
73401W        W41795   8.857  25.493   2.696
73402W        W41796  27.076   6.564  13.149
73403W        W41797  19.785   5.243  13.111
73404W        W41798  24.029   0.961  10.904
73405W        W41799  11.116  17.196   1.366
73406W        W41800  39.400   1.235  11.934
73407W        W41801  26.878  29.039   1.210
73408W        W41802  24.549   2.841   2.802
73409W        W41803  29.336   7.911  11.007
73410W        W41804  34.565   1.476   0.326
73411W        W41805  21.178  44.846  14.555
73412W        W41806  13.115  42.835  14.420
73413W        W41807  11.105  28.417  11.173
73414W        W41808  26.409  20.199  11.248
73415W        W41809  26.394  13.338   0.819
73416W        W41810  29.722  27.120  12.031
73417W        W41811  32.866  35.602   3.222
73418W        W41812   9.466   0.278   4.606
73419W        W41813  41.571  26.567   0.507
73420W        W41814  16.015   0.800   2.783
73421W        W41815  17.235  23.290   1.413
73422W        W41816  37.477  35.040   1.296
73423W        W41817  11.219  18.273   4.103
73424W        W41818  23.550  13.031   2.752
73425W        W41819  14.890  19.635  12.462
73426W        W41820  44.873   4.298   2.773
73427W        W41821  38.067  44.890  14.691
73428W        W41822  24.071  32.310  11.726
73429W        W41823   9.324  31.464   2.449
73430W        W41824  20.508  34.066   3.725
73431W        W41825  41.386  17.021  11.215
73432W        W41826  22.037  11.654  12.902
73433W        W41827  11.641  25.593   1.863
73434W        W41828  41.861  43.580  12.523
73435W        W41829  32.287  20.739   2.436
73436W        W41830   9.142  10.667   2.122
73437W        W41831   2.021  35.080   1.213
73438W        W41832  32.554  14.201   0.173
73439W        W41833  35.544   5.303   2.438
73440W        W41834  38.809  27.956  10.411
73441W        W41835  21.268   6.691  10.590
73442W        W41836   8.673   6.884  12.631
73443W        W41837  19.206  36.393   1.213
73444W        W41838  18.208  41.249  12.564
73445W        W41839  39.955  37.335   3.724
73446W        W41840  24.468  26.798  12.581
73447W        W41841  18.255  14.278   2.297
73448W        W41842  11.112  21.784  12.515
73449W        W41843  42.987  15.715  11.699
73450W        W41844  42.900  23.478  12.946
73451W        W41845  14.617  19.925  10.206
73452W        W41846  30.575  21.159  12.935
73453W        W41847  13.712  23.856  12.968
73454W        W41848  14.849  26.549  14.036
73455W        W41849   7.814  41.568  11.770
73456W        W41850  43.822  16.707  11.983
73457W        W41851  41.024  37.811   3.386
73458W        W41852  30.477  10.236   0.128
73459W        W41853  18.417  38.816  14.073
73460W        W41854  20.306  44.730  12.523
73461W        W41855  44.850   5.090  14.843
73462W        W41856  10.214   5.942  13.796
73463W        W41857  29.283  27.656   5.027
73464W        W41858   2.090  17.613  13.839
73465W        W41859  20.021  28.319   0.941
73466W        W41860  28.401   3.330   0.981
73467W        W41861  24.978   1.932  12.454
73468W        W41862  35.056  34.894   0.421
73469W        W41863  19.552  33.496   5.164
73470W        W41864  37.826  15.924  14.324
73471W        W41865  32.541  26.599   0.480
73472W        W41866   2.218   6.600  14.316
73473W        W41867  44.390  17.685   2.475
73474W        W41868  36.429  19.072   2.357
73475W        W41869  16.672  43.957   2.418
73476W        W41870   4.690  34.428  12.090
73477W        W41871  35.823  19.025   3.954
73478W        W41872  44.767  18.654   2.146
73479W        W41873  29.619  24.200   4.690
73480W        W41874  37.830  19.998   2.086
73481W        W41875  34.398  11.338   1.722
73482W        W41876  30.588  19.112  14.082
73483W        W41877  30.400   8.498   4.194
73484W        W41878  34.679   8.694  14.841
73485W        W41879  13.455  42.719   5.096
73486W        W41880  25.975   3.235   4.083
73487W        W41881   5.948   9.238   4.634
73488W        W41882  25.522  21.679  11.196
73489W        W41883  36.912  20.292  13.341
73490W        W41884  17.383  43.791  11.735
73491W        W41885  28.641  33.323   2.675
73492W        W41886  22.037  15.263  13.070
73493W        W41887  34.923  23.365   3.658
73494W        W41888  11.359  10.770   4.765
73495W        W41889  10.121  16.257   4.016
73496W        W41890  14.817  32.314   3.581
73497W        W41891  28.571   4.461   2.903
73498W        W41892  32.148   8.241   1.756
73499W        W41893   5.254   9.184   4.020
73500W        W41894  33.926  11.237  14.884
73501W        W41895  24.196  26.576  11.635
73502W        W41896  25.728  42.745  10.812
73503W        W41897  43.654   4.892   2.725
73504W        W41898  37.354  20.302  11.141
73505W        W41899   6.905  21.130  12.444
73506W        W41900  10.285  15.645  13.579
73507W        W41901  25.706   2.387   3.283
73508W        W41902   0.772   4.416   2.730
73509W        W41903  23.336  20.475   0.993
73510W        W41904   1.252  27.704   3.729
73511W        W41905  33.215  23.295  14.446
73512W        W41906   2.579  41.510  14.976
73513W        W41907  22.519  34.171  14.710
73514W        W41908  21.535  33.916   4.623
73515W        W41909  17.079  34.027  12.902
73516W        W41910  28.882  26.851   4.495
73517W        W41911  35.877  19.862   4.597
73518W        W41912  10.556   0.851   0.988
73519W        W41913  23.797  40.045   2.270
73520W        W41914  17.094  28.922  12.376
73521W        W41915  29.054   4.625  13.979
73522W        W41916   3.434   0.523   1.817
73523W        W41917   9.742   5.353   4.405
73524W        W41918  20.484  44.017  11.917
73525W        W41919  39.210  41.594   1.878
73526W        W41920  11.289  19.744   1.677
73527W        W41921  19.349  10.967  11.105
73528W        W41922  43.962  21.798  13.969
73529W        W41923   7.736  42.082   0.350
73530W        W41924  11.607  28.542  10.388
73531W        W41925  35.458   5.811  10.740
73532W        W41926  26.191  42.794  12.792
73533W        W41927  44.282  21.602  12.066
73534W        W41928  11.885  24.044   2.757
73535W        W41929  17.554  18.047   2.908
73536W        W41930  41.273  28.420   1.171
73537W        W41931  10.310   6.464  14.995
73538W        W41932  40.399  44.896  11.061
73539W        W41933  39.483  31.808  14.043
73540W        W41934  25.038  30.580   3.622
73541W        W41935  42.786  21.522  13.033
73542W        W41936   2.885   8.468  12.402
73543W        W41937  39.997  43.909   1.455
73544W        W41938  14.239   4.400   5.072
73545W        W41939   7.220   3.474  14.505
73546W        W41940  25.012  38.987   2.671
73547W        W41941  21.435  32.886   0.969
73548W        W41942  43.275  27.734   0.777
73549W        W41943  32.999  43.378  13.770
73550W        W41944  34.711  10.679  12.153
73551W        W41945   6.824  18.507  13.787
73552W        W41946   8.447  16.002   3.856
73553W        W41947  31.936   9.661  10.946
73554W        W41948   1.620   7.881  12.538
73555W        W41949  39.913  31.629  14.837
73556W        W41950  38.846  15.906   1.074
73557W        W41951  31.127  33.975   3.233
73558W        W41952  15.478  20.525   2.391
73559W        W41953  11.697  36.363  12.037
73560W        W41954   6.422  29.670   4.132
73561W        W41955   7.720  35.282  14.389
73562W        W41956  44.883  20.615   2.803
73563W        W41957  19.312  37.920  13.828
73564W        W41958  17.036  39.951   0.002
73565W        W41959  26.429  24.255   5.029
73566W        W41960  29.521  15.346  14.238
73567W        W41961  13.486  15.395   4.921
73568W        W41962   4.349  13.908  13.043
73569W        W41963  14.220  15.811   0.926
73570W        W41964  31.025  14.092   4.588
73571W        W41965  13.608  27.236   0.836
73572W        W41966  16.089  38.475  13.309
73573W        W41967  13.508  20.101   4.893
73574W        W41968   0.722  40.598   2.413
73575W        W41969  28.490  28.177   1.946
73576W        W41970  17.326  44.119  13.891
73577W        W41971  10.080  43.988   1.701
73578W        W41972  32.754   3.401  14.863
73579W        W41973  19.160  41.213  11.667
73580W        W41974   5.419  43.840   4.640
73581W        W41975  32.884  44.967  12.489
73582W        W41976  32.393  39.534  14.771
73583W        W41977  38.773  33.837  11.224
73584W        W41978  38.984  30.664   3.858
73585W        W41979  16.645  44.293   2.813
73586W        W41980  40.146  26.617   4.585
73587W        W41981   2.755  28.751  12.905
73588W        W41982  28.044  30.392   3.042
73589W        W41983  27.062  43.917  12.402
73590W        W41984  38.608  27.573  10.094
73591W        W41985  25.692  32.022  13.076
73592W        W41986  39.033  13.838  14.388
73593W        W41987  42.365   1.374   4.402
73594W        W41988  31.218   2.482   1.324
73595W        W41989  38.405  26.466  14.033
73596W        W41990  25.992  27.166  12.457
73597W        W41991  16.148  37.883  12.079
73598W        W41992   9.407  18.102   1.845
73599W        W41993   8.003  14.827   0.446
73600W        W41994  21.443  15.828   4.309
73601W        W41995   4.229  34.601  12.266
73602W        W41996  42.312   9.718  14.291
73603W        W41997  18.208  37.306  12.087
73604W        W41998   6.335   3.388  12.681
73605W        W41999   4.249  41.300   4.602
73606W        W42000  31.233  24.130   4.605
73607W        W42001  15.104   2.116  11.735
73608W        W42002  13.232  36.871   1.356
73609W        W42003  34.202  39.948  10.369
73610W        W42004  13.737   1.367  12.056
73611W        W42005  11.154   7.709  11.570
73612W        W42006  32.959  29.863  14.396
73613W        W42007  15.478  22.622   4.043
73614W        W42008   6.349  12.087  12.463
73615W        W42009  42.580  14.358   0.388
73616W        W42010  29.433  33.002  11.534
73617W        W42011  34.193  11.369   4.800
73618W        W42012  25.205  38.525   1.710
73619W        W42013   1.860  10.729  12.399
73620W        W42014   8.955  11.460  13.052
73621W        W42015   4.296  42.296   0.289
73622W        W42016  37.583  22.822  14.904
73623W        W42017  42.277  29.603  12.863
73624W        W42018   2.786  31.169  14.084
73625W        W42019  35.562  16.302  10.705
73626W        W42020  27.265  34.671   4.598
73627W        W42021   4.602  16.710  13.546
73628W        W42022  21.736  34.362  12.534
73629W        W42023   1.847   7.343   0.895
73630W        W42024  14.688  12.662   3.590
73631W        W42025  31.572   6.414  12.477
73632W        W42026  30.646  23.523   3.553
73633W        W42027  33.371  31.021   2.815
73634W        W42028  41.937  22.592   3.392
73635W        W42029  35.050   5.715   4.557
73636W        W42030  37.628  19.605   0.652
73637W        W42031  14.490   5.455   0.785
73638W        W42032  17.342  39.587  10.862
73639W        W42033   1.309  30.658  11.454
73640W        W42034   6.924   1.195  11.195
73641W        W42035   9.206  38.469   3.538
73642W        W42036   8.965  41.823   5.153
73643W        W42037  35.794  32.183   3.300
73644W        W42038  33.179  18.638   3.208
73645W        W42039  15.122  11.060  12.061
73646W        W42040  21.532  22.233  13.768
73647W        W42041  26.056   4.928  13.157
73648W        W42042  15.585  16.671  11.976
73649W        W42043  37.894  25.514  12.865
73650W        W42044  14.472  44.375  13.150
73651W        W42045  16.461   5.527  10.634
73652W        W42046  35.655  31.380  10.605
73653W        W42047   7.150  33.595  11.112
73654W        W42048  33.334  29.313   5.066
73655W        W42049  28.209  27.658   2.842
73656W        W42050   3.799  23.013  14.164
73657W        W42051  15.184  11.181   3.192
73658W        W42052  13.543  27.219  14.959
73659W        W42053   1.124   6.878   2.865
73660W        W42054  42.762   8.927   1.913
73661W        W42055  39.329  31.152  13.470
73662W        W42056  31.911  41.858  11.586
73663W        W42057  17.198  24.423   5.002
73664W        W42058  39.268  27.187   2.275
73665W        W42059  34.693  23.080   3.263
73666W        W42060  33.211  17.156   0.728
73667W        W42061  38.534  14.155   4.507
73668W        W42062   0.877  18.015  14.440
73669W        W42063  37.930  17.161  13.938
73670W        W42064  19.055   2.526  11.648
73671W        W42065  27.648  16.693  12.055
73672W        W42066  20.748  28.744  14.818
73673W        W42067  42.216  26.463  13.863
73674W        W42068  22.406  34.770  13.395
73675W        W42069  28.587  11.349   0.930
73676W        W42070   5.803   9.672   0.527
73677W        W42071   8.741   0.937  11.098
73678W        W42072  15.625  21.502  11.561
73679W        W42073  20.185  16.055  12.903
73680W        W42074  34.578  25.538   1.246
73681W        W42075  35.545   8.838  12.831
73682W        W42076  10.843  12.280  10.651
73683W        W42077   4.388   4.572   3.110
73684W        W42078   3.515  34.474   0.445
73685W        W42079  43.352   5.144   0.270
73686W        W42080  18.983   8.059   2.825
73687W        W42081  10.234   0.051   2.233
73688W        W42082  29.371  36.576  11.170
73689W        W42083  16.897  21.726  14.522
73690W        W42084  27.974   1.176  14.479
73691W        W42085  10.054  15.860  12.831
73692W        W42086   2.174   5.245   1.361
73693W        W42087  37.457  28.711   2.844
73694W        W42088  44.874  23.876   1.005
73695W        W42089   4.150  42.940  13.937
73696W        W42090   7.357  17.868  13.650
73697W        W42091  14.228   9.609   0.287
73698W        W42092  12.264   7.784  12.205
73699W        W42093  20.775  18.024  12.937
73700W        W42094  11.826  39.441   4.512
73701W        W42095  35.552   1.859  11.503
73702W        W42096  31.518   6.376  13.380
73703W        W42097  39.033  27.454   0.476
73704W        W42098   7.715  17.681   3.191
73705W        W42099  25.781  22.071  10.992
73706W        W42100  34.162  26.450  12.005
73707W        W42101  18.072  26.950  13.117
73708W        W42102  10.113  37.552  12.943
73709W        W42103  20.323  13.610   0.037
73710W        W42104  16.679  32.642  12.473
73711W        W42105  21.085  16.473  12.437
73712W        W42106   8.288  13.309   2.338
73713W        W42107  29.703   9.848   0.375
73714W        W42108  35.651  27.138  14.003
73715W        W42109   9.321  23.339   0.458
73716W        W42110  25.033   0.233  13.382
73717W        W42111  40.416  11.348  14.069
73718W        W42112   0.744  22.985  13.028
73719W        W42113  41.489   2.770   1.467
73720W        W42114  44.085  23.766   1.572
73721W        W42115   6.477  43.539   0.002
73722W        W42116  10.376  15.726   1.693
73723W        W42117  43.402  23.513  11.533
73724W        W42118  41.418   9.912   3.928
73725W        W42119   9.642  14.049  12.449
73726W        W42120  15.038  43.295   1.734
73727W        W42121  16.294  18.309  14.538
73728W        W42122  40.717  23.158   2.722
73729W        W42123   2.863  13.737   0.386
73730W        W42124  13.159  29.010  12.798
73731W        W42125  10.156  31.869  10.448
73732W        W42126  16.546  15.071   4.918
73733W        W42127  13.632   1.863  11.141
73734W        W42128  15.139  41.490   4.060
73735W        W42129  34.499  32.020   4.120
73736W        W42130  10.707  29.625  13.057
73737W        W42131   8.913  17.577  11.179
73738W        W42132   9.452   5.276   0.815
73739W        W42133  11.621  32.906  10.633
73740W        W42134  33.378  21.717  10.490
73741W        W42135  15.244  39.606   3.162
73742W        W42136  26.709  29.145   4.310
73743W        W42137  44.411  15.216  14.914
73744W        W42138  31.275  34.498   4.204
73745W        W42139  26.683  25.565   2.219
73746W        W42140   1.116   1.438   1.782
73747W        W42141  14.672  36.938  13.767
73748W        W42142  13.027  33.931   3.582
73749W        W42143   2.264  36.548  13.877
73750W        W42144  34.300  28.501  11.178
73751W        W42145   4.860  36.984   0.895
73752W        W42146   5.281  14.377   2.247
73753W        W42147   0.498   1.322   3.343
73754W        W42148  40.928  32.259   2.953
73755W        W42149  13.558  22.134  13.615
73756W        W42150  24.977  12.602   3.232
73757W        W42151   6.234  43.887   2.358
73758W        W42152   8.758   2.824  10.655
73759W        W42153  32.985  32.922  11.503
73760W        W42154  22.643   7.731   3.782
73761W        W42155  27.369  14.744  10.552
73762W        W42156  10.422  25.891   1.407
73763W        W42157  25.170  25.496   4.575
73764W        W42158   5.410   4.730   2.677
73765W        W42159   2.480  26.117  11.130
73766W        W42160  22.759  30.044  14.033
73767W        W42161  21.019   8.845  10.495
73768W        W42162  15.253  22.751   4.510
73769W        W42163  44.439  18.086   3.813
73770W        W42164  16.180  37.535  13.554
73771W        W42165  22.209  19.748  12.913
73772W        W42166   0.923  27.442  11.061
73773W        W42167   1.372   6.369   0.822
73774W        W42168   1.246  13.249   1.361
73775W        W42169   2.045   4.114  12.458
73776W        W42170  25.706  10.644   2.472
73777W        W42171  35.743  27.093   2.935
73778W        W42172  27.928  23.330   4.478
73779W        W42173  18.741  37.624   4.533
73780W        W42174   5.428   8.962   1.745
73781W        W42175  22.018   3.796   3.107
73782W        W42176  38.715  16.121  10.899
73783W        W42177   6.119  10.344  14.921
73784W        W42178   0.387  28.710  11.181
73785W        W42179  34.823  19.287  11.161
73786W        W42180   9.838  10.775   0.659
73787W        W42181   4.391  41.993   0.702
73788W        W42182  33.213   2.857   0.724
73789W        W42183  32.846  18.024  13.848
73790W        W42184   6.158  31.323  13.338
73791W        W42185  17.103  34.367   4.077
73792W        W42186  26.136  16.360  13.907
73793W        W42187  12.138  32.503   4.511
73794W        W42188   8.162  36.722  11.892
73795W        W42189  34.108  31.085   4.652
73796W        W42190  26.542  23.185  10.604
73797W        W42191   9.698  10.692  14.650
73798W        W42192  16.177  33.139   9.879
73799W        W42193   4.402  20.551   3.662
73800W        W42194  31.614  34.020   1.973
73801W        W42195  37.506  29.032  13.073
73802W        W42196  31.309  19.014  13.595
73803W        W42197  28.761  37.830   3.144
73804W        W42198   6.022  11.819   2.569
73805W        W42199   3.823  39.400  12.855
73806W        W42200  24.787   4.298   3.776
73807W        W42201  38.522  18.766   3.891
73808W        W42202  25.346   4.730  10.180
73809W        W42203  37.361   0.870  14.571
73810W        W42204  13.057  36.022   4.240
73811W        W42205  18.393   1.259   1.856
73812W        W42206  17.782  42.054   4.639
73813W        W42207  14.442  42.024  10.754
73814W        W42208  13.173   5.468   0.837
73815W        W42209  26.309   2.373   5.064
73816W        W42210  17.108  40.826   0.366
73817W        W42211  12.197  25.306  12.432
73818W        W42212  17.241  29.360  11.523
73819W        W42213  11.867  25.019  12.959
73820W        W42214  35.300  12.333   4.569
73821W        W42215   4.680  38.971   5.041
73822W        W42216  29.214   4.822   4.179
73823W        W42217  26.111  38.928  12.258
73824W        W42218  19.090   4.916  11.969
73825W        W42219  15.086  42.831   1.381
73826W        W42220  23.217  33.575   2.784
73827W        W42221  41.429  35.447  14.362
73828W        W42222   7.930  40.930  12.489
73829W        W42223   8.521  13.681   0.638
73830W        W42224  37.955  44.797  11.547
73831W        W42225  34.325  30.715  14.493
73832W        W42226  18.363  13.630  12.487
73833W        W42227   7.433  28.383  10.542
73834W        W42228  43.369  24.217  13.062
73835W        W42229  35.448   5.414  12.469
73836W        W42230   7.428  23.355  10.945
73837W        W42231  23.630   0.240   2.619
73838W        W42232  27.395  15.470  13.237
73839W        W42233  25.040  39.532   2.704
73840W        W42234   5.320  12.393   2.376
73841W        W42235   2.347  13.378  14.665
73842W        W42236   9.605  40.759  12.994
73843W        W42237  30.634  29.496   2.304
73844W        W42238  31.353   5.887  13.465
73845W        W42239  13.864   9.431   5.476
73846W        W42240  15.687  30.730   1.794
73847W        W42241  36.492   9.819   1.699
73848W        W42242   1.872  35.510  13.079
73849W        W42243  20.683  40.638  13.162
73850W        W42244  30.495  27.350   0.743
73851W        W42245   1.427  42.885  14.059
73852W        W42246  21.267  22.459   2.258
73853W        W42247  39.524  12.408   2.839
73854W        W42248   9.192  41.427   1.795
73855W        W42249  32.585  43.698  10.659
73856W        W42250  30.612  29.591  13.218
73857W        W42251  19.174  36.382  11.576
73858W        W42252  27.256  39.901   0.023
73859W        W42253  21.606   9.140   2.617
73860W        W42254  39.963  26.283  14.010
73861W        W42255  17.624  31.010  13.570
73862W        W42256   0.235  41.442   2.453
73863W        W42257  29.520   5.642  11.020
73864W        W42258   5.397  19.484   0.773
73865W        W42259  32.280   0.063  13.020
73866W        W42260  40.642  17.595   2.728
73867W        W42261   9.283   9.835   4.659
73868W        W42262  39.913  40.938   0.689
73869W        W42263  25.333  38.900   4.137
73870W        W42264  17.830  11.205  11.494
73871W        W42265  19.561  43.708   4.620
73872W        W42266  24.415  10.174   0.507
73873W        W42267  27.341  22.145  14.358
73874W        W42268  23.213  44.810  14.318
73875W        W42269  18.601  19.768  10.441
73876W        W42270   0.354  27.018   2.252
73877W        W42271  30.259  28.735   4.435
73878W        W42272  37.563  31.875   0.974
73879W        W42273  10.845  21.478  11.589
73880W        W42274  41.855  20.604   4.368
73881W        W42275  22.858  43.432  12.413
73882W        W42276  33.569  44.012   1.919
73883W        W42277  24.569  43.432   1.260
73884W        W42278  29.964  33.467  10.419
73885W        W42279  30.117   0.370  14.831
73886W        W42280   7.910   2.280  10.730
73887W        W42281  20.223  29.853   2.145
73888W        W42282   0.914  25.817   2.395
73889W        W42283   6.452  42.637   9.724
73890W        W42284   3.702   1.064   2.227
73891W        W42285   7.186  15.725  13.592
73892W        W42286  28.234  42.389   2.223
73893W        W42287  36.443  38.526   2.217
73894W        W42288  38.866  41.080  12.079
73895W        W42289  36.838  27.573  11.652
73896W        W42290  28.800  27.181  13.119
73897W        W42291  34.518  28.356  13.456
73898W        W42292  10.224  36.545  13.869
73899W        W42293  28.545  27.700   1.736
73900W        W42294  31.964  35.095  10.870
73901W        W42295   1.572  10.356   1.365
73902W        W42296  18.657  12.490   1.091
73903W        W42297  29.794  20.297   0.928
73904W        W42298  42.970   7.655   3.679
73905W        W42299  30.960   9.394  11.612
73906W        W42300  35.956  40.862  13.244
73907W        W42301  11.169  43.710  10.668
73908W        W42302  14.611  14.778   0.024
73909W        W42303  11.815  24.041  14.002
73910W        W42304  12.739   9.685   3.932
73911W        W42305  32.676  14.237   3.050
73912W        W42306  42.071  38.759   0.530
73913W        W42307   2.326  22.248   3.229
73914W        W42308  22.099  40.770   2.230
73915W        W42309  16.540   2.289  11.465
73916W        W42310  33.206  42.524   2.651
73917W        W42311  18.225  40.133  13.594
73918W        W42312  37.564  32.131   0.004
73919W        W42313  34.032  40.583  13.520
73920W        W42314  25.503  17.613  10.637
73921W        W42315  28.858  33.391   3.190
73922W        W42316   8.332  28.420   3.066
73923W        W42317  31.649  15.311  13.616
73924W        W42318   8.765  29.336  10.624
73925W        W42319  21.140   9.873   2.229
73926W        W42320   2.198  18.054   3.278
73927W        W42321  19.922  12.827   2.846
73928W        W42322  31.696   3.997   0.257
73929W        W42323  28.085  16.155  10.893
73930W        W42324   3.646   4.476   2.817
73931W        W42325  17.882  16.940  13.864
73932W        W42326  11.172  17.604   1.012
73933W        W42327  44.841  24.609  12.379
73934W        W42328  27.923  37.316  12.965
73935W        W42329  23.730  32.687   2.697
73936W        W42330  38.361  35.802  14.010
73937W        W42331  19.955  40.190  11.597
73938W        W42332  17.638   6.404  11.009
73939W        W42333  13.106   4.817  12.502
73940W        W42334  19.957  19.947  14.491
73941W        W42335  44.524   9.191  12.511
73942W        W42336  41.795  24.040   2.981
73943W        W42337  25.101  17.655   2.796
73944W        W42338  37.779  30.083   0.089
73945W        W42339  26.183  37.770   0.901
73946W        W42340  34.870  39.049  13.497
73947W        W42341  22.216   6.000  13.396
73948W        W42342  16.101  34.560   1.465
73949W        W42343  24.160   3.857   1.339
73950W        W42344  16.833  44.186   1.799
73951W        W42345  12.696  18.791   1.550
73952W        W42346   1.555  43.562  13.556
73953W        W42347  24.050  36.266  12.074
73954W        W42348  44.519  16.726   2.829
73955W        W42349  14.671   7.179  13.069
73956W        W42350  21.121  27.188  12.055
73957W        W42351  10.281  35.271  13.445
73958W        W42352  37.996  14.948   3.243
73959W        W42353  36.810  18.711   2.325
73960W        W42354   4.497  18.747   4.110
73961W        W42355  37.882  27.093  11.201
73962W        W42356  15.457  44.590   0.519
73963W        W42357  43.644   3.428  10.144
73964W        W42358   5.629   3.830  12.457
73965W        W42359  42.799   8.164   3.199
73966W        W42360  15.739   5.379  13.808
73967W        W42361  16.036  19.921  12.040
73968W        W42362   4.181  40.513  10.588
73969W        W42363  36.300  36.376  14.408
73970W        W42364  27.156  17.181   0.015
73971W        W42365  20.488   6.779  12.139
73972W        W42366  34.265  37.049  12.162
73973W        W42367  26.913  15.209   1.331
73974W        W42368  14.773  38.783   3.811
73975W        W42369  22.541  44.033   1.341
73976W        W42370  10.446  13.746   1.506
73977W        W42371  20.256  20.171   3.405
73978W        W42372   2.156   2.944   0.325
73979W        W42373  16.567  26.077  12.603
73980W        W42374  22.295  39.549   0.811
73981W        W42375  21.758   5.704   0.655
73982W        W42376  38.753  10.808  13.738
73983W        W42377  28.612   9.998   1.001
73984W        W42378  16.993  23.200   0.650
73985W        W42379  13.287  42.971  10.812
73986W        W42380  14.104  27.088  13.000
73987W        W42381  31.005  36.882   4.592
73988W        W42382  41.510  19.888  12.174
73989W        W42383  30.045   7.335   2.625
73990W        W42384  19.813  32.136   0.288
73991W        W42385   6.764   1.579   4.583
73992W        W42386   2.568  14.647  13.041
73993W        W42387   5.830   1.871   5.389
73994W        W42388   7.111   2.433   1.406
73995W        W42389   6.913  14.277   5.401
73996W        W42390  10.276  12.770  10.567
73997W        W42391  33.426   1.808   2.707
73998W        W42392   5.017  15.829  13.952
73999W        W42393  37.742  11.827  11.164
74000W        W42394  24.577   5.806   4.126
74001W        W42395  33.605   5.892   1.285
74002W        W42396   6.268   2.321  12.100
74003W        W42397  36.200  44.828  13.231
74004W        W42398  27.626  28.673  11.515
74005W        W42399  11.087  15.212  11.160
74006W        W42400  24.194  26.713  14.806
74007W        W42401   7.855   4.519  14.910
74008W        W42402  17.316   5.207  13.818
74009W        W42403  35.304  29.191  11.123
74010W        W42404  40.374  32.219   0.402
74011W        W42405  14.015  37.145  10.079
74012W        W42406  26.341  31.493   4.538
74013W        W42407  11.985  13.382  10.832
74014W        W42408  25.440  32.309   3.909
74015W        W42409  27.771   8.337  11.989
74016W        W42410   6.274   7.960   3.118
74017W        W42411  41.598  38.233  12.201
74018W        W42412  32.360  41.003  11.178
74019W        W42413  28.470  25.438   1.060
74020W        W42414  14.786  15.721  14.961
74021W        W42415  27.013  13.710  13.035
74022W        W42416  17.265   9.309  12.959
74023W        W42417  23.600  43.616  14.505
74024W        W42418  27.284  39.783   3.294
74025W        W42419  42.447  18.177  14.781
74026W        W42420  39.371   5.481  12.951
74027W        W42421  43.770  19.089  14.999
74028W        W42422   0.387   4.798   1.635
74029W        W42423  12.048  40.855  10.410
74030W        W42424  20.181  20.107   5.587
74031W        W42425  23.960  17.244   2.366
74032W        W42426  15.261   7.187  11.675
74033W        W42427   0.378   3.933   4.639
74034W        W42428  28.576  44.079  12.392
74035W        W42429  13.826  11.222   3.281
74036W        W42430  17.731  31.439  12.120
74037W        W42431  32.449   7.293  13.328
74038W        W42432   5.428  10.915   1.377
74039W        W42433  26.126  17.824  12.132
74040W        W42434  27.654  27.120  13.179
74041W        W42435  12.000   5.266  10.235
74042W        W42436  28.409  16.037  13.916
74043W        W42437   0.000  26.564   3.213
74044W        W42438  38.062   5.807  13.743
74045W        W42439  12.602  36.808  12.956
74046W        W42440   1.855   9.312  13.309
74047W        W42441   9.126   5.100  14.873
74048W        W42442  12.726  40.825   4.161
74049W        W42443  28.036   3.500   0.297
74050W        W42444  11.073  31.718   0.903
74051W        W42445   1.343  18.301  12.508
74052W        W42446   2.460  42.856   3.844
74053W        W42447  35.885  24.626  14.300
74054W        W42448  28.927  44.316   2.789
74055W        W42449  36.030  15.390  14.318
74056W        W42450  29.957  24.203   4.289
74057W        W42451  36.857  29.979  13.830
74058W        W42452  37.900  37.697  12.907
74059W        W42453  34.638  16.312  12.536
74060W        W42454  21.930  32.780  10.871
74061W        W42455  14.542   6.493  12.250
74062W        W42456  32.586  26.859   2.862
74063W        W42457  34.462   7.705  13.859
74064W        W42458  34.714   9.757   4.107
74065W        W42459   0.797  28.973   2.965
74066W        W42460  29.967   7.138  13.078
74067W        W42461  34.219  25.429   0.879
74068W        W42462   3.266   0.756   2.271
74069W        W42463  14.735  41.372   4.446
74070W        W42464  16.275  36.296  14.536
74071W        W42465  15.089  17.650  10.766
74072W        W42466  38.917  26.910   1.334
74073W        W42467  26.824  37.408  14.145
74074W        W42468  33.447  33.030   1.686
74075W        W42469  27.952   0.910   2.100
74076W        W42470   2.461  13.805  14.424
74077W        W42471   9.893  36.483  14.861
74078W        W42472   8.224  37.837   4.529
74079W        W42473   6.087  44.901   1.800
74080W        W42474   3.032  29.673   3.748
74081W        W42475  22.404  34.910  12.134
74082W        W42476   6.288  39.411  10.684
74083W        W42477  42.904  16.369   2.932
74084W        W42478  25.595  33.037   0.749
74085W        W42479  40.470  11.377   4.914
74086W        W42480  10.734  32.861  11.153
74087W        W42481   8.609  19.205  13.861
74088W        W42482  16.168  25.963   2.865
74089W        W42483  36.585  44.130   4.141
74090W        W42484  41.077  13.638   4.417
74091W        W42485  30.817  13.662  14.500
74092W        W42486  24.126  27.757  13.809
74093W        W42487  17.133  14.096  13.851
74094W        W42488  27.950  22.626  14.742
74095W        W42489   7.218  38.055  10.688
74096W        W42490  40.234  44.629  10.092
74097W        W42491  39.441  28.714  10.646
74098W        W42492  15.535  22.077  14.550
74099W        W42493  43.565   5.963   1.421
74100W        W42494   8.780  18.630   5.039
74101W        W42495   0.867  30.456  11.657
74102W        W42496  33.969  25.012  10.567
74103W        W42497  24.106   7.116  12.919
74104W        W42498   1.682   7.706  13.645
74105W        W42499   8.099   7.241   2.804
74106W        W42500   5.331   9.856   0.424
74107W        W42501  35.996   0.520   4.079
74108W        W42502  27.571  12.747  13.688
74109W        W42503  17.693  16.091  14.850
74110W        W42504  33.005  11.315   3.857
74111W        W42505  25.863  35.177  11.003
74112W        W42506  24.034  12.372  13.017
74113W        W42507  20.198   1.421   3.604
74114W        W42508  37.857  10.136   3.590
74115W        W42509  24.957  26.544  14.982
74116W        W42510  32.295  12.186  13.053
74117W        W42511  42.046   2.588  10.918
74118W        W42512  44.879  38.563  10.733
74119W        W42513  39.400  10.191   4.179
74120W        W42514  28.417  33.418   0.424
74121W        W42515  33.385  23.767   2.692
74122W        W42516  42.869  34.920  11.067
74123W        W42517   0.277   8.596  12.205
74124W        W42518  12.734   0.968  14.807
74125W        W42519  29.964  33.823   3.664
74126W        W42520  11.423  38.542   4.198
74127W        W42521  37.864  18.741  12.593
74128W        W42522  14.182  43.348  13.922
74129W        W42523  42.034  28.573   0.044
74130W        W42524  39.844  11.480   2.677
74131W        W42525  39.464   3.704   2.443
74132W        W42526  36.532  25.254  14.360
74133W        W42527   0.002   7.272  13.069
74134W        W42528  42.254  18.188   0.826
74135W        W42529   8.442  29.888  11.314
74136W        W42530  20.753   1.360  14.033
74137W        W42531  15.246  15.113  12.870
74138W        W42532   9.327  35.853   3.242
74139W        W42533   2.714   5.006  10.571
74140W        W42534   1.092  34.470   0.364
74141W        W42535  23.614  21.775   0.900
74142W        W42536  30.654  38.887   3.849
74143W        W42537  34.772   5.463  14.300
74144W        W42538   4.669   0.690   2.188
74145W        W42539   9.983  25.100   4.849
74146W        W42540  35.767  14.330  13.417
74147W        W42541  28.459  15.220   2.257
74148W        W42542  41.933  13.851   2.279
74149W        W42543  33.029   6.241   0.455
74150W        W42544  22.587  31.592   1.336
74151W        W42545  30.413  40.861   0.964
74152W        W42546   2.887  31.678  12.896
74153W        W42547  21.548  25.514   1.316
74154W        W42548  44.965  12.239   4.562
74155W        W42549  14.642  13.887  11.593
74156W        W42550  23.446  12.891   3.257
74157W        W42551  21.082   8.843   0.015
74158W        W42552   3.367  42.694   9.983
74159W        W42553  11.791   7.800  14.466
74160W        W42554   1.881  24.786  13.358
74161W        W42555  23.949  41.585   0.404
74162W        W42556   1.002   4.841  12.420
74163W        W42557   0.679   2.924   2.129
74164W        W42558  23.227  23.607   2.314
74165W        W42559  29.508  31.699  11.923
74166W        W42560  20.983   8.152   2.936
74167W        W42561   8.379  10.394  11.200
74168W        W42562  43.148  42.985   4.568
74169W        W42563  34.269   7.924  11.703
74170W        W42564  20.042   2.380   2.783
74171W        W42565   5.669  27.097   5.540
74172W        W42566   1.766  30.514  11.247
74173W        W42567  43.818  22.048  12.416
74174W        W42568   6.583  14.142  11.592
74175W        W42569  22.594   2.209   3.279
74176W        W42570   0.691  36.840   9.767
74177W        W42571  14.282  28.665   0.415
74178W        W42572  38.922   4.925   2.174
74179W        W42573   7.699   5.392  14.504
74180W        W42574  32.414  33.654   0.828
74181W        W42575  37.567   0.456   0.827
74182W        W42576  14.864  38.802  14.040
74183W        W42577  40.198  16.998  11.936
74184W        W42578  39.038  31.160   3.063
74185W        W42579  35.526  11.275  14.539
74186W        W42580  19.735  12.347  12.897
74187W        W42581  31.388  11.574   1.650
74188W        W42582  19.978  22.001   4.430
74189W        W42583  24.255   6.857   1.737
74190W        W42584   5.098  41.389   5.021
74191W        W42585  40.423  27.479  11.943
74192W        W42586  13.242   2.778   4.693
74193W        W42587   7.649  38.634  14.768
74194W        W42588  40.037  39.090  13.724
74195W        W42589   7.101  15.454   0.919
74196W        W42590  24.411   3.490  12.380
74197W        W42591   5.071  20.501   0.851
74198W        W42592  20.227  32.391   1.338
74199W        W42593   2.702  23.146  11.984
74200W        W42594  34.073  40.755   1.070
74201W        W42595  40.457  14.720   4.828
74202W        W42596  31.885  25.806   1.596
74203W        W42597  40.893  33.526   1.181
74204W        W42598  36.370  21.784  13.440
74205W        W42599  23.088  28.484   4.148
74206W        W42600  41.436   4.827   4.116
74207W        W42601  29.758   1.778   2.793
74208W        W42602  37.337   0.908  13.557
74209W        W42603   2.989  42.300   4.066
74210W        W42604  40.009   8.460  14.917
74211W        W42605  30.188  31.621   1.826
74212W        W42606  32.126   0.368   4.777
74213W        W42607  21.447  34.822  13.735
74214W        W42608  43.325   8.910   3.035
74215W        W42609   0.844  27.181   2.134
74216W        W42610  22.554  34.924   1.383
74217W        W42611  21.992   3.779   3.635
74218W        W42612  12.245  15.318   2.720
74219W        W42613  10.403  11.648   2.579
74220W        W42614  36.296   5.216   0.878
74221W        W42615   9.321  30.057   3.511
74222W        W42616  41.327  26.525   2.601
74223W        W42617  10.252  38.090  10.784
74224W        W42618   3.710   3.215   9.978
74225W        W42619   1.209  42.205  12.329
74226W        W42620  13.889   3.224  13.695
74227W        W42621  16.339  19.505  12.079
74228W        W42622  12.306  18.174  14.514
74229W        W42623   4.954  33.118  12.399
74230W        W42624  32.467  40.233   3.067
74231W        W42625   9.856  41.390   1.888
74232W        W42626  19.877   5.638   0.462
74233W        W42627  12.767  21.813  12.304
74234W        W42628  30.005  26.628  13.853
74235W        W42629   4.261  15.124   0.179
74236W        W42630  43.748  27.225  14.005
74237W        W42631   3.841  41.858  12.657
74238W        W42632  27.414  25.087   2.361
74239W        W42633  22.828   5.253  12.569
74240W        W42634  11.868  12.085   3.925
74241W        W42635  27.855  25.339  10.700
74242W        W42636  26.477  25.473   0.827
74243W        W42637   9.882  19.240  10.639
74244W        W42638  36.109  30.474  10.760
74245W        W42639  13.851  40.901   3.159
74246W        W42640  32.655  43.630   2.013
74247W        W42641   1.904  37.859  14.804
74248W        W42642  21.563   1.504   1.420
74249W        W42643   4.905  44.728  11.963
74250W        W42644  35.044  21.567   0.306
74251W        W42645  29.734  37.897   4.070
74252W        W42646   3.224  26.242   1.292
74253W        W42647  33.456  32.809   2.595
74254W        W42648  37.695  22.446  12.134
74255W        W42649  26.520  27.143   1.451
74256W        W42650  42.866  42.407  12.670
74257W        W42651   3.742  23.612   0.431
74258W        W42652  34.661  11.143   1.309
74259W        W42653  30.621   1.355  14.996
74260W        W42654  18.635  30.429  14.444
74261W        W42655  33.437  11.102   1.779
74262W        W42656  20.997  19.113  10.641
74263W        W42657  36.548  41.008   4.172
74264W        W42658  40.122  11.597  12.372
74265W        W42659  31.036   8.300   3.092
74266W        W42660  17.355  41.946  10.852
74267W        W42661  21.993  20.647   3.284
74268W        W42662  14.700   4.621  11.176
74269W        W42663  21.184  11.867   2.160
74270W        W42664  26.424   5.496  11.168
74271W        W42665  28.036  41.375  11.623
74272W        W42666   9.334  10.746   3.605
74273W        W42667  33.604  15.098   3.819
74274W        W42668   1.723  34.660  11.153
74275W        W42669  11.344  20.346   2.302
74276W        W42670  34.847  26.117  14.479
74277W        W42671  16.044  19.471  10.670
74278W        W42672  40.310   6.910   0.228
74279W        W42673  43.588  24.760   4.548
74280W        W42674  21.159  25.194   3.556
74281W        W42675  28.235  11.796   2.707
74282W        W42676  33.668   5.138  13.345
74283W        W42677   6.257  14.209  12.003
74284W        W42678  29.506  42.500  13.378
74285W        W42679   0.013  36.513  11.615
74286W        W42680   9.709  18.260  10.805
74287W        W42681  24.405  30.441   2.272
74288W        W42682  36.508  10.828   1.507
74289W        W42683   4.236  21.679   2.296
74290W        W42684  34.237  14.854   1.128
74291W        W42685  23.955  41.231  10.964
74292W        W42686  25.720  13.041  13.911
74293W        W42687  24.710   6.181   1.413
74294W        W42688  17.084  31.655  13.531
74295W        W42689  17.215  33.107   2.449
74296W        W42690  38.300  14.712  13.659
74297W        W42691  21.509   5.785   2.755
74298W        W42692  37.321  41.556  10.613
74299W        W42693  12.542  27.437  12.973
74300W        W42694  30.080   3.439  12.615
74301W        W42695  33.841  19.763   2.347
74302W        W42696   0.293  26.467  10.015
74303W        W42697  20.635  27.767   1.177
74304W        W42698  40.342  23.950   1.710
74305W        W42699  40.493  10.183   9.885
74306W        W42700  33.631  35.544   1.816
74307W        W42701  31.619  43.568  10.687
74308W        W42702  40.027  19.853  12.491
74309W        W42703  12.844   4.786  13.843
74310W        W42704  36.830  20.635  14.352
74311W        W42705  18.906  20.261  13.585
74312W        W42706  31.024  18.695   0.962
74313W        W42707  43.929  41.923  13.046
74314W        W42708   1.477  34.105   2.724
74315W        W42709  34.979  19.377  12.599
74316W        W42710  31.227  16.252   3.838
74317W        W42711  23.180   6.780   4.159
74318W        W42712   5.362   3.345  13.511
74319W        W42713  20.267   2.925  14.313
74320W        W42714   3.606  33.248   4.173
74321W        W42715  19.640  16.673  13.525
74322W        W42716  15.129  19.033   2.803
74323W        W42717  29.894  20.126  10.538
74324W        W42718  35.507   8.075  13.347
74325W        W42719   1.019   1.301   4.327
74326W        W42720  36.948  42.880  12.090
74327W        W42721  37.457   0.465   2.304
74328W        W42722  38.573   1.423   0.629
74329W        W42723  29.111   3.324  12.404
74330W        W42724  10.372  10.209   2.264
74331W        W42725   3.708  15.203   0.704
74332W        W42726  27.620  38.527   2.667
74333W        W42727  19.344  22.653  13.475
74334W        W42728   0.284  25.634   3.288
74335W        W42729  31.989   7.185  11.597
74336W        W42730  40.411  16.077  14.916
74337W        W42731  30.749  37.970  12.493
74338W        W42732  18.630  18.835  11.236
74339W        W42733  25.610  15.572   1.417
74340W        W42734   0.319   6.092   4.349
74341W        W42735  31.950   1.232  14.045
74342W        W42736  25.927  28.647   4.632
74343W        W42737  14.141  35.534   1.653
74344W        W42738  10.259  20.762   3.743
74345W        W42739  42.911  34.933  14.877
74346W        W42740  28.065  39.369  10.607
74347W        W42741   3.554  10.582  11.841
74348W        W42742  18.944  33.074  14.055
74349W        W42743  41.343  40.550   5.065
74350W        W42744  24.998  12.740  13.775
74351W        W42745  15.275  19.049  10.701
74352W        W42746  16.203  37.343  12.119
74353W        W42747   9.293  16.245  12.969
74354W        W42748  23.977  20.312   2.661
74355W        W42749  28.462  10.923  14.899
74356W        W42750  22.280   7.576  12.770
74357W        W42751  22.917   2.851  13.599
74358W        W42752  26.665   1.379   3.319
74359W        W42753   8.392  15.108   1.366
74360W        W42754  41.369  37.401  14.403
74361W        W42755  36.327  25.020   3.553
74362W        W42756   8.615   1.067   1.676
74363W        W42757  25.452   8.661   0.776
74364W        W42758  41.321  30.954   0.216
74365W        W42759  32.830  24.655   1.839
74366W        W42760  40.445  22.588   0.120
74367W        W42761  21.740  36.051   4.551
74368W        W42762  17.866  40.262  10.712
74369W        W42763  27.003  28.035   2.822
74370W        W42764   0.203  32.968  12.919
74371W        W42765  22.716  14.442   2.808
74372W        W42766  13.729  12.205  14.499
74373W        W42767  30.380  42.750   2.811
74374W        W42768  43.350  42.510   2.863
74375W        W42769   8.949  41.286   2.236
74376W        W42770   1.879  24.264   3.718
74377W        W42771  32.600   9.025  10.429
74378W        W42772   3.427  34.084  14.319
74379W        W42773   6.313   4.627   2.897
74380W        W42774  29.000  25.023  13.570
74381W        W42775   7.401  28.015   2.634
74382W        W42776  27.223   0.940   1.330
74383W        W42777  14.609  13.526   1.775
74384W        W42778  27.470  40.821  14.889
74385W        W42779  18.071  43.475   1.849
74386W        W42780  41.545  24.590   0.337
74387W        W42781  12.543  22.053  13.429
74388W        W42782  38.869  22.281   2.392
74389W        W42783  23.312  38.373  12.448
74390W        W42784  27.933   0.435  12.543
74391W        W42785  11.105  24.101   2.344
74392W        W42786  17.703  31.333  13.008
74393W        W42787   2.662  12.238  11.673
74394W        W42788  34.652   1.503  13.346
74395W        W42789   6.904  23.188  12.377
74396W        W42790  14.245   4.065   2.841
74397W        W42791  15.555  40.076   0.092
74398W        W42792  21.294  13.914  14.885
74399W        W42793  36.382  32.850  13.151
74400W        W42794  30.462  17.502  13.518
74401W        W42795  15.155   1.506   4.729
74402W        W42796  14.484   9.533   4.939
74403W        W42797   1.471  33.466   1.398
74404W        W42798  25.598  18.663   2.904
74405W        W42799  41.517  21.739  12.668
74406W        W42800   6.686  14.584   0.519
74407W        W42801  30.544   6.546   4.074
74408W        W42802   7.464  41.553   9.781
74409W        W42803  42.321   7.644  12.880
74410W        W42804  37.610   2.868  13.934
74411W        W42805   4.518  22.615   0.833
74412W        W42806   4.768  41.297  13.084
74413W        W42807  24.996  44.274   0.748
74414W        W42808   8.125   8.355   3.600
74415W        W42809  28.540  22.191   4.533
74416W        W42810  13.323  27.685   0.819
74417W        W42811  28.639  26.128   4.021
74418W        W42812  21.143  20.606  11.966
74419W        W42813  43.087  21.959  12.928
74420W        W42814  11.342   2.250   2.380
74421W        W42815  10.784  35.861  13.872
74422W        W42816  23.080   7.439  11.078
74423W        W42817  22.544  20.125  12.825
74424W        W42818  23.692  11.805   3.519
74425W        W42819  29.421  20.004  13.464
74426W        W42820   0.452   2.148  14.376
74427W        W42821  31.481   2.725  14.452
74428W        W42822  42.173   8.506  11.942
74429W        W42823  29.731  27.500   2.797
74430W        W42824  25.261  42.363  12.488
74431W        W42825  18.622  36.320   2.774
74432W        W42826   1.735  17.412   1.000
74433W        W42827   4.108  28.045   3.149
74434W        W42828  34.601  17.130  13.502
74435W        W42829  38.505  16.765   2.263
74436W        W42830  43.941  15.804  14.516
74437W        W42831   2.925  36.582  14.331
74438W        W42832  16.862  13.357  11.594
74439W        W42833  18.623  39.105   3.137
74440W        W42834  31.064  26.187  14.293
74441W        W42835   3.903   5.027   0.839
74442W        W42836  13.170   9.851   4.185
74443W        W42837  38.014  21.668   1.342
74444W        W42838  27.174  36.015   4.408
74445W        W42839  25.630   7.448  13.945
74446W        W42840  44.870   1.817   3.282
74447W        W42841  12.937   0.951  12.480
74448W        W42842  30.568  30.586   2.273
74449W        W42843  35.881  19.943  12.510
74450W        W42844   7.171  34.590  14.308
74451W        W42845  42.038  19.222   1.294
74452W        W42846   3.542  32.377   3.318
74453W        W42847  23.163  34.479   4.093
74454W        W42848  44.716  33.598  14.370
74455W        W42849  35.570  14.927   0.460
74456W        W42850  26.773  20.260   0.227
74457W        W42851  26.190  33.590   2.598
74458W        W42852  19.615  44.492   4.205
74459W        W42853  33.895  24.578  11.145
74460W        W42854   4.767   6.605   3.784
74461W        W42855  12.905   8.834   1.451
74462W        W42856   9.610   7.920  13.865
74463W        W42857   0.799  42.543  12.175
74464W        W42858  33.653  35.325  11.124
74465W        W42859  39.629  36.780   2.353
74466W        W42860   6.863  15.742  13.162
74467W        W42861   9.834  22.643  13.460
74468W        W42862  28.636  42.334   3.128
74469W        W42863  27.330  22.229   0.947
74470W        W42864  22.496  12.454  12.443
74471W        W42865   3.278  23.226   3.557
74472W        W42866  38.848  28.772   2.440
74473W        W42867  37.439  17.790   0.371
74474W        W42868   8.453  35.488  12.488
74475W        W42869  24.149  12.005  10.325
74476W        W42870  30.933  38.229   4.081
74477W        W42871  43.131   1.854   3.968
74478W        W42872  31.966  16.828   2.814
74479W        W42873  14.607  13.187   2.663
74480W        W42874  35.789   9.858   4.926
74481W        W42875  22.321  37.654   2.643
74482W        W42876  30.540   2.420   0.721
74483W        W42877   9.804  35.100   4.396
74484W        W42878  12.985  15.225  12.619
74485W        W42879   3.661  24.641   4.524
74486W        W42880   7.164  31.561   3.090
74487W        W42881  39.516  18.167   0.760
74488W        W42882  23.777   7.635   2.311
74489W        W42883  12.706  35.729   1.789
74490W        W42884   0.867  32.490  12.883
74491W        W42885  40.040  40.333   1.855
74492W        W42886  16.836   2.148  11.050
74493W        W42887  20.743   2.647   3.035
74494W        W42888  27.839  30.448  14.988
74495W        W42889  25.245  24.006   0.066
74496W        W42890  13.347  11.265  14.272
74497W        W42891  41.389   5.222  12.417
74498W        W42892  44.251  23.900  10.160
74499W        W42893  28.114  43.147   5.437
74500W        W42894   6.185  13.883  10.678
74501W        W42895  26.516  39.854   2.637
74502W        W42896   8.297   0.728   2.319
74503W        W42897  41.929  36.207  10.378
74504W        W42898  36.502  34.669   3.311
74505W        W42899   6.639   2.187   3.633
74506W        W42900   4.873  15.548   4.569
74507W        W42901  31.394  13.099   1.848
74508W        W42902  43.845  12.810   3.524
74509W        W42903  31.160  18.354  11.096
74510W        W42904  17.297   3.046   0.986
74511W        W42905  37.550  10.834  14.936
74512W        W42906  15.358  13.113   0.786
74513W        W42907  17.308  26.496   4.247
74514W        W42908  32.182  18.684  12.667
74515W        W42909  27.908  41.364   1.336
74516W        W42910  36.768  17.601   4.279
74517W        W42911  27.996  23.140  14.594
74518W        W42912  15.447  26.074  13.520
74519W        W42913  22.965  41.627   0.545
74520W        W42914   5.492  10.880  11.059
74521W        W42915   7.814  43.883  10.684
74522W        W42916  37.218  32.365  12.413
74523W        W42917  31.890   1.712   3.817
74524W        W42918  16.836  16.844  14.068
74525W        W42919  20.178  32.883   2.455
74526W        W42920  16.362   8.218   4.250
74527W        W42921   0.849  20.208   1.872
74528W        W42922  18.170  36.916  11.104
74529W        W42923  38.493   3.628  12.029
74530W        W42924  22.466   2.467  10.971
74531W        W42925  31.164   2.413  13.561
74532W        W42926  14.578   3.282   1.148
74533W        W42927  16.594  11.285  11.997
74534W        W42928   4.679   4.824   1.359
74535W        W42929  42.882   1.460  12.580
74536W        W42930   8.125   3.252   1.398
74537W        W42931  28.895  12.721  14.096
74538W        W42932   0.351  19.896  10.773
74539W        W42933  11.174  40.085   0.463
74540W        W42934  39.268   5.200  12.467
74541W        W42935  36.603  29.043   3.035
74542W        W42936  14.355  10.784   4.660
74543W        W42937  41.897  27.657   2.976
74544W        W42938  27.307  16.328  11.961
74545W        W42939  20.671  12.613   1.666
74546W        W42940   0.817  39.836   4.659
74547W        W42941  21.751  26.990   2.119
74548W        W42942  30.026  16.361  11.551
74549W        W42943  15.288  25.702   4.224
74550W        W42944   0.361  36.355  13.845
74551W        W42945  23.708  10.648  13.055
74552W        W42946  17.393  36.481   9.729
74553W        W42947   2.848  16.735   2.782
74554W        W42948  32.535  33.618   0.320
74555W        W42949  33.691  10.809  12.072
74556W        W42950  28.387  32.101  14.364
74557W        W42951  29.676  29.944   0.405
74558W        W42952  20.022  34.212   3.791
74559W        W42953  28.134  40.366   3.265
74560W        W42954   4.140  35.011  14.896
74561W        W42955   5.632  31.433  11.202
74562W        W42956  30.049  14.274   2.353
74563W        W42957  16.539   3.501   3.202
74564W        W42958  17.552  24.214  14.301
74565W        W42959  40.456  25.771  11.502
74566W        W42960  33.890  37.945   3.549
74567W        W42961  12.101  13.886   3.138
74568W        W42962   6.341  44.514  12.060
74569W        W42963  20.262  31.087   1.901
74570W        W42964  41.862  32.089   1.158
74571W        W42965  12.517   4.993   0.957
74572W        W42966  28.270  42.995  10.162
74573W        W42967  20.975  37.587  14.309
74574W        W42968  37.781  29.986   1.443
74575W        W42969  31.806  42.970  11.942
74576W        W42970  13.106  27.690  13.638
74577W        W42971   0.193  12.238  14.925
74578W        W42972  31.815  24.229  11.156
74579W        W42973  22.622   1.831   5.098
74580W        W42974  14.836  34.523   1.889
74581W        W42975  30.314  14.764   3.808
74582W        W42976  31.438  23.569  10.498
74583W        W42977  16.236  19.818   2.579
74584W        W42978   2.731  29.997   2.607
74585W        W42979  26.970  15.339   0.435
74586W        W42980  44.384   9.717   4.599
74587W        W42981   3.252   1.512  11.187
74588W        W42982  42.272  17.759  10.889
74589W        W42983  23.715   9.755  10.468
74590W        W42984   7.960  36.532   0.300
74591W        W42985  34.171  43.809  11.491
74592W        W42986  32.090  17.114  12.859
74593W        W42987  14.114   2.594  14.420
74594W        W42988  22.024  25.581   2.205
74595W        W42989   1.892  37.602   2.223
74596W        W42990  41.011   0.766  14.516
74597W        W42991  32.294  17.739   0.898
74598W        W42992  12.783  31.167   3.972
74599W        W42993  44.097   3.396  11.364
74600W        W42994  44.971  27.240  12.166
74601W        W42995  17.221  12.418  12.400
74602W        W42996  19.309  12.111  13.795
74603W        W42997   3.380  16.797   1.514
74604W        W42998  39.777  32.528   4.080
74605W        W42999   7.717   4.271  11.606
74606W        W43000  25.395  18.753   0.541
74607W        W43001  10.743   5.365  13.022
74608W        W43002  20.055  13.299   1.422
74609W        W43003   3.834  27.294  13.194
74610W        W43004  26.024  26.756   4.134
74611W        W43005  21.536  26.072   3.216
74612W        W43006   7.864  38.424  10.739
74613W        W43007  14.336  22.045  12.945
74614W        W43008  19.251  25.664  13.407
74615W        W43009  18.194  17.055  10.753
74616W        W43010  14.586  42.400  11.095
74617W        W43011  44.918  40.317  10.888
74618W        W43012  36.874  15.768  14.503
74619W        W43013  38.910  41.821  10.495
74620W        W43014  22.829  16.402   0.260
74621W        W43015  25.139  23.209  14.853
74622W        W43016  34.474  11.816   3.604
74623W        W43017  10.640   0.842   4.208
74624W        W43018  30.042  25.107   3.344
74625W        W43019  28.173  33.795  12.460
74626W        W43020  44.809   9.389   4.344
74627W        W43021   4.589  37.497   2.590
74628W        W43022  39.582  17.764  13.989
74629W        W43023   4.694   3.599  12.413
74630W        W43024  11.602  12.245   4.966
74631W        W43025  22.890  14.059  14.651
74632W        W43026  31.564  10.367   2.631
74633W        W43027  25.847   0.885   3.608
74634W        W43028  21.296   7.766   4.620
74635W        W43029  16.697  29.898   4.658
74636W        W43030  16.594  15.154   4.371
74637W        W43031  14.777  14.177   2.354
74638W        W43032  41.019  41.347   1.009
74639W        W43033  41.360  26.150  11.421
74640W        W43034   2.288  44.730  11.977
74641W        W43035  27.865  43.999   2.130
74642W        W43036  42.534  40.293  13.448
74643W        W43037  30.553  34.043   4.801
74644W        W43038  44.743  26.610   1.866
74645W        W43039   5.767  26.145  13.968
74646W        W43040  14.746  37.804  13.978
74647W        W43041   5.164  12.695   1.964
74648W        W43042  17.771  17.997  13.051
74649W        W43043  27.193  31.389   1.404
74650W        W43044  15.776   8.592  11.609
74651W        W43045  42.028  39.124   3.800
74652W        W43046  25.195  18.439  14.839
74653W        W43047  31.821  29.123  11.604
74654W        W43048  31.639  14.105  14.786
74655W        W43049   3.951  30.073   3.780
74656W        W43050   0.214   8.481   2.574
74657W        W43051  29.379  28.907   4.523
74658W        W43052  38.262  32.401   4.728
74659W        W43053  21.256  35.109  12.485
74660W        W43054   0.243  33.051  11.455
74661W        W43055   9.467  30.237  13.524
74662W        W43056   9.828  31.133   0.932
74663W        W43057  26.464  27.389  12.482
74664W        W43058  12.821  28.546   4.840
74665W        W43059   5.190   4.880   1.368
74666W        W43060  11.621  35.109  11.467
74667W        W43061  36.341   9.806   0.341
74668W        W43062  30.147  38.316   1.392
74669W        W43063   4.996  14.573  13.830
74670W        W43064  21.665  30.416  11.100
74671W        W43065  31.095  42.416  14.796
74672W        W43066  39.464  30.422  11.204
74673W        W43067  18.561  31.025   0.889
74674W        W43068   2.230  34.080  13.132
74675W        W43069  44.403   0.500  14.068
74676W        W43070  24.413  19.734  13.004
74677W        W43071   8.410  23.419   4.582
74678W        W43072   6.693   7.847   2.825
74679W        W43073  18.452   4.704   2.246
74680W        W43074  42.807   6.705   3.308
74681W        W43075  29.458  36.560  11.724
74682W        W43076   0.034  33.564  10.925
74683W        W43077  12.187   6.266   2.565
74684W        W43078  42.878  28.606   2.729
74685W        W43079  24.973  15.681  12.087
74686W        W43080   8.178   1.504   3.594
74687W        W43081  24.279   6.630  12.087
74688W        W43082   3.419  25.007   1.897
74689W        W43083  42.143  17.425  10.198
74690W        W43084  12.650  20.530  14.029
74691W        W43085  25.643  42.334  14.949
74692W        W43086  25.388  36.922   2.691
74693W        W43087  31.851  28.198  10.688
74694W        W43088   5.773   0.577   2.988
74695W        W43089   6.023  39.166   3.179
74696W        W43090  23.634  36.906   0.995
74697W        W43091  27.031  34.471  13.550
74698W        W43092  44.109  11.957  12.863
74699W        W43093   4.238  25.073  14.978
74700W        W43094  35.968   1.346   1.770
74701W        W43095  18.335  24.083   0.738
74702W        W43096   3.354  33.040   4.614
74703W        W43097  41.523  35.516  12.326
74704W        W43098  10.281  43.034  14.323
74705W        W43099   3.918  13.086  14.016
74706W        W43100  41.238  20.097  10.847
74707W        W43101  25.127  25.001   2.484
74708W        W43102  23.337  22.092   2.774
74709W        W43103   3.231  27.000   0.332
74710W        W43104  42.877  12.562  13.361
74711W        W43105  13.530   8.444   3.772
74712W        W43106  11.125  27.845  14.056
74713W        W43107  23.986  34.042   2.653
74714W        W43108  24.493  21.090   4.607
74715W        W43109  43.336  41.400   3.250
74716W        W43110  24.157  38.515   1.435
74717W        W43111  15.047  25.689  12.059
74718W        W43112  10.293   4.184  12.600
74719W        W43113   5.686  27.913   1.809
74720W        W43114  36.404  44.253  12.394
74721W        W43115  40.250  21.433  11.599
74722W        W43116  39.111  32.585  14.884
74723W        W43117  44.581  30.415  10.524
74724W        W43118  39.558  30.137  12.543
74725W        W43119  21.976  18.006  14.999
74726W        W43120  16.184  25.741  12.552
74727W        W43121  30.128  27.697   0.867
74728W        W43122  35.043  21.174   2.564
74729W        W43123  36.559   3.773   4.477
74730W        W43124   2.474  21.180   3.589
74731W        W43125  30.190  10.709   0.083
74732W        W43126  25.635  11.993  13.870
74733W        W43127  10.611  15.118   0.036
74734W        W43128  23.354  20.445  10.691
74735W        W43129  16.673  12.367   3.202
74736W        W43130  15.576   8.882  11.211
74737W        W43131   3.876   1.839  11.778
74738W        W43132   4.323  17.081  14.861
74739W        W43133  29.730  26.413   0.504
74740W        W43134  24.043  29.811  11.085
74741W        W43135  17.561   8.313  14.926
74742W        W43136  43.553  20.061  13.922
74743W        W43137   1.226   9.675   1.224
74744W        W43138  26.725  36.902   3.165
74745W        W43139  14.164  33.940  11.170
74746W        W43140   8.766  27.013  13.204
74747W        W43141   4.834  39.684  12.203
74748W        W43142  28.567   0.813  14.307
74749W        W43143   2.683  39.014  11.527
74750W        W43144  43.418  19.832  11.209
74751W        W43145  42.773  42.489  14.885
74752W        W43146   8.622  19.672  11.592
74753W        W43147  13.803   9.963  11.398
74754W        W43148  10.463   6.361   3.065
74755W        W43149  20.580  15.657   4.338
74756W        W43150  41.098  43.848  13.357
74757W        W43151  39.092  34.481   4.297
74758W        W43152   4.218  21.593  11.797
74759W        W43153  39.883  44.423   4.199
74760W        W43154  35.121  13.091   0.529
74761W        W43155  42.831   2.203   2.177
74762W        W43156  24.868  36.428   4.121
74763W        W43157  36.108  19.822  11.235
74764W        W43158  37.075  29.708   0.391
74765W        W43159  10.755  41.073   4.550
74766W        W43160   3.263  20.077  12.900
74767W        W43161   4.419  11.218   2.903
74768W        W43162  34.512  10.926   3.924
74769W        W43163  32.596   2.994   0.126
74770W        W43164  12.898  12.151   3.809
74771W        W43165  37.562  41.509   0.510
74772W        W43166   3.694  35.984   4.091
74773W        W43167  38.905  18.712  14.922
74774W        W43168  25.641  37.968   3.332
74775W        W43169  19.664  10.879  13.468
74776W        W43170  22.764  23.692  13.045
74777W        W43171  44.349   5.234  14.845
74778W        W43172  42.223  44.588   4.497
74779W        W43173  24.383   5.909  13.543
74780W        W43174  35.097  40.911  11.960
74781W        W43175  14.414  39.025  13.947
74782W        W43176  25.746  27.069  12.899
74783W        W43177  34.479  42.735   3.872
74784W        W43178  10.586  37.692   3.707
74785W        W43179   2.609  26.915  14.865
74786W        W43180  13.607  20.988   1.918
74787W        W43181  29.912   7.905   0.260
74788W        W43182  43.897  17.178   0.311
74789W        W43183  13.189  38.122   3.351
74790W        W43184  42.603  13.226   1.816
74791W        W43185  42.530   0.310  12.517
74792W        W43186  19.840  38.127  11.956
74793W        W43187  28.008   4.462  13.404
74794W        W43188   9.698  28.314  14.521
74795W        W43189  20.337  25.124  10.262
74796W        W43190  25.377  17.950   4.104
74797W        W43191  33.792   2.726   1.779
74798W        W43192  27.044  32.723  13.295
74799W        W43193  40.064  40.258  12.201
74800W        W43194  13.804   7.402   3.652
74801W        W43195  11.226  21.048   1.797
74802W        W43196  34.993  41.983  14.781
74803W        W43197  37.733  32.630  11.644
74804W        W43198  19.653  15.792   4.134
74805W        W43199  13.808   1.115  10.659
74806W        W43200  19.250  19.823   3.644
74807W        W43201   6.706   8.310  12.242
74808W        W43202  27.475  30.902  11.978
74809W        W43203  34.417  26.932  11.316
74810W        W43204   4.971  40.984  11.349
74811W        W43205  22.347   2.665  11.660
74812W        W43206   4.915  12.680  10.788
74813W        W43207  29.631  36.447   3.857
74814W        W43208  12.436  19.517   3.645
74815W        W43209  37.095   2.446   3.415
74816W        W43210  30.436   7.985   4.210
74817W        W43211  10.337   8.348  14.388
74818W        W43212  29.867  38.193   0.013
74819W        W43213  18.080  31.855  12.930
74820W        W43214  38.034  43.156  11.159
74821W        W43215   1.315  43.860   0.394
74822W        W43216  26.088   0.513   2.290
74823W        W43217  44.704  23.732   2.307
74824W        W43218  18.765  41.839   9.946
74825W        W43219  28.232  17.836  10.329
74826W        W43220  33.257  39.871  10.530
74827W        W43221  20.540   4.548   1.281
74828W        W43222  13.250  32.151  13.474
74829W        W43223  21.737  14.027   1.357
74830W        W43224  35.824   9.849  12.755
74831W        W43225  37.756  14.357   2.090
74832W        W43226  40.260  41.929   4.533
74833W        W43227  12.905  26.198   2.113
74834W        W43228  36.024   5.832  10.837
74835W        W43229  15.313  12.388  12.496
74836W        W43230  12.609  12.513   4.070
74837W        W43231   2.675   1.825   4.614
74838W        W43232  20.605  27.688   3.799
74839W        W43233   4.363  35.595  11.397
74840W        W43234  17.604  28.936   0.242
74841W        W43235  41.531   4.212   0.497
74842W        W43236   6.339  19.325   1.743
74843W        W43237   0.599  27.649   1.239
74844W        W43238  40.438  29.527   4.465
74845W        W43239  13.584  17.758   0.059
74846W        W43240  22.600  28.478   5.459
74847W        W43241  39.363   0.983  10.768
74848W        W43242  30.766  35.517  11.628
74849W        W43243  22.071  40.365   4.960
74850W        W43244  40.468   3.889  12.034
74851W        W43245   4.098  32.646   2.652
74852W        W43246  29.594  22.455   4.671
74853W        W43247   6.636  33.479  10.238
74854W        W43248   1.666   7.178   2.785
74855W        W43249  39.986  20.640   1.734
74856W        W43250  37.402  25.335  11.004
74857W        W43251   8.195   3.659   3.603
74858W        W43252  25.423  35.752  13.856
74859W        W43253   1.959  11.287   0.329
74860W        W43254  30.458   5.399  13.105
74861W        W43255   3.004   1.112   0.764
74862W        W43256   4.269  37.294   5.008
74863W        W43257  43.180  42.462  11.725
74864W        W43258  35.661   0.901   1.856
74865W        W43259   9.680   8.898  13.853
74866W        W43260  26.607   1.559   2.798
74867W        W43261  31.638  38.422  14.942
74868W        W43262  32.446  19.423  11.607
74869W        W43263   0.740  12.351   1.183
74870W        W43264  33.619  33.105   1.211
74871W        W43265   1.998  40.219  13.986
74872W        W43266  17.247  20.215   5.079
74873W        W43267  21.959   3.335   2.220
74874W        W43268  23.687  36.408   1.201
74875W        W43269   8.283  35.489  13.359
74876W        W43270  33.590  28.563  13.664
74877W        W43271  15.853  23.745  14.306
74878W        W43272  44.427  13.431   0.206
74879W        W43273  27.455  10.387   4.107
74880W        W43274  12.282  33.661  11.994
74881W        W43275   1.571   0.346   0.800
74882W        W43276  40.182  34.877   5.029
74883W        W43277   9.789  12.807  10.702
74884W        W43278  23.966  13.635  10.218
74885W        W43279  34.571  15.621   1.060
74886W        W43280   7.132  22.525  14.983
74887W        W43281  28.505   3.443   3.087
74888W        W43282  34.071  30.354   0.424
74889W        W43283  22.148   9.711  14.710
74890W        W43284  10.329  35.630  13.800
74891W        W43285   0.785  13.103   3.679
74892W        W43286  31.165   9.688   0.370
74893W        W43287  25.600  32.061  13.942
74894W        W43288  15.013  14.311   1.941
74895W        W43289  44.047  20.525  12.946
74896W        W43290  10.730  24.387  11.890
74897W        W43291  24.948  40.282  11.181
74898W        W43292  16.415   7.548   5.435
74899W        W43293  20.338  32.985  10.617
74900W        W43294  41.704  38.101   0.011
74901W        W43295   1.626  33.411   3.591
74902W        W43296   4.400   2.800   3.376
74903W        W43297  41.028  23.645  11.004
74904W        W43298  35.552   7.694   4.354
74905W        W43299  16.859  42.349  13.471
74906W        W43300  36.912  40.131   2.201
74907W        W43301  33.610  37.787   2.993
74908W        W43302  33.138  42.576  12.004
74909W        W43303  14.795  41.398   3.446
74910W        W43304  24.833  35.974  11.128
74911W        W43305  15.306  35.837   0.914
74912W        W43306  43.811  16.368   4.375
74913W        W43307   7.320   1.173  13.834
74914W        W43308  37.219   9.253  13.451
74915W        W43309  16.529   0.853   2.761
74916W        W43310  42.445  35.253  14.299
74917W        W43311  43.382  33.489  12.867
74918W        W43312  22.830  19.026   2.776
74919W        W43313  18.581  33.366  11.068
74920W        W43314  12.298  23.740   4.178
74921W        W43315  39.015  44.427  10.632
74922W        W43316   2.426   4.775  11.780
74923W        W43317  20.633  19.985  13.968
74924W        W43318  30.842   5.788  13.404
74925W        W43319  31.209   9.827  11.578
74926W        W43320  16.989   2.066  10.234
74927W        W43321   2.611   8.885  12.168
74928W        W43322  15.851  42.695   4.249
74929W        W43323   6.476  17.530  12.533
74930W        W43324  21.151  44.557   4.169
74931W        W43325   2.656   2.833   2.325
74932W        W43326  35.903  11.315   2.719
74933W        W43327  15.636  23.147  12.184
74934W        W43328  18.898  35.870   4.962
74935W        W43329  14.584   7.861  14.711
74936W        W43330   0.076  15.368   4.393
74937W        W43331  16.227  17.110  12.146
74938W        W43332   1.031  30.417   3.743
74939W        W43333  12.404  44.281   1.791
74940W        W43334  21.785  34.483  11.635
74941W        W43335  21.750  19.612  11.930
74942W        W43336  18.590  37.341   2.757
74943W        W43337  12.590  16.557  11.210
74944W        W43338   5.955  13.767  11.178
74945W        W43339  28.654  37.363  14.902
74946W        W43340  37.975  10.014  10.700
74947W        W43341  27.964   3.106   5.125
74948W        W43342  31.173  26.623  10.554
74949W        W43343   1.845  37.512   0.204
74950W        W43344   5.630  29.847   0.600
74951W        W43345  16.301   0.761  12.526
74952W        W43346  11.417   3.461  14.654
74953W        W43347  37.477  43.620  13.923
74954W        W43348  12.358  30.940  14.132
74955W        W43349  24.689   8.823  13.126
74956W        W43350  43.084  32.626  12.382
74957W        W43351   5.546  20.020  12.809
74958W        W43352  41.977   7.852   0.937
74959W        W43353  12.779  14.209  14.829
74960W        W43354  23.105  39.601   3.621
74961W        W43355  23.272  19.392   3.392
74962W        W43356   3.094  44.128   2.646
74963W        W43357  35.594  22.499  12.922
74964W        W43358   1.842  31.591  12.875
74965W        W43359  31.090   8.733  14.123
74966W        W43360  32.694  18.575  12.754
74967W        W43361  14.573  21.810   0.275
74968W        W43362  10.332  25.206   1.935
74969W        W43363  10.812  40.523  11.985
74970W        W43364  32.124  18.500   4.603
74971W        W43365  38.717  31.929  11.004
74972W        W43366  29.170  36.973  11.659
74973W        W43367   9.596  23.975   2.314
74974W        W43368  33.789  38.669  11.554
74975W        W43369  33.523  16.203  12.361
74976W        W43370  27.690  18.311   3.840
74977W        W43371  26.227   3.478  12.114
74978W        W43372   6.663  13.249  10.592
74979W        W43373   9.665  30.570   2.802
74980W        W43374  42.450  10.134  14.571
74981W        W43375  29.912  23.717   1.844
74982W        W43376  39.114  35.999   4.079
74983W        W43377  40.821   1.474   2.658
74984W        W43378  21.651  30.055   1.448
74985W        W43379  36.132  31.229  12.560
74986W        W43380  40.038  18.205  14.864
74987W        W43381  44.663  27.617   3.635
74988W        W43382  19.163  35.469   1.673
74989W        W43383  18.789  31.147   1.746
74990W        W43384   6.726  25.448  12.107
74991W        W43385  15.484  36.090  14.166
74992W        W43386  20.549  29.549  12.956
74993W        W43387   0.857  29.133  12.097
74994W        W43388  14.553  11.403  14.973
74995W        W43389  21.822  29.500   3.306
74996W        W43390  39.946  25.488   4.607
74997W        W43391  27.657  17.074   0.176
74998W        W43392  21.062  11.776  12.943
74999W        W43393   2.390  29.371   3.821
75000W        W43394  31.630  21.037  10.618
75001W        W43395  34.636  35.461  13.040
75002W        W43396  35.346  40.824   4.475
75003W        W43397  37.894   1.228   3.140
75004W        W43398  34.898  35.301  13.752
75005W        W43399  26.252  40.011  14.846
75006W        W43400  15.715  40.897  13.965
75007W        W43401   4.762  28.220  10.281
75008W        W43402  44.453  18.519   0.435
75009W        W43403  37.860  24.628  13.044
75010W        W43404   6.601  32.587  13.469
75011W        W43405  28.499  37.099   3.488
75012W        W43406  41.866  39.591  13.105
75013W        W43407  25.897  42.277  11.925
75014W        W43408   5.339  40.910   0.844
75015W        W43409  15.223  14.283   3.612
75016W        W43410  11.795  21.891  10.425
75017W        W43411   0.888   0.856  11.105
75018W        W43412  37.592  40.635   3.216
75019W        W43413  28.449  17.167   4.361
75020W        W43414  38.668   9.315   1.833
75021W        W43415  37.760  13.238   0.418
75022W        W43416  23.492  29.876  12.483
75023W        W43417  41.256   6.664  13.819
75024W        W43418   1.969   0.521   2.104
75025W        W43419  30.593  33.420   2.780
75026W        W43420  34.811  43.324  10.911
75027W        W43421  29.087  34.116  12.088
75028W        W43422  17.238  17.739   2.228
75029W        W43423  36.341  16.804   4.633
75030W        W43424  39.107  24.242  12.664
75031W        W43425  35.770   7.620  13.441
75032W        W43426  36.840   9.662   0.315
75033W        W43427   6.783   8.723  11.951
75034W        W43428   6.883   0.322   1.813
75035W        W43429   4.249  25.552   2.489
75036W        W43430   1.910  23.183   0.114
75037W        W43431   9.388  28.195   1.892
75038W        W43432   2.930   5.636  14.262
75039W        W43433  14.362  42.086   1.208
75040W        W43434  38.134  30.468   4.119
75041W        W43435   2.557  12.425  10.014
75042W        W43436  19.789  25.607   9.845
75043W        W43437  31.050  22.609  11.184
75044W        W43438  36.287  23.534  13.110
75045W        W43439  23.465   3.309   2.334
75046W        W43440  16.630  25.477   3.199
75047W        W43441  28.824  18.201   1.381
75048W        W43442   3.903  40.963  10.584
75049W        W43443  33.448  26.069  10.121
75050W        W43444   9.258   9.128   3.977
75051W        W43445  33.115  19.358   0.981
75052W        W43446   1.324  40.924   3.530
75053W        W43447  33.332  42.750   5.121
75054W        W43448  33.784  12.896   3.344
75055W        W43449   8.620  18.335   4.166
75056W        W43450   2.561  40.888  12.864
75057W        W43451  44.781  33.880  11.237
75058W        W43452  14.096  41.918   0.760
75059W        W43453   8.971   2.071  12.672
75060W        W43454  15.108   5.005  10.347
75061W        W43455   9.111  18.223  13.987
75062W        W43456   1.747  35.956   2.199
75063W        W43457  40.101  18.015   4.042
75064W        W43458  12.325  31.142  13.333
75065W        W43459  41.345  14.601   3.689
75066W        W43460  30.314   2.583  13.517
75067W        W43461   8.449  44.583  13.997
75068W        W43462  16.207  37.970   3.400
75069W        W43463   6.243  22.986   1.387
75070W        W43464  15.016  16.808   5.256
75071W        W43465  37.909   8.002  13.530
75072W        W43466   0.472  18.787  14.312
75073W        W43467   4.342   8.398   4.621
75074W        W43468  12.443  35.242  13.566
75075W        W43469  31.587   9.702   0.890
75076W        W43470  17.067  30.136  14.265
75077W        W43471   8.630  20.725   3.632
75078W        W43472  29.925   2.870  13.326
75079W        W43473  32.554  16.342   4.207
75080W        W43474   8.788   1.530  11.953
75081W        W43475  34.968  15.624   2.634
75082W        W43476  17.121   5.259  14.281
75083W        W43477  42.083  11.682  12.134
75084W        W43478  42.367  21.826   1.672
75085W        W43479   1.214   8.139  10.765
75086W        W43480   9.578  11.787   2.876
75087W        W43481  32.600   1.239  13.552
75088W        W43482  37.935   2.905  14.321
75089W        W43483  11.386  26.366   4.253
75090W        W43484  43.469  43.981  13.906
75091W        W43485  16.653  20.147   4.147
75092W        W43486  15.696  15.538  10.134
75093W        W43487  31.170  44.742  11.626
75094W        W43488  33.881  31.558   4.633
75095W        W43489   5.942  40.776  14.887
75096W        W43490  38.872  39.282   3.782
75097W        W43491   9.279  43.179  13.299
75098W        W43492  31.566  30.698   1.174
75099W        W43493  13.750  31.391   1.614
75100W        W43494  39.055  21.191   3.326
75101W        W43495  36.648  40.388  13.968
75102W        W43496  38.478  26.112  10.672
75103W        W43497  35.097  37.825  11.233
75104W        W43498  23.002   5.867   1.963
75105W        W43499  24.621  17.211  11.596
75106W        W43500  12.540  40.005  10.573
75107W        W43501  38.938   0.383  12.208
75108W        W43502  39.039  17.913   4.157
75109W        W43503  44.376  38.856   2.570
75110W        W43504  41.777  28.610  13.486
75111W        W43505  38.561  30.143   0.735
75112W        W43506  38.900   6.511   3.452
75113W        W43507  44.477   1.586  13.796
75114W        W43508  10.323   5.219  14.352
75115W        W43509  15.754  40.033  14.584
75116W        W43510  16.174  42.349  13.958
75117W        W43511  36.080   6.504  11.583
75118W        W43512   1.002   6.164   0.515
75119W        W43513  31.154   8.316  10.812
75120W        W43514  37.311  24.163  13.403
75121W        W43515  36.881  15.621   0.502
75122W        W43516   7.144  23.922   1.185
75123W        W43517  20.787  41.183   4.155
75124W        W43518  27.391  24.637  13.713
75125W        W43519  25.420  44.913   3.569
75126W        W43520  13.092   0.332   1.908
75127W        W43521  38.086   7.081   0.146
75128W        W43522  32.038  23.495   2.299
75129W        W43523  13.108  35.261   5.138
75130W        W43524  21.041  26.383   5.503
75131W        W43525  37.671  30.576  10.797
75132W        W43526  12.541   9.067  12.583
75133W        W43527   0.359  26.895   4.616
75134W        W43528  23.377   0.688  13.830
75135W        W43529  35.366  40.844   1.704
75136W        W43530  34.532  17.034   2.916
75137W        W43531   7.793  35.003  14.816
75138W        W43532  11.531  40.163  10.085
75139W        W43533  36.595  24.079   0.472
75140W        W43534  22.396  17.864  14.708
75141W        W43535  17.028  42.644  13.939
75142W        W43536   9.171  26.179   3.069
75143W        W43537  31.537  15.765  13.405
75144W        W43538  12.045   3.626  11.560
75145W        W43539  26.138  30.531   1.902
75146W        W43540  25.052  24.405  11.153
75147W        W43541   0.957  37.319   4.566
75148W        W43542  21.969   9.899  10.640
75149W        W43543  38.986  37.835  14.931
75150W        W43544   3.817  34.826  12.465
75151W        W43545  38.379  22.152  14.289
75152W        W43546   7.819  17.628  13.584
75153W        W43547  18.292  42.231  13.521
75154W        W43548  27.532  35.809   3.210
75155W        W43549  26.999   3.422  12.528
75156W        W43550  36.806  24.343   0.855
75157W        W43551  32.337  24.894   3.433
75158W        W43552  41.395  11.946   4.027
75159W        W43553   6.721  21.158   4.164
75160W        W43554  17.777   2.383   2.218
75161W        W43555  19.520   0.979  11.976
75162W        W43556  10.427  11.419   0.935
75163W        W43557  29.847  35.095   3.325
75164W        W43558   0.467  36.158  14.377
75165W        W43559  17.224  13.286   4.797
75166W        W43560  40.822  12.331   2.411
75167W        W43561  17.572  26.665   4.677
75168W        W43562   6.463  39.922   2.441
75169W        W43563  26.967  44.730  12.854
75170W        W43564  17.802  29.024   3.510
75171W        W43565  39.339   0.246   0.234
75172W        W43566  18.320  27.011  12.109
75173W        W43567  34.340  43.839  11.995
75174W        W43568  44.743   2.941   2.369
75175W        W43569  22.516  21.243   3.089
75176W        W43570  26.177   0.964  11.517
75177W        W43571  35.302  19.039   1.226
75178W        W43572  15.422  32.602  11.520
75179W        W43573   0.894   0.954   0.006
75180W        W43574  15.113  10.126  14.460
75181W        W43575  34.588  26.623  11.708
75182W        W43576  30.638  25.131  11.608
75183W        W43577  10.306  12.184   0.499
75184W        W43578  31.362  11.386  12.570
75185W        W43579  26.495  14.482  11.079
75186W        W43580   7.434  23.417  14.436
75187W        W43581  39.266  21.542   4.966
75188W        W43582  31.016  34.699  12.964
75189W        W43583  30.910   3.850   3.349
75190W        W43584  36.974   9.154   3.844
75191W        W43585  41.577   5.928  14.343
75192W        W43586  25.134  23.948   4.918
75193W        W43587  39.097  20.052  12.524
75194W        W43588  38.086  22.599   0.339
75195W        W43589  17.838  29.082   2.628
75196W        W43590  25.083   4.531   0.050
75197W        W43591   6.917  44.231  14.035
75198W        W43592  24.913  10.408   1.114
75199W        W43593   5.770  15.262  11.367
75200W        W43594  24.702   6.980  13.033
75201W        W43595   3.315  17.209  10.621
75202W        W43596  21.313  21.459   0.788
75203W        W43597  42.796  19.393  14.361
75204W        W43598  18.104  11.527  12.498
75205W        W43599  11.878  34.544   4.864
75206W        W43600  40.379   6.789   1.104
75207W        W43601  10.590  15.619  12.748
75208W        W43602  13.654  16.830  12.934
75209W        W43603  38.950   0.622   2.865
75210W        W43604  22.824  30.706  13.400
75211W        W43605   8.139  25.192   1.602
75212W        W43606   6.136  26.030  11.651
75213W        W43607   7.960  25.566   2.366
75214W        W43608  33.550  29.672  12.597
75215W        W43609   1.819   6.450  11.594
75216W        W43610   6.897  12.072  11.159
75217W        W43611  41.406  44.222  14.241
75218W        W43612  43.116   9.394  13.572
75219W        W43613  44.893   3.777  13.007
75220W        W43614  30.978  36.105   4.869
75221W        W43615  39.903  39.202   0.493
75222W        W43616  28.091  31.013   1.843
75223W        W43617  20.583  12.355  13.537
75224W        W43618  14.650  32.525  10.733
75225W        W43619  35.924  25.907   1.952
75226W        W43620  21.750  23.237   2.607
75227W        W43621  30.597   1.980   3.300
75228W        W43622  25.135   7.526  12.429
75229W        W43623  37.924  23.067   0.208
75230W        W43624   8.236  27.478  11.124
75231W        W43625  15.357  12.768   1.865
75232W        W43626   4.136   5.329  10.686
75233W        W43627  11.845  13.560  14.229
75234W        W43628  29.512  34.619   0.703
75235W        W43629   5.610  30.488  12.016
75236W        W43630  21.724   5.926   3.192
75237W        W43631   0.291  22.215  11.536
75238W        W43632   3.894  12.104  14.280
75239W        W43633  33.613  35.582   4.155
75240W        W43634  17.864  41.587  10.123
75241W        W43635  15.832  11.678   5.152
75242W        W43636   6.739  36.834  13.954
75243W        W43637   3.486  31.448   3.167
75244W        W43638  17.335  14.777   4.207
75245W        W43639   5.460  30.102   1.140
75246W        W43640  38.078   3.933   2.504
75247W        W43641   9.842  36.857   0.242
75248W        W43642   2.419  23.146   3.525
75249W        W43643  24.048  24.349  12.107
75250W        W43644  26.469  33.071  11.256
75251W        W43645  11.736   2.020   4.254
75252W        W43646  16.515  23.644  11.580
75253W        W43647  34.616  18.807  11.426
75254W        W43648  32.265  12.282   4.715
75255W        W43649   3.694  25.428   0.532
75256W        W43650  26.744   7.831   4.578
75257W        W43651  27.826  24.153  11.091
75258W        W43652  24.634   0.941  13.631
75259W        W43653  10.227  23.490   4.093
75260W        W43654  30.843  15.591   3.625
75261W        W43655  35.485  25.140  11.402
75262W        W43656  18.517  12.841   2.418
75263W        W43657  28.987  12.405  11.500
75264W        W43658  11.220  42.388   0.700
75265W        W43659  19.732  19.562   2.910
75266W        W43660  44.523   9.286  11.619
75267W        W43661  13.208  44.828   1.886
75268W        W43662  14.824  21.730  11.164
75269W        W43663  12.424  21.025  11.118
75270W        W43664  33.694  19.562   3.711
75271W        W43665  31.831  38.135  14.474
75272W        W43666  39.614  42.995  12.118
75273W        W43667  21.020  30.124  14.803
75274W        W43668  27.211  41.305  14.850
75275W        W43669  20.221  29.947   3.159
75276W        W43670  15.806  12.125  10.689
75277W        W43671  11.532  12.553  10.065
75278W        W43672   3.894  24.213   2.229
75279W        W43673   6.296  11.103  12.076
75280W        W43674  30.045  18.080   0.080
75281W        W43675  36.313  11.442  12.513
75282W        W43676   9.918  35.587   4.654
75283W        W43677   4.664  37.627  13.812
75284W        W43678   5.529  33.347   3.145
75285W        W43679  38.326  13.636   4.564
75286W        W43680  15.711   1.257   3.567
75287W        W43681  19.827  34.480   1.356
75288W        W43682  20.911  24.225   1.325
75289W        W43683  21.656  16.741  11.590
75290W        W43684  10.671  38.744  12.628
75291W        W43685  36.092  25.618   1.459
75292W        W43686  19.067  42.521  13.118
75293W        W43687  34.318   6.711  10.648
75294W        W43688   6.908  11.760   4.724
75295W        W43689  41.230  40.529   4.128
75296W        W43690  25.539  37.244  14.020
75297W        W43691  13.118   3.925   2.233
75298W        W43692  10.956  21.187  13.384
75299W        W43693  30.733   5.550  11.221
75300W        W43694  41.976  14.584   1.839
75301W        W43695  42.797  24.368  13.894
75302W        W43696   7.009  14.408  11.485
75303W        W43697   3.919  22.571  14.438
75304W        W43698  28.738  18.498   0.849
75305W        W43699   9.862  25.565   0.287
75306W        W43700   0.753  39.744  13.104
75307W        W43701  37.087   6.294  13.113
75308W        W43702  35.923   0.270  10.676
75309W        W43703   3.837  18.573  12.459
75310W        W43704  19.936   9.262   4.576
75311W        W43705  17.748  17.135   3.220
75312W        W43706  39.474  24.063   0.013
75313W        W43707  15.204  29.686   2.613
75314W        W43708  10.168  20.664  10.522
75315W        W43709  24.131  31.239  10.723
75316W        W43710  12.632  23.660  12.095
75317W        W43711   3.457   6.803  11.161
75318W        W43712   6.129  12.853  13.040
75319W        W43713  44.246  21.224   0.858
75320W        W43714  11.589  10.611  10.525
75321W        W43715  31.486  23.118  12.129
75322W        W43716   8.350  38.036   1.757
75323W        W43717  14.804   7.459  12.068
75324W        W43718  20.213  18.311  10.268
75325W        W43719  21.689  33.890  12.322
75326W        W43720  24.452  33.528  13.432
75327W        W43721  37.196   6.380  11.011
75328W        W43722  31.549  37.516   1.964
75329W        W43723   0.068  22.581  11.232
75330W        W43724  41.530   3.877  10.639
75331W        W43725   3.935  35.508  11.663
75332W        W43726  18.802  10.617   3.170
75333W        W43727  25.495  32.828   4.030
75334W        W43728   0.633  25.514   3.650
75335W        W43729  16.170  21.800   4.308
75336W        W43730  18.181  17.193  12.454
75337W        W43731   3.768  10.741   2.287
75338W        W43732  34.174  16.689  13.342
75339W        W43733   7.305  26.236  13.278
75340W        W43734  15.899   1.073   0.206
75341W        W43735   8.683  14.156  14.062
75342W        W43736   8.283  29.674   2.734
75343W        W43737  27.951   2.833   2.847
75344W        W43738  33.445  44.240   0.956
75345W        W43739   7.000   1.834   0.405
75346W        W43740  43.872  22.532   1.114
75347W        W43741  10.754  24.162   0.190
75348W        W43742  23.001  23.106   2.402
75349W        W43743  23.107  13.247  13.451
75350W        W43744  12.062  34.558   1.782
75351W        W43745  28.408  11.883  13.408
75352W        W43746  34.108  19.055   0.025
75353W        W43747  22.978  41.594   0.024
75354W        W43748  12.314  29.878  13.967
75355W        W43749  12.803  35.329  13.944
75356W        W43750  44.342  15.545   5.082
75357W        W43751  30.964  33.779   4.594
75358W        W43752   6.331   6.995  11.490
75359W        W43753  10.250  21.658  14.351
75360W        W43754   8.768  30.623  12.911
75361W        W43755  30.300  22.844  11.645
75362W        W43756  14.601  19.222   2.759
75363W        W43757  15.111  14.752   3.360
75364W        W43758  23.088  13.680   3.688
75365W        W43759  25.218  22.802   4.479
75366W        W43760   6.308   4.238  11.554
75367W        W43761  28.001   6.543  13.042
75368W        W43762  22.662  34.055  13.886
75369W        W43763  35.038  29.429  14.702
75370W        W43764   0.183   9.145  14.341
75371W        W43765  18.588  13.212   3.684
75372W        W43766  23.143  42.585  10.477
75373W        W43767  15.108   0.884  12.126
75374W        W43768  30.688   7.929   2.873
75375W        W43769   6.745   7.093  11.187
75376W        W43770  10.361   7.773  13.358
75377W        W43771  41.065  34.133   4.461
75378W        W43772  22.552  39.584   3.804
75379W        W43773  30.380  44.461   1.309
75380W        W43774  43.025  22.072   3.663
75381W        W43775  40.580  18.355  12.556
75382W        W43776  19.540  12.086  12.480
75383W        W43777   1.450   0.406  10.534
75384W        W43778  16.506  19.072   1.327
75385W        W43779  30.979  30.589   2.601
75386W        W43780   0.097  24.787   0.351
75387W        W43781   8.356  11.628   0.217
75388W        W43782  19.663  10.448   2.421
75389W        W43783  24.716  34.500   2.631
75390W        W43784  34.093  32.136   4.426
75391W        W43785  27.125   5.488  11.555
75392W        W43786  22.700  17.270   2.919
75393W        W43787  39.841  18.001   2.728
75394W        W43788  21.675  33.385  12.512
75395W        W43789  25.413  33.111  14.806
75396W        W43790  27.048  41.296   3.282
75397W        W43791  11.263  31.717  10.984
75398W        W43792  38.905  31.012   0.559
75399W        W43793   9.249   7.572   4.085
75400W        W43794  22.508  16.771   1.859
75401W        W43795  22.284  16.471  13.511
75402W        W43796  24.100  43.370  14.674
75403W        W43797  30.513   4.917   1.278
75404W        W43798  18.732  43.681  12.416
75405W        W43799   4.153  43.296   0.265
75406W        W43800  11.683  27.588   1.417
75407W        W43801  20.399  25.736   4.914
75408W        W43802  10.285  23.716  12.492
75409W        W43803  34.539  31.317   1.928
75410W        W43804   1.908  30.466   3.335
75411W        W43805  22.965  18.988  11.872
75412W        W43806  43.376  16.220  13.946
75413W        W43807  13.235  18.357   2.860
75414W        W43808   5.359  28.232   4.705
75415W        W43809  10.143   6.295   0.459
75416W        W43810  28.565  32.159  13.004
75417W        W43811  34.172  42.070   1.256
75418W        W43812  40.904  44.984   4.006
75419W        W43813  32.555   2.543  14.886
75420W        W43814  40.570  21.933   1.299
75421W        W43815  35.548  43.340  11.986
75422W        W43816  32.648  20.643  10.763
75423W        W43817  32.635  13.258  12.337
75424W        W43818   5.667  38.508  13.880
75425W        W43819   6.293  34.249   1.329
75426W        W43820  36.834  28.630   1.140
75427W        W43821  44.010  20.435   0.482
75428W        W43822  37.234  30.000  12.357
75429W        W43823  26.720  20.710   4.791
75430W        W43824  28.899   3.738   2.260
75431W        W43825  13.112   6.310   2.777
75432W        W43826  44.826  23.896  11.207
75433W        W43827   3.975  25.432  11.970
75434W        W43828  38.447  30.700   2.756
75435W        W43829   6.784  29.246   1.812
75436W        W43830  44.996  20.646   1.802
75437W        W43831   3.808  11.447   0.049
75438W        W43832  33.497   4.035   1.771
75439W        W43833  26.797  10.266  11.919
75440W        W43834  25.802  16.633  12.507
75441W        W43835  41.816  12.417  11.535
75442W        W43836  15.160  33.122  13.076
75443W        W43837  20.037  35.002  13.050
75444W        W43838  36.126  21.632   1.864
75445W        W43839  41.309  23.791  11.481
75446W        W43840   4.750  28.153   3.892
75447W        W43841  18.611  13.202  11.559
75448W        W43842   3.711  10.755  11.371
75449W        W43843  40.416  29.905   2.205
75450W        W43844   3.189  15.962  14.869
75451W        W43845  36.791  25.303  11.703
75452W        W43846  28.871  41.430   4.100
75453W        W43847  43.986  35.426   2.095
75454W        W43848  43.862  30.312   3.696
75455W        W43849  19.151   0.994   2.013
75456W        W43850   4.375  31.439  10.614
75457W        W43851  31.789  31.640   4.824
75458W        W43852   7.011   2.207  10.822
75459W        W43853   9.619   2.684   1.632
75460W        W43854  10.093  28.441   2.777
75461W        W43855  39.698  23.602  11.919
75462W        W43856  28.497   5.943   3.561
75463W        W43857  39.426  44.860  11.501
75464W        W43858   6.757  15.320  12.431
75465W        W43859  20.958  41.618  12.065
75466W        W43860  38.168  44.061  11.093
75467W        W43861  25.097  38.757   2.200
75468W        W43862   5.736  18.704  13.626
75469W        W43863  29.291   1.202  13.998
75470W        W43864  19.113  33.411  11.929
75471W        W43865  14.293  18.637   3.365
75472W        W43866  11.697  10.023   1.053
75473W        W43867  25.660  34.539   2.262
75474W        W43868  33.954  17.759   3.231
75475W        W43869  43.289  42.005  11.504
75476W        W43870  44.022   0.045  13.385
75477W        W43871   2.671  11.855   2.252
75478W        W43872  29.181  19.108  14.372
75479W        W43873   9.587   5.277  13.810
75480W        W43874   9.234  41.253  14.530
75481W        W43875  22.708  35.033   3.092
75482W        W43876  30.392  26.931   1.822
75483W        W43877  22.134  40.528  10.728
75484W        W43878  19.122  19.340   3.387
75485W        W43879  24.760  35.480  11.159
75486W        W43880  18.721   9.967   2.178
75487W        W43881  23.027   8.594   4.698
75488W        W43882  44.108   0.719   3.172
75489W        W43883  44.520  18.278  11.964
75490W        W43884  19.785   5.110   1.340
75491W        W43885  15.216  21.481  13.795
75492W        W43886  21.230   2.717  12.081
75493W        W43887  34.566   7.708  12.574
75494W        W43888  41.350  44.912  10.723
75495W        W43889  33.358  41.257   3.885
75496W        W43890  19.546  26.112  13.397
75497W        W43891   1.957   3.712   0.561
75498W        W43892  13.095  16.309   2.613
75499W        W43893  30.196  11.948  12.423
75500W        W43894  26.035   4.973  14.941
75501W        W43895  27.016   4.670   3.069
75502W        W43896  25.600  16.117  13.045
75503W        W43897  23.314   7.339   3.177
75504W        W43898  38.968   2.121  10.278
75505W        W43899  10.587  32.062  10.807
75506W        W43900  14.907  37.960  12.427
75507W        W43901   9.904  17.175   0.851
75508W        W43902  35.469  28.049  11.482
75509W        W43903  30.170  34.232   1.892
75510W        W43904  44.328  19.114  10.794
75511W        W43905   3.729  26.604  12.529
75512W        W43906  13.408  18.165   2.404
75513W        W43907   9.592   3.643  14.440
75514W        W43908  10.311  23.548   3.039
75515W        W43909  26.944   2.209  14.931
75516W        W43910  16.830  22.538  11.567
75517W        W43911   2.322  34.571  10.350
75518W        W43912  30.642  36.594  14.767
75519W        W43913  27.616  25.487   0.654
75520W        W43914  18.677  12.849   1.911
75521W        W43915  32.326   8.657   1.179
75522W        W43916  19.531  29.501  14.030
75523W        W43917  32.844  23.333   2.682
75524W        W43918   8.288   5.652  10.230
75525W        W43919  28.351  22.013  10.361
75526W        W43920   0.729   3.476   3.221
75527W        W43921  12.627  44.336   1.158
75528W        W43922  17.305  28.179   0.314
75529W        W43923  19.574   2.407   1.861
75530W        W43924  11.329  32.375  12.837
75531W        W43925  44.021  27.759   1.172
75532W        W43926  17.984  33.060  12.927
75533W        W43927  44.784  16.274   2.718
75534W        W43928  38.063  39.968  10.636
75535W        W43929  23.901  38.739  14.300
75536W        W43930  15.649  18.209  10.246
75537W        W43931  22.705  25.966   1.446
75538W        W43932   9.688  33.931  12.090
75539W        W43933  22.437   5.337   3.121
75540W        W43934  26.795   3.200   3.255
75541W        W43935   2.509  13.453   2.569
75542W        W43936  39.435  34.136   0.832
75543W        W43937  16.754  36.535  11.190
75544W        W43938  18.611  21.522  10.406
75545W        W43939  26.695  32.072  11.078
75546W        W43940  15.800  12.719   2.211
75547W        W43941   4.493   3.006  14.363
75548W        W43942  25.388  37.735  13.969
75549W        W43943  14.828  36.526  14.027
75550W        W43944  39.490  13.886   4.194
75551W        W43945  35.017  23.548  10.867
75552W        W43946  22.384  32.906  14.423
75553W        W43947   0.500  32.861   0.827
75554W        W43948  24.213  40.275  10.650
75555W        W43949   0.746  21.676  10.818
75556W        W43950  37.827  18.771  13.132
75557W        W43951  21.519  28.545  11.994
75558W        W43952  38.002  38.680   3.327
75559W        W43953   1.561  18.057  12.113
75560W        W43954  29.660  14.817   1.303
75561W        W43955  36.496  35.487   4.187
75562W        W43956  30.320  25.485   5.061
75563W        W43957   1.719  25.710   4.221
75564W        W43958  35.992  11.405  10.964
75565W        W43959  19.561  35.565   2.615
75566W        W43960  37.466  13.215   3.599
75567W        W43961  35.236  35.316  11.934
75568W        W43962  24.180   5.152  11.928
75569W        W43963  32.986  37.399  11.059
75570W        W43964  25.482   9.196  10.803
75571W        W43965  36.838  21.917  11.176
75572W        W43966  30.950   5.242  13.788
75573W        W43967   9.863  10.774  13.583
75574W        W43968  19.189  16.878  13.379
75575W        W43969   2.720   0.428  13.830
75576W        W43970  44.953  29.251   2.249
75577W        W43971  27.519  29.384  13.412
75578W        W43972  27.300  19.082   1.349
75579W        W43973  20.183   4.557   2.495
75580W        W43974  21.486  40.938  13.531
75581W        W43975  34.041  37.822  13.168
75582W        W43976  23.623  18.154   2.735
75583W        W43977   6.750  32.045  11.556
75584W        W43978  17.405   3.170  12.608
75585W        W43979  38.136  22.745  10.578
75586W        W43980  21.216   3.083   0.665
75587W        W43981  10.095  30.950  13.743
75588W        W43982   4.912   2.245  12.925
75589W        W43983  20.099   1.977   0.628
75590W        W43984  41.001  42.762  12.714
75591W        W43985  10.890  26.951   2.826
75592W        W43986   9.362  20.612  11.902
75593W        W43987  37.005  35.309   2.887
75594W        W43988  41.833   9.162  14.962
75595W        W43989  33.884  34.427   1.361
75596W        W43990   3.055  41.001  12.030
75597W        W43991  42.624  21.805  13.853
75598W        W43992   1.968  40.029   1.004
75599W        W43993  16.102  38.825  14.473
75600W        W43994  31.599   0.825  12.185
75601W        W43995  40.620  22.410  12.916
75602W        W43996  18.327  25.564  11.628
75603W        W43997  35.161  35.536  12.390
75604W        W43998   8.457  18.808   2.507
75605W        W43999  34.160   8.119   0.316
75606W        W44000   0.998  32.502  14.982
75607W        W44001  11.101  20.001  13.088
75608W        W44002  41.835  14.728  11.459
75609W        W44003  26.191   4.531   3.752
75610W        W44004  14.798  28.464   4.360
75611W        W44005  24.541  32.205   2.392
75612W        W44006   0.526  17.734  10.485
75613W        W44007   4.481  21.901   4.589
75614W        W44008   4.822  34.670   1.902
75615W        W44009  32.622  13.415   4.442
75616W        W44010  41.757   3.427   1.834
75617W        W44011  10.737  33.656   3.912
75618W        W44012  25.144  26.689  12.996
75619W        W44013   0.874  18.018  10.761
75620W        W44014  35.640  40.435  13.113
75621W        W44015  22.207  28.421  10.622
75622W        W44016  34.327  37.899   3.846
75623W        W44017   9.718  11.597   3.329
75624W        W44018  24.416  13.065  14.952
75625W        W44019  10.190  44.520  11.825
75626W        W44020  19.177  14.855   4.634
75627W        W44021  33.857  10.211  14.000
75628W        W44022   2.926  37.825  13.874
75629W        W44023   7.917  27.580   4.975
75630W        W44024  35.463  19.401  10.608
75631W        W44025  20.868  41.947   2.664
75632W        W44026  11.479   9.337  10.717
75633W        W44027   1.459  24.070   2.351
75634W        W44028   2.891  13.544   2.887
75635W        W44029  40.307  28.910   1.360
75636W        W44030   9.904  22.580  11.407
75637W        W44031   0.590  10.872  11.543
75638W        W44032  12.346  28.437   1.899
75639W        W44033  15.080   2.764  10.955
75640W        W44034  42.895   9.416   1.833
75641W        W44035  14.571  18.175  11.454
75642W        W44036   4.297   7.178  14.462
75643W        W44037   9.791  16.040   3.695
75644W        W44038  22.187   5.661  10.944
75645W        W44039  30.135  19.563  12.495
75646W        W44040  36.619  37.025  13.986
75647W        W44041  21.996   6.361   0.589
75648W        W44042  12.359  28.811  13.620
75649W        W44043  44.220   5.122   3.661
75650W        W44044  19.532  10.868   3.718
75651W        W44045  24.048  13.833   0.750
75652W        W44046  10.658  20.695  14.972
75653W        W44047  40.556  26.899  10.540
75654W        W44048  38.897  44.906   4.668
75655W        W44049  32.931   8.154  12.352
75656W        W44050  29.530   2.192  14.707
75657W        W44051  33.522  34.399   4.543
75658W        W44052  31.837  21.749  10.032
75659W        W44053  40.536  13.202   2.700
75660W        W44054  10.362   2.464  11.590
75661W        W44055  42.841  43.495   1.948
75662W        W44056  21.771   2.843  14.327
75663W        W44057   2.384   0.474  12.884
75664W        W44058  16.584  10.268   3.044
75665W        W44059  25.732  22.675  12.954
75666W        W44060  14.525  23.099   3.199
75667W        W44061  34.592   9.672  14.855
75668W        W44062  28.217  22.656   4.569
75669W        W44063  24.982  25.755  12.304
75670W        W44064  16.974  44.109   4.120
75671W        W44065   4.239   3.764  13.779
75672W        W44066  17.275  15.718   1.898
75673W        W44067  23.987  42.418   0.194
75674W        W44068  10.175  40.366   4.650
75675W        W44069  27.739  23.946  13.045
75676W        W44070  36.546   3.893   3.580
75677W        W44071   8.838   4.288  14.724
75678W        W44072  34.450   1.801  14.946
75679W        W44073  25.591  39.711  13.864
75680W        W44074  24.561   7.327   4.138
75681W        W44075  14.852  29.131  11.976
75682W        W44076   6.305  21.816   4.555
75683W        W44077  23.084  29.031  12.586
75684W        W44078  39.271  32.059  12.410
75685W        W44079  26.183  25.988  14.877
75686W        W44080  12.259  18.007   0.001
75687W        W44081  30.340  43.811  11.679
75688W        W44082   8.237  28.761  13.122
75689W        W44083  21.929   5.938   4.484
75690W        W44084  22.957  36.620   4.469
75691W        W44085  33.421   6.212   1.773
75692W        W44086  18.584  29.993  14.172
75693W        W44087   5.947  23.625   4.043
75694W        W44088   6.756  27.784  12.014
75695W        W44089  22.291  10.720   1.281
75696W        W44090  29.568  43.299  11.759
75697W        W44091  26.574  30.693   4.092
75698W        W44092   6.430   6.324  14.727
75699W        W44093   5.941  37.833   1.762
75700W        W44094  16.308   8.853   2.654
75701W        W44095  37.195  26.620   2.736
75702W        W44096  20.771  36.587   0.490
75703W        W44097   0.398   7.891   2.781
75704W        W44098  36.453  27.936  12.854
75705W        W44099  43.716   6.355  11.072
75706W        W44100  21.154  21.252   4.074
75707W        W44101  19.345  29.213  11.400
75708W        W44102   7.142  27.894   1.752
75709W        W44103  36.501  10.659  13.772
75710W        W44104  12.858  39.305   1.865
75711W        W44105  36.044  21.039  10.963
75712W        W44106  31.947   9.588   3.196
75713W        W44107  40.238  28.346  11.581
75714W        W44108  38.954  38.634  12.592
75715W        W44109  38.793  29.491   2.994
75716W        W44110   2.239  41.860  14.762
75717W        W44111  40.537   2.214   2.458
75718W        W44112  24.427  40.277   4.243
75719W        W44113   8.112  30.373  14.580
75720W        W44114  44.836  31.579  14.372
75721W        W44115  12.816  31.375   0.420
75722W        W44116   1.328  33.609   1.872
75723W        W44117  31.653  44.552   1.313
75724W        W44118  29.724  17.289   1.860
75725W        W44119  21.000  22.538  14.199
75726W        W44120  11.046   9.048   0.987
75727W        W44121  37.878  42.856   2.286
75728W        W44122   1.294  17.046  12.799
75729W        W44123  37.956  38.348   2.625
75730W        W44124  24.086   8.053   3.221
75731W        W44125   2.731  26.169   2.812
75732W        W44126   5.837   1.659   3.730
75733W        W44127   2.833   4.736   0.489
75734W        W44128  44.214  28.937  12.944
75735W        W44129  25.447  34.265   1.594
75736W        W44130  26.039  16.749   0.465
75737W        W44131   2.627  41.571   5.096
75738W        W44132  30.543  25.146   4.583
75739W        W44133   5.594   6.914   3.504
75740W        W44134   9.369  35.601   0.231
75741W        W44135  31.304  19.917   1.356
75742W        W44136  34.433  36.908   0.321
75743W        W44137  10.764   6.801   3.710
75744W        W44138  36.696  42.258   0.226
75745W        W44139   0.536  20.830  11.701
75746W        W44140  26.515  19.203   2.568
75747W        W44141  33.265  39.325   0.107
75748W        W44142  34.649  20.364  13.902
75749W        W44143  15.288  19.618  11.419
75750W        W44144   7.518  26.420  14.824
75751W        W44145   0.001  37.715   4.247
75752W        W44146  18.233   3.438  11.050
75753W        W44147   9.834  18.338  14.167
75754W        W44148  32.547  12.594   3.285
75755W        W44149  22.160  23.703   3.816
75756W        W44150  38.571  37.025  14.747
75757W        W44151  14.576  34.052   1.929
75758W        W44152  27.608  44.001  14.426
75759W        W44153  28.226  40.700   1.897
75760W        W44154  27.085   0.785   4.122
75761W        W44155  26.503  33.703  11.682
75762W        W44156   1.898  14.325  11.519
75763W        W44157  40.751  43.369   2.705
75764W        W44158  16.606  24.605  12.945
75765W        W44159  44.816   1.569   3.748
75766W        W44160  33.685   0.041   2.728
75767W        W44161   1.869  43.103   2.159
75768W        W44162  39.901  19.279   0.384
75769W        W44163  35.829  38.536   1.335
75770W        W44164  32.600   1.316  11.922
75771W        W44165  13.641  32.602   1.023
75772W        W44166  42.554  40.925   1.430
75773W        W44167   2.696  10.935  12.349
75774W        W44168  28.130   2.639   3.297
75775W        W44169  19.751  18.217  12.044
75776W        W44170  34.398  29.470  12.594
75777W        W44171   2.762   0.749   3.108
75778W        W44172   6.757  23.676  12.477
75779W        W44173   1.142  39.037  14.638
75780W        W44174  10.588  14.676   3.747
75781W        W44175  34.949  14.155  10.968
75782W        W44176  21.518  22.973  12.613
75783W        W44177  27.606  41.964  11.013
75784W        W44178  21.748   1.331   1.875
75785W        W44179  37.890  13.156  12.129
75786W        W44180  41.298  27.803  14.177
75787W        W44181   2.176  39.178  14.972
75788W        W44182  37.617   5.480  12.269
75789W        W44183  16.078  21.753  10.640
75790W        W44184  34.526  26.421  11.244
75791W        W44185  12.297  18.734   1.876
75792W        W44186   1.973  23.059   3.742
75793W        W44187  43.030   3.323  13.037
75794W        W44188  37.158   4.863  11.582
75795W        W44189  42.432  24.307  12.949
75796W        W44190   5.359   8.587   4.728
75797W        W44191  24.453  43.260  13.009
75798W        W44192  27.141   2.942  12.585
75799W        W44193  35.011  39.897   2.777
75800W        W44194  10.046  19.723  10.559
75801W        W44195   3.672   6.399  12.589
75802W        W44196  44.378   7.447  11.966
75803W        W44197   4.315   4.923  13.522
75804W        W44198   9.751  40.335   3.753
75805W        W44199  43.315  32.393   4.480
75806W        W44200  44.807  42.823  14.461
75807W        W44201   6.125  16.224   2.306
75808W        W44202  34.148  17.334  10.834
75809W        W44203  22.175  37.854   4.688
75810W        W44204  33.805  12.040   2.202
75811W        W44205  41.475   7.403  10.632
75812W        W44206  40.546  43.766  12.491
75813W        W44207   2.708  38.489   4.466
75814W        W44208   9.665   1.533  13.628
75815W        W44209  28.169  10.906  13.520
75816W        W44210  17.783  43.112   0.310
75817W        W44211  24.678  14.917   4.220
75818W        W44212  14.649   0.867   3.090
75819W        W44213  41.634  24.683   2.850
75820W        W44214   9.809   1.693  13.135
75821W        W44215  19.479   7.675  14.337
75822W        W44216  28.844  20.689  12.048
75823W        W44217  19.430  42.187   0.423
75824W        W44218   3.892  29.666   0.374
75825W        W44219   2.828  23.061  13.063
75826W        W44220  13.735  33.682   1.700
75827W        W44221  30.961  40.788  12.451
75828W        W44222  41.860  34.966   2.740
75829W        W44223  27.025  24.390  13.349
75830W        W44224  36.759  38.940  12.035
75831W        W44225  26.599  13.753   4.900
75832W        W44226  20.020  29.190  11.114
75833W        W44227  27.954   8.734   1.198
75834W        W44228  10.629  27.071   4.972
75835W        W44229  29.417  13.227   1.971
75836W        W44230  15.239   1.229   4.300
75837W        W44231  13.372   1.805   5.025
75838W        W44232  29.335  16.118  13.908
75839W        W44233  15.725  18.173   4.261
75840W        W44234  19.435  33.534   0.421
75841W        W44235  25.545  28.582   4.280
75842W        W44236  26.505  16.005  13.513
75843W        W44237  39.982  28.138  13.525
75844W        W44238   7.320  19.755   1.718
75845W        W44239   2.194  10.806  14.036
75846W        W44240  16.823  29.229  11.124
75847W        W44241   2.724   1.329   2.924
75848W        W44242   6.853   6.907   0.717
75849W        W44243   5.209  34.170  14.783
75850W        W44244  32.770   0.180  12.952
75851W        W44245  24.531  21.787  11.180
75852W        W44246  35.702  28.931   2.320
75853W        W44247  33.719  31.556  11.710
75854W        W44248  42.812   9.631   1.342
75855W        W44249   0.185   1.804  13.603
75856W        W44250  10.678  17.524   4.013
75857W        W44251  38.826  20.208   2.237
75858W        W44252  26.508  36.472   2.388
75859W        W44253  26.161  36.800  11.774
75860W        W44254  35.472  30.483   1.648
75861W        W44255  12.886  33.001  11.165
75862W        W44256  23.635  41.920  11.465
75863W        W44257   3.415  42.517  13.847
75864W        W44258  39.593  34.158   2.251
75865W        W44259  10.612  18.971  14.784
75866W        W44260  24.455  42.993  10.677
75867W        W44261  22.489  33.831  14.321
75868W        W44262  17.234  30.509  13.880
75869W        W44263  35.391   0.185   4.115
75870W        W44264   7.500   6.822  12.022
75871W        W44265  12.215  19.811   3.234
75872W        W44266  28.847   4.147  13.831
75873W        W44267  37.622  10.713   4.681
75874W        W44268  41.995  38.648   2.168
75875W        W44269  24.650  25.194   2.144
75876W        W44270  42.501  38.143   1.024
75877W        W44271   9.144   8.248  14.843
75878W        W44272  40.820   9.793  13.335
75879W        W44273  35.966   8.420  14.215
75880W        W44274  27.591  30.459   1.181
75881W        W44275  11.869  30.888  13.365
75882W        W44276  35.156  41.002  11.115
75883W        W44277  27.736  35.309   1.728
75884W        W44278  21.000  34.165  11.548
75885W        W44279  10.627  33.592  10.725
75886W        W44280   4.174  14.228  13.398
75887W        W44281  20.696   8.694  11.094
75888W        W44282  38.974  10.958   2.323
75889W        W44283  23.331   0.897   1.112
75890W        W44284   8.290  33.281   3.183
75891W        W44285  31.598  36.412  11.431
75892W        W44286  16.487  30.071   2.318
75893W        W44287  40.860   6.213   2.760
75894W        W44288  33.091  41.421   4.396
75895W        W44289   6.792  13.060   2.379
75896W        W44290   2.261  12.267   1.232
75897W        W44291  14.636  43.095   1.459
75898W        W44292  11.424  14.971  10.862
75899W        W44293  19.051  10.597   2.120
75900W        W44294  27.595  23.221  13.784
75901W        W44295  12.885  24.474   0.924
75902W        W44296  19.838   7.901   0.392
75903W        W44297  26.819   5.140   3.295
75904W        W44298  32.973  37.527   0.663
75905W        W44299  16.629  18.513   2.671
75906W        W44300   7.424  16.926  12.638
75907W        W44301  29.517   4.403   2.659
75908W        W44302  31.137   7.212  14.919
75909W        W44303   4.407  12.348   1.941
75910W        W44304  23.686  21.544   0.359
75911W        W44305  18.766   4.793  10.605
75912W        W44306  12.718  18.214  11.509
75913W        W44307   3.520  21.564   0.721
75914W        W44308  44.311  16.296  13.064
75915W        W44309  36.144   8.461  12.709
75916W        W44310   2.510  25.594  11.999
75917W        W44311  16.551   3.290   1.721
75918W        W44312  20.735   3.425   1.380
75919W        W44313   1.961  23.267  14.588
75920W        W44314  43.406   4.235  14.444
75921W        W44315   6.178  41.872  13.384
75922W        W44316  17.274  17.278  13.303
75923W        W44317  16.050  18.236  12.445
75924W        W44318  29.125  29.516   1.616
75925W        W44319  20.142  31.544   1.682
75926W        W44320  27.328  17.372  13.435
75927W        W44321   8.526  14.367   2.991
75928W        W44322  41.327   0.744  12.430
75929W        W44323  13.670  19.125   2.877
75930W        W44324  14.247  11.188   0.313
75931W        W44325   1.752  30.068   1.120
75932W        W44326   8.774  23.439  13.063
75933W        W44327  29.135   4.518  12.887
75934W        W44328  42.024  25.010  12.047
75935W        W44329  19.203  36.007   1.974
75936W        W44330  15.298  43.807  12.996
75937W        W44331  34.596  41.437   1.939
75938W        W44332  38.037  37.976  14.058
75939W        W44333  33.335   1.817   1.817
75940W        W44334  31.167  16.178   2.504
75941W        W44335  31.133  44.697  11.131
75942W        W44336  12.693   5.482   1.043
75943W        W44337  37.163   2.957   0.441
75944W        W44338  14.118  31.928   0.864
75945W        W44339  28.166  16.204  11.421
75946W        W44340  37.526  40.854  14.665
75947W        W44341   8.857  19.245  10.622
75948W        W44342   8.394  31.899  14.430
75949W        W44343  28.023  44.992   1.034
75950W        W44344  24.912  20.197   2.717
75951W        W44345  14.723  16.480   2.366
75952W        W44346  28.950  14.790  11.679
75953W        W44347  30.116  31.308  10.503
75954W        W44348  26.455  44.256   3.694
75955W        W44349  25.015   0.345   4.660
75956W        W44350  26.208  13.775   2.780
75957W        W44351  23.538   2.689   2.617
75958W        W44352  11.852  21.237  12.066
75959W        W44353  32.679  10.747  11.124
75960W        W44354  40.466  40.528  14.625
75961W        W44355  20.586   6.637  14.136
75962W        W44356  28.014  36.362  11.729
75963W        W44357  23.971   8.593  14.014
75964W        W44358  11.715   3.341   4.173
75965W        W44359  41.729  34.098  11.380
75966W        W44360  17.670  16.471  13.880
75967W        W44361  37.048  17.284   0.998
75968W        W44362  35.357  41.245   1.406
75969W        W44363  32.672  19.660   3.221
75970W        W44364  26.230   6.846  12.861
75971W        W44365  29.923  30.568   4.171
75972W        W44366  25.434   9.561  14.285
75973W        W44367   2.501  19.118  10.980
75974W        W44368  29.253  19.580   0.095
75975W        W44369  14.505  43.682   3.271
75976W        W44370  16.343  16.519   4.651
75977W        W44371  18.735  21.048   2.536
75978W        W44372  41.352  40.177  12.520
75979W        W44373  23.175  35.995   3.687
75980W        W44374  26.919  27.623   3.211
75981W        W44375  19.229  34.830   3.642
75982W        W44376  20.654  27.429  12.521
75983W        W44377   6.365   9.805  10.689
75984W        W44378  28.800  15.356   4.682
75985W        W44379  11.622   4.065   4.632
75986W        W44380  36.582   5.199   1.313
75987W        W44381   3.972  27.243  14.312
75988W        W44382  36.512  32.306   3.774
75989W        W44383  20.707  41.634   1.089
75990W        W44384   6.863  16.804  11.215
75991W        W44385  39.844  29.004   3.101
75992W        W44386   1.447  34.319  14.542
75993W        W44387  39.952  44.423   1.328
75994W        W44388  11.620  35.825  12.022
75995W        W44389   9.542  42.280  11.691
75996W        W44390  37.072  43.982  11.860
75997W        W44391  11.425  32.002   2.778
75998W        W44392  44.061  24.415  11.099
75999W        W44393   9.200   0.689  11.052
76000W        W44394   0.214  15.431   2.814
76001W        W44395  13.088  11.211   2.726
76002W        W44396  43.834  19.932   0.176
76003W        W44397  23.047  23.160   4.833
76004W        W44398  43.830  12.115  10.607
76005W        W44399  27.188  12.153   9.691
76006W        W44400   3.415   6.059  10.711
76007W        W44401  36.585  23.453   4.191
76008W        W44402  13.141  43.749  13.846
76009W        W44403   3.097  28.258   3.081
76010W        W44404  24.246   9.747   1.336
76011W        W44405   8.577   6.502  13.041
76012W        W44406  22.491  37.473  12.991
76013W        W44407  32.589  43.359   3.635
76014W        W44408  15.194  29.989  12.178
76015W        W44409  20.963  23.804   2.868
76016W        W44410  26.213  23.637  11.978
76017W        W44411  43.970  16.267  14.296
76018W        W44412  13.743  27.121   3.558
76019W        W44413  12.145  30.782   4.605
76020W        W44414  12.166   7.046  13.311
76021W        W44415  42.469   2.902  12.922
76022W        W44416   0.668  42.993   1.143
76023W        W44417  22.982   4.937  13.858
76024W        W44418  32.160   6.143  10.718
76025W        W44419   1.421   8.826  11.485
76026W        W44420  19.551  19.131   3.142
76027W        W44421  22.704   4.419  14.505
76028W        W44422  19.873  36.789   1.758
76029W        W44423  13.813  24.236   0.777
76030W        W44424  35.176  24.201   2.675
76031W        W44425   1.650  27.044   5.237
76032W        W44426  23.507   6.838  13.076
76033W        W44427  33.160  27.962   4.662
76034W        W44428  12.365  28.805   4.723
76035W        W44429  34.772  25.036   1.179
76036W        W44430   3.411  35.974  12.177
76037W        W44431  41.796  27.536   2.019
76038W        W44432  12.138  41.859  11.998
76039W        W44433  25.475  20.450   2.045
76040W        W44434   7.341  31.933  14.247
76041W        W44435  33.785   3.288  12.382
76042W        W44436  40.756   6.690   2.463
76043W        W44437  30.935   3.964   1.407
76044W        W44438   4.021  26.341   0.360
76045W        W44439  17.076  11.190  13.120
76046W        W44440  31.046   4.551   3.145
76047W        W44441  15.594  27.426   3.294
76048W        W44442   0.132  29.035  13.849
76049W        W44443  19.197  22.480   0.414
76050W        W44444   3.816  39.385   4.108
76051W        W44445  27.713  37.532   2.620
76052W        W44446  29.124   4.013  14.971
76053W        W44447   4.688  43.377   4.085
76054W        W44448  18.204  23.925   0.247
76055W        W44449  44.545   9.285   0.439
76056W        W44450  13.744  13.602   0.741
76057W        W44451  23.492   0.502  11.440
76058W        W44452  30.589  15.789   4.051
76059W        W44453  24.707  34.119  12.887
76060W        W44454   6.419  39.066  12.659
76061W        W44455  34.387  14.401  11.687
76062W        W44456  28.078  25.068  14.720
76063W        W44457  12.657   7.762  13.598
76064W        W44458   3.475  42.780   0.769
76065W        W44459   6.091  14.608   3.225
76066W        W44460  22.764  31.400  12.978
76067W        W44461   0.857   3.597  11.156
76068W        W44462  29.525  14.328   2.410
76069W        W44463  39.526  17.812  11.194
76070W        W44464  17.532  35.658   0.944
76071W        W44465   0.296  34.860  12.084
76072W        W44466  43.545  24.712  13.570
76073W        W44467   2.077  40.844   4.098
76074W        W44468  41.570   1.349  13.018
76075W        W44469  41.217   3.797   1.251
76076W        W44470  24.953   5.212   1.665
76077W        W44471  33.982  35.317  14.259
76078W        W44472  10.698  25.576   3.447
76079W        W44473  16.581  36.496  11.669
76080W        W44474  40.053  22.272  14.975
76081W        W44475  36.640  26.564   0.043
76082W        W44476  22.768  32.334  12.885
76083W        W44477  44.462   0.658   9.833
76084W        W44478  29.335  40.545  12.529
76085W        W44479  33.506  21.656   1.399
76086W        W44480  30.058   4.213  13.020
76087W        W44481  14.237  31.664   0.429
76088W        W44482  41.584  15.331  14.938
76089W        W44483  35.847   9.816  10.806
76090W        W44484  15.213  37.953   2.638
76091W        W44485   9.739  34.517  13.363
76092W        W44486  18.499  37.726  11.972
76093W        W44487  12.689  39.393   2.331
76094W        W44488  12.431  25.756  12.428
76095W        W44489  32.468  32.192   0.430
76096W        W44490  27.672   3.534   3.354
76097W        W44491  22.717  27.741   0.509
76098W        W44492   3.776   4.595   3.333
76099W        W44493   6.778  21.297  10.484
76100W        W44494  17.773  23.486   4.030
76101W        W44495  17.008  11.624  14.856
76102W        W44496  21.918  10.805   5.405
76103W        W44497   0.434  34.953   4.630
76104W        W44498  35.148  12.470   1.898
76105W        W44499  26.304  17.329  11.400
76106W        W44500  20.500   0.807   2.851
76107W        W44501  26.188  14.792   1.281
76108W        W44502  35.447   9.130  14.770
76109W        W44503  13.122  41.320   1.470
76110W        W44504  40.369  13.373  14.103
76111W        W44505  14.789  43.773  12.848
76112W        W44506  24.991  17.619  10.612
76113W        W44507  19.577  40.764   1.382
76114W        W44508  35.981  24.073  14.260
76115W        W44509  10.210  23.293  12.861
76116W        W44510  15.040  44.981  13.404
76117W        W44511   8.691  41.859   0.417
76118W        W44512  33.470   2.918   3.590
76119W        W44513  35.286  26.114  12.473
76120W        W44514  36.919  33.155   0.972
76121W        W44515  18.765  33.461  11.538
76122W        W44516  24.730   6.300   4.803
76123W        W44517  35.773   0.578   1.302
76124W        W44518  21.219   2.699   1.797
76125W        W44519   9.650  43.084   1.375
76126W        W44520  25.077  37.236   3.564
76127W        W44521  28.950   1.309   4.068
76128W        W44522  29.567  32.181  13.000
76129W        W44523  19.179   9.357   0.913
76130W        W44524  32.601   4.336   3.528
76131W        W44525   0.002  13.053   1.836
76132W        W44526  37.435   5.793  13.547
76133W        W44527  23.685  39.261  10.920
76134W        W44528  32.415  10.880  11.604
76135W        W44529  23.936  43.876  11.052
76136W        W44530  32.761  30.131  14.892
76137W        W44531  44.939  13.653   3.102
76138W        W44532  44.785  41.201  14.333
76139W        W44533  21.018  19.635   2.286
76140W        W44534   6.269   6.722   4.820
76141W        W44535  11.135  38.437  14.803
76142W        W44536   0.882  10.930   2.167
76143W        W44537  16.866   9.884  11.091
76144W        W44538  39.970  11.524   0.694
76145W        W44539   8.194  42.866   2.667
76146W        W44540  26.582  33.498   1.391
76147W        W44541  10.551  14.146  10.335
76148W        W44542  35.116   5.200   4.583
76149W        W44543   8.529  40.421  12.632
76150W        W44544   3.078  24.429   4.645
76151W        W44545  26.978  24.567  14.202
76152W        W44546  17.089  44.935   1.434
76153W        W44547  24.978  34.568   0.794
76154W        W44548   4.065  14.839   0.560
76155W        W44549   6.208  39.528   0.293
76156W        W44550  12.730  15.698   1.227
76157W        W44551   4.272  36.820   4.129
76158W        W44552   2.014  43.703   4.037
76159W        W44553  34.002  37.400  12.870
76160W        W44554  28.358  23.666   4.608
76161W        W44555   5.587  40.328   1.544
76162W        W44556  10.265  31.916  14.006
76163W        W44557  16.569  28.847   1.709
76164W        W44558  33.827  42.800  14.838
76165W        W44559   8.085  25.783  12.226
76166W        W44560  13.692   1.739  12.650
76167W        W44561  42.916  38.589  12.033
76168W        W44562  44.240  20.933  13.922
76169W        W44563  14.802  19.032   4.653
76170W        W44564  25.143   0.357  12.055
76171W        W44565   7.391   6.852   1.443
76172W        W44566  41.092   2.999  13.083
76173W        W44567  42.087   8.261  11.528
76174W        W44568  42.803  14.889  14.910
76175W        W44569   3.885  11.351  10.167
76176W        W44570  35.441   5.433  11.533
76177W        W44571  43.675  17.516  13.049
76178W        W44572  18.146  32.601  12.358
76179W        W44573  10.181  28.556   1.934
76180W        W44574   4.425  34.850  11.875
76181W        W44575   6.314   7.183  13.569
76182W        W44576  29.132  19.968  11.701
76183W        W44577  20.972  38.265  10.621
76184W        W44578  37.085  16.036   1.284
76185W        W44579   6.676  41.763   1.937
76186W        W44580  17.158  15.138  13.927
76187W        W44581  33.345  26.027   3.512
76188W        W44582  28.874  17.700  12.487
76189W        W44583  22.836  11.677  11.535
76190W        W44584  28.232   8.215   4.072
76191W        W44585  37.557  34.481   1.601
76192W        W44586  11.291  37.555   2.812
76193W        W44587  15.258  26.583  12.506
76194W        W44588  19.092  15.415   1.250
76195W        W44589  42.736  37.188   3.673
76196W        W44590  21.443  11.760  10.166
76197W        W44591   0.787  17.086  10.788
76198W        W44592   9.468  20.199   0.113
76199W        W44593   9.169  17.008  13.385
76200W        W44594  26.277  24.526  12.254
76201W        W44595  37.129   4.595  11.074
76202W        W44596  36.191   0.728   4.870
76203W        W44597   3.735  10.948   3.318
76204W        W44598  35.800  38.833   0.426
76205W        W44599  10.752  23.729   3.248
76206W        W44600  41.115  14.100  10.732
76207W        W44601  10.046   4.535   0.995
76208W        W44602   7.304  31.422  14.415
76209W        W44603  27.183   5.802  11.985
76210W        W44604  14.218  37.536  12.864
76211W        W44605  34.414  24.272   0.312
76212W        W44606  24.130  16.878  12.049
76213W        W44607  17.180   0.033   0.787
76214W        W44608  30.865   2.749   4.889
76215W        W44609  35.504  31.934  11.473
76216W        W44610  36.517  32.662   4.209
76217W        W44611   2.939  30.995   4.230
76218W        W44612  33.839  42.723  13.026
76219W        W44613  18.581  10.133  14.550
76220W        W44614  20.928   0.519   0.361
76221W        W44615  21.130  24.930   3.121
76222W        W44616  33.758   2.763   2.751
76223W        W44617  17.121   5.220   4.629
76224W        W44618  39.966  16.829  10.653
76225W        W44619   4.909  33.984   3.217
76226W        W44620  19.612   8.824   3.656
76227W        W44621  14.779  44.434  10.390
76228W        W44622  27.401  26.259  10.999
76229W        W44623  44.249  38.412   2.283
76230W        W44624  39.409  29.048   1.652
76231W        W44625  28.737  40.599   1.993
76232W        W44626   0.944  19.286   1.480
76233W        W44627  35.621  24.684   4.515
76234W        W44628   9.856  40.026   3.157
76235W        W44629   4.887  22.095   4.870
76236W        W44630   7.339  27.177   5.196
76237W        W44631  24.861   1.477   2.310
76238W        W44632   1.379  17.415   2.570
76239W        W44633  17.400  34.425   2.712
76240W        W44634  43.738   7.935   1.229
76241W        W44635   7.439  43.872   2.863
76242W        W44636  36.599  12.128   3.698
76243W        W44637  24.074   0.865   1.342
76244W        W44638  26.001  28.461   2.234
76245W        W44639  36.828  23.696   1.859
76246W        W44640   5.934  17.699  10.557
76247W        W44641  36.845  31.155   4.146
76248W        W44642  12.231   6.949   1.886
76249W        W44643   6.018   7.937  14.342
76250W        W44644  29.193  25.618   2.805
76251W        W44645   2.748   8.851   4.677
76252W        W44646  27.443  32.344   2.393
76253W        W44647  27.048   9.315  13.631
76254W        W44648  33.164  24.650  11.869
76255W        W44649   9.773  20.577   1.171
76256W        W44650  20.584  13.158   0.217
76257W        W44651  20.283  27.849  13.938
76258W        W44652   4.118  26.573  10.539
76259W        W44653  30.498  13.138  11.763
76260W        W44654   8.749   1.087   3.905
76261W        W44655  43.446   0.040  13.813
76262W        W44656  38.857  35.015  14.062
76263W        W44657   2.715  10.338   2.197
76264W        W44658  25.375  35.845   3.717
76265W        W44659   0.812  23.743  13.453
76266W        W44660   4.150  12.795   1.935
76267W        W44661  22.112  22.578  12.777
76268W        W44662  28.572  39.398   1.194
76269W        W44663  10.628  14.111  14.009
76270W        W44664  41.027  35.418   2.227
76271W        W44665   8.779  41.030   2.663
76272W        W44666  26.010  30.432   0.420
76273W        W44667   5.454   7.317  14.939
76274W        W44668  32.400  11.549   2.328
76275W        W44669   0.012   9.444  12.520
76276W        W44670  21.690  26.012   1.237
76277W        W44671  13.646  40.925   3.645
76278W        W44672  20.313  14.800   1.320
76279W        W44673  17.805  19.563  14.814
76280W        W44674  35.001   1.077   2.816
76281W        W44675  17.111  32.026  12.070
76282W        W44676  32.582  21.131  10.542
76283W        W44677   4.578  39.532  14.569
76284W        W44678  31.613  26.886  12.166
76285W        W44679  17.309  29.146  11.072
76286W        W44680  25.846   4.071  13.991
76287W        W44681  10.179  38.511   4.716
76288W        W44682  42.216  34.428   3.897
76289W        W44683  13.847   6.740   0.810
76290W        W44684   9.877  44.566   0.885
76291W        W44685   1.799   8.144  11.949
76292W        W44686  25.916  38.449   4.602
76293W        W44687  21.348  12.959   0.302
76294W        W44688  30.766   2.293  12.613
76295W        W44689  20.450  33.056   2.859
76296W        W44690  34.184  13.721  14.797
76297W        W44691  10.821  25.171  14.354
76298W        W44692  29.233   0.516   3.635
76299W        W44693   2.545  37.385  13.524
76300W        W44694  15.112  33.896  14.937
76301W        W44695   0.462  26.107  10.407
76302W        W44696  40.776  30.969   3.811
76303W        W44697  33.897  32.893   3.801
76304W        W44698   5.488  27.087   2.353
76305W        W44699  43.052  19.937  10.835
76306W        W44700  19.373  18.500  13.901
76307W        W44701  23.662  15.435   2.213
76308W        W44702  21.507  17.250  11.551
76309W        W44703  28.024   2.510  13.969
76310W        W44704  26.452  43.255  12.941
76311W        W44705   1.763  29.164  12.851
76312W        W44706  11.930  30.377  13.304
76313W        W44707  10.631   2.370   3.376
76314W        W44708  18.211  39.808  12.846
76315W        W44709   0.423  16.478  11.914
76316W        W44710   6.882  13.678   4.913
76317W        W44711  29.557  36.037   4.182
76318W        W44712  30.162  17.754  13.880
76319W        W44713  34.265  13.092   4.034
76320W        W44714  19.822  25.205  14.874
76321W        W44715  15.016   5.320   5.501
76322W        W44716  20.634  22.870  12.655
76323W        W44717   0.423  28.866  12.029
76324W        W44718  17.536  28.097  11.927
76325W        W44719   4.194   9.290  14.872
76326W        W44720  18.056  44.418   3.245
76327W        W44721  44.381  27.859   4.578
76328W        W44722  33.399  37.942  13.980
76329W        W44723  34.257  30.183   3.741
76330W        W44724  17.410  27.086   1.706
76331W        W44725   3.951  17.120   3.252
76332W        W44726  28.156  33.085  13.835
76333W        W44727  19.280   8.305  13.240
76334W        W44728  22.579  32.816   3.922
76335W        W44729  39.273  22.531   4.610
76336W        W44730  40.750  33.267   1.608
76337W        W44731   4.432   7.747   0.357
76338W        W44732   9.167  14.694   4.990
76339W        W44733  39.539  27.608   1.364
76340W        W44734   0.918   7.225   4.056
76341W        W44735   8.852   7.604   2.915
76342W        W44736  16.273  26.986   4.447
76343W        W44737  21.458  34.781  14.253
76344W        W44738  30.271   5.450   0.503
76345W        W44739   9.330   2.931  14.071
76346W        W44740   2.351  34.902   4.153
76347W        W44741   2.790  42.282   2.322
76348W        W44742  35.012   4.976   1.040
76349W        W44743   8.726  15.835   3.177
76350W        W44744  23.599  42.462   1.869
76351W        W44745  35.080  37.901   1.020
76352W        W44746  28.041  25.003  11.939
76353W        W44747  18.671  15.659   4.164
76354W        W44748  15.064  19.733  11.981
76355W        W44749   5.361   9.175  11.508
76356W        W44750   7.769  32.970   0.480
76357W        W44751  38.328  13.099   1.129
76358W        W44752  30.466  24.941   4.097
76359W        W44753  26.383  35.520  13.004
76360W        W44754  20.444  18.812  12.401
76361W        W44755  41.895  38.062  14.545
76362W        W44756  42.151  36.356  13.795
76363W        W44757  29.501  23.918  12.132
76364W        W44758  28.700  30.043  10.753
76365W        W44759  11.168   4.288   4.540
76366W        W44760  14.241   4.861   2.389
76367W        W44761  21.957  10.480   2.149
76368W        W44762  11.183  17.336   2.043
76369W        W44763  24.631  15.646  12.938
76370W        W44764   4.903  27.782  13.432
76371W        W44765   0.449  35.514  10.959
76372W        W44766  21.746  36.926   3.571
76373W        W44767  39.210  38.016   4.743
76374W        W44768  37.009  17.797   1.121
76375W        W44769  29.641  16.156   1.411
76376W        W44770  44.041  14.205   1.594
76377W        W44771  44.772  28.051  11.395
76378W        W44772  38.116  23.078   2.187
76379W        W44773   0.817  14.631   4.115
76380W        W44774  41.242  32.885   5.025
76381W        W44775  11.264   7.028   0.858
76382W        W44776   2.484  38.200  13.026
76383W        W44777   6.326   3.876  11.919
76384W        W44778  21.027  20.248   0.859
76385W        W44779  29.584  36.135  10.961
76386W        W44780  18.717   0.575  14.173
76387W        W44781  26.360   3.596   5.359
76388W        W44782   2.008  31.119   4.120
76389W        W44783  40.970  17.451  10.622
76390W        W44784   8.117  11.653   1.778
76391W        W44785  11.742  38.507  13.942
76392W        W44786  13.841   2.293   5.037
76393W        W44787   2.352   6.687   4.891
76394W        W44788  43.837  43.117   4.059
76395W        W44789  23.332  24.976  13.865
76396W        W44790  34.255  37.456   1.460
76397W        W44791   4.840  20.835   3.732
76398W        W44792  15.310  28.174  13.823
76399W        W44793  22.950   7.827   2.887
76400W        W44794  18.232  33.626   2.303
76401W        W44795  32.617  31.645  14.395
76402W        W44796  14.274  14.856  12.456
76403W        W44797  10.650  21.567  12.542
76404W        W44798  40.820   3.282  13.424
76405W        W44799  25.008  38.986  10.577
76406W        W44800  27.568  40.884   0.733
76407W        W44801  22.351  43.520  12.346
76408W        W44802  21.051  22.327   0.966
76409W        W44803   5.493  19.848  11.917
76410W        W44804   4.597  33.466   4.896
76411W        W44805  27.401  14.519   0.037
76412W        W44806  10.487  11.835  10.363
76413W        W44807  36.506  30.296  11.926
76414W        W44808  20.316  40.886   4.814
76415W        W44809   8.245  25.267  12.154
76416W        W44810  23.216  11.236   1.774
76417W        W44811  34.885  30.201  13.402
76418W        W44812  18.812  34.102   0.251
76419W        W44813   6.241  35.172  11.150
76420W        W44814  33.101  36.911  13.006
76421W        W44815  31.684   8.420   1.818
76422W        W44816  31.900   3.779   2.967
76423W        W44817  11.766  16.714  13.370
76424W        W44818   6.114  16.389  12.053
76425W        W44819   4.525  43.072   2.069
76426W        W44820  40.321  10.307  11.214
76427W        W44821   0.609  38.269  12.057
76428W        W44822  21.253  26.378   0.326
76429W        W44823  10.305  23.979  14.934
76430W        W44824  34.967  39.124   3.213
76431W        W44825  19.733  38.113  10.217
76432W        W44826  23.535  33.868   3.633
76433W        W44827  24.249   9.292   0.897
76434W        W44828  20.171  20.737   1.891
76435W        W44829  40.392   1.404   1.497
76436W        W44830  29.803  28.891   4.230
76437W        W44831  16.390  25.462  14.809
76438W        W44832  12.682  38.955   4.472
76439W        W44833   3.816  23.123  12.040
76440W        W44834  17.878  13.065   0.490
76441W        W44835   2.412  37.992   0.862
76442W        W44836  44.134  39.060   1.580
76443W        W44837  22.321   8.100   1.354
76444W        W44838  13.284  14.218   2.162
76445W        W44839  16.778  16.597  11.264
76446W        W44840  30.320  28.946  14.439
76447W        W44841  40.858   7.717   1.226
76448W        W44842  38.761  31.452   0.304
76449W        W44843  34.370   9.859   1.819
76450W        W44844  11.636  23.256  11.578
76451W        W44845  34.999  27.416   3.403
76452W        W44846  22.551  27.872   2.929
76453W        W44847  29.447  39.487   0.938
76454W        W44848   0.382  13.350   0.899
76455W        W44849  22.343   7.200  14.687
76456W        W44850   5.545   8.128  11.526
76457W        W44851  28.362  44.080   2.233
76458W        W44852  39.528  20.288  11.764
76459W        W44853   1.767  34.999  13.274
76460W        W44854  28.655  32.795  12.577
76461W        W44855  12.351   3.979   4.175
76462W        W44856  13.694   1.882  13.141
76463W        W44857   1.348   9.309   2.837
76464W        W44858  15.838   9.682   1.462
76465W        W44859  11.797  19.566  10.027
76466W        W44860  30.541  21.765   1.785
76467W        W44861  23.135  39.933  11.463
76468W        W44862  16.607  38.098  14.184
76469W        W44863  38.754  12.595   2.561
76470W        W44864  32.326  32.544  14.088
76471W        W44865  34.375  29.016  11.204
76472W        W44866  21.977  36.280  14.581
76473W        W44867   5.232  35.306  12.356
76474W        W44868  18.952  16.663   1.700
76475W        W44869  39.462  39.242  14.062
76476W        W44870  16.815   2.256   0.779
76477W        W44871  11.791   7.811   3.909
76478W        W44872  39.239   4.584   9.847
76479W        W44873  36.846  10.254   1.959
76480W        W44874  11.547  29.983   3.634
76481W        W44875  13.140  22.540  11.949
76482W        W44876   0.724  23.628   4.605
76483W        W44877  38.601   7.220  13.446
76484W        W44878  29.304   2.650   2.717
76485W        W44879  42.349  28.998   0.176
76486W        W44880  14.770  19.114  10.847
76487W        W44881  24.196   1.916   1.373
76488W        W44882  10.776  34.573  14.046
76489W        W44883  19.644  37.661  13.425
76490W        W44884  24.995  10.158  12.970
76491W        W44885  43.790   8.768  12.636
76492W        W44886  32.380   2.063  14.949
76493W        W44887  38.160  44.873  13.329
76494W        W44888  33.603  24.925  12.452
76495W        W44889   8.585  36.897  14.774
76496W        W44890  13.616  34.367   0.373
76497W        W44891   2.135   4.180  10.693
76498W        W44892  29.425   3.707  14.441
76499W        W44893   8.903  25.772  13.421
76500W        W44894   2.823  29.971  10.419
76501W        W44895  33.887  38.121   2.148
76502W        W44896  21.506  31.648  14.393
76503W        W44897   1.464   3.063  13.387
76504W        W44898  44.803  29.076   0.396
76505W        W44899  24.435   7.438   1.705
76506W        W44900  29.548   0.540  11.568
76507W        W44901   7.742   6.695   2.256
76508W        W44902   5.189   4.294  13.975
76509W        W44903  14.123   5.220  11.564
76510W        W44904   9.082   2.505  12.383
76511W        W44905  20.434   5.020  10.923
76512W        W44906  37.572  38.485  12.019
76513W        W44907  29.463   2.798   4.895
76514W        W44908  42.222  32.353   1.411
76515W        W44909   5.349  28.829  11.009
76516W        W44910   0.029  23.889   1.910
76517W        W44911   3.088  29.999   2.215
76518W        W44912  40.261   3.686  13.869
76519W        W44913  19.294   5.258   1.275
76520W        W44914  15.112  24.612   3.785
76521W        W44915  10.418  22.049   1.900
76522W        W44916  43.696  36.280   2.283
76523W        W44917   6.215  43.861   0.303
76524W        W44918   0.098  21.607  12.247
76525W        W44919  19.180  35.481   2.961
76526W        W44920  34.969  14.740   2.800
76527W        W44921  20.312  23.708  13.492
76528W        W44922  31.214   8.255  13.963
76529W        W44923  32.320  39.314   2.795
76530W        W44924  28.215  11.832  11.521
76531W        W44925   1.849  30.641   1.931
76532W        W44926   2.760  19.781   2.303
76533W        W44927  33.530  41.077  14.432
76534W        W44928  41.365  41.949  14.903
76535W        W44929  21.070  25.412   4.027
76536W        W44930  26.387  32.022   4.026
76537W        W44931  43.557  10.251   1.289
76538W        W44932  37.894   8.409   4.904
76539W        W44933   8.696  12.661  12.664
76540W        W44934  23.223  30.955   0.852
76541W        W44935   8.250  38.357   3.130
76542W        W44936  29.581  39.910  14.310
76543W        W44937  44.442  27.064   2.692
76544W        W44938  24.618   8.873   2.300
76545W        W44939  16.874  30.497  12.964
76546W        W44940  23.262  34.952   2.191
76547W        W44941  38.457  38.981  10.379
76548W        W44942  10.748  14.211   4.610
76549W        W44943  15.835  22.684  13.512
76550W        W44944  38.543  34.446  11.844
76551W        W44945  25.125   2.796   0.745
76552W        W44946  27.254   1.207  12.037
76553W        W44947  23.079  31.407  10.460
76554W        W44948   3.348  26.097   3.282
76555W        W44949  26.620   5.832   4.196
76556W        W44950  42.849  43.015   1.243
76557W        W44951  21.717  29.616  12.426
76558W        W44952  26.976  30.586  10.470
76559W        W44953  16.153  16.605  13.478
76560W        W44954  22.016  38.545  14.432
76561W        W44955  31.075   3.412  10.697
76562W        W44956  12.632  35.550   1.313
76563W        W44957   2.963  12.855  14.901
76564W        W44958   1.970  39.517   0.307
76565W        W44959  10.894  31.925   2.811
76566W        W44960  33.997   2.314   2.995
76567W        W44961  27.085  10.374  13.347
76568W        W44962  38.641  31.853   4.079
76569W        W44963  27.163  29.507   1.393
76570W        W44964  19.842   8.895   4.944
76571W        W44965  24.444  11.442   1.736
76572W        W44966  21.228  18.472   4.149
76573W        W44967  27.817  32.398   2.763
76574W        W44968  31.147   7.571  10.349
76575W        W44969  33.456  24.258   4.250
76576W        W44970   0.790  16.170  11.139
76577W        W44971  14.036  21.640  13.000
76578W        W44972  20.130  28.155  11.324
76579W        W44973  34.416  35.056  12.253
76580W        W44974  33.376   0.834  13.098
76581W        W44975   3.944  17.273  12.079
76582W        W44976  15.142  18.542  10.579
76583W        W44977  22.088  42.103   2.512
76584W        W44978   4.408   0.947  12.034
76585W        W44979  27.654  17.982  11.666
76586W        W44980  11.583   4.295   1.698
76587W        W44981  30.307  33.178  13.515
76588W        W44982   7.936  17.678  11.139
76589W        W44983   8.456   0.247  13.534
76590W        W44984  18.019   4.951  11.080
76591W        W44985  29.490   3.357   1.889
76592W        W44986  17.896  15.174  13.438
76593W        W44987  11.138  10.827  11.715
76594W        W44988  13.628  29.402   0.471
76595W        W44989  38.071  35.331  11.981
76596W        W44990  14.238  33.844   4.192
76597W        W44991  14.668  31.541   4.368
76598W        W44992  26.293  26.633   0.642
76599W        W44993  24.118  42.568   3.125
76600W        W44994   9.979  20.196   0.246
76601W        W44995  34.013  28.484  12.968
76602W        W44996  39.840  36.567   4.248
76603W        W44997  14.985  41.230   1.222
76604W        W44998  15.586  43.144   9.840
76605W        W44999  41.904  31.769   4.211
76606W        W45000  20.622  19.460  14.764
76607W        W45001   5.127   2.325   0.260
76608W        W45002  39.963  34.900  14.768
76609W        W45003  30.952  37.470   0.291
76610W        W45004  29.204  14.275  10.718
76611W        W45005  18.535  30.230   2.314
76612W        W45006   7.439  34.344   2.238
76613W        W45007  31.647  30.778   3.788
76614W        W45008  12.695  17.489   1.998
76615W        W45009  33.391  43.954  12.109
76616W        W45010  10.126  43.566  14.201
76617W        W45011  10.953  37.319   2.472
76618W        W45012  29.650  41.150   4.144
76619W        W45013  43.624  20.523  12.142
76620W        W45014  17.269  25.984   4.303
76621W        W45015  34.060  19.816   0.386
76622W        W45016   1.365   8.014   4.709
76623W        W45017  34.559  28.113   4.326
76624W        W45018  36.177  13.927  11.972
76625W        W45019   9.860  20.640  13.793
76626W        W45020  16.453  14.331  11.603
76627W        W45021  44.214  44.450  14.155
76628W        W45022   7.706  32.553  11.252
76629W        W45023   4.013  16.653   4.631
76630W        W45024   1.511   7.319  13.937
76631W        W45025  42.022  30.831  11.270
76632W        W45026  24.521   6.845  10.641
76633W        W45027  40.418  25.014  11.159
76634W        W45028  38.841  25.033   5.142
76635W        W45029  12.384  27.766  11.319
76636W        W45030  25.560  14.742  12.478
76637W        W45031  22.816  27.565  13.972
76638W        W45032   1.399  28.612  11.851
76639W        W45033   8.340  19.511   0.790
76640W        W45034  34.565  23.482  11.869
76641W        W45035  13.054  20.253  12.753
76642W        W45036  27.488   9.886   4.205
76643W        W45037  10.383   0.733  14.719
76644W        W45038  38.359  43.756   2.543
76645W        W45039  12.083   8.651   0.437
76646W        W45040  36.766   3.947  14.165
76647W        W45041   2.476  10.880   3.859
76648W        W45042  38.124  36.059  14.947
76649W        W45043  35.490  39.011  13.478
76650W        W45044  31.540  37.140   2.944
76651W        W45045   4.312  16.293  14.386
76652W        W45046  17.275  42.229   4.614
76653W        W45047  42.733  28.226  13.830
76654W        W45048   3.330  32.890  11.194
76655W        W45049  27.233   3.382  14.425
76656W        W45050  43.786  22.929  12.981
76657W        W45051  24.115   9.915   9.706
76658W        W45052  14.099   0.475   1.394
76659W        W45053  27.208  29.662   2.828
76660W        W45054  42.193  44.617  10.604
76661W        W45055  23.878  39.470  13.943
76662W        W45056  15.796  44.000  10.354
76663W        W45057  24.222  14.869   1.849
76664W        W45058  20.235  33.964   0.239
76665W        W45059  29.587   9.787   1.200
76666W        W45060  30.972  15.935  13.466
76667W        W45061  16.504  11.991   4.201
76668W        W45062  19.163  11.839  14.680
76669W        W45063   9.694  41.287  10.992
76670W        W45064   5.970  33.593  10.745
76671W        W45065  12.335  23.961  12.670
76672W        W45066  12.487  43.018  11.595
76673W        W45067  30.479  31.373  13.468
76674W        W45068   6.351  42.000  11.033
76675W        W45069   3.869   7.656   2.642
76676W        W45070  18.610  37.548  14.269
76677W        W45071  22.308  12.634  13.073
76678W        W45072  18.871  27.686  13.910
76679W        W45073  38.557  43.902   3.005
76680W        W45074  43.185   5.508   1.525
76681W        W45075  24.487  17.132   3.274
76682W        W45076  31.915  20.794   0.350
76683W        W45077  19.071  36.819   0.777
76684W        W45078  36.174  27.368   0.261
76685W        W45079  27.735   8.616   0.304
76686W        W45080  31.148  14.794   3.965
76687W        W45081   6.116  44.143   0.750
76688W        W45082  29.497  17.416  11.892
76689W        W45083   9.968  12.334   1.761
76690W        W45084  25.491   8.141  12.038
76691W        W45085  28.677   7.641  13.361
76692W        W45086  15.616  34.490   4.261
76693W        W45087  11.116  44.206  14.272
76694W        W45088   8.241  28.883  13.632
76695W        W45089   7.177  17.247   3.742
76696W        W45090  35.529   6.199   4.324
76697W        W45091  20.213  42.374  11.179
76698W        W45092  16.862  21.376   4.601
76699W        W45093   8.714  38.192   1.409
76700W        W45094  16.339  30.909   4.112
76701W        W45095  38.825   4.892  13.848
76702W        W45096  25.767  27.956  13.150
76703W        W45097   9.693  41.823   3.563
76704W        W45098  25.674  24.522  14.335
76705W        W45099  12.247  11.776   0.724
76706W        W45100  21.646  41.610  12.922
76707W        W45101  15.141   5.526   4.641
76708W        W45102  38.458   9.166   2.307
76709W        W45103  43.057  33.079  13.876
76710W        W45104  28.475   7.447  11.149
76711W        W45105  33.471  19.587  13.056
76712W        W45106  26.489  12.248  14.778
76713W        W45107  17.338  25.535  14.256
76714W        W45108  39.561  19.792  12.112
76715W        W45109  19.279  22.025  14.529
76716W        W45110  33.233  25.898  10.663
76717W        W45111  19.060  31.961  10.219
76718W        W45112  21.425  35.092  10.655
76719W        W45113  24.072  29.723   4.262
76720W        W45114   1.431   9.168   0.274
76721W        W45115  15.661  42.452  13.844
76722W        W45116   6.904  22.621   1.804
76723W        W45117  29.169  13.452  12.876
76724W        W45118  22.848  42.917  14.865
76725W        W45119   0.951   1.949   1.953
76726W        W45120   8.420  33.925  12.626
76727W        W45121  31.477  38.408   1.002
76728W        W45122   1.702   6.911  11.774
76729W        W45123  25.970  16.459   4.036
76730W        W45124   3.141  37.769  10.323
76731W        W45125  33.050  43.418  11.091
76732W        W45126  17.812  24.735  10.042
76733W        W45127  40.907  10.466   2.800
76734W        W45128  26.654  23.221   0.078
76735W        W45129  35.201  20.625   1.983
76736W        W45130  38.974  14.186   4.890
76737W        W45131  29.900   1.829   1.724
76738W        W45132  14.329   8.744  13.551
76739W        W45133  37.642   6.892   3.674
76740W        W45134   3.420  22.119  10.151
76741W        W45135  31.018  26.559  11.037
76742W        W45136  26.068  23.415  13.716
76743W        W45137  33.883  17.623  11.714
76744W        W45138  15.762  40.074  12.714
76745W        W45139  42.366  15.775  13.358
76746W        W45140   4.490  19.908   4.747
76747W        W45141  12.257   6.396  13.953
76748W        W45142  40.087  44.239  14.051
76749W        W45143  26.657  30.904  12.995
76750W        W45144  26.689  40.345  12.582
76751W        W45145  35.875  27.462  14.354
76752W        W45146   6.728  15.044  13.845
76753W        W45147  15.719  28.005  13.517
76754W        W45148   0.734  24.260  11.929
76755W        W45149  36.999  34.317  13.966
76756W        W45150  31.209  14.014   4.116
76757W        W45151   9.305  15.551   1.314
76758W        W45152  17.534  13.726   4.128
76759W        W45153   9.038  26.777  14.913
76760W        W45154  11.276  33.152  13.380
76761W        W45155  33.932  14.807   2.860
76762W        W45156  17.568  33.905  11.929
76763W        W45157   7.611   6.263   1.010
76764W        W45158   2.182   4.522   1.947
76765W        W45159  14.265  13.860   3.845
76766W        W45160  14.167  25.931   2.928
76767W        W45161  10.183  13.942   1.900
76768W        W45162  21.180  24.604   3.540
76769W        W45163  31.941  41.457   1.920
76770W        W45164  33.498  32.131  14.837
76771W        W45165  41.070  44.803   0.334
76772W        W45166   4.459  27.877   2.621
76773W        W45167  35.834   3.408   2.915
76774W        W45168   3.445  15.325  13.373
76775W        W45169  17.940  14.584  12.714
76776W        W45170   3.962  16.180   3.373
76777W        W45171  23.149  37.684   2.730
76778W        W45172  43.298   8.377  11.083
76779W        W45173  30.433  37.432   0.432
76780W        W45174  21.020  19.690  13.220
76781W        W45175  29.135  33.567   1.775
76782W        W45176  28.892  25.052   1.881
76783W        W45177   4.870  12.740   3.722
76784W        W45178  20.518  26.755   1.390
76785W        W45179  14.688   5.460   2.166
76786W        W45180  26.731  26.452  13.754
76787W        W45181  32.223  41.095  12.984
76788W        W45182   6.208  37.811   0.780
76789W        W45183  37.998  18.593   1.940
76790W        W45184  21.307  18.006  14.385
76791W        W45185  17.710   2.114  13.483
76792W        W45186  18.338  40.569   3.184
76793W        W45187   8.689  42.910  13.034
76794W        W45188  44.375   9.372   3.205
76795W        W45189  20.356  38.576   1.363
76796W        W45190  37.950  21.292  14.029
76797W        W45191  26.124   5.427  10.695
76798W        W45192  24.169  41.244  14.295
76799W        W45193  43.432  23.822  13.555
76800W        W45194  17.570  35.359  12.568
76801W        W45195  39.082  42.294   4.482
76802W        W45196  10.158  26.180  12.595
76803W        W45197   5.690  43.363  12.528
76804W        W45198  16.875   0.731  12.111
76805W        W45199   4.770   5.764  12.134
76806W        W45200  27.394  38.185  14.905
76807W        W45201  18.061  24.690  11.622
76808W        W45202  42.933  33.934  14.311
76809W        W45203  40.280  40.211  11.110
76810W        W45204  38.316  25.362  10.841
76811W        W45205   1.742  39.616   0.750
76812W        W45206   7.626  44.762   3.692
76813W        W45207   2.784   5.705   2.104
76814W        W45208  10.131  20.063   2.192
76815W        W45209  15.150   6.287  13.338
76816W        W45210   3.331   7.773  13.767
76817W        W45211   2.736   1.897   1.386
76818W        W45212  10.516  38.272   1.223
76819W        W45213  34.947  42.977   4.130
76820W        W45214   6.773  18.501   4.293
76821W        W45215  42.398  38.471   5.106
76822W        W45216   7.904  30.009   2.650
76823W        W45217   0.470  23.272   1.283
76824W        W45218  44.252  37.276  12.848
76825W        W45219  10.576   9.451  13.257
76826W        W45220  18.742  31.532   2.921
76827W        W45221   0.783  26.885  11.179
76828W        W45222   0.302  36.065  11.626
76829W        W45223  40.743  24.594   2.365
76830W        W45224   9.050  44.754   1.676
76831W        W45225  42.077   5.888   9.834
76832W        W45226  10.795  26.474  11.019
76833W        W45227   5.755  15.852  13.417
76834W        W45228  20.119   4.845   0.795
76835W        W45229  44.677  40.951   1.771
76836W        W45230  38.598  18.654   2.849
76837W        W45231  33.893   1.832  12.092
76838W        W45232  14.840  18.679  12.592
76839W        W45233   4.683   2.847  13.405
76840W        W45234  32.054  23.337   0.065
76841W        W45235  36.128  14.150  13.046
76842W        W45236  31.986  39.828  10.502
76843W        W45237  18.246  29.941  13.778
76844W        W45238   2.817  15.178   0.162
76845W        W45239   0.746  41.660   4.029
76846W        W45240  12.346  28.789   2.306
76847W        W45241  21.302  44.433  12.230
76848W        W45242  10.351  25.222   3.272
76849W        W45243  22.147  35.755  11.586
76850W        W45244   5.923  32.888   1.324
76851W        W45245  19.659  38.593   4.131
76852W        W45246   9.291   5.137   4.563
76853W        W45247   7.265  43.801  11.994
76854W        W45248  18.859   0.861   1.025
76855W        W45249  15.150  18.221   4.610
76856W        W45250  17.772  18.290  12.596
76857W        W45251  44.052  13.377  14.842
76858W        W45252  25.299  10.661  13.770
76859W        W45253  41.032  24.991   4.209
76860W        W45254  31.441   1.241   1.893
76861W        W45255  33.959  14.211  11.904
76862W        W45256   1.504  26.334  10.972
76863W        W45257  42.471   3.285   0.012
76864W        W45258  20.343  33.398  11.630
76865W        W45259  43.457  42.353   1.162
76866W        W45260  15.137  29.623   2.110
76867W        W45261  27.585  24.972   0.428
76868W        W45262  32.885  33.542   1.392
76869W        W45263   7.108  11.749   2.646
76870W        W45264   0.965  42.488   4.395
76871W        W45265   8.883  41.826  14.929
76872W        W45266   6.794  15.039   4.717
76873W        W45267  43.013  35.911  11.960
76874W        W45268  17.742  37.060  14.870
76875W        W45269  26.653  44.781  13.717
76876W        W45270  36.702   9.314  13.535
76877W        W45271  12.142  28.504   3.227
76878W        W45272  14.745  10.938   3.061
76879W        W45273  28.996  13.296  11.629
76880W        W45274  42.339  12.096   3.190
76881W        W45275  15.568  43.917   3.956
76882W        W45276  27.520  20.213  10.777
76883W        W45277   4.614  32.460   2.472
76884W        W45278  43.865  33.298   1.840
76885W        W45279  23.757  10.713   2.041
76886W        W45280   2.411  28.079  10.688
76887W        W45281  32.847  11.777   3.695
76888W        W45282   4.880  31.140  11.648
76889W        W45283  19.236   1.789   3.668
76890W        W45284   5.260  38.500   1.461
76891W        W45285  17.118   1.738  13.024
76892W        W45286  42.877  41.493  11.136
76893W        W45287  39.521  36.543  13.012
76894W        W45288  22.617  32.452  10.211
76895W        W45289   1.859  44.522   1.258
76896W        W45290  23.256  27.556   4.407
76897W        W45291  14.811  18.831   0.430
76898W        W45292  40.165   0.321  13.993
76899W        W45293  18.795   8.818   2.640
76900W        W45294   4.709   8.139   1.789
76901W        W45295  39.863  30.910  12.927
76902W        W45296  22.742  35.412   1.355
76903W        W45297  32.637  21.903   3.938
76904W        W45298  22.881   5.897   5.000
76905W        W45299  15.199   4.948   2.531
76906W        W45300  13.157  37.014  14.288
76907W        W45301  36.863  23.444  11.134
76908W        W45302  15.544  17.703   2.785
76909W        W45303   4.365  20.712  13.953
76910W        W45304   3.817  15.282  10.245
76911W        W45305  43.399  16.230   0.700
76912W        W45306  19.983  30.628   2.311
76913W        W45307  24.542  42.189   4.479
76914W        W45308  35.821  32.350   2.352
76915W        W45309  30.609  43.746   1.809
76916W        W45310  32.806  37.499   0.142
76917W        W45311  20.068   5.247   1.755
76918W        W45312  29.036  15.812  10.754
76919W        W45313  11.207   9.597  14.713
76920W        W45314  18.627   3.965  11.892
76921W        W45315   1.001  25.053   4.428
76922W        W45316  16.926  31.500  14.000
76923W        W45317   9.002  27.120   5.433
76924W        W45318   6.454  14.268  13.859
76925W        W45319  34.603   1.388   4.542
76926W        W45320  11.855   5.046   4.731
76927W        W45321  17.824   7.205  13.322
76928W        W45322  21.211  13.156  11.561
76929W        W45323   8.349  34.163   0.909
76930W        W45324  20.507  23.621  12.069
76931W        W45325  18.682   5.851  10.838
76932W        W45326  20.078   2.800   2.235
76933W        W45327  26.507   0.772  11.847
76934W        W45328  42.491   3.419  12.968
76935W        W45329   5.246  16.508  13.826
76936W        W45330   0.320   1.787   3.502
76937W        W45331  14.670   3.014   2.592
76938W        W45332  15.687  34.563  11.710
76939W        W45333  28.726   0.108  11.208
76940W        W45334   9.248  35.980   1.216
76941W        W45335   5.946  22.159   2.789
76942W        W45336  25.257  31.521   0.361
76943W        W45337  23.480   8.246  12.582
76944W        W45338  44.844  35.951   4.981
76945W        W45339  26.458  12.505  12.589
76946W        W45340   2.733  30.197   3.162
76947W        W45341  29.154  11.848   2.702
76948W        W45342   9.574  21.094  11.102
76949W        W45343  22.496  40.470   0.189
76950W        W45344   9.097  26.110   0.941
76951W        W45345  28.695  13.345   0.420
76952W        W45346  15.037  22.708  12.837
76953W        W45347  38.542  37.841  12.438
76954W        W45348  25.982  10.819  13.401
76955W        W45349  29.736  11.957  13.334
76956W        W45350  30.489   1.926  13.895
76957W        W45351  15.142   1.110  11.648
76958W        W45352   6.906  14.007   4.436
76959W        W45353  43.718   3.192   3.130
76960W        W45354  41.935  19.597  12.885
76961W        W45355  25.163   4.735   3.768
76962W        W45356  15.739   7.839  12.050
76963W        W45357   2.328  34.890   2.765
76964W        W45358  19.072  31.163  11.686
76965W        W45359  36.262  18.930   0.250
76966W        W45360  12.864  11.690   2.688
76967W        W45361  31.634  22.077  12.952
76968W        W45362   0.797  38.046  13.378
76969W        W45363   0.724  39.566   0.791
76970W        W45364  14.769  41.607  10.666
76971W        W45365  28.673  36.371  13.556
76972W        W45366  24.027  24.092   3.042
76973W        W45367   0.447   9.742   4.752
76974W        W45368   4.375  33.376  12.885
76975W        W45369  19.218  15.284   3.188
76976W        W45370   0.627  44.457  14.053
76977W        W45371  30.389   9.182   2.332
76978W        W45372  30.439  35.235   3.436
76979W        W45373  23.153  24.538  13.669
76980W        W45374  41.391  11.175   2.713
76981W        W45375  44.463  12.356  10.511
76982W        W45376  14.629  39.765  11.153
76983W        W45377   3.237   2.813  13.431
76984W        W45378   4.751  16.525   9.854
76985W        W45379   8.668  43.912   4.389
76986W        W45380  13.205  16.693   0.601
76987W        W45381  31.986  41.769   0.053
76988W        W45382   1.754  42.093   2.324
76989W        W45383  34.972   4.508  14.714
76990W        W45384  21.003  41.833  13.895
76991W        W45385   5.006  34.600  11.699
76992W        W45386  36.101  18.551   1.543
76993W        W45387  44.587  32.019   4.098
76994W        W45388  14.703  14.598  12.610
76995W        W45389   3.264   6.242  12.936
76996W        W45390   4.043   8.323  12.605
76997W        W45391  17.520   1.300  13.794
76998W        W45392  10.666   2.336   0.240
76999W        W45393  22.055  41.789  12.343
77000W        W45394   0.565  25.527  12.462
77001W        W45395  42.036   7.765  12.463
77002W        W45396   0.830  43.184   1.970
77003W        W45397  12.739   6.159   0.428
77004W        W45398   7.069   3.411   2.376
77005W        W45399  42.258  20.095   2.498
77006W        W45400  26.511  10.228   3.228
77007W        W45401  28.141   6.896   1.232
77008W        W45402  12.891  24.084  12.272
77009W        W45403  36.086   9.686   2.900
77010W        W45404  43.494  24.285  14.849
77011W        W45405   5.737  26.475   3.599
77012W        W45406  31.306  34.858  12.025
77013W        W45407  42.841  34.368   0.446
77014W        W45408  15.626  41.310  11.278
77015W        W45409  26.626  16.550  13.828
77016W        W45410  41.925   0.034  10.763
77017W        W45411  36.971   6.450   1.611
77018W        W45412   3.913   0.489   4.113
77019W        W45413   7.191  32.495  13.390
77020W        W45414   4.822  24.119   3.804
77021W        W45415  31.190  18.020   0.393
77022W        W45416  14.754   7.183  11.522
77023W        W45417  26.598   7.955   2.916
77024W        W45418  40.443  12.697  10.801
77025W        W45419  27.009   9.829  13.542
77026W        W45420  37.332  21.032   5.020
77027W        W45421  29.858   7.296   4.173
77028W        W45422   8.623   8.697  14.077
77029W        W45423   3.466   1.726  13.462
77030W        W45424   5.118  32.890   0.825
77031W        W45425  27.420   2.325   3.887
77032W        W45426  42.682  14.497  13.090
77033W        W45427  36.470   5.842  11.555
77034W        W45428  17.147  28.016  10.640
77035W        W45429  29.023  29.467  14.430
77036W        W45430  12.186  34.527  12.888
77037W        W45431   9.190   0.800  14.915
77038W        W45432  26.088  24.780  11.303
77039W        W45433  30.980  33.820  14.810
77040W        W45434  17.213  42.261  14.316
77041W        W45435  32.825  21.966   0.396
77042W        W45436   2.630  22.523  13.143
77043W        W45437  11.635  34.175   1.809
77044W        W45438  18.074  25.910   2.173
77045W        W45439  34.194  12.950  13.890
77046W        W45440  24.205  10.388   3.642
77047W        W45441   5.666  31.469   3.180
77048W        W45442  40.700  32.923  11.934
77049W        W45443  19.461   3.338  14.332
77050W        W45444   2.408  36.150   4.149
77051W        W45445   4.763  20.964   2.202
77052W        W45446  20.762  23.201  12.245
77053W        W45447  27.625   1.466  14.199
77054W        W45448  34.260  20.278  12.203
77055W        W45449   0.110   0.362   2.627
77056W        W45450  29.199  17.799   3.204
77057W        W45451  18.250  16.116  13.602
77058W        W45452  10.650  33.541   1.150
77059W        W45453  39.368  19.171   0.885
77060W        W45454   7.373  15.223   4.259
77061W        W45455   3.757  11.626  13.789
77062W        W45456   5.312  25.471  13.360
77063W        W45457   5.332  31.880  11.971
77064W        W45458  16.254  41.036   1.631
77065W        W45459  36.307   4.352   1.296
77066W        W45460  37.834  20.466   0.220
77067W        W45461  44.363  11.879   0.385
77068W        W45462  17.650  40.737  10.729
77069W        W45463  40.111  19.107  12.123
77070W        W45464   3.971   4.029   0.708
77071W        W45465  17.295  25.595  14.753
77072W        W45466  40.521  21.332  14.767
77073W        W45467   8.983  23.123  10.304
77074W        W45468  21.982  39.547   2.628
77075W        W45469  32.479  37.813  14.026
77076W        W45470  37.413   6.164   3.824
77077W        W45471   1.759  43.442  14.344
77078W        W45472  10.641  25.446  11.953
77079W        W45473  12.740  30.572  13.992
77080W        W45474  44.289  13.145  13.933
77081W        W45475  37.230   7.791  11.149
77082W        W45476  32.965  13.183   4.124
77083W        W45477  16.410  36.609  10.827
77084W        W45478  27.690  21.202  12.833
77085W        W45479  39.002   4.732  13.367
77086W        W45480  27.889  24.905   4.539
77087W        W45481  36.616  21.178  10.761
77088W        W45482   7.517  29.930  12.082
77089W        W45483  15.510  31.065  13.048
77090W        W45484  23.264   7.516  11.571
77091W        W45485  28.086  25.215   1.326
77092W        W45486  44.335  41.330  10.238
77093W        W45487  42.360   4.895   3.614
77094W        W45488  31.166  32.662   2.875
77095W        W45489   5.723  38.772  10.946
77096W        W45490   3.445   2.388   0.293
77097W        W45491  21.226  16.193  11.993
77098W        W45492   6.680   0.035   3.310
77099W        W45493  17.811  15.167  10.650
77100W        W45494  41.431   8.218  11.154
77101W        W45495  42.768  33.688   4.594
77102W        W45496  27.147   0.410  11.229
77103W        W45497  41.755   7.551   3.162
77104W        W45498  36.507   4.705   3.141
77105W        W45499  24.158  19.298  11.541
77106W        W45500   0.857  20.012  14.384
77107W        W45501   5.522   7.852   4.126
77108W        W45502   7.803   7.372  14.741
77109W        W45503  36.970  34.392   2.627
77110W        W45504  14.240   9.449  13.764
77111W        W45505   7.410  37.612   1.587
77112W        W45506   1.292   2.287  13.002
77113W        W45507  16.559  27.378   2.781
77114W        W45508   4.685  22.170  12.566
77115W        W45509  33.793  42.043   3.661
77116W        W45510  44.273  29.777   0.480
77117W        W45511  22.730  42.293   4.808
77118W        W45512  24.678  27.667   4.769
77119W        W45513  33.466   0.896  12.091
77120W        W45514  44.216  10.332   2.373
77121W        W45515  14.901  12.793   2.138
77122W        W45516  40.250   0.780  12.357
77123W        W45517  40.439  23.356  11.369
77124W        W45518   2.066  34.316   0.249
77125W        W45519  44.734   8.693   4.944
77126W        W45520  44.451  35.085  11.729
77127W        W45521   3.134  17.575  11.138
77128W        W45522  26.087  30.797  12.831
77129W        W45523   1.860  44.674  14.383
77130W        W45524  13.570  24.481  14.311
77131W        W45525  42.979  36.107   0.847
77132W        W45526  16.591  14.341   4.014
77133W        W45527   4.175  42.679  12.220
77134W        W45528  43.523   6.208  14.793
77135W        W45529  24.249   2.137  13.947
77136W        W45530  29.043   5.216  13.513
77137W        W45531  36.550   3.193   3.726
77138W        W45532  39.373  28.830   2.509
77139W        W45533   1.546  27.961  14.920
77140W        W45534  23.384   2.153   1.679
77141W        W45535  37.643  41.951   0.272
77142W        W45536  26.406  33.418   0.887
77143W        W45537  24.440  12.150   3.289
77144W        W45538   3.601  29.142   0.830
77145W        W45539   5.203  31.469   2.899
77146W        W45540  22.445  30.406   1.762
77147W        W45541  34.484  25.993   4.270
77148W        W45542   3.304   6.669   1.126
77149W        W45543  34.288  21.908  12.536
77150W        W45544  20.213  40.968   3.185
77151W        W45545  16.679  14.336   2.664
77152W        W45546  19.615  16.600  10.730
77153W        W45547  38.361  20.179  14.279
77154W        W45548  37.800  33.979  11.970
77155W        W45549  22.721  10.676  11.071
77156W        W45550  12.415  32.177  12.141
77157W        W45551  23.656  15.591  10.893
77158W        W45552  20.288  44.817  14.949
77159W        W45553  36.786  24.722  12.979
77160W        W45554   8.589  22.585   0.489
77161W        W45555  44.355  17.879   4.435
77162W        W45556  37.091  44.462   3.851
77163W        W45557   3.210   1.030  11.427
77164W        W45558   7.867  34.239   0.762
77165W        W45559  20.806   6.268  12.116
77166W        W45560  42.803  42.430   3.733
77167W        W45561  37.695  24.150   1.007
77168W        W45562  42.996  21.694   3.025
77169W        W45563  13.642  29.159  13.488
77170W        W45564  25.356  33.164   3.173
77171W        W45565  27.153  39.617  11.643
77172W        W45566  36.981  16.411  13.420
77173W        W45567  39.795  24.574  12.089
77174W        W45568  33.411  25.000  10.555
77175W        W45569   7.204  44.071   1.311
77176W        W45570  33.154  34.127   2.288
77177W        W45571   5.859   5.325   2.734
77178W        W45572  26.206  11.285  12.074
77179W        W45573  12.302  14.832   2.908
77180W        W45574  31.057  26.122  10.711
77181W        W45575  26.171  36.669  13.575
77182W        W45576  33.997  23.723  12.550
77183W        W45577   9.659  35.493  11.978
77184W        W45578  18.843   7.534   1.865
77185W        W45579  31.815   7.216   4.116
77186W        W45580   3.237  30.020  10.752
77187W        W45581  34.545   0.944   0.513
77188W        W45582  34.633  23.032  12.120
77189W        W45583  14.504  18.692   0.023
77190W        W45584  34.935   4.431   3.194
77191W        W45585  18.337  33.683  11.733
77192W        W45586  43.794  30.394  14.249
77193W        W45587  38.308  34.290  14.407
77194W        W45588  19.911   1.763  12.504
77195W        W45589  30.626  31.992  11.980
77196W        W45590   6.121  13.059   1.286
77197W        W45591   2.795  26.177  14.848
77198W        W45592  33.173  41.228   1.955
77199W        W45593  11.528   5.245   4.376
77200W        W45594  26.996  29.714  14.315
77201W        W45595   7.157  22.869  13.760
77202W        W45596  26.912  21.674  12.535
77203W        W45597  16.085   5.909   4.436
77204W        W45598  40.938  40.775  13.041
77205W        W45599  42.322  27.014  14.491
77206W        W45600  42.776  32.511  13.115
77207W        W45601  18.186  41.034  14.991
77208W        W45602  44.244   9.739   0.389
77209W        W45603  20.224  26.562  13.729
77210W        W45604  26.372   6.677   4.937
77211W        W45605  38.637  11.298  13.079
77212W        W45606  22.470  39.578  14.452
77213W        W45607  28.076   0.041   0.469
77214W        W45608  35.657  11.943   2.880
77215W        W45609  13.695   4.415   4.763
77216W        W45610  15.758   5.369   4.935
77217W        W45611  44.638  28.340  14.411
77218W        W45612  10.838  15.514  14.523
77219W        W45613   6.769  24.773   3.523
77220W        W45614   0.705  25.092   1.872
77221W        W45615   3.294  30.171   1.714
77222W        W45616   1.694  37.987  11.471
77223W        W45617  29.079  36.171   3.937
77224W        W45618  35.965  26.602  10.295
77225W        W45619   0.275  11.331   3.873
77226W        W45620  30.968  41.521  12.009
77227W        W45621  30.504  37.629  12.780
77228W        W45622   8.229  22.366   1.284
77229W        W45623   5.608   9.078   2.628
77230W        W45624  30.222  37.276   1.289
77231W        W45625  24.543  36.050  13.286
77232W        W45626  36.782  39.062  12.964
77233W        W45627  27.090   9.975  11.608
77234W        W45628  22.640  27.103  13.757
77235W        W45629  14.413  10.743   3.422
77236W        W45630  11.608   5.698   4.089
77237W        W45631  31.486  44.788  14.813
77238W        W45632  40.786  12.637   4.577
77239W        W45633  41.433  24.356  13.824
77240W        W45634   6.713  23.461   1.790
77241W        W45635  19.706  21.810  12.249
77242W        W45636  12.693  12.274  12.462
77243W        W45637  10.574  32.096   2.392
77244W        W45638   6.263   6.272   4.577
77245W        W45639  16.660  11.082   1.906
77246W        W45640   2.056  21.984  10.683
77247W        W45641   4.576  37.898   1.787
77248W        W45642  12.859  29.591   0.788
77249W        W45643  31.764  35.165  14.465
77250W        W45644  41.999  24.392   3.676
77251W        W45645  22.077  10.737   4.513
77252W        W45646  23.744  12.120   1.634
77253W        W45647  10.306  17.147   4.551
77254W        W45648  39.382  15.103  14.436
77255W        W45649  32.527  21.202  12.604
77256W        W45650  12.253  30.717  13.660
77257W        W45651  10.955  26.903  10.728
77258W        W45652  19.928  36.984   0.404
77259W        W45653  17.305  14.671   1.786
77260W        W45654   2.910  24.921  11.476
77261W        W45655  24.441  22.904  11.972
77262W        W45656  10.178  25.339  11.522
77263W        W45657   5.958  21.994  14.911
77264W        W45658  20.184  17.157  10.193
77265W        W45659  43.993  42.714   1.859
77266W        W45660   7.777  44.718  12.839
77267W        W45661  39.185  14.578   9.975
77268W        W45662  39.985  11.563   4.127
77269W        W45663  37.799  35.475   1.199
77270W        W45664   2.003  14.746   2.174
77271W        W45665  34.017  29.513   3.611
77272W        W45666  44.951  20.923   0.416
77273W        W45667  21.013  15.632   1.633
77274W        W45668  15.138  26.296  11.573
77275W        W45669   3.073  37.096   3.621
77276W        W45670   7.917   3.116  10.650
77277W        W45671  19.363   6.744   3.789
77278W        W45672  15.080   2.359  11.279
77279W        W45673  33.373  39.817   4.221
77280W        W45674  34.141   4.295   2.776
77281W        W45675  31.150  31.985  12.002
77282W        W45676  20.792   7.619   3.234
77283W        W45677  10.456  36.014  12.956
77284W        W45678  35.612  23.003   1.787
77285W        W45679  26.953   0.475  13.370
77286W        W45680   4.795   1.058  10.777
77287W        W45681  38.171  20.250  12.557
77288W        W45682   6.200  13.913   0.264
77289W        W45683  32.849  26.979   2.398
77290W        W45684   1.554  17.892   1.276
77291W        W45685   3.504  34.504  11.616
77292W        W45686   2.550   5.228   3.225
77293W        W45687  39.274  16.465  11.104
77294W        W45688  44.604   4.342  11.060
77295W        W45689  10.755  36.423  12.106
77296W        W45690   9.457  18.995  13.390
77297W        W45691  35.545  31.910   3.672
77298W        W45692  40.586  29.366   3.578
77299W        W45693   4.442  15.276   1.316
77300W        W45694  11.159  41.578  10.592
77301W        W45695   4.394  16.034   9.963
77302W        W45696   1.818   1.715  14.624
77303W        W45697  31.643  35.503  14.838
77304W        W45698  26.390   0.509   0.473
77305W        W45699   8.943  27.235   4.411
77306W        W45700  24.546  43.987   2.708
77307W        W45701  41.832  27.145   2.859
77308W        W45702  42.995  43.069   0.396
77309W        W45703  35.396  41.561  13.638
77310W        W45704  18.634  32.502   0.644
77311W        W45705  33.625  17.727   2.653
77312W        W45706  10.238  16.733  10.955
77313W        W45707  29.221   7.737  11.462
77314W        W45708  13.125  23.272   1.233
77315W        W45709  26.080   0.819  13.290
77316W        W45710  25.437  22.609   3.141
77317W        W45711   2.706   9.852   0.289
77318W        W45712   8.239  36.346   0.700
77319W        W45713   6.429  17.292   0.898
77320W        W45714  41.445  14.355  14.029
77321W        W45715  13.384  29.533   3.569
77322W        W45716  27.148  30.201   4.074
77323W        W45717  17.724   4.281  13.841
77324W        W45718   8.353  37.679   1.309
77325W        W45719  12.552  26.659  12.475
77326W        W45720  17.599  41.303   3.622
77327W        W45721  32.190  32.449  12.431
77328W        W45722  24.671  37.844   1.814
77329W        W45723  37.958  14.600  11.926
77330W        W45724  16.546  19.605  10.530
77331W        W45725  42.962   7.366  12.149
77332W        W45726  34.330  39.256   2.898
77333W        W45727   0.465  18.542  11.197
77334W        W45728  31.027   4.311  10.785
77335W        W45729  32.337  33.431   4.997
77336W        W45730  15.007   9.701   1.833
77337W        W45731  23.477  15.759  14.797
77338W        W45732   7.012  17.217   1.822
77339W        W45733   7.822  14.705  14.436
77340W        W45734   1.668  26.830  11.118
77341W        W45735  20.209  32.428   2.225
77342W        W45736  10.609  38.392  14.933
77343W        W45737  27.735  14.776  11.910
77344W        W45738  20.970  42.702   4.574
77345W        W45739   8.701  11.476   2.380
77346W        W45740  26.102   5.116   2.654
77347W        W45741   9.490  42.589   2.967
77348W        W45742  21.167   3.378   3.745
77349W        W45743  29.075  32.052  12.945
77350W        W45744  21.048  22.041  12.109
77351W        W45745  16.144  16.792   1.815
77352W        W45746  17.611  42.314  12.869
77353W        W45747  15.247   6.091   3.291
77354W        W45748  17.610  32.319   3.723
77355W        W45749  37.395   0.193  12.177
77356W        W45750  15.349  19.782   0.828
77357W        W45751  35.575  18.357   4.581
77358W        W45752  25.971  42.818  14.837
77359W        W45753  44.406  22.724   4.521
77360W        W45754  20.129  15.124  12.171
77361W        W45755  26.385  26.433  12.785
77362W        W45756  26.245  17.229   0.295
77363W        W45757  14.294  14.200   2.199
77364W        W45758  10.098  20.176   0.805
77365W        W45759  14.787  34.972  12.184
77366W        W45760   0.143  16.973  13.899
77367W        W45761   4.403  39.191  10.380
77368W        W45762  18.684  25.995  14.386
77369W        W45763  39.374  25.209  11.028
77370W        W45764  24.647  25.958  12.690
77371W        W45765  38.033   5.774   0.592
77372W        W45766  28.308  19.729  14.925
77373W        W45767  32.445   9.820  12.276
77374W        W45768   9.402   7.369   3.633
77375W        W45769  16.480  41.262  14.786
77376W        W45770  38.074   3.834   3.520
77377W        W45771  12.515  40.546  12.967
77378W        W45772  14.429  23.038   2.262
77379W        W45773  26.091  11.604   2.775
77380W        W45774  27.025  11.151   9.926
77381W        W45775  25.968   1.291   2.648
77382W        W45776  29.964  15.681   3.874
77383W        W45777  22.816  14.707  12.516
77384W        W45778  41.998   2.744  14.283
77385W        W45779   9.398  11.800  13.835
77386W        W45780  12.788  15.894  13.824
77387W        W45781  30.637  15.490   1.929
77388W        W45782  43.980  15.614  11.491
77389W        W45783  41.301  24.583   3.224
77390W        W45784  24.553  41.198  12.193
77391W        W45785   5.264  24.747   0.402
77392W        W45786  26.429   7.006  11.909
77393W        W45787   4.306  35.053  12.496
77394W        W45788  36.544  38.181   0.706
77395W        W45789  44.462   9.335  10.639
77396W        W45790  13.980  18.117   1.786
77397W        W45791  28.426   3.696  13.592
77398W        W45792  34.511  25.139  12.552
77399W        W45793   5.904   3.384  12.400
77400W        W45794   6.242  42.946   3.924
77401W        W45795  14.234  33.385   3.990
77402W        W45796  29.672  13.585   1.181
77403W        W45797  42.953  13.239   5.161
77404W        W45798  35.790  11.651  14.275
77405W        W45799   7.954  34.676   4.616
77406W        W45800  44.459   5.774  12.848
77407W        W45801  41.990   6.980  12.150
77408W        W45802   3.313  11.918  13.890
77409W        W45803  15.592  27.590  12.519
77410W        W45804  42.013  35.540  13.144
77411W        W45805  38.294   8.222  14.117
77412W        W45806   9.872  39.520  10.689
77413W        W45807  26.806  37.479  11.526
77414W        W45808  23.098   3.450   1.888
77415W        W45809  14.530  32.133   4.693
77416W        W45810  12.629  24.607   1.374
77417W        W45811   9.109  25.269  10.465
77418W        W45812  14.850  28.891   2.696
77419W        W45813   2.356  38.540   0.818
77420W        W45814   9.623   0.532   3.309
77421W        W45815   7.258  36.099  14.320
77422W        W45816  26.297  32.513  12.504
77423W        W45817   4.658  12.597  14.266
77424W        W45818  34.378  36.942   1.366
77425W        W45819  17.074   0.361   3.705
77426W        W45820  17.009  10.633  11.485
77427W        W45821   4.429   1.595   0.825
77428W        W45822  14.770  36.911   3.569
77429W        W45823  28.973  22.719  13.229
77430W        W45824  35.816  13.436  11.223
77431W        W45825  13.709  16.696   4.317
77432W        W45826   2.909  40.322  14.354
77433W        W45827   6.636   0.890   3.852
77434W        W45828  37.063   2.402  12.906
77435W        W45829  41.967  32.358   0.658
77436W        W45830   5.712  41.307  14.252
77437W        W45831  15.829  32.394  14.139
77438W        W45832   4.382  14.042   1.272
77439W        W45833  15.672  32.718  12.436
77440W        W45834  13.678  44.385   1.244
77441W        W45835  34.642   2.762  12.877
77442W        W45836  15.022  40.509  10.216
77443W        W45837  42.986   5.440  13.512
77444W        W45838   0.327  25.042  13.190
77445W        W45839  38.598  19.220   4.164
77446W        W45840   1.519  15.148  11.400
77447W        W45841  25.567  24.195  13.926
77448W        W45842  42.253  40.029   4.727
77449W        W45843  14.497  33.386   0.340
77450W        W45844  22.193  18.314  11.508
77451W        W45845   5.225  26.312  13.542
77452W        W45846  16.329   8.260   4.792
77453W        W45847  27.939  37.119  10.482
77454W        W45848   1.500  44.275  13.820
77455W        W45849  30.686  30.121  12.900
77456W        W45850   0.824  15.629  14.446
77457W        W45851   5.233   6.654   2.044
77458W        W45852  20.741  12.329   4.366
77459W        W45853  37.155  16.038  11.680
77460W        W45854  23.128  13.928  12.952
77461W        W45855   0.533  17.691   2.291
77462W        W45856   4.927   0.129  13.495
77463W        W45857  43.353  17.895   0.263
77464W        W45858  10.685  17.045   3.304
77465W        W45859  36.190  35.664   3.178
77466W        W45860  34.624  35.570   4.170
77467W        W45861  34.619  30.023   2.655
77468W        W45862  44.684  26.565   0.966
77469W        W45863   0.363   4.729   2.664
77470W        W45864   9.301  43.360   4.218
77471W        W45865  24.906  31.410   2.952
77472W        W45866  14.660  42.261   4.860
77473W        W45867  30.499  35.858   0.931
77474W        W45868  44.132   1.509   2.658
77475W        W45869   9.114  19.347   2.345
77476W        W45870   5.118  25.988   1.485
77477W        W45871  21.064  37.662  12.614
77478W        W45872  20.991  38.420  11.384
77479W        W45873  35.864  29.934  12.469
77480W        W45874   3.752  32.423   4.363
77481W        W45875   8.911  15.824   0.173
77482W        W45876  30.459  17.467   0.895
77483W        W45877   8.834  37.130  10.424
77484W        W45878  25.938   0.325  13.383
77485W        W45879  22.085   9.255  14.951
77486W        W45880  14.175  32.867   4.652
77487W        W45881  30.885   5.898   3.693
77488W        W45882  26.197  17.237  10.468
77489W        W45883  30.660  42.197   0.315
77490W        W45884  44.844  32.738   4.639
77491W        W45885  40.447   8.407   3.990
77492W        W45886  11.339  14.124  10.548
77493W        W45887   6.946   8.499   1.797
77494W        W45888  36.777  15.277   4.126
77495W        W45889   3.479  14.298  14.742
77496W        W45890   0.283  26.651  12.572
77497W        W45891  38.994   1.222   0.999
77498W        W45892  38.334  29.083   4.733
77499W        W45893  12.534  44.837  10.655
77500W        W45894  38.816  28.018   9.884
77501W        W45895  23.714  38.071   4.421
77502W        W45896  16.594   1.475  10.558
77503W        W45897   4.834   0.085  10.654
77504W        W45898  40.597  11.940   3.659
77505W        W45899  37.129  24.240  13.885
77506W        W45900   3.325  10.437  11.118
77507W        W45901  29.433   1.365   2.817
77508W        W45902  31.735  35.581  13.487
77509W        W45903  37.206  15.561   1.168
77510W        W45904  22.825  40.372  14.796
77511W        W45905  15.397  41.913  14.752
77512W        W45906  40.790  37.952   4.331
77513W        W45907   6.240  44.368   2.555
77514W        W45908  15.289  41.900  12.930
77515W        W45909  32.170  13.958  14.775
77516W        W45910   7.727   6.865  14.730
77517W        W45911  38.663  13.298   4.393
77518W        W45912  20.698  35.059  11.136
77519W        W45913  36.088  23.683  10.759
77520W        W45914   8.798  21.111  10.666
77521W        W45915  19.320  26.429   1.938
77522W        W45916  17.395  22.332  10.353
77523W        W45917  17.218   7.798  12.070
77524W        W45918  23.249  14.569  11.985
77525W        W45919  42.858  23.000   0.981
77526W        W45920  22.043  39.375  14.726
77527W        W45921  44.625  33.482   3.906
77528W        W45922  21.193   4.038  11.982
77529W        W45923  24.861  21.287   1.426
77530W        W45924  18.834  13.217   0.281
77531W        W45925  26.443  19.314  11.246
77532W        W45926   1.903  39.596  10.799
77533W        W45927  23.580  34.833   3.855
77534W        W45928  25.604  16.537   4.392
77535W        W45929  29.844  13.058  12.175
77536W        W45930  34.148  16.345   0.724
77537W        W45931  26.145  37.734   4.269
77538W        W45932  41.389  36.117   1.914
77539W        W45933  13.793  35.577   2.415
77540W        W45934   4.234  39.541  10.724
77541W        W45935  15.602  11.188   2.866
77542W        W45936  26.232  21.141  13.613
77543W        W45937  31.540   6.739   1.116
77544W        W45938  30.513  39.619   1.615
77545W        W45939  19.600  37.664  14.818
77546W        W45940  20.963   8.847  11.502
77547W        W45941   5.444  22.848  13.987
77548W        W45942  10.404  23.184  10.956
77549W        W45943  13.076  13.714   4.108
77550W        W45944  25.204  25.200  14.505
77551W        W45945   0.158  16.995   0.999
77552W        W45946  21.573  12.113  14.399
77553W        W45947  17.366  44.266   1.981
77554W        W45948  30.336   4.388  13.993
77555W        W45949  36.854   2.795   0.870
77556W        W45950  29.104  22.765   0.404
77557W        W45951  27.010  28.527   1.370
77558W        W45952  34.455  30.928   4.284
77559W        W45953  32.256   6.821  13.425
77560W        W45954  39.877  35.317   3.570
77561W        W45955  13.695  38.494  10.381
77562W        W45956  16.763  27.032  14.767
77563W        W45957  30.122  25.080  11.579
77564W        W45958   8.723  30.198   4.305
77565W        W45959  32.984   9.941  13.515
77566W        W45960  20.494  11.881  13.372
77567W        W45961  19.091  30.927   1.344
77568W        W45962  27.550  40.826  12.451
77569W        W45963  16.216  13.954  12.506
77570W        W45964  30.461   0.740   4.739
77571W        W45965   6.939   9.205  14.566
77572W        W45966  23.992  33.798   4.418
77573W        W45967  17.631   3.943   4.222
77574W        W45968  14.227  12.097   1.306
77575W        W45969   8.995   6.460   3.619
77576W        W45970  26.109  41.954  14.271
77577W        W45971   5.654  16.341  12.459
77578W        W45972  31.477  27.136   1.904
77579W        W45973  26.699  40.047  13.051
77580W        W45974  30.593  29.808  11.375
77581W        W45975  37.919  15.834  12.944
77582W        W45976   6.363  20.570   1.407
77583W        W45977  19.295  10.284   3.879
77584W        W45978  35.628  17.605  12.451
77585W        W45979  23.503  17.289  12.573
77586W        W45980  26.029  38.417   0.415
77587W        W45981  16.783  20.188   0.441
77588W        W45982  24.507  23.688   4.710
77589W        W45983   6.888   4.831  13.898
77590W        W45984  42.098  34.968   4.749
77591W        W45985  25.164  19.132  10.666
77592W        W45986  26.702  37.527  10.786
77593W        W45987   0.291  18.272  11.600
77594W        W45988  44.458  15.290   1.798
77595W        W45989  19.853  14.335  11.125
77596W        W45990  26.090  32.404   4.241
77597W        W45991  19.091  10.899   0.845
77598W        W45992  40.160  44.352   3.251
77599W        W45993  25.926  17.067   1.288
77600W        W45994  43.973  38.555   2.714
77601W        W45995   6.381  33.070  12.368
77602W        W45996  21.998   2.847   4.687
77603W        W45997  20.214  21.586  11.552
77604W        W45998  20.586  25.579  10.422
77605W        W45999  33.565  24.239  14.248
77606W        W46000  21.125  43.284   3.778
77607W        W46001   1.536  22.588   0.925
77608W        W46002  37.083  15.141   2.238
77609W        W46003  43.289  36.657   0.111
77610W        W46004  12.666   7.290   5.025
77611W        W46005  44.030  11.706   1.222
77612W        W46006  19.982  23.644  12.087
77613W        W46007  24.247  29.603   1.893
77614W        W46008  17.888   2.893   0.284
77615W        W46009  21.148   5.135   0.877
77616W        W46010  10.178  30.532   2.818
77617W        W46011  41.403   1.019   4.645
77618W        W46012  40.785   6.783  13.039
77619W        W46013  13.845  20.617  11.955
77620W        W46014  39.390  39.126   3.191
77621W        W46015  20.344  17.075  13.999
77622W        W46016  15.787  10.918   1.982
77623W        W46017   7.443  11.005  13.498
77624W        W46018  32.386  20.104  11.154
77625W        W46019  30.886  42.411   4.105
77626W        W46020  25.075   3.747   2.701
77627W        W46021  43.926  28.889   3.716
77628W        W46022   2.403  33.526   0.834
77629W        W46023  16.820   5.727  13.419
77630W        W46024   7.197  14.226  14.314
77631W        W46025  43.785  10.305   2.701
77632W        W46026  34.729  29.019   3.277
77633W        W46027  20.760  18.492   0.123
77634W        W46028  19.603  28.477  13.002
77635W        W46029  27.535   6.700  12.942
77636W        W46030  31.633   8.780  12.085
77637W        W46031  35.962  23.795   2.974
77638W        W46032  17.697  12.815   1.656
77639W        W46033  37.921  28.685   3.105
77640W        W46034  18.760   9.701  12.550
77641W        W46035  18.781  22.867  12.398
77642W        W46036  43.902  44.313   2.916
77643W        W46037  39.233  22.646   3.030
77644W        W46038  25.550  44.282  12.858
77645W        W46039  11.725  37.816   2.718
77646W        W46040  20.351   4.604   0.424
77647W        W46041   7.372  12.949  13.584
77648W        W46042  10.677   0.680   2.665
77649W        W46043  34.477   6.240  10.466
77650W        W46044  22.508  31.084   4.177
77651W        W46045  28.657   1.330  13.106
77652W        W46046  14.992  24.165   2.067
77653W        W46047  42.715   5.785   1.323
77654W        W46048  35.340   7.126  12.236
77655W        W46049  41.045  13.167  11.799
77656W        W46050  10.107  19.959  11.033
77657W        W46051  41.572  22.587   4.214
77658W        W46052  37.225  26.143  11.369
77659W        W46053   5.156   8.212   2.314
77660W        W46054  31.994  19.231  14.303
77661W        W46055  10.171   2.168   4.655
77662W        W46056  38.333  27.533   1.709
77663W        W46057  21.474   2.933   4.614
77664W        W46058   0.204  16.150   1.338
77665W        W46059  25.365  37.226   0.931
77666W        W46060   8.151   0.713  13.426
77667W        W46061  21.015  31.408   0.307
77668W        W46062  24.996  31.805   2.149
77669W        W46063  44.678  35.040  13.784
77670W        W46064  30.782  34.614   1.123
77671W        W46065  35.392  18.732  14.891
77672W        W46066  25.068  40.787   3.287
77673W        W46067  19.293   9.176  13.337
77674W        W46068  42.584   5.466   2.772
77675W        W46069  31.744  31.603   3.527
77676W        W46070  41.796  16.315   3.262
77677W        W46071  30.114  34.890  13.920
77678W        W46072  43.732  36.333   1.760
77679W        W46073  19.588  41.286   1.292
77680W        W46074  20.069  30.387  10.478
77681W        W46075   5.202  43.875  13.927
77682W        W46076  41.254   1.034   2.107
77683W        W46077   0.230  44.189  13.890
77684W        W46078  38.496  23.485  10.283
77685W        W46079  42.284  39.906  12.101
77686W        W46080  25.683  24.606  12.962
77687W        W46081  41.984  44.344   4.107
77688W        W46082  29.162  10.834   4.135
77689W        W46083  19.830  17.233   2.333
77690W        W46084   2.516  38.296  11.084
77691W        W46085  29.498  15.897   3.331
77692W        W46086   5.705  38.808  13.455
77693W        W46087  31.864  39.341   2.256
77694W        W46088  20.194  19.859  10.241
77695W        W46089  12.397  13.223  12.476
77696W        W46090  36.064  22.711   4.111
77697W        W46091  41.140  12.510   0.983
77698W        W46092  25.927  28.074   1.771
77699W        W46093  11.171   4.836   4.394
77700W        W46094   9.927   0.380  12.772
77701W        W46095  42.489  41.273   0.235
77702W        W46096  13.561  16.898  13.965
77703W        W46097  28.970  20.275  13.409
77704W        W46098  12.301  26.127   2.891
77705W        W46099  40.484  33.865   0.194
77706W        W46100   4.886   1.734  13.891
77707W        W46101   8.965   9.498  14.328
77708W        W46102   8.375   3.221  14.424
77709W        W46103  14.254  18.969  13.721
77710W        W46104  25.436  16.096  10.747
77711W        W46105  26.187   6.361   2.224
77712W        W46106  13.142  18.440  11.726
77713W        W46107   8.904  18.080  11.208
77714W        W46108   3.921  42.983  14.900
77715W        W46109  31.291  31.743   4.929
77716W        W46110  22.621  26.253   0.247
77717W        W46111  37.542   1.405  10.743
77718W        W46112   9.347   1.907  12.983
77719W        W46113  10.897  13.196   1.968
77720W        W46114   1.935  38.876  14.001
77721W        W46115  37.847  38.838   0.293
77722W        W46116  12.851  24.588   2.581
77723W        W46117  39.730  41.432   1.871
77724W        W46118  25.289  42.503  10.663
77725W        W46119  21.718   6.583   1.241
77726W        W46120  26.485  23.200  11.791
77727W        W46121  29.566   8.355   0.102
77728W        W46122  10.385   0.262  10.936
77729W        W46123   5.254  16.077  14.810
77730W        W46124  19.789  19.680   0.971
77731W        W46125  16.690  32.422  14.049
77732W        W46126  25.216  38.554  12.437
77733W        W46127  21.703  22.197  13.290
77734W        W46128   7.620  24.951  14.821
77735W        W46129  20.046   3.395   1.649
77736W        W46130  15.332  42.903  12.963
77737W        W46131  16.046   2.324  11.699
77738W        W46132   5.604  15.303  13.580
77739W        W46133   9.614  14.534   0.338
77740W        W46134  19.287   1.419  14.870
77741W        W46135   4.098  44.877   2.173
77742W        W46136   0.760  13.392  13.415
77743W        W46137  40.898  15.595   1.090
77744W        W46138  25.005  16.072   3.780
77745W        W46139  14.093  40.898  13.340
77746W        W46140  25.253   8.324  13.091
77747W        W46141  23.955  24.738  14.918
77748W        W46142   2.870  18.117  12.372
77749W        W46143  28.241  11.822   1.849
77750W        W46144  34.160  40.807  10.782
77751W        W46145  28.122  31.982  13.890
77752W        W46146  39.113   8.195   1.322
77753W        W46147   9.747  26.424  12.843
77754W        W46148   5.274  44.042   4.193
77755W        W46149   9.236   3.795  13.124
77756W        W46150  16.169   0.074  12.073
77757W        W46151  11.320  14.793  14.388
77758W        W46152  15.845   8.780  14.426
77759W        W46153   8.824  23.097  11.153
77760W        W46154  18.642  21.087  10.114
77761W        W46155  17.024   4.360  10.657
77762W        W46156  19.591  22.775  12.141
77763W        W46157  26.530  26.553  13.302
77764W        W46158   7.753  13.323  14.403
77765W        W46159  41.609  33.077   1.418
77766W        W46160  27.913  34.107  11.061
77767W        W46161  36.444  30.675  11.086
77768W        W46162  12.582  22.295  11.587
77769W        W46163  35.951   8.533  11.438
77770W        W46164  32.461  17.733   2.347
77771W        W46165  14.298  34.536   4.718
77772W        W46166  21.013  39.772   0.846
77773W        W46167  26.164  13.257  12.923
77774W        W46168  23.717  11.580   2.260
77775W        W46169  39.973   4.949  13.563
77776W        W46170  10.140  12.683  12.608
77777W        W46171  30.259  30.184   2.030
77778W        W46172  27.926  10.120  11.381
77779W        W46173  25.472  33.639  10.720
77780W        W46174  31.126  24.332  13.591
77781W        W46175  40.003  10.800  13.664
77782W        W46176  44.866  41.690  11.663
77783W        W46177  29.420   4.831   2.956
77784W        W46178  41.980  29.989   4.513
77785W        W46179   2.786  39.720   1.259
77786W        W46180   7.340  16.705   2.743
77787W        W46181  31.613  32.261   4.272
77788W        W46182  43.533  43.376   0.869
77789W        W46183  35.030  36.888   3.758
77790W        W46184  10.307   3.239   0.282
77791W        W46185   0.161  21.313   2.344
77792W        W46186  32.937  24.540  13.050
77793W        W46187  11.756  23.165   4.664
77794W        W46188   1.781  29.884  13.929
77795W        W46189  33.492  23.573  14.942
77796W        W46190  29.070  36.644  13.385
77797W        W46191   9.808  31.680  13.964
77798W        W46192  17.829  11.722  14.327
77799W        W46193   3.387  26.739   4.067
77800W        W46194   9.360  12.779  10.994
77801W        W46195  26.197  30.383  11.908
77802W        W46196  28.107   0.766   1.628
77803W        W46197   8.414  30.395  12.189
77804W        W46198  43.723   9.340  11.983
77805W        W46199  39.610  37.756   1.031
77806W        W46200  28.365  41.512   2.852
77807W        W46201  10.764  10.618  14.058
77808W        W46202   8.381   5.440   4.061
77809W        W46203  29.862   2.359   0.583
77810W        W46204  30.344  36.959   0.635
77811W        W46205  29.860  25.171  14.080
77812W        W46206   8.342  10.113   1.313
77813W        W46207  12.314  23.461  12.505
77814W        W46208  24.630   9.049  14.868
77815W        W46209  43.772  15.762   1.467
77816W        W46210  38.850   2.792  12.334
77817W        W46211  16.222  32.791  11.195
77818W        W46212  29.192  32.554   3.453
77819W        W46213  35.937  28.351   3.783
77820W        W46214  17.841  42.947  13.826
77821W        W46215   3.444  36.521  10.748
77822W        W46216  23.462  31.854  11.090
77823W        W46217  30.094   0.019  13.921
77824W        W46218  32.395  11.194  11.194
77825W        W46219  37.405   1.892   0.897
77826W        W46220  36.999   2.414  14.506
77827W        W46221  20.629  20.483   3.213
77828W        W46222  17.616  27.200  14.352
77829W        W46223  13.411  36.827   2.280
77830W        W46224  23.736  26.553   4.157
77831W        W46225  19.643  19.668   4.467
77832W        W46226   0.661  31.494  10.332
77833W        W46227   3.195   9.214  14.767
77834W        W46228  12.156  40.039   0.778
77835W        W46229  27.649  36.400  12.095
77836W        W46230  38.807  33.754   2.380
77837W        W46231  16.406  24.037   0.004
77838W        W46232   5.559  26.466   1.745
77839W        W46233  20.796  40.897   4.961
77840W        W46234  16.618   1.816  13.881
77841W        W46235   8.761  30.427   1.811
77842W        W46236  27.673   2.944  11.429
77843W        W46237  20.459   0.764  13.436
77844W        W46238  40.374  23.690   4.404
77845W        W46239   6.863  33.754  12.030
77846W        W46240  13.831  38.134   2.264
77847W        W46241  17.688  38.346   4.296
77848W        W46242  44.679  32.579   2.397
77849W        W46243  33.385   0.812  12.599
77850W        W46244   2.120  40.844  11.695
77851W        W46245  40.425  18.843   4.112
77852W        W46246  26.554   6.763  11.490
77853W        W46247   9.257   0.324   2.927
77854W        W46248  32.038  18.250  14.438
77855W        W46249  14.499  18.814   0.849
77856W        W46250   6.941  38.316  12.191
77857W        W46251  14.117  28.653  12.559
77858W        W46252  21.448  12.712  11.635
77859W        W46253  34.886  12.168   1.338
77860W        W46254  29.665   3.500  14.029
77861W        W46255  17.286  36.105  12.128
77862W        W46256  21.081  16.160  14.999
77863W        W46257  24.888   1.916  13.048
77864W        W46258  34.843  12.300  10.611
77865W        W46259  26.408  28.251   0.118
77866W        W46260  11.955  42.345   2.363
77867W        W46261   1.479   8.286   0.869
77868W        W46262  10.459  29.038   3.659
77869W        W46263   6.677  21.256   3.245
77870W        W46264  15.289  11.907   4.588
77871W        W46265  29.401  13.830   2.337
77872W        W46266  27.210  40.454   0.803
77873W        W46267   0.755  29.578  12.968
77874W        W46268   6.927  38.449   3.181
77875W        W46269  10.872   6.300   3.841
77876W        W46270  25.881  22.547  11.525
77877W        W46271  43.341  33.061  12.538
77878W        W46272   5.287  23.770   3.621
77879W        W46273  35.959  28.407  12.851
77880W        W46274  39.087   0.369  13.622
77881W        W46275  37.095  10.664   4.744
77882W        W46276  28.576  28.196   2.820
77883W        W46277  40.924  26.626  12.976
77884W        W46278  38.007  32.406   3.853
77885W        W46279  37.036  30.871   1.785
77886W        W46280  41.458  22.177  12.969
77887W        W46281  19.757   5.819   4.634
77888W        W46282  21.837  32.556  11.880
77889W        W46283  12.693  18.114   4.589
77890W        W46284  29.102  14.033  12.725
77891W        W46285  10.440  20.252   2.711
77892W        W46286  33.046  20.100  10.477
77893W        W46287  17.502   3.312   2.812
77894W        W46288  33.458  19.046   0.758
77895W        W46289   1.768  35.089  14.274
77896W        W46290  20.297  19.799  11.106
77897W        W46291  29.996  36.038   3.860
77898W        W46292  28.554  28.430   1.506
77899W        W46293  24.940  42.567  14.237
77900W        W46294  11.800  16.524   3.611
77901W        W46295  19.953  28.668   4.235
77902W        W46296  14.422  14.563  13.055
77903W        W46297   2.458  44.848  11.517
77904W        W46298   5.660  30.043  12.980
77905W        W46299  35.914  18.997   2.434
77906W        W46300  33.040  34.288  14.651
77907W        W46301   9.394  33.412  13.788
77908W        W46302  14.856  30.465   3.731
77909W        W46303   1.870  38.964  11.142
77910W        W46304  44.933  12.687  11.650
77911W        W46305  11.187  26.920   1.648
77912W        W46306  19.545  17.785  13.372
77913W        W46307  37.314  44.930   0.341
77914W        W46308  22.353  23.915   0.312
77915W        W46309  15.625  20.273   1.923
77916W        W46310   1.464   6.702   4.622
77917W        W46311   9.976   7.795   5.075
77918W        W46312  20.639  13.335  12.943
77919W        W46313   8.819  28.031  14.480
77920W        W46314  16.810  25.654  11.648
77921W        W46315  26.108  27.182   1.894
77922W        W46316  33.945  36.446  10.471
77923W        W46317  24.299  14.559   0.025
77924W        W46318  15.166  29.190  10.422
77925W        W46319  23.820  36.871   3.360
77926W        W46320  12.609   8.668   0.238
77927W        W46321  41.130   3.212   0.415
77928W        W46322  27.118   2.785   4.904
77929W        W46323   3.377  24.588  10.819
77930W        W46324   0.069  44.403  11.479
77931W        W46325   0.262  11.963   1.717
77932W        W46326  34.987   7.380   9.722
77933W        W46327   2.330  42.611   4.269
77934W        W46328  36.481  25.779   4.150
77935W        W46329   7.561  28.128   3.247
77936W        W46330  12.189  15.535  13.601
77937W        W46331  40.813  23.771   0.909
77938W        W46332  26.834   1.496   1.363
77939W        W46333  34.081  40.847   1.575
77940W        W46334  13.790   5.910   3.112
77941W        W46335  31.617   0.078  14.373
77942W        W46336  26.842  43.989   2.191
77943W        W46337  25.950   8.291  10.740
77944W        W46338  18.983   9.662  12.096
77945W        W46339  38.756  37.707  10.235
77946W        W46340  17.233  10.419  12.588
77947W        W46341  27.602  43.272   4.152
77948W        W46342  29.521  10.132   5.045
77949W        W46343   3.592  22.476  14.871
77950W        W46344  25.899   0.431   0.304
77951W        W46345   9.891  40.108   2.114
77952W        W46346  38.521  36.781  14.281
77953W        W46347  31.531   4.893  12.479
77954W        W46348  13.388  22.189  12.644
77955W        W46349   9.243   2.203   3.510
77956W        W46350   8.900  35.627   3.481
77957W        W46351   4.835  36.409  10.704
77958W        W46352  26.558  13.681   0.443
77959W        W46353  28.456   7.778   3.181
77960W        W46354  34.880  16.324   4.187
77961W        W46355  40.997  41.578  12.065
77962W        W46356   2.788   8.226   3.867
77963W        W46357  44.391  29.450  10.702
77964W        W46358  38.402  26.927   0.823
77965W        W46359  32.914  14.022  10.737
77966W        W46360  34.898   4.521   3.874
77967W        W46361  23.952  36.042  11.636
77968W        W46362  20.509  31.436   1.244
77969W        W46363   3.208  11.811   2.163
77970W        W46364  34.021   5.709  10.388
77971W        W46365  26.996  42.402   0.373
77972W        W46366   2.934  29.233  11.141
77973W        W46367  42.013  12.074   2.718
77974W        W46368   3.413   1.286  12.569
77975W        W46369   3.357  40.988  11.565
77976W        W46370  29.695  40.702   2.997
77977W        W46371  25.896  11.172   1.267
77978W        W46372  40.425  28.520   2.703
77979W        W46373  27.945  38.906   3.284
77980W        W46374  21.311  12.191  10.430
77981W        W46375  13.808  28.892  10.599
77982W        W46376  21.223   3.929  11.111
77983W        W46377   0.812   1.081   0.887
77984W        W46378   9.715  23.112   1.836
77985W        W46379  40.416   4.878  12.853
77986W        W46380  27.750   4.238  13.047
77987W        W46381  27.594   0.268   2.362
77988W        W46382  38.913   2.585   1.277
77989W        W46383  39.416  17.181   1.829
77990W        W46384  27.746   1.208   2.459
77991W        W46385  43.456  21.063   1.491
77992W        W46386   5.040  23.647  12.942
77993W        W46387   1.494  35.012  10.769
77994W        W46388  29.446   4.896   1.257
77995W        W46389  18.101  40.376   2.191
77996W        W46390  44.532  33.423  11.830
77997W        W46391  16.027  19.995  13.958
77998W        W46392  19.492   0.301  13.160
77999W        W46393   8.305  40.271  11.968
78000W        W46394  15.219   5.963  11.187
78001W        W46395  35.489  14.111   3.141
78002W        W46396   8.752  30.948   3.587
78003W        W46397   6.431  25.015   2.387
78004W        W46398  15.880  41.778  14.937
78005W        W46399  30.801  41.685   0.426
78006W        W46400  13.310  11.266   3.218
78007W        W46401  23.292   9.984  11.197
78008W        W46402  12.449  21.675  14.092
78009W        W46403  37.558  17.146   1.759
78010W        W46404  42.599  22.264  11.109
78011W        W46405  24.847  36.892   0.206
78012W        W46406  22.978  34.002  14.497
78013W        W46407  44.060  34.550  10.323
78014W        W46408   9.018  42.823  14.217
78015W        W46409  16.682   0.775   1.268
78016W        W46410  38.806  17.132  11.161
78017W        W46411   8.398  38.936   3.650
78018W        W46412  16.783   4.348   2.263
78019W        W46413  43.438   5.281  12.432
78020W        W46414  20.779   7.622  14.515
78021W        W46415  35.507   3.290   1.775
78022W        W46416  42.910  35.424   4.543
78023W        W46417  33.661   0.699   0.655
78024W        W46418  42.004  16.156  14.029
78025W        W46419  30.985  22.215   2.833
78026W        W46420  29.419  27.142   0.293
78027W        W46421  18.918  40.369  11.631
78028W        W46422  24.148   1.447   4.178
78029W        W46423   2.760  13.329   1.255
78030W        W46424  10.308  19.789  14.442
78031W        W46425  23.002  10.284   3.893
78032W        W46426  11.619  37.924   4.752
78033W        W46427  17.631  43.744   2.381
78034W        W46428   7.213  20.938  13.404
78035W        W46429  15.823   1.464   2.695
78036W        W46430   9.823  37.527   0.930
78037W        W46431   3.203   8.327  12.812
78038W        W46432  41.511  29.858   0.803
78039W        W46433  25.651   5.391   2.669
78040W        W46434  24.884   0.504   4.198
78041W        W46435  19.897  16.206  10.514
78042W        W46436  26.058  40.067  11.251
78043W        W46437  14.005  35.048   4.645
78044W        W46438   8.515  13.352   4.058
78045W        W46439  25.497  15.112   3.902
78046W        W46440   8.112  18.132   0.506
78047W        W46441  33.037  19.801   3.749
78048W        W46442  38.054  32.363  11.973
78049W        W46443  23.539  42.539  10.805
78050W        W46444   6.285  44.700   0.861
78051W        W46445  41.535   4.923   2.144
78052W        W46446   9.652  20.692   4.384
78053W        W46447  33.954   8.472  10.548
78054W        W46448   2.316  16.770   2.727
78055W        W46449  40.471   0.654   4.181
78056W        W46450  15.718   4.340   4.933
78057W        W46451  23.091  35.179   4.787
78058W        W46452  21.690  16.999  11.134
78059W        W46453  28.148  20.529  13.855
78060W        W46454   4.412  43.720   3.283
78061W        W46455  24.088  34.112   1.254
78062W        W46456  17.491  25.710   2.741
78063W        W46457  32.121  40.215   4.093
78064W        W46458  13.822   4.343  13.263
78065W        W46459  15.705  32.408  11.998
78066W        W46460  41.807  29.840   2.164
78067W        W46461   8.807  12.920  10.302
78068W        W46462   9.376  23.772   2.745
78069W        W46463  13.422   1.808   0.307
78070W        W46464   9.283  18.357   0.891
78071W        W46465  14.130  41.228   1.985
78072W        W46466  24.009  33.129   2.820
78073W        W46467  32.884  15.043  14.793
78074W        W46468  34.016   5.265   1.486
78075W        W46469   2.194  44.326   2.823
78076W        W46470  22.594  22.582   1.357
78077W        W46471  26.052  19.517   1.338
78078W        W46472   6.053  34.130  12.933
78079W        W46473  22.231  39.077  12.957
78080W        W46474  12.524   4.500   2.840
78081W        W46475  19.660  22.781  12.678
78082W        W46476  40.747  11.827   0.067
78083W        W46477  30.824   5.897  12.033
78084W        W46478  36.096  23.108   1.865
78085W        W46479  44.527  32.193   0.427
78086W        W46480  28.155  31.309  11.681
78087W        W46481   2.212  33.811   2.359
78088W        W46482  33.184  19.574   1.612
78089W        W46483  11.920   0.787   3.794
78090W        W46484   2.227  14.046  14.011
78091W        W46485  10.951  29.794  12.575
78092W        W46486  11.875  17.474  11.687
78093W        W46487  39.823   5.780   0.212
78094W        W46488  39.953  12.468   2.420
78095W        W46489   8.730   8.629   1.953
78096W        W46490  37.018  27.936  13.389
78097W        W46491  17.175  43.607  13.862
78098W        W46492   5.202  18.623  10.946
78099W        W46493  15.588  38.429  13.445
78100W        W46494  37.606  22.422   3.205
78101W        W46495   3.950   1.223   2.660
78102W        W46496  11.860  20.492   4.136
78103W        W46497  11.627  34.049  12.561
78104W        W46498   4.925  11.809  11.997
78105W        W46499  29.028  11.538   3.134
78106W        W46500  37.271  18.836  11.966
78107W        W46501   0.913  26.190   1.220
78108W        W46502   8.887   8.770  13.401
78109W        W46503   7.169   9.189   2.372
78110W        W46504   4.953  38.380  13.517
78111W        W46505  18.342  17.335  14.829
78112W        W46506  35.018  22.713   0.803
78113W        W46507  37.378  37.031   2.631
78114W        W46508  17.775   0.080  12.037
78115W        W46509  16.067  14.320   1.825
78116W        W46510  12.563   6.728   3.767
78117W        W46511  13.556  12.257   3.171
78118W        W46512  27.768  38.827   4.603
78119W        W46513  13.728  27.632   3.427
78120W        W46514   3.684   7.669   4.762
78121W        W46515  42.636  44.820   1.927
78122W        W46516   0.992  32.864  10.756
78123W        W46517  29.521  16.887  11.969
78124W        W46518  17.145  31.894   1.841
78125W        W46519   3.280  42.433   0.130
78126W        W46520  11.460  17.873   2.265
78127W        W46521   0.248  42.864   1.423
78128W        W46522  18.630  30.363   4.740
78129W        W46523  25.645   0.358  12.070
78130W        W46524  10.611  40.112  10.523
78131W        W46525  42.854  19.306   1.751
78132W        W46526   9.939  44.161  11.559
78133W        W46527  20.808   5.417  11.200
78134W        W46528   2.891  28.007  10.526
78135W        W46529   3.730  22.148  13.387
78136W        W46530   9.216  38.007   0.924
78137W        W46531  28.919  27.013   2.696
78138W        W46532  12.037   5.355   3.544
78139W        W46533  31.050  35.390   3.136
78140W        W46534   7.260   6.415  12.862
78141W        W46535  11.336  36.794  11.125
78142W        W46536  13.522  18.241  13.219
78143W        W46537   0.871  39.416  10.377
78144W        W46538  27.669  43.547   2.246
78145W        W46539  15.094  21.645   1.729
78146W        W46540  40.241   7.387  10.760
78147W        W46541  24.520  30.565  14.226
78148W        W46542   5.985   2.200  13.322
78149W        W46543  26.619  29.516   1.271
78150W        W46544  34.009   8.604  11.044
78151W        W46545   2.292  39.028   4.636
78152W        W46546   1.735  12.519   0.842
78153W        W46547   0.837  35.111   2.416
78154W        W46548  28.463  14.665   0.642
78155W        W46549  35.178  22.545   3.514
78156W        W46550  15.189  38.362  14.741
78157W        W46551  38.388  29.657   0.816
78158W        W46552  11.674  40.976   3.856
78159W        W46553  40.580  35.891   3.229
78160W        W46554  16.025  24.970   0.973
78161W        W46555  21.666  11.349   0.723
78162W        W46556  16.841  15.609  11.960
78163W        W46557  16.731  13.346   4.145
78164W        W46558  44.040   8.241   4.576
78165W        W46559  36.006   9.329  12.682
78166W        W46560  22.221  41.468  11.101
78167W        W46561  35.501   7.678  11.122
78168W        W46562  40.411  37.092  12.527
78169W        W46563  39.250  21.630  13.032
78170W        W46564   0.234  11.265  12.408
78171W        W46565  32.386  36.435  13.531
78172W        W46566   7.720  19.483   0.387
78173W        W46567   5.975  19.488  10.957
78174W        W46568  13.743  34.039  11.507
78175W        W46569  41.304  14.266   1.449
78176W        W46570  15.313  29.110  11.061
78177W        W46571  27.217  33.269  14.491
78178W        W46572  35.094  38.999  14.919
78179W        W46573  23.470  20.803   1.686
78180W        W46574  11.696  28.100   1.269
78181W        W46575  33.574  10.335  11.197
78182W        W46576  13.860  29.644   0.865
78183W        W46577  10.643  39.266  12.539
78184W        W46578  24.166  27.480   3.681
78185W        W46579   9.262   7.689   2.620
78186W        W46580  41.394  11.599  11.751
78187W        W46581  44.984   8.931  12.527
78188W        W46582   6.666  16.330  11.210
78189W        W46583   1.239  44.460   0.170
78190W        W46584   9.835  18.796   2.659
78191W        W46585   5.796  42.668   3.198
78192W        W46586   7.591  14.350  12.603
78193W        W46587  25.229  19.174  12.884
78194W        W46588  26.730   1.943  10.914
78195W        W46589  10.659  30.896  11.894
78196W        W46590  22.460  31.936  14.349
78197W        W46591  42.795  13.446   3.033
78198W        W46592  10.083  32.561  11.577
78199W        W46593  10.794  13.677  11.209
78200W        W46594  40.949  32.783   1.631
78201W        W46595  13.493  40.826  14.576
78202W        W46596   2.338  16.131   1.582
78203W        W46597   2.034  18.238   3.756
78204W        W46598  29.085  10.433  14.313
78205W        W46599  25.282   4.226  11.853
78206W        W46600  34.895  37.478   3.054
78207W        W46601  35.846   6.598  12.975
78208W        W46602  44.538  16.199  10.767
78209W        W46603  10.835  27.393   4.465
78210W        W46604  41.297  41.874   4.515
78211W        W46605  37.937  39.307  13.880
78212W        W46606  21.309  29.374  11.627
78213W        W46607  32.373  31.472  14.821
78214W        W46608  40.014  12.936  10.610
78215W        W46609  10.288  14.442   1.962
78216W        W46610  38.938  15.987   1.642
78217W        W46611  24.722  34.976   2.361
78218W        W46612   2.077  19.495  14.821
78219W        W46613  26.147  25.484  13.837
78220W        W46614   2.869   6.674  14.899
78221W        W46615  35.465  28.534   4.625
78222W        W46616  19.576   1.512  11.809
78223W        W46617  41.332   2.800  14.878
78224W        W46618  21.667   4.449   4.691
78225W        W46619   2.328  23.443  12.245
78226W        W46620   2.592  26.677  10.954
78227W        W46621  12.419  43.780   1.132
78228W        W46622  12.893  16.593   1.181
78229W        W46623  26.800  13.510   1.801
78230W        W46624  29.057  38.877  14.948
78231W        W46625  11.509  30.891   0.181
78232W        W46626  10.631  29.579   2.800
78233W        W46627  15.615  12.843  12.942
78234W        W46628  11.665  36.435  10.222
78235W        W46629  44.949  42.437   1.188
78236W        W46630  16.450  16.177  14.195
78237W        W46631   8.266  41.840  11.667
78238W        W46632  41.421  25.910  12.945
78239W        W46633  21.799  16.292   3.035
78240W        W46634  35.881  26.989  13.168
78241W        W46635  19.157  13.902  11.674
78242W        W46636  29.597   7.326  12.104
78243W        W46637  27.132   9.353   2.335
78244W        W46638   2.489  33.154  12.981
78245W        W46639   2.926  34.242   1.188
78246W        W46640  16.012  16.055  10.253
78247W        W46641  21.763  13.531   1.172
78248W        W46642  13.012  12.841   3.274
78249W        W46643   1.762  21.028   1.221
78250W        W46644  42.520  18.621   0.831
78251W        W46645   2.029  37.210  10.314
78252W        W46646  18.066  18.705  14.883
78253W        W46647  16.107  11.116  12.011
78254W        W46648  13.096  17.655  10.726
78255W        W46649  39.591  16.653  14.729
78256W        W46650  38.300  19.064  14.258
78257W        W46651  16.139  24.940   1.490
78258W        W46652  38.833  41.343  12.538
78259W        W46653  32.478  27.392   2.094
78260W        W46654  34.427  43.232  11.242
78261W        W46655  43.136   8.276  11.598
78262W        W46656   5.544   9.334  10.758
78263W        W46657  34.105  24.718   3.773
78264W        W46658  15.042  25.474  13.231
78265W        W46659   7.658  20.814   3.760
78266W        W46660  14.657  20.966   2.194
78267W        W46661  10.721  10.642   4.709
78268W        W46662  33.160  19.735   0.634
78269W        W46663  35.186  13.342  13.690
78270W        W46664  27.721  38.426   3.167
78271W        W46665  43.025  32.074   3.704
78272W        W46666   2.163  18.536  11.337
78273W        W46667  30.446  32.072   2.484
78274W        W46668  11.073  38.398  12.516
78275W        W46669   0.422  44.094  12.925
78276W        W46670  24.524  34.931  11.425
78277W        W46671  10.114  33.420   2.337
78278W        W46672  37.407  37.268  14.660
78279W        W46673  23.604  44.863  12.620
78280W        W46674   5.509  29.616   1.374
78281W        W46675  35.182   1.002  11.175
78282W        W46676   8.351  11.123   4.396
78283W        W46677  14.685   0.913   2.590
78284W        W46678  27.637  16.685   3.173
78285W        W46679   0.544  42.980   2.392
78286W        W46680  30.984   9.756   4.696
78287W        W46681  33.404   3.821   3.615
78288W        W46682  14.543  21.528  12.926
78289W        W46683  24.060   3.237  11.660
78290W        W46684  37.325  25.038   3.871
78291W        W46685   5.177  41.044   1.315
78292W        W46686  21.844  17.272   3.074
78293W        W46687  40.783  37.992  12.106
78294W        W46688  15.824  17.653   1.383
78295W        W46689  15.543  41.293  13.656
78296W        W46690  21.471   3.944  10.659
78297W        W46691  35.603  25.278   2.300
78298W        W46692  33.569   0.411  11.891
78299W        W46693  16.146  29.494   0.800
78300W        W46694  30.028   4.126   1.470
78301W        W46695  34.853   6.721  13.013
78302W        W46696   3.192   5.131  12.365
78303W        W46697   0.451  41.436  11.162
78304W        W46698   7.674  36.953  11.574
78305W        W46699  37.536  42.640  12.142
78306W        W46700  34.622  36.972  10.853
78307W        W46701  30.770  37.584   3.457
78308W        W46702  13.107  42.812  12.094
78309W        W46703   2.031  32.838  14.482
78310W        W46704  38.903  36.586  10.568
78311W        W46705  12.562  44.412   3.325
78312W        W46706  41.754  10.346  12.648
78313W        W46707   7.801   9.670   2.146
78314W        W46708  40.042  15.737   4.554
78315W        W46709  17.012  15.307   0.466
78316W        W46710  16.558  22.162   1.236
78317W        W46711  32.892   7.853  14.119
78318W        W46712   4.362  24.191  11.799
78319W        W46713  32.040  11.511   0.808
78320W        W46714  24.583  39.036   0.930
78321W        W46715  29.943  29.062   1.842
78322W        W46716  13.179   5.712   4.974
78323W        W46717  23.247  39.834   0.222
78324W        W46718  25.272   5.409  14.556
78325W        W46719  35.074  28.922  14.715
78326W        W46720   7.875  17.457   1.792
78327W        W46721  14.794  14.359   3.322
78328W        W46722  43.460  33.217  11.523
78329W        W46723  29.966  27.965  14.346
78330W        W46724  37.426   8.844   3.744
78331W        W46725  41.884  28.417   2.025
78332W        W46726  23.422   6.259  10.409
78333W        W46727  23.034  34.212   0.960
78334W        W46728  10.438  11.285   0.043
78335W        W46729  30.924  42.279   3.273
78336W        W46730  39.502  38.958  10.473
78337W        W46731  29.600  10.306  10.184
78338W        W46732  32.031   2.771  11.492
78339W        W46733  17.893  24.214   0.950
78340W        W46734   5.784  33.202  13.063
78341W        W46735  41.873  32.135   2.392
78342W        W46736  38.076   4.138  12.615
78343W        W46737  23.771  35.577   0.291
78344W        W46738  33.255  15.573   4.232
78345W        W46739  17.067  38.028  13.823
78346W        W46740  26.576  36.479  11.760
78347W        W46741  17.034  10.742  10.161
78348W        W46742  12.776  21.152  14.874
78349W        W46743  18.228  18.455  11.941
78350W        W46744   0.901  14.369  13.562
78351W        W46745  39.851  23.738   1.785
78352W        W46746   8.286   6.757   2.933
78353W        W46747   4.552  19.206   1.319
78354W        W46748  32.952  22.588  10.645
78355W        W46749  35.967  39.127   3.341
78356W        W46750  22.720  44.780   4.227
78357W        W46751  21.035  40.068  13.569
78358W        W46752  20.825  44.444   2.763
78359W        W46753  14.464  41.808  11.916
78360W        W46754   5.788  34.174   1.223
78361W        W46755   6.871  38.531  10.700
78362W        W46756  20.543  36.236   1.447
78363W        W46757  12.001  34.949   4.156
78364W        W46758  23.576  24.206  11.051
78365W        W46759  28.680  38.983   0.859
78366W        W46760  36.045  41.595   3.062
78367W        W46761  39.793  15.588   4.133
78368W        W46762  29.489   7.590   3.154
78369W        W46763  29.588   6.901  11.083
78370W        W46764   1.253   0.660   3.553
78371W        W46765   7.819  18.031   4.174
78372W        W46766  26.923  36.338  11.127
78373W        W46767  35.999  39.122  13.919
78374W        W46768  33.203   0.389  14.475
78375W        W46769  18.586  43.376   1.878
78376W        W46770  35.424  27.757   4.606
78377W        W46771   2.674  43.398   1.639
78378W        W46772  29.473  44.058  14.409
78379W        W46773  42.838   0.323   3.171
78380W        W46774  14.465  33.071  11.590
78381W        W46775  15.814  42.266  14.825
78382W        W46776  26.822  44.323  14.850
78383W        W46777  43.026  15.524   4.596
78384W        W46778  38.098  20.391   1.799
78385W        W46779   6.156   3.884  11.211
78386W        W46780  16.182   5.268   1.368
78387W        W46781  37.441  29.109   1.724
78388W        W46782  26.928  43.826  14.788
78389W        W46783  28.297  27.988  11.734
78390W        W46784   9.785  15.635  13.838
78391W        W46785   2.489   7.325  14.092
78392W        W46786  37.386  41.977  11.535
78393W        W46787   3.665   4.135   1.758
78394W        W46788  14.832  10.295   0.313
78395W        W46789  35.459  29.490  13.975
78396W        W46790  26.837  40.728   1.806
78397W        W46791  30.470  18.955  14.585
78398W        W46792  25.303  30.322  11.935
78399W        W46793   3.182  44.527   0.337
78400W        W46794  27.426  17.825   0.767
78401W        W46795  37.283  30.340   2.303
78402W        W46796  40.040  19.220   1.297
78403W        W46797  20.564  41.531  11.415
78404W        W46798  12.296   3.371  14.099
78405W        W46799  26.564  11.598  12.890
78406W        W46800  40.229  41.361   1.709
78407W        W46801  12.260   6.420   4.101
78408W        W46802   7.785   0.189  11.130
78409W        W46803   3.226  41.717  14.371
78410W        W46804  32.328   7.186   1.111
78411W        W46805  25.669  30.419  14.052
78412W        W46806  15.242  42.085  13.832
78413W        W46807  38.969   1.545   1.429
78414W        W46808  15.958  18.523  12.014
78415W        W46809  17.031  28.884  11.485
78416W        W46810  18.390   7.358  12.492
78417W        W46811  17.278   6.905  10.390
78418W        W46812  16.219  32.615  13.876
78419W        W46813  37.509  25.099  14.349
78420W        W46814  44.296  17.980  14.622
78421W        W46815  40.508  32.987  13.783
78422W        W46816  38.371   8.655  10.869
78423W        W46817  20.456  42.543  11.636
78424W        W46818  30.245  24.931   2.894
78425W        W46819  10.792  12.681  13.322
78426W        W46820  13.181  32.988   3.154
78427W        W46821  34.603  39.977  11.609
78428W        W46822   0.765  29.635   4.156
78429W        W46823  12.202  37.831   2.918
78430W        W46824  19.592  41.377  13.354
78431W        W46825  35.012  41.114   1.963
78432W        W46826  35.737  36.003   4.582
78433W        W46827  38.823  38.844   2.824
78434W        W46828  23.995   1.411   1.262
78435W        W46829   6.857  22.349   3.250
78436W        W46830  21.158  16.747   4.443
78437W        W46831  36.782  38.759  11.087
78438W        W46832  34.909  16.804  11.710
78439W        W46833  14.171  44.904  10.575
78440W        W46834  16.696  36.352   3.924
78441W        W46835  39.101  22.976   0.843
78442W        W46836  21.630  27.234  12.071
78443W        W46837  19.942  38.164   4.057
78444W        W46838  41.482   7.882  13.515
78445W        W46839  35.958  33.875  13.354
78446W        W46840  35.633  40.944   3.209
78447W        W46841  42.202   2.424   2.589
78448W        W46842  15.586  17.653   0.913
78449W        W46843   6.650   3.843   1.398
78450W        W46844  24.042   8.632   4.033
78451W        W46845  34.894  31.588  14.343
78452W        W46846  13.285  41.541   4.332
78453W        W46847   0.871  42.262   1.376
78454W        W46848  11.973   0.861   2.014
78455W        W46849  28.186  18.496   3.289
78456W        W46850   1.265  16.966   4.022
78457W        W46851  29.970  24.597   3.194
78458W        W46852  26.661  34.998   4.552
78459W        W46853  12.632   9.331  14.892
78460W        W46854   2.325  41.343  12.867
78461W        W46855  28.964   7.330   4.791
78462W        W46856  29.813  42.157  12.402
78463W        W46857  18.684  37.231   0.721
78464W        W46858  43.658   4.354  12.912
78465W        W46859  42.790  13.624  12.873
78466W        W46860  34.120  36.328  12.382
78467W        W46861  25.531  13.289   3.061
78468W        W46862  21.298  21.145  14.396
78469W        W46863   4.341   2.498  14.220
78470W        W46864  43.386  13.358   3.816
78471W        W46865  41.356  28.854   3.502
78472W        W46866  28.275  26.961  14.277
78473W        W46867  39.117  11.451  12.952
78474W        W46868  28.984  21.566  10.910
78475W        W46869  42.537  35.533   9.941
78476W        W46870  23.438  43.423   3.272
78477W        W46871   2.144   6.838   3.162
78478W        W46872  30.856  34.327  14.827
78479W        W46873   7.921   1.847  12.528
78480W        W46874  30.978  42.752  13.523
78481W        W46875  20.593  38.477   1.813
78482W        W46876  19.655  43.776   3.592
78483W        W46877   8.508  33.168   2.341
78484W        W46878  25.569  44.939   3.086
78485W        W46879   0.375   7.114   2.369
78486W        W46880  19.342  20.684  13.894
78487W        W46881  14.695   8.681  10.953
78488W        W46882  23.281  23.014   2.824
78489W        W46883  42.063   7.792  10.638
78490W        W46884  17.591  17.788  12.622
78491W        W46885  15.583  15.732   4.588
78492W        W46886  39.407   4.457  10.366
78493W        W46887  20.293  17.956   1.282
78494W        W46888  39.012  30.730   2.181
78495W        W46889  18.310  28.667  11.934
78496W        W46890  13.577  12.692  13.642
78497W        W46891  32.133  33.337  13.461
78498W        W46892  29.196  28.196  11.590
78499W        W46893  26.100  16.703   4.486
78500W        W46894  31.223  15.711   0.681
78501W        W46895  24.235   1.556   0.805
78502W        W46896  30.836   7.407   0.926
78503W        W46897  15.114  20.564   4.795
78504W        W46898  23.305  12.205   2.654
78505W        W46899  34.380  33.094  13.478
78506W        W46900   0.383  21.611  12.663
78507W        W46901  38.163  15.440   3.124
78508W        W46902   1.449  32.472  11.672
78509W        W46903  10.285  40.569   2.203
78510W        W46904  34.325  16.240   1.325
78511W        W46905   9.899  37.466   2.851
78512W        W46906  26.565  10.166  10.514
78513W        W46907  20.803  35.114   0.018
78514W        W46908  38.825  17.139   2.472
78515W        W46909  44.854   0.977  14.883
78516W        W46910  13.547  18.846   0.045
78517W        W46911  10.098   6.451  13.889
78518W        W46912   9.846  19.730  13.545
78519W        W46913  13.257  19.383   2.670
78520W        W46914  15.039  25.736   4.691
78521W        W46915  13.437  14.314  10.343
78522W        W46916  39.877  41.043   1.222
78523W        W46917  31.928  22.099   0.323
78524W        W46918  15.941  27.154   2.818
78525W        W46919  24.993   8.629  14.007
78526W        W46920  38.864  22.053   0.716
78527W        W46921  11.348   2.952   1.636
78528W        W46922  17.559  31.816   4.983
78529W        W46923  17.006   1.015  14.019
78530W        W46924   2.402  23.791  12.646
78531W        W46925   1.337  10.121   2.271
78532W        W46926   6.677  39.342  13.917
78533W        W46927  37.805  42.856   3.390
78534W        W46928   1.800  41.753   4.059
78535W        W46929  29.137  30.226   2.865
78536W        W46930  24.616  17.168  14.549
78537W        W46931  21.634  44.721  13.328
78538W        W46932  39.216   6.139   3.669
78539W        W46933   2.208  17.551   3.332
78540W        W46934  36.854  16.751  12.022
78541W        W46935  20.931  21.308  11.053
78542W        W46936  10.672  10.756   2.851
78543W        W46937  22.965  36.927  10.734
78544W        W46938  16.750  31.906  14.303
78545W        W46939  14.608  19.579  12.921
78546W        W46940  43.905   1.913   1.751
78547W        W46941  13.529  16.322  11.063
78548W        W46942  12.568  23.478  14.477
78549W        W46943  20.432  12.704   2.146
78550W        W46944  40.488  28.040   2.466
78551W        W46945  44.729  34.105   3.179
78552W        W46946   6.620  11.695   1.702
78553W        W46947   0.375   8.774   4.352
78554W        W46948  24.066  19.119   0.751
78555W        W46949  27.004  29.471  12.063
78556W        W46950  30.746  27.769  14.999
78557W        W46951  31.418  31.548  13.903
78558W        W46952  35.816  38.307  12.701
78559W        W46953  43.586  38.890   4.208
78560W        W46954  18.175  25.722   4.696
78561W        W46955  18.642   5.131   3.283
78562W        W46956  20.509   0.550  11.673
78563W        W46957  30.482   4.961   0.486
78564W        W46958  41.295  36.375  12.442
78565W        W46959  44.043  34.451  13.671
78566W        W46960  38.827  41.406   3.344
78567W        W46961   9.639  24.757  11.006
78568W        W46962   7.933  43.606   3.803
78569W        W46963  41.242   8.150   3.243
78570W        W46964  31.522  21.584  12.885
78571W        W46965  11.656  34.499  10.796
78572W        W46966  19.527  34.040   1.332
78573W        W46967  39.216  33.956   2.683
78574W        W46968  31.011  24.544  10.626
78575W        W46969  10.384   5.830   4.533
78576W        W46970  40.981   7.339   1.642
78577W        W46971   0.286  31.383   1.731
78578W        W46972   6.717  27.107  11.508
78579W        W46973  21.517   6.284   0.395
78580W        W46974  44.693  20.260   0.692
78581W        W46975  33.693  21.805  12.401
78582W        W46976  24.577  27.714   0.923
78583W        W46977  44.261  22.676   3.330
78584W        W46978  16.276  24.005  11.280
78585W        W46979  20.210  15.402   3.331
78586W        W46980  11.411  20.624   4.359
78587W        W46981   2.629  43.549  14.108
78588W        W46982  42.561  15.631   3.158
78589W        W46983  25.928  10.208   0.419
78590W        W46984  18.633  11.832   3.852
78591W        W46985  18.444   5.829   2.147
78592W        W46986   1.015   1.120  11.512
78593W        W46987  29.156  35.772  13.794
78594W        W46988  39.561  16.446  12.640
78595W        W46989  33.910  27.385   1.027
78596W        W46990   5.246  19.682   1.251
78597W        W46991  31.553  17.606  12.211
78598W        W46992  13.138  43.003   1.269
78599W        W46993   8.191  26.588  14.496
78600W        W46994  17.776  32.640  12.705
78601W        W46995  20.431  28.718   0.711
78602W        W46996  20.438   3.790  10.660
78603W        W46997  42.428  23.668   0.468
78604W        W46998   4.604  25.112   4.508
78605W        W46999  24.549  14.630  12.894
78606W        W47000  30.435   7.114  13.584
78607W        W47001   3.324  11.449  11.244
78608W        W47002  30.826  26.015   2.560
78609W        W47003  31.343  25.564  11.964
78610W        W47004  18.898   4.702   5.196
78611W        W47005  29.970  12.195   3.266
78612W        W47006  40.926   3.727   2.006
78613W        W47007  16.011  42.068   2.733
78614W        W47008   2.890  19.028   2.784
78615W        W47009   8.164  43.519   0.760
78616W        W47010  34.794  17.647  14.802
78617W        W47011  31.026  35.953  11.469
78618W        W47012  36.688  44.375  13.957
78619W        W47013  21.441  35.886   4.930
78620W        W47014  23.893  17.057  11.640
78621W        W47015   4.425  38.609  14.432
78622W        W47016  41.844  27.082  10.437
78623W        W47017  40.376  34.187   1.150
78624W        W47018   5.230  27.984  13.818
78625W        W47019  32.266  43.915  13.146
78626W        W47020   8.817  30.532  11.886
78627W        W47021  22.740  41.313   0.906
78628W        W47022  39.296   9.726   3.209
78629W        W47023  23.737  43.563   3.801
78630W        W47024  33.767  12.245   0.680
78631W        W47025   0.216  18.227  13.337
78632W        W47026  40.295  10.843   1.951
78633W        W47027   1.945  28.710   1.511
78634W        W47028  36.175  33.953  12.406
78635W        W47029   5.412  40.740  14.832
78636W        W47030  35.130  39.626   3.219
78637W        W47031  40.092  37.811  10.681
78638W        W47032  15.190  22.194   3.886
78639W        W47033  12.146   0.117   4.320
78640W        W47034  20.142  10.669   2.816
78641W        W47035  38.841   1.760  12.498
78642W        W47036  13.413   3.919   0.836
78643W        W47037  38.798  40.399  13.287
78644W        W47038   9.896   0.832  14.838
78645W        W47039  16.007  12.847   4.211
78646W        W47040  27.346  20.849  11.114
78647W        W47041  38.298  19.075   2.756
78648W        W47042  28.888  21.664   3.362
78649W        W47043  33.706  19.730  13.504
78650W        W47044   8.357  11.197   0.969
78651W        W47045  20.347  27.676   1.687
78652W        W47046  44.053   7.710   4.638
78653W        W47047  26.090  17.391  14.833
78654W        W47048  44.131  14.230   4.093
78655W        W47049  38.570  28.462  12.026
78656W        W47050  37.816  17.094  11.973
78657W        W47051  39.397   3.448  13.836
78658W        W47052  20.966   7.959  13.517
78659W        W47053  10.652   8.001   0.203
78660W        W47054  27.486  34.355   4.146
78661W        W47055  21.101  12.288  13.856
78662W        W47056   5.957  26.175  11.154
78663W        W47057  42.897  41.081   4.544
78664W        W47058  32.486  31.032   3.579
78665W        W47059  20.639  15.644  12.895
78666W        W47060  35.186  39.564   1.848
78667W        W47061  29.664  28.645   2.082
78668W        W47062  35.348  28.465  13.694
78669W        W47063  11.355  37.046  10.402
78670W        W47064   9.665   2.701  14.983
78671W        W47065   3.691  39.927  11.588
78672W        W47066  28.988  31.543  12.864
78673W        W47067  23.303  19.792   1.744
78674W        W47068  12.417   4.152   1.212
78675W        W47069   3.851   9.800  12.474
78676W        W47070  37.800  38.524  10.715
78677W        W47071  27.850  22.296  14.349
78678W        W47072  36.351   7.517  10.791
78679W        W47073  37.971  27.316   5.062
78680W        W47074  15.606  35.855   1.744
78681W        W47075   5.594   9.672   1.020
78682W        W47076  14.302  39.569   0.893
78683W        W47077  18.365   8.037  10.190
78684W        W47078  40.518  33.396   2.087
78685W        W47079  40.557  13.139   0.883
78686W        W47080  36.103   9.110   3.951
78687W        W47081  41.578  21.250  13.396
78688W        W47082  25.046  34.677  11.833
78689W        W47083   0.922  33.596  13.001
78690W        W47084   7.954  32.468   4.358
78691W        W47085  36.420  26.052   0.145
78692W        W47086  37.479   0.257  14.869
78693W        W47087   6.919  16.607  13.373
78694W        W47088  16.018  40.150   3.269
78695W        W47089  13.239  33.914   0.930
78696W        W47090  27.504   4.480  13.466
78697W        W47091  16.550  11.203   3.663
78698W        W47092  18.688  41.397  11.483
78699W        W47093  40.483   1.956  11.198
78700W        W47094  29.682  10.138   0.817
78701W        W47095  32.128   2.360   2.599
78702W        W47096   5.623   7.369   1.326
78703W        W47097  39.552   8.343  12.479
78704W        W47098  13.093  15.110   3.250
78705W        W47099  14.607  15.240  13.339
78706W        W47100  21.774   7.687   2.182
78707W        W47101  32.798   4.954  12.897
78708W        W47102  34.477   2.357   0.701
78709W        W47103   3.822   6.240   2.862
78710W        W47104   4.664   9.231  11.056
78711W        W47105  28.998  23.129  14.104
78712W        W47106  16.321  21.465  13.214
78713W        W47107  34.025   7.809  12.610
78714W        W47108  29.044   6.110  13.948
78715W        W47109  35.489  23.127  11.019
78716W        W47110  33.788  26.933   2.886
78717W        W47111  37.033  10.680   1.690
78718W        W47112  35.358  19.056  13.357
78719W        W47113  37.896  21.698  13.635
78720W        W47114  11.256  11.337  10.895
78721W        W47115  26.528  24.250  12.632
78722W        W47116  25.605  43.567   2.929
78723W        W47117  12.106  29.057  14.008
78724W        W47118   7.819  35.213   4.606
78725W        W47119   1.379  15.736   0.298
78726W        W47120   3.995  14.636  13.893
78727W        W47121  35.821  37.029   3.254
78728W        W47122  18.629  22.067   3.647
78729W        W47123  12.606  30.875  10.553
78730W        W47124  39.730  11.706  14.848
78731W        W47125   1.871   2.267   0.350
78732W        W47126   4.165  24.770  13.268
78733W        W47127  17.510  44.979   0.328
78734W        W47128  25.798   2.328   5.039
78735W        W47129  13.288  15.264   1.829
78736W        W47130  41.512   6.848   1.931
78737W        W47131  12.747  27.778  12.519
78738W        W47132  28.449   5.411   3.646
78739W        W47133  39.964  18.085  11.248
78740W        W47134  32.826  18.099   2.216
78741W        W47135  26.138  41.671   1.929
78742W        W47136  26.148  21.135  12.167
78743W        W47137  38.472   2.234   4.610
78744W        W47138   3.953  39.136  12.047
78745W        W47139  23.218   7.059  11.958
78746W        W47140  21.648  41.030   3.455
78747W        W47141  12.346  10.864  11.096
78748W        W47142  16.749  11.748  12.786
78749W        W47143  35.297  12.773  13.509
78750W        W47144  27.608  10.836   4.370
78751W        W47145  24.441  18.639  14.507
78752W        W47146  21.442  10.889   2.833
78753W        W47147  40.400  27.560  12.971
78754W        W47148  30.641  36.336  13.880
78755W        W47149   5.422  22.128  11.080
78756W        W47150  40.586  38.932   2.284
78757W        W47151   3.707  36.804  11.641
78758W        W47152  17.880   7.470  11.578
78759W        W47153  11.250  32.819   0.217
78760W        W47154  37.385  29.749  14.972
78761W        W47155  16.586  21.334  14.581
78762W        W47156  36.978  21.102   0.467
78763W        W47157  19.239   2.070   4.600
78764W        W47158  15.256  34.329   0.150
78765W        W47159  23.039  40.310   0.827
78766W        W47160   2.488  44.527   0.774
78767W        W47161  19.048  20.462   0.811
78768W        W47162  16.372  17.667   1.410
78769W        W47163  10.360   9.122   1.460
78770W        W47164   7.134  40.324  11.160
78771W        W47165  24.475  43.938  11.562
78772W        W47166  24.477  21.980   0.081
78773W        W47167  36.342  16.872  11.092
78774W        W47168  41.830   9.724  11.859
78775W        W47169  33.029  19.048   2.434
78776W        W47170  22.654  14.107   1.902
78777W        W47171  40.413   3.667   4.182
78778W        W47172  42.326  16.045   4.213
78779W        W47173  21.818   0.418   0.139
78780W        W47174  32.619   4.397  13.302
78781W        W47175  44.538  41.693  14.916
78782W        W47176   2.130  42.050  12.372
78783W        W47177  32.933  36.067   1.898
78784W        W47178  19.591  42.840   2.140
78785W        W47179  32.019  10.816  10.694
78786W        W47180  16.108  20.607   4.746
78787W        W47181  42.261   8.256   0.777
78788W        W47182  17.674   5.210   3.636
78789W        W47183  14.517  31.886   3.678
78790W        W47184  29.098  40.440  10.717
78791W        W47185  29.476  24.754  13.624
78792W        W47186  27.078  24.076  14.869
78793W        W47187   2.426  33.947  12.051
78794W        W47188  20.334  32.626  14.087
78795W        W47189   3.382  24.219   2.191
78796W        W47190   8.604  25.084   1.762
78797W        W47191   3.417  28.312   2.286
78798W        W47192  27.927   5.348  14.846
78799W        W47193  25.614  40.664  13.353
78800W        W47194  10.123  24.610  10.826
78801W        W47195   1.300  16.888  12.266
78802W        W47196   3.718  18.237   0.178
78803W        W47197  22.481  44.160  13.529
78804W        W47198   9.105  38.467   1.163
78805W        W47199  38.942  22.732  10.639
78806W        W47200  28.127  11.179  13.031
78807W        W47201  30.439  21.984   1.328
78808W        W47202  41.931  20.501  11.225
78809W        W47203  29.138  41.216  14.928
78810W        W47204   8.142  18.516   2.178
78811W        W47205  21.903  31.441  14.656
78812W        W47206  24.072  36.473   2.678
78813W        W47207   9.538  17.265  11.638
78814W        W47208  26.842   0.251   0.471
78815W        W47209  23.044  29.916  10.937
78816W        W47210  17.620  42.828  14.874
78817W        W47211  14.914   5.407  10.682
78818W        W47212  37.814  20.973  11.391
78819W        W47213  28.569   1.244   0.046
78820W        W47214  32.343  28.581   0.457
78821W        W47215  43.400  37.067  14.295
78822W        W47216  14.302  36.578  13.900
78823W        W47217  37.499  13.698   0.348
78824W        W47218  36.878  33.953  11.942
78825W        W47219  24.960  21.106   0.944
78826W        W47220  38.348  44.507   0.524
78827W        W47221  14.693  41.323  13.897
78828W        W47222   1.780  14.216  10.650
78829W        W47223   0.503  41.240  13.933
78830W        W47224  25.032  35.586   4.183
78831W        W47225  10.936  28.941  11.950
78832W        W47226  14.604   4.345  14.377
78833W        W47227  37.840   5.286  13.755
78834W        W47228   3.272  27.090  11.412
78835W        W47229  18.567  32.526   2.683
78836W        W47230  16.603  30.560  10.729
78837W        W47231  32.928  11.203   0.498
78838W        W47232  12.337  32.918   3.096
78839W        W47233  43.731   6.396   4.138
78840W        W47234  39.470  42.514   3.168
78841W        W47235  19.437  37.550  10.199
78842W        W47236  24.205   6.355   1.911
78843W        W47237  35.238   4.246  11.661
78844W        W47238  41.429   0.376   1.316
78845W        W47239  16.236   7.698   3.001
78846W        W47240  17.283   8.196   0.422
78847W        W47241  44.643  36.880  13.987
78848W        W47242  16.643   1.199  12.164
78849W        W47243  26.522  14.684  13.021
78850W        W47244   3.718  10.082  12.878
78851W        W47245  36.007  13.438  12.057
78852W        W47246  37.464  31.842   2.646
78853W        W47247  13.294   4.162  11.183
78854W        W47248   5.940  14.328  13.835
78855W        W47249  23.165  15.561   2.291
78856W        W47250  18.115  17.759   3.132
78857W        W47251  29.401   0.441  12.102
78858W        W47252  14.786  28.742   0.325
78859W        W47253  35.789  13.772  10.839
78860W        W47254   7.016   5.080   3.370
78861W        W47255  41.396  38.915  10.835
78862W        W47256   0.310  39.830   4.569
78863W        W47257   3.282   5.802   0.811
78864W        W47258  13.329  35.489  12.588
78865W        W47259   7.204   8.897  13.744
78866W        W47260  20.630  30.117   4.869
78867W        W47261  26.179  11.386  11.183
78868W        W47262   1.781  11.796   3.176
78869W        W47263  41.567  12.330   1.802
78870W        W47264  27.173  31.568   4.164
78871W        W47265  33.375  42.744   3.790
78872W        W47266  23.036  23.230  13.442
78873W        W47267  25.138  21.788   4.664
78874W        W47268   9.180   0.730  13.338
78875W        W47269   8.668   0.551  14.820
78876W        W47270  25.255  13.626  11.285
78877W        W47271  43.531  11.278   4.038
78878W        W47272   5.762  15.195   5.076
78879W        W47273  24.455  21.171   1.143
78880W        W47274  14.293  44.797   2.230
78881W        W47275   7.776  22.224   4.656
78882W        W47276  16.843  26.579   4.026
78883W        W47277  40.167   5.670  12.404
78884W        W47278  14.571   0.904  12.115
78885W        W47279  17.466  12.644  11.989
78886W        W47280  42.576  12.836   0.383
78887W        W47281  12.439  28.114   3.443
78888W        W47282   7.708  12.910   5.215
78889W        W47283  21.377  38.335   4.040
78890W        W47284  13.136  32.111   2.744
78891W        W47285  32.777  30.004   3.738
78892W        W47286   6.910  41.065   1.434
78893W        W47287   4.276   3.602   4.215
78894W        W47288   8.185   8.816   2.002
78895W        W47289  40.814  31.009   2.929
78896W        W47290   3.980  18.589   2.382
78897W        W47291  34.812  12.933   3.509
78898W        W47292  35.389  34.440   4.566
78899W        W47293  21.312  26.446   9.625
78900W        W47294   1.368  28.214  11.515
78901W        W47295  36.110  14.634  10.566
78902W        W47296  23.235  37.921   4.399
78903W        W47297   0.021  23.385   1.058
78904W        W47298  38.398  24.595  13.029
78905W        W47299  31.468   6.659   2.127
78906W        W47300  36.778   1.814   1.635
78907W        W47301  19.693  31.220   0.246
78908W        W47302  17.435  19.175  10.379
78909W        W47303   9.694  17.368   1.282
78910W        W47304  26.183  10.132   2.854
78911W        W47305  13.777  24.003  14.406
78912W        W47306  22.231  20.457  12.097
78913W        W47307  11.047  14.129   0.931
78914W        W47308  44.282  41.762  10.608
78915W        W47309  22.135  40.856   3.305
78916W        W47310  22.121  32.451   0.650
78917W        W47311   7.560  32.788   0.938
78918W        W47312  19.459   6.873   3.209
78919W        W47313   2.931  15.075   1.183
78920W        W47314   7.427  25.296  12.518
78921W        W47315  24.796  43.411   2.663
78922W        W47316  31.868  17.633  13.675
78923W        W47317  30.765  28.644   2.504
78924W        W47318  18.891  43.806   3.351
78925W        W47319  14.027  29.967  13.341
78926W        W47320  36.483  34.590  10.607
78927W        W47321  42.873   4.018   4.313
78928W        W47322  25.085  24.965   0.487
78929W        W47323  38.355  32.885  12.191
78930W        W47324   8.830  30.909  10.572
78931W        W47325  35.892   5.603  10.401
78932W        W47326  32.385  15.426   3.671
78933W        W47327  25.022  41.936   4.575
78934W        W47328  19.757   8.625  13.940
78935W        W47329  24.261   6.394  11.432
78936W        W47330  25.118   7.665  11.563
78937W        W47331  18.218   8.434   0.716
78938W        W47332  31.940  30.801   0.799
78939W        W47333  24.163  17.036   3.834
78940W        W47334  39.083   6.582  10.957
78941W        W47335   1.688  15.345  14.433
78942W        W47336  12.235  31.878  12.519
78943W        W47337  25.413  15.072   1.370
78944W        W47338   5.182  26.261   2.339
78945W        W47339  25.733  26.753   4.599
78946W        W47340  36.331  24.324   1.098
78947W        W47341  42.367  25.252   1.857
78948W        W47342  30.660  37.434  14.420
78949W        W47343  17.195  11.789   2.665
78950W        W47344   2.462  43.595   0.929
78951W        W47345   2.692   0.234   3.090
78952W        W47346  16.394   2.365  13.190
78953W        W47347   4.131  36.499   4.720
78954W        W47348   5.699  27.456   2.664
78955W        W47349  11.843  42.386  14.892
78956W        W47350   3.532   8.332  14.905
78957W        W47351  42.876  31.797  12.585
78958W        W47352  31.181  36.362  12.159
78959W        W47353  43.283  39.114   2.271
78960W        W47354  44.021  32.164   3.656
78961W        W47355  32.093  36.929   1.257
78962W        W47356  44.264  22.583  14.252
78963W        W47357  21.443  42.353  12.449
78964W        W47358  21.170  44.530  12.718
78965W        W47359  20.600  34.975   2.495
78966W        W47360  42.054  11.820  14.542
78967W        W47361  40.871   1.895  14.369
78968W        W47362   4.396   7.266   1.685
78969W        W47363  38.956  44.450  10.086
78970W        W47364  17.259   3.264   0.066
78971W        W47365  30.822   1.152  14.562
78972W        W47366  31.847  19.218   0.253
78973W        W47367   2.981   6.828  10.988
78974W        W47368  44.906  41.124   1.319
78975W        W47369  35.582  13.673   0.854
78976W        W47370  24.415  22.631  12.453
78977W        W47371  23.712  12.345  13.477
78978W        W47372  29.149  22.500   2.909
78979W        W47373  44.704  33.988   1.299
78980W        W47374  32.286   7.352   4.265
78981W        W47375  25.280  44.879  12.051
78982W        W47376  42.842  22.780   0.524
78983W        W47377  19.060  10.503  12.989
78984W        W47378  25.591  24.956   1.248
78985W        W47379  11.261   9.999  11.162
78986W        W47380   6.371  43.471   4.599
78987W        W47381  43.223   9.288  14.491
78988W        W47382   0.279  43.457   4.467
78989W        W47383   3.443  30.507   4.160
78990W        W47384  16.160  40.946  11.923
78991W        W47385  29.192   7.116   2.335
78992W        W47386  44.811  25.957   4.627
78993W        W47387  31.472  17.082   3.161
78994W        W47388  21.313   6.269  12.039
78995W        W47389   6.669  18.297  11.981
78996W        W47390  33.279  32.475  13.652
78997W        W47391  20.322  29.430   3.311
78998W        W47392  33.284   7.368   0.023
78999W        W47393  16.160   8.185   0.341
79000W        W47394   0.506   8.320   2.192
79001W        W47395  21.545   4.049   4.390
79002W        W47396  20.635  29.285   3.681
79003W        W47397  28.972  17.104   2.738
79004W        W47398  31.928  33.424  12.989
79005W        W47399  44.066  21.114  11.469
79006W        W47400  24.769  41.047  10.662
79007W        W47401  20.502   6.297  13.491
79008W        W47402  13.718  38.905  14.255
79009W        W47403  40.644  13.617   4.783
79010W        W47404   5.516   1.712   0.870
79011W        W47405   5.479  42.888  12.542
79012W        W47406  16.257  28.254  10.608
79013W        W47407  37.532  10.875  12.526
79014W        W47408   0.675  26.630   2.100
79015W        W47409  29.697  14.155  10.284
79016W        W47410  16.234   2.937   1.902
79017W        W47411  30.076  44.928  11.842
79018W        W47412  34.842   9.273   2.337
79019W        W47413  41.016  25.579  13.087
79020W        W47414  42.473  34.512  11.886
79021W        W47415   5.859   8.248   3.219
79022W        W47416  38.502  38.069   3.558
79023W        W47417  10.686   5.541   2.912
79024W        W47418  13.484  25.433   3.203
79025W        W47419  23.728  30.630  14.242
79026W        W47420  31.493  28.171  12.928
79027W        W47421  16.640   0.031   0.748
79028W        W47422  25.917   1.812   0.469
79029W        W47423   3.785  36.840   1.388
79030W        W47424  11.982  26.893  11.608
79031W        W47425  13.306   4.364  13.160
79032W        W47426  19.167  16.864  11.093
79033W        W47427  25.070  24.041  14.025
79034W        W47428   9.587  10.405   1.909
79035W        W47429  20.375  32.019  11.598
79036W        W47430  15.172  28.226   2.620
79037W        W47431   2.013   7.809  11.645
79038W        W47432  14.614   0.946  14.816
79039W        W47433   1.883  23.750  14.421
79040W        W47434  41.775  31.072   0.431
79041W        W47435  24.648  26.503  14.558
79042W        W47436  40.543  14.155   2.568
79043W        W47437  13.503  17.866   4.112
79044W        W47438  27.559  43.821   4.191
79045W        W47439  15.730  43.411  13.821
79046W        W47440  12.208   7.485   2.745
79047W        W47441  21.217  32.936   1.498
79048W        W47442  25.155  23.571  13.845
79049W        W47443   0.488  39.480   2.770
79050W        W47444  20.084   2.303   3.719
79051W        W47445  44.990   9.668  11.048
79052W        W47446  31.681   9.115   3.189
79053W        W47447  23.239  35.176  12.069
79054W        W47448  21.628  30.450  11.998
79055W        W47449  12.118   5.854   3.672
79056W        W47450  32.955  26.656   3.185
79057W        W47451  12.463  41.458  12.089
79058W        W47452  15.039  41.810   3.666
79059W        W47453  39.867  13.254   3.709
79060W        W47454  38.960  14.026   2.604
79061W        W47455  17.974  26.736   3.751
79062W        W47456  31.461  20.830   0.095
79063W        W47457  12.078  10.389   1.839
79064W        W47458  16.135  10.660  13.046
79065W        W47459   6.872  14.563  14.025
79066W        W47460   6.405  14.309   5.282
79067W        W47461  17.441  37.448  11.169
79068W        W47462   9.713  32.793  13.401
79069W        W47463  23.959  30.383   1.445
79070W        W47464  44.689  43.941   1.225
79071W        W47465   8.609  29.140  11.880
79072W        W47466  13.208  33.764  14.494
79073W        W47467  16.206   2.213   2.427
79074W        W47468  19.758  30.703  13.552
79075W        W47469  28.245  21.401   0.720
79076W        W47470   9.829  35.474   2.614
79077W        W47471  35.684  32.109   4.155
79078W        W47472  33.935   5.879   0.840
79079W        W47473   2.012  25.586  14.927
79080W        W47474  28.494  37.478  12.439
79081W        W47475  17.915  41.202   5.237
79082W        W47476  18.116  10.773  11.654
79083W        W47477  10.210  23.747   0.889
79084W        W47478  19.997  42.824   4.519
79085W        W47479  21.567  29.904   4.211
79086W        W47480  19.176   4.939   1.757
79087W        W47481  33.919  18.143  13.929
79088W        W47482  33.741   1.692   4.465
79089W        W47483   1.585  35.950   3.642
79090W        W47484  29.747   1.462  14.013
79091W        W47485   2.808  36.036   2.733
79092W        W47486  15.662  28.131   2.784
79093W        W47487  38.841   1.724   0.971
79094W        W47488  31.622  19.101   2.422
79095W        W47489  15.090  29.133  12.433
79096W        W47490   8.991  19.124   4.234
79097W        W47491   6.377  23.475  13.997
79098W        W47492   3.940   7.226   1.948
79099W        W47493  17.443  40.894   2.400
79100W        W47494  21.364  18.058   1.303
79101W        W47495   6.455  40.223  14.003
79102W        W47496  12.730  33.520   3.737
79103W        W47497  23.749  37.362  12.564
79104W        W47498   3.552  20.053  11.060
79105W        W47499  20.754  27.652  13.926
79106W        W47500  23.262  39.801   1.867
79107W        W47501  38.021  11.195  14.513
79108W        W47502  43.073  44.826  13.410
79109W        W47503  24.338  16.783  11.577
79110W        W47504  26.668  11.336   4.172
79111W        W47505  35.452   2.828   1.278
79112W        W47506  11.259  15.411  10.680
79113W        W47507  20.296  26.244  11.991
79114W        W47508  33.594  16.616  10.594
79115W        W47509   8.336  38.945   1.602
79116W        W47510   6.343  16.846  12.052
79117W        W47511  22.466  15.176   9.831
79118W        W47512  31.852   5.856   3.701
79119W        W47513  28.521  11.367   1.923
79120W        W47514  28.436  44.840  14.578
79121W        W47515  35.934  37.468   0.931
79122W        W47516  13.613  18.557   3.680
79123W        W47517  17.108  43.861   0.324
79124W        W47518   0.493  27.524   0.335
79125W        W47519  29.610  21.077  10.549
79126W        W47520  22.516  12.256   1.129
79127W        W47521  30.181   5.505  14.388
79128W        W47522  27.990  29.793  14.288
79129W        W47523  43.058  41.438  12.485
79130W        W47524  26.480  25.052   2.930
79131W        W47525   1.806   6.395  14.067
79132W        W47526  33.185  24.291  12.636
79133W        W47527  26.744  15.051   0.821
79134W        W47528  29.974   1.985  12.049
79135W        W47529  32.381  14.841   2.251
79136W        W47530  36.446  25.531   0.377
79137W        W47531  32.474  24.304   1.210
79138W        W47532   9.313  13.291   4.769
79139W        W47533  31.577  33.173   4.056
79140W        W47534   9.224   0.028  11.656
79141W        W47535  11.201  26.918  12.972
79142W        W47536  32.514  11.726  12.926
79143W        W47537  22.752   1.460  12.024
79144W        W47538  27.094  44.016  13.785
79145W        W47539  32.008   3.445  10.222
79146W        W47540  29.251   7.108  14.054
79147W        W47541  33.224  33.921   3.238
79148W        W47542   7.198  38.798   2.283
79149W        W47543  25.915  25.727  11.592
79150W        W47544   4.886  13.293   2.663
79151W        W47545  42.393   3.852  13.288
79152W        W47546  40.246  44.317   3.778
79153W        W47547  33.548   1.502  10.492
79154W        W47548  31.044   6.358  14.322
79155W        W47549   1.499  39.043  14.259
79156W        W47550  44.884  29.568  13.305
79157W        W47551  32.474  31.186   2.514
79158W        W47552  19.553  24.689  10.195
79159W        W47553  28.895  44.775   4.566
79160W        W47554  34.870  11.586   5.092
79161W        W47555   8.807   5.679   4.227
79162W        W47556  42.265  26.905  10.710
79163W        W47557   5.457   2.916  11.981
79164W        W47558  17.528  26.114  12.658
79165W        W47559   4.304  41.119   3.801
79166W        W47560  21.262  41.278  10.762
79167W        W47561   0.890  10.598   1.757
79168W        W47562  35.137  21.650   2.958
79169W        W47563   2.972  20.772   1.732
79170W        W47564  17.225   4.759   1.373
79171W        W47565  35.090  31.529   0.993
79172W        W47566  21.030  15.217  13.938
79173W        W47567  38.319   7.861  11.677
79174W        W47568  25.709  13.623   2.683
79175W        W47569   5.264  27.706   4.677
79176W        W47570  18.033  22.708  12.054
79177W        W47571  13.194  30.859   0.855
79178W        W47572   8.181  29.615   0.923
79179W        W47573  22.016  10.205  14.038
79180W        W47574  38.863  13.885  12.975
79181W        W47575  33.725   8.359  14.017
79182W        W47576   0.905  13.105   1.737
79183W        W47577  44.098  30.385   3.242
79184W        W47578   2.841  10.395   4.085
79185W        W47579  35.013   5.442   1.249
79186W        W47580  11.998  12.995   4.122
79187W        W47581  11.312   0.132  13.621
79188W        W47582  20.983  33.148   0.942
79189W        W47583  42.895  33.157  10.658
79190W        W47584  14.617  24.679  14.142
79191W        W47585  19.334   3.913   2.854
79192W        W47586  43.685  41.001   3.281
79193W        W47587  15.817   7.704  11.138
79194W        W47588   0.442   2.161  10.324
79195W        W47589  25.062  41.886   2.397
79196W        W47590  35.226   7.956  12.839
79197W        W47591  18.328  36.137  10.688
79198W        W47592  44.379  29.845  14.542
79199W        W47593  32.559  27.639   3.575
79200W        W47594   7.829  34.171  10.701
79201W        W47595  30.871  33.265   4.661
79202W        W47596  41.467  10.181  10.690
79203W        W47597  28.139  15.295  11.163
79204W        W47598  16.563  41.151  12.970
79205W        W47599  16.223  31.427   4.136
79206W        W47600  36.254  19.287   3.813
79207W        W47601  25.113  21.327  10.763
79208W        W47602  29.377  43.970   2.165
79209W        W47603  32.624  34.588  14.428
79210W        W47604  19.092  14.194  14.225
79211W        W47605   3.438  34.893  13.848
79212W        W47606  41.192   8.424  14.352
79213W        W47607  37.182   3.318  14.422
79214W        W47608  41.284  33.444  13.951
79215W        W47609  25.463  38.013   1.199
79216W        W47610  31.076  32.042  10.435
79217W        W47611  15.932  35.412   4.664
79218W        W47612   4.822  30.571   3.799
79219W        W47613  33.104  29.228   1.482
79220W        W47614  23.677  42.320  13.925
79221W        W47615   1.257   5.663  14.335
79222W        W47616  43.293   3.834  11.472
79223W        W47617  41.408  19.445   4.558
79224W        W47618   7.507  28.138  11.194
79225W        W47619  14.410  15.051  11.976
79226W        W47620   2.192  29.987   2.494
79227W        W47621  32.845  18.097  12.924
79228W        W47622   4.549  34.365  12.976
79229W        W47623  42.324  22.045   1.202
79230W        W47624  11.771   0.749  13.523
79231W        W47625  35.033  35.593   0.181
79232W        W47626   2.409  38.562  13.788
79233W        W47627   1.430   2.700   4.141
79234W        W47628  20.726  11.694   3.691
79235W        W47629  10.263  32.643  11.072
79236W        W47630  23.167   7.213  12.476
79237W        W47631  37.961  24.435   3.320
79238W        W47632  28.658  10.741  12.568
79239W        W47633   2.680   5.287   1.261
79240W        W47634  40.999   9.367   1.032
79241W        W47635  40.506  18.649   3.602
79242W        W47636  22.265  19.618   0.875
79243W        W47637  38.922  21.905  12.328
79244W        W47638  12.784  15.541   0.741
79245W        W47639  39.298   1.246  13.814
79246W        W47640  19.177  13.459  13.082
79247W        W47641  42.946  41.313  14.968
79248W        W47642  13.312  35.844   4.656
79249W        W47643  14.724  22.024   4.590
79250W        W47644   1.474  35.883  14.466
79251W        W47645   7.735  38.588  11.213
79252W        W47646   3.625  44.775   3.093
79253W        W47647  12.292  22.113  14.344
79254W        W47648  18.088  17.501   1.895
79255W        W47649  37.257  20.135  11.620
79256W        W47650  27.009   3.636  11.158
79257W        W47651   6.772  44.370   1.476
79258W        W47652  38.118  23.125   3.591
79259W        W47653  28.542  28.469   0.874
79260W        W47654   5.869  41.741  14.498
79261W        W47655  35.957  40.744   2.355
79262W        W47656  28.134  32.884  12.451
79263W        W47657   8.644  31.128  11.591
79264W        W47658  10.662   3.933   0.084
79265W        W47659  44.043  42.447  11.968
79266W        W47660  25.557  44.393  14.347
79267W        W47661  25.439  20.351   2.563
79268W        W47662  17.610  30.860   3.223
79269W        W47663   5.239  39.943   2.871
79270W        W47664  35.038   5.843   0.530
79271W        W47665   5.756  13.318  14.712
79272W        W47666  40.022  33.119  13.830
79273W        W47667  37.386  31.318   3.359
79274W        W47668  29.345  27.420  14.524
79275W        W47669  43.021  34.905   1.332
79276W        W47670  29.200  32.506   1.044
79277W        W47671  13.734  20.489   1.302
79278W        W47672  39.007  15.742   3.122
79279W        W47673  31.005   1.905  13.913
79280W        W47674  41.734  21.533   4.999
79281W        W47675  38.876  30.122   3.018
79282W        W47676  41.205  33.370  11.952
79283W        W47677   7.869  18.712  12.170
79284W        W47678  22.209  31.369   3.133
79285W        W47679  18.750  38.459   4.017
79286W        W47680  23.499  23.244  12.059
79287W        W47681  41.033  15.327   3.930
79288W        W47682  20.933  39.550   1.753
79289W        W47683  22.175  27.994  12.396
79290W        W47684  41.469  13.498  14.278
79291W        W47685  40.397  39.879   0.807
79292W        W47686  27.609  20.554   1.737
79293W        W47687  14.983   0.818   3.893
79294W        W47688   1.293  41.732  14.545
79295W        W47689  31.096  25.103   4.442
79296W        W47690   4.511  41.583  14.795
79297W        W47691  13.815  30.652   3.685
79298W        W47692  18.121  18.716   3.038
79299W        W47693  43.572   4.158  13.964
79300W        W47694   3.983   5.814   2.315
79301W        W47695  29.809  36.006   1.900
79302W        W47696   0.719  43.355  14.540
79303W        W47697  28.116  13.087  11.103
79304W        W47698  26.288  13.587   1.840
79305W        W47699  29.586  33.943  11.416
79306W        W47700  27.529   5.719  10.638
79307W        W47701  39.961  20.176  12.084
79308W        W47702  10.186   2.314   0.599
79309W        W47703  20.724  43.222  12.087
79310W        W47704   9.695  35.036  14.710
79311W        W47705  38.573  22.554   0.068
79312W        W47706  32.559  20.057   1.398
79313W        W47707   0.834  32.080   0.233
79314W        W47708   1.868   3.186   1.348
79315W        W47709  43.665   3.499   3.556
79316W        W47710  13.291  23.545   0.192
79317W        W47711  11.221   0.969  11.999
79318W        W47712  33.465  19.511   3.265
79319W        W47713   6.485   4.457   0.732
79320W        W47714   2.345  10.579  13.551
79321W        W47715  27.452  19.596  13.876
79322W        W47716  29.975  31.531  14.843
79323W        W47717  29.946  28.208   2.233
79324W        W47718  38.881  43.491   0.370
79325W        W47719  11.709   5.048   5.236
79326W        W47720  11.853   7.093  11.102
79327W        W47721   6.721  34.610   3.902
79328W        W47722  18.450  24.738   2.665
79329W        W47723  11.433  33.839   0.444
79330W        W47724  42.400   8.358   4.860
79331W        W47725  14.550   2.357   1.458
79332W        W47726  11.175  28.211   1.306
79333W        W47727   7.520  28.398  12.136
79334W        W47728  14.377   6.460  12.930
79335W        W47729  29.514  19.687   3.870
79336W        W47730  23.838  35.975   4.272
79337W        W47731  33.077  34.352   0.170
79338W        W47732  35.493  31.608   4.101
79339W        W47733   5.655  38.191   3.224
79340W        W47734  41.130  33.076   1.236
79341W        W47735  25.261  41.584  14.266
79342W        W47736   8.235  16.767  13.753
79343W        W47737  14.235  35.401   2.595
79344W        W47738  12.143   0.893  14.745
79345W        W47739  26.019   2.876  14.258
79346W        W47740   0.743  37.850   3.275
79347W        W47741   6.364  37.389   4.592
79348W        W47742   8.299  35.559  14.836
79349W        W47743  40.543  44.171   4.190
79350W        W47744   4.259   4.305   3.515
79351W        W47745  43.676  22.444   3.097
79352W        W47746  30.861  14.856   2.256
79353W        W47747  17.720  40.404  11.549
79354W        W47748  43.437  33.637   1.780
79355W        W47749  39.515  43.780   0.484
79356W        W47750  40.978  14.510  11.520
79357W        W47751  40.791   0.989   2.347
79358W        W47752  32.630  43.421   4.553
79359W        W47753   8.302  29.037   4.445
79360W        W47754   4.878   8.332  12.585
79361W        W47755   4.766  33.463  14.331
79362W        W47756  43.178   4.371  14.929
79363W        W47757  32.036  35.971  12.635
79364W        W47758   3.879   3.210   0.015
79365W        W47759  13.053  24.528  14.289
79366W        W47760  36.069  33.081  14.468
79367W        W47761  27.033  29.708   4.992
79368W        W47762  22.772  31.126  14.827
79369W        W47763  40.371  30.942   2.250
79370W        W47764  38.598  36.319  12.612
79371W        W47765   0.566   7.811  11.600
79372W        W47766  32.596  14.039  13.957
79373W        W47767  12.541   7.855   2.070
79374W        W47768  34.880  38.619   3.303
79375W        W47769  15.571   6.353  13.593
79376W        W47770  41.962  23.475  13.040
79377W        W47771  36.481   6.061  10.619
79378W        W47772  42.014   8.915  14.533
79379W        W47773  42.873  41.671   2.439
79380W        W47774  43.123  27.122  11.660
79381W        W47775  26.942   7.835  12.120
79382W        W47776  35.105  12.590  11.445
79383W        W47777  30.265  19.366  13.424
79384W        W47778   4.913  17.747   0.054
79385W        W47779  10.013  23.721  11.158
79386W        W47780  23.912   2.664  12.425
79387W        W47781  16.616  21.226  11.035
79388W        W47782   1.740  38.604   2.392
79389W        W47783  35.603  16.964  13.437
79390W        W47784  27.137  16.534  11.190
79391W        W47785   5.771  38.332  14.346
79392W        W47786  13.328  38.162   2.394
79393W        W47787  44.124  33.126  11.896
79394W        W47788  40.866  22.012   0.121
79395W        W47789  15.616  40.831  11.082
79396W        W47790  42.314  30.349   0.952
79397W        W47791  18.327  35.512  13.957
79398W        W47792  34.043  13.901   4.330
79399W        W47793  30.817  41.702  12.471
79400W        W47794  13.335   6.978   2.175
79401W        W47795  19.026  32.881   1.761
79402W        W47796  40.050   1.614   3.623
79403W        W47797  10.565  15.236   4.709
79404W        W47798   6.426  41.753  12.058
79405W        W47799  23.504  42.399   0.372
79406W        W47800   6.249  43.707   3.176
79407W        W47801  33.338  42.863  13.053
79408W        W47802  27.127  32.116   0.745
79409W        W47803  44.775  11.290   2.186
79410W        W47804  37.104   4.240  14.938
79411W        W47805  22.247  39.326   2.225
79412W        W47806   0.932  22.755   4.566
79413W        W47807  11.620  27.223   1.776
79414W        W47808  40.423  22.028   1.828
79415W        W47809  19.784  36.277  12.512
79416W        W47810   7.929  36.163  13.473
79417W        W47811  43.464  15.602   3.229
79418W        W47812  40.305  17.768  11.507
79419W        W47813  26.680  21.237   2.202
79420W        W47814  33.067  26.527  13.777
79421W        W47815  30.926  17.316  11.729
79422W        W47816   4.196   0.734  11.504
79423W        W47817  14.397  10.123   4.159
79424W        W47818   1.957  24.783   2.158
79425W        W47819  29.636  41.820   3.741
79426W        W47820   8.829  42.038   2.715
79427W        W47821  22.143  12.643  11.127
79428W        W47822  31.361  22.188   4.591
79429W        W47823  26.635  28.844  11.649
79430W        W47824  35.594  36.031  10.810
79431W        W47825   2.503  34.540   1.181
79432W        W47826  44.414  21.292   1.781
79433W        W47827  22.636  25.425   2.676
79434W        W47828  30.058   8.369   3.392
79435W        W47829  26.210  16.363  14.764
79436W        W47830   0.346   2.303   0.357
79437W        W47831  14.674   0.005  12.592
79438W        W47832  17.268  34.566  12.103
79439W        W47833  26.905  22.981   0.856
79440W        W47834  33.861   5.227   4.179
79441W        W47835  26.100  44.486   1.428
79442W        W47836  11.124   3.253   0.830
79443W        W47837   4.279  35.015   3.505
79444W        W47838  40.489  25.167   2.190
79445W        W47839  43.026  22.074  11.995
79446W        W47840  42.614  33.196  11.855
79447W        W47841  39.412  40.759  13.921
79448W        W47842  19.696  15.507   3.337
79449W        W47843   3.840   3.573  10.314
79450W        W47844  10.303  12.857  11.944
79451W        W47845  17.993  16.469   1.787
79452W        W47846  42.898   7.000  13.913
79453W        W47847  36.919  12.394  11.620
79454W        W47848  42.852  34.293  12.149
79455W        W47849  43.142  28.149  14.453
79456W        W47850   9.700  14.123  13.990
79457W        W47851  44.460  23.176   0.871
79458W        W47852  18.613   2.650  13.347
79459W        W47853  14.642   8.852  13.976
79460W        W47854  19.515  13.055  11.586
79461W        W47855  20.408  31.807  12.491
79462W        W47856  18.542  43.444  12.860
79463W        W47857  42.038  20.720  12.564
79464W        W47858  41.796  27.221  11.449
79465W        W47859   8.390   2.887  11.137
79466W        W47860  37.996  36.816   3.204
79467W        W47861  12.111  11.408   1.730
79468W        W47862  22.973  32.186   0.237
79469W        W47863   4.110   2.081   5.079
79470W        W47864  11.253   6.508   0.794
79471W        W47865  22.030  13.338   1.868
79472W        W47866  37.822   7.135  11.482
79473W        W47867   5.007   9.602   1.268
79474W        W47868  19.817   6.213   1.966
79475W        W47869  22.543  10.747  14.497
79476W        W47870   4.592  27.150  12.210
79477W        W47871   7.409  33.062   4.037
79478W        W47872  17.745  31.607  11.620
79479W        W47873  29.218  44.108  11.850
79480W        W47874  10.253  21.929  11.608
79481W        W47875  21.622  41.960  14.956
79482W        W47876  10.259  19.008   4.209
79483W        W47877  20.046  38.905   0.656
79484W        W47878  31.037  43.815   0.816
79485W        W47879  22.971  15.654   4.189
79486W        W47880  22.329  12.592   1.682
79487W        W47881   5.831  24.765   2.352
79488W        W47882  43.189  25.642  14.849
79489W        W47883   0.337  37.324  12.973
79490W        W47884  37.715  19.307  10.503
79491W        W47885   7.933  32.002   2.822
79492W        W47886  19.147  34.661  13.479
79493W        W47887  30.115  28.599  11.624
79494W        W47888  11.132  20.776   1.364
79495W        W47889   7.273  36.110  12.447
79496W        W47890   3.510  35.497   0.316
79497W        W47891   2.346  38.143  14.924
79498W        W47892  15.597  20.626   4.591
79499W        W47893  27.771  16.884   9.862
79500W        W47894  11.862  40.412   4.530
79501W        W47895  44.499   9.632   3.663
79502W        W47896   8.433   8.404   2.727
79503W        W47897  32.094  13.709   2.212
79504W        W47898  38.375   5.575   3.407
79505W        W47899   7.393  25.464  11.200
79506W        W47900   1.410  33.912   3.685
79507W        W47901   9.173  12.340   4.841
79508W        W47902   5.302  42.365  11.869
79509W        W47903  39.500   5.713   3.644
79510W        W47904  15.824  38.824   2.530
79511W        W47905  19.973  20.179  10.585
79512W        W47906  42.011  24.393   2.625
79513W        W47907  44.202  27.135  14.246
79514W        W47908  23.256   3.404   0.015
79515W        W47909   6.453   1.478   1.541
79516W        W47910  44.233  22.735   0.793
79517W        W47911  36.805  20.906  12.563
79518W        W47912   8.309  33.154  14.921
79519W        W47913  41.897  10.879   4.766
79520W        W47914  41.936  14.874   2.295
79521W        W47915  16.387  31.845   0.818
79522W        W47916  37.077   8.823   0.130
79523W        W47917   4.392  29.973   2.813
79524W        W47918  13.192  38.512  14.965
79525W        W47919  34.872  37.544  11.590
79526W        W47920   7.371  24.074   1.833
79527W        W47921  34.537  15.777  13.624
79528W        W47922  37.340  31.452   1.221
79529W        W47923  44.222   7.914  11.853
79530W        W47924  14.710  40.576  11.513
79531W        W47925  15.249   5.153   4.983
79532W        W47926  17.332   2.195  10.612
79533W        W47927   0.343  38.277   4.624
79534W        W47928  37.856  17.689  13.393
79535W        W47929  17.874  29.504  12.002
79536W        W47930  43.510  18.719  14.769
79537W        W47931  37.260  14.660  14.465
79538W        W47932  43.963   7.903   3.761
79539W        W47933  40.649  36.351  13.461
79540W        W47934  35.670  34.786   1.285
79541W        W47935  28.333  43.839  13.513
79542W        W47936   4.395  34.001   0.157
79543W        W47937  12.087  28.595   1.455
79544W        W47938  43.536   0.456  12.057
79545W        W47939   3.311  30.475   2.141
79546W        W47940  18.252  26.039  12.095
79547W        W47941  44.912  14.459  14.473
79548W        W47942  43.487   9.771   2.578
79549W        W47943  13.297  10.705  12.506
79550W        W47944  22.008   5.511  12.080
79551W        W47945  13.580   2.699   0.531
79552W        W47946  14.385  23.602   0.453
79553W        W47947  22.050  24.195   3.700
79554W        W47948  38.135   0.875   3.445
79555W        W47949   9.900  41.228  11.492
79556W        W47950   1.358  43.388  13.994
79557W        W47951  40.708  34.033  11.550
79558W        W47952  22.257   4.985   0.674
79559W        W47953   9.254  18.896  14.947
79560W        W47954  42.828  14.388  13.992
79561W        W47955   5.336  10.907   3.682
79562W        W47956  21.683  44.754  10.989
79563W        W47957  18.196  10.839  10.754
79564W        W47958  23.498  33.443  13.309
79565W        W47959  29.168   7.577  11.947
79566W        W47960  41.869  42.872   1.263
79567W        W47961  20.905   6.813   1.312
79568W        W47962  35.425  36.072   4.055
79569W        W47963  44.248  43.928  11.162
79570W        W47964  32.358  13.756  12.170
79571W        W47965   8.074  32.369   4.887
79572W        W47966   5.284  23.783   4.610
79573W        W47967  14.354   6.527   1.878
79574W        W47968  22.830  13.846   4.306
79575W        W47969   6.357  10.565   2.833
79576W        W47970  35.406  18.056  14.314
79577W        W47971   2.348  21.909   1.131
79578W        W47972  41.374  41.908  13.314
79579W        W47973   8.915  33.914  12.546
79580W        W47974  25.809   1.761   1.334
79581W        W47975  17.354  16.761  12.002
79582W        W47976  30.128  10.379  13.778
79583W        W47977  38.713   3.307   4.775
79584W        W47978  29.603  22.537   3.182
79585W        W47979  35.071  38.114   2.419
79586W        W47980  31.446  26.279  12.883
79587W        W47981  34.459  26.662  12.684
79588W        W47982  32.559  19.630   2.374
79589W        W47983  28.501  13.012  14.872
79590W        W47984  11.084  10.155   1.723
79591W        W47985  16.783  34.946  13.316
79592W        W47986  14.641  31.930   0.683
79593W        W47987  34.994  39.052   1.861
79594W        W47988  44.230  39.011  14.045
79595W        W47989  12.294   3.861   0.307
79596W        W47990  12.700  10.622  13.006
79597W        W47991  21.129   6.667   0.561
79598W        W47992  27.365  11.398   2.659
79599W        W47993  27.193   9.629   1.915
79600W        W47994  21.384  31.727   2.923
79601W        W47995  26.035  12.854  11.574
79602W        W47996  44.391  15.225  13.048
79603W        W47997  44.182  12.713  13.480
79604W        W47998  29.533   3.486   4.553
79605W        W47999   1.047  40.954  12.541
79606W        W48000  10.430  26.488  12.925
79607W        W48001  12.954  11.365  11.167
79608W        W48002   3.365   0.219   2.241
79609W        W48003  17.895  33.023   3.200
79610W        W48004  34.382  32.031  10.778
79611W        W48005  23.079  33.545  11.231
79612W        W48006   0.444  25.006   3.713
79613W        W48007  15.261  30.861  11.238
79614W        W48008  18.547   7.287   1.479
79615W        W48009  41.043   2.308   4.124
79616W        W48010  19.014  18.194   3.704
79617W        W48011   8.266  27.169   0.269
79618W        W48012  35.881  24.234   1.357
79619W        W48013   7.145  13.718   4.049
79620W        W48014  39.113   7.335   3.322
79621W        W48015  28.626  28.545   3.778
79622W        W48016  13.492  16.733   4.793
79623W        W48017  27.122  16.273   4.379
79624W        W48018  30.991  42.784  12.550
79625W        W48019  19.985  16.453  13.195
79626W        W48020  17.860  22.705  12.610
79627W        W48021  21.237  38.055  14.516
79628W        W48022  27.950  32.587   1.043
79629W        W48023  33.558  40.368   5.157
79630W        W48024  27.464   4.588   1.865
79631W        W48025   2.301  20.706   2.925
79632W        W48026   7.487  21.021   3.312
79633W        W48027  29.324  32.384  11.049
79634W        W48028  44.743  26.020  12.012
79635W        W48029  18.606  26.953  14.976
79636W        W48030  10.210   5.199   4.601
79637W        W48031  17.637  27.550   2.502
79638W        W48032   0.408  13.821   3.899
79639W        W48033  30.352  14.097   4.060
79640W        W48034  22.027   5.434  13.908
79641W        W48035  41.554  32.588  13.746
79642W        W48036  23.159  12.913  11.098
79643W        W48037  10.067  20.922  14.865
79644W        W48038   3.337  21.591   0.229
79645W        W48039   6.275  18.051  14.444
79646W        W48040  19.635   9.930   2.539
79647W        W48041  15.462   0.814   3.685
79648W        W48042  36.112  40.590   0.002
79649W        W48043  13.477   7.057  11.710
79650W        W48044  11.364  20.155   4.594
79651W        W48045   1.627  13.370   0.380
79652W        W48046  23.869  43.374  11.996
79653W        W48047  11.683  19.792  12.148
79654W        W48048  37.522  18.624  10.766
79655W        W48049  15.880  24.596   0.514
79656W        W48050  24.644  24.889   0.142
79657W        W48051  22.270   9.703  11.045
79658W        W48052  18.227  31.774  11.791
79659W        W48053  36.956   7.252   2.043
79660W        W48054  38.632  29.249  11.592
79661W        W48055  17.715  26.177   4.521
79662W        W48056  16.305  34.143  14.241
79663W        W48057  33.011  41.846  14.624
79664W        W48058  15.593  41.642   4.994
79665W        W48059  24.503  33.989  14.002
79666W        W48060  26.442  18.243   1.444
79667W        W48061   9.326  41.833   1.451
79668W        W48062  14.694   4.421  12.424
79669W        W48063   3.684   3.818   5.508
79670W        W48064   0.783  28.241  12.123
79671W        W48065  42.239  14.590  13.732
79672W        W48066  27.621  38.285  13.500
79673W        W48067  24.996  32.918  11.649
79674W        W48068   5.001  36.078   4.229
79675W        W48069  35.206  43.442   1.799
79676W        W48070  37.415  12.205  13.940
79677W        W48071   9.207  27.711   0.607
79678W        W48072  40.902  10.093  11.977
79679W        W48073  24.198  42.256   1.186
79680W        W48074  26.348  41.712   4.992
79681W        W48075  17.458  10.168   0.783
79682W        W48076   4.599  10.893  11.572
79683W        W48077   2.414  31.673  12.017
79684W        W48078  14.230   6.007  12.043
79685W        W48079  20.925   3.434   5.100
79686W        W48080   9.118   2.932  13.244
79687W        W48081   4.134  15.697   1.770
79688W        W48082  38.028   9.646   1.793
79689W        W48083  14.746  31.170  14.306
79690W        W48084  36.323  30.459   3.107
79691W        W48085   0.268  12.359  12.953
79692W        W48086   5.151  40.980   3.574
79693W        W48087   6.391   5.597   0.162
79694W        W48088  35.683  16.459  13.564
79695W        W48089  29.833   0.962  11.117
79696W        W48090  22.536  38.364  13.043
79697W        W48091  38.966   9.615  11.515
79698W        W48092  22.480  31.889  12.343
79699W        W48093   8.804   8.960   4.146
79700W        W48094  32.437  30.963   4.536
79701W        W48095  11.174  11.298   0.199
79702W        W48096  43.036  27.533  12.936
79703W        W48097   7.215  22.170  10.725
79704W        W48098  32.489  25.624  11.067
79705W        W48099  34.002  42.565   1.276
79706W        W48100  42.285  19.074   0.836
79707W        W48101  27.105  42.707   5.284
79708W        W48102  33.193  18.733  12.530
79709W        W48103  40.454  34.386  12.817
79710W        W48104  40.576  16.270   0.367
79711W        W48105  38.958  30.186  11.271
79712W        W48106  37.278  16.501   1.292
79713W        W48107  30.839  19.051   0.426
79714W        W48108  27.658  24.126   4.087
79715W        W48109  29.413  34.073  12.971
79716W        W48110   4.469  16.861   3.709
79717W        W48111  38.964   9.786  13.796
79718W        W48112  32.952  44.948   1.890
79719W        W48113   9.206  13.193   2.806
79720W        W48114  37.036  33.400   2.958
79721W        W48115  23.961  22.524  13.373
79722W        W48116  16.974  44.234  11.440
79723W        W48117  18.572  35.586   2.399
79724W        W48118  22.621  22.308   4.762
79725W        W48119  15.608  12.635  11.646
79726W        W48120  22.574  12.396   4.532
79727W        W48121   1.788  36.459  12.490
79728W        W48122  17.320  35.686   3.765
79729W        W48123  25.961   3.107   1.412
79730W        W48124  13.770  25.226  13.965
79731W        W48125   9.067  36.735   4.482
79732W        W48126   0.840  11.825  10.754
79733W        W48127  40.758  40.846  11.654
79734W        W48128  24.480  16.692   2.181
79735W        W48129  38.603  22.970   2.286
79736W        W48130  43.288  32.192  11.552
79737W        W48131  12.602  24.508  12.176
79738W        W48132  25.881  33.477   0.779
79739W        W48133  31.681   9.296  12.992
79740W        W48134  16.587   8.177  12.552
79741W        W48135  43.297  39.547   3.758
79742W        W48136  41.059  26.518   0.425
79743W        W48137  22.289   1.287   3.588
79744W        W48138  33.135  39.003  13.196
79745W        W48139  33.639  10.090  12.641
79746W        W48140   5.915  17.472   3.721
79747W        W48141  26.410  25.632  12.413
79748W        W48142  43.152  18.886   1.463
79749W        W48143  43.874  11.704  11.995
79750W        W48144  39.101  38.558  13.878
79751W        W48145  30.623  22.394   0.368
79752W        W48146  11.994  32.545   3.182
79753W        W48147  40.122  36.968   2.302
79754W        W48148  20.101  16.784   3.649
79755W        W48149  38.039  37.713   4.772
79756W        W48150  32.109  25.163   4.624
79757W        W48151   5.368  18.719   4.494
79758W        W48152  40.290   5.418  10.718
79759W        W48153  30.037  13.507  11.211
79760W        W48154  43.663   6.655  12.319
79761W        W48155  25.169  20.216   4.068
79762W        W48156  12.346  19.466  10.671
79763W        W48157  18.772  17.476  14.505
79764W        W48158   6.176  39.941  11.922
79765W        W48159   9.326  30.411  13.980
79766W        W48160  29.252  14.053   1.732
79767W        W48161   8.751   4.743  14.951
79768W        W48162  10.959  38.489   2.163
79769W        W48163  42.261  18.565   3.629
79770W        W48164  44.911   7.204   1.743
79771W        W48165  31.526  11.865  11.946
79772W        W48166   1.043  18.221  12.053
79773W        W48167  32.422  14.362   3.964
79774W        W48168   8.328   8.432   0.447
79775W        W48169  15.199  22.421  14.208
79776W        W48170  20.943  13.172   4.634
79777W        W48171  23.666   2.644   0.308
79778W        W48172  13.863   5.398   3.269
79779W        W48173  23.305   7.818   1.579
79780W        W48174  34.305  17.148   0.915
79781W        W48175  19.853  11.066  14.522
79782W        W48176  38.022  10.960  12.364
79783W        W48177  26.501   7.963  11.265
79784W        W48178  29.041   1.895  13.609
79785W        W48179   2.413  14.159  11.695
79786W        W48180  37.721  29.904   2.063
79787W        W48181  42.920  14.354  12.106
79788W        W48182  13.348  43.980   2.485
79789W        W48183  39.866  10.769   3.829
79790W        W48184  27.352  24.101   0.952
79791W        W48185  29.605  26.105   4.433
79792W        W48186  21.951  22.146   1.910
79793W        W48187  37.841  16.226   4.955
79794W        W48188  26.196  36.886   3.145
79795W        W48189   8.497  10.270   4.704
79796W        W48190  37.399   1.666  11.188
79797W        W48191  43.434  18.223  14.873
79798W        W48192   2.705  37.340  11.118
79799W        W48193  10.332  12.462  14.508
79800W        W48194  14.007  22.737   5.168
79801W        W48195   3.273  30.008  13.991
79802W        W48196  42.461  21.138  10.686
79803W        W48197  19.521  39.853  12.464
79804W        W48198   6.545   3.326   4.342
79805W        W48199  18.363  21.215  11.461
79806W        W48200  41.417   7.713  11.903
79807W        W48201  36.938  13.348  13.000
79808W        W48202   1.738   8.081   1.720
79809W        W48203  43.660   1.290   2.699
79810W        W48204  19.476   8.706  13.481
79811W        W48205   8.884   5.427   3.789
79812W        W48206  37.894   2.778   0.920
79813W        W48207   3.204  32.613  10.782
79814W        W48208  28.379  43.148  13.911
79815W        W48209  31.024  43.246   4.514
79816W        W48210  28.124  40.860  10.739
79817W        W48211  41.621  26.469   4.122
79818W        W48212   1.378  17.183  13.303
79819W        W48213  18.181  33.856   1.276
79820W        W48214  22.413  25.190  10.284
79821W        W48215  41.488  25.657   3.779
79822W        W48216  23.572  28.491   3.159
79823W        W48217  25.717   3.070   2.442
79824W        W48218  40.624  35.356   3.190
79825W        W48219  18.055  29.356  12.469
79826W        W48220  43.375  15.074  11.205
79827W        W48221  39.535  29.107   0.423
79828W        W48222  21.752  36.908  14.037
79829W        W48223  26.805  12.053  10.039
79830W        W48224  30.841   4.543   4.889
79831W        W48225   4.083   5.825  14.135
79832W        W48226  25.103  42.997   1.371
79833W        W48227  13.632  29.704   2.300
79834W        W48228  19.818  31.110  12.513
79835W        W48229  42.353  38.320  14.542
79836W        W48230  20.175  23.123  10.181
79837W        W48231  24.044   7.669  13.011
79838W        W48232  31.998   0.095  10.366
79839W        W48233  10.811   2.405  12.435
79840W        W48234  11.946   0.197  13.041
79841W        W48235  16.838   7.458   0.320
79842W        W48236  23.959  28.236  11.283
79843W        W48237  11.452   0.827   1.958
79844W        W48238  44.183  33.615   4.837
79845W        W48239  19.560  22.229   4.627
79846W        W48240   8.781  18.749  14.758
79847W        W48241   0.454  39.884   3.110
79848W        W48242  26.759  21.766   2.859
79849W        W48243  10.212  44.327   5.174
79850W        W48244  35.082  26.693  11.532
79851W        W48245  40.568  15.147   2.261
79852W        W48246  17.215  44.546   3.396
79853W        W48247  44.389   6.268  14.503
79854W        W48248  42.687  10.218  12.543
79855W        W48249  39.595  34.623   0.700
79856W        W48250  41.944  39.545  12.092
79857W        W48251  32.460  43.816  14.605
79858W        W48252  10.411  39.975  13.624
79859W        W48253  31.697  14.885  14.398
79860W        W48254   6.956   1.769  10.588
79861W        W48255  27.647  37.937  14.438
79862W        W48256  33.395  23.848  13.948
79863W        W48257  24.181  40.050   2.997
79864W        W48258  39.401  35.465   0.352
79865W        W48259  15.816   9.089   2.459
79866W        W48260  32.004   4.620   4.119
79867W        W48261  21.985   1.126   4.085
79868W        W48262  10.348   6.966  10.480
79869W        W48263  42.253   1.167   2.164
79870W        W48264  26.524  23.199   3.676
79871W        W48265   4.145  24.929  12.723
79872W        W48266  16.034  26.211   1.779
79873W        W48267  20.301  24.224  13.345
79874W        W48268   0.226  44.870  11.605
79875W        W48269   5.450   1.063   3.223
79876W        W48270  41.750  25.560  11.214
79877W        W48271  31.609  30.937  11.745
79878W        W48272  15.338  25.611   2.714
79879W        W48273  38.017  22.040   4.323
79880W        W48274  22.584   5.643  13.342
79881W        W48275   3.436   9.573  12.693
79882W        W48276  41.296  13.361  13.817
79883W        W48277   9.869  32.661   0.382
79884W        W48278  44.899  27.008   1.497
79885W        W48279  25.529  31.486  11.996
79886W        W48280  14.562  31.359  12.980
79887W        W48281  42.846  43.940   3.353
79888W        W48282  26.718  21.465   3.271
79889W        W48283  42.298   2.950   3.367
79890W        W48284  33.213  38.957   1.412
79891W        W48285  11.383   1.772   0.364
79892W        W48286   3.213  19.026   3.262
79893W        W48287  40.399  18.579  12.996
79894W        W48288  26.771  20.807   3.587
79895W        W48289  24.523   0.008  12.538
79896W        W48290  36.275  30.481   3.644
79897W        W48291  21.416  13.240   9.816
79898W        W48292   8.125   6.520  13.947
79899W        W48293   9.640   5.779   3.169
79900W        W48294  27.129  39.031  13.419
79901W        W48295  24.065  11.160  14.638
79902W        W48296  41.414  31.846   2.465
79903W        W48297  14.674  21.316   0.411
79904W        W48298  28.016   6.233  11.126
79905W        W48299  19.025  37.008  13.549
79906W        W48300  17.086  21.224   2.770
79907W        W48301  39.076  31.178  12.509
79908W        W48302  12.332  37.065   4.675
79909W        W48303   7.167   1.515  11.557
79910W        W48304  16.616  24.575  13.918
79911W        W48305  39.188  36.646   3.129
79912W        W48306   2.378  13.809   1.198
79913W        W48307   5.735   7.123   0.365
79914W        W48308   5.819  44.464  11.990
79915W        W48309  13.209   7.692  10.559
79916W        W48310  31.908  43.950  11.155
79917W        W48311  39.858   5.485   0.719
79918W        W48312   0.014  15.302  10.750
79919W        W48313  36.795  19.858   3.141
79920W        W48314  21.113   4.326   2.770
79921W        W48315  21.751  12.262  14.890
79922W        W48316   4.756  29.394  12.123
79923W        W48317  11.317  10.269   0.296
79924W        W48318   0.726  41.096   4.691
79925W        W48319  22.998  11.716   0.929
79926W        W48320  29.382  29.562   0.673
79927W        W48321   7.047  13.924  11.676
79928W        W48322  32.028  16.274  14.492
79929W        W48323  19.589  12.598  13.482
79930W        W48324  17.870  38.081  13.638
79931W        W48325  21.132  11.439  11.290
79932W        W48326   3.195   4.916   1.824
79933W        W48327  18.682  15.346   3.207
79934W        W48328  26.006  20.285   3.082
79935W        W48329   4.867  38.074  11.993
79936W        W48330  41.263  25.179  11.657
79937W        W48331  15.146   4.939  12.922
79938W        W48332  16.188  14.813  10.889
79939W        W48333  18.744  34.067  12.560
79940W        W48334  16.144  36.431  12.236
79941W        W48335  20.656  38.840   4.356
79942W        W48336  17.189  14.381  10.358
79943W        W48337   9.117   1.323   0.187
79944W        W48338  19.091   8.527   2.990
79945W        W48339  41.064  21.218  13.354
79946W        W48340   6.403  18.729  11.964
79947W        W48341   4.738  30.219  10.631
79948W        W48342   8.838  17.339   2.978
79949W        W48343   7.237  18.714   1.664
79950W        W48344   2.405  42.453  14.980
79951W        W48345  34.991   4.175  14.294
79952W        W48346  16.786  10.781  12.919
79953W        W48347  12.559  37.474  10.944
79954W        W48348  33.291  36.858  11.820
79955W        W48349  21.159  24.041  10.646
79956W        W48350   4.704  35.425   0.977
79957W        W48351  17.210  43.810  14.334
79958W        W48352   6.284  32.974   3.722
79959W        W48353  22.018   0.848   3.632
79960W        W48354   9.008  10.701   0.906
79961W        W48355  37.238  10.913   0.384
79962W        W48356  15.909  44.150  11.272
79963W        W48357  31.170   9.299   4.553
79964W        W48358  15.137  25.454  14.217
79965W        W48359  26.463  31.514   3.646
79966W        W48360  35.586  13.045  13.879
79967W        W48361   5.838   5.459  11.939
79968W        W48362   9.694  37.851  12.767
79969W        W48363  44.926  22.549  13.455
79970W        W48364  34.846  13.052  10.309
79971W        W48365  43.315  38.400  13.181
79972W        W48366   9.598  33.516   2.347
79973W        W48367  20.681  33.612  13.462
79974W        W48368   5.492  33.205   1.369
79975W        W48369  31.431  34.108   2.843
79976W        W48370   5.385   6.366   4.115
79977W        W48371   3.048  20.548  13.568
79978W        W48372   5.470  41.254  13.466
79979W        W48373  11.862   9.522  12.086
79980W        W48374  27.058  42.665   1.725
79981W        W48375  24.142  39.488   1.662
79982W        W48376  13.685  27.683   2.929
79983W        W48377  41.814  37.053  13.935
79984W        W48378  41.184  39.215  11.769
79985W        W48379  42.760  22.709   1.409
79986W        W48380  16.791  23.532   1.194
79987W        W48381  28.399  41.528  14.526
79988W        W48382  44.216  32.681   0.426
79989W        W48383   7.864  20.303  13.072
79990W        W48384  33.166  27.240  12.434
79991W        W48385   4.406   4.654  14.902
79992W        W48386  12.310  43.759  14.478
79993W        W48387  40.447  35.636   1.846
79994W        W48388  32.097  32.407   0.957
79995W        W48389  43.973  10.327   3.236
79996W        W48390  35.081  40.031  12.451
79997W        W48391  40.443  21.138   2.444
79998W        W48392  17.051  43.773   4.528
79999W        W48393  27.357  32.117  14.433
80000W        W48394   1.346  18.565   1.737
80001W        W48395  10.990  24.491   3.167
80002W        W48396   6.113  30.446   1.609
80003W        W48397  16.815  11.631  12.308
80004W        W48398  41.168  32.836  11.113
80005W        W48399  36.150   5.583   0.457
80006W        W48400  34.067  29.507  14.941
80007W        W48401   9.655  39.067   2.248
80008W        W48402  16.716   1.008   2.297
80009W        W48403  27.541  35.110   4.661
80010W        W48404  43.709  35.476  14.910
80011W        W48405  31.537  38.322  11.115
80012W        W48406  32.014  31.108   2.707
80013W        W48407  40.250   2.390   1.223
80014W        W48408  20.528   3.630  13.559
80015W        W48409  24.798  24.804   3.713
80016W        W48410  18.707  32.621  12.491
80017W        W48411  17.058   2.366   2.731
80018W        W48412  41.800  39.224   0.445
80019W        W48413  11.219  27.614  11.641
80020W        W48414  35.437  21.024   2.849
80021W        W48415  19.973  31.462   4.156
80022W        W48416  27.196  34.784   1.437
80023W        W48417  27.214  31.433   3.204
80024W        W48418  17.262  23.578   0.959
80025W        W48419  26.827   1.439  13.341
80026W        W48420   7.198  22.532  12.979
80027W        W48421  16.809  33.934   2.401
80028W        W48422   3.839  34.656  11.963
80029W        W48423  17.409  27.004  10.296
80030W        W48424  24.542  28.927   4.089
80031W        W48425  20.108  32.366   3.250
80032W        W48426  39.473  15.342   0.378
80033W        W48427  30.081  20.097   1.913
80034W        W48428   9.315  16.844   0.030
80035W        W48429  25.662  20.794  13.071
80036W        W48430  13.868  32.820  13.348
80037W        W48431  42.836  11.590  10.965
80038W        W48432  30.918  15.784   2.282
80039W        W48433  35.470   1.952   0.765
80040W        W48434  10.234  35.167  10.418
80041W        W48435  23.167   6.362   2.634
80042W        W48436  20.742  40.130   1.177
80043W        W48437  19.824  18.750   1.488
80044W        W48438  29.085  13.182   1.422
80045W        W48439   7.909  38.637   0.206
80046W        W48440  21.948  17.105   0.314
80047W        W48441  36.510  11.219   1.185
80048W        W48442   3.924  37.517  10.830
80049W        W48443  37.585  19.727  13.345
80050W        W48444   7.886  15.841   1.419
80051W        W48445  11.095  36.626   1.220
80052W        W48446   8.075  39.135   4.067
80053W        W48447  44.555  29.542   2.289
80054W        W48448  13.984   5.241   4.116
80055W        W48449   4.221  12.346   4.154
80056W        W48450  20.690  40.770   4.449
80057W        W48451  34.587   0.163   2.685
80058W        W48452  38.977  28.163   0.271
80059W        W48453  33.912  42.552   4.434
80060W        W48454   4.816   0.812   0.794
80061W        W48455  23.922  33.041   0.056
80062W        W48456   6.938  26.716   1.329
80063W        W48457  12.999   5.761   4.110
80064W        W48458   8.410  35.468  10.637
80065W        W48459  44.151  16.113   1.388
80066W        W48460  24.265  29.659   1.032
80067W        W48461  28.434  34.113   4.100
80068W        W48462  29.480  22.804   9.803
80069W        W48463  41.182   2.534   4.560
80070W        W48464  27.349  36.753  12.883
80071W        W48465  27.509  17.125   4.851
80072W        W48466   4.198   8.134   1.687
80073W        W48467  20.413   6.440  11.224
80074W        W48468  35.427   6.395   1.906
80075W        W48469   0.621  32.672  13.572
80076W        W48470  15.362  11.755  14.767
80077W        W48471  38.529   4.496  14.010
80078W        W48472  41.833  22.112   4.293
80079W        W48473  30.138  10.567   4.124
80080W        W48474  29.265   0.721   4.703
80081W        W48475  18.565  43.712  14.408
80082W        W48476  30.344   0.426  12.323
80083W        W48477  43.539  20.355   2.209
80084W        W48478  18.102   5.418   0.429
80085W        W48479   1.322   3.087  11.989
80086W        W48480  37.302  28.516   0.904
80087W        W48481  14.469  43.464   2.775
80088W        W48482  40.457  29.865   4.082
80089W        W48483  36.948   7.638  14.579
80090W        W48484   0.919  43.401   2.425
80091W        W48485  35.930  44.778   3.685
80092W        W48486  27.631   1.818  13.280
80093W        W48487  37.584  31.413   2.910
80094W        W48488  34.426  25.563   4.613
80095W        W48489  40.757  39.060   1.396
80096W        W48490   8.675   6.120   3.302
80097W        W48491   2.074  17.761  14.689
80098W        W48492  19.880   6.512  12.000
80099W        W48493   0.516  33.423   1.234
80100W        W48494  37.120   5.221  14.580
80101W        W48495  37.604  28.384  11.170
80102W        W48496  30.271  32.234   2.940
80103W        W48497  44.967  13.825  10.615
80104W        W48498  40.048  20.510  14.881
80105W        W48499  35.078  10.269  10.472
80106W        W48500  28.432  40.357  14.453
80107W        W48501  44.346   2.147   1.276
80108W        W48502  34.733  22.175   3.281
80109W        W48503   1.782  32.234   1.008
80110W        W48504  15.860  31.985  10.325
80111W        W48505  35.693  13.042  12.141
80112W        W48506   8.246  30.480   0.416
80113W        W48507  16.240  39.927  11.399
80114W        W48508   5.764  14.337   0.033
80115W        W48509  43.337  26.033   1.116
80116W        W48510  33.428  31.628  11.248
80117W        W48511  44.431  40.389  12.039
80118W        W48512  41.587  29.658   3.729
80119W        W48513  32.395  13.041  14.003
80120W        W48514  28.138  31.048  13.033
80121W        W48515   2.293  26.012   3.739
80122W        W48516  16.144  39.017   0.418
80123W        W48517  19.497  43.794  11.050
80124W        W48518  36.485  33.776  13.317
80125W        W48519   1.718   4.379  14.805
80126W        W48520  17.056  12.272  12.888
80127W        W48521  21.497  11.627  11.000
80128W        W48522  41.991   1.235   3.271
80129W        W48523  30.482  11.142  11.546
80130W        W48524  27.152  16.897   3.331
80131W        W48525  19.217  34.660  11.155
80132W        W48526  25.152  10.843   1.239
80133W        W48527  25.005  41.865  13.616
80134W        W48528  11.332  17.126  14.825
80135W        W48529  44.347  17.638   0.976
80136W        W48530  30.939  29.213   4.729
80137W        W48531  37.826  31.837   3.081
80138W        W48532  19.619  28.672  13.910
80139W        W48533  14.116  11.688  13.467
80140W        W48534   6.870   7.882   0.724
80141W        W48535   6.759  10.892  13.059
80142W        W48536  24.625  41.569   2.404
80143W        W48537  15.827  33.410  14.252
80144W        W48538  22.208   2.081  12.533
80145W        W48539  35.168  26.115   0.817
80146W        W48540  43.963  23.095  14.837
80147W        W48541   3.288   9.050  11.099
80148W        W48542  16.751  40.789  12.649
80149W        W48543  34.382   3.846   3.895
80150W        W48544   6.413  30.921  11.145
80151W        W48545   8.962  40.962   0.820
80152W        W48546   2.306  18.607   1.693
80153W        W48547  44.371  42.695  10.639
80154W        W48548   8.171  23.706  12.036
80155W        W48549  41.740   4.390   0.957
80156W        W48550  41.376  35.798   2.343
80157W        W48551  44.609  22.974  12.573
80158W        W48552  36.702  12.117  13.378
80159W        W48553  29.932   0.458   1.800
80160W        W48554   6.666   4.687  12.544
80161W        W48555   9.903  38.945  13.041
80162W        W48556   3.426  33.892  12.037
80163W        W48557  12.687  32.772  12.970
80164W        W48558  17.576   8.807   2.262
80165W        W48559  39.335   2.676  13.449
80166W        W48560  29.952  32.289   4.540
80167W        W48561  42.621   9.185  11.660
80168W        W48562  29.676   7.749  11.838
80169W        W48563  14.771  37.537   3.170
80170W        W48564   6.203  23.417   4.464
80171W        W48565  33.512   7.306   3.568
80172W        W48566  18.373  22.745   4.404
80173W        W48567  29.600  43.503   5.050
80174W        W48568  16.638  14.643   0.906
80175W        W48569  18.236  41.895   0.084
80176W        W48570  19.103  23.544   4.150
80177W        W48571  34.002  16.398   3.183
80178W        W48572  35.972   4.983   4.053
80179W        W48573  20.609  41.732   3.614
80180W        W48574  28.526   5.163  13.478
80181W        W48575   5.445   2.187  11.067
80182W        W48576  22.958  33.676  14.066
80183W        W48577  35.607  13.623  14.987
80184W        W48578  36.074  27.444   4.180
80185W        W48579  20.462  20.084  11.509
80186W        W48580   3.788   4.280   3.758
80187W        W48581   3.225  41.995  10.773
80188W        W48582  22.140  17.523   0.040
80189W        W48583   0.409  24.758  10.651
80190W        W48584   6.140  21.553  10.394
80191W        W48585  36.421  10.295   0.194
80192W        W48586   1.414  40.154   4.946
80193W        W48587  38.048   4.880  10.347
80194W        W48588  15.565  28.345  12.870
80195W        W48589  38.296  39.923   4.129
80196W        W48590  13.077  15.671  13.469
80197W        W48591  22.320   0.478   2.799
80198W        W48592   5.907   9.629  13.000
80199W        W48593   9.673  42.903   2.602
80200W        W48594  19.078  33.849  11.509
80201W        W48595  34.641  38.286   2.148
80202W        W48596   4.024   3.715   1.137
80203W        W48597   7.065  10.161   4.911
80204W        W48598   5.896   7.468   0.826
80205W        W48599  41.449   5.333  13.490
80206W        W48600   8.986  13.792   2.391
80207W        W48601  37.568  27.630   1.250
80208W        W48602  23.754  20.776  10.717
80209W        W48603  30.956  14.166  14.496
80210W        W48604  39.502   4.888   1.808
80211W        W48605   3.530  19.333   1.064
80212W        W48606  27.205  19.615  11.901
80213W        W48607  42.576  38.819   0.279
80214W        W48608   4.823   4.543   4.031
80215W        W48609   8.481  27.590  14.551
80216W        W48610  44.506  35.437   3.221
80217W        W48611  15.521   9.502   3.604
80218W        W48612  38.955  38.764   3.760
80219W        W48613  14.082  15.842  14.414
80220W        W48614  10.194   5.725  14.258
80221W        W48615   8.956  35.364   2.808
80222W        W48616  38.642   1.496   4.109
80223W        W48617   1.769  13.197  14.449
80224W        W48618   9.938  12.069  14.709
80225W        W48619  11.451  40.413  11.519
80226W        W48620  22.211  10.936   2.255
80227W        W48621  25.240   3.734  11.661
80228W        W48622  15.312  35.196  14.467
80229W        W48623   5.408  29.492   2.322
80230W        W48624  30.827  42.223  12.492
80231W        W48625  23.785  22.273   4.213
80232W        W48626  12.203  29.913  14.511
80233W        W48627  12.564   1.860  13.300
80234W        W48628  42.247  15.586   0.874
80235W        W48629   7.956  41.864  13.434
80236W        W48630   9.996  19.546   3.087
80237W        W48631   1.253  28.895  10.880
80238W        W48632  24.281  36.758   3.113
80239W        W48633   8.632   2.378  14.461
80240W        W48634  42.412  40.797  13.473
80241W        W48635  21.804  42.022  11.505
80242W        W48636  14.690  13.562   4.593
80243W        W48637  11.910  30.092  13.731
80244W        W48638  44.411   1.854   1.701
80245W        W48639  42.952   6.628   3.787
80246W        W48640  23.975   7.252   1.540
80247W        W48641   6.886  10.593  14.259
80248W        W48642  25.229   0.594   5.052
80249W        W48643  23.787  19.095   1.274
80250W        W48644  16.394  20.281   2.388
80251W        W48645  11.048  36.059   2.027
80252W        W48646   7.764  29.444  13.387
80253W        W48647  31.042  26.789  13.428
80254W        W48648  13.829  33.638  12.438
80255W        W48649  19.500  10.968   0.481
80256W        W48650  33.596  19.086   4.335
80257W        W48651  24.148  20.142  14.769
80258W        W48652   7.169  44.414   4.541
80259W        W48653  24.201  28.655   0.007
80260W        W48654  14.804  27.957   1.820
80261W        W48655  11.585  14.361  12.109
80262W        W48656  14.360  26.767   1.111
80263W        W48657  29.430  29.438   4.403
80264W        W48658  42.437  39.291  11.433
80265W        W48659   3.310  16.279   1.156
80266W        W48660  14.687  32.874   0.462
80267W        W48661  32.865  27.102   0.016
80268W        W48662   3.469  17.608   0.913
80269W        W48663   6.948  24.993  12.040
80270W        W48664  23.301   8.835  12.865
80271W        W48665  21.878  13.743   2.135
80272W        W48666  22.550  29.618  13.799
80273W        W48667  16.615  36.339   2.556
80274W        W48668  39.321  33.562   4.102
80275W        W48669  19.558  29.402   2.815
80276W        W48670  28.558  16.092  12.614
80277W        W48671   3.226   9.826   0.417
80278W        W48672  13.586  15.536  11.412
80279W        W48673  29.528  30.318  11.609
80280W        W48674  14.536  19.700   4.130
80281W        W48675  35.393  24.219  13.890
80282W        W48676  41.720  28.243  10.265
80283W        W48677  26.404  41.983  11.882
80284W        W48678   3.207   3.298   3.690
80285W        W48679  16.319  30.219   1.281
80286W        W48680  15.725  44.283  10.796
80287W        W48681   6.773  35.386   0.721
80288W        W48682   6.520   8.417   0.525
80289W        W48683   0.223  19.138  13.364
80290W        W48684   2.030  18.118  12.319
80291W        W48685  24.717   4.900   1.036
80292W        W48686  33.466  26.369  14.419
80293W        W48687  26.059   3.034  12.437
80294W        W48688  30.708  41.476   4.509
80295W        W48689   1.991  35.253   3.426
80296W        W48690  30.055  11.395  10.719
80297W        W48691  23.104  40.936   4.354
80298W        W48692  37.387  35.616  13.688
80299W        W48693  18.325  12.063  13.893
80300W        W48694   8.240  29.926   3.598
80301W        W48695  30.994  11.914   3.609
80302W        W48696  27.516   8.942  11.174
80303W        W48697  12.911  25.767  11.645
80304W        W48698  42.453  14.179   3.079
80305W        W48699  19.955   7.441   3.750
80306W        W48700   2.735  42.103  14.034
80307W        W48701   2.121  41.350  14.844
80308W        W48702   1.307   0.185  13.897
80309W        W48703   5.395   0.214   0.851
80310W        W48704  29.765  43.881   0.346
80311W        W48705  43.457   5.924  12.162
80312W        W48706  33.650  39.227   4.783
80313W        W48707  14.610  39.967   4.588
80314W        W48708  17.545   1.875  14.925
80315W        W48709  23.438  40.421  11.180
80316W        W48710  19.692  19.051   3.662
80317W        W48711  28.024   9.440  10.635
80318W        W48712   5.963  43.539  12.079
80319W        W48713   1.339  36.416   4.585
80320W        W48714  33.481  38.508   1.389
80321W        W48715   4.788   1.606  11.594
80322W        W48716  20.242  12.682  13.045
80323W        W48717  16.199  39.267   1.880
80324W        W48718  20.161  22.741  12.882
80325W        W48719  10.606  27.956  11.966
80326W        W48720  40.362  24.432   1.507
80327W        W48721  33.681  42.503   3.403
80328W        W48722  36.209   4.405  11.347
80329W        W48723  19.487  43.766   1.227
80330W        W48724  37.600  28.149   1.942
80331W        W48725  36.981  44.796   0.916
80332W        W48726  39.288   7.103  11.555
80333W        W48727   9.256  35.594  11.609
80334W        W48728  23.093  35.441   0.987
80335W        W48729  44.443  33.504   2.682
80336W        W48730  23.862  43.711  13.164
80337W        W48731   9.241  31.161  10.819
80338W        W48732   2.764  29.122  14.194
80339W        W48733  22.475   8.802  11.482
80340W        W48734  23.561  17.255  10.617
80341W        W48735  20.306  44.540  10.347
80342W        W48736  42.416  25.060   0.172
80343W        W48737  32.060  40.455  11.680
80344W        W48738  20.510  13.662  12.363
80345W        W48739   4.829  20.665  13.633
80346W        W48740  23.713  34.663  14.602
80347W        W48741  22.035   7.916   1.812
80348W        W48742   4.063  25.603   9.975
80349W        W48743  10.225  34.016   3.441
80350W        W48744   3.942  11.207  11.645
80351W        W48745  14.584  38.748  11.696
80352W        W48746  19.606  34.163   2.073
80353W        W48747   5.204  24.925  12.458
80354W        W48748  26.965   2.729  11.194
80355W        W48749  24.118  10.650   4.069
80356W        W48750  32.047   8.749   1.623
80357W        W48751  10.599  19.221  12.970
80358W        W48752   2.056   5.226  13.474
80359W        W48753   4.693   9.344  14.822
80360W        W48754  16.560  24.086   4.572
80361W        W48755  10.771  30.399  14.825
80362W        W48756  37.853   8.504  13.439
80363W        W48757  39.823  26.279  13.518
80364W        W48758  35.900  26.778  12.192
80365W        W48759   2.762  23.524   1.267
80366W        W48760   7.956  20.862  12.069
80367W        W48761  44.780  16.083   0.705
80368W        W48762  29.976  34.957  11.541
80369W        W48763  11.820  33.994   4.256
80370W        W48764  18.213   1.343  14.541
80371W        W48765   7.867   9.664   3.738
80372W        W48766  17.046  34.429  12.552
80373W        W48767  33.590   2.219  11.991
80374W        W48768  40.040  12.426   3.728
80375W        W48769  38.797  30.393   1.844
80376W        W48770  31.611  42.040  13.399
80377W        W48771  10.847   8.606   5.106
80378W        W48772  36.463  43.786   0.454
80379W        W48773  37.578  40.037  11.659
80380W        W48774  30.911   6.416   3.687
80381W        W48775   7.903  11.642   3.152
80382W        W48776   8.051  33.675  13.446
80383W        W48777  32.950  38.016   3.805
80384W        W48778  30.997   7.800   4.253
80385W        W48779   9.237  28.699   4.516
80386W        W48780  16.636   7.444  13.033
80387W        W48781  28.728  10.467   0.833
80388W        W48782  44.782  38.991   5.072
80389W        W48783  19.188  18.469   9.464
80390W        W48784  18.569  24.398   3.009
80391W        W48785  33.388  23.635  11.480
80392W        W48786  24.151  23.995  11.752
80393W        W48787   9.182  31.944   1.137
80394W        W48788   9.303  23.281  11.804
80395W        W48789  27.365  31.574  10.517
80396W        W48790  39.012  33.560   0.962
80397W        W48791  42.953  27.920   2.416
80398W        W48792  23.183  30.832  14.823
80399W        W48793  39.527  31.644   0.897
80400W        W48794  22.680  34.612  12.476
80401W        W48795  17.059  34.129   0.591
80402W        W48796  42.234  43.094   2.476
80403W        W48797  26.885  19.942  11.159
80404W        W48798  41.859  44.378   2.667
80405W        W48799  12.208  29.586   2.775
80406W        W48800   9.098  23.923  10.738
80407W        W48801   8.428  22.102   0.431
80408W        W48802   8.656   6.664   4.088
80409W        W48803   1.950  16.167  12.030
80410W        W48804  38.809  26.055   0.393
80411W        W48805   3.014  19.319  12.708
80412W        W48806  29.967  14.811  11.624
80413W        W48807  16.600  23.517   0.706
80414W        W48808  43.768  15.378   1.111
80415W        W48809  37.954  37.080  13.588
80416W        W48810  26.060  41.384  13.119
80417W        W48811  10.529  35.826   2.760
80418W        W48812  19.969  42.855   3.599
80419W        W48813  32.607  19.742   0.577
80420W        W48814  42.910  21.460   0.867
80421W        W48815  29.194   4.562   3.731
80422W        W48816   0.966  44.192   2.195
80423W        W48817  19.076  16.740   2.277
80424W        W48818  36.099  32.821   2.308
80425W        W48819   8.257   2.721  14.393
80426W        W48820  34.365  13.908  11.787
80427W        W48821  28.237  32.162   3.705
80428W        W48822  10.908  30.520   0.730
80429W        W48823  26.575  39.357   1.650
80430W        W48824  31.084   6.240  12.790
80431W        W48825  11.185   1.845   2.675
80432W        W48826   1.201  24.838   1.707
80433W        W48827  36.613  17.568  12.256
80434W        W48828   5.232  32.862  10.669
80435W        W48829  36.443  29.050  10.431
80436W        W48830   7.819  23.742  14.270
80437W        W48831  15.382  42.902   4.136
80438W        W48832  37.916  17.498   0.399
80439W        W48833  18.671  32.831  11.132
80440W        W48834  29.686  27.096  10.729
80441W        W48835  19.810   8.638   1.711
80442W        W48836  23.754  31.059  11.628
80443W        W48837  34.982  34.429   2.852
80444W        W48838  12.466  37.569  12.248
80445W        W48839  15.949  18.140   9.811
80446W        W48840  16.353  20.349   1.510
80447W        W48841   5.003   1.781  12.031
80448W        W48842   7.641  42.883  14.698
80449W        W48843  38.304  11.802  11.097
80450W        W48844  33.906  13.013  11.530
80451W        W48845  11.137  19.526  12.882
80452W        W48846   6.269  44.836   0.329
80453W        W48847   4.018   1.185  11.681
80454W        W48848  13.829  38.495  14.555
80455W        W48849  10.871  19.925  10.428
80456W        W48850  31.184   6.138  12.308
80457W        W48851  29.551  30.112   3.621
80458W        W48852  15.738  36.124  12.333
80459W        W48853  44.514  42.464   4.180
80460W        W48854  16.026  36.503   2.178
80461W        W48855  34.869  19.343   1.020
80462W        W48856  31.152  20.525  13.452
80463W        W48857  23.637  34.889  10.301
80464W        W48858  43.881   9.438   3.329
80465W        W48859  37.736  43.587   1.647
80466W        W48860  21.094  23.705  12.904
80467W        W48861  42.559  18.978  13.171
80468W        W48862  27.102  12.241   4.823
80469W        W48863  16.207  40.066  12.472
80470W        W48864  11.738  26.968  12.927
80471W        W48865  23.699  15.564   2.717
80472W        W48866  11.386  31.456  11.943
80473W        W48867  30.811  27.742  10.275
80474W        W48868   0.491  40.550   1.954
80475W        W48869  44.938  11.857   4.200
80476W        W48870  14.345  21.360  12.149
80477W        W48871  40.348  23.799   2.252
80478W        W48872  41.325  43.426  13.626
80479W        W48873  13.640  17.117   3.641
80480W        W48874  37.689  23.488   3.300
80481W        W48875  15.032  31.419   1.816
80482W        W48876  42.950   5.505  12.527
80483W        W48877  40.571  39.579  13.414
80484W        W48878  34.704  25.099   4.717
80485W        W48879  23.295  41.271  13.792
80486W        W48880  10.824   6.226   0.759
80487W        W48881   4.798  23.465   0.303
80488W        W48882  10.322   0.754  12.782
80489W        W48883  44.820  26.215  13.491
80490W        W48884  38.739  26.392  12.014
80491W        W48885  19.272  11.232  11.543
80492W        W48886  41.224  22.590  11.884
80493W        W48887  23.668  36.943   4.841
80494W        W48888  16.185  15.533   9.969
80495W        W48889  35.998  14.877   1.959
80496W        W48890  26.515   9.901  13.404
80497W        W48891  32.504  26.955  12.722
80498W        W48892  27.453   1.173  10.301
80499W        W48893  33.602  44.761   0.462
80500W        W48894  38.478  33.505  12.017
80501W        W48895  34.234  10.717   2.953
80502W        W48896  42.882  39.784  13.829
80503W        W48897  18.102  21.623  11.679
80504W        W48898  30.193  21.139  11.192
80505W        W48899   3.288  24.403  12.434
80506W        W48900  36.131   0.707   0.960
80507W        W48901  37.746  19.812  12.498
80508W        W48902  29.865  21.792  11.274
80509W        W48903  28.086   4.537   0.809
80510W        W48904  32.912  31.715  11.217
80511W        W48905   2.482  31.395  14.581
80512W        W48906   2.198  24.574   4.725
80513W        W48907  38.497  22.111  11.570
80514W        W48908  33.017   8.864   3.837
80515W        W48909  20.553  17.569  14.450
80516W        W48910  24.447  23.612  14.544
80517W        W48911  44.916  43.694   4.827
80518W        W48912   2.539  32.038  14.009
80519W        W48913  11.837  38.382  13.106
80520W        W48914  16.715   2.415   2.302
80521W        W48915   0.227  15.305   0.530
80522W        W48916  13.281  31.349  10.573
80523W        W48917  27.112  24.659   4.736
80524W        W48918  15.691  26.907  12.076
80525W        W48919  18.211   0.459   3.357
80526W        W48920  41.271   8.957   4.432
80527W        W48921  12.850  31.167  13.268
80528W        W48922  42.407  13.096   4.056
80529W        W48923  20.295  33.500  14.001
80530W        W48924   5.603  14.000   4.141
80531W        W48925   3.819   1.082  10.605
80532W        W48926  29.576  10.689   3.245
80533W        W48927   5.981  37.938   3.746
80534W        W48928  38.893  12.853   4.294
80535W        W48929  36.258  28.438  13.489
80536W        W48930   7.027  23.786   3.644
80537W        W48931  31.541  10.937   0.355
80538W        W48932  31.669   0.465   2.296
80539W        W48933  13.201   7.452   3.590
80540W        W48934  31.348   5.900   2.782
80541W        W48935   1.488  40.425   3.635
80542W        W48936  18.118  32.409  11.078
80543W        W48937  37.562  14.408  14.864
80544W        W48938   2.753  40.724   1.209
80545W        W48939  28.636  34.349   1.473
80546W        W48940   4.844  30.728   4.490
80547W        W48941  18.635  30.642  11.189
80548W        W48942  35.522  13.697  14.487
80549W        W48943  34.628   3.382  10.550
80550W        W48944  40.916  42.954   3.004
80551W        W48945  43.556  44.704  10.601
80552W        W48946  17.822  27.379   1.617
80553W        W48947   9.238   1.218   2.845
80554W        W48948  20.743  29.868  10.952
80555W        W48949  20.591  39.459  14.560
80556W        W48950  39.184  26.514   1.842
80557W        W48951  28.544   7.347   1.286
80558W        W48952   5.527  36.278  14.281
80559W        W48953  16.150  16.370   1.485
80560W        W48954   1.384  19.626  12.127
80561W        W48955  13.873  26.067   4.364
80562W        W48956  18.980   4.808   0.046
80563W        W48957  40.882  10.326  13.308
80564W        W48958  28.532  42.224   0.517
80565W        W48959  35.941  33.353   4.090
80566W        W48960  22.607   6.406  11.944
80567W        W48961  36.962   5.228  14.072
80568W        W48962  22.491  27.286   0.297
80569W        W48963  33.711  18.272   2.358
80570W        W48964  44.849  43.030  12.019
80571W        W48965  24.965  27.902   0.376
80572W        W48966  29.836  23.178   0.366
80573W        W48967  42.119  12.754  14.401
80574W        W48968  44.270  34.399  14.956
80575W        W48969  41.715  12.585  10.748
80576W        W48970  23.741  12.334  10.484
80577W        W48971   6.159  36.066   1.377
80578W        W48972  27.734  26.493  12.498
80579W        W48973  36.070  27.724   3.202
80580W        W48974  42.676  40.522  11.168
80581W        W48975  13.812  29.453  12.635
80582W        W48976  12.748  14.826  13.537
80583W        W48977  44.079  20.621  11.241
80584W        W48978   6.833  36.166   3.773
80585W        W48979   1.693  13.223   9.739
80586W        W48980   9.841  39.996   0.758
80587W        W48981  17.316  38.452   0.087
80588W        W48982  26.968  26.459   4.175
80589W        W48983  41.988  34.917  10.900
80590W        W48984  41.430  24.029  14.240
80591W        W48985   0.828  20.640  13.844
80592W        W48986   4.820  33.641  12.977
80593W        W48987  14.167  28.196   0.762
80594W        W48988  41.870   4.462   2.700
80595W        W48989  22.384   7.688  11.876
80596W        W48990  28.005  43.709   3.468
80597W        W48991  25.129  21.828   2.160
80598W        W48992  25.452   3.515  12.806
80599W        W48993  40.375  28.038   2.955
80600W        W48994  30.422   3.484   0.230
80601W        W48995  35.423  44.738  12.080
80602W        W48996  10.196  22.897  14.970
80603W        W48997   2.931  44.494  14.889
80604W        W48998  28.839  29.237  11.648
80605W        W48999  15.254   1.717   4.145
80606W        W49000  26.206  43.918  12.911
80607W        W49001  13.656  21.308  13.036
80608W        W49002  33.848   9.135  10.838
80609W        W49003  29.204  23.203  11.691
80610W        W49004  43.749   3.705  12.520
80611W        W49005  39.157  25.073  13.100
80612W        W49006  23.069   0.453   1.003
80613W        W49007  14.830   0.715   0.225
80614W        W49008  10.938   9.942  11.994
80615W        W49009  32.648  23.343  11.757
80616W        W49010  19.719  10.928   4.559
80617W        W49011  38.106   5.325   3.773
80618W        W49012   2.195   9.897   1.212
80619W        W49013  31.601  15.174   3.553
80620W        W49014  44.034  15.946   2.389
80621W        W49015  11.537  42.639  13.976
80622W        W49016   0.286   9.258   4.580
80623W        W49017   2.886  18.512   2.783
80624W        W49018  22.725  37.632   3.020
80625W        W49019   2.751   8.209   2.884
80626W        W49020  32.087  22.474   1.356
80627W        W49021  31.570   1.864   0.347
80628W        W49022   6.981  33.570  14.810
80629W        W49023  13.567  32.051   1.949
80630W        W49024  32.403  38.948   4.655
80631W        W49025  36.071  15.207   3.092
80632W        W49026  19.887  22.921   1.513
80633W        W49027  13.302   3.004  10.713
80634W        W49028  20.860  12.936   4.104
80635W        W49029  18.030  13.122  12.347
80636W        W49030  14.236  30.717   1.416
80637W        W49031  26.041  24.973  13.029
80638W        W49032  35.597  10.688  13.851
80639W        W49033   9.531  33.127   3.619
80640W        W49034  11.366   9.862  10.669
80641W        W49035   2.937  33.157  12.141
80642W        W49036  11.732  31.303   3.018
80643W        W49037  12.253  38.274   1.416
80644W        W49038  40.067  16.356  12.461
80645W        W49039   1.489  24.704   1.296
80646W        W49040  38.876  41.370   2.822
80647W        W49041   1.192  35.658  12.509
80648W        W49042   8.683  20.144   4.060
80649W        W49043  37.899  30.933  13.362
80650W        W49044   2.380   2.264   4.665
80651W        W49045  37.934   0.834   0.853
80652W        W49046   6.592  14.355  14.414
80653W        W49047  23.710  42.445   1.372
80654W        W49048  19.320  32.463  12.997
80655W        W49049  23.108  44.707   3.734
80656W        W49050  37.618  35.367  11.727
80657W        W49051  35.473  35.173   3.972
80658W        W49052  21.381  18.048   4.445
80659W        W49053   3.971   6.741  14.721
80660W        W49054  34.085   8.684  12.443
80661W        W49055  14.009  29.079   0.349
80662W        W49056  39.015  28.067  12.836
80663W        W49057  14.794  24.728  11.822
80664W        W49058  26.115   8.091  13.432
80665W        W49059  26.769  38.957   1.362
80666W        W49060   5.177  21.990   0.849
80667W        W49061   7.418  22.741   3.697
80668W        W49062  33.605  12.079  12.620
80669W        W49063  22.027  36.371  13.575
80670W        W49064  44.019  34.190   3.431
80671W        W49065  14.456  39.629   5.545
80672W        W49066  38.063  35.582   4.803
80673W        W49067   4.263   6.265   0.486
80674W        W49068  29.213  35.080  13.103
80675W        W49069  32.817  43.036  14.965
80676W        W49070  25.413  36.533   4.149
80677W        W49071   6.786  11.243  10.935
80678W        W49072  35.969  12.290   4.145
80679W        W49073  14.937  12.775   1.578
80680W        W49074  19.249  43.571   0.545
80681W        W49075   7.854   7.476   3.151
80682W        W49076  27.210  19.326   0.894
80683W        W49077  33.393  21.499   3.326
80684W        W49078  37.962  44.513   2.193
80685W        W49079  32.392  16.529  12.390
80686W        W49080   8.867  14.315  11.620
80687W        W49081   8.885  40.264   1.352
80688W        W49082  32.343  28.763   1.321
80689W        W49083  17.645  24.021  12.134
80690W        W49084  19.550   0.812  10.600
80691W        W49085  21.708  13.595  14.856
80692W        W49086  24.123   0.703   3.813
80693W        W49087  37.596   6.928  14.939
80694W        W49088  33.428  38.138   3.316
80695W        W49089   5.165  30.862  11.980
80696W        W49090   6.232  15.753  10.748
80697W        W49091   4.163  12.368  11.684
80698W        W49092   5.365   5.821   4.781
80699W        W49093  13.941  17.055  12.562
80700W        W49094  19.741  19.810  12.376
80701W        W49095  37.412  21.269   2.432
80702W        W49096   6.115  27.089  12.015
80703W        W49097  31.493  29.638  13.008
80704W        W49098  13.436  34.344   4.834
80705W        W49099  14.187   8.689   1.870
80706W        W49100  10.106  29.621   0.394
80707W        W49101  22.934   6.276   1.664
80708W        W49102  44.737  17.739  11.978
80709W        W49103   4.431  36.091  10.592
80710W        W49104  44.409  17.185   2.632
80711W        W49105  28.133  16.521   1.701
80712W        W49106  43.857  16.116  13.784
80713W        W49107  25.497  30.191  14.479
80714W        W49108  37.039  27.312   2.007
80715W        W49109  18.843  19.636  11.498
80716W        W49110   4.796  14.825  13.394
80717W        W49111   7.172  28.043   5.025
80718W        W49112   5.434  20.670  12.038
80719W        W49113  39.261  37.072   4.358
80720W        W49114  42.041  33.400   1.659
80721W        W49115   9.910  26.395  11.453
80722W        W49116  33.438  12.558   4.306
80723W        W49117  44.754  37.576   0.412
80724W        W49118   3.425   3.230   1.285
80725W        W49119  34.498  28.141  11.946
80726W        W49120  36.259   4.268   0.476
80727W        W49121  33.864  35.583   3.204
80728W        W49122   1.703  26.446  11.474
80729W        W49123  25.094  13.737   4.723
80730W        W49124  31.055  42.572  13.032
80731W        W49125  14.362  12.878   0.880
80732W        W49126   9.812   7.715  14.908
80733W        W49127  26.485  29.486  13.498
80734W        W49128  19.091  42.295   0.009
80735W        W49129  29.668  44.389  14.812
80736W        W49130  22.476  29.919   4.261
80737W        W49131  23.632  16.260  14.872
80738W        W49132  34.523  34.559   2.625
80739W        W49133  11.182  11.651   1.781
80740W        W49134  16.153  44.404   2.982
80741W        W49135  14.160  42.831   2.319
80742W        W49136   5.196  27.336   2.730
80743W        W49137  39.456  29.478  11.281
80744W        W49138   3.683  30.809   1.337
80745W        W49139  35.915  30.482   2.483
80746W        W49140  26.518   5.445   1.230
80747W        W49141  17.209  19.445  12.165
80748W        W49142   3.394  42.604  13.331
80749W        W49143   1.608   0.883   0.834
80750W        W49144  36.078  10.695  14.113
80751W        W49145  41.947  41.267   2.290
80752W        W49146   5.210  44.535   4.323
80753W        W49147  40.423  39.129   1.792
80754W        W49148  20.443  24.686   1.192
80755W        W49149   5.512  34.517  11.895
80756W        W49150  27.522  28.501   0.117
80757W        W49151  16.307  18.636   0.038
80758W        W49152  40.270  27.615   4.144
80759W        W49153  39.921   0.418  12.508
80760W        W49154  41.042  29.475   1.378
80761W        W49155  11.807  18.500   1.053
80762W        W49156   1.830  19.784   1.806
80763W        W49157  20.021  24.546  14.765
80764W        W49158  14.956  37.077  14.580
80765W        W49159  32.445  43.238  13.119
80766W        W49160  36.810   3.462   4.830
80767W        W49161  18.052  28.870  12.335
80768W        W49162  32.538  24.074   4.434
80769W        W49163  20.989  11.761   0.809
80770W        W49164   3.295  14.383   0.768
80771W        W49165  40.983  27.753   4.241
80772W        W49166  40.056  41.363   2.920
80773W        W49167   5.917  33.256  12.065
80774W        W49168  28.321  15.615   4.638
80775W        W49169  12.931  16.211   4.150
80776W        W49170  11.785   9.987   0.296
80777W        W49171   8.059   2.950  10.167
80778W        W49172  40.855  36.042   0.284
80779W        W49173  21.176   3.968   3.168
80780W        W49174  11.424  22.960  13.025
80781W        W49175  23.335  35.850   4.691
80782W        W49176   1.841   7.653  12.110
80783W        W49177  30.290  40.409  13.104
80784W        W49178  17.053  34.899  14.649
80785W        W49179  25.227  18.005  11.478
80786W        W49180  16.671  21.953   2.219
80787W        W49181  42.644  43.024   0.761
80788W        W49182  29.588  39.990  11.163
80789W        W49183  17.002   8.394  11.157
80790W        W49184  12.884   6.397  13.479
80791W        W49185  25.024  21.197   0.414
80792W        W49186  32.637  34.466   3.578
80793W        W49187  16.178  37.338  12.635
80794W        W49188  20.711  38.298  14.872
80795W        W49189   8.840   0.392  10.247
80796W        W49190  28.975  18.193  11.352
80797W        W49191   7.441  15.870   3.620
80798W        W49192   6.281  26.146   4.580
80799W        W49193  35.149  31.948   1.313
80800W        W49194  42.286  18.009  12.350
80801W        W49195  32.532  25.725  13.987
80802W        W49196  27.649  16.706   4.589
80803W        W49197  25.068  27.131   4.536
80804W        W49198  11.804   6.348   1.728
80805W        W49199   8.875  30.177  14.119
80806W        W49200  18.612  41.347   5.253
80807W        W49201  44.982   2.582   3.832
80808W        W49202  13.594   2.591  13.044
80809W        W49203  36.777  38.563  10.592
80810W        W49204  15.238  20.957  11.232
80811W        W49205  40.059   3.732   4.540
80812W        W49206  35.652  27.277   3.923
80813W        W49207   0.361  23.524   2.798
80814W        W49208  16.981  17.070   2.670
80815W        W49209  12.801  29.841   4.062
80816W        W49210   0.499  34.003  14.195
80817W        W49211  17.568  18.117   4.134
80818W        W49212  36.659  13.378   2.367
80819W        W49213  23.906  15.404   1.430
80820W        W49214   4.762  43.702  13.711
80821W        W49215  35.259  23.409   1.807
80822W        W49216   3.665  44.108  12.683
80823W        W49217  15.715  21.720  13.748
80824W        W49218   3.647  42.968  13.970
80825W        W49219   0.448   2.679  14.342
80826W        W49220   0.133  38.040  10.047
80827W        W49221  16.250  40.521   2.866
80828W        W49222  17.670  33.453   1.021
80829W        W49223  19.726  25.439  11.610
80830W        W49224  41.906  19.022  12.065
80831W        W49225  22.989  31.008  11.166
80832W        W49226  27.566  38.713  11.399
80833W        W49227  34.826   4.450  11.155
80834W        W49228   8.038  41.770   4.160
80835W        W49229  18.376  14.120   1.256
80836W        W49230  42.883  12.833  14.921
80837W        W49231   4.812  31.324  13.533
80838W        W49232  25.957   7.888   4.231
80839W        W49233  40.894  30.053   2.897
80840W        W49234  17.179  18.481  14.949
80841W        W49235  42.491  35.891   2.778
80842W        W49236   0.988  10.557  11.545
80843W        W49237  35.141  20.129  12.932
80844W        W49238   4.153   6.202  11.134
80845W        W49239   8.179  38.326  13.615
80846W        W49240  34.034  22.187  11.026
80847W        W49241  26.169  38.538  13.612
80848W        W49242   2.187  29.421  12.955
80849W        W49243  26.424  38.572  12.026
80850W        W49244   9.104  38.911   2.324
80851W        W49245  42.811  13.881  14.100
80852W        W49246  17.140  23.062   4.592
80853W        W49247  42.819  35.804   3.184
80854W        W49248  18.665  31.661  10.031
80855W        W49249  32.924  10.898  11.571
80856W        W49250   7.236  42.078  12.508
80857W        W49251  23.577  23.289  13.400
80858W        W49252  22.279  36.585   0.905
80859W        W49253  29.171  35.536   1.666
80860W        W49254  29.560  27.102   1.279
80861W        W49255   5.495  25.078   2.680
80862W        W49256  25.463  24.743  12.505
80863W        W49257  26.546  14.292   2.313
80864W        W49258   7.171  32.142   2.403
80865W        W49259   7.389  32.922  10.525
80866W        W49260  27.616   7.381   4.285
80867W        W49261  26.840  22.107   1.158
80868W        W49262  22.257   2.470   3.632
80869W        W49263   0.773  22.101  14.290
80870W        W49264   4.598  10.191   3.791
80871W        W49265  27.776   3.369  12.921
80872W        W49266  19.174  14.719  14.094
80873W        W49267  17.250  17.814  14.274
80874W        W49268  20.563  16.033  12.009
80875W        W49269  27.719  36.316   2.691
80876W        W49270   2.025  12.621  12.958
80877W        W49271  16.436  40.578   3.356
80878W        W49272  42.401  23.130  13.944
80879W        W49273  44.532  25.564  10.532
80880W        W49274  34.115  34.302   2.408
80881W        W49275  25.054  11.571   3.423
80882W        W49276  32.957  21.202  10.903
80883W        W49277   7.438  35.501   2.310
80884W        W49278  21.146  19.133   2.282
80885W        W49279   2.881  13.881  13.208
80886W        W49280  23.549   4.384  14.261
80887W        W49281   4.366  13.818  11.217
80888W        W49282  44.298  44.966  14.111
80889W        W49283  20.150  21.536  10.397
80890W        W49284  42.455  24.800  14.671
80891W        W49285  32.551   8.284   4.586
80892W        W49286  12.031  34.025  12.978
80893W        W49287  33.903   7.385   3.217
80894W        W49288  33.546   9.889  14.884
80895W        W49289  16.850  14.916   1.735
80896W        W49290  30.667  19.601  14.274
80897W        W49291  43.405  22.293   4.579
80898W        W49292  36.967  30.388   1.896
80899W        W49293  19.307  25.121  11.644
80900W        W49294  12.823   9.239   4.214
80901W        W49295  18.526   0.896   3.217
80902W        W49296  26.619   2.306   4.508
80903W        W49297   4.374  32.541   0.241
80904W        W49298  25.624  18.572   0.091
80905W        W49299  41.981   4.983   0.936
80906W        W49300  25.721   6.484   2.822
80907W        W49301  25.287  19.158  14.318
80908W        W49302   0.363  40.384   3.242
80909W        W49303  32.232  18.010  13.745
80910W        W49304  31.250  16.753   4.029
80911W        W49305   5.915   6.750  13.044
80912W        W49306  26.345  21.977   1.240
80913W        W49307  23.002  37.861   0.205
80914W        W49308  10.436  21.130   0.248
80915W        W49309  18.625  14.011   3.343
80916W        W49310  43.839   8.310  14.492
80917W        W49311  35.603  44.697  14.901
80918W        W49312  43.300  43.742   1.220
80919W        W49313  11.165   9.717  11.593
80920W        W49314   0.079  32.870   2.195
80921W        W49315  10.396   0.043   0.243
80922W        W49316  43.956   8.623  11.581
80923W        W49317  42.061   0.922  12.189
80924W        W49318  29.502  32.084  13.503
80925W        W49319   7.465   0.306  13.402
80926W        W49320  44.504  26.613  11.638
80927W        W49321  26.007  16.177   4.493
80928W        W49322  30.557  42.676  14.828
80929W        W49323  20.792  30.374  10.963
80930W        W49324  30.556  26.954  13.391
80931W        W49325  19.491  28.942   1.893
80932W        W49326  32.584   8.219   3.617
80933W        W49327  14.684   2.168  12.058
80934W        W49328  14.276  39.066  12.983
80935W        W49329  31.147  27.562   1.848
80936W        W49330  28.515  29.765  11.151
80937W        W49331  26.911   0.296   4.095
80938W        W49332   0.468  10.184   0.723
80939W        W49333  39.945  18.700  11.861
80940W        W49334  11.509  44.009   2.105
80941W        W49335   4.446  35.924   3.410
80942W        W49336  38.674   2.300  12.522
80943W        W49337  34.545   5.258  10.777
80944W        W49338   3.230   9.313  13.130
80945W        W49339  41.434  15.327   1.287
80946W        W49340  13.108  16.787  14.239
80947W        W49341  41.331  21.626   4.649
80948W        W49342  28.574   6.947  11.042
80949W        W49343  42.411  15.298  13.541
80950W        W49344  32.519   9.678   0.674
80951W        W49345  40.350  13.524  12.159
80952W        W49346  31.984  20.476   0.770
80953W        W49347  16.712  36.407  14.839
80954W        W49348  35.903   0.468  12.517
80955W        W49349  11.672  18.204  10.676
80956W        W49350  38.873  39.558   1.404
80957W        W49351  20.233   5.089   2.580
80958W        W49352  17.385  41.754   4.799
80959W        W49353  27.925   0.349   4.141
80960W        W49354  14.138  13.569  13.514
80961W        W49355  28.449  18.516   1.749
80962W        W49356  44.067   9.841   1.950
80963W        W49357  13.480  38.877  14.724
80964W        W49358  33.151  37.549  14.758
80965W        W49359  41.958  40.187   9.970
80966W        W49360   6.101   8.916   4.253
80967W        W49361   3.170   3.815  11.988
80968W        W49362  22.939  13.206   1.934
80969W        W49363   2.171  23.486   2.788
80970W        W49364  26.706  38.024  11.166
80971W        W49365  17.691  11.841  12.598
80972W        W49366  44.736  21.260  14.602
80973W        W49367  41.090  34.629  13.585
80974W        W49368  35.327  32.289   2.501
80975W        W49369  11.149  28.554   2.936
80976W        W49370  24.265  38.112  11.435
80977W        W49371   0.281  25.738  12.082
80978W        W49372  22.619   0.245  12.486
80979W        W49373  24.313   4.434   1.878
80980W        W49374  34.996  21.758  12.967
80981W        W49375  37.294  22.665  12.514
80982W        W49376  32.417  35.474   0.301
80983W        W49377   7.865  18.836  13.993
80984W        W49378   0.802  28.617  14.041
80985W        W49379   5.369   1.446  12.667
80986W        W49380   4.467  27.440   1.134
80987W        W49381  27.190  28.933   4.368
80988W        W49382  29.164  11.659   0.154
80989W        W49383  42.826  21.546  10.748
80990W        W49384  24.786  36.406  14.973
80991W        W49385  11.918  16.641  11.852
80992W        W49386  28.788  15.237   2.942
80993W        W49387  21.001  20.112  11.518
80994W        W49388  34.474  29.912  13.465
80995W        W49389  39.170  10.194   0.375
80996W        W49390  11.702  34.961   4.585
80997W        W49391  24.738   8.316  13.276
80998W        W49392  36.854  38.862   3.647
80999W        W49393  31.924   5.141  14.111
81000W        W49394  44.791  24.113  12.197
81001W        W49395  40.916  11.390   2.678
81002W        W49396   9.850   4.480   4.183
81003W        W49397  12.916  43.686  11.197
81004W        W49398  19.683  17.242   3.193
81005W        W49399  41.848  22.334  13.586
81006W        W49400  41.421   6.633  11.081
81007W        W49401  25.997  44.503   3.768
81008W        W49402   6.640  26.194  14.527
81009W        W49403  25.165  30.188   1.859
81010W        W49404  32.772  24.854   2.999
81011W        W49405  27.068  12.895  13.813
81012W        W49406  36.835  24.413   2.100
81013W        W49407  28.087  13.114   3.078
81014W        W49408  44.221  10.333  13.369
81015W        W49409  14.013  18.819  12.563
81016W        W49410  13.531  16.273   0.461
81017W        W49411  20.328  24.579   2.797
81018W        W49412   1.108  43.431  11.486
81019W        W49413  27.604   3.973  12.201
81020W        W49414  22.277  24.488  10.758
81021W        W49415   3.658  17.585   5.046
81022W        W49416   2.739  21.122   0.931
81023W        W49417  11.085   9.564  13.274
81024W        W49418  20.971  24.080   2.168
81025W        W49419   8.616  38.422  13.370
81026W        W49420  15.086   2.069  12.650
81027W        W49421  15.819  17.551   2.291
81028W        W49422  37.028   7.243  14.907
81029W        W49423  37.071  29.177   2.804
81030W        W49424  34.502  32.220  13.095
81031W        W49425  41.729  28.016  11.086
81032W        W49426  40.863   4.717  11.686
81033W        W49427   9.129   7.561   0.686
81034W        W49428  21.094  33.049  14.054
81035W        W49429   3.121  36.074   2.279
81036W        W49430  31.382  12.266   0.888
81037W        W49431   9.458  16.052  12.497
81038W        W49432  19.069  35.849   0.969
81039W        W49433  23.530  10.515  14.843
81040W        W49434  42.403  12.510  11.909
81041W        W49435   2.372  11.829  11.183
81042W        W49436   5.109  44.229  12.540
81043W        W49437  31.991  19.743   4.592
81044W        W49438  26.416  11.162  10.779
81045W        W49439  35.119  36.969   2.839
81046W        W49440   3.523  27.036  14.809
81047W        W49441  26.408  44.809   2.605
81048W        W49442  25.539  13.574   1.404
81049W        W49443  40.102  28.025  13.024
81050W        W49444  21.137  15.130  12.065
81051W        W49445  14.751  31.842   2.052
81052W        W49446  40.812  17.037   2.006
81053W        W49447  43.770  13.701   3.777
81054W        W49448  41.977  31.478  12.890
81055W        W49449  16.321  17.541  11.118
81056W        W49450   4.837  37.533   0.785
81057W        W49451   3.418  11.679   5.103
81058W        W49452  35.500  36.538  10.752
81059W        W49453   5.885  40.904  10.684
81060W        W49454  22.428  10.665  13.030
81061W        W49455  15.852  42.390   0.766
81062W        W49456   9.547   5.028  11.081
81063W        W49457  30.530  19.013  13.102
81064W        W49458  17.175  26.715  13.579
81065W        W49459  32.469   6.391   3.184
81066W        W49460  33.549  37.206  14.789
81067W        W49461  30.442  14.790  13.861
81068W        W49462   3.534  16.885   2.017
81069W        W49463  18.089  32.268  10.554
81070W        W49464  39.080  25.236  12.480
81071W        W49465  18.174  35.897   0.713
81072W        W49466  13.730  26.308   2.336
81073W        W49467   8.660  19.596   1.389
81074W        W49468   4.229  15.750  13.533
81075W        W49469  12.728  12.195   2.413
81076W        W49470   0.536  42.206  10.704
81077W        W49471  38.314  17.388  11.087
81078W        W49472  38.812  12.568  13.881
81079W        W49473  15.276  11.367   4.557
81080W        W49474  25.186  12.270   3.807
81081W        W49475  28.034   8.707  14.139
81082W        W49476  40.016  28.651  14.267
81083W        W49477  31.121   4.008   0.100
81084W        W49478  28.434  40.966   3.595
81085W        W49479   0.964  33.899  13.984
81086W        W49480   4.970  26.808   1.397
81087W        W49481  43.729  31.137   0.593
81088W        W49482   4.130   1.378   2.187
81089W        W49483   2.206  11.321  14.004
81090W        W49484   0.306  36.763  11.054
81091W        W49485  31.573  14.681   1.698
81092W        W49486   2.254  27.201  12.324
81093W        W49487  28.325  16.682   2.554
81094W        W49488   2.968   2.884   0.731
81095W        W49489   7.691  32.473   3.389
81096W        W49490  21.985  41.533   4.713
81097W        W49491   0.497  39.880   2.245
81098W        W49492  19.866   5.699   1.877
81099W        W49493   4.407  22.802  11.560
81100W        W49494   9.719  15.316  13.019
81101W        W49495  40.785  44.919   4.574
81102W        W49496   1.010  34.758  11.643
81103W        W49497  28.258  42.400  12.986
81104W        W49498  24.535  17.562   4.656
81105W        W49499  39.278  22.095   0.393
81106W        W49500  30.450   5.276   4.570
81107W        W49501  29.664  21.097  14.857
81108W        W49502  20.738  20.470   4.591
81109W        W49503  13.591  42.937   0.370
81110W        W49504  16.703  41.203   0.718
81111W        W49505  36.126  36.062  13.826
81112W        W49506  35.426  36.081  12.144
81113W        W49507   2.987  32.118  14.410
81114W        W49508  17.951  31.339  13.799
81115W        W49509   2.348   1.708  13.927
81116W        W49510   5.557  16.377   0.092
81117W        W49511  24.074  29.129  12.466
81118W        W49512  34.660   5.189   3.746
81119W        W49513  23.549  19.106   0.803
81120W        W49514   5.678  35.665  11.558
81121W        W49515  42.824  34.588   4.450
81122W        W49516  40.066  17.533   0.579
81123W        W49517  29.444   2.684  11.070
81124W        W49518  38.300  27.861  11.051
81125W        W49519   4.968  19.697  13.427
81126W        W49520  33.173  32.453   2.822
81127W        W49521  22.794   2.335   1.365
81128W        W49522  22.949  29.038  14.914
81129W        W49523   7.121   8.769   4.110
81130W        W49524  44.527  20.232  11.998
81131W        W49525   8.184  23.520  14.566
81132W        W49526  41.161  31.378   2.680
81133W        W49527   4.142  12.920   0.339
81134W        W49528  28.574   4.879  12.176
81135W        W49529  32.846  23.865   2.659
81136W        W49530  36.882   1.609   0.388
81137W        W49531   6.677  25.723  12.860
81138W        W49532   4.451  22.549   1.791
81139W        W49533  28.571  40.849   1.136
81140W        W49534  11.555  19.655  10.960
81141W        W49535  31.519  37.962   4.287
81142W        W49536  20.490  37.066  13.129
81143W        W49537  38.340  22.939   4.106
81144W        W49538  44.067   7.448   0.333
81145W        W49539  20.325  28.210   2.813
81146W        W49540   3.662  16.990   0.497
81147W        W49541  19.534  37.144  13.529
81148W        W49542  15.892   4.173  11.593
81149W        W49543  44.599  12.341  13.593
81150W        W49544  29.550  28.510  10.801
81151W        W49545  12.527  16.708   2.012
81152W        W49546   0.794   9.855  10.419
81153W        W49547  10.304  35.334   2.480
81154W        W49548   7.232  14.750   0.660
81155W        W49549  26.446  24.284   1.827
81156W        W49550   5.360  36.086  10.716
81157W        W49551  41.693  37.967  13.411
81158W        W49552  10.067   6.122  12.982
81159W        W49553  41.015  42.443  13.620
81160W        W49554  44.416  24.122   0.179
81161W        W49555  39.988  12.947   2.282
81162W        W49556  23.623  42.021  10.951
81163W        W49557  42.036  27.915   4.156
81164W        W49558  21.577  36.530   4.386
81165W        W49559   1.702  27.970   3.741
81166W        W49560  44.390  27.582  14.444
81167W        W49561  14.733   3.624   4.566
81168W        W49562   2.699  29.037  12.399
81169W        W49563   0.410  20.056   2.596
81170W        W49564   1.196  43.997   2.635
81171W        W49565  39.343  41.519   4.048
81172W        W49566   5.261  39.877   1.584
81173W        W49567  11.825   8.327   0.749
81174W        W49568   6.682  26.071   0.014
81175W        W49569  21.841  39.048  10.406
81176W        W49570   8.899  11.687  13.886
81177W        W49571  20.290   8.766  14.420
81178W        W49572   5.085   5.834  12.569
81179W        W49573   0.333  29.513  11.632
81180W        W49574  34.583  35.749   2.503
81181W        W49575  38.857   9.386  12.850
81182W        W49576   3.161  22.583   1.326
81183W        W49577  35.682  21.323   3.865
81184W        W49578  44.019  21.846  11.158
81185W        W49579  13.640  40.400  14.357
81186W        W49580  12.698   1.366   1.211
81187W        W49581  20.552  39.310  10.684
81188W        W49582  14.419  37.149  14.862
81189W        W49583  31.147  17.830  11.025
81190W        W49584  26.949   1.042   3.677
81191W        W49585  34.848  30.922  14.850
81192W        W49586   7.255  20.128   3.096
81193W        W49587  43.340  41.284   1.183
81194W        W49588   1.877   8.960   0.052
81195W        W49589   8.179  19.349  13.118
81196W        W49590   8.430   1.885   0.728
81197W        W49591  29.870  23.598  14.034
81198W        W49592  40.089   7.103   1.363
81199W        W49593   0.437  16.095   4.086
81200W        W49594   3.601  23.766   2.365
81201W        W49595  24.154  20.323   2.159
81202W        W49596  22.028   7.242  10.688
81203W        W49597  13.644  24.253   2.013
81204W        W49598  36.149   2.537  13.005
81205W        W49599  40.541  24.654  13.855
81206W        W49600  15.374   7.652   1.080
81207W        W49601   4.370  12.229   2.930
81208W        W49602   3.526  40.012   0.824
81209W        W49603  15.718  22.664   5.004
81210W        W49604  35.566   2.307  14.494
81211W        W49605  17.852  26.692  12.527
81212W        W49606  39.976  37.059   3.287
81213W        W49607   4.315  24.885  11.099
81214W        W49608  36.492  29.519  13.918
81215W        W49609  21.222   0.264  10.241
81216W        W49610  29.190  11.887   1.028
81217W        W49611  31.846  14.737  11.166
81218W        W49612   6.731  30.472  13.366
81219W        W49613  12.256  25.577   4.750
81220W        W49614  30.933  33.564  11.615
81221W        W49615   6.314   2.350   3.256
81222W        W49616   0.356  41.788  12.082
81223W        W49617  19.782  42.259   0.941
81224W        W49618  43.557  21.611  12.565
81225W        W49619  15.050   0.489   1.372
81226W        W49620  28.515  30.396  11.570
81227W        W49621   8.834   2.283  11.521
81228W        W49622  34.523  24.106  14.375
81229W        W49623  43.548  17.326   2.122
81230W        W49624   7.680   6.997   2.654
81231W        W49625  44.240  38.006   9.475
81232W        W49626   0.619  41.363   0.004
81233W        W49627  13.623  37.987  12.778
81234W        W49628  27.743  36.297   1.705
81235W        W49629  27.965  40.177   3.731
81236W        W49630   0.829   8.526  14.810
81237W        W49631  41.251  25.325   0.888
81238W        W49632  35.618  37.912  13.384
81239W        W49633  36.998  40.819  11.925
81240W        W49634  32.908  24.068   3.594
81241W        W49635  30.067  20.114  14.000
81242W        W49636   8.639  10.100   1.731
81243W        W49637  12.242  12.273   3.172
81244W        W49638  15.381  21.744  13.346
81245W        W49639  30.139  14.488   0.616
81246W        W49640   4.334  39.388   4.171
81247W        W49641  33.843  25.246  13.907
81248W        W49642  36.759  23.962   2.393
81249W        W49643  38.485  30.846   4.073
81250W        W49644  10.153   0.461   3.221
81251W        W49645  22.404  19.546  14.509
81252W        W49646  14.033  16.135  11.127
81253W        W49647  14.079  14.160  14.510
81254W        W49648  27.987  19.331   0.039
81255W        W49649  16.372   9.854  12.079
81256W        W49650  28.020  41.720   3.759
81257W        W49651  35.533  29.074  10.674
81258W        W49652  18.848   5.989   0.376
81259W        W49653  27.583  21.117   4.594
81260W        W49654  12.759  36.197  14.263
81261W        W49655  27.940   4.840  11.168
81262W        W49656  19.748  41.455   2.145
81263W        W49657  29.880  14.255   2.836
81264W        W49658  21.960   7.389   0.282
81265W        W49659  26.910  17.135   1.455
81266W        W49660   2.282  31.587   4.134
81267W        W49661  23.085  15.025  11.868
81268W        W49662  29.832   6.375   2.865
81269W        W49663  36.997  32.092   3.745
81270W        W49664   2.922  38.322  11.947
81271W        W49665  21.283   4.483  12.979
81272W        W49666   4.855  14.612  11.338
81273W        W49667  30.224   5.829  13.982
81274W        W49668  11.217  40.729  12.334
81275W        W49669   2.273  43.405  14.468
81276W        W49670  44.044  28.907  13.491
81277W        W49671  27.371  38.795   3.908
81278W        W49672  11.489  16.068  12.532
81279W        W49673  16.422  29.348   1.738
81280W        W49674  18.329  17.848  11.140
81281W        W49675  36.985  21.799   1.674
81282W        W49676  27.022  12.564  10.681
81283W        W49677  39.202  27.384  11.510
81284W        W49678  20.528  38.556  11.610
81285W        W49679  34.765  39.417  14.393
81286W        W49680   3.800  27.025   3.925
81287W        W49681  28.361  30.115  10.333
81288W        W49682  19.659   6.800   2.722
81289W        W49683  28.152   2.032   0.207
81290W        W49684  21.284  17.235  13.568
81291W        W49685  37.778  26.594  10.506
81292W        W49686  41.633  44.960   2.792
81293W        W49687  42.962  26.087  12.045
81294W        W49688   6.290   5.707  12.030
81295W        W49689   1.287  32.967  12.432
81296W        W49690  44.696  40.517   4.141
81297W        W49691  38.840   6.511  14.210
81298W        W49692  26.123  24.281  11.175
81299W        W49693  17.355   9.202  11.594
81300W        W49694  36.373  37.787  14.850
81301W        W49695   8.165  30.535  13.124
81302W        W49696  28.015  22.164  11.704
81303W        W49697  26.030  42.775   2.974
81304W        W49698   2.803  37.353   4.579
81305W        W49699   1.277  22.918   1.261
81306W        W49700  21.145  17.595   4.430
81307W        W49701  40.602  39.695  10.074
81308W        W49702  25.631   4.195  11.479
81309W        W49703  34.962   3.270   2.541
81310W        W49704  33.792  36.870   4.117
81311W        W49705   3.021  27.245  13.325
81312W        W49706  13.739  41.626   4.099
81313W        W49707  26.906  20.192  12.609
81314W        W49708  10.764   5.729   0.876
81315W        W49709  22.891  26.236  14.801
81316W        W49710  18.958   2.814  13.796
81317W        W49711  13.242  25.163   4.920
81318W        W49712  19.783  39.615  14.908
81319W        W49713  24.595  23.551  11.190
81320W        W49714  14.945  17.736   4.401
81321W        W49715  40.625  24.793  12.091
81322W        W49716   5.093   5.359   0.287
81323W        W49717  27.525  24.942   0.934
81324W        W49718  38.140  23.561  11.519
81325W        W49719  29.213   5.751   4.205
81326W        W49720  35.842  10.094   3.762
81327W        W49721  36.131  42.211  12.459
81328W        W49722   2.843  40.044  12.982
81329W        W49723  22.153   9.722  14.214
81330W        W49724   1.144  34.377   3.722
81331W        W49725  22.286   7.180   2.357
81332W        W49726  28.520  32.709  13.830
81333W        W49727  25.667  32.540  13.022
81334W        W49728  31.034  33.968   2.271
81335W        W49729  40.007  18.700   2.034
81336W        W49730  37.978  35.950   3.097
81337W        W49731  15.476   7.667  11.627
81338W        W49732   9.299  16.474  10.534
81339W        W49733   8.897   5.810   2.218
81340W        W49734  18.215  32.910   2.781
81341W        W49735  38.597  24.130  12.845
81342W        W49736  33.876  21.919  11.429
81343W        W49737   5.662  34.295  14.292
81344W        W49738  22.062  22.175  11.579
81345W        W49739   5.392  12.621   4.618
81346W        W49740   6.756  42.824   0.868
81347W        W49741  36.513   4.102   4.055
81348W        W49742  27.473   6.780   2.393
81349W        W49743  36.508  18.073   0.724
81350W        W49744  16.296  38.304  12.361
81351W        W49745  37.506  10.786   0.878
81352W        W49746  43.731  37.130  12.454
81353W        W49747  44.224   3.562   4.266
81354W        W49748   8.295   3.535   2.708
81355W        W49749   3.166  39.055   4.950
81356W        W49750   5.257  16.703   4.037
81357W        W49751   1.764  25.549  11.484
81358W        W49752  28.711  38.841   2.268
81359W        W49753  24.506  41.440  11.758
81360W        W49754   9.686  27.913   4.619
81361W        W49755   5.300   3.779   2.733
81362W        W49756  22.400  11.294   3.201
81363W        W49757  32.026  16.556   1.956
81364W        W49758   5.560  34.569  14.722
81365W        W49759  35.086  40.889   3.389
81366W        W49760  11.843  40.233   2.742
81367W        W49761   5.656   9.657  11.568
81368W        W49762  27.078  36.408   4.726
81369W        W49763  10.129  22.495   2.705
81370W        W49764  20.837   0.730  14.839
81371W        W49765  35.130  38.921   2.767
81372W        W49766   4.511   5.460   3.272
81373W        W49767  34.892  21.178  10.795
81374W        W49768  17.641  35.673   3.300
81375W        W49769  31.665   9.210   3.692
81376W        W49770  27.829  22.011  10.161
81377W        W49771  41.566  39.382   1.010
81378W        W49772  44.481  10.827   0.357
81379W        W49773  17.705  18.746   1.146
81380W        W49774  37.684   5.002  11.550
81381W        W49775   6.994  14.699   2.437
81382W        W49776   3.822  34.183   1.338
81383W        W49777  20.133  17.865  11.292
81384W        W49778  21.680   3.554   4.378
81385W        W49779  19.234  17.270  11.886
81386W        W49780   5.283  37.104  12.832
81387W        W49781  23.935  33.116  11.449
81388W        W49782  22.917   3.795   3.661
81389W        W49783  13.248  35.630  13.910
81390W        W49784  23.502   3.854   2.835
81391W        W49785   5.710  16.782   1.257
81392W        W49786  17.678   1.774   3.825
81393W        W49787  30.531   3.869   2.967
81394W        W49788  24.148  16.358  12.037
81395W        W49789  29.028   5.217   2.321
81396W        W49790  32.831   1.441   1.338
81397W        W49791  41.214  35.000  14.551
81398W        W49792  44.767   8.782  10.965
81399W        W49793  30.386   4.747  12.838
81400W        W49794   4.505  28.530  14.342
81401W        W49795   9.145  31.200  14.385
81402W        W49796  30.165  12.152   1.893
81403W        W49797  23.305  37.425  12.320
81404W        W49798  12.130   8.370   3.126
81405W        W49799  16.686  20.555  14.216
81406W        W49800   0.760  35.502  10.550
81407W        W49801  21.512   6.351   1.911
81408W        W49802   2.570  17.791  14.571
81409W        W49803   0.947   4.888   3.806
81410W        W49804  40.447  19.321  10.725
81411W        W49805  23.717  25.120   1.712
81412W        W49806  13.875  26.498  14.510
81413W        W49807   1.329  17.997  14.715
81414W        W49808   8.769  12.264  12.959
81415W        W49809   7.196  27.952  10.374
81416W        W49810   6.270  33.245   0.355
81417W        W49811   6.347   7.639  13.356
81418W        W49812  28.129  12.336   4.837
81419W        W49813  34.377   7.987   2.322
81420W        W49814   4.822  39.569   0.961
81421W        W49815   8.334  35.956  13.091
81422W        W49816  12.804  42.772  14.028
81423W        W49817  22.192   4.788  10.393
81424W        W49818   6.963  33.523   3.203
81425W        W49819   3.869  25.026   2.708
81426W        W49820  19.077  11.764   2.924
81427W        W49821  39.012   3.336  13.533
81428W        W49822  34.499  34.345   4.655
81429W        W49823   9.096  23.717   2.300
81430W        W49824  23.500   6.760   4.586
81431W        W49825  32.115  40.707  10.811
81432W        W49826   1.404  25.951   3.132
81433W        W49827   2.442  18.837   0.365
81434W        W49828  15.334   7.863  11.156
81435W        W49829  12.242  27.653  12.588
81436W        W49830  23.053   5.257   3.120
81437W        W49831  35.215  33.471   4.563
81438W        W49832  44.678   8.506  12.522
81439W        W49833   5.914   5.357  13.043
81440W        W49834  29.330   8.759   4.238
81441W        W49835  13.389  34.841   3.959
81442W        W49836  40.517  14.811   1.396
81443W        W49837  23.405  42.837  14.771
81444W        W49838  43.983  35.924  11.419
81445W        W49839  44.762  37.922  12.509
81446W        W49840  16.802  24.073   3.101
81447W        W49841  44.560  39.478  12.175
81448W        W49842  44.503   0.240  14.523
81449W        W49843  24.202  25.957  13.411
81450W        W49844  37.585  25.954   3.131
81451W        W49845   4.885  14.219   9.911
81452W        W49846  14.999  32.686  14.278
81453W        W49847  24.621   6.322  11.822
81454W        W49848  44.483  32.343  14.894
81455W        W49849  32.267  33.690  11.128
81456W        W49850  32.396  17.846   3.804
81457W        W49851  32.011   3.303  10.725
81458W        W49852   6.179   6.153   3.217
81459W        W49853  22.471  10.467   2.224
81460W        W49854  10.494  34.612  12.134
81461W        W49855  14.411  28.140  11.200
81462W        W49856   6.721   6.427   4.730
81463W        W49857  31.443   3.627   0.006
81464W        W49858  19.665   5.673  11.737
81465W        W49859  19.536  14.338  13.969
81466W        W49860  44.931  33.350   2.948
81467W        W49861  14.958   6.408  11.201
81468W        W49862   4.154  18.807  14.445
81469W        W49863   3.953  30.855   3.361
81470W        W49864  38.850  34.126  12.111
81471W        W49865  21.146  14.396  13.479
81472W        W49866  28.502  19.786   2.367
81473W        W49867  25.154  31.946  11.186
81474W        W49868  35.088  39.264   1.360
81475W        W49869   0.342  15.595   1.336
81476W        W49870  36.596  38.988   4.065
81477W        W49871  44.150  19.076   3.821
81478W        W49872   0.923  32.046   4.294
81479W        W49873  15.220  24.084  13.855
81480W        W49874  36.286  31.580   4.600
81481W        W49875   2.319  29.604  14.968
81482W        W49876   6.346  35.600   1.507
81483W        W49877  35.149  30.569  10.333
81484W        W49878  20.944  19.295   1.795
81485W        W49879  29.353  20.164   5.205
81486W        W49880  24.196  32.028  14.793
81487W        W49881  41.708  15.819  14.806
81488W        W49882   9.677  17.155  13.371
81489W        W49883   7.874  21.742   3.805
81490W        W49884  22.812  21.967   3.702
81491W        W49885  17.520  36.516   3.546
81492W        W49886  28.925  44.654  14.551
81493W        W49887  30.931  12.734   3.103
81494W        W49888  18.142   7.703   0.654
81495W        W49889   2.866  43.998  14.818
81496W        W49890  34.961  11.196   2.825
81497W        W49891   4.260   7.598  13.463
81498W        W49892  12.845  37.198   1.682
81499W        W49893  14.921  43.882  11.634
81500W        W49894  14.333  23.149   0.228
81501W        W49895  24.162  37.070  12.459
81502W        W49896  36.319  33.985  11.808
81503W        W49897  25.607  21.650   0.403
81504W        W49898  11.052  18.368   2.265
81505W        W49899   5.197  17.241  10.246
81506W        W49900  22.110  18.767  11.216
81507W        W49901   6.370  31.992  11.916
81508W        W49902   6.692  40.594  10.495
81509W        W49903   4.964  19.110   0.840
81510W        W49904  16.304  42.420  11.219
81511W        W49905  34.028   7.380   4.389
81512W        W49906   8.921  19.204  13.446
81513W        W49907  20.036  35.367   2.733
81514W        W49908   0.777  40.301  11.920
81515W        W49909   4.365  44.555  14.939
81516W        W49910  21.033  39.138   2.301
81517W        W49911  21.139  29.137  11.160
81518W        W49912  31.642   1.150  14.444
81519W        W49913  28.849   1.232   0.510
81520W        W49914   9.775  32.358  11.176
81521W        W49915  23.729  13.609  11.229
81522W        W49916  12.039   8.797  11.566
81523W        W49917  44.952  26.800  11.418
81524W        W49918  23.517  27.766   2.348
81525W        W49919  31.614  31.200   2.327
81526W        W49920   4.397  31.976   2.568
81527W        W49921  44.828  28.926   3.159
81528W        W49922  10.686  15.691  13.259
81529W        W49923   6.361  15.709  11.562
81530W        W49924  15.996   5.003  14.843
81531W        W49925  42.230  16.562   4.118
81532W        W49926  44.601  26.973  11.973
81533W        W49927  21.246  34.863   3.989
81534W        W49928  13.773  26.769   3.919
81535W        W49929  13.617   4.982  11.574
81536W        W49930  18.327   3.200   3.277
81537W        W49931  44.396  41.224  11.440
81538W        W49932  27.179  17.038  11.170
81539W        W49933  44.471  40.035  10.199
81540W        W49934   9.882  12.367  14.303
81541W        W49935  34.378  44.915  13.138
81542W        W49936   0.997  36.030  11.109
81543W        W49937   2.255  15.158   1.928
81544W        W49938  14.496   6.951  14.881
81545W        W49939  33.121  42.848  13.544
81546W        W49940  32.491  41.000   2.368
81547W        W49941  24.810   9.044   1.134
81548W        W49942   5.815   8.698  14.983
81549W        W49943  20.731  26.013   5.257
81550W        W49944  36.185  34.479  14.959
81551W        W49945  24.603  36.294  12.551
81552W        W49946   6.793  42.421   1.777
81553W        W49947   8.065  25.129   2.111
81554W        W49948   7.511   4.158  13.706
81555W        W49949  31.998  20.485  13.974
81556W        W49950   5.121  30.336  14.365
81557W        W49951  31.162  12.877   1.164
81558W        W49952  17.482  11.263  11.895
81559W        W49953  22.415  22.459  12.373
81560W        W49954  39.055  42.332   3.448
81561W        W49955   5.318  21.179   3.101
81562W        W49956  34.898  38.400   0.980
81563W        W49957   3.881  22.528   3.723
81564W        W49958  35.456  31.659   0.185
81565W        W49959  18.840  39.003  11.184
81566W        W49960  18.345  16.798   3.568
81567W        W49961  13.127  18.512  14.863
81568W        W49962   7.467  37.085   1.718
81569W        W49963  44.271  34.369   0.855
81570W        W49964  18.390  39.706   1.489
81571W        W49965   9.607   0.745   1.260
81572W        W49966  17.552  44.082   0.426
81573W        W49967   7.336   4.560  13.963
81574W        W49968  32.970   8.470  11.950
81575W        W49969  19.451  41.544  12.020
81576W        W49970   6.173  18.397  12.959
81577W        W49971  19.788   1.465   2.014
81578W        W49972  13.758  44.923   4.515
81579W        W49973  14.135  34.611  14.853
81580W        W49974  18.112   8.288  13.422
81581W        W49975   0.561  19.442   0.706
81582W        W49976  40.697  39.255   4.731
81583W        W49977  33.030   9.348   4.330
81584W        W49978  37.883  27.695   0.777
81585W        W49979  40.022  36.594  12.944
81586W        W49980  29.578  23.692  11.171
81587W        W49981  44.780  21.171   1.416
81588W        W49982  25.866  39.345   4.651
81589W        W49983  20.227  14.002  11.029
81590W        W49984   6.169  29.950   3.201
81591W        W49985  23.071  42.954  14.372
81592W        W49986  12.138  22.619   3.599
81593W        W49987  42.053  24.122   2.183
81594W        W49988  33.549  34.017  14.221
81595W        W49989  16.356  43.665  11.735
81596W        W49990  31.952  19.222  10.797
81597W        W49991  42.741  44.388   4.639
81598W        W49992  26.121  24.798  11.816
81599W        W49993  44.843  11.716   0.505
81600W        W49994  14.064  22.313   4.849
81601W        W49995   6.982  30.980  12.465
81602W        W49996  34.325  38.958  10.665
81603W        W49997  35.937  36.501   4.747
81604W        W49998   6.633  36.142  11.178
81605W        W49999  27.392  30.571  14.737
81606W        W50000  29.852  43.368   0.949
81607W        W50001  43.561   0.380   4.117
81608W        W50002  27.721  23.596  12.350
81609W        W50003  23.201  11.411  14.432
81610W        W50004  22.540  28.611  14.201
81611W        W50005  27.017  16.177   0.152
81612W        W50006  40.443  41.018  13.724
81613W        W50007  10.454  32.546   4.218
81614W        W50008  44.363  33.823   2.218
81615W        W50009  13.360  32.901  14.915
81616W        W50010  31.096  43.496   1.698
81617W        W50011  23.144  37.353   1.259
81618W        W50012  20.540  33.715   4.565
81619W        W50013  12.200  34.472  10.810
81620W        W50014  27.647  39.561  11.199
81621W        W50015  12.587   5.231  10.918
81622W        W50016  15.707  27.005   1.442
81623W        W50017  18.838  34.708  10.817
81624W        W50018  24.871  13.945  11.614
81625W        W50019  14.632  20.456  14.790
81626W        W50020  19.264  13.311   4.859
81627W        W50021  41.915  21.226  10.670
81628W        W50022  36.912  17.204   1.688
81629W        W50023  28.275  19.949  11.757
81630W        W50024  27.538  14.291   3.174
81631W        W50025  19.428  32.118  11.184
81632W        W50026  24.481  23.139  12.420
81633W        W50027   2.328  29.715  11.533
81634W        W50028  22.213   0.281   0.457
81635W        W50029  16.217  33.089  13.618
81636W        W50030   3.459  17.779  10.789
81637W        W50031  18.663  25.079   3.019
81638W        W50032  24.139  40.134   0.297
81639W        W50033  39.722  26.429   3.854
81640W        W50034  18.727  21.014   2.028
81641W        W50035  34.891  44.945   3.753
81642W        W50036   8.847  39.147  10.874
81643W        W50037  41.460  17.056  12.966
81644W        W50038  37.310  39.069   3.599
81645W        W50039  22.551  39.385  14.930
81646W        W50040  24.744  20.626  12.839
81647W        W50041  29.712  18.385  12.033
81648W        W50042  19.140  33.347  10.623
81649W        W50043  39.662   1.265  13.290
81650W        W50044  19.299  44.577   3.247
81651W        W50045  30.396  29.863  13.644
81652W        W50046  18.571  41.956   0.511
81653W        W50047  39.529  39.538   4.570
81654W        W50048  42.328  40.728   1.897
81655W        W50049  32.114   0.258   2.102
81656W        W50050  11.796   1.981   2.381
81657W        W50051  31.675  19.664  10.775
81658W        W50052   1.248  42.231  14.381
81659W        W50053   9.668   9.359   0.996
81660W        W50054  15.982   0.822   3.713
81661W        W50055   1.496  33.809   1.024
81662W        W50056  41.552  10.126   1.457
81663W        W50057  12.164   8.633   2.177
81664W        W50058  33.520  44.940  12.625
81665W        W50059  32.568   1.445   3.084
81666W        W50060  27.135   7.923   0.146
81667W        W50061  26.900  18.297   4.266
81668W        W50062  32.958  35.346  10.575
81669W        W50063  13.675  39.944   3.862
81670W        W50064  31.650  27.729  10.697
81671W        W50065   1.028  34.339  13.337
81672W        W50066  18.016  19.053   4.086
81673W        W50067  40.553  40.214   2.667
81674W        W50068  31.471   8.003   4.219
81675W        W50069  31.906  38.418   3.825
81676W        W50070  28.618  34.359   0.404
81677W        W50071  38.428   1.452  12.346
81678W        W50072  42.021  25.108  11.180
81679W        W50073   2.413   1.558   4.188
81680W        W50074  39.767  12.152   1.038
81681W        W50075  41.871  16.148   5.039
81682W        W50076   0.871   6.258   1.016
81683W        W50077  14.268  42.887  10.723
81684W        W50078  30.948  44.356  12.866
81685W        W50079  42.421  36.373  10.565
81686W        W50080  19.988  43.132  11.017
81687W        W50081   1.702  16.601  12.097
81688W        W50082  19.217  13.704  14.054
81689W        W50083  20.020  14.883   2.167
81690W        W50084   5.758  41.511   2.443
81691W        W50085  17.884  38.308   1.296
81692W        W50086  35.484  11.563   2.208
81693W        W50087  18.352  35.522  12.968
81694W        W50088  20.983   3.978   0.497
81695W        W50089   8.644   1.419   2.515
81696W        W50090   0.491  12.325  14.087
81697W        W50091  41.813  17.100   0.470
81698W        W50092  14.849  19.556   3.132
81699W        W50093   1.131  37.212   9.892
81700W        W50094  29.692  25.778  14.663
81701W        W50095   9.112  22.952   3.229
81702W        W50096  12.282  20.060   2.754
81703W        W50097   7.938  27.114   2.828
81704W        W50098   9.895  13.034   1.486
81705W        W50099  23.748   6.440  12.861
81706W        W50100  38.912  26.247  12.474
81707W        W50101   6.654  10.353  14.728
81708W        W50102   8.887  40.755   2.209
81709W        W50103   8.874  30.943   4.134
81710W        W50104  25.727  18.761   2.024
81711W        W50105  33.553  17.651   3.571
81712W        W50106  25.079   0.686  14.770
81713W        W50107   4.369  12.585  14.954
81714W        W50108   3.460  27.409  12.423
81715W        W50109  44.520  32.909  12.138
81716W        W50110  26.191  13.186   1.287
81717W        W50111   8.101  32.940   4.567
81718W        W50112  12.904  22.639   0.461
81719W        W50113  21.027   2.311  12.900
81720W        W50114  44.295  30.256   4.526
81721W        W50115  27.450  43.295   2.636
81722W        W50116  14.676  19.980  10.747
81723W        W50117  42.333  20.276  12.606
81724W        W50118  21.919  22.733   1.818
81725W        W50119  16.262  36.835  12.894
81726W        W50120  37.974  21.458  14.525
81727W        W50121  19.537  15.372   1.517
81728W        W50122  30.185  34.077  11.615
81729W        W50123  15.905  28.300  11.029
81730W        W50124  36.655   6.203   0.848
81731W        W50125  33.156  12.120  14.330
81732W        W50126   3.303   7.676   0.717
81733W        W50127  37.444  21.636   1.945
81734W        W50128  36.943   1.597  14.038
81735W        W50129   2.705  36.393   2.376
81736W        W50130  18.340  15.356   4.672
81737W        W50131   9.369   7.650  13.445
81738W        W50132  31.871  32.327  13.368
81739W        W50133  42.991   0.424   0.241
81740W        W50134  34.377   8.403  11.880
81741W        W50135  39.990  43.579   0.424
81742W        W50136  42.484  44.586  11.599
81743W        W50137  29.657  39.452   0.469
81744W        W50138   0.922  19.615   4.914
81745W        W50139  11.080  13.822   2.018
81746W        W50140  38.471   1.300  14.142
81747W        W50141  37.318   8.006   1.471
81748W        W50142   4.732  25.092  14.822
81749W        W50143  15.809   7.876   3.270
81750W        W50144  27.181   2.880  10.711
81751W        W50145  17.131  44.573   1.034
81752W        W50146  32.943  35.045   0.958
81753W        W50147   9.981   6.229   3.192
81754W        W50148  27.714  20.331   4.128
81755W        W50149  32.180  10.707  11.173
81756W        W50150   4.916  28.314  13.496
81757W        W50151  39.411  28.925   3.368
81758W        W50152  31.992  38.062  13.963
81759W        W50153  25.140  31.180   4.544
81760W        W50154  16.302   9.805  14.508
81761W        W50155  38.968   5.970   1.286
81762W        W50156  10.685  37.970  14.630
81763W        W50157  39.650  34.614  11.999
81764W        W50158  35.494  39.617   2.282
81765W        W50159  14.022  38.181   1.715
81766W        W50160   8.477  35.972   1.017
81767W        W50161  14.598  42.618  13.973
81768W        W50162  23.534   3.228   0.956
81769W        W50163   4.771  30.143   0.460
81770W        W50164  41.844  20.636   4.934
81771W        W50165  30.541   3.483  10.357
81772W        W50166  34.799  20.163   0.716
81773W        W50167  44.766  36.842   0.713
81774W        W50168  34.706  10.297   0.894
81775W        W50169  19.792  41.954   2.895
81776W        W50170  43.421  31.916  10.060
81777W        W50171   7.220  18.502   4.570
81778W        W50172  17.721  17.481  11.678
81779W        W50173  12.538  37.298  14.317
81780W        W50174  16.209   3.531  10.779
81781W        W50175   3.817  12.398  12.472
81782W        W50176  36.361  21.494  14.453
81783W        W50177  17.885  23.803   0.632
81784W        W50178  24.622  22.159  13.355
81785W        W50179  19.004  40.727  13.352
81786W        W50180   2.920   2.307   3.180
81787W        W50181   9.745   1.207   2.720
81788W        W50182  10.079  37.992   0.280
81789W        W50183   7.819   4.804  11.595
81790W        W50184  36.969  44.455   4.887
81791W        W50185  37.124   7.978  11.602
81792W        W50186  17.820  27.018  11.130
81793W        W50187  11.638   6.469   4.810
81794W        W50188  18.570  21.487   1.365
81795W        W50189  27.398  23.181   4.224
81796W        W50190  26.995   0.954   4.975
81797W        W50191   8.355  17.097  14.691
81798W        W50192  19.556  40.025   0.858
81799W        W50193  36.137  23.135  12.521
81800W        W50194  18.755  11.644  10.710
81801W        W50195  32.003   2.422  10.449
81802W        W50196  28.577  13.832   3.592
81803W        W50197  43.027  34.132   4.583
81804W        W50198  14.269  32.617  13.013
81805W        W50199  27.649  25.660   3.571
81806W        W50200  20.771  39.296   0.889
81807W        W50201  34.347  17.593  13.438
81808W        W50202   7.492   5.188   1.493
81809W        W50203  33.693  31.602  10.825
81810W        W50204   3.323   9.747   3.870
81811W        W50205  41.123   4.573  11.255
81812W        W50206  33.088  31.158   4.676
81813W        W50207   1.365  27.461  14.936
81814W        W50208  37.600   0.450  11.152
81815W        W50209  10.175  27.148  10.489
81816W        W50210  38.940  43.080  11.187
81817W        W50211  28.876  24.621   0.842
81818W        W50212   5.999   8.359  11.502
81819W        W50213  25.782  21.619   3.965
81820W        W50214  21.026  11.540  14.960
81821W        W50215  28.599  23.218  12.460
81822W        W50216  34.995  32.566   3.600
81823W        W50217  14.069   8.797   2.359
81824W        W50218  28.967  18.884   2.105
81825W        W50219   9.331  12.331  13.632
81826W        W50220   4.576   4.915   2.380
81827W        W50221  38.872  41.543  13.796
81828W        W50222  10.934  40.809  14.592
81829W        W50223  14.181  41.885  14.889
81830W        W50224  36.419   0.383  10.762
81831W        W50225  24.386  30.007  12.570
81832W        W50226  37.407  28.651  10.760
81833W        W50227  19.101  34.009   3.166
81834W        W50228  30.973  24.799  13.532
81835W        W50229  21.595  13.654  12.316
81836W        W50230  34.711  10.825   0.906
81837W        W50231   6.987   9.706  13.424
81838W        W50232   5.352  34.520  13.301
81839W        W50233  35.933  37.419  11.720
81840W        W50234  39.436  43.993  14.645
81841W        W50235  37.900  20.229   1.006
81842W        W50236   5.301  16.728   1.559
81843W        W50237  31.372   6.918  10.783
81844W        W50238  31.927   7.331   3.190
81845W        W50239  26.535  33.280   2.833
81846W        W50240  14.534  11.665  13.765
81847W        W50241  27.525   0.313   3.291
81848W        W50242  10.198   2.200  14.336
81849W        W50243  25.452  38.863  13.409
81850W        W50244  32.340  27.425  11.168
81851W        W50245  24.156   8.994  11.003
81852W        W50246   4.059  13.016   4.733
81853W        W50247  35.495  14.153   4.545
81854W        W50248  40.373  10.923   0.384
81855W        W50249  19.132  40.788  12.493
81856W        W50250  34.632   7.583   1.685
81857W        W50251  29.577  28.064   0.773
81858W        W50252  27.502   7.169   3.354
81859W        W50253  33.431  44.316  12.479
81860W        W50254   2.573  16.457  10.657
81861W        W50255   1.022  33.881   0.011
81862W        W50256  11.059   3.798   3.785
81863W        W50257  43.480   4.772  11.311
81864W        W50258  38.004   4.430   1.360
81865W        W50259   2.683  43.907   1.821
81866W        W50260  18.610  16.593  14.426
81867W        W50261  15.136   8.381   3.613
81868W        W50262  32.588  21.676   2.498
81869W        W50263  17.206  16.550  11.556
81870W        W50264   2.383   4.971   1.747
81871W        W50265  32.368   3.983  11.142
81872W        W50266  29.323  28.392   4.514
81873W        W50267  41.040  21.638   0.459
81874W        W50268   4.464  42.377  10.753
81875W        W50269  43.344  17.721  12.046
81876W        W50270   3.336  42.554   3.729
81877W        W50271  39.073  14.554  12.390
81878W        W50272  23.310   6.970   3.662
81879W        W50273  10.871  20.540   3.836
81880W        W50274  35.078  24.533  10.648
81881W        W50275  25.629  12.288  10.385
81882W        W50276  42.970  16.589  11.710
81883W        W50277   3.104  16.485  14.926
81884W        W50278  34.608  36.488   1.213
81885W        W50279  31.368  19.132   0.412
81886W        W50280   1.263  13.135  10.028
81887W        W50281  37.064   5.902   1.676
81888W        W50282   0.972   3.475   4.453
81889W        W50283   7.689  43.081  13.146
81890W        W50284   7.116  19.509   1.280
81891W        W50285  22.630   0.995  11.741
81892W        W50286  38.259  25.154   3.222
81893W        W50287  24.601  12.972   2.028
81894W        W50288  16.909  20.293   2.348
81895W        W50289  29.562   8.391  13.509
81896W        W50290  22.058  19.610  12.426
81897W        W50291  20.749  17.442   4.143
81898W        W50292  33.501  34.470  12.350
81899W        W50293  18.168  16.302  11.326
81900W        W50294  39.004  37.253   2.265
81901W        W50295  19.749  44.552   0.498
81902W        W50296   8.627  14.730   1.632
81903W        W50297  24.262  39.008   0.449
81904W        W50298  37.883  31.999   3.567
81905W        W50299  19.458  11.617  11.222
81906W        W50300   5.896  44.497  13.851
81907W        W50301  22.573  42.807  14.239
81908W        W50302  44.953  37.708  12.982
81909W        W50303  23.638   2.996  10.620
81910W        W50304  30.712  40.534  12.080
81911W        W50305  29.123   0.377  14.777
81912W        W50306  18.956  25.981   2.096
81913W        W50307  12.392  11.579  11.651
81914W        W50308  23.574  36.074  11.995
81915W        W50309  29.536  16.357  14.393
81916W        W50310  22.651  18.778  13.436
81917W        W50311  21.867  20.008  13.447
81918W        W50312  26.412   3.412   3.693
81919W        W50313   0.296  27.649  12.802
81920W        W50314  14.599  25.623   0.582
81921W        W50315  31.692   1.636  13.513
81922W        W50316  26.679   6.398   3.032
81923W        W50317  14.181  24.780  12.574
81924W        W50318  12.200  37.095  11.084
81925W        W50319  44.357  38.973   3.185
81926W        W50320  12.055  28.979  11.148
81927W        W50321  19.547  22.308   0.768
81928W        W50322  16.037   4.827   1.769
81929W        W50323  35.986   7.751   3.655
81930W        W50324  26.020   9.912  12.561
81931W        W50325   2.751   0.910  11.657
81932W        W50326  17.553  22.466   0.977
81933W        W50327  18.007  25.197  11.781
81934W        W50328  35.228  34.384  11.277
81935W        W50329  14.595  16.883   4.324
81936W        W50330  16.369  27.115  12.375
81937W        W50331  21.689  14.363   0.522
81938W        W50332  28.159  10.252   3.660
81939W        W50333  23.137   7.013  13.907
81940W        W50334  38.822  16.113  13.569
81941W        W50335  30.624  28.991   3.585
81942W        W50336  39.069  26.488   0.227
81943W        W50337  16.043  15.647  11.482
81944W        W50338  25.808  30.803   3.205
81945W        W50339  41.734   0.243   1.806
81946W        W50340   6.479  11.228   4.180
81947W        W50341  38.866  12.401   0.798
81948W        W50342  25.203   1.503   1.907
81949W        W50343  35.163   8.160   3.610
81950W        W50344  21.497  19.108  10.634
81951W        W50345  39.479  40.327   1.186
81952W        W50346  10.207  40.099   3.786
81953W        W50347   1.920   4.972  10.713
81954W        W50348   6.246  24.263  14.459
81955W        W50349  19.041  39.985   0.941
81956W        W50350  23.389   7.787   2.624
81957W        W50351   9.998  10.296   9.922
81958W        W50352   5.777  25.982  14.805
81959W        W50353  10.231  33.435   3.603
81960W        W50354   1.123   6.820  10.487
81961W        W50355   9.992  28.761   1.018
81962W        W50356  24.682  22.518   2.717
81963W        W50357  21.054  43.019   1.625
81964W        W50358  30.617  20.716   2.941
81965W        W50359  33.647   7.876   0.836
81966W        W50360  34.737  31.417   2.400
81967W        W50361  31.705  18.207   1.958
81968W        W50362  31.836  10.806  14.425
81969W        W50363   2.519  22.000  11.144
81970W        W50364  29.591  12.338   0.636
81971W        W50365  39.906  16.105  12.047
81972W        W50366   0.466  21.479  13.925
81973W        W50367  39.903  35.812   3.751
81974W        W50368  33.412   8.308  13.123
81975W        W50369  35.162  30.958   4.826
81976W        W50370   1.370   2.234   2.180
81977W        W50371  21.007  17.215  10.631
81978W        W50372  20.033  19.974   2.744
81979W        W50373  22.604  40.938  14.432
81980W        W50374  35.858   6.730   0.028
81981W        W50375  13.507  18.283   0.129
81982W        W50376  12.431   1.770   4.555
81983W        W50377  20.057   1.924  10.602
81984W        W50378   2.534  10.938   4.807
81985W        W50379  26.687  38.309   4.074
81986W        W50380  27.064   2.003   2.227
81987W        W50381  20.134  41.075  14.374
81988W        W50382   4.730  36.014   2.663
81989W        W50383   8.552  42.206  14.768
81990W        W50384   8.964  28.452  14.237
81991W        W50385   7.363   0.758   4.204
81992W        W50386  43.060  30.967  12.896
81993W        W50387  34.015  35.782  14.051
81994W        W50388  35.892  24.750   0.434
81995W        W50389  33.391  10.795  14.277
81996W        W50390  29.122  37.939  10.456
81997W        W50391   4.580   9.367  10.351
81998W        W50392  18.085  33.353   0.375
81999W        W50393  12.537  26.008  12.846
82000W        W50394   1.952   1.375   2.404
82001W        W50395   8.605  28.730   2.767
82002W        W50396  20.279  32.679  14.964
82003W        W50397   7.729  23.561  14.855
82004W        W50398  35.617   5.889  13.874
82005W        W50399  35.417  29.404  11.589
82006W        W50400  39.980  28.266   2.648
82007W        W50401  27.699  34.082   2.794
82008W        W50402   3.312  22.922  14.900
82009W        W50403  30.536  14.087  11.641
82010W        W50404  16.830  42.926  12.901
82011W        W50405  43.873  22.194  14.347
82012W        W50406  39.813  43.075  12.575
82013W        W50407  20.565  43.563   3.252
82014W        W50408  21.767  13.708  13.418
82015W        W50409  32.440   6.437  12.064
82016W        W50410  17.235  31.413   0.908
82017W        W50411  16.198  35.840  14.743
82018W        W50412   9.179  26.096  11.049
82019W        W50413   9.307  26.377   4.197
82020W        W50414  19.608   4.845  12.841
82021W        W50415  29.828  12.849  11.569
82022W        W50416  23.918  20.893   0.275
82023W        W50417  11.090  36.402   0.374
82024W        W50418  28.121   2.806   0.918
82025W        W50419  28.903  29.544  12.462
82026W        W50420  21.755  13.831   3.078
82027W        W50421  38.346  38.541   4.451
82028W        W50422   2.068  17.851   2.139
82029W        W50423   3.792  12.135  13.781
82030W        W50424  19.473  36.627  11.182
82031W        W50425  32.136  40.554   2.798
82032W        W50426   6.912  33.405   0.791
82033W        W50427  23.573  32.470   3.712
82034W        W50428   0.738  23.495  13.001
82035W        W50429  26.007  15.863  11.895
82036W        W50430  28.662  23.543  13.378
82037W        W50431  23.243  40.774   0.596
82038W        W50432  18.806  15.619   5.418
82039W        W50433  14.805  29.542   0.683
82040W        W50434  31.639  18.652   2.201
82041W        W50435   3.968   9.386  14.382
82042W        W50436  20.105  36.376  11.697
82043W        W50437  13.563  23.498  14.341
82044W        W50438  33.246  20.184   0.380
82045W        W50439  20.443  10.112  14.829
82046W        W50440  41.263   2.207  11.613
82047W        W50441  34.963  32.088   3.863
82048W        W50442  42.697   0.050  14.467
82049W        W50443   7.358  11.866   3.096
82050W        W50444  10.681  37.132   3.822
82051W        W50445  10.642  10.113  14.046
82052W        W50446   4.702   9.973  11.519
82053W        W50447  22.308  18.156   4.145
82054W        W50448  41.785  20.263  12.577
82055W        W50449  29.776   8.588  11.575
82056W        W50450  22.127   8.978   1.212
82057W        W50451   0.017  25.276  14.044
82058W        W50452  13.277  20.267  13.516
82059W        W50453  35.122  42.487   2.541
82060W        W50454  15.351  32.457  13.902
82061W        W50455   8.601  14.669   0.930
82062W        W50456  39.789   9.543  11.248
82063W        W50457  28.474  35.073   3.223
82064W        W50458  38.959  13.758   3.319
82065W        W50459  44.168  26.640  12.085
82066W        W50460  42.406   1.676  12.433
82067W        W50461  16.365  20.157   4.774
82068W        W50462  12.145  21.238   2.937
82069W        W50463  41.863  25.194  12.511
82070W        W50464   8.654  21.194  12.072
82071W        W50465  21.755  28.566   0.060
82072W        W50466   1.995  38.401  11.722
82073W        W50467  34.059   7.788  13.512
82074W        W50468  30.931  21.539   4.787
82075W        W50469  27.138  42.373   0.859
82076W        W50470  38.492   2.970  10.567
82077W        W50471  16.837   9.439   3.291
82078W        W50472   9.536   2.824   5.078
82079W        W50473  26.545  32.245  10.166
82080W        W50474  30.667  18.733   0.029
82081W        W50475  14.095   5.579   2.838
82082W        W50476   0.003  31.122   2.073
82083W        W50477   2.944  22.107   2.379
82084W        W50478  31.400  33.733  10.836
82085W        W50479  24.995  29.404  14.462
82086W        W50480  14.535  23.995   5.152
82087W        W50481  28.348  30.470  12.385
82088W        W50482  26.230  41.447   4.567
82089W        W50483  26.098  14.989   1.978
82090W        W50484  10.852  26.248   1.192
82091W        W50485  11.762  15.576  10.646
82092W        W50486   6.422  13.856  12.960
82093W        W50487   1.726  16.275   4.612
82094W        W50488  21.492  19.898  11.549
82095W        W50489   0.723  28.303  11.148
82096W        W50490  31.586  42.086   3.139
82097W        W50491  14.776  36.790   2.618
82098W        W50492   8.766  16.712  14.671
82099W        W50493  21.637  25.212   3.328
82100W        W50494   0.367  18.197  10.715
82101W        W50495  13.338  17.060  12.546
82102W        W50496  32.218  28.072   4.159
82103W        W50497   8.620   2.949  13.072
82104W        W50498   7.567  12.790   4.072
82105W        W50499  12.379  17.145   1.776
82106W        W50500  14.941  31.252   1.335
82107W        W50501  15.164  34.816  10.917
82108W        W50502  17.248  16.608   2.796
82109W        W50503  42.499  23.930  12.602
82110W        W50504  17.667  31.641  11.078
82111W        W50505  23.642   1.509   4.131
82112W        W50506   6.478  26.205  13.563
82113W        W50507  39.302  33.036  11.663
82114W        W50508  17.483   1.563   0.327
82115W        W50509  24.272  16.281  13.395
82116W        W50510  27.830  22.251   0.766
82117W        W50511  39.906  41.558   1.330
82118W        W50512  24.148  32.093  10.235
82119W        W50513  28.036   3.800  13.068
82120W        W50514  34.506  36.020   1.506
82121W        W50515  15.475  26.588   3.644
82122W        W50516  11.632   5.273   2.621
82123W        W50517  28.454  41.773  12.977
82124W        W50518  40.869  38.402   1.633
82125W        W50519  14.722   3.236  14.272
82126W        W50520  27.515  29.621  14.415
82127W        W50521  34.193  36.106   2.393
82128W        W50522   0.662   0.333   0.763
82129W        W50523  18.244  38.702   1.356
82130W        W50524  37.627  19.602  14.239
82131W        W50525   2.815  13.190   3.813
82132W        W50526  35.649  22.658   0.303
82133W        W50527  18.071  27.545   1.178
82134W        W50528  11.744  22.169  11.605
82135W        W50529  42.496  17.831   1.235
82136W        W50530  17.754  22.058  12.839
82137W        W50531  36.681  36.961  14.901
82138W        W50532   4.008  36.819  14.443
82139W        W50533  29.078  29.187  10.859
82140W        W50534  36.164  22.224  12.371
82141W        W50535  22.971  11.827   1.843
82142W        W50536   2.909  18.150  10.887
82143W        W50537  24.699   3.825   3.281
82144W        W50538  40.401  16.774   0.732
82145W        W50539   2.230  21.830  12.525
82146W        W50540  18.596  38.603  14.703
82147W        W50541  27.661   9.619   4.633
82148W        W50542   4.798  38.586  14.809
82149W        W50543  28.605  40.587   3.247
82150W        W50544  28.956  20.535  12.535
82151W        W50545  34.775  21.124   4.280
82152W        W50546  40.103  27.123   3.321
82153W        W50547  14.979  31.581  10.792
82154W        W50548  40.418  14.122   3.483
82155W        W50549  37.856  10.432  11.588
82156W        W50550   6.399  20.305   4.462
82157W        W50551   3.307  13.868  12.052
82158W        W50552  40.877  11.858   1.490
82159W        W50553  37.320  25.482  10.514
82160W        W50554  31.873  32.083   2.716
82161W        W50555   7.268  40.998  14.906
82162W        W50556  29.995  10.816  13.111
82163W        W50557   3.254  12.918   3.704
82164W        W50558   5.323  11.664  10.558
82165W        W50559  15.058  16.564  11.948
82166W        W50560  15.105  16.806  14.407
82167W        W50561   7.263  23.524   0.858
82168W        W50562  40.486  35.745  14.015
82169W        W50563  20.246  29.722  11.802
82170W        W50564  18.266  33.349  14.875
82171W        W50565   4.425  25.561  13.878
82172W        W50566  16.811  32.116   4.595
82173W        W50567  22.588   8.162  13.938
82174W        W50568  19.096  41.947  12.053
82175W        W50569  40.640  20.665  10.717
82176W        W50570  18.245  25.514   4.221
82177W        W50571  36.383   6.894   1.599
82178W        W50572   9.653   3.365  12.491
82179W        W50573  14.901   0.881  14.336
82180W        W50574  10.784  13.317   0.313
82181W        W50575  33.565  25.172   4.198
82182W        W50576  16.331  33.015   4.407
82183W        W50577  35.178   5.191   3.748
82184W        W50578  18.160  23.972  12.900
82185W        W50579  35.086   5.368   2.177
82186W        W50580  42.842  28.695  10.572
82187W        W50581  16.553  15.627  13.392
82188W        W50582  21.061  16.827   4.951
82189W        W50583  18.050   1.803  13.811
82190W        W50584   6.668   8.678   2.625
82191W        W50585   7.637  39.444  12.914
82192W        W50586   6.248   5.378   3.659
82193W        W50587  35.774   1.173  11.174
82194W        W50588  13.062  39.694   2.146
82195W        W50589   0.309   6.929  13.361
82196W        W50590  16.225  36.982   2.379
82197W        W50591  33.371  36.408   4.756
82198W        W50592  38.997   3.821   2.184
82199W        W50593   2.262  21.598  10.955
82200W        W50594  34.603  32.314  11.182
82201W        W50595  24.796  19.734   3.233
82202W        W50596  38.521   7.854   3.798
82203W        W50597  31.107  19.214   0.874
82204W        W50598   7.986  35.092   3.260
82205W        W50599  15.231  28.900   4.601
82206W        W50600  38.799  36.569  14.727
82207W        W50601   7.327  30.405   1.245
82208W        W50602  35.149   1.755   0.405
82209W        W50603  30.158   4.711  11.993
82210W        W50604  41.828  13.634   1.791
82211W        W50605  31.645  43.262   2.566
82212W        W50606  13.757   7.344   0.625
82213W        W50607  32.569  36.898   2.233
82214W        W50608  16.596  39.791   2.449
82215W        W50609  14.083  32.253   1.267
82216W        W50610  19.306  16.599   2.764
82217W        W50611   4.421  42.076  11.221
82218W        W50612  14.790  13.595  11.217
82219W        W50613  39.794  31.548  12.572
82220W        W50614  39.236  30.577  14.506
82221W        W50615  30.332  36.678  12.025
82222W        W50616  12.263  38.207   3.904
82223W        W50617  18.277  11.732  11.785
82224W        W50618  17.248   6.991   1.443
82225W        W50619   5.475  12.858   0.302
82226W        W50620  13.820  26.264  14.972
82227W        W50621  43.950  24.223   1.357
82228W        W50622  41.310  12.741   1.935
82229W        W50623   9.242   3.332   0.994
82230W        W50624   1.673   2.242  11.004
82231W        W50625  41.071  31.093  11.124
82232W        W50626  21.630  18.268   2.753
82233W        W50627  26.689  28.643   0.306
82234W        W50628  13.194  11.682   3.951
82235W        W50629  18.170  34.141   4.729
82236W        W50630  16.622  37.026   0.898
82237W        W50631  26.874  29.880  12.344
82238W        W50632  12.616  27.185  13.493
82239W        W50633  25.694  13.265  14.380
82240W        W50634  44.683   7.926  11.648
82241W        W50635  24.587  43.514  12.550
82242W        W50636   6.893   2.847   4.931
82243W        W50637  13.336   3.821  14.933
82244W        W50638  43.525  36.919   3.158
82245W        W50639   4.828  13.364  14.928
82246W        W50640  32.451  24.873   4.898
82247W        W50641   8.793   4.967   1.354
82248W        W50642  40.144  24.972  12.015
82249W        W50643   5.112   0.761  13.891
82250W        W50644  15.358  32.140   4.857
82251W        W50645  23.962  44.000  14.910
82252W        W50646  44.455  25.452  12.466
82253W        W50647  10.446   7.130  14.490
82254W        W50648   2.148   3.995   4.157
82255W        W50649  31.620  24.768   2.295
82256W        W50650   0.690  29.018  10.864
82257W        W50651   5.769  33.829  11.171
82258W        W50652  34.054  43.006   0.277
82259W        W50653  31.534  29.556  11.620
82260W        W50654  19.623  19.594  13.346
82261W        W50655  25.703  14.102  13.873
82262W        W50656  41.583   4.688  11.034
82263W        W50657  27.418  34.259  12.371
82264W        W50658  28.829  40.943   3.931
82265W        W50659  38.103  27.926  12.354
82266W        W50660  43.867  25.666   4.559
82267W        W50661  26.614  16.668  11.940
82268W        W50662  37.144  25.685  11.646
82269W        W50663  39.020  44.911  14.339
82270W        W50664  35.046  25.601   1.482
82271W        W50665  25.991  19.745  12.463
82272W        W50666  32.849  40.458   0.401
82273W        W50667  35.021   1.637   0.898
82274W        W50668  39.311  41.095   1.824
82275W        W50669  37.392  10.419   1.243
82276W        W50670  31.914  32.864   0.796
82277W        W50671  16.358  30.412  13.824
82278W        W50672  15.298  24.634  12.059
82279W        W50673   5.683  34.603   3.774
82280W        W50674  31.959  43.036   1.943
82281W        W50675  17.654   7.154  11.235
82282W        W50676  20.694  25.639   2.833
82283W        W50677  26.968  23.488   4.522
82284W        W50678  35.845  30.455  11.225
82285W        W50679  34.335  16.346   1.844
82286W        W50680  30.123  27.070  14.431
82287W        W50681   0.022  36.675   3.322
82288W        W50682   5.703  11.823   1.710
82289W        W50683  23.300  12.895   4.185
82290W        W50684   0.928  31.079   1.053
82291W        W50685   1.798  20.588  11.895
82292W        W50686  35.140  26.046   4.905
82293W        W50687  36.137   3.834  12.958
82294W        W50688  31.342  39.102   1.567
82295W        W50689   4.852  44.376  12.954
82296W        W50690  39.989   3.934  13.442
82297W        W50691  13.703  21.034   2.453
82298W        W50692  42.057  36.990   1.902
82299W        W50693  44.866  31.056   1.569
82300W        W50694  32.337   4.191  14.074
82301W        W50695  25.991  44.216   2.768
82302W        W50696  31.717  10.192   4.558
82303W        W50697   5.737  33.413  14.478
82304W        W50698  24.250  32.695   2.597
82305W        W50699   6.276  34.000   1.801
82306W        W50700  27.996   9.911  10.281
82307W        W50701  24.419   5.913   4.618
82308W        W50702   4.230  44.058   1.843
82309W        W50703  28.172  16.702  12.127
82310W        W50704   9.887  33.168   4.005
82311W        W50705  31.465   1.777   2.823
82312W        W50706   1.900  28.279   3.367
82313W        W50707   0.014  28.430   3.176
82314W        W50708   2.329  33.985   3.209
82315W        W50709  12.157  27.811   1.268
82316W        W50710  34.244  32.614  11.509
82317W        W50711  32.194  30.714  14.001
82318W        W50712  44.388  15.017  13.534
82319W        W50713  17.783  28.210   2.878
82320W        W50714  14.697  42.411   0.955
82321W        W50715   5.042  33.575   4.031
82322W        W50716  31.043  18.170  12.819
82323W        W50717  31.997  31.212  11.055
82324W        W50718  36.404   8.371   1.804
82325W        W50719   4.264  36.649  12.507
82326W        W50720  24.904  41.319   0.290
82327W        W50721   6.377  32.198   2.352
82328W        W50722   4.208  43.036  11.375
82329W        W50723   3.252  20.711  12.263
82330W        W50724  24.101  12.381   3.000
82331W        W50725  24.661  25.723  11.006
82332W        W50726  25.504  25.236   0.302
82333W        W50727  43.949  30.554  14.715
82334W        W50728   4.276  26.813   4.312
82335W        W50729  16.300  19.073  11.159
82336W        W50730  13.180  35.343   4.648
82337W        W50731  25.144  27.269  12.314
82338W        W50732  24.971   9.064  11.513
82339W        W50733  19.015   5.827   2.160
82340W        W50734  27.046  34.810  13.095
82341W        W50735  26.825   8.669  12.472
82342W        W50736  15.138  10.154   3.132
82343W        W50737  21.618  40.414   4.701
82344W        W50738   0.982  36.831   0.346
82345W        W50739  23.871   4.721   4.121
82346W        W50740  13.768  39.811  11.199
82347W        W50741  38.511   8.274  11.889
82348W        W50742  10.836  29.696   1.984
82349W        W50743  43.802  24.872   3.555
82350W        W50744  28.497  12.705   1.713
82351W        W50745  26.734  36.035   2.551
82352W        W50746  38.078  37.341  11.246
82353W        W50747  32.891  19.916   4.641
82354W        W50748  35.633   0.747  12.061
82355W        W50749  39.962  22.799   0.029
82356W        W50750   3.344  15.490   3.576
82357W        W50751  16.357  18.454  13.723
82358W        W50752  20.197  44.828   0.462
82359W        W50753  14.866  42.469  11.677
82360W        W50754  31.057   8.896  10.334
82361W        W50755   6.931  44.006   3.645
82362W        W50756  18.089  20.521  12.180
82363W        W50757  17.577  24.158   4.694
82364W        W50758  35.788  31.446   2.358
82365W        W50759  43.908  24.165   4.915
82366W        W50760  20.327  22.036   0.283
82367W        W50761  36.570  22.558   4.134
82368W        W50762  22.244   4.353  11.177
82369W        W50763  10.678  34.821   1.269
82370W        W50764   8.670  28.177  13.903
82371W        W50765  39.384  11.393   2.955
82372W        W50766  27.838  20.775  10.245
82373W        W50767  29.450   0.539   2.678
82374W        W50768  37.199  15.728   3.198
82375W        W50769  42.174   4.463  12.886
82376W        W50770  43.003  18.345   1.829
82377W        W50771  38.979  40.545   3.135
82378W        W50772  13.859  39.474   1.859
82379W        W50773  34.382  14.064  13.547
82380W        W50774  10.219  16.852   1.762
82381W        W50775   7.540  15.842  12.500
82382W        W50776  16.627  29.347   0.869
82383W        W50777  16.204   8.748   3.157
82384W        W50778   1.705  25.005   2.878
82385W        W50779   7.868   4.423   2.761
82386W        W50780  25.990  20.303   2.568
82387W        W50781   3.032  17.705  14.364
82388W        W50782  40.967   1.929   2.426
82389W        W50783   6.271  31.801   3.597
82390W        W50784  34.594  26.179  13.987
82391W        W50785  18.876  41.229  13.978
82392W        W50786   2.706  39.831  13.431
82393W        W50787  19.041   5.438   1.684
82394W        W50788  29.465   0.031   1.911
82395W        W50789  31.133  26.018   4.192
82396W        W50790  43.905  11.068   3.718
82397W        W50791  24.765  23.196  13.830
82398W        W50792  29.139  26.393  14.398
82399W        W50793  32.832  42.252  13.304
82400W        W50794  42.520  43.478  11.187
82401W        W50795  17.410  13.827   2.491
82402W        W50796  15.340   8.679  13.506
82403W        W50797   2.765  42.310  13.523
82404W        W50798  42.716  42.466   2.252
82405W        W50799  44.000  39.993  11.701
82406W        W50800  17.120  39.580  12.688
82407W        W50801  24.447  40.164  11.117
82408W        W50802  12.732  22.088  13.925
82409W        W50803  23.825  40.829   2.757
82410W        W50804  12.869  21.472  11.135
82411W        W50805  22.653   1.816   1.338
82412W        W50806  30.068  15.357   2.235
82413W        W50807  21.169  21.272   3.553
82414W        W50808   7.906  18.908  13.127
82415W        W50809  35.789  26.572  10.776
82416W        W50810  20.566   0.484   2.348
82417W        W50811  34.843  12.544   4.722
82418W        W50812  39.701   3.500   0.611
82419W        W50813  11.574  11.247  12.600
82420W        W50814   2.013  30.481   2.389
82421W        W50815  37.013  29.082   0.962
82422W        W50816  16.845  40.697  11.592
82423W        W50817  36.845  33.180  11.492
82424W        W50818   5.626  29.310  11.060
82425W        W50819  41.982  21.000   0.899
82426W        W50820   6.308  41.997  14.696
82427W        W50821  33.211   4.052  12.067
82428W        W50822  13.828  21.968  11.391
82429W        W50823   6.329  34.462   0.859
82430W        W50824  17.528  28.757   1.239
82431W        W50825  37.061   7.574   1.620
82432W        W50826  40.714  22.516   4.796
82433W        W50827  36.537  21.693   3.080
82434W        W50828  23.289  42.165   1.308
82435W        W50829   1.399  36.804   2.276
82436W        W50830  27.067  15.171  13.515
82437W        W50831  39.416  42.310   0.348
82438W        W50832  30.711  31.775   3.649
82439W        W50833  19.221  33.610   1.272
82440W        W50834  24.271  21.159  13.354
82441W        W50835  37.657  37.591  14.268
82442W        W50836   3.386  15.053   1.834
82443W        W50837   6.654  33.203   2.938
82444W        W50838  37.306  42.792  14.500
82445W        W50839  19.377   8.569   1.363
82446W        W50840  42.067  29.134  12.968
82447W        W50841  15.620  30.935   3.833
82448W        W50842   7.834  24.580   1.298
82449W        W50843  17.688  33.059   2.270
82450W        W50844  33.191  23.816  12.954
82451W        W50845   5.907  10.885   3.689
82452W        W50846   4.835  10.029   0.397
82453W        W50847  28.719  23.568  10.553
82454W        W50848  39.115  27.683   2.244
82455W        W50849   2.513  14.724  10.600
82456W        W50850  35.116  31.107  11.477
82457W        W50851  28.277   4.942   3.791
82458W        W50852  38.767  14.749   3.698
82459W        W50853   4.451  28.675   0.956
82460W        W50854  37.924  20.042  14.017
82461W        W50855   7.749  18.127  10.329
82462W        W50856   7.145  28.935   0.836
82463W        W50857  44.559  10.660  11.838
82464W        W50858  39.603  24.133   2.824
82465W        W50859  33.923  20.141  11.001
82466W        W50860  35.824  20.650  11.221
82467W        W50861  10.366  12.319   0.981
82468W        W50862  24.677   4.432  11.292
82469W        W50863   3.025  20.083  13.358
82470W        W50864  11.033   3.201   2.721
82471W        W50865   9.962   8.245  13.018
82472W        W50866   8.163  20.614  14.310
82473W        W50867  32.109  31.085   1.210
82474W        W50868  18.239  41.421   0.321
82475W        W50869  36.444  39.955   2.341
82476W        W50870  25.238  16.542   1.566
82477W        W50871   1.004  12.148   3.269
82478W        W50872   0.237   1.360  10.869
82479W        W50873  37.511  38.125  11.651
82480W        W50874   0.573  15.107  11.588
82481W        W50875  15.364  29.194   2.753
82482W        W50876   7.775  13.508   1.800
82483W        W50877  11.158  12.596   2.361
82484W        W50878  22.890   6.931  14.778
82485W        W50879  22.562  39.785   4.942
82486W        W50880   0.020  15.664   0.931
82487W        W50881  10.663   4.288  11.646
82488W        W50882  19.244   2.170   0.388
82489W        W50883   5.282  20.730  13.875
82490W        W50884   7.971  27.043  11.103
82491W        W50885   2.603  18.550   4.474
82492W        W50886  32.446  29.628  14.403
82493W        W50887  26.965  33.062   2.587
82494W        W50888  25.112  41.008   1.855
82495W        W50889  30.643   0.715   1.485
82496W        W50890  14.822  36.968  13.281
82497W        W50891  30.977  18.734  13.898
82498W        W50892  39.085   8.134   4.500
82499W        W50893  12.607  37.174  11.925
82500W        W50894  16.150  26.055   0.922
82501W        W50895  26.189  10.430  14.145
82502W        W50896  35.905  16.051   2.728
82503W        W50897  24.443  43.482  14.308
82504W        W50898  29.764  30.717  11.849
82505W        W50899  16.649  13.233  12.039
82506W        W50900   1.331  29.190   4.330
82507W        W50901  16.152  15.675   4.703
82508W        W50902  30.515  18.785  11.543
82509W        W50903  16.126  18.345   2.643
82510W        W50904  28.114  37.079  12.503
82511W        W50905  19.292  21.774   3.080
82512W        W50906   5.304  20.006   0.783
82513W        W50907  11.300  42.279  11.163
82514W        W50908  16.258  32.915   0.055
82515W        W50909   2.363  27.314  14.072
82516W        W50910   2.508   8.406  14.891
82517W        W50911  27.875  39.458  14.405
82518W        W50912  21.187  11.993   0.381
82519W        W50913  34.258  29.220  12.185
82520W        W50914  41.364  19.624   2.106
82521W        W50915  18.319  26.653   0.824
82522W        W50916  22.485  20.167   2.742
82523W        W50917  29.672  23.708  12.586
82524W        W50918  24.652  11.153  14.039
82525W        W50919  42.492  12.903   2.791
82526W        W50920  29.982  29.991  11.573
82527W        W50921  39.502  21.077   3.581
82528W        W50922  42.831  19.371  13.404
82529W        W50923  36.037   7.171  14.217
82530W        W50924  22.282  29.139   4.212
82531W        W50925  39.455  32.913   4.653
82532W        W50926   3.913  13.639  14.114
82533W        W50927   8.428  30.475   4.853
82534W        W50928  30.688   4.651   1.732
82535W        W50929   3.866   1.545   4.176
82536W        W50930  22.695  13.131  10.642
82537W        W50931   7.003  13.595  12.092
82538W        W50932  44.063   6.528   3.138
82539W        W50933  29.585  37.914  13.545
82540W        W50934   3.951  31.388   3.370
82541W        W50935  34.064   9.733   0.859
82542W        W50936  32.339  43.970   3.273
82543W        W50937  35.033  15.868  13.824
82544W        W50938  34.631   3.272  12.762
82545W        W50939  42.173   9.467  13.473
82546W        W50940  30.450  26.942   1.049
82547W        W50941  43.012  29.013  14.509
82548W        W50942   7.394  14.657   4.178
82549W        W50943   2.800  36.775   3.303
82550W        W50944  43.516   3.785   4.533
82551W        W50945  44.166   1.914   5.011
82552W        W50946  44.435   6.194   2.349
82553W        W50947  35.071   9.136  11.636
82554W        W50948  11.168  17.495   2.564
82555W        W50949  23.205  23.127   1.931
82556W        W50950  36.951   8.578   2.140
82557W        W50951   7.331  23.255   3.841
82558W        W50952  21.897  16.715   0.999
82559W        W50953  13.603  30.233  13.930
82560W        W50954  25.658  35.928   0.289
82561W        W50955  19.888   0.803  11.126
82562W        W50956  16.582  25.068   2.245
82563W        W50957  36.948   3.347  11.964
82564W        W50958  39.644   1.772   2.445
82565W        W50959  30.329  16.533   2.895
82566W        W50960  11.697  37.085  11.841
82567W        W50961   7.085   5.417   0.079
82568W        W50962   3.895  18.674  13.456
82569W        W50963  23.574  20.056  10.944
82570W        W50964  33.406  44.935   3.714
82571W        W50965  28.228  44.999  12.432
82572W        W50966  37.411   7.855   4.672
82573W        W50967   3.714  43.718  10.975
82574W        W50968   2.181  19.549  12.412
82575W        W50969  11.596  44.042  14.080
82576W        W50970  44.416   5.522  11.025
82577W        W50971  35.876  43.800   1.979
82578W        W50972  22.543  15.628  14.490
82579W        W50973  15.819  26.615  10.616
82580W        W50974  29.472  31.323   1.170
82581W        W50975  42.045   0.346  11.148
82582W        W50976   5.115  13.352  11.558
82583W        W50977  31.100  23.515   2.294
82584W        W50978  16.013  12.194  14.379
82585W        W50979  12.149  31.326  11.134
82586W        W50980  20.298  14.147  10.534
82587W        W50981  16.183   5.706   1.716
82588W        W50982  39.497  39.278   2.701
82589W        W50983  16.457  21.714   0.448
82590W        W50984  17.777   4.387  12.884
82591W        W50985  42.573  36.053   0.523
82592W        W50986  40.604  22.881   5.131
82593W        W50987  29.415  23.682   0.469
82594W        W50988  15.504  43.311  13.338
82595W        W50989   2.816  42.828  11.657
82596W        W50990  15.318  29.893  10.892
82597W        W50991  35.125  15.544   3.137
82598W        W50992  13.354  23.823  11.415
82599W        W50993   3.540  30.839  12.165
82600W        W50994  22.421  24.044   3.375
82601W        W50995  14.995  17.353  10.348
82602W        W50996   2.895   4.803  14.914
82603W        W50997   4.260  10.085   1.717
82604W        W50998   1.833   4.990   4.372
82605W        W50999  17.557  18.890  11.697
82606W        W51000  14.836  44.731  13.006
82607W        W51001   6.657  29.517   4.608
82608W        W51002  25.852  19.210   1.792
82609W        W51003   8.070  19.334   5.048
82610W        W51004   3.316  27.808   4.067
82611W        W51005  13.635  19.357   4.207
82612W        W51006  15.797  31.413  11.662
82613W        W51007  41.536  34.912   3.351
82614W        W51008   3.914  30.579  12.612
82615W        W51009   1.694   9.953   3.129
82616W        W51010  17.770  26.075   3.597
82617W        W51011  22.570  10.725  12.037
82618W        W51012  32.075  32.319   1.832
82619W        W51013   9.240  27.125   3.077
82620W        W51014   1.915   4.927   1.034
82621W        W51015   2.821  27.485   0.859
82622W        W51016  19.307   1.730  11.413
82623W        W51017  38.037  38.995  10.700
82624W        W51018  25.679  23.176  13.059
82625W        W51019  32.585   0.536   4.583
82626W        W51020  24.736  19.759  14.819
82627W        W51021  44.510  31.514   2.748
82628W        W51022   7.011  20.707  11.866
82629W        W51023  22.494   5.295  12.978
82630W        W51024  42.876  11.306  12.621
82631W        W51025  27.228  11.112  12.033
82632W        W51026  15.947  27.254   4.141
82633W        W51027  37.291  26.415  14.491
82634W        W51028  39.973  12.672   3.234
82635W        W51029   5.905  17.151  11.201
82636W        W51030  31.986   1.508   4.685
82637W        W51031  16.283  29.197   0.373
82638W        W51032  22.015  19.754   1.308
82639W        W51033  43.264  32.022  13.620
82640W        W51034  28.186   9.423   3.916
82641W        W51035  37.055  24.741  12.535
82642W        W51036  11.885  10.159  14.601
82643W        W51037  23.810  21.724   4.614
82644W        W51038  29.322   4.167   3.414
82645W        W51039   3.477  29.228   2.136
82646W        W51040  34.668  17.023  14.368
82647W        W51041  40.398  20.576   3.660
82648W        W51042   9.321  23.011  14.597
82649W        W51043  29.900  25.145  11.121
82650W        W51044   4.890  32.672  11.566
82651W        W51045  19.231  29.699   4.517
82652W        W51046  16.837   3.965   3.137
82653W        W51047  30.387  36.079  10.929
82654W        W51048  27.168  15.233   1.803
82655W        W51049   6.316  18.738   4.456
82656W        W51050  22.971   9.662   4.120
82657W        W51051  44.467  37.512   4.189
82658W        W51052  31.625  39.041  14.881
82659W        W51053  34.811  18.831   0.930
82660W        W51054  23.722  26.620  14.529
82661W        W51055   2.838  11.734  10.410
82662W        W51056  42.595  32.025  10.724
82663W        W51057   4.255  41.878  11.686
82664W        W51058  18.293  29.950  12.876
82665W        W51059  22.185  29.398  10.749
82666W        W51060  28.145  24.555  10.979
82667W        W51061  21.012  26.533  11.647
82668W        W51062  10.473  40.982  10.643
82669W        W51063   6.912   8.264  11.038
82670W        W51064   7.316  13.515  11.065
82671W        W51065  39.771  16.175   0.774
82672W        W51066  21.511  17.720  11.228
82673W        W51067  34.921  23.900   4.383
82674W        W51068  16.333   7.303  11.773
82675W        W51069   7.700   4.953   0.134
82676W        W51070   9.184   3.811   3.843
82677W        W51071  43.939  16.767  14.519
82678W        W51072  31.420   8.150  14.549
82679W        W51073  26.805  15.853  10.897
82680W        W51074  17.147  43.612   3.696
82681W        W51075   6.702  19.021   4.281
82682W        W51076  43.975  18.168  10.403
82683W        W51077   3.709  19.235   3.176
82684W        W51078  12.600  32.459  12.552
82685W        W51079  26.157  12.189  11.812
82686W        W51080  36.729  43.885   2.252
82687W        W51081   1.088  29.927  14.387
82688W        W51082  39.253  24.620   0.364
82689W        W51083  32.205  31.108  12.575
82690W        W51084  12.409  36.622  11.139
82691W        W51085  19.829  38.109  11.060
82692W        W51086  23.177  16.203   3.034
82693W        W51087  36.062  12.267   2.786
82694W        W51088  29.641  10.361   4.603
82695W        W51089  28.160  21.278  11.963
82696W        W51090   9.561  12.287  11.845
82697W        W51091  11.060  26.713  14.211
82698W        W51092  39.933  10.410   0.005
82699W        W51093  23.471  26.467  12.545
82700W        W51094   3.896   5.696   3.637
82701W        W51095  17.065  22.160   4.376
82702W        W51096  40.393  28.564   0.283
82703W        W51097  22.630  15.597   4.562
82704W        W51098  14.783  17.578   1.370
82705W        W51099  19.196   0.042  10.997
82706W        W51100   6.898  10.139  12.467
82707W        W51101   7.263   5.858   1.903
82708W        W51102  39.680  13.730   3.760
82709W        W51103   3.500  35.834  14.883
82710W        W51104   2.956  25.650  12.481
82711W        W51105  19.980   6.203   3.847
82712W        W51106   0.967   2.870   1.661
82713W        W51107   3.187  44.956  11.127
82714W        W51108  35.124  14.705  12.014
82715W        W51109  35.979  17.588   1.696
82716W        W51110  18.332  37.039   2.073
82717W        W51111  38.281  19.354   1.826
82718W        W51112  22.474  38.850   1.283
82719W        W51113  31.846  11.224   4.500
82720W        W51114  36.063  41.513  11.205
82721W        W51115   5.650  37.455   3.795
82722W        W51116  23.131  43.823   3.414
82723W        W51117  27.861  30.203   2.201
82724W        W51118  10.714  38.818   1.479
82725W        W51119  42.718  10.381   4.133
82726W        W51120  40.000  16.476   2.027
82727W        W51121  36.173   2.445  13.540
82728W        W51122   0.732   7.907  14.097
82729W        W51123  27.470  19.619  12.592
82730W        W51124   2.534  19.197  12.591
82731W        W51125  43.585  35.019  11.154
82732W        W51126  18.081  28.828  12.856
82733W        W51127  30.801  14.725   3.577
82734W        W51128  39.552  23.171  12.677
82735W        W51129   4.970  37.588   1.629
82736W        W51130  36.634  12.865   1.485
82737W        W51131  44.383  24.536  11.489
82738W        W51132  11.552  31.381   4.116
82739W        W51133   6.247  36.944   1.772
82740W        W51134  42.796  13.899   2.812
82741W        W51135  11.318  40.232  13.043
82742W        W51136   0.830  21.024  11.326
82743W        W51137   7.438  27.053  10.295
82744W        W51138  27.630   2.919   3.752
82745W        W51139  38.322  28.170   2.380
82746W        W51140   6.442  22.128   0.054
82747W        W51141  10.637   8.906  11.376
82748W        W51142   7.788  22.915   1.196
82749W        W51143  36.258   1.009  11.249
82750W        W51144   1.995  29.568   2.784
82751W        W51145  33.937  27.873  13.749
82752W        W51146  37.618  10.543  12.929
82753W        W51147  10.336  38.451   2.863
82754W        W51148  11.248  22.571  14.984
82755W        W51149  44.781  44.960   0.928
82756W        W51150  41.586  12.985  12.951
82757W        W51151  25.573  31.994   4.305
82758W        W51152   8.929  37.892   0.529
82759W        W51153   8.178  12.398   3.273
82760W        W51154  11.883  14.301  13.574
82761W        W51155   8.290  28.539   3.567
82762W        W51156  16.047  26.224  12.651
82763W        W51157   3.758   8.605   3.790
82764W        W51158  31.454  15.784  10.786
82765W        W51159   2.860   5.391  13.812
82766W        W51160  23.618  42.980   3.081
82767W        W51161  25.262  29.664  14.862
82768W        W51162   1.896  11.128  12.991
82769W        W51163  30.434  23.601   1.761
82770W        W51164  21.221  42.807  12.560
82771W        W51165   7.763  26.047  13.116
82772W        W51166  35.968   2.783   1.360
82773W        W51167  25.710   2.270  13.460
82774W        W51168  40.959  11.911  12.583
82775W        W51169   6.370  26.613   4.344
82776W        W51170   2.778  27.547  11.435
82777W        W51171   2.397  15.359   3.190
82778W        W51172   2.093  40.757  12.653
82779W        W51173  42.749  21.715   4.527
82780W        W51174  21.633  24.509   1.447
82781W        W51175  11.910   9.724  11.548
82782W        W51176  10.165  18.742   3.749
82783W        W51177  41.570  17.154  15.000
82784W        W51178   9.215  13.472  11.603
82785W        W51179  28.608  37.583   3.583
82786W        W51180  34.817  32.064  10.461
82787W        W51181  44.068  20.125   4.132
82788W        W51182   4.893  30.820  12.576
82789W        W51183  34.573  27.782   0.760
82790W        W51184  13.991  10.677  11.418
82791W        W51185  30.550  33.385   1.289
82792W        W51186  25.076  33.950  10.711
82793W        W51187  44.307   3.744   0.299
82794W        W51188  21.989   5.896  14.725
82795W        W51189  13.255   6.824  12.534
82796W        W51190  10.862  41.235  14.855
82797W        W51191  15.843  33.165  14.841
82798W        W51192  44.964  14.882   4.174
82799W        W51193  22.224  34.156  12.558
82800W        W51194  25.671  26.787   1.277
82801W        W51195   7.446  18.855  11.914
82802W        W51196   5.413  32.379   2.030
82803W        W51197  20.640   0.350  13.804
82804W        W51198  10.227   4.673  11.525
82805W        W51199  43.571  37.385  13.372
82806W        W51200   1.232  40.395   4.073
82807W        W51201   4.234  37.318  14.953
82808W        W51202  37.018   8.384   4.183
82809W        W51203  10.749  25.939  10.910
82810W        W51204  29.458  10.838   4.571
82811W        W51205   9.150  30.475   4.109
82812W        W51206  29.625  36.525  13.814
82813W        W51207  43.337   3.821  12.795
82814W        W51208   8.905  29.712   4.166
82815W        W51209  16.646   4.143   0.894
82816W        W51210  17.311  26.137   4.824
82817W        W51211  34.717   4.226  10.696
82818W        W51212  19.657  25.105   4.045
82819W        W51213  12.325  26.110   1.336
82820W        W51214  14.225  33.019  12.056
82821W        W51215   6.444  18.551  14.932
82822W        W51216  26.596  39.877   9.950
82823W        W51217   8.588   2.891   5.001
82824W        W51218  13.195  29.493   1.447
82825W        W51219  39.507  17.236   3.777
82826W        W51220  27.888  31.201  14.355
82827W        W51221  18.864   1.281   1.689
82828W        W51222  36.437  20.797   3.135
82829W        W51223  37.804  23.808   4.552
82830W        W51224  42.839  31.525  11.228
82831W        W51225  38.361  27.717  11.594
82832W        W51226   1.927  36.492   3.047
82833W        W51227  40.622  36.417  14.385
82834W        W51228   7.949  41.833   0.773
82835W        W51229  32.366  33.610   4.111
82836W        W51230  36.850  14.656   0.323
82837W        W51231  26.360   7.319  10.143
82838W        W51232  37.531  34.425  11.348
82839W        W51233  30.416  24.271   3.409
82840W        W51234  10.637  11.353  12.516
82841W        W51235  30.557  44.403   0.553
82842W        W51236  33.666  22.727  11.136
82843W        W51237   8.239  13.139  10.659
82844W        W51238  20.102  34.984  10.987
82845W        W51239  26.935  27.579  12.533
82846W        W51240  31.109  30.581  10.719
82847W        W51241  43.436  26.712  11.570
82848W        W51242  11.131  39.909   4.089
82849W        W51243  25.103   3.999   1.711
82850W        W51244   4.720   4.980   3.208
82851W        W51245  44.969  18.111   2.940
82852W        W51246  16.098  23.285  12.408
82853W        W51247  15.117  25.471  11.137
82854W        W51248   3.382  31.128   2.785
82855W        W51249  18.289  29.118  13.495
82856W        W51250   2.955   8.213  11.946
82857W        W51251   2.862   4.379  11.414
82858W        W51252   5.779   1.992   2.431
82859W        W51253  31.635  31.996   1.780
82860W        W51254  31.072  23.699  13.509
82861W        W51255   8.800  22.152  13.604
82862W        W51256  40.179  14.658  13.612
82863W        W51257  14.564  31.883  12.884
82864W        W51258  23.100  36.012   2.702
82865W        W51259   6.193  35.103  14.193
82866W        W51260  22.606  44.505  14.505
82867W        W51261   6.809   1.488   2.231
82868W        W51262   7.411  32.003   2.841
82869W        W51263   2.465  35.616   2.732
82870W        W51264  40.297  22.662  11.118
82871W        W51265  29.588  11.274   2.372
82872W        W51266  36.537  12.783  11.595
82873W        W51267  34.102  36.866   1.873
82874W        W51268   0.322   9.608  14.525
82875W        W51269  28.330   1.593  11.248
82876W        W51270  28.558   7.317   3.973
82877W        W51271  16.122  31.449  10.975
82878W        W51272  31.009   6.943  12.057
82879W        W51273  32.485   9.973   2.712
82880W        W51274  37.066  27.731   4.675
82881W        W51275  26.606  32.607   3.362
82882W        W51276   2.170   2.353  11.100
82883W        W51277  33.162  12.762  12.986
82884W        W51278  27.853  44.968   2.006
82885W        W51279   4.462  33.910  13.819
82886W        W51280   4.334  11.817   0.652
82887W        W51281  13.732  44.078   3.412
82888W        W51282  38.587  19.354  13.930
82889W        W51283  23.767  37.908  11.611
82890W        W51284  16.707  22.140  14.744
82891W        W51285  37.138  33.875   3.208
82892W        W51286  35.460  28.159   3.871
82893W        W51287  10.858  33.433  14.858
82894W        W51288  30.052   8.835   0.563
82895W        W51289  21.516  43.171   1.872
82896W        W51290   0.215   5.750   1.816
82897W        W51291  10.593  27.862   4.523
82898W        W51292  11.422  11.256   2.529
82899W        W51293   4.132  25.491   0.885
82900W        W51294  33.926  34.889  12.399
82901W        W51295  43.280  31.639   1.963
82902W        W51296  10.620  28.421   4.517
82903W        W51297   8.764  19.196   2.717
82904W        W51298  33.800  31.936   2.390
82905W        W51299  16.323  30.082  11.056
82906W        W51300  21.493  41.619  14.008
82907W        W51301  11.804  19.176  13.406
82908W        W51302  23.567   5.700  14.850
82909W        W51303  21.533  15.899  11.199
82910W        W51304  29.576  36.481   1.818
82911W        W51305  12.803  18.083   2.698
82912W        W51306  20.108  33.506  14.487
82913W        W51307  42.257  30.907  13.426
82914W        W51308  27.993  15.244  14.969
82915W        W51309  19.632   3.727  11.768
82916W        W51310  32.072  39.446   1.790
82917W        W51311   8.343  18.638  12.904
82918W        W51312  25.310  42.550  12.976
82919W        W51313  27.540  23.078  14.287
82920W        W51314  31.374  23.602   4.174
82921W        W51315  14.057   4.315   1.550
82922W        W51316  17.702   8.625   0.937
82923W        W51317  15.721  34.237   2.388
82924W        W51318   3.268  28.384   0.451
82925W        W51319  36.000   5.420   4.368
82926W        W51320   1.309  23.548  13.374
82927W        W51321  15.815  33.859  13.347
82928W        W51322   3.726   8.856   4.837
82929W        W51323   0.922  22.880  11.557
82930W        W51324   9.479  44.824   2.867
82931W        W51325   2.484   3.028   2.792
82932W        W51326   9.540  28.934  12.909
82933W        W51327  15.786  14.095  14.414
82934W        W51328   7.698   6.915  13.369
82935W        W51329  33.864  28.454   0.319
82936W        W51330  37.892   4.346   0.300
82937W        W51331  21.688  32.110  13.001
82938W        W51332  35.460  18.851  10.771
82939W        W51333  27.357  18.307  13.414
82940W        W51334   5.720   3.323   4.279
82941W        W51335  38.649   1.373  11.521
82942W        W51336  35.418  38.343   2.107
82943W        W51337  25.070  15.018   1.853
82944W        W51338  15.010   1.234   2.927
82945W        W51339  37.982  43.901  12.792
82946W        W51340  16.614   4.909   3.020
82947W        W51341   5.235   4.936   3.126
82948W        W51342  11.891  11.360  11.661
82949W        W51343   8.522  44.158   2.262
82950W        W51344  27.596  32.024  12.586
82951W        W51345   4.615  38.442   3.839
82952W        W51346  11.589   8.272   4.377
82953W        W51347  33.155  44.750  10.431
82954W        W51348  12.892  16.171   3.207
82955W        W51349   7.740  41.376  12.236
82956W        W51350  24.564  10.724  11.469
82957W        W51351  23.907  36.999   2.845
82958W        W51352  18.594  43.033   0.464
82959W        W51353  35.245  41.325   3.192
82960W        W51354  29.518  16.609  12.882
82961W        W51355  38.261  33.418   4.177
82962W        W51356  40.085  39.480  11.844
82963W        W51357  22.228  43.548   3.600
82964W        W51358  15.194   7.890   2.640
82965W        W51359   8.457   9.924   2.953
82966W        W51360  10.980   3.598   0.429
82967W        W51361  14.536   0.253  14.201
82968W        W51362  24.687  32.050   4.749
82969W        W51363  11.165  30.504   2.536
82970W        W51364  13.214  27.524  14.717
82971W        W51365  19.948  43.972  10.839
82972W        W51366  37.426   8.808  11.727
82973W        W51367   7.801  15.259   0.262
82974W        W51368  18.661  33.065  10.666
82975W        W51369  11.706  22.840   5.069
82976W        W51370  11.783  23.127   0.959
82977W        W51371   1.076  35.637   4.962
82978W        W51372  39.062   3.711   4.650
82979W        W51373  32.905   6.878   0.008
82980W        W51374  31.325   9.126   2.284
82981W        W51375  33.854  44.859  14.991
82982W        W51376  41.976   9.464   1.972
82983W        W51377  39.502  14.145   5.059
82984W        W51378  43.995  14.614  10.600
82985W        W51379  31.861   2.304   0.283
82986W        W51380  15.880   0.315  14.986
82987W        W51381  39.437  44.758   0.919
82988W        W51382  29.322  17.530  10.240
82989W        W51383  11.769   1.012   3.366
82990W        W51384  32.455  12.224   2.904
82991W        W51385  42.613  33.516  12.290
82992W        W51386  10.409  23.734  13.984
82993W        W51387  21.846  33.518   2.078
82994W        W51388   2.780  30.976  12.496
82995W        W51389   1.170  24.390   2.012
82996W        W51390  44.925  25.176   1.201
82997W        W51391   9.305  34.953  13.896
82998W        W51392  30.785   1.441   3.676
82999W        W51393   8.710  44.417  10.817
83000W        W51394   3.853  10.916   1.793
83001W        W51395  39.454   9.651  13.985
83002W        W51396  28.479  13.215  13.556
83003W        W51397  41.284  41.458   4.191
83004W        W51398   2.155  44.491  12.424
83005W        W51399  43.265  35.692  14.736
83006W        W51400  13.265  28.279   4.735
83007W        W51401  26.032   6.700   0.397
83008W        W51402   3.016  19.196   0.979
83009W        W51403  11.402  12.810  14.132
83010W        W51404  41.759  23.473   3.189
83011W        W51405  17.732  17.012   2.291
83012W        W51406   2.338  14.532   3.335
83013W        W51407   8.116   4.733  14.345
83014W        W51408  27.037  41.575   1.950
83015W        W51409   4.045  18.148   2.724
83016W        W51410   5.386   1.443   2.860
83017W        W51411   6.972  44.440   0.773
83018W        W51412  17.347  31.062   1.740
83019W        W51413  30.099   7.470  12.111
83020W        W51414  24.295  32.358  12.733
83021W        W51415  27.901  30.563   2.580
83022W        W51416  10.697  39.971   3.773
83023W        W51417  42.759   5.225  12.012
83024W        W51418   6.451  14.332  10.693
83025W        W51419   2.722  41.444   0.544
83026W        W51420   9.086  42.083  12.084
83027W        W51421   3.753  27.036   3.297
83028W        W51422  33.073   2.377  14.742
83029W        W51423  24.363  21.096   1.657
83030W        W51424  21.926  35.586  14.789
83031W        W51425  12.831  11.438  12.960
83032W        W51426  32.465   0.489   3.319
83033W        W51427   9.629   3.022   0.802
83034W        W51428  27.703   9.686   1.233
83035W        W51429  12.853   4.282   4.129
83036W        W51430  43.940  15.231  13.852
83037W        W51431  42.245  19.751   1.239
83038W        W51432  39.606  37.915   2.442
83039W        W51433  42.554  13.569   3.612
83040W        W51434  13.771  44.000   2.186
83041W        W51435  25.493   9.874  13.406
83042W        W51436  17.019  12.874   4.044
83043W        W51437  26.075  14.872  12.614
83044W        W51438  22.707   6.721  13.865
83045W        W51439   8.285  33.080   1.845
83046W        W51440  37.449  27.847  14.269
83047W        W51441  21.180  16.874  10.268
83048W        W51442  40.820  10.469  14.752
83049W        W51443  37.307   9.926  14.071
83050W        W51444  34.061   4.319  10.588
83051W        W51445   1.977  15.799   2.374
83052W        W51446  27.308  40.505  11.682
83053W        W51447  42.788  23.995  14.342
83054W        W51448   2.882  42.346   3.178
83055W        W51449  17.603   8.794   3.389
83056W        W51450  31.562  35.045  13.029
83057W        W51451  15.073  29.986  11.676
83058W        W51452  21.542  19.939  14.878
83059W        W51453   8.443  16.169  13.534
83060W        W51454  16.085  26.643  11.544
83061W        W51455   5.098  21.545  13.442
83062W        W51456   7.228  39.171  13.832
83063W        W51457  29.986  31.210  14.451
83064W        W51458   0.725  27.464  14.858
83065W        W51459  40.878  18.991  13.786
83066W        W51460  15.356   9.006  14.921
83067W        W51461  36.020  34.814  12.933
83068W        W51462   7.763  11.060   1.322
83069W        W51463   7.482  23.563   3.450
83070W        W51464   1.487  25.072   4.625
83071W        W51465  22.729  15.654  12.094
83072W        W51466   3.489   0.486  11.931
83073W        W51467  40.471   1.052   0.710
83074W        W51468   1.899   3.557   2.302
83075W        W51469  40.739   5.217   4.537
83076W        W51470  32.333  26.901   2.260
83077W        W51471  41.133  35.393   4.116
83078W        W51472  34.369  32.919   3.610
83079W        W51473  28.660  36.514   0.872
83080W        W51474   4.307  16.502  10.116
83081W        W51475  26.604  32.197  13.915
83082W        W51476  34.122  35.978   4.535
83083W        W51477  20.617  14.899   0.911
83084W        W51478   1.694   7.475   1.439
83085W        W51479  35.387   8.227  11.057
83086W        W51480  43.538   5.439   4.979
83087W        W51481  21.226  44.902   4.904
83088W        W51482  44.403  20.344   2.753
83089W        W51483  20.781  38.637  12.112
83090W        W51484  26.529  32.651   0.378
83091W        W51485  23.788  16.266   0.873
83092W        W51486  27.156  24.127   3.902
83093W        W51487  26.179   3.307  14.518
83094W        W51488  28.555  21.116  10.548
83095W        W51489  43.794  14.552  12.811
83096W        W51490   4.053   1.538   5.123
83097W        W51491  18.098  12.832  14.975
83098W        W51492  25.674  40.252  13.984
83099W        W51493  10.852   4.123   4.118
83100W        W51494   4.112   6.047  10.186
83101W        W51495  30.671  20.490   1.485
83102W        W51496  23.289  32.470   4.178
83103W        W51497   5.216  30.576   4.141
83104W        W51498  37.071   3.939   2.748
83105W        W51499  43.408  14.704   0.673
83106W        W51500   6.419  13.412   4.983
83107W        W51501  43.973  21.012   2.846
83108W        W51502  10.545  35.389  10.765
83109W        W51503  14.185  18.145   3.130
83110W        W51504  12.511   1.417  13.915
83111W        W51505  42.917  23.676   0.231
83112W        W51506  19.609  31.244  12.022
83113W        W51507   4.931   4.228  13.539
83114W        W51508   3.933   3.543  13.423
83115W        W51509   1.545  23.572   2.167
83116W        W51510  41.787  33.436  11.111
83117W        W51511   3.272  27.420  13.892
83118W        W51512  21.754   4.946   2.382
83119W        W51513  30.012  16.895  10.705
83120W        W51514   0.387  30.727   0.269
83121W        W51515  22.000  26.496  11.621
83122W        W51516  34.392   6.144  13.763
83123W        W51517  43.800   7.369   3.091
83124W        W51518  39.128   6.222   0.828
83125W        W51519  31.145  25.596  11.453
83126W        W51520  25.176  19.234  12.375
83127W        W51521  10.809  11.386  13.021
83128W        W51522  26.273  43.868   0.813
83129W        W51523  42.756  28.404   4.876
83130W        W51524   0.352  25.752  10.802
83131W        W51525  13.743  33.100  11.095
83132W        W51526   0.261  36.588  12.373
83133W        W51527  29.641   9.672  12.895
83134W        W51528   9.404  23.742  13.927
83135W        W51529  38.064   6.236   2.236
83136W        W51530   5.731   0.799   4.018
83137W        W51531   2.983   0.252   1.637
83138W        W51532  37.646  35.984  12.424
83139W        W51533  22.479  40.222   4.656
83140W        W51534  38.606  40.443  12.416
83141W        W51535  33.395  39.029   3.132
83142W        W51536  23.454   2.199   4.415
83143W        W51537  38.985  11.717   2.807
83144W        W51538  40.466  41.929   4.071
83145W        W51539   4.922   0.763   1.739
83146W        W51540   4.212  19.347   0.307
83147W        W51541  31.068  29.435  12.382
83148W        W51542   9.160  24.609   4.959
83149W        W51543   4.725  30.222   4.900
83150W        W51544  43.779  41.825   4.400
83151W        W51545   4.320  10.587   3.550
83152W        W51546   9.394   8.771  12.237
83153W        W51547   8.172  29.249   0.003
83154W        W51548  20.146   0.665  10.702
83155W        W51549   7.925  27.393  10.732
83156W        W51550  23.154  44.214   3.086
83157W        W51551   0.035  12.127  14.413
83158W        W51552   0.907  29.682  13.983
83159W        W51553   8.756   9.277  14.749
83160W        W51554  33.624  26.775   2.220
83161W        W51555  21.093  42.252  11.612
83162W        W51556  11.162  30.131  14.426
83163W        W51557  37.103  19.841  11.199
83164W        W51558  13.629  33.763   2.699
83165W        W51559   2.158   5.815   0.776
83166W        W51560  29.733   4.033  14.172
83167W        W51561   6.794  44.771  13.397
83168W        W51562  39.449  17.439  11.645
83169W        W51563  17.063  22.722  12.478
83170W        W51564  17.851  14.821   4.067
83171W        W51565  27.180  35.631   4.046
83172W        W51566  24.443  25.193  13.338
83173W        W51567  34.545  31.443   4.377
83174W        W51568  26.211  10.102  14.549
83175W        W51569  44.135  36.942   0.113
83176W        W51570  21.554  38.345   0.774
83177W        W51571  10.415  24.593   0.371
83178W        W51572   9.703   6.621  11.726
83179W        W51573  44.256  11.856  11.674
83180W        W51574  35.981  34.012   0.676
83181W        W51575   3.671   4.904   2.490
83182W        W51576  27.619  35.883  12.299
83183W        W51577  34.032   8.748   4.250
83184W        W51578  30.558  20.617   0.993
83185W        W51579  26.258  16.593   3.261
83186W        W51580   9.885  14.245  13.509
83187W        W51581  33.974  31.974   1.877
83188W        W51582  23.038   9.719  14.970
83189W        W51583   1.183  24.679   0.471
83190W        W51584  22.055   1.118   0.169
83191W        W51585  15.599  22.655   0.963
83192W        W51586  20.467  26.636   0.853
83193W        W51587   3.977  22.491   4.571
83194W        W51588  28.512  28.474   3.278
83195W        W51589  27.046  36.323   1.537
83196W        W51590  33.980  34.583   3.281
83197W        W51591  17.507  16.264   1.771
83198W        W51592  23.171  27.047   4.551
83199W        W51593  28.990   9.685   3.539
83200W        W51594   6.639  25.541  11.600
83201W        W51595   2.456   1.767   2.809
83202W        W51596  23.770  29.187   4.702
83203W        W51597   5.821  23.214  10.523
83204W        W51598  44.838  16.001   2.239
83205W        W51599  20.794  20.107  13.476
83206W        W51600   3.361  29.599  14.902
83207W        W51601   3.976  23.722   1.388
83208W        W51602   9.697  11.172   3.028
83209W        W51603  43.381  39.987   2.216
83210W        W51604  24.864  41.258   4.110
83211W        W51605  36.363  19.122   1.618
83212W        W51606  44.426  30.710  10.073
83213W        W51607  12.587  31.336   0.895
83214W        W51608  20.737   3.392  11.500
83215W        W51609   5.889  32.392   2.236
83216W        W51610  12.241  11.269   0.862
83217W        W51611  23.272  27.032   0.033
83218W        W51612  42.505  17.739   0.726
83219W        W51613  33.924  30.475   2.885
83220W        W51614  32.555  33.157   3.247
83221W        W51615  11.277  42.493   1.669
83222W        W51616  23.600   5.418   3.297
83223W        W51617   0.751  10.795   1.263
83224W        W51618  40.587  37.048   0.256
83225W        W51619  36.469  20.738  10.487
83226W        W51620   7.332   6.699   1.930
83227W        W51621   3.134  35.622   1.771
83228W        W51622  24.717  12.643  14.827
83229W        W51623   1.052   8.611   0.903
83230W        W51624  27.694  20.602  13.581
83231W        W51625  44.895  43.549   2.033
83232W        W51626  14.646  29.062   3.715
83233W        W51627  24.111   1.318  13.500
83234W        W51628  36.243  24.650  10.856
83235W        W51629  24.290  18.682   4.056
83236W        W51630  25.015  43.247  10.349
83237W        W51631   0.479  25.718   2.810
83238W        W51632   6.969  33.085   1.495
83239W        W51633   3.759  43.846   2.087
83240W        W51634  10.388   4.696  12.389
83241W        W51635  36.668  25.130  10.390
83242W        W51636  26.667  26.088   0.048
83243W        W51637  20.800  26.978   2.398
83244W        W51638  44.351   3.225   0.456
83245W        W51639   4.718   9.887  14.269
83246W        W51640   3.107  22.779   3.351
83247W        W51641  15.818   1.373  11.827
83248W        W51642   4.724   2.945   4.167
83249W        W51643   3.331   4.448  11.210
83250W        W51644   5.295  40.349  14.409
83251W        W51645  39.837   0.362  11.980
83252W        W51646  30.079  36.394   1.678
83253W        W51647  20.823   7.640  12.621
83254W        W51648   6.976   9.718  12.071
83255W        W51649  27.155  31.940   3.188
83256W        W51650  33.816   7.371  11.964
83257W        W51651  23.609  42.365  14.837
83258W        W51652  41.682   4.419  12.722
83259W        W51653  29.908  31.482  12.152
83260W        W51654  12.368  13.698   0.980
83261W        W51655   2.539  44.333  13.963
83262W        W51656   2.271  30.100   3.405
83263W        W51657   1.236  18.791   3.704
83264W        W51658  17.606  19.549   2.670
83265W        W51659  23.920  28.058  10.794
83266W        W51660  18.666  37.260   1.252
83267W        W51661   9.163  44.535   1.199
83268W        W51662  30.942  16.148  13.000
83269W        W51663   6.446  28.567   2.304
83270W        W51664  20.020  24.510   1.439
83271W        W51665  44.355  35.133   1.867
83272W        W51666  40.821  29.143   2.862
83273W        W51667  27.705  40.089   3.296
83274W        W51668   4.714   1.197  13.840
83275W        W51669  20.512  26.950  12.668
83276W        W51670  20.246  10.272   1.880
83277W        W51671  12.137   3.886  13.014
83278W        W51672  33.457  32.924  11.709
83279W        W51673  12.301  14.330   0.516
83280W        W51674  30.571  12.520   4.531
83281W        W51675   7.414  20.705  14.935
83282W        W51676  41.358  10.259   4.793
83283W        W51677   4.482  26.537  12.986
83284W        W51678  18.145  15.698   9.725
83285W        W51679  14.522  28.229   4.832
83286W        W51680  23.721  27.257   3.585
83287W        W51681  36.094  38.086   1.328
83288W        W51682  22.430  42.103  12.492
83289W        W51683   7.572  43.374   3.506
83290W        W51684  22.100   3.377   5.221
83291W        W51685  33.340  20.208   1.890
83292W        W51686  32.328  18.645   4.146
83293W        W51687  21.081   5.030  14.933
83294W        W51688   4.184  22.949   3.663
83295W        W51689   0.870  14.779   4.602
83296W        W51690   4.528   7.902  14.118
83297W        W51691  14.885  37.727  11.422
83298W        W51692   1.581  44.792  13.692
83299W        W51693  30.639  11.607   2.684
83300W        W51694   1.506  36.581  11.495
83301W        W51695  34.990  40.832  14.576
83302W        W51696  33.001   4.339  10.758
83303W        W51697  20.232   9.701   4.685
83304W        W51698  28.624  19.121  13.334
83305W        W51699  34.912  30.466  12.968
83306W        W51700  10.322  12.575  13.501
83307W        W51701   0.896  18.816  11.233
83308W        W51702  15.565  25.713  11.098
83309W        W51703  33.691  11.259  13.314
83310W        W51704  30.483   8.461   3.683
83311W        W51705  10.396  34.428   4.320
83312W        W51706  29.010  18.306   4.922
83313W        W51707  19.497   6.584   0.439
83314W        W51708  29.500  26.151  13.266
83315W        W51709  43.383  20.235   0.830
83316W        W51710  23.509  33.588   4.490
83317W        W51711  14.147  11.582  12.949
83318W        W51712  34.495  23.535   4.009
83319W        W51713  36.362  40.947  11.549
83320W        W51714  27.958  40.018   1.042
83321W        W51715  35.922   5.980   0.742
83322W        W51716  26.132  42.031  12.308
83323W        W51717  33.259  32.163   2.395
83324W        W51718  30.426  13.109  13.539
83325W        W51719  23.624  41.941   0.653
83326W        W51720  34.529   0.764   0.038
83327W        W51721  15.085   1.758   2.894
83328W        W51722  44.044  22.067   0.390
83329W        W51723  12.165   1.281   4.614
83330W        W51724  39.350  24.128   2.379
83331W        W51725   2.686  38.255   2.303
83332W        W51726  29.553  29.943  11.248
83333W        W51727  36.049  19.468   4.918
83334W        W51728  25.998  42.323  11.032
83335W        W51729  40.968  39.265  13.253
83336W        W51730  15.795  34.124  12.436
83337W        W51731  17.130  36.847   4.494
83338W        W51732  21.696  17.703  13.563
83339W        W51733   4.697  42.866  11.595
83340W        W51734  30.675  44.020   1.372
83341W        W51735  37.905   3.473  11.118
83342W        W51736   1.278  13.915   4.478
83343W        W51737  39.878  39.818   3.236
83344W        W51738   9.304  20.315   0.936
83345W        W51739   3.379   9.192  11.599
83346W        W51740  27.633   1.071  11.699
83347W        W51741  17.061   3.845  11.964
83348W        W51742   9.277   9.201   3.461
83349W        W51743  21.294  24.550  10.656
83350W        W51744  17.153  44.278   4.625
83351W        W51745   5.312   0.935  12.559
83352W        W51746  28.640   2.053   1.707
83353W        W51747  17.236   0.847   0.485
83354W        W51748   2.663  30.718  13.044
83355W        W51749  41.843  31.025   2.326
83356W        W51750  15.316  14.615  11.431
83357W        W51751   0.384   3.636   5.065
83358W        W51752  43.559   3.372  11.360
83359W        W51753   1.123  43.958   0.877
83360W        W51754   6.959   4.950   5.424
83361W        W51755  33.671  29.099  14.311
83362W        W51756   6.170  13.271   3.729
83363W        W51757   2.321  41.934  13.740
83364W        W51758  32.717  21.942   4.443
83365W        W51759  16.094  30.507  13.396
83366W        W51760  23.465  18.371   3.264
83367W        W51761   5.480  38.187   1.933
83368W        W51762   8.268  32.909   0.383
83369W        W51763  10.145  25.246  10.262
83370W        W51764   8.648   1.430  14.957
83371W        W51765   5.468  16.082   1.855
83372W        W51766   8.689  10.937   2.300
83373W        W51767  37.872  30.176   4.939
83374W        W51768   9.950   5.043  14.865
83375W        W51769  23.091   6.856   1.191
83376W        W51770   1.895  16.539  12.937
83377W        W51771   5.258  41.556  13.079
83378W        W51772   5.611  11.614  10.986
83379W        W51773  21.562   3.970   3.869
83380W        W51774   4.705  30.610  12.127
83381W        W51775  30.013   5.782  11.029
83382W        W51776  42.290  33.356  11.111
83383W        W51777  13.825  23.536  13.396
83384W        W51778  26.180  26.342   4.408
83385W        W51779  16.593  18.157   1.347
83386W        W51780   8.574  31.950   0.459
83387W        W51781  35.312  11.750  14.423
83388W        W51782  43.809  33.876  14.404
83389W        W51783  15.279  24.464  11.092
83390W        W51784  22.639   0.604   5.176
83391W        W51785  23.167  17.685  14.288
83392W        W51786  13.652  44.687  10.698
83393W        W51787  32.918  43.909  13.818
83394W        W51788  18.116  17.706  12.568
83395W        W51789  31.611  23.144   0.783
83396W        W51790  38.612  37.973  10.892
83397W        W51791  16.683  17.463  11.633
83398W        W51792  32.324  42.462  12.436
83399W        W51793  13.578  41.081   1.347
83400W        W51794  18.993  32.586   0.265
83401W        W51795  18.480  36.925  14.368
83402W        W51796  16.664   9.170  11.572
83403W        W51797  26.586  12.868  13.514
83404W        W51798  41.293   1.959  10.609
83405W        W51799   4.889  42.810   4.112
83406W        W51800  44.850  32.012  13.579
83407W        W51801  35.106  17.720   1.156
83408W        W51802  44.010  20.206  12.055
83409W        W51803  28.446   9.628  10.381
83410W        W51804   1.426  27.771   0.402
83411W        W51805  24.578  21.087   0.122
83412W        W51806  28.925   7.901   0.189
83413W        W51807  20.979  31.291   1.447
83414W        W51808   2.745  18.778   3.219
83415W        W51809  19.089  16.242   3.671
83416W        W51810   7.419  10.941   3.467
83417W        W51811  41.878  38.047  11.795
83418W        W51812  36.536   7.617   4.129
83419W        W51813  43.993  36.146   0.664
83420W        W51814  43.357  34.700   3.398
83421W        W51815  10.710  43.984  10.793
83422W        W51816  27.875   6.724   0.294
83423W        W51817   9.976   3.220   4.760
83424W        W51818  41.479   2.019   2.376
83425W        W51819  30.479  36.248   3.717
83426W        W51820  33.015  37.020   1.982
83427W        W51821   7.156  34.542  12.910
83428W        W51822  31.016  27.673   2.330
83429W        W51823  30.253  33.439  14.873
83430W        W51824  41.056   8.876   0.867
83431W        W51825  26.995   0.728  13.840
83432W        W51826  38.063  39.671   3.307
83433W        W51827  33.943  28.844  10.961
83434W        W51828  21.553  42.449   3.181
83435W        W51829  20.202   6.742  14.889
83436W        W51830   2.616   6.376  14.566
83437W        W51831  17.361  17.921   1.297
83438W        W51832  19.019  27.520   3.369
83439W        W51833   6.180  14.891   9.833
83440W        W51834  20.517  42.709  14.803
83441W        W51835   1.763  30.608  10.741
83442W        W51836  28.143   0.459   1.213
83443W        W51837  38.833   7.762   2.141
83444W        W51838  18.504  40.815  14.650
83445W        W51839  12.102  36.592   2.515
83446W        W51840  21.900  32.170   1.449
83447W        W51841  35.737  12.835   1.211
83448W        W51842  31.395  17.144   3.716
83449W        W51843  42.023  42.024  11.674
83450W        W51844  33.389  41.543  12.526
83451W        W51845  16.605  44.442  13.727
83452W        W51846  27.393  43.418  11.176
83453W        W51847   7.461  25.615   3.335
83454W        W51848  26.733  18.723  13.082
83455W        W51849  34.136  32.309   2.557
83456W        W51850  32.174  33.384  14.520
83457W        W51851  13.136  43.510   1.490
83458W        W51852  41.962  15.066  13.737
83459W        W51853  16.490  22.808  11.872
83460W        W51854  39.992   2.762  13.986
83461W        W51855  37.045  21.171  12.970
83462W        W51856  40.178   2.446   4.656
83463W        W51857  44.257  31.910  14.060
83464W        W51858   4.407  21.230  10.913
83465W        W51859   6.948   6.991   1.724
83466W        W51860  22.017  27.775   0.788
83467W        W51861  26.295  27.081  11.011
83468W        W51862  44.844  38.416  13.448
83469W        W51863  44.118  16.983   5.057
83470W        W51864   0.894  35.543   4.217
83471W        W51865  27.181  11.791  11.463
83472W        W51866  39.882  23.724  13.326
83473W        W51867   5.908  41.890  13.832
83474W        W51868   3.940  23.733   3.220
83475W        W51869  43.830  26.028  12.942
83476W        W51870   4.102  26.132  12.767
83477W        W51871  43.574   3.332  14.006
83478W        W51872  31.662   7.794   0.994
83479W        W51873   0.882  37.252  13.849
83480W        W51874  38.337  32.141  11.583
83481W        W51875  12.862  17.417  14.908
83482W        W51876  12.717   5.678  14.603
83483W        W51877  37.314  21.198   1.322
83484W        W51878  17.019  35.704  14.353
83485W        W51879  18.195  33.906   1.834
83486W        W51880  41.698   0.872   2.788
83487W        W51881   2.412  24.788  11.635
83488W        W51882  33.006  27.055   3.723
83489W        W51883  35.037  17.191   1.604
83490W        W51884  29.097  19.626  11.192
83491W        W51885  11.288   3.748   3.344
83492W        W51886   8.740   8.242   4.820
83493W        W51887  26.546  42.060   3.266
83494W        W51888  43.294   9.118   2.033
83495W        W51889   2.926   7.942  14.453
83496W        W51890  20.148  22.518   0.332
83497W        W51891  14.289  29.202  11.278
83498W        W51892  36.833   6.900  10.441
83499W        W51893  12.792  17.242  13.363
83500W        W51894  16.158  31.130  14.528
83501W        W51895  37.028  36.936  11.328
83502W        W51896  18.053  42.770   2.880
83503W        W51897  44.254  22.676  12.843
83504W        W51898   8.451  24.193  13.874
83505W        W51899  33.351  36.279   0.723
83506W        W51900  43.278  34.365   0.874
83507W        W51901  19.586   5.790   2.855
83508W        W51902  38.260  37.657   0.065
83509W        W51903  44.924  36.553   2.512
83510W        W51904  22.102  44.924   3.713
83511W        W51905  39.884  25.237  11.146
83512W        W51906  26.088  39.024   1.652
83513W        W51907   5.138  23.669   5.126
83514W        W51908  13.418  24.936  13.045
83515W        W51909  20.722  29.419  11.192
83516W        W51910  40.784  25.116  13.855
83517W        W51911   6.280   1.013  13.022
83518W        W51912  26.686  36.192   0.306
83519W        W51913  42.033  28.906   2.190
83520W        W51914  24.030  36.332   0.196
83521W        W51915  25.255   5.154  13.084
83522W        W51916  41.874  37.887   3.468
83523W        W51917  10.588  12.610   0.284
83524W        W51918  37.028  36.209   2.338
83525W        W51919   0.669   2.486   1.396
83526W        W51920  42.031  38.389  13.400
83527W        W51921   6.981  31.578   0.733
83528W        W51922  15.813  13.371  13.737
83529W        W51923  19.586  30.491  10.669
83530W        W51924   3.740  32.033   4.764
83531W        W51925  12.772   4.941   2.789
83532W        W51926  12.550  14.793   1.383
83533W        W51927  11.783  14.564  14.383
83534W        W51928  13.509  39.015   3.384
83535W        W51929  23.205  16.671   1.213
83536W        W51930  42.610   6.233   3.237
83537W        W51931   8.337  38.409   3.641
83538W        W51932   3.267   7.784  11.192
83539W        W51933  32.500  34.128  12.481
83540W        W51934  29.620  44.469  10.116
83541W        W51935  26.729  29.850   2.745
83542W        W51936   9.394   9.661  12.054
83543W        W51937  38.355  12.274  12.592
83544W        W51938  11.129  25.172  11.707
83545W        W51939  27.057   6.403  14.771
83546W        W51940  41.370  34.360   1.198
83547W        W51941   3.240  25.384  12.853
83548W        W51942  21.514  20.016  10.733
83549W        W51943  27.426   0.470  12.514
83550W        W51944   7.772  26.648   0.844
83551W        W51945   4.013  26.763   0.678
83552W        W51946  11.209   2.738   2.555
83553W        W51947  26.922  28.699   3.992
83554W        W51948  32.630  13.831  11.640
83555W        W51949  38.569  13.041  13.860
83556W        W51950  41.284  14.640   4.986
83557W        W51951   4.457   0.505   2.642
83558W        W51952   8.534   5.000  14.571
83559W        W51953  16.063  17.836  14.362
83560W        W51954  31.030  13.833  11.620
83561W        W51955  36.365  39.551   4.611
83562W        W51956  19.078  24.533   0.343
83563W        W51957  31.890  14.639   2.114
83564W        W51958  14.695   8.361  12.889
83565W        W51959  42.958  39.787  11.490
83566W        W51960  28.460  10.919   3.214
83567W        W51961  13.713   4.923   3.138
83568W        W51962  25.700  37.366  10.654
83569W        W51963  19.581  30.354   4.762
83570W        W51964  25.954  39.171   2.694
83571W        W51965  36.800   8.291  10.585
83572W        W51966  19.614  14.000  13.500
83573W        W51967  15.462  20.256   1.019
83574W        W51968  36.469  24.059   1.981
83575W        W51969  21.289  29.046  13.042
83576W        W51970  17.086  16.026   4.594
83577W        W51971  18.876  21.407  11.572
83578W        W51972  35.849  18.317  11.852
83579W        W51973  39.305  45.000  13.932
83580W        W51974  39.939  25.542  14.915
83581W        W51975   1.463  41.435  13.735
83582W        W51976  22.259  35.802   0.493
83583W        W51977   6.842  15.255  12.962
83584W        W51978  25.799  41.610  14.058
83585W        W51979  14.308  14.746   3.762
83586W        W51980   1.033  29.541   2.185
83587W        W51981   3.344  43.824  10.593
83588W        W51982  15.485  13.217  13.365
83589W        W51983   1.813  36.226  11.247
83590W        W51984   2.609  41.134   2.799
83591W        W51985  10.820  29.204   1.787
83592W        W51986  44.501  41.355   0.319
83593W        W51987  37.504  27.067   2.733
83594W        W51988  16.680  37.140  11.996
83595W        W51989  12.306  27.521   2.609
83596W        W51990  26.423  40.633   0.488
83597W        W51991  39.921  35.648  11.181
83598W        W51992  42.398  20.736  12.944
83599W        W51993  36.182  41.283   0.787
83600W        W51994   7.052   9.226   0.454
83601W        W51995  33.834  10.560  14.372
83602W        W51996  12.606   2.723  14.420
83603W        W51997  25.036  29.472  12.615
83604W        W51998  23.708   2.994   4.139
83605W        W51999  32.894  15.255   1.663
83606W        W52000  26.964   8.374   0.426
83607W        W52001  38.230   8.896  10.435
83608W        W52002  10.288  20.663   0.793
83609W        W52003  29.360  19.356  10.550
83610W        W52004  13.358  24.510   1.676
83611W        W52005  31.169  14.399   0.821
83612W        W52006   3.023  20.134  14.696
83613W        W52007  27.736  34.501  12.066
83614W        W52008  32.675  28.129   0.385
83615W        W52009  44.244  13.869   1.956
83616W        W52010  17.847  34.490   2.431
83617W        W52011   8.801  16.591   0.800
83618W        W52012  26.247  39.926  14.320
83619W        W52013  26.747  39.322  11.512
83620W        W52014  27.066  41.028   4.712
83621W        W52015  32.618  28.706   2.627
83622W        W52016  36.897   1.871  10.660
83623W        W52017  37.082  29.338   2.233
83624W        W52018   6.919   8.726   0.367
83625W        W52019  18.338  19.345   3.777
83626W        W52020  32.387  34.701  11.752
83627W        W52021  20.249  18.567  11.986
83628W        W52022  36.112  43.238  12.573
83629W        W52023  24.744  12.178   2.857
83630W        W52024   1.706   1.404  12.051
83631W        W52025  28.249  24.203  13.913
83632W        W52026  12.989   4.919   3.699
83633W        W52027  19.585  25.930   0.507
83634W        W52028  24.173   8.835  13.059
83635W        W52029   9.881  12.080   0.229
83636W        W52030  15.679   7.259  11.405
83637W        W52031  42.031  43.798   4.908
83638W        W52032  43.340  17.812   4.635
83639W        W52033  28.290  14.240   1.701
83640W        W52034  17.090  15.585  13.671
83641W        W52035   6.331  29.558   0.289
83642W        W52036  20.672  18.866   1.603
83643W        W52037  17.978  43.144  10.913
83644W        W52038  20.370  19.585   9.841
83645W        W52039   0.603  25.028  14.856
83646W        W52040  44.838  27.549   1.738
83647W        W52041  38.676  36.851   2.304
83648W        W52042  17.281   5.712   0.408
83649W        W52043  36.800  30.237   1.377
83650W        W52044  20.840   4.764  10.647
83651W        W52045   4.238  20.807  11.124
83652W        W52046  37.884  27.972   4.643
83653W        W52047  37.430  34.384   3.332
83654W        W52048  44.016  15.559   0.033
83655W        W52049   6.307  29.567   4.974
83656W        W52050  16.179   9.451  10.819
83657W        W52051  30.882  26.340  12.048
83658W        W52052  44.686  27.574  11.490
83659W        W52053  17.683   0.201  11.557
83660W        W52054  43.283  43.804   3.089
83661W        W52055  11.662  41.895  11.142
83662W        W52056   6.311  21.173  10.733
83663W        W52057  37.890  15.693  13.436
83664W        W52058   1.357   3.530   2.637
83665W        W52059  32.294  28.188   1.796
83666W        W52060   3.457  41.728  13.015
83667W        W52061  20.282  29.720   4.567
83668W        W52062   2.665   6.607   3.220
83669W        W52063  40.235  29.894  14.037
83670W        W52064  18.787   9.072  11.994
83671W        W52065  13.184   2.819   0.104
83672W        W52066  24.723  24.641   4.605
83673W        W52067  39.456   4.407   3.172
83674W        W52068  10.580   1.029   2.206
83675W        W52069  15.275  35.289   2.286
83676W        W52070   9.068  32.581  12.483
83677W        W52071  35.965  32.148   1.889
83678W        W52072   8.625  27.375   5.704
83679W        W52073   9.870  15.018  12.531
83680W        W52074  26.011  30.107   4.590
83681W        W52075  24.240  24.674   4.333
83682W        W52076   3.749  36.928  13.996
83683W        W52077  41.270   1.997  13.328
83684W        W52078  12.393  27.427   0.949
83685W        W52079  25.157   6.256  14.341
83686W        W52080   3.219  12.531   4.244
83687W        W52081   9.871  42.223   1.803
83688W        W52082  33.028  42.272   1.696
83689W        W52083   0.949  19.208   0.475
83690W        W52084   9.916   0.217  10.683
83691W        W52085  10.304  16.655   9.467
83692W        W52086  10.247  13.581   0.276
83693W        W52087  11.538   2.853  14.400
83694W        W52088  41.475  18.756  14.838
83695W        W52089   3.904  36.556  11.224
83696W        W52090  15.271  42.054   1.704
83697W        W52091  22.034  39.861   3.627
83698W        W52092  17.941   2.437   3.770
83699W        W52093  15.487  34.519  12.626
83700W        W52094  18.942  32.983  12.184
83701W        W52095  29.624   3.057  10.178
83702W        W52096  10.193  39.437   0.061
83703W        W52097  17.961  11.906   0.695
83704W        W52098   5.872  32.147   2.692
83705W        W52099  16.481  22.525   3.986
83706W        W52100  40.072  21.465  10.746
83707W        W52101  23.213  36.940   4.080
83708W        W52102  39.617  29.022  13.945
83709W        W52103  29.001  39.883  13.619
83710W        W52104  41.897  25.968  12.031
83711W        W52105  30.972  31.810   1.238
83712W        W52106  38.131  22.434  11.769
83713W        W52107  31.994   9.212   1.861
83714W        W52108   7.208  31.708   1.221
83715W        W52109  17.700  39.912  11.085
83716W        W52110  10.347  34.910  12.965
83717W        W52111   9.245  24.596   0.960
83718W        W52112   9.168  32.472   4.032
83719W        W52113  21.485   2.971   3.664
83720W        W52114  44.744  41.585   1.191
83721W        W52115  12.606  22.547   3.340
83722W        W52116  20.001  31.954   4.243
83723W        W52117  14.784  28.980   3.198
83724W        W52118  13.235  23.673  14.691
83725W        W52119   6.467  12.329   3.326
83726W        W52120  43.510  21.779  13.349
83727W        W52121   8.619  30.431  13.369
83728W        W52122  10.717   3.556   0.920
83729W        W52123  31.319   4.425  12.524
83730W        W52124   4.434  14.357  13.823
83731W        W52125   4.587  16.151   1.522
83732W        W52126  37.117  13.634   4.172
83733W        W52127  33.022  25.586   4.782
83734W        W52128  28.823  37.325  11.545
83735W        W52129  10.614  27.963   0.739
83736W        W52130   2.800  10.394  13.323
83737W        W52131  17.335  21.054  12.080
83738W        W52132  42.101  22.127  11.063
83739W        W52133  23.591   7.489   1.288
83740W        W52134  15.628  40.853  12.047
83741W        W52135  20.274  26.271   2.689
83742W        W52136  32.102  26.144   2.934
83743W        W52137  44.176   2.020  10.719
83744W        W52138  30.755  16.788  12.371
83745W        W52139  16.919  35.651  11.218
83746W        W52140  25.623  12.269  12.534
83747W        W52141  12.811  19.775  11.610
83748W        W52142  11.331  39.736   2.194
83749W        W52143   5.368  38.637   3.375
83750W        W52144  23.157   5.169  13.349
83751W        W52145   6.463  13.272  13.367
83752W        W52146   2.709   2.360  11.141
83753W        W52147   6.726  27.692  14.741
83754W        W52148  31.628  23.800   1.412
83755W        W52149  43.375   1.012  11.097
83756W        W52150  39.290  20.601   3.666
83757W        W52151   3.685  37.018   0.878
83758W        W52152   2.246  11.179  14.912
83759W        W52153  11.388   2.192   0.061
83760W        W52154  26.730  13.270  13.198
83761W        W52155  20.739  23.309   2.852
83762W        W52156  37.729  38.653   4.441
83763W        W52157   8.209  36.714   1.041
83764W        W52158   0.518  29.426   2.313
83765W        W52159  43.047  44.262  11.527
83766W        W52160  27.869  14.295  11.134
83767W        W52161  32.172  16.353   0.277
83768W        W52162  32.468  12.328  13.506
83769W        W52163   9.697  37.990   2.206
83770W        W52164  36.903  25.733   0.498
83771W        W52165  12.767   3.544  10.854
83772W        W52166  26.655   1.627  10.528
83773W        W52167  31.524   5.246   4.505
83774W        W52168   0.759   6.676   4.658
83775W        W52169  15.623  40.906   2.315
83776W        W52170  17.334  28.226  13.258
83777W        W52171  18.147   0.364  11.432
83778W        W52172  41.833  34.562   4.574
83779W        W52173  41.598  11.887  12.159
83780W        W52174  16.226  39.595  13.939
83781W        W52175  30.203   0.287   4.555
83782W        W52176  42.114  39.478  14.821
83783W        W52177  36.752  14.813   0.808
83784W        W52178   2.294  24.547   3.579
83785W        W52179  41.516  21.534   0.329
83786W        W52180  44.740  40.906  12.826
83787W        W52181  38.769  40.849   4.476
83788W        W52182  31.553  40.115  11.023
83789W        W52183  38.265  11.746  10.427
83790W        W52184  38.917  34.088   0.945
83791W        W52185   7.977  25.516   3.264
83792W        W52186  10.817  43.877   2.212
83793W        W52187   7.107  17.501  13.949
83794W        W52188  22.071  27.880  11.905
83795W        W52189  10.072  13.265  14.739
83796W        W52190  23.704  11.475   3.121
83797W        W52191  22.688  17.185  12.148
83798W        W52192  24.087  42.826   4.108
83799W        W52193  32.008  30.619   1.429
83800W        W52194  23.666  44.525  14.295
83801W        W52195  13.596  18.527   1.091
83802W        W52196  11.713  26.633  13.525
83803W        W52197  42.355  30.188   2.805
83804W        W52198   7.122  28.100  10.861
83805W        W52199  11.129  35.921  11.140
83806W        W52200   4.644  33.388  11.124
83807W        W52201  16.886  28.679  10.314
83808W        W52202  12.178  18.494  10.730
83809W        W52203  43.268   6.652  11.111
83810W        W52204  37.091  34.425  12.144
83811W        W52205  32.343  41.995   4.831
83812W        W52206  24.481   5.603  14.480
83813W        W52207  13.590  39.904   4.725
83814W        W52208  32.291  21.959  13.411
83815W        W52209  10.862  22.107  14.814
83816W        W52210  25.388  16.638   2.218
83817W        W52211  20.821  23.674  12.463
83818W        W52212  27.550   6.176  10.876
83819W        W52213  40.052  13.126  11.480
83820W        W52214  30.687  25.665   2.898
83821W        W52215  17.206  22.616   3.858
83822W        W52216   2.367   9.303   2.769
83823W        W52217   2.425  32.091  12.337
83824W        W52218  21.286  15.316   1.269
83825W        W52219  27.978  40.688   3.699
83826W        W52220  30.126  24.282   1.361
83827W        W52221  41.374   4.661   0.236
83828W        W52222  27.006   6.432   3.667
83829W        W52223  40.268  22.782   4.713
83830W        W52224  14.635   3.027  10.197
83831W        W52225  15.095  33.873  10.781
83832W        W52226   1.013  31.602   0.348
83833W        W52227  16.173  14.375   2.667
83834W        W52228  21.117  20.811   4.736
83835W        W52229  17.209  32.515  12.561
83836W        W52230  41.003  38.240   3.089
83837W        W52231  24.296  26.667   1.725
83838W        W52232  42.252  35.874   2.067
83839W        W52233   4.825  28.024  11.158
83840W        W52234  33.656  21.468  11.218
83841W        W52235   7.085  13.752   5.455
83842W        W52236   9.606  19.108  12.019
83843W        W52237  22.864  24.529   2.744
83844W        W52238  33.635  43.011   3.435
83845W        W52239  25.487   1.384   1.479
83846W        W52240  17.156  37.937  11.184
83847W        W52241  29.188  34.338   3.293
83848W        W52242   7.213   5.211   1.066
83849W        W52243  27.172  35.507  14.502
83850W        W52244  34.472  26.366   0.313
83851W        W52245   2.410   0.788  13.593
83852W        W52246  16.603  36.059  11.385
83853W        W52247  14.560  21.550   4.153
83854W        W52248  37.091  12.029   3.884
83855W        W52249  12.224  19.064  12.103
83856W        W52250  43.144  14.149   4.263
83857W        W52251  31.600  27.187   0.617
83858W        W52252  23.293  21.025   2.679
83859W        W52253  21.043  34.982  14.009
83860W        W52254  43.504  33.368  13.900
83861W        W52255  11.921   1.901  12.076
83862W        W52256  23.085  41.105  12.495
83863W        W52257  18.051  30.661   3.044
83864W        W52258  24.088  26.926   4.425
83865W        W52259  12.696   7.211  10.747
83866W        W52260  27.283  23.688  13.140
83867W        W52261  18.144  21.076   0.463
83868W        W52262   9.703   9.131  13.334
83869W        W52263  43.971  18.581   0.705
83870W        W52264  12.308  31.663  14.365
83871W        W52265  18.234  23.277  10.691
83872W        W52266   4.671   4.435  13.975
83873W        W52267   2.727   6.101   3.083
83874W        W52268  38.464  17.204  11.549
83875W        W52269  30.574   2.625  14.369
83876W        W52270  20.289  37.857  11.950
83877W        W52271  11.805  20.038  14.534
83878W        W52272  18.564   6.871   3.749
83879W        W52273  23.992   9.642   4.199
83880W        W52274  27.501  43.443   1.368
83881W        W52275   6.822  20.574  10.996
83882W        W52276  23.649  33.532   3.169
83883W        W52277  11.441  28.106  13.472
83884W        W52278  12.907  16.737  14.770
83885W        W52279  26.744  27.058  12.193
83886W        W52280  12.110  26.094  12.170
83887W        W52281   8.572  41.494  11.132
83888W        W52282  24.646  40.615   4.598
83889W        W52283  41.656   5.650  12.583
83890W        W52284  19.186  39.544  10.883
83891W        W52285  32.539   4.478   4.064
83892W        W52286   1.049  29.502   1.243
83893W        W52287  10.849   9.839  12.915
83894W        W52288  36.259   5.207   1.712
83895W        W52289  31.010  44.912  13.489
83896W        W52290  12.812  44.822   1.236
83897W        W52291  10.080  30.506   1.459
83898W        W52292  44.633  15.973  12.008
83899W        W52293   8.284  40.942  11.189
83900W        W52294  15.074  37.742   5.464
83901W        W52295  23.673   3.768  11.937
83902W        W52296   6.170  26.156  12.537
83903W        W52297  25.106  16.782  13.443
83904W        W52298  27.403   4.899   0.351
83905W        W52299  25.055  23.302  14.330
83906W        W52300   0.303  11.871   4.700
83907W        W52301  22.728   6.915  12.091
83908W        W52302  36.845   9.368   3.346
83909W        W52303   2.694  11.371  12.641
83910W        W52304  24.506  41.817  12.713
83911W        W52305  37.097  27.058  14.551
83912W        W52306   1.227  30.913   3.697
83913W        W52307  36.818  24.555  12.074
83914W        W52308  10.646  15.486   0.474
83915W        W52309  33.269  28.230   5.100
83916W        W52310  20.601  14.774  12.925
83917W        W52311   9.272   2.275  11.022
83918W        W52312  15.297  30.488   2.042
83919W        W52313  11.624  34.629  11.617
83920W        W52314  11.484  41.609  12.212
83921W        W52315  18.285  23.599   0.913
83922W        W52316  16.578  44.007  10.648
83923W        W52317  23.301  31.518  14.297
83924W        W52318  35.672  10.341   5.068
83925W        W52319  25.012   8.197   4.903
83926W        W52320  25.089  25.547   0.311
83927W        W52321  16.868  34.453   4.891
83928W        W52322  29.456  32.068   4.208
83929W        W52323  32.579  42.186  13.822
83930W        W52324  13.228  36.365   1.328
83931W        W52325  37.990  16.753   2.180
83932W        W52326  32.555   9.849   4.547
83933W        W52327  35.463  12.083  10.563
83934W        W52328  35.659  14.844  11.978
83935W        W52329  33.677  36.873  11.463
83936W        W52330  21.985  19.123   1.746
83937W        W52331  42.101  11.058   2.919
83938W        W52332  29.317  18.627   1.820
83939W        W52333  14.612   2.524   0.674
83940W        W52334  15.442  37.550   3.754
83941W        W52335   0.823  41.807  14.755
83942W        W52336  41.957  21.105   4.428
83943W        W52337  19.565  10.156  14.867
83944W        W52338  43.958  36.517  11.677
83945W        W52339  29.445  12.328   1.613
83946W        W52340  33.901  39.092   3.225
83947W        W52341  27.015  10.505   1.205
83948W        W52342  30.389  31.380   1.386
83949W        W52343   0.654  35.860   1.359
83950W        W52344  34.422  30.679  10.983
83951W        W52345  27.643  18.082  13.928
83952W        W52346  38.211  44.322  12.555
83953W        W52347  14.176  33.635  10.738
83954W        W52348  37.150  38.340   1.443
83955W        W52349  11.668  42.837   0.667
83956W        W52350  34.027  31.091  11.898
83957W        W52351  10.629  21.273   4.545
83958W        W52352  33.134  28.031   0.137
83959W        W52353   1.242  11.830  14.250
83960W        W52354  37.175   0.941   2.355
83961W        W52355  17.936   7.092   2.642
83962W        W52356   9.727  42.292  11.230
83963W        W52357  14.164  24.388   4.980
83964W        W52358  16.535  12.774   0.242
83965W        W52359  12.802  40.927   0.468
83966W        W52360   2.538  19.815  13.362
83967W        W52361  28.873   9.717   0.672
83968W        W52362  17.553  12.614  13.308
83969W        W52363  15.116  38.553   1.376
83970W        W52364  35.388  33.367   1.743
83971W        W52365  30.480  15.603  11.530
83972W        W52366   0.860  29.719   0.783
83973W        W52367   7.730  10.734   3.134
83974W        W52368  30.894   8.087  11.215
83975W        W52369  22.271  11.853  13.427
83976W        W52370  15.645  31.063   0.354
83977W        W52371  30.978  26.798  12.222
83978W        W52372  17.646  30.727  11.515
83979W        W52373   5.391  19.762   3.198
83980W        W52374  17.568  22.612   0.464
83981W        W52375  41.479  21.226   4.362
83982W        W52376  31.574  36.871  12.864
83983W        W52377  24.015  41.177  13.475
83984W        W52378  24.862   1.387  12.889
83985W        W52379  38.995   3.202   0.950
83986W        W52380   8.173   6.638   3.403
83987W        W52381  28.153  35.986  10.436
83988W        W52382  35.976  40.864   4.839
83989W        W52383  26.525  35.112   3.070
83990W        W52384  26.986  38.856  13.950
83991W        W52385  33.909   9.200  11.614
83992W        W52386  13.385  37.385  10.729
83993W        W52387  31.173  32.645  10.779
83994W        W52388   4.453  11.564  11.979
83995W        W52389  11.242  18.249  13.032
83996W        W52390  18.337   0.695   2.602
83997W        W52391  39.202  29.433   0.935
83998W        W52392  23.879  32.485   1.287
83999W        W52393  28.694  13.575   1.306
84000W        W52394  14.575  17.672   0.915
84001W        W52395  24.182  22.465  12.019
84002W        W52396   5.729  27.459   3.338
84003W        W52397  29.721   2.402   1.928
84004W        W52398  28.570  22.478   1.265
84005W        W52399  41.954  18.574   4.811
84006W        W52400  36.371  24.948  11.712
84007W        W52401  43.319  26.217   0.647
84008W        W52402  43.459  38.190   0.370
84009W        W52403   5.395  10.700  12.057
84010W        W52404  32.700  42.761  10.151
84011W        W52405  13.795  22.254   3.382
84012W        W52406   6.672  23.633   1.289
84013W        W52407  21.460  31.780  13.510
84014W        W52408  35.457   7.324  14.034
84015W        W52409  32.003   9.868   3.660
84016W        W52410   1.507  36.922   0.326
84017W        W52411  32.601  21.929  14.770
84018W        W52412  35.611  23.116  12.493
84019W        W52413  23.890   1.923  11.398
84020W        W52414  21.125  18.367  11.953
84021W        W52415  29.904  36.005   2.798
84022W        W52416   0.179   4.928  13.552
84023W        W52417  31.613   2.732  12.480
84024W        W52418  39.906  11.954  10.600
84025W        W52419  33.576  13.930   0.882
84026W        W52420  18.813   4.894  12.415
84027W        W52421   2.476  21.418   1.359
84028W        W52422  20.894  26.135  12.509
84029W        W52423   4.365   8.256  11.900
84030W        W52424   3.761  12.627   0.132
84031W        W52425  44.965  28.002  12.345
84032W        W52426  37.651  19.710   1.168
84033W        W52427  24.528  27.834   3.545
84034W        W52428  39.811  23.016  14.426
84035W        W52429  30.832  34.591  11.629
84036W        W52430   2.850  30.457   1.847
84037W        W52431  19.915  30.065   5.868
84038W        W52432  25.426  15.653  13.877
84039W        W52433  38.825  29.705   4.249
84040W        W52434  32.937  37.933   4.709
84041W        W52435  19.445   8.463  11.690
84042W        W52436  33.567  29.991   4.683
84043W        W52437   3.326  21.704  11.483
84044W        W52438  29.885   1.915   0.829
84045W        W52439  34.482  32.111  14.108
84046W        W52440  36.890  25.733  14.027
84047W        W52441   9.053  25.457  12.139
84048W        W52442   4.240  40.576  12.958
84049W        W52443  18.552  26.680   2.256
84050W        W52444  25.921  26.938  10.631
84051W        W52445   1.316  32.622   3.180
84052W        W52446  19.910  11.816   4.922
84053W        W52447  37.560  10.487   3.861
84054W        W52448   9.335   0.371   2.410
84055W        W52449  30.075  43.355  14.456
84056W        W52450  27.757  11.149   3.556
84057W        W52451  40.328  17.787  14.759
84058W        W52452  37.076  21.326  12.057
84059W        W52453  29.138   2.725   4.070
84060W        W52454   2.109   8.691   1.060
84061W        W52455  15.829   2.383  12.915
84062W        W52456  43.730  14.645  14.858
84063W        W52457  10.057  15.298   4.820
84064W        W52458  26.270  21.758   4.126
84065W        W52459   2.767  14.370  13.426
84066W        W52460  25.641  36.225   4.531
84067W        W52461   6.693   0.600   0.965
84068W        W52462  10.470  44.813   2.666
84069W        W52463  17.847   0.505   2.631
84070W        W52464   7.262  24.759  13.427
84071W        W52465   6.869  13.854   1.878
84072W        W52466  14.952  25.772   3.585
84073W        W52467  18.787   4.291   2.274
84074W        W52468  24.720  29.627   1.318
84075W        W52469  42.459   2.308  11.101
84076W        W52470  23.073  35.159  11.573
84077W        W52471  18.718   0.454   4.149
84078W        W52472  34.442  33.532   0.765
84079W        W52473  41.319  18.231   0.692
84080W        W52474  25.113   6.116  13.842
84081W        W52475  22.051   9.238   0.793
84082W        W52476  35.858  44.763   1.029
84083W        W52477   8.115  19.933  10.562
84084W        W52478  20.308  27.740   2.593
84085W        W52479  39.553  13.841   1.279
84086W        W52480   1.735  26.045  14.825
84087W        W52481  32.912  35.877   2.792
84088W        W52482  38.426  32.142   1.901
84089W        W52483  38.956  13.577  12.020
84090W        W52484  21.841  40.777  14.725
84091W        W52485  37.363  10.366  14.794
84092W        W52486   0.760   1.152   3.919
84093W        W52487  28.434  32.335  13.471
84094W        W52488   3.409  31.938   0.350
84095W        W52489   0.812  36.078   2.292
84096W        W52490   4.643  26.310  11.642
84097W        W52491  31.364  33.354   3.241
84098W        W52492  36.917  44.138  12.337
84099W        W52493  16.802  24.103  11.559
84100W        W52494  19.412  26.518  14.406
84101W        W52495  34.643  25.199   3.337
84102W        W52496  17.896   3.006  11.009
84103W        W52497   8.202   4.431  12.988
84104W        W52498  19.132  14.591   0.718
84105W        W52499  39.468   2.440   1.925
84106W        W52500  33.675  42.293  11.135
84107W        W52501  14.600  23.361   1.882
84108W        W52502  40.480   3.236  11.629
84109W        W52503  28.539  22.442  13.134
84110W        W52504  39.768   6.730  12.000
84111W        W52505  37.693  14.689  10.134
84112W        W52506  10.928  21.853   4.277
84113W        W52507   4.832  30.582  14.017
84114W        W52508  28.349  35.471  11.103
84115W        W52509   9.372   8.082   4.125
84116W        W52510  32.425  27.633   0.580
84117W        W52511  35.108  13.064   4.744
84118W        W52512  24.587  33.487  14.952
84119W        W52513  13.666  31.328  12.053
84120W        W52514   0.382  17.544   4.189
84121W        W52515  44.921  25.982  10.629
84122W        W52516  14.075  25.152  14.373
84123W        W52517  25.279   5.736   2.753
84124W        W52518  41.112  43.213  14.062
84125W        W52519  42.502  16.675  13.447
84126W        W52520   1.973  30.063  11.405
84127W        W52521  18.360  37.908   0.240
84128W        W52522   3.921   2.517  12.891
84129W        W52523  21.230  27.865   1.296
84130W        W52524  39.603  35.712   3.277
84131W        W52525  26.698  40.000   1.302
84132W        W52526  24.109  33.436  14.787
84133W        W52527  39.766  41.010  11.438
84134W        W52528  21.345  24.681   2.723
84135W        W52529   4.352  40.412  11.970
84136W        W52530  18.738  29.991   1.681
84137W        W52531  43.493  26.542   0.254
84138W        W52532   4.228  17.522  12.952
84139W        W52533  34.652  21.328  14.920
84140W        W52534  44.738  39.373   3.251
84141W        W52535  31.381  37.503  13.293
84142W        W52536  19.231  12.683   4.087
84143W        W52537  11.056  19.005  12.891
84144W        W52538  20.974   0.796  13.277
84145W        W52539   1.290  14.116  12.323
84146W        W52540  16.359   3.993   3.310
84147W        W52541   5.019  26.986   9.774
84148W        W52542   2.770  43.079   1.226
84149W        W52543  24.953  21.313   4.542
84150W        W52544  11.967  28.426   2.738
84151W        W52545  21.310  27.026  12.922
84152W        W52546  25.942   2.281   1.790
84153W        W52547  13.857   7.396  11.692
84154W        W52548  33.508  31.137  10.681
84155W        W52549  28.158  38.300   3.938
84156W        W52550  14.468  35.560   4.808
84157W        W52551  11.378  11.026  14.778
84158W        W52552  11.473  37.350   2.365
84159W        W52553   5.918  34.114  13.877
84160W        W52554  37.465  17.492  11.904
84161W        W52555  26.241  13.986   4.052
84162W        W52556  25.830  24.434  11.592
84163W        W52557  23.417  32.168  12.965
84164W        W52558  27.420   7.378   3.817
84165W        W52559  42.831  24.227   4.813
84166W        W52560  19.022   7.099   3.647
84167W        W52561  26.060  31.447   0.513
84168W        W52562  36.565   2.668  10.292
84169W        W52563  36.156   6.804  14.629
84170W        W52564   8.828   5.992   1.325
84171W        W52565   3.344  12.206  12.564
84172W        W52566   1.689  34.467   2.384
84173W        W52567  37.441  22.158   2.787
84174W        W52568  17.165  19.835   0.283
84175W        W52569  18.721  35.904  10.383
84176W        W52570  36.391   5.546  10.606
84177W        W52571  19.944  10.119   3.329
84178W        W52572  13.310   4.400  13.693
84179W        W52573  31.628   3.331  13.209
84180W        W52574  42.133   4.453  14.167
84181W        W52575  27.536  43.893   1.139
84182W        W52576  42.847   1.885   3.521
84183W        W52577  32.976  43.240  13.011
84184W        W52578  33.083  12.166   3.451
84185W        W52579  38.057  24.735  13.941
84186W        W52580  25.662  42.056   3.238
84187W        W52581  14.052  26.965   0.449
84188W        W52582  27.661  21.187  11.932
84189W        W52583  36.766   1.208   3.750
84190W        W52584  31.129   4.708  11.636
84191W        W52585  32.402   2.945   4.806
84192W        W52586  42.960  43.991   0.826
84193W        W52587   3.693   3.292   1.845
84194W        W52588  28.573  17.315  12.683
84195W        W52589   3.300  36.478   0.410
84196W        W52590  29.642  36.133  11.924
84197W        W52591  28.751  19.164  11.534
84198W        W52592   8.393  23.172  14.261
84199W        W52593  26.142  31.966   0.505
84200W        W52594  18.650  28.698  11.188
84201W        W52595   2.624  27.594  12.889
84202W        W52596  16.227  16.638   9.996
84203W        W52597  44.759  34.812   1.385
84204W        W52598   5.505  25.637   0.386
84205W        W52599  27.431  13.835  13.367
84206W        W52600  37.810  39.894  14.741
84207W        W52601  11.134  14.589  12.309
84208W        W52602  10.568  25.960  12.827
84209W        W52603  24.374  11.899   4.546
84210W        W52604   5.802  21.505  12.969
84211W        W52605  13.118  21.009  11.686
84212W        W52606  39.310  16.117  14.917
84213W        W52607  22.629  13.111  14.782
84214W        W52608  42.566  32.468  11.080
84215W        W52609  25.645  24.538   4.127
84216W        W52610  28.497  29.610   3.555
84217W        W52611  35.098   9.149   3.869
84218W        W52612  36.905  34.027  14.384
84219W        W52613  12.321   7.431  11.041
84220W        W52614  28.676  14.539   1.226
84221W        W52615  44.576  35.018  12.692
84222W        W52616  22.205  34.414  14.369
84223W        W52617  23.560   3.239   4.567
84224W        W52618  28.588  19.470   0.842
84225W        W52619  35.532   0.895   0.394
84226W        W52620  39.739   7.711  12.677
84227W        W52621  22.056  11.362   5.339
84228W        W52622  30.974  40.352   3.330
84229W        W52623  22.705  23.988  14.365
84230W        W52624  22.092   8.675   3.785
84231W        W52625  24.827   2.397  13.296
84232W        W52626  37.437  12.248   3.074
84233W        W52627  20.837  12.841  13.001
84234W        W52628  12.531  22.718  10.745
84235W        W52629  33.482  28.110   1.332
84236W        W52630  29.137   1.192   0.943
84237W        W52631  19.332   1.002   0.833
84238W        W52632  39.252  30.014  13.903
84239W        W52633  15.269  17.000  11.675
84240W        W52634  17.524  35.886  14.425
84241W        W52635   6.766  29.536   0.538
84242W        W52636   7.719  44.383   0.071
84243W        W52637   3.849  40.383  13.305
84244W        W52638  27.045  43.530  13.971
84245W        W52639   7.522  42.450  10.689
84246W        W52640  33.047  33.859  14.979
84247W        W52641  34.363  35.617   1.217
84248W        W52642   1.925  13.707  14.464
84249W        W52643  39.950  18.029  13.085
84250W        W52644  21.305  16.310   4.255
84251W        W52645  29.729  37.664  12.938
84252W        W52646  14.352   0.916   4.540
84253W        W52647  33.424  31.542  12.984
84254W        W52648  25.753  44.127  11.111
84255W        W52649  27.833  41.553  11.180
84256W        W52650  38.038   7.048   0.655
84257W        W52651  15.305  15.666   4.151
84258W        W52652  35.443  24.832  14.842
84259W        W52653  16.233  32.467  11.992
84260W        W52654  22.259   6.809   1.938
84261W        W52655   9.794  10.684  11.291
84262W        W52656  40.366  12.366   1.841
84263W        W52657  33.305   7.880  12.860
84264W        W52658  44.169  27.633   3.536
84265W        W52659   1.459  17.818  10.670
84266W        W52660  25.597  43.299  13.985
84267W        W52661  38.534  32.120  14.975
84268W        W52662  19.036  26.141  13.413
84269W        W52663  39.724  28.488   2.250
84270W        W52664  43.906  23.171   2.138
84271W        W52665  21.823   7.709   4.529
84272W        W52666   1.645  30.593  14.993
84273W        W52667  25.833   5.257   3.144
84274W        W52668  14.355  18.487   1.711
84275W        W52669   1.834   0.318  10.874
84276W        W52670   4.048   8.437  14.024
84277W        W52671  33.123   3.586  13.019
84278W        W52672  19.568  29.159  14.949
84279W        W52673  11.757   2.932  12.620
84280W        W52674  31.629  23.135  10.711
84281W        W52675  30.754  32.364  10.719
84282W        W52676   1.751  39.802  12.586
84283W        W52677  23.107   5.827   2.481
84284W        W52678  32.450  28.911   3.286
84285W        W52679  44.048  29.557  11.078
84286W        W52680  18.720  13.919  13.949
84287W        W52681  23.254   7.850  11.954
84288W        W52682  32.065  21.034   1.662
84289W        W52683  15.804  32.972  11.499
84290W        W52684  42.220  44.848   1.633
84291W        W52685  36.014  42.924  12.979
84292W        W52686   3.679  38.905  11.670
84293W        W52687   1.020  30.953   2.388
84294W        W52688  16.217  36.384   0.042
84295W        W52689  20.018  17.094   1.018
84296W        W52690   6.505  23.519   0.346
84297W        W52691  40.286  20.302  10.816
84298W        W52692  26.939   3.943  11.568
84299W        W52693  10.423  27.894   5.012
84300W        W52694  35.622  43.930  10.625
84301W        W52695  34.295   3.259  12.383
84302W        W52696  23.685   9.584   3.624
84303W        W52697   0.405  38.635  10.596
84304W        W52698  31.457  28.726   2.947
84305W        W52699  42.556  38.958  12.112
84306W        W52700  34.197  23.464   2.219
84307W        W52701  28.277  40.446   9.986
84308W        W52702   7.822  43.400  12.570
84309W        W52703   6.458  11.719   1.222
84310W        W52704  17.552  26.070  10.840
84311W        W52705  26.704   1.867   3.565
84312W        W52706  13.667  32.418   1.527
84313W        W52707  13.386  11.964  11.975
84314W        W52708  29.635  16.843   3.405
84315W        W52709  12.610  26.095  13.802
84316W        W52710   6.495   2.847   0.670
84317W        W52711  27.211  21.017  14.782
84318W        W52712  26.065  35.479   1.007
84319W        W52713  38.097  39.004  12.508
84320W        W52714   9.380   1.003   3.305
84321W        W52715  43.763  43.785   2.824
84322W        W52716   4.290  37.373  12.070
84323W        W52717  25.127  29.687   1.987
84324W        W52718  17.090  29.164   1.032
84325W        W52719  17.652  20.388  13.291
84326W        W52720  40.596  22.163   3.501
84327W        W52721  41.753  22.275  10.730
84328W        W52722  20.970  21.050   2.072
84329W        W52723   8.822  31.430   2.241
84330W        W52724  38.236   3.631   1.918
84331W        W52725  12.810  15.659  11.402
84332W        W52726  21.653  16.496  12.024
84333W        W52727  22.114   7.251   0.750
84334W        W52728  33.910  15.189   1.406
84335W        W52729  17.647  36.957   3.797
84336W        W52730  35.854  22.657  12.452
84337W        W52731  18.321  30.820  14.353
84338W        W52732  40.545  39.015  12.534
84339W        W52733  21.226  44.414   1.868
84340W        W52734  28.753  42.257   1.385
84341W        W52735  16.702  36.978   1.783
84342W        W52736  31.659  39.203  11.052
84343W        W52737   2.431  18.252   2.849
84344W        W52738  11.685  37.179  12.361
84345W        W52739  44.552  40.224   3.711
84346W        W52740  12.426  36.467  13.982
84347W        W52741  10.812  12.124   3.691
84348W        W52742   2.239   8.261  14.459
84349W        W52743   4.081  16.114  14.820
84350W        W52744  28.927  35.958   2.894
84351W        W52745  11.339  15.673   3.088
84352W        W52746   3.853   0.232   1.899
84353W        W52747  42.353  25.337   2.790
84354W        W52748  28.219  42.217   3.739
84355W        W52749  13.351  13.631   2.901
84356W        W52750  13.490  34.683   1.846
84357W        W52751  29.583  44.035  10.975
84358W        W52752  30.241  22.535   5.124
84359W        W52753  12.885  29.450   3.677
84360W        W52754  20.181  10.627   1.492
84361W        W52755   3.949  16.688   0.867
84362W        W52756  17.604  18.242  13.513
84363W        W52757  32.912  41.888  12.928
84364W        W52758  18.102  20.089   2.810
84365W        W52759  26.188  36.505   4.595
84366W        W52760  20.086  35.709   3.135
84367W        W52761  20.107  13.701  12.027
84368W        W52762  12.294  10.427  11.883
84369W        W52763  23.186  32.607   0.474
84370W        W52764  24.055  14.900  13.557
84371W        W52765  10.070  17.127   4.087
84372W        W52766  29.828  19.686  13.437
84373W        W52767  19.880  43.358  13.342
84374W        W52768   1.849  37.877  13.308
84375W        W52769  39.809  14.391  12.897
84376W        W52770   7.193   7.924  10.701
84377W        W52771  38.092  19.175  11.829
84378W        W52772  22.962  41.402  12.095
84379W        W52773   3.193  36.322  14.920
84380W        W52774   0.740  36.920  13.238
84381W        W52775  35.220  22.865  11.634
84382W        W52776  13.199  27.536   4.088
84383W        W52777  39.949  33.074   4.731
84384W        W52778  18.068  13.054  10.841
84385W        W52779   7.733   1.479   2.428
84386W        W52780  43.964  25.251  12.518
84387W        W52781  38.407  36.340  14.006
84388W        W52782  28.368  25.524  14.771
84389W        W52783  11.827  40.934  13.602
84390W        W52784  36.408  28.932  14.308
84391W        W52785  25.817  20.158   1.758
84392W        W52786   2.714  16.627  11.945
84393W        W52787  34.558  22.652   4.048
84394W        W52788  32.913  43.816   3.792
84395W        W52789  44.062  22.687  13.515
84396W        W52790   9.845  40.479   0.934
84397W        W52791  31.834  17.192   0.107
84398W        W52792  36.103  21.161   4.683
84399W        W52793  35.476  25.049   4.071
84400W        W52794  38.415  22.807   1.823
84401W        W52795   4.784  27.563   4.485
84402W        W52796   8.635  30.686   2.654
84403W        W52797  33.383   7.783   3.380
84404W        W52798  35.343   7.873   1.362
84405W        W52799  41.931  15.470  13.336
84406W        W52800   8.177   0.844  10.437
84407W        W52801  36.751  36.938   1.325
84408W        W52802  13.530  26.978   0.405
84409W        W52803  11.361  22.705  13.508
84410W        W52804  12.253  40.424  10.644
84411W        W52805  44.598   9.663  12.295
84412W        W52806  27.621   4.748  11.554
84413W        W52807  28.481  13.921  10.769
84414W        W52808  26.133  36.009  10.771
84415W        W52809  37.632   9.153   0.690
84416W        W52810  16.650  26.828  12.029
84417W        W52811  28.149   9.928   4.712
84418W        W52812   1.979   6.369   4.344
84419W        W52813  44.970  43.060  14.898
84420W        W52814  20.543   8.762   3.533
84421W        W52815   4.006   2.308  13.836
84422W        W52816  26.378  22.243  14.455
84423W        W52817   3.497  22.609  13.450
84424W        W52818   7.378  18.121   1.798
84425W        W52819  41.976  39.346  11.170
84426W        W52820   1.019  42.910  12.556
84427W        W52821  35.609  29.372   1.205
84428W        W52822   6.903   6.829   9.885
84429W        W52823  12.796  10.269  11.881
84430W        W52824  19.117  23.983   1.259
84431W        W52825  24.620  43.331   3.512
84432W        W52826  42.160  37.769  13.559
84433W        W52827  25.022   5.297   4.605
84434W        W52828   4.222   1.738  11.097
84435W        W52829   2.128   6.771   4.032
84436W        W52830  42.634  37.645  13.390
84437W        W52831  32.866   2.755   2.955
84438W        W52832  19.284  10.842  14.419
84439W        W52833  44.294  11.915  10.755
84440W        W52834   0.343   0.960   4.161
84441W        W52835  11.652   7.776   4.396
84442W        W52836  34.311  25.596  11.412
84443W        W52837  14.752  35.739   0.827
84444W        W52838  21.872  35.556   3.685
84445W        W52839  18.133  20.116   5.353
84446W        W52840   6.456  25.465  13.763
84447W        W52841  11.307  23.871   0.345
84448W        W52842   6.010   7.680  10.718
84449W        W52843  36.825   0.437  13.496
84450W        W52844  43.461  11.364  13.569
84451W        W52845  33.371  17.759  14.447
84452W        W52846  23.609  33.436  14.961
84453W        W52847  10.826   3.989   3.345
84454W        W52848  19.580  37.475  13.923
84455W        W52849  40.464   0.219   3.851
84456W        W52850  43.818  44.668   1.887
84457W        W52851  22.231  16.110   3.859
84458W        W52852  38.473  42.175  12.106
84459W        W52853  29.488  40.545   1.504
84460W        W52854   0.185  29.015   2.636
84461W        W52855  32.008  34.981  13.341
84462W        W52856   9.099  33.564  10.781
84463W        W52857   1.239  44.488  13.417
84464W        W52858  14.222   4.470  11.118
84465W        W52859  42.902   9.928   1.789
84466W        W52860  30.948  40.050   3.797
84467W        W52861  39.997  19.749  14.331
84468W        W52862   7.960  27.572   3.137
84469W        W52863  38.698  27.199  14.549
84470W        W52864  15.569  44.910   3.344
84471W        W52865   1.218  31.199  10.893
84472W        W52866  24.144  38.588  13.575
84473W        W52867  25.004  34.153   0.381
84474W        W52868  36.894  31.100  11.420
84475W        W52869   8.220   8.561   1.525
84476W        W52870  29.439  30.451   0.821
84477W        W52871   8.173  22.553  12.364
84478W        W52872  39.485  35.516  10.410
84479W        W52873   9.618  20.163   2.219
84480W        W52874  34.998  38.523   1.861
84481W        W52875  14.095  42.926   3.651
84482W        W52876  20.838  31.933   0.390
84483W        W52877  10.795   2.774   3.661
84484W        W52878  41.091  14.245   1.920
84485W        W52879  34.186  44.340   1.639
84486W        W52880  15.683  42.786   1.348
84487W        W52881  23.000  18.751   0.397
84488W        W52882  28.545   5.928  10.976
84489W        W52883   1.903  44.969   3.777
84490W        W52884  38.496  28.253   0.413
84491W        W52885  12.642  25.755   2.842
84492W        W52886  21.757  29.638   1.726
84493W        W52887  40.789  32.208  12.530
84494W        W52888   6.057  19.040  12.183
84495W        W52889   8.306  24.150  11.098
84496W        W52890  33.149  35.486  11.043
84497W        W52891  22.269  35.275  13.400
84498W        W52892  43.222  16.301  14.760
84499W        W52893  15.174  14.684  13.813
84500W        W52894  16.706  35.514   0.134
84501W        W52895  36.667   6.325  11.049
84502W        W52896  37.781   1.416   2.291
84503W        W52897  29.147  28.364  13.848
84504W        W52898   9.647  28.547   1.547
84505W        W52899  19.705  19.252   0.346
84506W        W52900  29.576  21.558  14.081
84507W        W52901   4.741  39.794   2.869
84508W        W52902  17.708  15.402  12.553
84509W        W52903  42.044  44.252  13.067
84510W        W52904   5.804   9.570   2.689
84511W        W52905   8.352   0.457   1.896
84512W        W52906  15.600  39.234   3.292
84513W        W52907   9.739  43.393   4.928
84514W        W52908  24.199  11.999   9.787
84515W        W52909  39.832  17.224  12.612
84516W        W52910  32.445  29.931   4.157
84517W        W52911  30.636  27.312   2.464
84518W        W52912   0.720   8.638  10.996
84519W        W52913  44.191   4.091  11.671
84520W        W52914  36.362   5.761  14.542
84521W        W52915  34.489  15.724  14.147
84522W        W52916  19.998  15.766   3.665
84523W        W52917  21.679  34.910   3.703
84524W        W52918  17.146  37.620  13.523
84525W        W52919  32.529  14.656  14.914
84526W        W52920  21.062   8.106   4.954
84527W        W52921  43.178   6.591  14.805
84528W        W52922   4.477  24.576   1.409
84529W        W52923  27.970  37.998  11.418
84530W        W52924  17.799   1.831   4.866
84531W        W52925  18.317   1.913   4.910
84532W        W52926  27.175  20.841   1.750
84533W        W52927  24.606  40.569   2.409
84534W        W52928  19.515   0.070   2.046
84535W        W52929  39.481  22.985   0.057
84536W        W52930  43.785  36.849  11.080
84537W        W52931  43.523  36.611  14.050
84538W        W52932   7.006  14.382   3.961
84539W        W52933   2.478   2.214  10.708
84540W        W52934  25.608  16.868  13.436
84541W        W52935   5.067   5.010   4.012
84542W        W52936  32.580  30.956  11.520
84543W        W52937  44.732  32.540   0.729
84544W        W52938  18.831  38.109  12.089
84545W        W52939   8.893  44.434   3.706
84546W        W52940  40.559  32.991   0.343
84547W        W52941  35.844  25.993   5.307
84548W        W52942  44.874  17.711   4.221
84549W        W52943  41.999  25.422  10.772
84550W        W52944  10.760  30.608  10.730
84551W        W52945   9.452  12.554  14.520
84552W        W52946   5.662   7.399  10.986
84553W        W52947  39.433  42.789  11.170
84554W        W52948  14.623   5.275   0.310
84555W        W52949  15.752  31.909  14.327
84556W        W52950  31.617  35.482  13.975
84557W        W52951  33.782  33.032   4.945
84558W        W52952  20.868  35.938  13.584
84559W        W52953  17.620  15.323   4.893
84560W        W52954  40.604   4.715   1.215
84561W        W52955  29.429  31.439  12.395
84562W        W52956  25.901  18.039   4.141
84563W        W52957  12.759  41.784  12.484
84564W        W52958  19.807  38.436   0.439
84565W        W52959  36.426   8.853  14.439
84566W        W52960  33.634   4.637  14.098
84567W        W52961  11.695  37.898  13.037
84568W        W52962  22.538  28.549   1.932
84569W        W52963  26.710  43.897   0.547
84570W        W52964  37.912  34.526  10.647
84571W        W52965  18.533  38.546   3.152
84572W        W52966  28.155  42.972   0.990
84573W        W52967  19.685  44.920   3.332
84574W        W52968  17.160  44.782  11.699
84575W        W52969  36.586  18.559   4.660
84576W        W52970  20.749   0.022   0.452
84577W        W52971  21.698  28.063   4.083
84578W        W52972  34.558  10.297  11.832
84579W        W52973  26.830  37.151   4.575
84580W        W52974  35.123  43.981  14.738
84581W        W52975   1.200  24.971   0.909
84582W        W52976  25.129  43.042  13.070
84583W        W52977   6.323  20.337   0.012
84584W        W52978  17.491  28.502   2.573
84585W        W52979   9.142   5.159   0.398
84586W        W52980  35.450   6.239   3.822
84587W        W52981  21.738   0.733  11.250
84588W        W52982   7.378   9.177   3.126
84589W        W52983  16.059   5.810  13.631
84590W        W52984   7.309  14.775   5.414
84591W        W52985  44.704   5.267  11.966
84592W        W52986  39.441  15.654   9.959
84593W        W52987   5.761   3.987  11.507
84594W        W52988  38.603  43.414  14.605
84595W        W52989  24.663  38.053  12.111
84596W        W52990  35.387   0.528  12.454
84597W        W52991  35.212  31.446   1.485
84598W        W52992   9.885   4.310  11.209
84599W        W52993  31.059  14.575   1.762
84600W        W52994  13.720  36.967  13.083
84601W        W52995  23.011  18.228   4.872
84602W        W52996  41.260  14.431  11.957
84603W        W52997   8.872  16.255   4.501
84604W        W52998   2.814  24.693   2.873
84605W        W52999  34.549  41.750   1.443
84606W        W53000   8.654  44.418   1.194
84607W        W53001   6.429   6.259   2.765
84608W        W53002  43.030  22.141   2.771
84609W        W53003  19.737  17.469  11.840
84610W        W53004  40.785  30.152   1.911
84611W        W53005   9.719  44.774  12.343
84612W        W53006  34.309  36.477   1.630
84613W        W53007  10.735  10.694  11.425
84614W        W53008   9.339   7.423   4.910
84615W        W53009  12.772  31.650   4.726
84616W        W53010  30.522   0.399   0.196
84617W        W53011  38.998   0.079   4.110
84618W        W53012  12.240  39.562  12.616
84619W        W53013   1.743  13.722   5.083
84620W        W53014  27.098  31.067  13.507
84621W        W53015  20.092  34.669   4.005
84622W        W53016   0.919  22.679  10.707
84623W        W53017  43.501  20.252   2.722
84624W        W53018  26.550  10.282   4.160
84625W        W53019  13.955  19.816   3.360
84626W        W53020  44.243  11.483   0.748
84627W        W53021  13.090   5.649   1.986
84628W        W53022   2.972  26.680  11.359
84629W        W53023  41.433  32.587  13.247
84630W        W53024   7.781   5.918   1.885
84631W        W53025  17.821  43.274   2.283
84632W        W53026  41.101  32.962  13.712
84633W        W53027  20.229  13.105   4.683
84634W        W53028  42.867  38.789   2.292
84635W        W53029  29.221  38.402   0.246
84636W        W53030  33.102  11.538   2.504
84637W        W53031  19.148  41.604   4.061
84638W        W53032  43.831  44.928   3.283
84639W        W53033  16.131  21.079   4.955
84640W        W53034  18.769   8.752  12.463
84641W        W53035  44.916  36.911  12.548
84642W        W53036  16.096  22.625   1.915
84643W        W53037  27.779   2.360   5.437
84644W        W53038  29.346  12.754  14.366
84645W        W53039  20.164   2.426  14.244
84646W        W53040  40.177  12.272  12.974
84647W        W53041  42.400  19.498  12.667
84648W        W53042   1.812  27.041   0.263
84649W        W53043  36.329  39.939  12.905
84650W        W53044  36.914  22.019   0.659
84651W        W53045   5.028   7.208  13.380
84652W        W53046  38.790  16.558  11.182
84653W        W53047   4.852   9.757  13.799
84654W        W53048  38.298  37.454   1.776
84655W        W53049  31.479  21.889  13.417
84656W        W53050   4.161  44.339  11.388
84657W        W53051  20.028  10.594  12.305
84658W        W53052   1.276  23.541   3.719
84659W        W53053  24.084   9.095  13.947
84660W        W53054  30.721  23.323  14.391
84661W        W53055  17.510  30.628   0.455
84662W        W53056   3.992  44.481   3.277
84663W        W53057   1.533  23.068  13.346
84664W        W53058  19.627  42.269  14.464
84665W        W53059  40.303   7.341  14.944
84666W        W53060   3.768   8.299  11.121
84667W        W53061   3.644  27.718  12.959
84668W        W53062   6.807   8.858   2.147
84669W        W53063  44.321   8.655   1.019
84670W        W53064   1.362  39.351   3.747
84671W        W53065  15.099   0.036  10.923
84672W        W53066   1.719  38.564   4.055
84673W        W53067  17.330  43.543  14.892
84674W        W53068   7.991  35.464  10.305
84675W        W53069   0.271  43.755  12.517
84676W        W53070  12.264  14.730  11.579
84677W        W53071  41.460  24.015   4.272
84678W        W53072  37.404   9.113  10.764
84679W        W53073  22.953   8.743  12.453
84680W        W53074  33.127   6.771  13.575
84681W        W53075  38.835   1.462  12.017
84682W        W53076  35.088  14.425   4.729
84683W        W53077  31.879  16.061  13.147
84684W        W53078  17.096  18.727  14.359
84685W        W53079  25.127  14.668  13.463
84686W        W53080  42.888   2.700   2.211
84687W        W53081   4.237  41.911  10.735
84688W        W53082   8.885  18.990  14.239
84689W        W53083  34.390   0.890  10.751
84690W        W53084  27.444  17.883   3.644
84691W        W53085  17.722  14.069   4.486
84692W        W53086  22.164  17.381  11.408
84693W        W53087   2.474  20.212   2.291
84694W        W53088   3.806  25.061  14.701
84695W        W53089  28.621   1.981   3.581
84696W        W53090  30.373  42.948   1.418
84697W        W53091   9.043  26.971  13.974
84698W        W53092  36.030  31.243   3.310
84699W        W53093  23.851  39.498  12.545
84700W        W53094  43.660  19.697   1.385
84701W        W53095  15.102   5.602  14.625
84702W        W53096  22.613  39.924  12.170
84703W        W53097   1.299  16.370   2.753
84704W        W53098  27.509  43.856  11.473
84705W        W53099  26.745  14.331   4.694
84706W        W53100  37.979   7.744  13.069
84707W        W53101   1.919  44.747  11.493
84708W        W53102  26.747  14.153  14.318
84709W        W53103  15.099  40.011  14.802
84710W        W53104   3.508  40.172   2.970
84711W        W53105  35.919  18.216  13.605
84712W        W53106  17.169   9.117   1.756
84713W        W53107   8.988  12.638   3.701
84714W        W53108   6.538  37.627   1.172
84715W        W53109   5.305  15.042   3.628
84716W        W53110  30.785  10.100   3.360
84717W        W53111  12.592  36.970  13.890
84718W        W53112  41.525  20.123  11.262
84719W        W53113  19.740  14.835  12.366
84720W        W53114  13.157  11.862  11.112
84721W        W53115  28.890  23.646   0.403
84722W        W53116  36.003  29.014  12.319
84723W        W53117   0.894   4.635   3.197
84724W        W53118  14.194  44.723   3.257
84725W        W53119   6.198  13.321  13.840
84726W        W53120  21.928  43.975  14.994
84727W        W53121   0.995  41.803  11.497
84728W        W53122   4.990  15.353   1.338
84729W        W53123  18.571  20.456  11.985
84730W        W53124  10.722  33.581   4.438
84731W        W53125  33.284  39.360  14.187
84732W        W53126   4.066  11.624  14.211
84733W        W53127  26.543  32.475  13.464
84734W        W53128   8.884  31.700  12.553
84735W        W53129  33.403   2.664  12.813
84736W        W53130  31.237  18.215  10.612
84737W        W53131  44.811   9.262  14.002
84738W        W53132  21.160   7.916  14.336
84739W        W53133   1.319   1.400   4.792
84740W        W53134  24.553  21.113   0.631
84741W        W53135  16.109  17.666   0.946
84742W        W53136  43.396  40.102  10.159
84743W        W53137  23.599  34.599   4.345
84744W        W53138  28.100  15.526   1.882
84745W        W53139  12.413  39.560   4.409
84746W        W53140  24.425  13.672  11.677
84747W        W53141  12.259  22.254  13.817
84748W        W53142  25.136  30.181  13.872
84749W        W53143   4.603   3.473   9.991
84750W        W53144  37.002  10.825  12.471
84751W        W53145   2.308  14.812   0.042
84752W        W53146  20.535  32.600   3.669
84753W        W53147   3.785  39.893   3.878
84754W        W53148  31.459  15.979   0.249
84755W        W53149   0.957  34.825  13.499
84756W        W53150  14.052   0.844   3.729
84757W        W53151   8.698  15.263   4.642
84758W        W53152  41.920  18.875   1.927
84759W        W53153  32.295  33.821  12.878
84760W        W53154   5.398   5.886  10.748
84761W        W53155   4.938   6.073   3.796
84762W        W53156  18.629  16.022   3.757
84763W        W53157  40.423  16.056  12.126
84764W        W53158  42.488   1.779   3.890
84765W        W53159  21.603  21.859   0.504
84766W        W53160  12.580   4.445  10.545
84767W        W53161  22.108   4.316  13.528
84768W        W53162  31.027  33.628   1.350
84769W        W53163  32.427  16.334   2.486
84770W        W53164  38.352  31.183  12.876
84771W        W53165  24.490  28.689  14.389
84772W        W53166  33.025  14.582   3.905
84773W        W53167  30.472   0.345   4.098
84774W        W53168   5.919  16.772  14.398
84775W        W53169  35.142  34.863  14.885
84776W        W53170  26.999  31.488   2.285
84777W        W53171  30.606   0.804   4.247
84778W        W53172   7.691  22.687  12.278
84779W        W53173  40.482  36.158  14.961
84780W        W53174   7.777  30.645  11.852
84781W        W53175  19.607  16.209   1.625
84782W        W53176  40.323  22.257  12.455
84783W        W53177  16.206   4.332  11.979
84784W        W53178  40.319   4.913  14.356
84785W        W53179   1.537  19.123  12.050
84786W        W53180   9.913  21.824   0.774
84787W        W53181  17.411  27.693   0.215
84788W        W53182  20.198  12.138   0.830
84789W        W53183  21.693  30.313   0.111
84790W        W53184  22.570  36.297   4.500
84791W        W53185   3.781  20.604  11.062
84792W        W53186  21.022   0.814   1.672
84793W        W53187  25.598  21.772  13.986
84794W        W53188   6.740  20.030  14.829
84795W        W53189  10.835   8.816   1.449
84796W        W53190   3.975  44.487  10.772
84797W        W53191  27.720   0.295  11.163
84798W        W53192   2.266  19.822   4.662
84799W        W53193   4.381  36.406  11.989
84800W        W53194  34.828  18.286   4.333
84801W        W53195  21.963  24.099  13.975
84802W        W53196  23.122  43.489   4.637
84803W        W53197  31.523   6.578   0.116
84804W        W53198   6.840  28.166  10.056
84805W        W53199  35.379  30.234  12.867
84806W        W53200  29.430  19.033  13.919
84807W        W53201  44.244  10.074  12.897
84808W        W53202  41.901   0.319   4.755
84809W        W53203  31.500  22.657   3.285
84810W        W53204   9.262   4.746   9.941
84811W        W53205  44.918   4.864   2.888
84812W        W53206  13.323  23.191  12.565
84813W        W53207  32.043  38.958   2.601
84814W        W53208  38.843  22.567   3.382
84815W        W53209  41.146  25.034  12.964
84816W        W53210  29.533  19.052   0.887
84817W        W53211  19.294  39.382   4.444
84818W        W53212  20.807   3.356   4.175
84819W        W53213  16.379  37.344   9.890
84820W        W53214  39.802  43.320  13.448
84821W        W53215   2.825  13.069   0.370
84822W        W53216  43.445   3.059  11.803
84823W        W53217  41.807   9.761   4.237
84824W        W53218  39.250  13.336   0.340
84825W        W53219   1.252  34.868  13.077
84826W        W53220  11.251  32.935  11.909
84827W        W53221  40.929  25.211  14.999
84828W        W53222  17.187  29.234   4.589
84829W        W53223  40.089  32.532  13.260
84830W        W53224   7.492  43.794  12.490
84831W        W53225   7.888  31.933  13.811
84832W        W53226  16.218  32.453   4.096
84833W        W53227  38.329  20.251   0.257
84834W        W53228  13.952   2.329  13.272
84835W        W53229   3.989   8.716  11.354
84836W        W53230  26.603  23.324  13.435
84837W        W53231  31.665  16.876  11.479
84838W        W53232  21.835  38.810   3.042
84839W        W53233  36.258  20.363   2.875
84840W        W53234  20.500  38.917   3.346
84841W        W53235  25.137  11.837  14.044
84842W        W53236  25.732  23.807  12.591
84843W        W53237  31.799   0.017  12.809
84844W        W53238  32.437  41.483   2.604
84845W        W53239  12.738  15.115  13.074
84846W        W53240  32.780  39.287  12.496
84847W        W53241  16.272  41.352  13.375
84848W        W53242  11.635   8.247   2.332
84849W        W53243  39.552  18.715   4.369
84850W        W53244  31.947  36.976  12.007
84851W        W53245  31.878  37.410  14.808
84852W        W53246  17.955   9.237   4.941
84853W        W53247   1.548  22.004  10.779
84854W        W53248  37.316  24.595   2.260
84855W        W53249  10.765   5.358  11.155
84856W        W53250   5.668  36.380   4.708
84857W        W53251  26.739  31.698   1.869
84858W        W53252  35.361  42.482  10.611
84859W        W53253   6.575  16.177  13.952
84860W        W53254  15.202   3.798   4.387
84861W        W53255  37.505  40.998  13.676
84862W        W53256  36.442  20.734   4.031
84863W        W53257   1.090   7.631   4.375
84864W        W53258  34.307  29.988   1.361
84865W        W53259  22.520   3.023  11.322
84866W        W53260  11.825  20.147   2.379
84867W        W53261   2.881  30.625   3.425
84868W        W53262  17.318   8.302   2.290
84869W        W53263  28.946  20.326   1.683
84870W        W53264  12.668  25.550   4.442
84871W        W53265  31.184  15.933  14.274
84872W        W53266   9.966   8.197   3.137
84873W        W53267  38.084  21.162   3.648
84874W        W53268  12.695  37.696   1.807
84875W        W53269  34.840  25.201  13.079
84876W        W53270  41.272  19.376  11.578
84877W        W53271   6.920  28.184   0.727
84878W        W53272  16.092  19.506   4.059
84879W        W53273  37.813  19.079   1.889
84880W        W53274  28.217  24.546  13.523
84881W        W53275  40.144  24.603  11.166
84882W        W53276  44.040  32.852   4.076
84883W        W53277  42.915  30.064   0.044
84884W        W53278  42.318  43.807  12.610
84885W        W53279  31.953  23.477  10.514
84886W        W53280  14.532  22.222  13.503
84887W        W53281  37.915  11.616   1.710
84888W        W53282  21.539  16.380  14.960
84889W        W53283   2.875   5.945  12.806
84890W        W53284  25.182   7.660  13.277
84891W        W53285  11.372  44.277   0.177
84892W        W53286  36.029  25.788   0.563
84893W        W53287  11.956  21.584  14.215
84894W        W53288  30.965  20.832  13.866
84895W        W53289  42.786   1.181   2.170
84896W        W53290  13.376  36.196  10.294
84897W        W53291  12.408  11.118  12.876
84898W        W53292  39.665  27.226  11.689
84899W        W53293   8.276  12.752  11.079
84900W        W53294  34.986  35.888  14.730
84901W        W53295  21.074  25.580  10.720
84902W        W53296  24.583  29.710  14.465
84903W        W53297  25.020   3.391  13.540
84904W        W53298  29.937  29.321   4.537
84905W        W53299  16.213   3.270  14.344
84906W        W53300  28.394   2.961   1.747
84907W        W53301  38.272  31.436   1.360
84908W        W53302  29.527  23.262   1.889
84909W        W53303  16.530  13.761   0.454
84910W        W53304  31.527  10.371  14.531
84911W        W53305  42.814   2.201   0.361
84912W        W53306  25.001   1.265  13.363
84913W        W53307  14.115  19.401  12.797
84914W        W53308   5.209   2.184  10.253
84915W        W53309  25.683  30.451  13.125
84916W        W53310  26.711  39.348  13.318
84917W        W53311   5.416   8.455   3.372
84918W        W53312  22.279  33.431  10.787
84919W        W53313  12.115   3.790   2.363
84920W        W53314  10.148  11.131   1.342
84921W        W53315  17.058  10.865  13.533
84922W        W53316   1.546  30.175   4.128
84923W        W53317  14.424  10.362   5.040
84924W        W53318   9.266  44.767  12.096
84925W        W53319  15.228  43.746  13.517
84926W        W53320  14.149  41.807   4.385
84927W        W53321  35.746  15.170   2.646
84928W        W53322  33.986  30.397   1.409
84929W        W53323  26.769  18.158  10.691
84930W        W53324  39.648  16.255  13.113
84931W        W53325  22.807  29.534   0.016
84932W        W53326  15.217   8.614   3.152
84933W        W53327   2.800  36.143   3.754
84934W        W53328  38.835   6.426  12.740
84935W        W53329  25.555   0.121   0.474
84936W        W53330  37.635  19.805  10.282
84937W        W53331  21.004  43.223   4.640
84938W        W53332   4.126  23.765   2.258
84939W        W53333   4.663   0.777   1.289
84940W        W53334  28.077   0.078  12.923
84941W        W53335  10.259  18.086  14.357
84942W        W53336  24.764  35.545   1.258
84943W        W53337  17.036  34.420   2.244
84944W        W53338  35.721   7.570  14.387
84945W        W53339  20.404  21.927  10.838
84946W        W53340  38.128  28.278  10.238
84947W        W53341   1.775  44.082   0.317
84948W        W53342   0.793   0.650   3.828
84949W        W53343  22.736  11.244   3.606
84950W        W53344   1.231   2.845  14.591
84951W        W53345  11.154  27.707  13.278
84952W        W53346  22.526  27.232  11.138
84953W        W53347  15.439  13.586  12.977
84954W        W53348   0.829  23.617  11.218
84955W        W53349  24.641  20.279   4.152
84956W        W53350  17.352  35.291   1.684
84957W        W53351  21.643   6.787   4.306
84958W        W53352  27.001  33.161  14.051
84959W        W53353  12.166  41.573   0.050
84960W        W53354  37.295  33.181  14.963
84961W        W53355   9.803  41.333   3.680
84962W        W53356  44.930  28.503   0.411
84963W        W53357  31.513  37.027  14.820
84964W        W53358  13.613   0.414  12.165
84965W        W53359  11.092   0.149  14.646
84966W        W53360  40.333  13.059  11.905
84967W        W53361   9.256  24.709   2.486
84968W        W53362  37.350  20.605   4.581
84969W        W53363  43.156  43.116  13.096
84970W        W53364  11.923   0.305   4.991
84971W        W53365  19.216  34.975  12.478
84972W        W53366  34.201   2.547  10.767
84973W        W53367  28.621  30.920   1.967
84974W        W53368  31.910   5.114  11.444
84975W        W53369   3.308   4.548   4.190
84976W        W53370  30.512  30.885   2.693
84977W        W53371  30.377  15.143   2.870
84978W        W53372   7.170  44.304  13.578
84979W        W53373   9.905  18.558  11.229
84980W        W53374   1.740  21.614   0.249
84981W        W53375  25.752  19.009  12.863
84982W        W53376  14.800  34.302   2.369
84983W        W53377   3.353   3.323   2.269
84984W        W53378  32.875  14.142   4.126
84985W        W53379  40.093  17.878  12.066
84986W        W53380   3.818  13.125  12.013
84987W        W53381  40.894  36.831  11.457
84988W        W53382  27.617  40.266  14.883
84989W        W53383   8.110  13.119   1.902
84990W        W53384  29.432  13.494  14.851
84991W        W53385  42.485  39.284   3.181
84992W        W53386  27.741  39.728  11.657
84993W        W53387  40.288  24.036  13.379
84994W        W53388   8.917  41.399   1.361
84995W        W53389  38.545  11.918  11.583
84996W        W53390   9.868   3.517  14.880
84997W        W53391  37.196  25.468   4.125
84998W        W53392   3.768  39.636   0.539
84999W        W53393  16.925   2.392  11.941
85000W        W53394  36.495  43.878   3.680
85001W        W53395  38.338  37.499  13.811
85002W        W53396  23.554   4.461   4.468
85003W        W53397  15.095  22.556   1.148
85004W        W53398  11.464  29.944   4.568
85005W        W53399  44.007  19.570   0.525
85006W        W53400  16.208  19.666  13.051
85007W        W53401   4.706  29.035   0.626
85008W        W53402   3.240  11.725   3.166
85009W        W53403  14.275  15.888  12.606
85010W        W53404  26.675  42.762   4.524
85011W        W53405   2.296   9.911   4.738
85012W        W53406  19.706  17.044  11.021
85013W        W53407  36.793  30.169  11.480
85014W        W53408  27.230  15.658   1.333
85015W        W53409  30.996   8.572  12.172
85016W        W53410  40.490   6.127   4.522
85017W        W53411   6.839  19.604  12.520
85018W        W53412  42.609   5.769  13.364
85019W        W53413  14.133  19.148   3.526
85020W        W53414  32.856  41.366   2.335
85021W        W53415  32.629   9.223   3.675
85022W        W53416   8.832  23.274   1.720
85023W        W53417  44.025  20.663  14.321
85024W        W53418  15.211  17.888  11.987
85025W        W53419  17.116   2.927   3.722
85026W        W53420  30.191  19.601  14.042
85027W        W53421   4.822   2.698   4.602
85028W        W53422  40.930   0.215   1.422
85029W        W53423   5.445  25.582   1.325
85030W        W53424  30.120  18.873   4.579
85031W        W53425  10.269  37.071  10.049
85032W        W53426  38.741   2.504  11.499
85033W        W53427  16.277  33.961  12.445
85034W        W53428  21.199  15.361   3.485
85035W        W53429   7.914  16.068   0.326
85036W        W53430  26.212   1.895  12.534
85037W        W53431   2.574  28.466   4.644
85038W        W53432  41.738  26.708  12.397
85039W        W53433  26.474  17.567  10.800
85040W        W53434  15.307  20.953   1.455
85041W        W53435  41.286  19.734  13.938
85042W        W53436  38.040  34.175   3.295
85043W        W53437   4.667  21.143  13.527
85044W        W53438  43.245   1.038   1.920
85045W        W53439   4.352  30.430  12.863
85046W        W53440  33.892  16.737  13.813
85047W        W53441   2.693  26.291  13.442
85048W        W53442  29.387  22.620  12.975
85049W        W53443  20.289  33.944  14.286
85050W        W53444  19.689  11.315  13.712
85051W        W53445  29.518  11.178  12.490
85052W        W53446  14.319   0.014   4.204
85053W        W53447  32.994  20.625  14.253
85054W        W53448  23.711  32.680   0.376
85055W        W53449  19.966   5.342   3.750
85056W        W53450  33.933  27.769   1.832
85057W        W53451  42.444  13.667  11.200
85058W        W53452   8.276  37.819   2.228
85059W        W53453  33.977  32.871  13.741
85060W        W53454  28.704  22.598   4.821
85061W        W53455  20.099  13.075  10.738
85062W        W53456  18.705  29.242   3.018
85063W        W53457  38.393  37.801   3.129
85064W        W53458  17.436   8.896   1.336
85065W        W53459   1.474  20.484  14.079
85066W        W53460   1.935  21.965   1.466
85067W        W53461  38.506   8.694   2.085
85068W        W53462  35.307  19.266   0.759
85069W        W53463  13.586  40.566   1.260
85070W        W53464  27.560   9.887   2.836
85071W        W53465  29.417   4.585  14.361
85072W        W53466  18.255  29.475   3.699
85073W        W53467  39.410  44.811  10.592
85074W        W53468  33.887  27.557  11.142
85075W        W53469   4.515   3.326  11.990
85076W        W53470   6.474  26.969  13.291
85077W        W53471  38.931   9.102  11.544
85078W        W53472  13.638  44.138  14.886
85079W        W53473  33.950  16.898   4.559
85080W        W53474  29.512  43.561  13.265
85081W        W53475  37.724  34.579   0.550
85082W        W53476  28.399  25.995  13.965
85083W        W53477  41.548  23.226   2.458
85084W        W53478   3.314  43.241   1.025
85085W        W53479  17.204  32.078   1.355
85086W        W53480   3.926   6.334   3.779
85087W        W53481  37.453  11.686  11.548
85088W        W53482  28.144  35.433  14.771
85089W        W53483  41.860   5.340  10.719
85090W        W53484  27.402  34.965   1.886
85091W        W53485  11.736  12.715   2.278
85092W        W53486  44.272  32.839  14.900
85093W        W53487   2.314  38.021  10.619
85094W        W53488  41.510  27.924  10.631
85095W        W53489   5.425  32.636  11.562
85096W        W53490   8.164  18.353  10.572
85097W        W53491  15.353  33.242  11.659
85098W        W53492  40.550   9.433   1.947
85099W        W53493  40.250   7.429  12.435
85100W        W53494  23.296  31.435  12.968
85101W        W53495  33.300   9.086  13.522
85102W        W53496  44.843  28.617   2.727
85103W        W53497  34.166   2.256  12.000
85104W        W53498   8.399  37.200  14.360
85105W        W53499   6.271  16.882   4.486
85106W        W53500   0.567  10.185   0.209
85107W        W53501  41.341  42.870   1.809
85108W        W53502   3.542  25.491  13.334
85109W        W53503  16.801  21.017  10.607
85110W        W53504  27.242  41.023   0.342
85111W        W53505  43.421  33.617   2.659
85112W        W53506  19.117  15.099   0.841
85113W        W53507  33.850  23.027   0.456
85114W        W53508  25.097  13.077  13.412
85115W        W53509  29.424  32.999  14.031
85116W        W53510  33.945  26.430   2.781
85117W        W53511   8.417   3.442  13.935
85118W        W53512  33.218   9.761  10.584
85119W        W53513  31.668   1.728  14.445
85120W        W53514  11.161   7.257  12.511
85121W        W53515  38.872  41.844   4.648
85122W        W53516  31.382  31.215  13.500
85123W        W53517  20.660  16.605  14.456
85124W        W53518  34.949  11.852  10.349
85125W        W53519  21.569  37.615  10.488
85126W        W53520  26.027  32.571   2.654
85127W        W53521  19.459  30.530   1.611
85128W        W53522  29.865  27.965  13.421
85129W        W53523   9.204   0.707   1.997
85130W        W53524   6.868  18.510   3.783
85131W        W53525  28.216  30.966  12.532
85132W        W53526   0.948  26.142   0.227
85133W        W53527  30.822  41.947   4.664
85134W        W53528  43.075  42.499   3.307
85135W        W53529   6.306  17.169   3.553
85136W        W53530  41.946  11.146   0.959
85137W        W53531  12.139  10.039   4.553
85138W        W53532  29.999   7.468   3.141
85139W        W53533  19.912  19.213   1.695
85140W        W53534  26.016  40.045   1.689
85141W        W53535   4.954  21.945  14.792
85142W        W53536   7.940  39.333   0.757
85143W        W53537  10.038   1.934  13.526
85144W        W53538  16.343  35.497   2.933
85145W        W53539  30.780  26.837   4.638
85146W        W53540  28.935  36.926  14.810
85147W        W53541   6.530  17.006  12.494
85148W        W53542  13.841  14.415  10.692
85149W        W53543  33.897  21.051  13.457
85150W        W53544   4.677  19.070  14.955
85151W        W53545  24.732  16.799  12.468
85152W        W53546   7.871   5.504   3.289
85153W        W53547  33.125  44.252  13.002
85154W        W53548   8.687  41.537   2.769
85155W        W53549  33.422  29.102   3.767
85156W        W53550  42.975  33.541  13.245
85157W        W53551  17.729   0.137   0.782
85158W        W53552  28.478   7.232  14.370
85159W        W53553  12.085   0.228   3.250
85160W        W53554  22.796  13.672  13.355
85161W        W53555  33.485  26.207   4.005
85162W        W53556  24.108  11.474  13.622
85163W        W53557  29.456   3.383   0.978
85164W        W53558  44.933  25.520  14.764
85165W        W53559  14.161  14.557  14.846
85166W        W53560  17.352  41.566   1.728
85167W        W53561  29.113   6.656   4.079
85168W        W53562  24.663   0.999  11.689
85169W        W53563  43.186   5.765   1.085
85170W        W53564  39.821  26.118   1.355
85171W        W53565  33.608  12.674   2.919
85172W        W53566  15.130  29.790   3.125
85173W        W53567   9.424  40.352  11.652
85174W        W53568  32.488  38.791   0.964
85175W        W53569   0.825   3.276  10.741
85176W        W53570  13.242  11.088  10.718
85177W        W53571  30.334  38.329  14.271
85178W        W53572  40.308  26.371   2.152
85179W        W53573  44.769  12.722   4.591
85180W        W53574  39.175  11.376  14.315
85181W        W53575  17.159   9.302  12.433
85182W        W53576  40.513   0.341   2.386
85183W        W53577   2.421  25.265   4.813
85184W        W53578  40.426  32.301   4.881
85185W        W53579  43.241  40.926  11.922
85186W        W53580  27.407  32.915  14.952
85187W        W53581  43.003  14.646   0.332
85188W        W53582   1.510   2.500  14.356
85189W        W53583  16.192  32.920   0.592
85190W        W53584  41.995   5.879  12.036
85191W        W53585  38.214  39.043   4.414
85192W        W53586   4.994  41.969   2.062
85193W        W53587  10.255  31.338  10.555
85194W        W53588  22.907  34.345   0.349
85195W        W53589   1.455  11.913  11.576
85196W        W53590   1.877   0.997  12.607
85197W        W53591  21.729  27.762  10.963
85198W        W53592  29.903  17.134  14.986
85199W        W53593   0.537  11.139  13.424
85200W        W53594  14.174  17.303   4.625
85201W        W53595   5.397  38.374   4.199
85202W        W53596  32.901  17.244  11.591
85203W        W53597  43.782   5.908   4.734
85204W        W53598  20.267  41.353   1.886
85205W        W53599   9.182   5.193  10.556
85206W        W53600  41.454  16.266  10.647
85207W        W53601  31.568  21.097  13.027
85208W        W53602  16.919  11.344   1.520
85209W        W53603  32.014  42.526   0.399
85210W        W53604  17.608   8.982   0.500
85211W        W53605   4.863  17.041  12.599
85212W        W53606  41.755  30.749   1.514
85213W        W53607  12.611  36.783   3.691
85214W        W53608  18.221  24.066   3.203
85215W        W53609   1.288  37.561  13.933
85216W        W53610  17.339  29.659  14.281
85217W        W53611  28.905  22.299  11.543
85218W        W53612  40.294  10.710  13.142
85219W        W53613  22.083  21.968   1.437
85220W        W53614  26.654  29.799   1.916
85221W        W53615  24.087  14.411  12.973
85222W        W53616   8.634   9.653  13.979
85223W        W53617   1.728  44.677   2.288
85224W        W53618  42.974  22.533   3.914
85225W        W53619  25.076  36.832  13.043
85226W        W53620  40.857  32.661  14.521
85227W        W53621  39.587  39.768   2.596
85228W        W53622  12.017   8.355   4.635
85229W        W53623  13.709  33.640   4.121
85230W        W53624  36.432  32.826   0.960
85231W        W53625  20.926  18.631  12.439
85232W        W53626  24.507  32.061   4.264
85233W        W53627  22.860   2.789  11.655
85234W        W53628  33.481  44.995  10.760
85235W        W53629  28.985  41.263   0.431
85236W        W53630   6.908  39.421   2.753
85237W        W53631   9.127  11.900   1.705
85238W        W53632  11.339  23.204  14.351
85239W        W53633  24.069  10.270   0.926
85240W        W53634  36.148  29.953  12.034
85241W        W53635  29.899  42.884   1.277
85242W        W53636   3.148  12.073  11.689
85243W        W53637  39.231  10.214  10.510
85244W        W53638   5.929  19.839  12.491
85245W        W53639  10.421  15.109  14.384
85246W        W53640  20.982  14.679  13.899
85247W        W53641  44.070  24.642   4.696
85248W        W53642  36.409  12.235  10.901
85249W        W53643  33.849  21.475  11.690
85250W        W53644  33.447  12.270   5.249
85251W        W53645   9.380  19.163  14.298
85252W        W53646   2.635  14.169   3.965
85253W        W53647  35.202  35.385   3.513
85254W        W53648   2.243  33.011  14.979
85255W        W53649  24.911   9.700   2.659
85256W        W53650  39.756   0.830  12.194
85257W        W53651   4.326  12.228  10.335
85258W        W53652  28.192  28.109  12.245
85259W        W53653  40.881  35.479  13.756
85260W        W53654  27.189  22.197   4.314
85261W        W53655  36.060   2.870  12.099
85262W        W53656  24.945  32.645   1.864
85263W        W53657  22.203   0.764  13.785
85264W        W53658   1.497   1.495   3.308
85265W        W53659  28.174  32.423  10.470
85266W        W53660   9.881  27.011   4.750
85267W        W53661   5.362  32.974   4.913
85268W        W53662  41.928  27.086  14.900
85269W        W53663  42.864   6.300  11.748
85270W        W53664  28.806  24.196   2.607
85271W        W53665  37.498   0.408   1.774
85272W        W53666  15.906  34.355   3.828
85273W        W53667  25.510  17.574  11.533
85274W        W53668   2.402  32.064   4.376
85275W        W53669  22.563  34.401  12.025
85276W        W53670  25.525  40.219   0.287
85277W        W53671  29.382  21.644   3.561
85278W        W53672  41.900   3.763   3.256
85279W        W53673   4.655  43.468  14.526
85280W        W53674  27.809  12.781   0.215
85281W        W53675  17.216  13.389  13.170
85282W        W53676  38.480  18.443  14.802
85283W        W53677  27.129   9.764   9.770
85284W        W53678  34.966  32.544   0.249
85285W        W53679  18.451  41.827   2.636
85286W        W53680  22.955   6.064  11.198
85287W        W53681  14.224  37.598   0.856
85288W        W53682  26.090  32.175  13.357
85289W        W53683  19.971  14.004   3.124
85290W        W53684   6.402  28.717  12.918
85291W        W53685  31.930  24.119   3.223
85292W        W53686   6.177  30.450   0.677
85293W        W53687  15.388  22.565   3.075
85294W        W53688  18.988  28.644  12.051
85295W        W53689   5.240   8.821   0.195
85296W        W53690  18.098  32.417   2.868
85297W        W53691  34.292   9.354  13.319
85298W        W53692  14.629   2.437  13.868
85299W        W53693  43.103  15.678   4.106
85300W        W53694  16.608   1.600   0.293
85301W        W53695   6.453  38.876  11.151
85302W        W53696  30.402  30.561  14.890
85303W        W53697  34.007  25.941   2.182
85304W        W53698   3.407   7.392   9.609
85305W        W53699  14.848  15.822  10.728
85306W        W53700  22.811   3.791   4.788
85307W        W53701  21.777   8.725  11.853
85308W        W53702  37.648   6.989   4.221
85309W        W53703  12.238   4.118  11.528
85310W        W53704  29.385  17.853  13.516
85311W        W53705  40.126   8.828   0.766
85312W        W53706  10.033  27.672   0.405
85313W        W53707  21.111  16.607  14.712
85314W        W53708   1.695  19.726   2.291
85315W        W53709  16.077  15.195   2.644
85316W        W53710  37.733  28.977  12.095
85317W        W53711  14.250   7.028   1.880
85318W        W53712   0.963  20.238  13.434
85319W        W53713   4.845  11.689  13.960
85320W        W53714  20.849   6.265  13.865
85321W        W53715  13.580  36.807  14.496
85322W        W53716  19.457  26.041   5.330
85323W        W53717   5.079  35.948   2.284
85324W        W53718  43.787  41.027   0.138
85325W        W53719  10.337  10.852  13.880
85326W        W53720  26.338  30.707   3.256
85327W        W53721  29.123  20.475  11.630
85328W        W53722  26.320   0.428  10.340
85329W        W53723   0.412   1.474   0.734
85330W        W53724  20.550  32.517  10.715
85331W        W53725   5.821  25.491   3.514
85332W        W53726  38.540   4.098   2.017
85333W        W53727  33.855  26.101   1.331
85334W        W53728  40.051  17.778  14.217
85335W        W53729  37.903  28.709   2.589
85336W        W53730  19.867  19.232   4.682
85337W        W53731  33.571   2.267   1.812
85338W        W53732  18.797  41.193  14.507
85339W        W53733  22.542   5.862  14.724
85340W        W53734  43.973  34.155   2.919
85341W        W53735  24.556   0.008  11.568
85342W        W53736  22.993   2.946  14.967
85343W        W53737   7.349  36.427   2.174
85344W        W53738  40.348  14.791   0.462
85345W        W53739  37.315  16.194   1.712
85346W        W53740   9.070  41.479  10.217
85347W        W53741  12.248  20.807   4.267
85348W        W53742  29.547  12.072  12.873
85349W        W53743  37.012   9.489  13.952
85350W        W53744  34.783  23.502   5.116
85351W        W53745   7.892  16.829   1.635
85352W        W53746  22.516   0.501  11.612
85353W        W53747  13.619   5.776   2.153
85354W        W53748  29.671  41.961   1.202
85355W        W53749  19.815   8.226  10.969
85356W        W53750  36.137  21.231  13.080
85357W        W53751   2.217  30.357   2.881
85358W        W53752  11.151  40.756  13.899
85359W        W53753  16.804  30.895   2.712
85360W        W53754   1.661  35.394   2.320
85361W        W53755  12.797  23.445  13.475
85362W        W53756  30.547  43.980  10.736
85363W        W53757  40.063  17.547  12.932
85364W        W53758  28.542  19.364  11.126
85365W        W53759   7.211  38.461   1.873
85366W        W53760   2.304   2.023   0.481
85367W        W53761  16.562   2.486   4.128
85368W        W53762  21.234  20.326   4.568
85369W        W53763  16.160  31.607  14.341
85370W        W53764   0.880   7.040   0.317
85371W        W53765  28.522   0.532   4.983
85372W        W53766  23.776  32.986   0.948
85373W        W53767  33.368  39.991  11.544
85374W        W53768  42.567  23.978  14.976
85375W        W53769  38.811  39.958   4.206
85376W        W53770  29.487  17.140   2.705
85377W        W53771  34.896  25.201   3.777
85378W        W53772  26.988   7.380   3.496
85379W        W53773  31.069  42.625   4.982
85380W        W53774   9.618  20.059   0.606
85381W        W53775  15.873  13.073   0.751
85382W        W53776  24.733  23.181   3.881
85383W        W53777  32.027  42.738  10.582
85384W        W53778  26.196  37.027  14.445
85385W        W53779  37.979  29.416  12.064
85386W        W53780   3.210  31.639  12.430
85387W        W53781  36.360  27.701   4.997
85388W        W53782  26.967   7.223   4.030
85389W        W53783   2.460  30.073  12.011
85390W        W53784  25.575  18.084  14.901
85391W        W53785  11.090  21.987  13.000
85392W        W53786  43.400  36.637   1.490
85393W        W53787  26.403  11.156  12.514
85394W        W53788  18.130  19.297   0.173
85395W        W53789  17.529  16.546   2.211
85396W        W53790  33.560   9.089   0.332
85397W        W53791  14.601  26.140  13.826
85398W        W53792  12.708  43.808   4.888
85399W        W53793  28.953  41.810  12.786
85400W        W53794   0.997  42.865  14.916
85401W        W53795  40.849  23.932  11.661
85402W        W53796  40.556   7.758  14.783
85403W        W53797  21.720   8.365  13.639
85404W        W53798  33.913  25.651  13.551
85405W        W53799   6.906  31.746  14.503
85406W        W53800   8.828  29.460   2.383
85407W        W53801   4.245   2.414   2.083
85408W        W53802  12.791  34.361  12.104
85409W        W53803  33.014  14.366  12.927
85410W        W53804  18.602   9.188  14.326
85411W        W53805   4.754  24.153   1.175
85412W        W53806  36.880  42.766  10.654
85413W        W53807  29.218  38.348  10.746
85414W        W53808  19.142   5.292  13.551
85415W        W53809   0.428  40.824   0.230
85416W        W53810  35.145   3.290   3.494
85417W        W53811   1.840  19.200   4.645
85418W        W53812  41.415  42.963  11.893
85419W        W53813   3.323  23.753  14.522
85420W        W53814  24.671  30.654  12.278
85421W        W53815  30.538  14.869   4.997
85422W        W53816  21.064  42.318   3.318
85423W        W53817  23.755  20.921  12.000
85424W        W53818   1.727   0.872   4.165
85425W        W53819  29.591  27.527  13.114
85426W        W53820   1.081  25.693   0.025
85427W        W53821  20.154  29.051   1.050
85428W        W53822  41.916  15.188   2.712
85429W        W53823   6.750  14.125   1.454
85430W        W53824  23.639  12.614  13.932
85431W        W53825  14.141  34.322  13.600
85432W        W53826  28.975  24.245   3.103
85433W        W53827  11.533  32.184   0.014
85434W        W53828  40.354  34.981  12.124
85435W        W53829  17.170  43.951   1.174
85436W        W53830  41.786  26.750   1.309
85437W        W53831  34.984  36.542  11.483
85438W        W53832  39.029  42.393  10.576
85439W        W53833  28.646  12.069   3.627
85440W        W53834  11.001  34.530   0.410
85441W        W53835  44.773  25.771   3.750
85442W        W53836  38.447  36.955  13.778
85443W        W53837   0.382   0.364  14.889
85444W        W53838   5.789   6.430   3.752
85445W        W53839  19.326  32.491  13.961
85446W        W53840  36.573  32.021  13.120
85447W        W53841  10.613  34.144  12.286
85448W        W53842   4.223  38.008   3.824
85449W        W53843  18.453  31.170  13.987
85450W        W53844  42.716   1.507  13.946
85451W        W53845  44.469  25.471   2.673
85452W        W53846  31.057  15.310   2.181
85453W        W53847  15.141  33.554   2.680
85454W        W53848  22.506   5.041   2.697
85455W        W53849  44.788  25.516  12.058
85456W        W53850  14.332  28.101   2.737
85457W        W53851  33.170  34.338   3.637
85458W        W53852   6.695  29.974   2.394
85459W        W53853   6.288  34.372  10.672
85460W        W53854  11.098  17.226  10.627
85461W        W53855  23.437  27.302  12.025
85462W        W53856   5.869  40.869  13.496
85463W        W53857  26.655  25.462  12.005
85464W        W53858   7.581  25.771  12.422
85465W        W53859  41.972  33.580  14.451
85466W        W53860  32.988   3.648   0.262
85467W        W53861  11.064  34.315  10.899
85468W        W53862  37.072  23.717  11.524
85469W        W53863  24.285  11.475  14.999
85470W        W53864  38.369   0.228  11.603
85471W        W53865  41.807  18.709  12.984
85472W        W53866  40.290  39.460   9.717
85473W        W53867  19.412  16.604   1.903
85474W        W53868  44.952  43.879  14.402
85475W        W53869  35.468   2.459   3.351
85476W        W53870  27.870  32.075  14.355
85477W        W53871  31.373  19.350  11.623
85478W        W53872  28.573  11.635  12.946
85479W        W53873   7.388  32.984  13.352
85480W        W53874  30.365  42.498   1.170
85481W        W53875   5.955   5.373  14.020
85482W        W53876  43.686  34.129   1.188
85483W        W53877  18.622  28.474   1.850
85484W        W53878  31.303  17.409  11.373
85485W        W53879  14.021   9.741  13.396
85486W        W53880  35.876  37.841  12.942
85487W        W53881  28.614   9.085  12.417
85488W        W53882  16.291   6.735  13.845
85489W        W53883  29.655  14.537  14.226
85490W        W53884   4.653  41.555  13.980
85491W        W53885  27.111   9.790   0.514
85492W        W53886  15.528   2.571   4.173
85493W        W53887  10.494  22.614   0.826
85494W        W53888  43.749  35.913   1.463
85495W        W53889  18.488  33.084  13.047
85496W        W53890  23.568  13.178  12.093
85497W        W53891  36.411  40.366  12.611
85498W        W53892  43.076  12.874  11.437
85499W        W53893  16.964  20.236  13.905
85500W        W53894   8.178  22.190   3.940
85501W        W53895  33.672  38.573   3.079
85502W        W53896  41.343  23.476  14.167
85503W        W53897  37.267   1.381  13.291
85504W        W53898  11.887  13.084  13.335
85505W        W53899  26.277  23.731  14.370
85506W        W53900  37.281  37.694  11.486
85507W        W53901  33.005  14.747   2.353
85508W        W53902  19.274  34.529  12.996
85509W        W53903  38.588  39.237  13.968
85510W        W53904  16.029   6.932  12.837
85511W        W53905   9.826  13.294  11.404
85512W        W53906   5.559  19.977  14.440
85513W        W53907  19.620  42.821  14.616
85514W        W53908  44.358   5.098  13.520
85515W        W53909  10.444  18.671   1.362
85516W        W53910  19.042  38.672   0.678
85517W        W53911  11.915  15.861   0.732
85518W        W53912   1.006  42.935   4.643
85519W        W53913  16.895  36.382   3.449
85520W        W53914   2.523  28.106   0.776
85521W        W53915  15.394  37.485   4.589
85522W        W53916   5.874  15.780   2.256
85523W        W53917  26.963  17.682  10.609
85524W        W53918   8.671  31.987   5.049
85525W        W53919  27.549  21.896  10.982
85526W        W53920  12.078  38.943  11.548
85527W        W53921  12.790   0.150   3.979
85528W        W53922  27.044  32.430  11.967
85529W        W53923  16.499   4.755  12.063
85530W        W53924  38.227  20.731   4.948
85531W        W53925  28.161   8.928   0.261
85532W        W53926  15.788  30.420   2.190
85533W        W53927  40.499  12.565  14.352
85534W        W53928  12.625  12.253  11.584
85535W        W53929  17.567  23.504  14.813
85536W        W53930  23.264  21.944   1.320
85537W        W53931  36.597  40.971   3.194
85538W        W53932  31.691  35.427   0.746
85539W        W53933   2.105  36.095   1.189
85540W        W53934  22.293   0.638   0.089
85541W        W53935   4.327  38.323   4.266
85542W        W53936  33.372   8.315  14.936
85543W        W53937  27.127  17.525  12.961
85544W        W53938  14.399  34.318   0.304
85545W        W53939  26.897  24.017   1.813
85546W        W53940  33.561  19.201  10.835
85547W        W53941  39.084  17.562  11.081
85548W        W53942   1.986  24.590  14.000
85549W        W53943   7.162   0.712   2.645
85550W        W53944  40.949  22.112   0.631
85551W        W53945  31.391  28.584   0.916
85552W        W53946  19.492  32.581   0.390
85553W        W53947  10.847  44.465  13.530
85554W        W53948  43.616  39.537  10.867
85555W        W53949  29.881  33.281  12.883
85556W        W53950   6.108  30.988   3.828
85557W        W53951   0.401  31.613  11.682
85558W        W53952  44.445  44.205  10.545
85559W        W53953  13.408  29.372  13.085
85560W        W53954   9.709  13.139   2.915
85561W        W53955  27.168  15.963   2.464
85562W        W53956  21.271  24.685  13.326
85563W        W53957  33.713  19.931  13.994
85564W        W53958   5.230  40.216   2.007
85565W        W53959   4.179  35.990   4.802
85566W        W53960  11.778  37.506  13.379
85567W        W53961   8.063  28.044   3.320
85568W        W53962  23.219  43.757  12.149
85569W        W53963  39.524  16.553   2.321
85570W        W53964  27.427  32.511   0.969
85571W        W53965  34.800  18.124  11.634
85572W        W53966  21.708  32.670   3.147
85573W        W53967  39.036  17.832  12.518
85574W        W53968  27.609   8.599  13.369
85575W        W53969  27.183   3.761   4.081
85576W        W53970  14.385   6.946  13.929
85577W        W53971   3.411  12.439  13.002
85578W        W53972  35.369   9.179  14.255
85579W        W53973  39.000  28.271  11.271
85580W        W53974  20.280  41.315   0.962
85581W        W53975   5.302  21.077  10.771
85582W        W53976  38.164   2.742   0.374
85583W        W53977  30.602  42.499  12.130
85584W        W53978   7.565   7.154  10.631
85585W        W53979  19.455  29.561   4.066
85586W        W53980  41.280  26.875   1.329
85587W        W53981  31.907  23.751   1.852
85588W        W53982  22.612  13.696  12.847
85589W        W53983  29.300  29.682   3.777
85590W        W53984  22.321   5.355  11.688
85591W        W53985   3.243  10.460  14.826
85592W        W53986  15.622   5.687  12.069
85593W        W53987  25.113  40.427   1.041
85594W        W53988  25.980  23.134   1.298
85595W        W53989  36.223  28.116   4.603
85596W        W53990  14.846  31.259  13.419
85597W        W53991  24.434  31.038  12.534
85598W        W53992  28.378  27.500  14.486
85599W        W53993   7.850   1.002   4.246
85600W        W53994   7.526  31.889   4.927
85601W        W53995  30.301  18.597  12.853
85602W        W53996  32.491  10.431   0.327
85603W        W53997  38.058  43.194   4.155
85604W        W53998   5.640  30.118   0.148
85605W        W53999   5.261  16.761  11.910
85606W        W54000  25.135  11.575  13.036
85607W        W54001  15.196  41.172  14.082
85608W        W54002  15.987   5.681   5.289
85609W        W54003  15.826  25.537  14.802
85610W        W54004  27.710   9.201   3.906
85611W        W54005  10.103  28.137  14.811
85612W        W54006  42.490  27.853  10.773
85613W        W54007  32.435   5.720   3.692
85614W        W54008  23.830   6.820   3.601
85615W        W54009   8.198  18.029   2.834
85616W        W54010  43.344  28.884   2.659
85617W        W54011  36.115  20.744  13.859
85618W        W54012  29.993  22.193   4.491
85619W        W54013  17.821   0.896  11.161
85620W        W54014  43.828  43.812  10.892
85621W        W54015  20.898   1.206  11.622
85622W        W54016   2.010  32.254  11.454
85623W        W54017  13.290   7.227  13.326
85624W        W54018  38.406  21.240   1.675
85625W        W54019  27.457  34.166   4.622
85626W        W54020  33.316  20.139  14.607
85627W        W54021  15.165   3.633  12.427
85628W        W54022  20.006  32.069  14.371
85629W        W54023  33.086  31.088  12.941
85630W        W54024   5.385  40.807  10.572
85631W        W54025  39.457   9.648  14.954
85632W        W54026  20.689   1.257   3.686
85633W        W54027  27.889  37.154   3.240
85634W        W54028   1.535  23.029  14.763
85635W        W54029  41.016  37.933   0.729
85636W        W54030  37.874  36.560  12.423
85637W        W54031  35.144  21.794  14.322
85638W        W54032  15.357   0.830  12.583
85639W        W54033  37.467  24.139   4.929
85640W        W54034  16.091  18.691  14.255
85641W        W54035  25.900  18.636   0.510
85642W        W54036  11.038  37.047   4.574
85643W        W54037  31.157   5.253  12.436
85644W        W54038  37.426  32.847   4.231
85645W        W54039  37.541  21.337  12.866
85646W        W54040  19.714  40.308   0.416
85647W        W54041  38.626  20.085  14.701
85648W        W54042  32.518  29.800  13.059
85649W        W54043  43.371  15.318   4.901
85650W        W54044  13.656   9.768   3.374
85651W        W54045   5.144  28.378  11.825
85652W        W54046  44.892  19.619   3.677
85653W        W54047  24.276   8.285  11.540
85654W        W54048  11.563  10.576   9.907
85655W        W54049   3.263  30.695   0.670
85656W        W54050  12.424   1.933  13.798
85657W        W54051  11.181  29.965   2.375
85658W        W54052  30.013  33.928  14.845
85659W        W54053  29.752  28.972   0.383
85660W        W54054  29.443  35.593  12.909
85661W        W54055   1.494  12.247  10.852
85662W        W54056   6.434  35.939   0.896
85663W        W54057  31.520  30.987   4.236
85664W        W54058  37.131  43.848  13.039
85665W        W54059   5.243  22.722  12.112
85666W        W54060  41.677  37.973  11.328
85667W        W54061  14.694   3.301   0.209
85668W        W54062  27.963   5.798   4.321
85669W        W54063  20.041  36.144   2.274
85670W        W54064   0.123   9.156  11.212
85671W        W54065  33.205  33.395   2.821
85672W        W54066  13.273  20.994   0.809
85673W        W54067   0.829  36.492   3.722
85674W        W54068   5.938  28.434  10.482
85675W        W54069   4.881  25.563   4.563
85676W        W54070   8.683   1.461   3.526
85677W        W54071  28.420  31.384   2.138
85678W        W54072  10.547  41.753  11.013
85679W        W54073  34.340  13.270   4.517
85680W        W54074   4.244   0.357   4.641
85681W        W54075  35.943  38.715   2.330
85682W        W54076  28.993   7.124  11.757
85683W        W54077  11.642  15.328  12.041
85684W        W54078  44.262  31.557   4.296
85685W        W54079  12.091  43.799   0.726
85686W        W54080  43.003  21.152  12.010
85687W        W54081  34.756  41.558  13.845
85688W        W54082   7.696  41.851  11.059
85689W        W54083  13.728   1.894  12.167
85690W        W54084  38.826  38.507   3.288
85691W        W54085  21.201  36.182   4.548
85692W        W54086   1.837  39.320  12.828
85693W        W54087  23.708  24.192  14.480
85694W        W54088  28.936  32.591  12.123
85695W        W54089  17.310  26.812  11.046
85696W        W54090  26.868  38.827   3.242
85697W        W54091  38.492  25.670   4.747
85698W        W54092  35.965  41.790  10.762
85699W        W54093  12.714  41.095  14.065
85700W        W54094  27.595   3.117   1.746
85701W        W54095  20.071  43.588   4.668
85702W        W54096  21.824   8.885  10.198
85703W        W54097   5.088   3.037   4.989
85704W        W54098  21.106  40.111  14.972
85705W        W54099  42.733  31.124   3.439
85706W        W54100  28.606  14.354   2.829
85707W        W54101  28.917  17.164   4.620
85708W        W54102  42.873  23.432   0.689
85709W        W54103   4.091  39.744  14.695
85710W        W54104  18.485  35.006   1.268
85711W        W54105   0.237  10.234  12.876
85712W        W54106   0.170   0.227  12.591
85713W        W54107  38.160  41.900   2.767
85714W        W54108  14.370  10.933  14.294
85715W        W54109  38.612  23.164   0.918
85716W        W54110  40.079  25.602   1.544
85717W        W54111  10.392  36.831  12.508
85718W        W54112   1.045  26.784   3.256
85719W        W54113  43.986  27.822  12.826
85720W        W54114  11.171  24.251  11.496
85721W        W54115  19.789  33.766   3.865
85722W        W54116  43.267  22.117   4.108
85723W        W54117  21.335  30.328   1.134
85724W        W54118   8.235  30.704   1.682
85725W        W54119  33.622   7.260   4.068
85726W        W54120  13.560  18.167   1.478
85727W        W54121   0.795   9.411   1.363
85728W        W54122  32.543  18.361   3.783
85729W        W54123  44.273   3.160   4.661
85730W        W54124  20.681  33.576   0.851
85731W        W54125  24.857  42.715   5.057
85732W        W54126  41.951  42.838  11.184
85733W        W54127  35.540  33.883  13.679
85734W        W54128  41.411  29.936  13.477
85735W        W54129  25.622  26.120  14.244
85736W        W54130   5.688  32.575   4.825
85737W        W54131  34.433   2.363  14.272
85738W        W54132  11.237   4.722   2.366
85739W        W54133   7.170  27.449   0.831
85740W        W54134  34.189  41.326  11.261
85741W        W54135   8.253  13.175  14.497
85742W        W54136   5.978   0.480   0.606
85743W        W54137  33.982  39.157  11.633
85744W        W54138  29.843  27.495  14.545
85745W        W54139  24.582  41.070   2.428
85746W        W54140   4.512  21.077  12.421
85747W        W54141  34.040   2.036   4.863
85748W        W54142   3.748  14.622   0.908
85749W        W54143  35.481  39.148   1.682
85750W        W54144   1.930  33.538   1.073
85751W        W54145  33.588  35.968  13.763
85752W        W54146  11.707  19.988   3.264
85753W        W54147   9.891   7.928  10.379
85754W        W54148  40.977  43.571   4.228
85755W        W54149  42.415  10.938   4.598
85756W        W54150   8.650   4.509  10.544
85757W        W54151  26.846  19.038   1.602
85758W        W54152  24.282  35.118   0.961
85759W        W54153  12.303  35.428   1.860
85760W        W54154  24.765  39.933  14.503
85761W        W54155  36.979  40.090  10.947
85762W        W54156  27.420   4.159  12.648
85763W        W54157  26.230   5.244   1.774
85764W        W54158   8.586   7.534  10.790
85765W        W54159  37.314  32.351   0.946
85766W        W54160  35.611   1.436  12.427
85767W        W54161  25.821   2.406  11.650
85768W        W54162  37.180  44.463   2.889
85769W        W54163  30.309  15.328  11.130
85770W        W54164  44.958  37.629   3.692
85771W        W54165  28.201   4.773   4.274
85772W        W54166  13.530   9.165  12.136
85773W        W54167  15.553   3.526  10.141
85774W        W54168   2.897   7.770   0.405
85775W        W54169  16.813  26.562   0.941
85776W        W54170  18.598   8.355   0.350
85777W        W54171  34.075  10.618   3.820
85778W        W54172   1.721  22.449   1.393
85779W        W54173  30.231   2.701  10.582
85780W        W54174   5.243   8.408   0.537
85781W        W54175  40.427  19.673   4.153
85782W        W54176  13.331  44.118  12.370
85783W        W54177  21.184  34.095   1.059
85784W        W54178  35.367  23.751  11.689
85785W        W54179   2.689   6.848  11.869
85786W        W54180  23.746  23.042   1.916
85787W        W54181  33.442   9.893  13.947
85788W        W54182  42.522   2.875   4.753
85789W        W54183  25.879  26.058   4.694
85790W        W54184  18.639  15.131   4.036
85791W        W54185  13.762  14.671   2.041
85792W        W54186   8.443  33.330  13.340
85793W        W54187  19.106  39.259   3.070
85794W        W54188  43.829  30.759  12.589
85795W        W54189  15.636  39.251  13.235
85796W        W54190   2.663  15.347   2.735
85797W        W54191  14.163   1.162   4.114
85798W        W54192  35.388  28.943  13.974
85799W        W54193  14.091  33.827  13.497
85800W        W54194  44.907  16.876  13.340
85801W        W54195  15.337  11.687   0.860
85802W        W54196  35.854  26.422   2.067
85803W        W54197  13.171  29.995   4.891
85804W        W54198  38.473  21.036  13.329
85805W        W54199   2.572  31.399  11.602
85806W        W54200   3.132   2.867   2.115
85807W        W54201  40.963  25.720   2.821
85808W        W54202  28.383  12.635   0.689
85809W        W54203  20.660   6.801   4.908
85810W        W54204  20.666  22.048   3.416
85811W        W54205   2.526   9.713  14.762
85812W        W54206  29.955  14.847  12.452
85813W        W54207  30.697  44.814  14.493
85814W        W54208  19.454  24.551  11.856
85815W        W54209  23.417  15.515   4.513
85816W        W54210  36.626   2.479  13.226
85817W        W54211  26.786  34.342  11.017
85818W        W54212   6.806  32.229  12.039
85819W        W54213  43.784  28.927   1.076
85820W        W54214  24.274  21.265   2.603
85821W        W54215  15.341  40.116  13.871
85822W        W54216  15.498  25.932   2.303
85823W        W54217  12.156  14.381  11.197
85824W        W54218  13.722  24.997   4.990
85825W        W54219  11.939  40.341   0.357
85826W        W54220  27.859  23.134  12.142
85827W        W54221   0.227  38.082  12.607
85828W        W54222   6.578  37.586   9.953
85829W        W54223  31.051  38.655   5.116
85830W        W54224  13.114  30.428   3.791
85831W        W54225   2.363  16.964   0.902
85832W        W54226  34.604  37.853   4.287
85833W        W54227  30.652   0.832   0.494
85834W        W54228  25.066  22.029  11.185
85835W        W54229  32.864  17.726   0.938
85836W        W54230  24.541  39.411  11.011
85837W        W54231  44.957  18.793  13.846
85838W        W54232   3.524  41.100   4.061
85839W        W54233  39.206   5.770  11.563
85840W        W54234  44.707   1.514   1.934
85841W        W54235  23.777  34.613   3.167
85842W        W54236  18.792   8.243   3.817
85843W        W54237  44.298   5.553  13.937
85844W        W54238  14.314   5.176   1.472
85845W        W54239   8.903  18.197   1.842
85846W        W54240  38.574  30.627   3.557
85847W        W54241  34.446   3.125   3.254
85848W        W54242  24.211  42.459  11.040
85849W        W54243  18.228  41.441   4.913
85850W        W54244  35.035  10.845  13.224
85851W        W54245  11.860  27.684   1.897
85852W        W54246  28.016  23.176  14.093
85853W        W54247  33.475   8.881   2.707
85854W        W54248  26.173  19.908   0.250
85855W        W54249  18.104  20.328   1.929
85856W        W54250  29.716  29.987  12.492
85857W        W54251  30.783   9.520  13.819
85858W        W54252   6.126   9.382  13.642
85859W        W54253  41.403  39.939  10.680
85860W        W54254   2.784  19.315   3.204
85861W        W54255  11.727  32.459   0.457
85862W        W54256  25.501  44.422  12.002
85863W        W54257  21.806  23.639   0.980
85864W        W54258   6.172  22.996  14.075
85865W        W54259  20.335  18.629  10.666
85866W        W54260  15.244  38.791  14.378
85867W        W54261  18.333   0.251  14.252
85868W        W54262  39.382  30.512  11.693
85869W        W54263  35.327  12.990   2.018
85870W        W54264  26.455  12.438  11.472
85871W        W54265   8.915  24.292   1.904
85872W        W54266   3.184   1.825  14.556
85873W        W54267   3.369  21.973   2.116
85874W        W54268  35.983   6.168  12.085
85875W        W54269   0.440  12.294  11.037
85876W        W54270  15.855   2.865  11.336
85877W        W54271  14.166   9.176  13.303
85878W        W54272   0.511  30.048  10.608
85879W        W54273  24.859  16.761  10.792
85880W        W54274  18.239  38.903   3.399
85881W        W54275  13.288  44.882   2.413
85882W        W54276   4.302   3.778  10.341
85883W        W54277   5.572  32.839   2.292
85884W        W54278  44.566  40.733   1.289
85885W        W54279  34.959  40.040   3.712
85886W        W54280  10.297  13.488  14.307
85887W        W54281  40.990  21.083  10.588
85888W        W54282   6.185  19.324  13.100
85889W        W54283  10.982   7.695   0.491
85890W        W54284   5.962  38.466  10.569
85891W        W54285  35.121  36.385   1.270
85892W        W54286  21.649   8.903  12.343
85893W        W54287   4.442  14.774  11.089
85894W        W54288   0.366  29.671  14.771
85895W        W54289   5.892   6.248   2.800
85896W        W54290   8.362  18.170   0.965
85897W        W54291  18.118  15.275   5.128
85898W        W54292  18.114   9.828  10.506
85899W        W54293  26.741   7.887   0.478
85900W        W54294  12.009  26.708  12.552
85901W        W54295  25.044  25.415  13.303
85902W        W54296  40.001  41.442   4.826
85903W        W54297  39.493  27.691   0.488
85904W        W54298   9.087  36.236   4.605
85905W        W54299   1.230  26.137  14.785
85906W        W54300   4.424  11.083   3.390
85907W        W54301  13.389   6.244   1.389
85908W        W54302  34.891  14.469  11.603
85909W        W54303  21.532  32.976  12.863
85910W        W54304   9.214   4.746   2.323
85911W        W54305   1.228   9.616  11.806
85912W        W54306  21.530  22.913   2.175
85913W        W54307  10.043  42.577  10.967
85914W        W54308   2.709   7.603  12.567
85915W        W54309   8.845   4.155  13.872
85916W        W54310  16.784  10.457  13.748
85917W        W54311  33.090  33.042   3.211
85918W        W54312  10.252   2.835  13.792
85919W        W54313  11.193  25.723   0.067
85920W        W54314  16.982  30.538   1.410
85921W        W54315  12.618  34.689   1.544
85922W        W54316  42.681  23.493  14.179
85923W        W54317  17.746   1.511   2.555
85924W        W54318  40.540  23.951  12.096
85925W        W54319  19.753  12.834  13.903
85926W        W54320  13.619  25.799  13.164
85927W        W54321  11.135  31.029   1.694
85928W        W54322  10.871  32.008  12.957
85929W        W54323   0.882  11.706  14.589
85930W        W54324  21.289  26.987   1.187
85931W        W54325  21.659  44.707   4.085
85932W        W54326   3.631   2.288  10.661
85933W        W54327  13.321   4.632   3.324
85934W        W54328  43.229  15.253  11.661
85935W        W54329  44.556   0.490   3.415
85936W        W54330  34.997  25.479  12.128
85937W        W54331   6.852  31.314   2.396
85938W        W54332  25.084   8.722   3.598
85939W        W54333  17.867  23.529  14.324
85940W        W54334   3.598   8.888  12.064
85941W        W54335   4.534  20.857   1.724
85942W        W54336  39.298  18.536  13.549
85943W        W54337  13.117  34.449   2.807
85944W        W54338  24.106   1.786   2.797
85945W        W54339  26.572   5.669  14.820
85946W        W54340   0.656   2.326   2.838
85947W        W54341   7.893  23.216  11.196
85948W        W54342  33.669   1.937   0.473
85949W        W54343  38.218   4.334   3.289
85950W        W54344   7.747   0.719  13.094
85951W        W54345   2.614   1.290  14.355
85952W        W54346  13.299   5.138   3.349
85953W        W54347   5.700   3.792   3.999
85954W        W54348  14.157  19.391  10.751
85955W        W54349  10.286  43.501   1.738
85956W        W54350  13.206  43.438  11.669
85957W        W54351  26.281  18.742  11.131
85958W        W54352  29.927   7.295   1.426
85959W        W54353  41.880  22.275   1.342
85960W        W54354  26.447  26.989   3.801
85961W        W54355  15.890  30.076   2.576
85962W        W54356  40.180   3.368   0.431
85963W        W54357  11.781  31.181   4.552
85964W        W54358  30.879  22.102  14.245
85965W        W54359  17.857  14.344   2.636
85966W        W54360  14.813  24.516   4.200
85967W        W54361  38.496   9.624  13.589
85968W        W54362  36.508  29.999  13.009
85969W        W54363  31.899   0.019  13.349
85970W        W54364  17.792  15.522   1.276
85971W        W54365   5.464   7.234  11.419
85972W        W54366  15.826  33.361   4.000
85973W        W54367  39.871   3.677   1.157
85974W        W54368  24.802   4.412   0.865
85975W        W54369   9.831  11.982   3.668
85976W        W54370  33.077   7.362   4.733
85977W        W54371  32.373  40.394   0.185
85978W        W54372   1.786  15.033  13.103
85979W        W54373  37.429   5.901  11.089
85980W        W54374  16.092  31.917  11.388
85981W        W54375   5.331   6.656  11.871
85982W        W54376  37.445   9.733  11.892
85983W        W54377  24.963  30.991   0.260
85984W        W54378  37.036  18.109  10.298
85985W        W54379  34.524  15.357  11.816
85986W        W54380  31.653   9.877   0.385
85987W        W54381  37.825  40.318   1.346
85988W        W54382   6.003   4.498  13.589
85989W        W54383   9.138  41.395  12.021
85990W        W54384  25.182  44.953   0.181
85991W        W54385  21.909  36.402   2.351
85992W        W54386  14.185  40.001  11.958
85993W        W54387  34.035  43.838   1.798
85994W        W54388  37.364  32.317  10.005
85995W        W54389  26.211  38.146  13.290
85996W        W54390   2.183  38.228  13.463
85997W        W54391  10.904  34.763   3.131
85998W        W54392  10.700   2.125  14.366
85999W        W54393  12.880  15.124   0.423
86000W        W54394  16.214  10.344   4.552
86001W        W54395  22.145   4.362   3.924
86002W        W54396   6.372  10.633  14.393
86003W        W54397   8.290   1.436  11.121
86004W        W54398  32.373  24.404  14.448
86005W        W54399   8.812  26.518  11.716
86006W        W54400   9.624   5.897   1.823
86007W        W54401  23.068   4.209  13.143
86008W        W54402  13.780  15.827  13.972
86009W        W54403   4.143   4.277  13.889
86010W        W54404  35.544  15.582   1.328
86011W        W54405  32.025  39.027   0.977
86012W        W54406  11.605   2.465   1.686
86013W        W54407  14.467  43.119   4.130
86014W        W54408  22.323  29.565   4.591
86015W        W54409  42.663  27.980  14.299
86016W        W54410  14.573  10.168  12.382
86017W        W54411  35.134  30.568   3.635
86018W        W54412   0.502  35.343   0.548
86019W        W54413  39.843  36.333   3.765
86020W        W54414   7.886  20.760  14.746
86021W        W54415  10.726  21.205  14.831
86022W        W54416   2.771   0.796  14.470
86023W        W54417  17.630  38.344   2.879
86024W        W54418  16.232   6.166  13.951
86025W        W54419  31.979  25.665   3.100
86026W        W54420   6.657   3.469  13.878
86027W        W54421  12.653  25.342  11.530
86028W        W54422  16.874  37.465   0.946
86029W        W54423   9.311  31.462   1.290
86030W        W54424  34.987   3.276   1.991
86031W        W54425  34.401   5.943   2.489
86032W        W54426  23.012   2.428  14.887
86033W        W54427  42.460  31.593  10.389
86034W        W54428  18.046  23.935   2.298
86035W        W54429  27.352  19.555   3.165
86036W        W54430  21.988  41.506  14.116
86037W        W54431   3.908   8.812  12.497
86038W        W54432   9.230  21.257   4.983
86039W        W54433  12.312   3.712   4.641
86040W        W54434   2.859  22.595  11.315
86041W        W54435  17.752  33.545   0.003
86042W        W54436  30.272  34.710   1.119
86043W        W54437   4.530  23.305  11.496
86044W        W54438  13.690  37.392   2.819
86045W        W54439   4.274  43.764  13.962
86046W        W54440  14.655   4.336  13.850
86047W        W54441  38.282  28.938   0.083
86048W        W54442  33.854   2.356  12.409
86049W        W54443  43.936  32.744   3.096
86050W        W54444   4.984  11.318  12.644
86051W        W54445   4.513  21.738   1.842
86052W        W54446  31.622  42.604   1.380
86053W        W54447   6.884  15.584   2.285
86054W        W54448  28.219  17.148  12.365
86055W        W54449   8.792  44.947   1.281
86056W        W54450  10.132   7.916   3.679
86057W        W54451  21.284  29.947  13.930
86058W        W54452  17.765   4.039   3.222
86059W        W54453  35.381  12.812  12.518
86060W        W54454  27.095   9.093  12.648
86061W        W54455  40.212  12.754  12.749
86062W        W54456  32.836  15.564  12.108
86063W        W54457  42.572  39.263  14.927
86064W        W54458  10.512  39.223   1.747
86065W        W54459  13.625  25.227  11.665
86066W        W54460  13.701  14.669  12.350
86067W        W54461  38.462  11.805   2.926
86068W        W54462   8.950  13.956   0.555
86069W        W54463  31.988   0.014  14.761
86070W        W54464  27.472  26.424   0.937
86071W        W54465  18.995  19.378  13.446
86072W        W54466  18.225  29.211   3.251
86073W        W54467  34.488  11.841  13.028
86074W        W54468  38.111   3.809  10.758
86075W        W54469  43.772  18.251   2.255
86076W        W54470  23.203  22.124   2.257
86077W        W54471   2.178  31.345  11.281
86078W        W54472  39.548  20.732   0.812
86079W        W54473  35.175  44.012  10.368
86080W        W54474  17.674  27.262   0.269
86081W        W54475  29.984   3.208   2.737
86082W        W54476   7.461   6.679  14.319
86083W        W54477  17.998   6.424  13.521
86084W        W54478   8.511  38.609   0.350
86085W        W54479  18.813  10.310   1.778
86086W        W54480   8.447  14.826  12.434
86087W        W54481  42.961  31.628   3.079
86088W        W54482  24.140  35.907   1.850
86089W        W54483  32.383  38.243  11.992
86090W        W54484  41.079  31.272   0.573
86091W        W54485  32.121  17.783  11.441
86092W        W54486   2.013  19.026  11.258
86093W        W54487  21.097   2.369  14.306
86094W        W54488  11.903  17.224  13.363
86095W        W54489  36.542  10.405  14.210
86096W        W54490  19.822  38.685  13.485
86097W        W54491  32.011  34.200   1.642
86098W        W54492  16.068  11.166  12.904
86099W        W54493  15.221  17.374  12.085
86100W        W54494  37.656  11.151  10.635
86101W        W54495   9.746  40.601  13.477
86102W        W54496   5.002  36.948   3.677
86103W        W54497  38.395  26.052   5.052
86104W        W54498  23.983  20.787  14.518
86105W        W54499   9.824  13.647  12.954
86106W        W54500  41.005  13.203  14.834
86107W        W54501  12.719   5.209  12.388
86108W        W54502   3.262  14.164  13.443
86109W        W54503  44.744  42.495  11.271
86110W        W54504  27.752  24.624  11.292
86111W        W54505  12.395  32.290   3.783
86112W        W54506  32.068   1.316  11.195
86113W        W54507  40.507   3.855   2.921
86114W        W54508  11.149  28.948  11.039
86115W        W54509   4.803  26.772   3.715
86116W        W54510  15.217  12.388   1.364
86117W        W54511  40.608   6.439   1.904
86118W        W54512  34.862   4.882   2.938
86119W        W54513  34.482  11.654  13.950
86120W        W54514  33.983   4.347   1.159
86121W        W54515  22.484  33.088  13.955
86122W        W54516  31.338  18.582  12.849
86123W        W54517  25.616  42.825   1.675
86124W        W54518  11.293  36.120   1.289
86125W        W54519   0.276  37.772   4.719
86126W        W54520  22.889  22.035  14.247
86127W        W54521   9.620   6.515   3.412
86128W        W54522   6.843  43.302   1.376
86129W        W54523  28.933  11.600   4.604
86130W        W54524  29.421  43.419  12.787
86131W        W54525  18.765  29.119  12.155
86132W        W54526  30.920  29.379   1.849
86133W        W54527   8.406  34.588   4.300
86134W        W54528  14.233   5.420  14.978
86135W        W54529  31.563  17.097  12.326
86136W        W54530  23.570   7.120   1.852
86137W        W54531  33.959  43.997   0.480
86138W        W54532  40.492   7.134  11.149
86139W        W54533  16.157   7.389  13.292
86140W        W54534   2.937   0.113   1.139
86141W        W54535  11.144   7.621   0.015
86142W        W54536  19.796  29.699  12.059
86143W        W54537  23.667  37.336   3.182
86144W        W54538  20.247  13.347  14.577
86145W        W54539  28.927  17.300  14.824
86146W        W54540  32.427  35.044   4.818
86147W        W54541  13.247  30.504  11.566
86148W        W54542  31.905  15.793   4.143
86149W        W54543  15.219  36.352   4.190
86150W        W54544  38.726  43.845   4.945
86151W        W54545  11.781  43.088  13.878
86152W        W54546  34.015  39.480  12.065
86153W        W54547  38.750  44.425   1.737
86154W        W54548  31.948  21.621   4.268
86155W        W54549  11.776  29.819   1.689
86156W        W54550  38.475  21.109   4.665
86157W        W54551  16.355  42.379  12.514
86158W        W54552  44.417  35.663  10.172
86159W        W54553  35.361   5.665   3.847
86160W        W54554  34.372  24.981  13.042
86161W        W54555  32.463  41.873   1.853
86162W        W54556  30.983  43.176  14.318
86163W        W54557  14.778  12.444   4.046
86164W        W54558   7.256  19.564  13.110
86165W        W54559  28.026  43.871   0.798
86166W        W54560  20.967   3.864  12.448
86167W        W54561  12.687  30.242   1.896
86168W        W54562  24.963  26.722  11.182
86169W        W54563   4.591  26.540  11.151
86170W        W54564   1.689   2.934   3.272
86171W        W54565  31.829   7.830   0.482
86172W        W54566   3.275  18.225   0.439
86173W        W54567  30.039  24.743   1.125
86174W        W54568  27.513  16.947  10.328
86175W        W54569  28.449  23.038  13.313
86176W        W54570  32.932  23.626   0.703
86177W        W54571  38.013  22.227   3.832
86178W        W54572  22.068  37.354  13.830
86179W        W54573  25.682  33.480   2.879
86180W        W54574  16.360  23.136  13.863
86181W        W54575  37.986   3.450  14.258
86182W        W54576  12.663  31.167  12.794
86183W        W54577  22.718  10.730   0.432
86184W        W54578  35.968  39.947  13.554
86185W        W54579  35.644  22.191  12.493
86186W        W54580  10.305  31.439   0.046
86187W        W54581  33.938  16.377  12.078
86188W        W54582  30.751  22.526  12.568
86189W        W54583  13.363  16.849   1.068
86190W        W54584  35.347  13.632   1.336
86191W        W54585  42.523   9.327  10.647
86192W        W54586  22.201   7.712   0.987
86193W        W54587  20.191  16.856  10.599
86194W        W54588  30.086  42.556  12.132
86195W        W54589  11.193  39.261   2.241
86196W        W54590   7.258  12.119  14.264
86197W        W54591  19.761  33.510   1.294
86198W        W54592  17.647  40.789   3.696
86199W        W54593  33.884  44.915   0.940
86200W        W54594  40.742  11.096  11.089
86201W        W54595  15.268  20.088   0.421
86202W        W54596  35.863  22.502   2.490
86203W        W54597  39.921  35.672   4.343
86204W        W54598  34.966  20.297   0.247
86205W        W54599  21.297  30.407   3.544
86206W        W54600  43.773  32.789   1.759
86207W        W54601  34.085  40.194   0.225
86208W        W54602   6.178  42.853  13.012
86209W        W54603  42.994  26.488  14.506
86210W        W54604  17.705  30.100   3.728
86211W        W54605   3.903  26.347  10.987
86212W        W54606  11.656  34.092   4.741
86213W        W54607  33.933   4.390  13.764
86214W        W54608  35.604  39.122   0.800
86215W        W54609  43.240  42.505   2.358
86216W        W54610  31.927  39.390  14.018
86217W        W54611   9.789   7.064   4.562
86218W        W54612  17.557  23.017   3.964
86219W        W54613  25.749  12.754  11.096
86220W        W54614  19.357  39.027  12.119
86221W        W54615   8.689   3.089  11.989
86222W        W54616   6.930   7.415  14.939
86223W        W54617  39.371  43.911   4.214
86224W        W54618  41.496  28.900   0.808
86225W        W54619   0.409  33.080   3.601
86226W        W54620  21.236  28.816  12.560
86227W        W54621  41.702  10.230  10.132
86228W        W54622  36.269   7.387   2.324
86229W        W54623  26.508  10.321   1.170
86230W        W54624  26.113  21.861  14.070
86231W        W54625  33.170  27.681  13.345
86232W        W54626  22.138  26.266   9.839
86233W        W54627  17.545  14.873  10.995
86234W        W54628  37.844  25.618   0.694
86235W        W54629   5.331  12.391  10.701
86236W        W54630  26.822   9.752  12.021
86237W        W54631  40.018  30.745   4.868
86238W        W54632  44.834  28.345   1.194
86239W        W54633  38.216  15.942   3.302
86240W        W54634   3.739  22.089   1.740
86241W        W54635  15.392  29.042  11.995
86242W        W54636  33.486  21.287  12.502
86243W        W54637  36.563  17.286   1.267
86244W        W54638  44.431  44.368  11.900
86245W        W54639  27.946   2.871   1.393
86246W        W54640   6.364  28.184  13.015
86247W        W54641  37.556  41.579  11.925
86248W        W54642  21.219  30.140  12.122
86249W        W54643  43.235  30.635  13.433
86250W        W54644  38.334  35.111   4.810
86251W        W54645  13.570   1.369   0.560
86252W        W54646  36.864  32.656  11.544
86253W        W54647  21.165   6.390  11.566
86254W        W54648  10.298  41.069  14.417
86255W        W54649  39.073   8.863   3.348
86256W        W54650  35.763  26.972  11.092
86257W        W54651  30.508  42.780   1.935
86258W        W54652  25.404  12.301  11.337
86259W        W54653  26.046  37.544   0.450
86260W        W54654  40.016  39.804  11.453
86261W        W54655  41.971   3.643  13.065
86262W        W54656  28.711  30.851  12.435
86263W        W54657  33.659   2.494   3.351
86264W        W54658  14.573  12.679  11.559
86265W        W54659   5.287   5.962  13.134
86266W        W54660  33.971  10.483   3.338
86267W        W54661  29.390  42.737   2.746
86268W        W54662  41.605  38.814   0.873
86269W        W54663  12.700  25.947   3.573
86270W        W54664  18.037  30.976  14.749
86271W        W54665   1.814  32.468   3.291
86272W        W54666  15.196  35.591  11.596
86273W        W54667  29.672  42.832   3.644
86274W        W54668   8.789  28.689  13.822
86275W        W54669  17.590  15.884  12.470
86276W        W54670  35.439  35.778  11.697
86277W        W54671   9.262  42.503   0.987
86278W        W54672  18.729  17.481  11.773
86279W        W54673  39.655  43.745   1.854
86280W        W54674  19.685  34.485  10.431
86281W        W54675  11.163  14.777   2.557
86282W        W54676  10.859  33.486  10.266
86283W        W54677   0.704  38.762  14.552
86284W        W54678  42.424  29.811  14.287
86285W        W54679  10.611  17.561   4.522
86286W        W54680  28.274  24.870   2.557
86287W        W54681  41.859  31.811   1.635
86288W        W54682   4.177  30.561   2.063
86289W        W54683  41.865   8.100   1.771
86290W        W54684  43.725  14.536   1.307
86291W        W54685  16.921  23.939   0.749
86292W        W54686  15.669  44.183  12.224
86293W        W54687  32.493   2.394  12.131
86294W        W54688  26.008  44.730   1.867
86295W        W54689   9.495   8.727   3.691
86296W        W54690  15.218  13.654   0.986
86297W        W54691   2.742  16.204   4.733
86298W        W54692   7.213  42.700  13.873
86299W        W54693  21.010  41.422   3.743
86300W        W54694   0.203  32.547  11.680
86301W        W54695  17.989  38.054  14.261
86302W        W54696  19.679  29.066   4.939
86303W        W54697  33.524   4.372  10.642
86304W        W54698  36.305  19.607   2.348
86305W        W54699   1.349  34.485  10.866
86306W        W54700  20.509  15.099   2.238
86307W        W54701  19.042  12.234  12.427
86308W        W54702   9.607  10.910   4.103
86309W        W54703  29.127  33.095   2.775
86310W        W54704  16.396  13.311   3.278
86311W        W54705   4.418   4.573  12.582
86312W        W54706  23.409  18.183   2.255
86313W        W54707  42.910  22.073  10.731
86314W        W54708  33.485  24.503   4.716
86315W        W54709  39.935   9.164   4.126
86316W        W54710  28.033  41.242   1.865
86317W        W54711  28.493  35.144   4.241
86318W        W54712   9.752  14.776  11.163
86319W        W54713   2.341  24.029  14.434
86320W        W54714  19.611  39.319  12.562
86321W        W54715  16.539  42.856  12.484
86322W        W54716   0.517  26.645   3.197
86323W        W54717  34.167  39.988  11.318
86324W        W54718   3.883  13.705   4.230
86325W        W54719   2.131   7.657  13.387
86326W        W54720  37.345  41.071  11.625
86327W        W54721  35.356  35.979   4.969
86328W        W54722  32.343  38.046  14.479
86329W        W54723  32.328  11.443   4.638
86330W        W54724  20.474  44.921  12.975
86331W        W54725   6.806  35.649   1.717
86332W        W54726  21.684   7.738  13.006
86333W        W54727  26.008  14.053  13.387
86334W        W54728  40.749   1.883   4.102
86335W        W54729  38.293  17.249   2.271
86336W        W54730  22.658  11.150  12.305
86337W        W54731  41.296  37.920  13.774
86338W        W54732  22.953  44.244  12.144
86339W        W54733  20.816  30.119  11.425
86340W        W54734  20.338   3.289  13.944
86341W        W54735  36.376  39.094  14.405
86342W        W54736  27.133  10.905  10.385
86343W        W54737  41.811  33.061   4.662
86344W        W54738  41.300  13.966  13.050
86345W        W54739   0.756  18.034  11.628
86346W        W54740  39.157  35.487   3.354
86347W        W54741  42.274   1.945  13.332
86348W        W54742  17.724   9.549  11.763
86349W        W54743  44.418  14.131  13.783
86350W        W54744  20.664   9.065  13.033
86351W        W54745   3.855  41.099   2.232
86352W        W54746   4.777  19.649  14.462
86353W        W54747   0.516  36.197   1.807
86354W        W54748  15.533  21.344   1.682
86355W        W54749  34.864  26.864  11.097
86356W        W54750  36.871  17.283   2.681
86357W        W54751  42.602  36.997   1.945
86358W        W54752  33.361  22.601  14.928
86359W        W54753  40.055  26.728  14.276
86360W        W54754  23.404  19.124  10.566
86361W        W54755   1.592  22.747  11.249
86362W        W54756  27.081   7.147   3.049
86363W        W54757  12.542  20.948   0.324
86364W        W54758  44.769  17.268   3.412
86365W        W54759  26.953   0.752  12.114
86366W        W54760  34.711  15.868  10.271
86367W        W54761  32.454  44.965   3.235
86368W        W54762  41.290  23.235  11.127
86369W        W54763  42.159   5.197  11.702
86370W        W54764   7.425  37.288  13.350
86371W        W54765   5.628  16.965   1.894
86372W        W54766  12.271  29.310   4.758
86373W        W54767   8.043   7.945  14.350
86374W        W54768  32.851  41.358  14.042
86375W        W54769  37.405  17.727   1.877
86376W        W54770  41.908   1.137  14.446
86377W        W54771  22.494   4.507   5.113
86378W        W54772   7.419  27.377  10.731
86379W        W54773   4.417  16.773   2.809
86380W        W54774  23.965  20.488   0.911
86381W        W54775   9.839   2.435   4.970
86382W        W54776   4.729  11.924  14.879
86383W        W54777   7.226  43.364  12.390
86384W        W54778   3.158  23.482  13.026
86385W        W54779  21.614  18.976  12.786
86386W        W54780   8.874   2.301   3.861
86387W        W54781  21.543  40.923   4.514
86388W        W54782  37.138  40.244  12.013
86389W        W54783  40.470  41.512  12.969
86390W        W54784   5.219  19.221   4.429
86391W        W54785  11.332  12.917  14.639
86392W        W54786  29.685   2.379  13.374
86393W        W54787  35.334  25.496   2.860
86394W        W54788  24.277   9.859  14.694
86395W        W54789  29.928  39.998   3.712
86396W        W54790  35.023  23.774   3.366
86397W        W54791  43.729  18.277   1.065
86398W        W54792  26.409   1.516  10.984
86399W        W54793   9.790  40.964  13.860
86400W        W54794  26.947  22.584  12.497
86401W        W54795  10.904  41.460   1.453
86402W        W54796  30.528   5.426  11.676
86403W        W54797  38.047   8.308   1.303
86404W        W54798  33.948  19.311   3.304
86405W        W54799   0.015  19.178   1.462
86406W        W54800  20.796  17.011  12.880
86407W        W54801  10.200  30.052   3.362
86408W        W54802  35.536  39.357  13.907
86409W        W54803  11.767  25.979   1.482
86410W        W54804  15.122  26.080  13.951
86411W        W54805  34.670  41.512   2.503
86412W        W54806  20.269   3.229   2.807
86413W        W54807  31.808  22.941  14.820
86414W        W54808   6.449  37.875  14.832
86415W        W54809   4.795  38.489   2.392
86416W        W54810   0.210  27.478  14.896
86417W        W54811  41.054  16.120   0.482
86418W        W54812  34.640  11.901   2.674
86419W        W54813  15.666  44.450  14.108
86420W        W54814  10.368  11.654  13.328
86421W        W54815  30.847  41.913  14.130
86422W        W54816  37.186  22.943   4.876
86423W        W54817  38.513  34.979   2.244
86424W        W54818  37.983  43.704   4.102
86425W        W54819   0.749   7.340  11.597
86426W        W54820  43.908  23.925  12.008
86427W        W54821   2.198  37.892   0.367
86428W        W54822  37.011  30.250  14.522
86429W        W54823  42.395  39.304  14.407
86430W        W54824  13.816   9.295   4.092
86431W        W54825  16.634  16.257   2.319
86432W        W54826  23.116   5.865   1.418
86433W        W54827  14.715   6.130  13.148
86434W        W54828  22.100  33.375   3.874
86435W        W54829  29.498  24.270  13.412
86436W        W54830   7.781  23.384   4.096
86437W        W54831  24.263  15.773   1.189
86438W        W54832   8.644  17.620  10.731
86439W        W54833   8.737  20.588  11.046
86440W        W54834  37.528  13.244   2.159
86441W        W54835  11.269  36.455   2.703
86442W        W54836  35.201  43.517   3.291
86443W        W54837  13.278  33.607  10.820
86444W        W54838   1.835  26.109   3.920
86445W        W54839   6.291  10.049  14.456
86446W        W54840  42.980  33.770   2.001
86447W        W54841   4.623  32.968   0.931
86448W        W54842  20.273   8.230  12.968
86449W        W54843  29.001  36.485  14.512
86450W        W54844   8.690  42.976   4.809
86451W        W54845  24.633  20.273  14.859
86452W        W54846  35.014  18.157   5.209
86453W        W54847  19.369   4.313  10.961
86454W        W54848  25.122   2.219   3.634
86455W        W54849  27.494   6.646  11.914
86456W        W54850  36.527  38.994  12.499
86457W        W54851  40.479  14.202   4.946
86458W        W54852   5.914  19.249   4.985
86459W        W54853  26.533  33.638   3.215
86460W        W54854  11.795  38.994  12.040
86461W        W54855  11.923  29.960   0.454
86462W        W54856   6.218  18.474  11.544
86463W        W54857  12.051  25.593  13.838
86464W        W54858   1.553  42.916  11.263
86465W        W54859  27.685   7.437  12.056
86466W        W54860  22.008  19.148  10.680
86467W        W54861  33.554   4.526   1.947
86468W        W54862   5.363  17.757  14.281
86469W        W54863  16.249  19.975  10.781
86470W        W54864   7.182  13.083   9.628
86471W        W54865  21.908  25.521  11.804
86472W        W54866   4.928  24.138  10.981
86473W        W54867  41.926  20.055  14.916
86474W        W54868  19.626  40.516  14.866
86475W        W54869   3.032  15.833   4.475
86476W        W54870  44.269  39.525   0.796
86477W        W54871  24.245  43.372  13.800
86478W        W54872  36.117  27.010  14.893
86479W        W54873  25.819  23.476  14.410
86480W        W54874  23.883  16.172  12.448
86481W        W54875  16.093  18.164   3.609
86482W        W54876  22.963   5.505  12.155
86483W        W54877  11.530  42.802  14.787
86484W        W54878   0.742  18.179   0.294
86485W        W54879  29.109  12.693   2.376
86486W        W54880  26.604  16.521   0.890
86487W        W54881  29.744  41.883   0.199
86488W        W54882  39.792  35.850   2.311
86489W        W54883  17.314   3.552   1.056
86490W        W54884  30.067  10.853  10.711
86491W        W54885  13.909  12.575   0.830
86492W        W54886  22.524   3.244  14.500
86493W        W54887  30.365   7.463   4.222
86494W        W54888  44.620  32.796  13.593
86495W        W54889  29.464  15.831  12.001
86496W        W54890   2.778  20.598   2.640
86497W        W54891  27.575   6.153  11.984
86498W        W54892   9.659   3.834  10.431
86499W        W54893  13.539   0.895  12.896
86500W        W54894  20.890  37.097   0.348
86501W        W54895  22.774  10.280  14.494
86502W        W54896  21.731  14.058  14.660
86503W        W54897  12.144  24.766  14.496
86504W        W54898  11.227  44.315  11.307
86505W        W54899  20.626  29.638   1.354
86506W        W54900  41.964  10.803   2.156
86507W        W54901  35.417   0.178   1.236
86508W        W54902  28.094   9.171  11.105
86509W        W54903  16.016   8.714   2.189
86510W        W54904  12.159   2.382  11.171
86511W        W54905  25.362  33.962  11.155
86512W        W54906  20.449  17.393   4.566
86513W        W54907   9.745   7.456   2.323
86514W        W54908  43.462  37.555  11.118
86515W        W54909  40.856   5.041  12.580
86516W        W54910  14.263  11.754  12.048
86517W        W54911   9.826  12.231   0.742
86518W        W54912  32.014  22.564   0.106
86519W        W54913  44.187  17.143   4.163
86520W        W54914  17.519  23.066  11.997
86521W        W54915   4.194  15.185  10.910
86522W        W54916   3.052  12.383  10.243
86523W        W54917  14.111  25.218   4.545
86524W        W54918  22.252  22.737  11.946
86525W        W54919  22.432  40.593  11.210
86526W        W54920  26.393   7.251  13.778
86527W        W54921  39.930   5.145   4.084
86528W        W54922  38.861  35.031   2.626
86529W        W54923  25.811   5.360   4.247
86530W        W54924   5.184  41.428   0.949
86531W        W54925  12.300   7.931  13.991
86532W        W54926  31.840   8.630   3.086
86533W        W54927  23.066   6.271  11.679
86534W        W54928  32.002   0.470  12.485
86535W        W54929  37.311  29.516  13.240
86536W        W54930  35.035  31.983   5.358
86537W        W54931  44.775  36.998  11.673
86538W        W54932  15.407  42.788  11.594
86539W        W54933  32.361   7.402  14.870
86540W        W54934  36.927   3.254  10.634
86541W        W54935  12.696  26.148  14.314
86542W        W54936  18.598  12.357   0.577
86543W        W54937   4.804  41.469   0.247
86544W        W54938  27.518  25.117  12.877
86545W        W54939  33.404  29.530  10.692
86546W        W54940  17.353   9.174   0.891
86547W        W54941  35.539  44.669   2.857
86548W        W54942   0.397  35.824  12.866
86549W        W54943   2.161  33.034  13.992
86550W        W54944  34.620  26.728  13.971
86551W        W54945   8.886  42.279   0.176
86552W        W54946  27.564  14.453  11.540
86553W        W54947  23.818  30.504   5.138
86554W        W54948  11.032  41.977   4.563
86555W        W54949  39.025   9.309  14.185
86556W        W54950  31.293   3.921  12.004
86557W        W54951  14.836   0.856  12.572
86558W        W54952  37.358  29.471   0.798
86559W        W54953   0.952   2.129   4.550
86560W        W54954   8.988  18.706  13.322
86561W        W54955   9.249  14.590  14.450
86562W        W54956   7.329   8.884   1.973
86563W        W54957  17.670  37.907  12.650
86564W        W54958  16.749  40.689   0.699
86565W        W54959  11.219  34.273   1.375
86566W        W54960  18.311  21.753   4.502
86567W        W54961   5.407  23.347  13.833
86568W        W54962  28.929  44.506  13.104
86569W        W54963  38.602  33.604   0.191
86570W        W54964  39.811  35.574  14.257
86571W        W54965  15.616  28.419  10.574
86572W        W54966  20.799  35.049   3.842
86573W        W54967  22.539  31.855  12.838
86574W        W54968  13.298   2.801   4.127
86575W        W54969  18.221  10.919   2.867
86576W        W54970  32.953  16.989  11.135
86577W        W54971  19.868  43.716  12.947
86578W        W54972  32.283  24.029  11.110
86579W        W54973  15.191  26.619  11.998
86580W        W54974  11.130  24.492   4.494
86581W        W54975  19.841  27.773   2.827
86582W        W54976  16.671  20.028  14.287
86583W        W54977  36.490  15.626   1.889
86584W        W54978  25.599  17.806  12.001
86585W        W54979  14.182  25.814  12.384
86586W        W54980  36.091  40.460   0.507
86587W        W54981   3.331  28.583   2.759
86588W        W54982  21.022  28.684  11.988
86589W        W54983  26.740   0.795   4.536
86590W        W54984  42.077   7.639  13.780
86591W        W54985  30.775   9.749  14.296
86592W        W54986  22.099  26.499  11.110
86593W        W54987   0.345  43.407  12.073
86594W        W54988  33.916  12.344  10.458
86595W        W54989   3.072  44.386  13.358
86596W        W54990   8.441  39.940   2.011
86597W        W54991   9.798  29.888  11.255
86598W        W54992   2.437  12.093   1.846
86599W        W54993  37.938  37.253   4.534
86600W        W54994  27.393  20.567  14.652
86601W        W54995  30.653  27.044   4.185
86602W        W54996  15.840   5.237   3.145
86603W        W54997   0.988   5.933  10.443
86604W        W54998   8.213  43.551  14.776
86605W        W54999   1.300  38.349   2.199
86606W        W55000  41.921  13.635  14.009
86607W        W55001  15.529  12.450  14.351
86608W        W55002  18.059   3.953  11.071
86609W        W55003  32.572  38.923  11.238
86610W        W55004  21.381  40.600  11.175
86611W        W55005  40.818  23.387  14.956
86612W        W55006  22.355  25.786   9.844
86613W        W55007  20.257  18.120   2.351
86614W        W55008  17.818  24.124  11.630
86615W        W55009  28.090  37.419   1.598
86616W        W55010  28.657  18.778  14.897
86617W        W55011   2.277  17.415  14.339
86618W        W55012  41.439   1.518   2.273
86619W        W55013  44.034  24.651   1.640
86620W        W55014  41.020  12.034  13.796
86621W        W55015  12.779   2.468   1.895
86622W        W55016  37.839  35.089  14.928
86623W        W55017  25.681  16.831  11.058
86624W        W55018  24.723  16.285  13.655
86625W        W55019  40.817   5.736  13.893
86626W        W55020  20.853   4.896  11.170
86627W        W55021  31.878  15.687  12.782
86628W        W55022  10.347  44.488  11.344
86629W        W55023  16.081  13.223  11.208
86630W        W55024  11.970  18.630  12.968
86631W        W55025  28.953  29.153   2.759
86632W        W55026  33.375  13.776   1.332
86633W        W55027  15.222  32.593  12.153
86634W        W55028  18.078  11.669  11.311
86635W        W55029  26.910   5.249  13.102
86636W        W55030  27.082  18.737   4.053
86637W        W55031  22.959  33.142   3.705
86638W        W55032  44.970   1.852   2.252
86639W        W55033  20.535  26.660  11.836
86640W        W55034   9.182  44.471  14.850
86641W        W55035  40.916   3.816   3.366
86642W        W55036  41.487  41.837  12.376
86643W        W55037  44.808  34.102   2.282
86644W        W55038  15.150  28.638   3.346
86645W        W55039  15.306   0.235  13.065
86646W        W55040  24.763   5.850  12.022
86647W        W55041  21.784  23.081  11.929
86648W        W55042  29.922   9.781   4.890
86649W        W55043  44.873  41.465   3.971
86650W        W55044  21.555  27.802   0.452
86651W        W55045  37.395   1.789  14.928
86652W        W55046  43.264   1.795  10.651
86653W        W55047   5.628  21.156  12.006
86654W        W55048  19.104   1.219  14.432
86655W        W55049  40.888   4.866  13.079
86656W        W55050  39.176  10.492   0.797
86657W        W55051  19.229  23.635  12.615
86658W        W55052  25.719   6.768  12.420
86659W        W55053  13.637  42.804   1.350
86660W        W55054  34.474   7.492   2.484
86661W        W55055  20.745  44.863   4.641
86662W        W55056  44.738  33.636  10.499
86663W        W55057  32.577  39.867  14.382
86664W        W55058  22.059  19.272  11.610
86665W        W55059  30.176  38.409  11.769
86666W        W55060   9.243  25.181  12.865
86667W        W55061  11.916  43.716   2.175
86668W        W55062  11.252  33.900  11.499
86669W        W55063  20.665  25.658   3.827
86670W        W55064  31.580   1.429  10.458
86671W        W55065  40.364   4.852   4.538
86672W        W55066   0.845  39.834  12.160
86673W        W55067  42.393  22.751  11.101
86674W        W55068  25.479   0.545  13.376
86675W        W55069  43.528  34.149   1.725
86676W        W55070  15.848  16.310   0.793
86677W        W55071  30.239   4.890  10.734
86678W        W55072  44.283   1.017   0.559
86679W        W55073   9.639  41.886   2.718
86680W        W55074  17.085  14.929   0.850
86681W        W55075  18.051  35.579   2.374
86682W        W55076   5.273   6.194  14.613
86683W        W55077  12.399  28.522   0.111
86684W        W55078  41.046  24.907   1.118
86685W        W55079  35.804  42.312   4.546
86686W        W55080  23.236  20.130   2.268
86687W        W55081  31.062  11.164  10.724
86688W        W55082   4.208   3.948   3.855
86689W        W55083  22.083  38.568   2.648
86690W        W55084  31.482  12.737  10.679
86691W        W55085   8.278   9.300  14.958
86692W        W55086  42.385  26.304  14.704
86693W        W55087  20.850  37.016  11.737
86694W        W55088  32.446  24.171  13.994
86695W        W55089  10.510   2.869   4.081
86696W        W55090  14.621  38.575   2.319
86697W        W55091  42.732  43.324   2.417
86698W        W55092  18.402  12.267   4.194
86699W        W55093  44.836  40.092   0.233
86700W        W55094  14.145  31.073  10.647
86701W        W55095  37.301  21.270  11.363
86702W        W55096   6.490   1.712   0.292
86703W        W55097   9.669  26.761   4.302
86704W        W55098   5.932  38.021  13.953
86705W        W55099  44.037   1.757  14.001
86706W        W55100  42.541  37.325  10.703
86707W        W55101  43.815  37.009  11.570
86708W        W55102  40.898  15.506  14.305
86709W        W55103  22.826  24.106   4.812
86710W        W55104  32.683   3.408  12.792
86711W        W55105  12.148  10.882   3.811
86712W        W55106  29.643  15.200   3.820
86713W        W55107  11.889  25.216   4.639
86714W        W55108  19.680  30.587   4.176
86715W        W55109  13.154  43.533  12.526
86716W        W55110  39.886  31.960  13.760
86717W        W55111   8.959  15.363   4.173
86718W        W55112  19.057  30.732   1.900
86719W        W55113  27.538  20.763  11.628
86720W        W55114  21.788  28.312   2.890
86721W        W55115  24.045  44.220  11.439
86722W        W55116  23.600   2.823   3.657
86723W        W55117  28.263  19.586  12.134
86724W        W55118  25.013   4.240  13.074
86725W        W55119  29.172  15.823   4.527
86726W        W55120  14.155   7.351   2.306
86727W        W55121   6.895  17.542   4.105
86728W        W55122  42.422  31.979  11.210
86729W        W55123  23.981  26.628  12.584
86730W        W55124  31.601  38.476  12.211
86731W        W55125  42.544  24.523  10.719
86732W        W55126  43.584  40.093  14.683
86733W        W55127  15.189  29.454  13.691
86734W        W55128  23.181  15.052  14.377
86735W        W55129  39.799  27.666   0.918
86736W        W55130  40.321  12.889   1.874
86737W        W55131   4.303  25.665   5.201
86738W        W55132  24.457   9.190  14.394
86739W        W55133  41.700   8.480  12.093
86740W        W55134  17.057  40.366  13.838
86741W        W55135  37.937  13.580  14.814
86742W        W55136  31.899  11.764  11.603
86743W        W55137  23.472  30.201  12.090
86744W        W55138  39.461  13.658  11.876
86745W        W55139  11.849  43.530  12.873
86746W        W55140  33.591  43.920   1.396
86747W        W55141  42.646  19.334  11.457
86748W        W55142  26.587  41.908   0.770
86749W        W55143  25.865  13.293   1.744
86750W        W55144  34.048  11.662   1.947
86751W        W55145  39.917   6.707  14.259
86752W        W55146  35.489  29.539  14.903
86753W        W55147  10.944  28.136   2.720
86754W        W55148  15.490  35.520  11.095
86755W        W55149  44.874  28.552  13.081
86756W        W55150   5.950  31.281  11.595
86757W        W55151  41.099  41.036  14.302
86758W        W55152  35.517  18.550  13.445
86759W        W55153  32.744  29.327  13.081
86760W        W55154  30.142  33.388   0.804
86761W        W55155  41.978  19.989   0.889
86762W        W55156   6.849  15.642   1.361
86763W        W55157   8.344  38.817  13.562
86764W        W55158  16.155  44.249  13.322
86765W        W55159  18.515  17.535  12.240
86766W        W55160  43.190  20.729   0.292
86767W        W55161  13.559  19.553  13.281
86768W        W55162  23.316   6.168  14.791
86769W        W55163   4.019  10.844   0.879
86770W        W55164  29.612  18.140  12.460
86771W        W55165  34.391  35.046  14.033
86772W        W55166  42.286  16.621  13.963
86773W        W55167  43.211  31.063  14.236
86774W        W55168  25.426   9.177  11.707
86775W        W55169  18.478  24.228  14.212
86776W        W55170  20.963  21.223  14.015
86777W        W55171   1.833   6.321   3.348
86778W        W55172  12.010  36.585  13.345
86779W        W55173  35.812  35.403   0.569
86780W        W55174  14.015  31.431   2.681
86781W        W55175   9.583   6.253   2.853
86782W        W55176  34.195  22.717   0.253
86783W        W55177  20.167   1.893   3.424
86784W        W55178   6.252  44.234   4.687
86785W        W55179  21.440   2.003  10.575
86786W        W55180   4.969  31.613  13.134
86787W        W55181   0.805   5.869  14.493
86788W        W55182  35.295   6.305  10.692
86789W        W55183  31.183  14.686   0.362
86790W        W55184  20.745  37.080   3.417
86791W        W55185  43.402  12.839   3.857
86792W        W55186  43.449  42.998  11.068
86793W        W55187  44.270   6.450   4.222
86794W        W55188  41.947   1.693  11.372
86795W        W55189  22.907   2.395  10.707
86796W        W55190  26.099  12.149  12.302
86797W        W55191  42.474   0.543  13.530
86798W        W55192  44.029  39.488   0.295
86799W        W55193  23.663  21.272   0.801
86800W        W55194  29.739   1.814  14.415
86801W        W55195  35.977  27.472   2.206
86802W        W55196  11.305   9.952   0.720
86803W        W55197  22.957   0.273  10.510
86804W        W55198  28.919  19.998  12.497
86805W        W55199  24.570  27.015   4.604
86806W        W55200  32.484  32.539   0.042
86807W        W55201  33.841  35.920   0.889
86808W        W55202  10.869  19.200  10.664
86809W        W55203  15.123   0.466   2.397
86810W        W55204  22.161  22.750   2.601
86811W        W55205  12.906  21.201  13.395
86812W        W55206  25.685   0.947   2.342
86813W        W55207  37.093  12.520  12.086
86814W        W55208   4.799  23.595  12.504
86815W        W55209  32.207   5.332   1.466
86816W        W55210  11.951  11.205   1.280
86817W        W55211  18.809  20.651  10.903
86818W        W55212  16.559  30.077  12.074
86819W        W55213  41.376   6.729   2.451
86820W        W55214  18.518  15.493   0.108
86821W        W55215  11.150  23.307   1.303
86822W        W55216   5.299  24.864   2.226
86823W        W55217  44.004  31.443   1.853
86824W        W55218  42.480  30.821   4.672
86825W        W55219  26.242  16.948  12.230
86826W        W55220   9.492  30.819  11.146
86827W        W55221   4.525   8.419  14.994
86828W        W55222   5.274  33.936  12.575
86829W        W55223  22.949  32.030  10.218
86830W        W55224  43.467   6.275  10.612
86831W        W55225   3.656  19.268   1.748
86832W        W55226   7.210  12.699   1.883
86833W        W55227   3.357  30.179   4.562
86834W        W55228  16.655  32.797   2.413
86835W        W55229  39.609   3.962   3.424
86836W        W55230  38.787  15.543   4.166
86837W        W55231  22.629  16.479  14.351
86838W        W55232  15.540  37.197  11.527
86839W        W55233  17.183  40.661  12.385
86840W        W55234  44.642   2.952  12.540
86841W        W55235  12.826   5.661   4.597
86842W        W55236  42.761   3.708   0.454
86843W        W55237  40.516  31.945   0.842
86844W        W55238   5.755  19.109  13.299
86845W        W55239  22.197  13.204  10.457
86846W        W55240  24.186   1.242  11.733
86847W        W55241  17.696   9.481   4.584
86848W        W55242  36.315  38.552   1.195
86849W        W55243  16.799   9.632  14.547
86850W        W55244  19.662  16.659   4.602
86851W        W55245   2.869   9.881  12.380
86852W        W55246  24.651   3.696   0.040
86853W        W55247  44.166  20.984   2.207
86854W        W55248   9.513  44.971   1.755
86855W        W55249  40.053  19.352  13.283
86856W        W55250  12.821  40.312   4.104
86857W        W55251  10.215  20.368  13.046
86858W        W55252  11.786  25.081  14.738
86859W        W55253  41.384  38.454   3.368
86860W        W55254   7.718  20.288   4.674
86861W        W55255  42.339  39.685  11.100
86862W        W55256   9.594  11.959   4.177
86863W        W55257  24.577  41.541  10.760
86864W        W55258  19.519  18.674  12.139
86865W        W55259  18.260  34.641  12.881
86866W        W55260  15.814  27.573  10.176
86867W        W55261  28.993  13.348  11.112
86868W        W55262   4.200  14.861   1.613
86869W        W55263  32.646  13.294  14.485
86870W        W55264  40.837  31.740  14.802
86871W        W55265   2.378  35.569   3.301
86872W        W55266  23.815   8.631   5.454
86873W        W55267   6.145   7.421   1.293
86874W        W55268  35.987  43.343  11.676
86875W        W55269  34.530  32.466   4.384
86876W        W55270  39.829   7.815   3.249
86877W        W55271  34.927  29.674  13.380
86878W        W55272  18.387  21.021   3.191
86879W        W55273  15.038  39.033  11.536
86880W        W55274  24.128  31.686  11.026
86881W        W55275  17.196  24.539  11.137
86882W        W55276   9.745  27.595  10.707
86883W        W55277   6.755  44.917  10.976
86884W        W55278  37.838  21.769  11.191
86885W        W55279  33.066   4.808  13.315
86886W        W55280  11.763  31.206  12.985
86887W        W55281   8.726  31.769   1.342
86888W        W55282   6.369   2.650  14.485
86889W        W55283  31.172   7.964  11.648
86890W        W55284  17.299  25.749   0.251
86891W        W55285   5.127  24.268   0.206
86892W        W55286   7.325   2.939  14.447
86893W        W55287  28.965  29.964  12.781
86894W        W55288  43.083  20.464  10.628
86895W        W55289  10.784  21.019  10.846
86896W        W55290  25.034  11.168   3.096
86897W        W55291   3.781  19.744  12.476
86898W        W55292  40.267  13.168  11.014
86899W        W55293  28.396  39.031  13.546
86900W        W55294  18.324  24.019  11.597
86901W        W55295  39.303   0.253   3.156
86902W        W55296   5.424  18.987   0.622
86903W        W55297  26.638  33.380   2.345
86904W        W55298  20.232  31.675  11.246
86905W        W55299   7.442  27.020  11.123
86906W        W55300  40.696  24.101   3.711
86907W        W55301  35.087   3.224  10.744
86908W        W55302  28.733  12.682  13.123
86909W        W55303  12.614  25.002  13.400
86910W        W55304  22.820  26.728  14.957
86911W        W55305  44.978  22.550  12.528
86912W        W55306   4.602   3.154   3.712
86913W        W55307  38.581  34.124  14.986
86914W        W55308   9.305  43.539  12.885
86915W        W55309  12.088  26.200  12.660
86916W        W55310  19.594  20.159   0.949
86917W        W55311  24.120  11.451   2.778
86918W        W55312  11.366  21.330   4.148
86919W        W55313   3.271  13.442   3.643
86920W        W55314   4.247  11.329   0.852
86921W        W55315  39.438  11.088   3.949
86922W        W55316  25.665   8.099   3.314
86923W        W55317  18.005  34.600  13.848
86924W        W55318  10.679  39.805  10.918
86925W        W55319  36.397  21.242   2.196
86926W        W55320   1.851  24.788   3.757
86927W        W55321  33.642  15.694   4.557
86928W        W55322  35.353  24.213  12.949
86929W        W55323  28.477  25.211  12.978
86930W        W55324  35.334  35.071  13.867
86931W        W55325  24.635  23.459   0.010
86932W        W55326  40.479   1.446   4.677
86933W        W55327  32.354  22.461  13.431
86934W        W55328   7.950   5.347  11.333
86935W        W55329   7.668  28.027   4.954
86936W        W55330  13.849  27.101   1.280
86937W        W55331   9.829  34.115   3.080
86938W        W55332  23.145  44.328   4.750
86939W        W55333  33.334  35.550   2.783
86940W        W55334   5.031  39.882   2.421
86941W        W55335   6.829  40.730   0.002
86942W        W55336  21.436  24.527  14.510
86943W        W55337  42.532   4.168   0.373
86944W        W55338  36.567   2.763  11.321
86945W        W55339  24.913  16.593   3.731
86946W        W55340  10.171  24.551  13.490
86947W        W55341  15.070   6.273   1.173
86948W        W55342  36.441  12.721  11.082
86949W        W55343  22.571   6.354   5.146
86950W        W55344  35.047  38.221   4.243
86951W        W55345  14.442  35.361   3.406
86952W        W55346  31.629  37.768   3.773
86953W        W55347  20.564  39.937  14.323
86954W        W55348   8.312   7.407   4.408
86955W        W55349   7.873  12.807  14.401
86956W        W55350  39.326  35.702  12.586
86957W        W55351   7.264  36.432  14.816
86958W        W55352  15.049  17.605   1.827
86959W        W55353  25.339   5.126   4.237
86960W        W55354   1.705  29.237  14.300
86961W        W55355  31.735  18.187  13.578
86962W        W55356  11.345  24.028   0.890
86963W        W55357  37.918  27.639  11.371
86964W        W55358  42.363   6.281  12.515
86965W        W55359  42.512  24.493  12.467
86966W        W55360   2.705  16.764  14.000
86967W        W55361  43.466  11.197  11.304
86968W        W55362   0.367   7.015   4.663
86969W        W55363   7.902  42.380  12.473
86970W        W55364  40.378   3.627  12.496
86971W        W55365   1.224  20.469   0.925
86972W        W55366  43.286  38.878  12.953
86973W        W55367  35.910  30.271   0.381
86974W        W55368  18.481  32.026   1.974
86975W        W55369  30.267   7.238  12.616
86976W        W55370   3.637  19.326   4.637
86977W        W55371  12.444  28.666   2.805
86978W        W55372   4.986  10.646  14.815
86979W        W55373  24.561  32.654  13.276
86980W        W55374  20.740   8.060  12.903
86981W        W55375  30.640  41.371  14.733
86982W        W55376  14.761  11.080  12.457
86983W        W55377  14.583  26.204  11.097
86984W        W55378   2.542   8.607  13.365
86985W        W55379  21.137   8.897  12.875
86986W        W55380  31.950   2.930   3.259
86987W        W55381  15.258  23.131   3.714
86988W        W55382  22.044  23.179  10.575
86989W        W55383  40.820   7.102  11.603
86990W        W55384   6.780  24.523  13.377
86991W        W55385   7.914  19.242  14.481
86992W        W55386  29.852   6.886   1.763
86993W        W55387  10.816  16.806   4.571
86994W        W55388   1.923  34.815   3.144
86995W        W55389  19.561  20.716   2.343
86996W        W55390  11.640  26.466   2.939
86997W        W55391  11.815  35.768   2.800
86998W        W55392  10.257   4.204   2.251
86999W        W55393   7.399  23.234  13.480
87000W        W55394  12.281   5.581   1.384
87001W        W55395  18.294  20.597  13.925
87002W        W55396  30.878  36.318  13.381
87003W        W55397  42.858   6.814  11.926
87004W        W55398  17.699  35.041   0.816
87005W        W55399  15.326  12.607   0.877
87006W        W55400  19.513  37.854   4.114
87007W        W55401  35.998   7.011  11.488
87008W        W55402  19.696   2.971  12.156
87009W        W55403  30.052  39.532  13.210
87010W        W55404  17.269  16.355  10.613
87011W        W55405  37.303  16.609  12.820
87012W        W55406  18.600  25.882   3.674
87013W        W55407   7.067  42.325   1.325
87014W        W55408   3.010  20.030  11.025
87015W        W55409  23.422  34.384  14.918
87016W        W55410  14.252  34.876  13.666
87017W        W55411  38.443  23.580  11.106
87018W        W55412   1.772  43.491  12.084
87019W        W55413  36.069  34.419  10.875
87020W        W55414   2.428  33.909  11.065
87021W        W55415   5.445  27.109   1.281
87022W        W55416  43.141   6.244   3.298
87023W        W55417  25.701  25.145   0.767
87024W        W55418  44.349   2.920   3.408
87025W        W55419  12.623   9.195  13.068
87026W        W55420   8.981   4.910   2.777
87027W        W55421   2.403   9.344   3.729
87028W        W55422  32.324  25.608   1.748
87029W        W55423   5.941  23.073  11.285
87030W        W55424  20.486  30.672  13.826
87031W        W55425  42.715  19.631  13.905
87032W        W55426  30.207  29.040   0.908
87033W        W55427  19.576   1.237   2.927
87034W        W55428  26.063   9.735  11.284
87035W        W55429  21.710  36.415  10.672
87036W        W55430   9.686  19.094  12.936
87037W        W55431  31.579   0.071  11.510
87038W        W55432  11.870  33.895  14.355
87039W        W55433   4.925  36.097  10.031
87040W        W55434  37.877  33.980   2.261
87041W        W55435   0.303  14.231  14.709
87042W        W55436  22.606  38.127   3.214
87043W        W55437  14.131  23.029  12.105
87044W        W55438  33.031  41.275  11.696
87045W        W55439  23.429  42.069  12.640
87046W        W55440  30.099  44.459   0.858
87047W        W55441   6.199  30.899  13.871
87048W        W55442   4.300  13.722  12.570
87049W        W55443   3.781  23.457   2.785
87050W        W55444   9.686  23.659   0.269
87051W        W55445  22.622   4.680   1.850
87052W        W55446  17.650  27.475  13.423
87053W        W55447  11.557   1.331   3.713
87054W        W55448   0.588  25.580  14.844
87055W        W55449  35.485  22.106  14.085
87056W        W55450  42.351  39.424   0.427
87057W        W55451  19.169  26.151  11.548
87058W        W55452  22.963  14.618  11.539
87059W        W55453  41.088   6.268   3.234
87060W        W55454  15.300  14.149  13.674
87061W        W55455  18.981  28.642   5.248
87062W        W55456  28.668  25.236   4.560
87063W        W55457  11.989   5.705   3.164
87064W        W55458  44.402  27.028  12.832
87065W        W55459  18.117  14.054   4.134
87066W        W55460  26.476  20.510   3.294
87067W        W55461  37.124   7.327   0.398
87068W        W55462   1.834  15.191   4.626
87069W        W55463  36.489  12.702  14.582
87070W        W55464   4.544  12.613   0.459
87071W        W55465  14.218  41.542   1.083
87072W        W55466   0.769   9.593   3.428
87073W        W55467  22.237  30.375  12.619
87074W        W55468  39.320  37.641  11.822
87075W        W55469  13.762  33.626  11.084
87076W        W55470   4.607   2.414   0.163
87077W        W55471   1.327   3.553  14.682
87078W        W55472  17.795  22.952  11.583
87079W        W55473  17.476   9.359  13.476
87080W        W55474  27.823  17.379  13.561
87081W        W55475  19.267  28.266  12.259
87082W        W55476  42.405   0.526   4.956
87083W        W55477  14.321  15.089   0.349
87084W        W55478  11.460  32.571   1.731
87085W        W55479  13.083   1.994   0.681
87086W        W55480  24.549  14.986   2.277
87087W        W55481  29.888   2.516  13.816
87088W        W55482  26.543  34.008   1.271
87089W        W55483  31.334  36.488   0.327
87090W        W55484  20.461  31.078  10.702
87091W        W55485  26.583  22.246   2.176
87092W        W55486  20.767  32.298   1.381
87093W        W55487  27.525  40.992  11.958
87094W        W55488   7.737  34.661   0.462
87095W        W55489  18.143  15.116   2.039
87096W        W55490  38.955   0.838  11.125
87097W        W55491  35.009  35.345  14.730
87098W        W55492  36.516  31.836   3.548
87099W        W55493  34.076   0.377   0.712
87100W        W55494  31.670  14.271  11.027
87101W        W55495   8.362  24.210   0.800
87102W        W55496  36.239  11.201   3.648
87103W        W55497  29.885  39.928  13.468
87104W        W55498  38.024   9.106   4.161
87105W        W55499  32.429  37.341   0.454
87106W        W55500  34.467   2.722  14.940
87107W        W55501  13.823   1.899   3.151
87108W        W55502   6.779   3.364   1.851
87109W        W55503  14.816  11.634   4.455
87110W        W55504  31.903  23.491   0.537
87111W        W55505   5.872  21.763  12.528
87112W        W55506  35.531  22.190   0.091
87113W        W55507  11.275  32.131  11.341
87114W        W55508  44.889  42.022   3.787
87115W        W55509  15.149  27.160   3.266
87116W        W55510  24.337  40.770   2.825
87117W        W55511  26.741  44.778   0.683
87118W        W55512  44.270  36.117  11.031
87119W        W55513  20.629  39.627   1.309
87120W        W55514  35.353  37.298  14.731
87121W        W55515  39.786  33.263  14.921
87122W        W55516  17.165  38.926  13.843
87123W        W55517  33.337  44.800   0.014
87124W        W55518   6.767  10.761   1.155
87125W        W55519  40.329  30.544   0.850
87126W        W55520  13.460  12.132   0.754
87127W        W55521   6.795  42.925   5.022
87128W        W55522  13.697  33.870  10.618
87129W        W55523  31.755  29.159  14.726
87130W        W55524  10.642  22.398  10.701
87131W        W55525   5.431  17.125   2.812
87132W        W55526  31.030  16.661  13.785
87133W        W55527  19.675   9.676   0.814
87134W        W55528  35.166  24.204  11.634
87135W        W55529  31.474  36.391   0.825
87136W        W55530  10.464   8.798   3.315
87137W        W55531  23.738   8.311   2.959
87138W        W55532  42.885  24.173   4.287
87139W        W55533  33.766  39.542  13.106
87140W        W55534  30.627  30.201  13.963
87141W        W55535  40.505   4.635  12.411
87142W        W55536  27.239  31.664  12.523
87143W        W55537  23.339  21.852   3.640
87144W        W55538  19.715   2.403  11.260
87145W        W55539  23.725  41.975   0.166
87146W        W55540  26.379  15.297   1.300
87147W        W55541   3.037  33.756  13.018
87148W        W55542  34.500  31.621  10.459
87149W        W55543  35.051  11.838  13.970
87150W        W55544  10.803   9.824  13.645
87151W        W55545  36.525  29.809  13.472
87152W        W55546   2.472   7.010  14.934
87153W        W55547  12.347   3.879  14.788
87154W        W55548  12.113  38.942  14.342
87155W        W55549  24.938  18.557  14.406
87156W        W55550  30.114  37.786  12.514
87157W        W55551   2.091  18.622  12.467
87158W        W55552  44.448  43.320  11.923
87159W        W55553  23.917  10.222   2.323
87160W        W55554  26.533  21.314   2.726
87161W        W55555  24.148  39.129  10.232
87162W        W55556   2.795   4.131   1.143
87163W        W55557   8.961  42.357   4.974
87164W        W55558   6.224   0.410  11.600
87165W        W55559  18.320  13.183   1.353
87166W        W55560   6.745  33.365  12.909
87167W        W55561   4.388  43.829   4.819
87168W        W55562   5.925  43.821  13.372
87169W        W55563  18.013  12.769   4.831
87170W        W55564  17.047  33.208  13.986
87171W        W55565  37.856   6.130   1.791
87172W        W55566   1.433   9.600  13.999
87173W        W55567  19.751  40.157  12.862
87174W        W55568  15.804  14.751   2.640
87175W        W55569  36.790  22.496  14.434
87176W        W55570  23.910  31.142   1.831
87177W        W55571  24.146  15.841  14.130
87178W        W55572  43.403  39.016   0.980
87179W        W55573  33.968  42.494   0.385
87180W        W55574  28.702  35.512   0.990
87181W        W55575  36.030  10.557  12.581
87182W        W55576  12.689   1.962   1.918
87183W        W55577  28.708  11.591   2.735
87184W        W55578  19.769  32.702  11.783
87185W        W55579   0.988  38.035   0.015
87186W        W55580  34.930  41.396  12.433
87187W        W55581  31.137   9.709  10.633
87188W        W55582  29.964   8.763   0.061
87189W        W55583  12.929   6.831   0.807
87190W        W55584   1.385  42.019   1.712
87191W        W55585   4.816  10.787   3.626
87192W        W55586  35.795  11.810   4.173
87193W        W55587  39.029  17.058  13.467
87194W        W55588  44.581   9.949  13.273
87195W        W55589   7.724  19.658  10.776
87196W        W55590  30.628  13.627   1.687
87197W        W55591  19.321  32.146   4.453
87198W        W55592   7.625  20.697   0.745
87199W        W55593  31.980  42.373   2.299
87200W        W55594  13.240  29.902  13.749
87201W        W55595  30.843  32.868   2.523
87202W        W55596   5.476   1.738  13.911
87203W        W55597   8.641  40.432   1.800
87204W        W55598  38.852   3.711   4.164
87205W        W55599   6.210  17.189   2.269
87206W        W55600  41.018  21.665  13.594
87207W        W55601  11.863  21.754  11.900
87208W        W55602  11.510   0.393  13.233
87209W        W55603  17.195   0.289  11.551
87210W        W55604   7.828  38.051   2.379
87211W        W55605  36.061  31.083   4.522
87212W        W55606   0.409   1.677   3.000
87213W        W55607   5.089  15.722   1.717
87214W        W55608  14.573  40.556  10.673
87215W        W55609   8.778   7.673   2.412
87216W        W55610  15.268  28.958  13.869
87217W        W55611   1.773   5.328  13.060
87218W        W55612  43.082   1.513   1.790
87219W        W55613  23.505  43.904   4.794
87220W        W55614  28.872  29.951  14.381
87221W        W55615  33.451  21.032   0.315
87222W        W55616  10.394  24.189  13.767
87223W        W55617   0.534   0.094   2.430
87224W        W55618  34.903   4.468   0.237
87225W        W55619  24.629  16.362   0.203
87226W        W55620   9.179   1.326   3.748
87227W        W55621  14.180  11.523   2.353
87228W        W55622  13.156  17.565   0.319
87229W        W55623  17.989  11.330  11.970
87230W        W55624  13.386  37.655   3.194
87231W        W55625  17.163  44.312  14.392
87232W        W55626  14.777  13.725   5.066
87233W        W55627   2.044  25.288  11.150
87234W        W55628  18.821  23.975  11.517
87235W        W55629  16.172  23.021  11.069
87236W        W55630  29.458  23.665  11.680
87237W        W55631  29.298  29.997  14.045
87238W        W55632  14.044  34.661  10.582
87239W        W55633  12.263  27.874  13.073
87240W        W55634  26.076  41.505  14.525
87241W        W55635  10.914  20.148  14.005
87242W        W55636  13.049  23.404   4.569
87243W        W55637  40.840  44.905   3.114
87244W        W55638   8.797  24.038   4.136
87245W        W55639  28.311   5.324  12.115
87246W        W55640  19.003  34.091   1.241
87247W        W55641  43.376   2.896  13.328
87248W        W55642  17.120  31.771   2.499
87249W        W55643   3.303  17.223   1.219
87250W        W55644  11.827  28.671   0.971
87251W        W55645  25.882  41.309  12.631
87252W        W55646   9.116   0.772  11.897
87253W        W55647  22.546  31.104  12.080
87254W        W55648  30.057  37.602  12.048
87255W        W55649  10.333  32.316   0.237
87256W        W55650  29.195  35.818  11.101
87257W        W55651  38.540  27.446   3.321
87258W        W55652  19.786  18.600   2.766
87259W        W55653  40.035  36.762  10.499
87260W        W55654  41.366  12.063   0.790
87261W        W55655  11.876  25.021  12.107
87262W        W55656  31.789   4.570   0.887
87263W        W55657  38.567  13.740  11.644
87264W        W55658  42.823  28.644   1.722
87265W        W55659  32.115  43.355  12.302
87266W        W55660   2.297  36.385  13.314
87267W        W55661  14.714  21.334  13.903
87268W        W55662  38.722  29.098   3.953
87269W        W55663  35.821  39.230   2.171
87270W        W55664   2.349  25.157  14.907
87271W        W55665  32.382   6.241  13.075
87272W        W55666  37.350   6.727  13.071
87273W        W55667  26.364  28.719  11.228
87274W        W55668   6.109  11.576  11.166
87275W        W55669  20.095  31.585  14.203
87276W        W55670  16.400   9.619   5.053
87277W        W55671  33.860  35.061   3.277
87278W        W55672  40.081  34.306  12.479
87279W        W55673  16.636  12.545   2.308
87280W        W55674  37.535  17.737  14.442
87281W        W55675   2.890  31.426   3.906
87282W        W55676  25.703  41.349  11.578
87283W        W55677  39.909   5.454   2.261
87284W        W55678  41.910  41.515   0.659
87285W        W55679  26.669  44.425  11.209
87286W        W55680  15.382  37.934  14.500
87287W        W55681  27.936  16.275  14.780
87288W        W55682  40.516  21.616  13.542
87289W        W55683  10.594  17.124  10.720
87290W        W55684   8.387  37.446  13.521
87291W        W55685   5.797  22.306  14.523
87292W        W55686  13.205  34.828   4.786
87293W        W55687  38.488  25.479   1.852
87294W        W55688  16.640  17.788   4.042
87295W        W55689   2.422  17.125  13.363
87296W        W55690  15.646   2.491   2.634
87297W        W55691  29.930  21.636   3.714
87298W        W55692   3.231  20.321  11.922
87299W        W55693  16.622   0.627  13.397
87300W        W55694  42.428  27.477  14.206
87301W        W55695  37.643   7.231   0.359
87302W        W55696  25.197  25.129   0.956
87303W        W55697   3.278   8.622   1.739
87304W        W55698  38.457   9.994  12.151
87305W        W55699   5.213  16.408  11.548
87306W        W55700  33.961  31.282  10.483
87307W        W55701  16.609  12.862   3.251
87308W        W55702   5.777  44.234   1.140
87309W        W55703  15.785  25.049  11.708
87310W        W55704  15.340   7.488  12.093
87311W        W55705   1.289  31.648  11.109
87312W        W55706  29.180  35.518  12.465
87313W        W55707   5.438  24.982  12.955
87314W        W55708  27.005  41.409   4.155
87315W        W55709  21.551  36.901   1.610
87316W        W55710  26.761  17.337  11.177
87317W        W55711   7.164  43.052   4.136
87318W        W55712  15.524   7.183   2.936
87319W        W55713  38.786  35.912   2.572
87320W        W55714   7.886  37.499  11.575
87321W        W55715   3.267  17.802  11.623
87322W        W55716  34.292   3.204  14.065
87323W        W55717  13.673  22.046   2.395
87324W        W55718  20.341  37.226  10.174
87325W        W55719  21.690   9.210   3.133
87326W        W55720  33.358  11.663  14.376
87327W        W55721  16.087  44.365  14.451
87328W        W55722  43.729  26.011  10.686
87329W        W55723   4.633  24.362   4.227
87330W        W55724  28.475  12.672  14.420
87331W        W55725  26.507  36.616  11.262
87332W        W55726  16.176   2.059  14.069
87333W        W55727  43.500  28.260   3.794
87334W        W55728   1.178  40.985   1.663
87335W        W55729   7.757  13.258   2.271
87336W        W55730  11.592  17.213  10.758
87337W        W55731  10.731  15.966  11.348
87338W        W55732  23.571  30.675   3.390
87339W        W55733  43.384  23.131   1.890
87340W        W55734   8.441  44.816  14.483
87341W        W55735  15.863  30.694  13.823
87342W        W55736  11.422  13.581   2.330
87343W        W55737  40.357  19.220   1.794
87344W        W55738   6.227  40.142   4.858
87345W        W55739  40.083  41.341  13.289
87346W        W55740  17.032  34.906  12.879
87347W        W55741  42.065  18.106   4.535
87348W        W55742  26.949  11.074  14.015
87349W        W55743  43.782  10.131  14.917
87350W        W55744  24.420  43.005  13.465
87351W        W55745   1.237  38.009  12.521
87352W        W55746  24.606  37.268  11.700
87353W        W55747  24.211   4.454  11.506
87354W        W55748  24.079  42.295   1.728
87355W        W55749   7.255  16.578  12.991
87356W        W55750   0.491  35.365  14.089
87357W        W55751  30.131  21.945   0.891
87358W        W55752  19.023  23.494  13.881
87359W        W55753  39.248  21.127  12.753
87360W        W55754  25.549  40.101  10.707
87361W        W55755  21.453  34.517   0.468
87362W        W55756  30.706  13.325  13.139
87363W        W55757   0.030  18.243   4.927
87364W        W55758  18.532   9.704   1.767
87365W        W55759   1.198  13.756   0.162
87366W        W55760  28.980  18.625  12.540
87367W        W55761  41.710  24.483   2.159
87368W        W55762   6.283  43.913   4.294
87369W        W55763  25.114  19.249   1.469
87370W        W55764  23.091   7.834  10.741
87371W        W55765  30.883  37.739   1.756
87372W        W55766   3.115  11.185   4.431
87373W        W55767  34.408   1.787  12.071
87374W        W55768  43.499  43.934  14.425
87375W        W55769  37.781  34.490   2.316
87376W        W55770  43.902  21.061   4.372
87377W        W55771  11.657  11.875   0.554
87378W        W55772  20.691  24.845   4.790
87379W        W55773   1.004  24.075   3.747
87380W        W55774  31.712   5.777  14.709
87381W        W55775  25.994  10.164   3.342
87382W        W55776  17.011  24.935   1.003
87383W        W55777  26.705  22.988  11.332
87384W        W55778  19.631   0.574   0.386
87385W        W55779  31.335  14.011   0.483
87386W        W55780  12.416  29.255   3.754
87387W        W55781   1.932   5.350   4.807
87388W        W55782   2.267  12.569   0.797
87389W        W55783   8.242   3.818   4.082
87390W        W55784  26.069  39.346   2.233
87391W        W55785  38.428  23.178  12.198
87392W        W55786   9.670  35.493  11.093
87393W        W55787   2.695  34.167  12.946
87394W        W55788   3.825  32.540   4.898
87395W        W55789   5.917  42.792  13.459
87396W        W55790  43.500  37.592   1.196
87397W        W55791  19.587   3.759  12.664
87398W        W55792  11.196  35.016   2.767
87399W        W55793  21.516  41.488   2.790
87400W        W55794  39.491   8.715  14.054
87401W        W55795  20.231   7.625   0.193
87402W        W55796  42.874  14.933   0.770
87403W        W55797  43.959  25.472  13.874
87404W        W55798  10.891   8.840  14.824
87405W        W55799  30.376  18.759   1.761
87406W        W55800  32.515  37.174   1.423
87407W        W55801  16.630  39.147  11.477
87408W        W55802  15.432   8.481  10.330
87409W        W55803   1.070  20.670   4.327
87410W        W55804  13.957  30.716   0.868
87411W        W55805   2.119  15.789   3.096
87412W        W55806   3.251   8.101   1.632
87413W        W55807   3.208  40.477  10.843
87414W        W55808  16.357  42.537   4.152
87415W        W55809  42.723  31.606  14.813
87416W        W55810   3.445  24.208   4.321
87417W        W55811  34.112  16.326  12.615
87418W        W55812   8.826  27.743  10.890
87419W        W55813  31.025  17.084   1.903
87420W        W55814  24.219  13.201   2.429
87421W        W55815  19.441  31.293   1.109
87422W        W55816  23.006   4.869   2.763
87423W        W55817  12.630   9.898   2.595
87424W        W55818  25.677  37.613   4.028
87425W        W55819  12.323  40.401   1.771
87426W        W55820  17.244  24.201  13.861
87427W        W55821  37.873  42.944   4.573
87428W        W55822  23.947   1.934   4.333
87429W        W55823  11.465   5.456   0.824
87430W        W55824  13.484   2.924   2.525
87431W        W55825  42.152  29.069   1.397
87432W        W55826  13.759  31.464  11.581
87433W        W55827  19.328  35.657  11.900
87434W        W55828  15.243   4.488  10.245
87435W        W55829  15.213  13.931  12.654
87436W        W55830  35.029  29.949   1.906
87437W        W55831  34.412   7.052  12.535
87438W        W55832   1.038  37.560  13.438
87439W        W55833  24.417  13.879  10.329
87440W        W55834  27.712  38.446  14.469
87441W        W55835  22.299  35.619  12.417
87442W        W55836  20.253  36.838  10.974
87443W        W55837  36.085  37.087  12.620
87444W        W55838  22.600  28.079  14.048
87445W        W55839  32.906  27.162  10.367
87446W        W55840  24.182  31.706  13.839
87447W        W55841  29.902  32.446  13.898
87448W        W55842  28.868   5.483  10.700
87449W        W55843  37.460   5.837   2.806
87450W        W55844  44.728  33.116  14.905
87451W        W55845  22.269   3.347   3.671
87452W        W55846  30.436  38.625   3.164
87453W        W55847  23.604  41.508   1.379
87454W        W55848  19.187  11.628   1.280
87455W        W55849  23.774   2.020  14.640
87456W        W55850  25.454  31.509  14.851
87457W        W55851  27.111   7.328  10.835
87458W        W55852  23.371  39.435   2.213
87459W        W55853  24.647  37.906   0.893
87460W        W55854   0.782  14.223  14.461
87461W        W55855  25.515  15.608  12.986
87462W        W55856  10.757  12.770  11.377
87463W        W55857  32.139  33.942   2.339
87464W        W55858  19.803  29.980  11.571
87465W        W55859   2.867  25.241  14.922
87466W        W55860  37.899  23.648  11.087
87467W        W55861  37.665  30.832  11.988
87468W        W55862  20.332  24.931  12.016
87469W        W55863  14.776  23.124  14.971
87470W        W55864  41.371   3.409   2.199
87471W        W55865  24.041  11.302   1.411
87472W        W55866  26.979   1.466   4.839
87473W        W55867  10.386  24.804  13.078
87474W        W55868  16.554   6.903  13.006
87475W        W55869  20.071  38.827  12.848
87476W        W55870  28.234  26.093  10.483
87477W        W55871  44.883  44.022   3.332
87478W        W55872  15.243   3.728   3.879
87479W        W55873  14.782  11.397  10.050
87480W        W55874   0.406  37.125  12.369
87481W        W55875  44.313  28.718   2.616
87482W        W55876  14.102  43.629  11.562
87483W        W55877   5.369   3.783  11.768
87484W        W55878  17.163  20.772  14.424
87485W        W55879   9.953  40.991   0.880
87486W        W55880  14.126  26.091  14.262
87487W        W55881  15.612  33.910   2.810
87488W        W55882  43.373   0.986   1.003
87489W        W55883  18.742   2.764   4.697
87490W        W55884   1.239   6.203  12.893
87491W        W55885  18.590  11.152   0.748
87492W        W55886  22.562  28.988  12.747
87493W        W55887   0.169  19.534   1.835
87494W        W55888  39.419  29.994  11.466
87495W        W55889   1.360  18.840   3.180
87496W        W55890  22.744  19.396   4.150
87497W        W55891  27.070  32.096  12.769
87498W        W55892  42.978  10.680   2.366
87499W        W55893  39.525   4.789   2.789
87500W        W55894  18.049  24.469  12.953
87501W        W55895  20.744  25.572   1.759
87502W        W55896  20.462  31.926   3.341
87503W        W55897   1.998  36.160   3.428
87504W        W55898  40.893  24.923  12.534
87505W        W55899   2.662  17.698  10.985
87506W        W55900  18.653  13.841   0.796
87507W        W55901  39.829   8.824  13.360
87508W        W55902  27.044  32.065   1.265
87509W        W55903  32.360  24.067   2.879
87510W        W55904  32.231  16.522  11.190
87511W        W55905  24.995  14.398   0.617
87512W        W55906  42.256  18.601  10.485
87513W        W55907  40.027  11.093   1.575
87514W        W55908  29.944  14.594  13.330
87515W        W55909  28.996  18.042   0.335
87516W        W55910  42.910   5.392  11.097
87517W        W55911  12.070  15.204   3.183
87518W        W55912  12.532   4.918  11.647
87519W        W55913   8.622   5.704  14.835
87520W        W55914   8.342  39.070  13.107
87521W        W55915  13.814  27.436   4.961
87522W        W55916  21.533  36.490  14.288
87523W        W55917  11.161  33.963   1.834
87524W        W55918  22.289  35.376  11.876
87525W        W55919  39.277  15.726   4.107
87526W        W55920  35.855  16.532  12.903
87527W        W55921  20.259  15.076  10.226
87528W        W55922  42.935   5.956  10.432
87529W        W55923  24.520   4.304   3.326
87530W        W55924  18.921  40.479  14.450
87531W        W55925  20.301   5.011   1.226
87532W        W55926   3.505  25.919   0.388
87533W        W55927  25.142  28.143  11.857
87534W        W55928  35.152   6.303   0.806
87535W        W55929  17.035  44.820  10.811
87536W        W55930  16.258  31.352  11.452
87537W        W55931   5.347  42.345   0.714
87538W        W55932  35.453  40.073  12.787
87539W        W55933   1.955   1.523  11.590
87540W        W55934  11.131  21.644   2.437
87541W        W55935   0.154   8.457  12.686
87542W        W55936   4.276  36.478   3.728
87543W        W55937   5.394  15.897   0.287
87544W        W55938   8.918  18.710   2.876
87545W        W55939  14.609  21.830   1.802
87546W        W55940  12.805  35.755   0.057
87547W        W55941  13.058  34.389   1.803
87548W        W55942  33.239  19.357   4.593
87549W        W55943   0.557   6.207   4.802
87550W        W55944   0.456  36.352   9.749
87551W        W55945   5.418  26.942  14.833
87552W        W55946  23.490  12.709   0.021
87553W        W55947  30.836   4.366  13.858
87554W        W55948   5.259  21.675   0.444
87555W        W55949  19.583   0.754  14.502
87556W        W55950  20.084  16.812   2.151
87557W        W55951  42.302   8.970  13.722
87558W        W55952  27.574  14.238   4.888
87559W        W55953  36.533  27.179  11.531
87560W        W55954  36.564  20.402   4.814
87561W        W55955   2.095  32.395   5.171
87562W        W55956  15.060  32.018   2.944
87563W        W55957  12.276  16.235  11.490
87564W        W55958  25.096  38.410   4.175
87565W        W55959  18.229  36.890  14.816
87566W        W55960  40.023   5.802  10.942
87567W        W55961  39.472  36.979  11.092
87568W        W55962  21.003  11.794  11.897
87569W        W55963  33.539  42.764  11.220
87570W        W55964  14.171   5.435   3.678
87571W        W55965   7.644  27.999   1.693
87572W        W55966  40.098   0.405   4.793
87573W        W55967  42.255  21.191  12.445
87574W        W55968  36.977   4.458   4.754
87575W        W55969   0.344  11.622  13.351
87576W        W55970  18.985  17.164  11.456
87577W        W55971   1.283  25.465   3.605
87578W        W55972  14.673  21.407  10.801
87579W        W55973  31.874  24.844   2.718
87580W        W55974  31.151  19.651  10.678
87581W        W55975  16.611  41.969  12.657
87582W        W55976  44.198   6.749  14.301
87583W        W55977  28.027   1.997  14.018
87584W        W55978   1.150  37.768  11.653
87585W        W55979  28.436  41.157  12.395
87586W        W55980  10.869  22.803   3.079
87587W        W55981  44.894  36.640  10.737
87588W        W55982  37.605  21.585   2.840
87589W        W55983  12.718  15.673  10.399
87590W        W55984  17.264   5.394   0.833
87591W        W55985  19.849  17.204  12.828
87592W        W55986  35.428  31.486  14.323
87593W        W55987  33.315  27.572  10.216
87594W        W55988  35.134  43.447  13.853
87595W        W55989  18.434  43.196  13.521
87596W        W55990  23.257  44.863  13.814
87597W        W55991   6.346  14.941   1.811
87598W        W55992  28.574  13.825   4.622
87599W        W55993  14.332   7.490  12.290
87600W        W55994   2.207  36.590   2.400
87601W        W55995  12.615  32.022   1.652
87602W        W55996  20.972  26.983   4.104
87603W        W55997  14.621  41.909  14.559
87604W        W55998  29.927   3.824  13.330
87605W        W55999  36.369  15.588  11.939
87606W        W56000  27.631  34.194   0.194
87607W        W56001  29.216  29.734  11.591
87608W        W56002  37.894  10.292   4.546
87609W        W56003  26.943  18.466   1.383
87610W        W56004   0.508  40.836   0.756
87611W        W56005  41.313  41.466  14.067
87612W        W56006   0.329  29.037   3.170
87613W        W56007  19.667   7.868  10.600
87614W        W56008  11.737  18.750  10.760
87615W        W56009  17.146  20.829  12.533
87616W        W56010  39.190   5.847   4.088
87617W        W56011  12.379  42.442  13.355
87618W        W56012  15.654  21.477  10.735
87619W        W56013  42.965  13.354  11.568
87620W        W56014  30.779  38.817  14.353
87621W        W56015  18.062  39.958  11.495
87622W        W56016  43.037  13.608   0.415
87623W        W56017  31.915  26.353   0.835
87624W        W56018  37.130  22.911   0.185
87625W        W56019   2.377  34.516   3.202
87626W        W56020  36.822  42.912   4.561
87627W        W56021  39.080  25.648   1.900
87628W        W56022  36.302  29.998  10.659
87629W        W56023  34.557  16.219   0.410
87630W        W56024   3.715  25.219  12.710
87631W        W56025  25.722   1.713   2.409
87632W        W56026  24.205  23.155  14.956
87633W        W56027  35.002  33.066   2.271
87634W        W56028  31.174  31.191  11.383
87635W        W56029  12.312  22.634  13.449
87636W        W56030  32.110  11.587  12.046
87637W        W56031  38.486  33.092   1.890
87638W        W56032  31.141  14.730   3.159
87639W        W56033  37.287  20.695  13.415
87640W        W56034  20.628   4.020   3.143
87641W        W56035  43.737  13.792  14.833
87642W        W56036  10.323  33.638   3.126
87643W        W56037  14.715   1.246   1.658
87644W        W56038  40.538  34.638  10.416
87645W        W56039  38.166  12.235   2.353
87646W        W56040   8.088  26.227   0.758
87647W        W56041  29.944  40.012   4.652
87648W        W56042  10.142  16.694   4.337
87649W        W56043  11.830  29.027   1.365
87650W        W56044  44.340  41.723  11.563
87651W        W56045  40.793  13.224  12.254
87652W        W56046  44.400  12.876  10.352
87653W        W56047  13.248  11.416  13.786
87654W        W56048   3.746  19.093   4.156
87655W        W56049  16.917  39.864  10.682
87656W        W56050   2.279  42.973  13.901
87657W        W56051   3.488  22.266  12.964
87658W        W56052  43.747  31.883  13.827
87659W        W56053  21.533   9.376  13.656
87660W        W56054  42.615  37.466  12.466
87661W        W56055  42.843  25.152   2.506
87662W        W56056   9.560  41.562  13.432
87663W        W56057  40.955  42.806  11.691
87664W        W56058   2.356  26.109  13.798
87665W        W56059  12.728   2.459   2.492
87666W        W56060   0.957  33.969  11.644
87667W        W56061  34.785  22.959   0.402
87668W        W56062  31.974  10.605   0.335
87669W        W56063   7.377  14.657  14.719
87670W        W56064  34.595   9.263  13.742
87671W        W56065  10.098   4.147  13.082
87672W        W56066  18.127  31.728  12.343
87673W        W56067  13.624   4.863  12.429
87674W        W56068  35.479   3.724  14.275
87675W        W56069  14.064  38.734  10.676
87676W        W56070  34.593   0.143   4.113
87677W        W56071  32.720  19.084   1.208
87678W        W56072  40.777  39.009   0.364
87679W        W56073  17.823  41.910  10.613
87680W        W56074   7.444  23.954   2.748
87681W        W56075   3.315   1.893  10.566
87682W        W56076   3.060  31.793   0.711
87683W        W56077   2.909   7.499  13.031
87684W        W56078  13.540  41.599   1.293
87685W        W56079  18.385  30.433  13.028
87686W        W56080  36.922  43.064   0.309
87687W        W56081   5.403   1.134  13.092
87688W        W56082  42.785   3.771  14.054
87689W        W56083   0.863  34.516  12.888
87690W        W56084   7.476   1.908   3.324
87691W        W56085   9.238  28.006  11.082
87692W        W56086  41.757  28.925  10.853
87693W        W56087  20.791  22.193  13.433
87694W        W56088   2.253   6.325   0.312
87695W        W56089  21.967  39.776   1.335
87696W        W56090  30.872  13.646   4.317
87697W        W56091   2.281   8.830  12.973
87698W        W56092  11.608  19.673   2.357
87699W        W56093  36.028  18.617  13.252
87700W        W56094   4.386  18.852   0.356
87701W        W56095  37.919   3.740  12.918
87702W        W56096   7.742  43.952  12.934
87703W        W56097  43.977  13.651   0.793
87704W        W56098  25.389   8.209   2.503
87705W        W56099  42.325  21.726   0.793
87706W        W56100  37.084  41.483   0.300
87707W        W56101   9.261  35.891   2.257
87708W        W56102  27.664  26.450  13.968
87709W        W56103  17.117  23.467  11.997
87710W        W56104  18.695  10.831   1.813
87711W        W56105  33.496   4.831  11.116
87712W        W56106  38.074  32.334  13.724
87713W        W56107  42.002   4.711   2.239
87714W        W56108  27.089  26.786   2.304
87715W        W56109  37.009  40.665   3.373
87716W        W56110  10.762  23.507   4.171
87717W        W56111  36.299  14.618   2.293
87718W        W56112  21.491  26.884  12.444
87719W        W56113  20.940  32.918   2.881
87720W        W56114  42.477   8.909   1.035
87721W        W56115  25.964  20.750  12.638
87722W        W56116  27.600  24.561   4.814
87723W        W56117   8.587  19.652   2.901
87724W        W56118  15.592  12.906   2.659
87725W        W56119  22.269  10.172  14.501
87726W        W56120  29.107  41.075  14.428
87727W        W56121   5.745  22.586  12.162
87728W        W56122  28.622   3.355  14.599
87729W        W56123  24.646  42.430  14.921
87730W        W56124  36.977  15.998  11.207
87731W        W56125   0.792  34.488   0.833
87732W        W56126  36.028  14.566   3.771
87733W        W56127  14.768  32.948  13.870
87734W        W56128  35.363  24.334   0.698
87735W        W56129  42.361   9.413   1.157
87736W        W56130  13.252  28.100  12.781
87737W        W56131  11.380  37.878   4.078
87738W        W56132  39.449  44.428  13.196
87739W        W56133  38.874  38.023  12.840
87740W        W56134  35.086   2.475   2.964
87741W        W56135  19.568  25.620  12.064
87742W        W56136  29.560   5.821   0.018
87743W        W56137  26.161  29.595   4.603
87744W        W56138  14.638  22.977  10.653
87745W        W56139  27.438  35.092  13.309
87746W        W56140  12.128  10.411  11.021
87747W        W56141  43.355  19.831  12.586
87748W        W56142  28.006  13.735  13.065
87749W        W56143  40.201  43.400  12.487
87750W        W56144  29.087  30.183  11.877
87751W        W56145  19.153  21.082   0.407
87752W        W56146  37.406  20.754   1.096
87753W        W56147  24.961  23.908  11.073
87754W        W56148  20.818  21.269   0.031
87755W        W56149   3.856  44.728   1.727
87756W        W56150  40.334   8.664   0.283
87757W        W56151  22.653  36.905  12.896
87758W        W56152  29.473   0.546  13.507
87759W        W56153  19.657  42.419  13.945
87760W        W56154  39.078  12.877  13.470
87761W        W56155  15.328   9.131  10.831
87762W        W56156   3.994  34.904   0.911
87763W        W56157  36.085  11.047  12.730
87764W        W56158   7.299  39.532  14.553
87765W        W56159  37.113  25.977   2.264
87766W        W56160  25.119  20.682   2.802
87767W        W56161   9.168  33.873  13.815
87768W        W56162  21.430   5.717   3.566
87769W        W56163  31.691  40.366  12.546
87770W        W56164  11.259   0.362  11.437
87771W        W56165  10.325  32.495  12.043
87772W        W56166  34.541  33.445  11.852
87773W        W56167   0.018   0.456   0.853
87774W        W56168  28.259   7.844   0.794
87775W        W56169  36.809  39.268   4.471
87776W        W56170   1.867  39.554   1.282
87777W        W56171  11.804  38.104   3.157
87778W        W56172  23.659  21.312   4.301
87779W        W56173  23.494  22.951   2.356
87780W        W56174  18.042  16.659   4.064
87781W        W56175  32.382   0.481   1.379
87782W        W56176  44.889  40.235   3.341
87783W        W56177   6.549  44.285   1.016
87784W        W56178  12.663  19.665   0.919
87785W        W56179  13.748  31.019   2.543
87786W        W56180  43.518  39.537   1.337
87787W        W56181  21.764  13.132   0.029
87788W        W56182  13.734  14.543  13.380
87789W        W56183   0.401  41.575  12.576
87790W        W56184  29.645   1.773   1.273
87791W        W56185  40.783  14.623  11.997
87792W        W56186  22.605  20.789  10.700
87793W        W56187  13.303  39.102  11.135
87794W        W56188  28.513  17.694   2.232
87795W        W56189  42.288  25.956   4.432
87796W        W56190  14.602  29.422   1.943
87797W        W56191  21.140  23.662   1.901
87798W        W56192   6.198  27.107  13.866
87799W        W56193  44.535  35.801   3.660
87800W        W56194  31.946  33.315   1.502
87801W        W56195  12.658  27.877   1.046
87802W        W56196   8.216   4.240  14.303
87803W        W56197   4.412   7.488   4.075
87804W        W56198  17.625  11.355  12.382
87805W        W56199  10.625  12.162  13.204
87806W        W56200  38.895  17.555  13.317
87807W        W56201  10.311  16.806   0.862
87808W        W56202  24.290  12.437  12.052
87809W        W56203  21.109  31.715   3.379
87810W        W56204  25.976  28.555  14.827
87811W        W56205  28.191  40.103   1.484
87812W        W56206  15.156  31.504   4.170
87813W        W56207  32.741   4.176  14.373
87814W        W56208  11.316  21.679   1.951
87815W        W56209  37.425  19.138   3.257
87816W        W56210  27.171  33.008   1.667
87817W        W56211   8.823  44.862   3.307
87818W        W56212  14.403  24.232  14.334
87819W        W56213  14.938   2.855  13.950
87820W        W56214  19.055  11.131   2.135
87821W        W56215  20.769   7.809   4.620
87822W        W56216  14.420  39.086   3.582
87823W        W56217  34.939  38.434   2.817
87824W        W56218  30.709  16.255   2.258
87825W        W56219  40.502  32.491   0.895
87826W        W56220  40.265   6.335  14.475
87827W        W56221  33.747  11.296  11.467
87828W        W56222   4.276  28.877  13.998
87829W        W56223  25.237  13.615  11.780
87830W        W56224   7.703  33.843   2.931
87831W        W56225  10.598  42.742   0.021
87832W        W56226   5.360  14.615  14.884
87833W        W56227   0.818  40.530   1.514
87834W        W56228  29.399  16.378  14.942
87835W        W56229  35.411  12.692  14.262
87836W        W56230  23.775  41.441   3.316
87837W        W56231   3.640   7.977   4.327
87838W        W56232  11.358  25.660  13.586
87839W        W56233  30.649  43.426   0.294
87840W        W56234   8.970  29.166   3.690
87841W        W56235  17.203   4.006   3.926
87842W        W56236  31.313  11.726   0.166
87843W        W56237  28.411  30.498  10.675
87844W        W56238  35.388  42.563   4.744
87845W        W56239  14.793  43.874   2.822
87846W        W56240  35.138   4.110   1.986
87847W        W56241   9.688  34.356  13.855
87848W        W56242   2.409  26.936  13.057
87849W        W56243  15.275  25.099  13.863
87850W        W56244  16.690   3.539  14.319
87851W        W56245  21.459  10.863   0.802
87852W        W56246  27.910  40.541   4.189
87853W        W56247  28.229   0.859  10.538
87854W        W56248  39.877  24.478  11.596
87855W        W56249   3.762  19.780  14.463
87856W        W56250  38.745  39.378  14.448
87857W        W56251  21.301  39.309   0.860
87858W        W56252  33.890  18.045   3.712
87859W        W56253  11.769  16.052  11.533
87860W        W56254   3.396   3.565   3.286
87861W        W56255  35.497  31.820   1.696
87862W        W56256  43.258  27.894  14.900
87863W        W56257  15.629  13.541  10.743
87864W        W56258   3.914  31.093  11.950
87865W        W56259  30.083   1.301  10.359
87866W        W56260  30.042  35.191   2.321
87867W        W56261   0.837  29.054   1.397
87868W        W56262  14.206   5.722  13.501
87869W        W56263  21.850  33.086  13.272
87870W        W56264  43.040   4.227  14.015
87871W        W56265  13.750  18.678  13.446
87872W        W56266  17.356  11.831  14.505
87873W        W56267   3.299  25.173  14.606
87874W        W56268  12.132  25.236  14.246
87875W        W56269  31.938  40.347  14.908
87876W        W56270  16.385   9.816   2.840
87877W        W56271   1.943  17.050  10.679
87878W        W56272  12.268   7.901   4.093
87879W        W56273  34.657  21.537  11.211
87880W        W56274  29.954  20.709  12.105
87881W        W56275  10.236  22.966   2.452
87882W        W56276  13.224   1.879  12.892
87883W        W56277  39.807  33.449  12.038
87884W        W56278  11.310  18.301  14.374
87885W        W56279  15.074  44.529  11.014
87886W        W56280  25.995   2.893  11.570
87887W        W56281  39.372  42.714   2.719
87888W        W56282  23.757  37.627  12.093
87889W        W56283   0.247   1.860  10.701
87890W        W56284  39.091  42.950  12.929
87891W        W56285   1.843  29.515   5.110
87892W        W56286  30.129   2.998  12.344
87893W        W56287  37.416  13.551  13.165
87894W        W56288  43.833  29.270  11.453
87895W        W56289  44.322   2.504  11.566
87896W        W56290  12.330  17.592  11.910
87897W        W56291   6.173   2.907  10.118
87898W        W56292  27.035  36.477   3.302
87899W        W56293   4.616  35.923   1.193
87900W        W56294   7.154  32.137  10.668
87901W        W56295  15.624  16.337   1.267
87902W        W56296   4.527   9.233   4.061
87903W        W56297  33.403  39.490  11.425
87904W        W56298   0.911   2.679   4.260
87905W        W56299  35.353  24.497  13.417
87906W        W56300  28.610  31.081   4.248
87907W        W56301  42.831  13.365   0.843
87908W        W56302  22.302  44.853  14.015
87909W        W56303  23.034  22.870  11.397
87910W        W56304  23.066  30.584   3.625
87911W        W56305  23.270  23.470   0.040
87912W        W56306   7.341  33.424  10.657
87913W        W56307  23.354   7.112   4.963
87914W        W56308   6.703  38.494   2.703
87915W        W56309  36.846  11.659   4.177
87916W        W56310   3.364  31.669   2.724
87917W        W56311  40.936  22.686  10.557
87918W        W56312  27.950  25.164   4.103
87919W        W56313  29.085  27.597  13.126
87920W        W56314  28.007  24.748   3.338
87921W        W56315  38.357  40.425   1.366
87922W        W56316   0.265  19.771  14.006
87923W        W56317   9.134  19.732  11.579
87924W        W56318  16.811  24.874  11.157
87925W        W56319  19.547   4.349   0.187
87926W        W56320  43.221  24.717  14.835
87927W        W56321  27.255  14.150  14.295
87928W        W56322  14.792  11.391   4.003
87929W        W56323   6.157   8.339  12.174
87930W        W56324  29.868   2.778   0.247
87931W        W56325  35.311  20.533  11.295
87932W        W56326  18.739  26.717   3.150
87933W        W56327  20.781   9.826   0.923
87934W        W56328  37.408  38.023   2.849
87935W        W56329  37.436  15.754  11.107
87936W        W56330  37.374  43.495   2.814
87937W        W56331  23.522  38.836   3.593
87938W        W56332  32.043  17.332   2.170
87939W        W56333  13.847  34.135   3.339
87940W        W56334   0.892   5.355   4.624
87941W        W56335  19.532   5.272   2.741
87942W        W56336  29.487  12.017  13.786
87943W        W56337   8.335  33.892   2.445
87944W        W56338  36.963  44.494   2.397
87945W        W56339  30.556   5.111  14.589
87946W        W56340  26.754  14.062   1.870
87947W        W56341  24.550  33.571   2.183
87948W        W56342  42.399  37.311   4.059
87949W        W56343  10.745  29.881  13.556
87950W        W56344  28.575  38.366  10.732
87951W        W56345  42.631   0.757   0.481
87952W        W56346   3.043  32.009  13.908
87953W        W56347   8.826  35.060  14.824
87954W        W56348  34.143   7.766  14.943
87955W        W56349  36.549  18.254   1.679
87956W        W56350   8.114   5.483   0.870
87957W        W56351   7.802  33.058  14.986
87958W        W56352  16.704  15.528   3.406
87959W        W56353  27.150  38.486   0.363
87960W        W56354  24.308  24.511   2.813
87961W        W56355  33.116   6.658   2.208
87962W        W56356  13.259  20.974  13.086
87963W        W56357  12.311   3.796   1.880
87964W        W56358  26.474  15.226   4.157
87965W        W56359  20.361  24.710   9.591
87966W        W56360  27.447  36.345  11.071
87967W        W56361  30.067  39.683   2.113
87968W        W56362   9.171  40.070   2.655
87969W        W56363  44.396  16.467  12.558
87970W        W56364   3.361   4.713  10.764
87971W        W56365  15.713   4.263  10.112
87972W        W56366  13.459  28.103   1.292
87973W        W56367  34.555   6.203  12.923
87974W        W56368  11.988  40.343  11.082
87975W        W56369   0.869   3.868  13.865
87976W        W56370  41.049   4.020  14.075
87977W        W56371  28.677  20.200  12.882
87978W        W56372  30.315   5.781  13.461
87979W        W56373  24.680  33.502  13.917
87980W        W56374   9.025  39.768  12.186
87981W        W56375   5.466  22.727   2.165
87982W        W56376  26.421  39.075   3.155
87983W        W56377  31.187  37.606   1.329
87984W        W56378  12.800   3.418   3.668
87985W        W56379  44.258  41.350  13.469
87986W        W56380  37.309  38.936  12.040
87987W        W56381  37.242  20.042  12.451
87988W        W56382  43.029  32.020  13.033
87989W        W56383  26.157   4.914  10.714
87990W        W56384   4.198  13.705   1.799
87991W        W56385  24.158   2.947   1.142
87992W        W56386   2.318  32.098  10.681
87993W        W56387  30.188  30.516   0.370
87994W        W56388  33.486  22.158   1.224
87995W        W56389  39.849  20.576  13.045
87996W        W56390  19.330  10.844   1.743
87997W        W56391  19.907  16.876  11.519
87998W        W56392   7.758  27.087   4.935
87999W        W56393  13.638  39.121  12.422
88000W        W56394  13.094  32.584   4.993
88001W        W56395  23.592   9.757  14.294
88002W        W56396  17.562  14.575   1.286
88003W        W56397  43.019  29.094   4.161
88004W        W56398  37.091  34.902   2.544
88005W        W56399  25.458  42.879  11.650
88006W        W56400  10.026  13.819   1.225
88007W        W56401  38.459  24.960  14.950
88008W        W56402  17.523   8.738  12.957
88009W        W56403  36.326  22.088  11.684
88010W        W56404   6.803   5.658   5.036
88011W        W56405  10.652   3.556  12.116
88012W        W56406  13.088  22.691   2.902
88013W        W56407  38.934  24.908   1.249
88014W        W56408  32.503  24.079   3.915
88015W        W56409   8.398  43.090  10.252
88016W        W56410   9.356  31.684   0.261
88017W        W56411   5.547  23.539  12.997
88018W        W56412  18.770  18.244  13.069
88019W        W56413  44.483  34.681  13.449
88020W        W56414  31.914   3.156  12.278
88021W        W56415  10.341  26.943   3.141
88022W        W56416  24.652   7.178  14.432
88023W        W56417  22.790  36.890   3.770
88024W        W56418  32.651  32.599  11.227
88025W        W56419   9.298  23.460   1.846
88026W        W56420  32.252  24.764  12.362
88027W        W56421   4.160  26.812  11.017
88028W        W56422  43.808   2.241   0.341
88029W        W56423  26.948  36.204   1.054
88030W        W56424  23.718  16.001  14.387
88031W        W56425  40.252  19.379  12.554
88032W        W56426  21.560  22.331   0.710
88033W        W56427  44.419  12.053   2.344
88034W        W56428  42.036  42.264   4.186
88035W        W56429  36.633  11.330   2.319
88036W        W56430  23.409  21.053  11.580
88037W        W56431   8.327  17.317  11.028
88038W        W56432  30.742  33.489  13.694
88039W        W56433   2.430  36.319  10.583
88040W        W56434  26.440  22.921   4.128
88041W        W56435  28.387  28.972  14.336
88042W        W56436  13.588  24.572   3.711
88043W        W56437  24.611  32.702  11.948
88044W        W56438  27.503   3.341   4.314
88045W        W56439  31.487  14.270   9.769
88046W        W56440  40.516  39.560  12.479
88047W        W56441  18.748  39.506  12.618
88048W        W56442  13.807   8.767   0.380
88049W        W56443  27.555   5.566   2.064
88050W        W56444  20.132  40.970   2.666
88051W        W56445  10.514  12.650   2.989
88052W        W56446   1.032  18.217   4.696
88053W        W56447  25.726   5.827   4.691
88054W        W56448  37.528   4.510  11.596
88055W        W56449  28.737  18.186  12.719
88056W        W56450   1.702   4.901   1.907
88057W        W56451  32.127  28.651  10.673
88058W        W56452  16.568  13.768  13.435
88059W        W56453   2.991  38.905  14.515
88060W        W56454  17.669  23.944   0.169
88061W        W56455  39.962  41.286  12.772
88062W        W56456  12.186  16.640   4.840
88063W        W56457   8.168  21.117   0.030
88064W        W56458  21.565  42.975  11.730
88065W        W56459  15.153  18.275  12.345
88066W        W56460   2.335  27.642   0.824
88067W        W56461  10.025  38.296  13.409
88068W        W56462  27.289  25.033  11.492
88069W        W56463  19.983  42.084   1.417
88070W        W56464  11.649  35.855  11.119
88071W        W56465  33.836  11.848  12.213
88072W        W56466  22.607  42.780   0.840
88073W        W56467  28.130  37.061  13.356
88074W        W56468  22.165  44.404   2.400
88075W        W56469  11.123  44.814  11.241
88076W        W56470  40.093  11.603  11.550
88077W        W56471  34.540  33.066   2.575
88078W        W56472  28.697  32.624   4.183
88079W        W56473   4.850  13.111   4.087
88080W        W56474  19.261  13.712   3.612
88081W        W56475  20.510  37.443   1.750
88082W        W56476   2.285  10.585   2.366
88083W        W56477   4.168  11.478   3.650
88084W        W56478  22.914  34.506  14.834
88085W        W56479  32.985  29.397  14.139
88086W        W56480  39.819  34.900   1.141
88087W        W56481  21.980  40.857  13.316
88088W        W56482  38.041  36.044   0.485
88089W        W56483  21.919   0.931   4.638
88090W        W56484  15.077   7.209  10.713
88091W        W56485  29.183  40.236  14.798
88092W        W56486  28.174  30.917   2.860
88093W        W56487  12.740  25.107   3.633
88094W        W56488  16.617  14.200   3.155
88095W        W56489  26.652  38.468   1.212
88096W        W56490  13.147  34.000  12.155
88097W        W56491   6.020  36.363  12.663
88098W        W56492  37.822   8.594  11.985
88099W        W56493   6.928  23.838   2.759
88100W        W56494   3.359   1.713   4.234
88101W        W56495   1.432  32.989  11.001
88102W        W56496   8.678   7.164   4.164
88103W        W56497  37.917  33.121  12.507
88104W        W56498  42.347  19.450  13.187
88105W        W56499  25.666  32.010   4.815
88106W        W56500  41.801  35.560   3.698
88107W        W56501  22.442   3.802   3.905
88108W        W56502  14.715   9.636  14.451
88109W        W56503   2.835   8.793   0.321
88110W        W56504  29.510  17.637   0.019
88111W        W56505  38.278  32.495   3.322
88112W        W56506  26.626  19.033   0.811
88113W        W56507  27.027  33.520   3.252
88114W        W56508  25.227  18.103  10.655
88115W        W56509  44.294  12.904   3.794
88116W        W56510  17.183   9.495   2.351
88117W        W56511  32.072  33.021   9.659
88118W        W56512  15.051   2.807   4.357
88119W        W56513  31.175  14.609  12.837
88120W        W56514  17.573  40.356  13.899
88121W        W56515  41.586  36.148  11.168
88122W        W56516  23.680   8.240   0.792
88123W        W56517  38.859  26.048  13.435
88124W        W56518  18.545  19.637   4.167
88125W        W56519  39.894  29.969  11.697
88126W        W56520  31.083  31.086  10.878
88127W        W56521  25.392  25.501  12.510
88128W        W56522  39.466  11.200  10.686
88129W        W56523  22.169   1.023  13.340
88130W        W56524  44.805  11.560   3.788
88131W        W56525   7.259  29.883   3.307
88132W        W56526   2.631  21.229   1.847
88133W        W56527   5.664  17.216  14.534
88134W        W56528  39.966   4.354   3.338
88135W        W56529   4.191  16.130   4.618
88136W        W56530  24.119   4.928  10.633
88137W        W56531  14.749  32.794  12.021
88138W        W56532  43.707  36.021   4.893
88139W        W56533  26.114   6.198  11.070
88140W        W56534  39.828  37.287   0.894
88141W        W56535  31.909  16.217   0.974
88142W        W56536  25.204   3.798  12.161
88143W        W56537  34.516  23.553   4.535
88144W        W56538  12.718  14.315  13.737
88145W        W56539  14.761  39.239  11.107
88146W        W56540   4.231  34.778  11.044
88147W        W56541  12.130  10.777   0.771
88148W        W56542  14.361   5.270   3.190
88149W        W56543  33.487  19.425  13.886
88150W        W56544  13.780  12.853  10.796
88151W        W56545  29.268  17.643  12.969
88152W        W56546   9.611  32.304  13.318
88153W        W56547  23.863  35.389  13.008
88154W        W56548  32.366   0.796   4.985
88155W        W56549  35.863  36.449  11.558
88156W        W56550  35.521   3.815  11.483
88157W        W56551  22.160  32.104  11.523
88158W        W56552  10.237  15.442  13.097
88159W        W56553   1.270  41.021  13.489
88160W        W56554  43.087   8.321   0.556
88161W        W56555  20.479  17.227  11.605
88162W        W56556  12.659  22.112   1.222
88163W        W56557  18.077   2.456   2.676
88164W        W56558  15.849  20.064   2.341
88165W        W56559  42.814  30.719  10.568
88166W        W56560  16.323  38.736   1.692
88167W        W56561  39.504  30.982   0.337
88168W        W56562  19.176  39.477  12.360
88169W        W56563   7.216  36.870  13.585
88170W        W56564   6.789  30.696  14.388
88171W        W56565  17.365   4.775   4.494
88172W        W56566  28.138  22.204   1.188
88173W        W56567  20.235  36.098  14.428
88174W        W56568  34.041  35.344  13.743
88175W        W56569  37.776   9.298  12.056
88176W        W56570  19.023  39.037   1.103
88177W        W56571  29.024   8.951   0.382
88178W        W56572  13.378  17.490   3.201
88179W        W56573  21.267  18.815   2.755
88180W        W56574  26.498  16.090   2.793
88181W        W56575  28.511  23.748  11.574
88182W        W56576  18.579  33.468   2.693
88183W        W56577  31.087  19.481  13.494
88184W        W56578  10.649   0.841  10.389
88185W        W56579  19.063  29.151  10.553
88186W        W56580   4.129   9.865   4.750
88187W        W56581  23.410  36.923   3.013
88188W        W56582   2.399  21.538  12.915
88189W        W56583   4.393   3.727   0.777
88190W        W56584  35.624   3.802   1.784
88191W        W56585   4.223  44.973  13.836
88192W        W56586   3.335  20.068   3.324
88193W        W56587  23.257  36.475  10.838
88194W        W56588  16.979   4.322   3.598
88195W        W56589  40.101  24.163   0.265
88196W        W56590   8.725   0.607   3.721
88197W        W56591  41.747  28.128  14.905
88198W        W56592  42.252  15.738   3.572
88199W        W56593  31.400  13.029   2.746
88200W        W56594   5.829   0.402  13.916
88201W        W56595   9.743  28.638  10.849
88202W        W56596  43.355  28.548  10.475
88203W        W56597  41.078  43.789   2.852
88204W        W56598  22.721  35.867   3.497
88205W        W56599  25.802  18.087  14.357
88206W        W56600  35.344  11.133   1.945
88207W        W56601  36.093  39.621   3.198
88208W        W56602   1.398  40.009  13.470
88209W        W56603   6.882   9.810  10.722
88210W        W56604  11.819  31.821   1.754
88211W        W56605  35.504  43.863   3.904
88212W        W56606  23.625  19.036   4.623
88213W        W56607  16.707  11.782   2.817
88214W        W56608  14.835   7.979   4.374
88215W        W56609  43.808   5.478   3.803
88216W        W56610  36.951   2.863  12.661
88217W        W56611  36.004   6.530  12.474
88218W        W56612  36.964  27.115   0.895
88219W        W56613  26.979  41.589  10.284
88220W        W56614  11.703   9.360   0.235
88221W        W56615  36.268  35.024  14.982
88222W        W56616  14.934  25.994  13.431
88223W        W56617  36.059  30.679  14.462
88224W        W56618   4.737   2.310  12.030
88225W        W56619  28.552  16.940  13.615
88226W        W56620  24.172  13.811   3.560
88227W        W56621   5.863  22.558  14.086
88228W        W56622  43.322  33.309   3.981
88229W        W56623  28.696  28.029   4.078
88230W        W56624  28.781  12.245  13.521
88231W        W56625  15.790  44.158   0.493
88232W        W56626  35.625  20.121  11.998
88233W        W56627   5.607   9.214   0.781
88234W        W56628  44.276  21.818   1.704
88235W        W56629  28.701  24.734   3.683
88236W        W56630  40.494   1.948   0.238
88237W        W56631  16.978  31.854   0.708
88238W        W56632  41.052  10.344   0.220
88239W        W56633   5.335  23.214   2.272
88240W        W56634   5.805  23.211  13.307
88241W        W56635   5.674  10.713  13.572
88242W        W56636  22.504  29.033   0.201
88243W        W56637  34.857  10.573   3.693
88244W        W56638  36.549  27.583  11.200
88245W        W56639  14.971   1.674  14.445
88246W        W56640  30.889  33.943   3.692
88247W        W56641  31.495  38.736   3.798
88248W        W56642  44.292  31.876   1.822
88249W        W56643   8.765  37.770  13.044
88250W        W56644  34.334  34.763  10.692
88251W        W56645  30.359  26.189  12.899
88252W        W56646   8.333  25.634  14.425
88253W        W56647   6.871  40.095   3.384
88254W        W56648   2.326  40.360   0.524
88255W        W56649   7.248  22.387  13.493
88256W        W56650  30.494   1.498  10.612
88257W        W56651  35.607  14.825  13.332
88258W        W56652  37.441  10.916   1.915
88259W        W56653   3.285   8.637  14.542
88260W        W56654  44.309  16.585   1.284
88261W        W56655  40.486  27.703   4.604
88262W        W56656   9.819  40.462   4.264
88263W        W56657  25.881  18.258  12.062
88264W        W56658  18.537  34.524  12.470
88265W        W56659   3.921  42.832   1.692
88266W        W56660  25.733  27.524  11.438
88267W        W56661  29.159  21.020  14.891
88268W        W56662  28.871  29.360   3.889
88269W        W56663  20.134  16.943  12.443
88270W        W56664  18.220   0.891  12.062
88271W        W56665  29.508  41.728   2.804
88272W        W56666  15.792  37.341   0.854
88273W        W56667  35.959  27.568   2.710
88274W        W56668  15.963  38.972   1.431
88275W        W56669  38.919   5.485  12.692
88276W        W56670  15.578  32.579   4.609
88277W        W56671  31.888  41.551  14.281
88278W        W56672  25.064  32.534  14.117
88279W        W56673  15.674  20.100  10.211
88280W        W56674  27.553  39.600   4.183
88281W        W56675   2.843   3.658   3.779
88282W        W56676  26.743  29.975   3.621
88283W        W56677   9.878  22.562   2.227
88284W        W56678   0.958  13.600  14.721
88285W        W56679  14.162  35.485  12.149
88286W        W56680   6.628  17.066   0.422
88287W        W56681  14.767  34.287  14.943
88288W        W56682   3.264  25.936  12.779
88289W        W56683  20.872  32.925  10.604
88290W        W56684  16.545  15.209  14.556
88291W        W56685   2.252  33.525  14.263
88292W        W56686  10.707  35.102  14.399
88293W        W56687  37.373   6.878  11.446
88294W        W56688  36.762   8.867   4.233
88295W        W56689  14.278  40.628  12.511
88296W        W56690  35.102  38.131  10.828
88297W        W56691  16.883   5.219   2.717
88298W        W56692   5.976   7.313  14.949
88299W        W56693   8.367  33.149  11.005
88300W        W56694   7.380  30.943  11.215
88301W        W56695  12.574  16.032  11.133
88302W        W56696  27.548  32.878  12.059
88303W        W56697  10.924  11.286  13.850
88304W        W56698   4.365  20.983  10.466
88305W        W56699  29.027  28.605   3.245
88306W        W56700   2.753   0.463  11.222
88307W        W56701  33.599  27.987   0.378
88308W        W56702  37.504  14.786  11.657
88309W        W56703  12.274   7.746  10.198
88310W        W56704  16.207  38.305   2.157
88311W        W56705   8.243  23.071  11.572
88312W        W56706  23.182  28.192   1.362
88313W        W56707  18.268  28.085   4.643
88314W        W56708  44.036  10.223  10.688
88315W        W56709   0.718  44.107   1.714
88316W        W56710   3.347  22.001   3.172
88317W        W56711  10.170   9.287  14.755
88318W        W56712  13.472   6.165  14.804
88319W        W56713  20.114  31.130  14.466
88320W        W56714  17.275  26.194   1.171
88321W        W56715  19.309  21.000  14.414
88322W        W56716   3.604  14.923   4.325
88323W        W56717  10.432   6.748  13.597
88324W        W56718  33.401  28.551   2.106
88325W        W56719  32.047  27.886  13.752
88326W        W56720  35.011  40.512  11.143
88327W        W56721  39.791   2.259  10.753
88328W        W56722   6.432   4.554  14.860
88329W        W56723  35.003  29.019   0.654
88330W        W56724  27.757  24.475   1.647
88331W        W56725   4.261  27.203   1.924
88332W        W56726   4.110  25.032   4.609
88333W        W56727  39.294  40.186   4.082
88334W        W56728  42.239  42.825   2.929
88335W        W56729  40.684  28.042  14.537
88336W        W56730  20.042  25.814  12.106
88337W        W56731  41.485   1.290  14.875
88338W        W56732   1.148  21.301   0.974
88339W        W56733  33.388  25.494  11.726
88340W        W56734  43.519   2.870   1.840
88341W        W56735  27.236  38.790   2.882
88342W        W56736  14.097  20.268   2.396
88343W        W56737  39.488  39.478   0.365
88344W        W56738   7.776  22.554   9.797
88345W        W56739  33.933  28.175   3.082
88346W        W56740   6.985   3.055   4.479
88347W        W56741   1.980   3.534   4.358
88348W        W56742  10.591  43.786  12.031
88349W        W56743  14.817  32.247  11.978
88350W        W56744  23.734   0.742   4.611
88351W        W56745  23.649  32.597  10.620
88352W        W56746  44.959   3.315  12.764
88353W        W56747   5.033  26.783   4.754
88354W        W56748  22.029  28.431  12.135
88355W        W56749  14.568  13.034   1.830
88356W        W56750  37.906  37.866   2.834
88357W        W56751  19.555  24.668   5.145
88358W        W56752   6.499  33.763   4.995
88359W        W56753  26.082   6.982  11.546
88360W        W56754  36.988   7.211   2.542
88361W        W56755  17.373  32.362  13.039
88362W        W56756   7.798  12.415  14.717
88363W        W56757  23.033  24.503   4.503
88364W        W56758  44.922   3.818  13.936
88365W        W56759  41.734  38.909  11.214
88366W        W56760  41.855  17.089  12.609
88367W        W56761  40.254   2.248   2.901
88368W        W56762  23.399   5.925   4.844
88369W        W56763  42.534  37.859   1.790
88370W        W56764  34.385  19.987   3.286
88371W        W56765  38.027  26.397  13.260
88372W        W56766   2.469   3.012   3.959
88373W        W56767  30.485  25.634   2.365
88374W        W56768  43.545   3.554  11.835
88375W        W56769  30.863  35.909  10.993
88376W        W56770  18.587  31.253   2.256
88377W        W56771  17.797   8.639  12.143
88378W        W56772  34.155  22.384   4.184
88379W        W56773  26.484   0.557   2.849
88380W        W56774   9.970  40.947  10.738
88381W        W56775  31.638  34.999   0.414
88382W        W56776  26.642  19.494  14.511
88383W        W56777  13.663  32.446   0.173
88384W        W56778  14.268  30.073   2.203
88385W        W56779  10.862  38.173   0.427
88386W        W56780  12.964  36.365   0.710
88387W        W56781  12.878  20.083  13.217
88388W        W56782  10.239  27.614  10.776
88389W        W56783  13.196  20.012  11.896
88390W        W56784  41.608  12.649  13.598
88391W        W56785  40.359   2.483   3.759
88392W        W56786  13.663  10.682   2.252
88393W        W56787  43.873  39.265  14.855
88394W        W56788   4.017  38.801  10.335
88395W        W56789  34.553  42.000  12.990
88396W        W56790  32.661  31.913   3.241
88397W        W56791  18.564  24.642  14.493
88398W        W56792  18.613  34.630  11.637
88399W        W56793  42.581   3.447   1.022
88400W        W56794  38.903  24.595  13.036
88401W        W56795  22.627  23.787   0.722
88402W        W56796  12.240  13.357   0.284
88403W        W56797  18.244   3.350   0.937
88404W        W56798   4.435  14.148   9.655
88405W        W56799  33.365  40.541   3.164
88406W        W56800  22.761  39.888   1.715
88407W        W56801  30.900   1.979   2.033
88408W        W56802   2.529  37.091   0.173
88409W        W56803  33.851   0.724   4.588
88410W        W56804   3.520  37.598   4.692
88411W        W56805  31.724  16.129   3.792
88412W        W56806  35.973   8.558   2.036
88413W        W56807   7.527  41.808   4.113
88414W        W56808  11.150  28.035  11.949
88415W        W56809  21.555  18.073   0.329
88416W        W56810   5.476  33.058  13.848
88417W        W56811   8.442  44.060  11.118
88418W        W56812  15.358  37.933   0.061
88419W        W56813  19.839  18.176   3.299
88420W        W56814   6.804  11.680   2.183
88421W        W56815  26.289  17.774   1.633
88422W        W56816  19.949  13.213  11.913
88423W        W56817  30.116  28.552   1.838
88424W        W56818  41.281  11.341  13.875
88425W        W56819  23.700  36.832  12.480
88426W        W56820   2.558  26.829  13.869
88427W        W56821  28.642  37.782   1.400
88428W        W56822  32.487  35.566  11.888
88429W        W56823  22.907   9.264  11.054
88430W        W56824  44.820   9.373   2.891
88431W        W56825  40.552  14.345  12.421
88432W        W56826   3.774   5.240   4.523
88433W        W56827  27.416  21.632  11.777
88434W        W56828  21.579  29.177   3.681
88435W        W56829  27.906  44.533   2.967
88436W        W56830  30.148  26.181  10.929
88437W        W56831  12.273  44.282  14.445
88438W        W56832   9.295   6.211   1.513
88439W        W56833  21.094  10.805   3.171
88440W        W56834  14.813  10.929   0.828
88441W        W56835  29.910  31.425  12.667
88442W        W56836   3.827  36.383   1.631
88443W        W56837  31.642  40.521  10.722
88444W        W56838  25.548  27.749   4.509
88445W        W56839  43.490  38.446  14.896
88446W        W56840  11.360   7.004  13.979
88447W        W56841  10.685  41.004   1.305
88448W        W56842  42.035  18.338   2.824
88449W        W56843  32.096   2.209   5.295
88450W        W56844   9.643  36.889  13.785
88451W        W56845  15.298  16.912  10.278
88452W        W56846  15.386  24.763  10.672
88453W        W56847   7.388  21.079  14.212
88454W        W56848  35.152  23.293   3.187
88455W        W56849  23.727  21.469  14.588
88456W        W56850  18.628   0.676   4.663
88457W        W56851  14.184   1.376   1.595
88458W        W56852  24.926   5.843   4.516
88459W        W56853  27.974  15.786  13.965
88460W        W56854  24.427   7.686   0.406
88461W        W56855   0.221   9.205  14.850
88462W        W56856  22.262  38.418  14.929
88463W        W56857   5.653   2.470   4.589
88464W        W56858  33.378  41.564   3.073
88465W        W56859  10.728  18.688  10.608
88466W        W56860  12.212  38.598  12.041
88467W        W56861  18.364  44.259   2.826
88468W        W56862  19.717   1.226   3.438
88469W        W56863  38.880  31.113   3.578
88470W        W56864   2.818  33.609  14.994
88471W        W56865  20.766   5.330   2.379
88472W        W56866  35.455   7.344   1.487
88473W        W56867  20.554  22.757  14.389
88474W        W56868  28.186  33.301  13.337
88475W        W56869  13.104  10.666   1.649
88476W        W56870  36.105  44.283   3.700
88477W        W56871   0.841  28.038  10.735
88478W        W56872  30.039  41.844  11.132
88479W        W56873  40.042  10.014   3.500
88480W        W56874  34.402  21.245   4.687
88481W        W56875  22.759   5.497   2.758
88482W        W56876  31.134  10.250  14.229
88483W        W56877  15.159   3.313   4.671
88484W        W56878  41.349  23.267  12.401
88485W        W56879   2.226  29.125  14.161
88486W        W56880  13.141  34.176   0.475
88487W        W56881  37.806  15.505  14.805
88488W        W56882  22.714  10.959   2.103
88489W        W56883  28.443  39.871   0.984
88490W        W56884  21.745   7.219   2.378
88491W        W56885  40.946  35.558   1.727
88492W        W56886  40.790  31.405   1.315
88493W        W56887  24.014  33.611   1.302
88494W        W56888  12.263  10.133  11.474
88495W        W56889  17.186  34.462  14.279
88496W        W56890  21.769  29.795  14.919
88497W        W56891  34.044  22.649   2.742
88498W        W56892  32.693  31.036  14.830
88499W        W56893  42.074  30.597   0.229
88500W        W56894   2.914  18.010   2.724
88501W        W56895  19.329  32.139   5.001
88502W        W56896   4.768   1.949   0.400
88503W        W56897   9.412   3.854   3.274
88504W        W56898   1.185  10.895   0.995
88505W        W56899  16.861  12.713  14.343
88506W        W56900  20.891  14.578   0.581
88507W        W56901  19.274   9.388   1.776
88508W        W56902  15.792  31.518  13.131
88509W        W56903   1.348  10.051  11.142
88510W        W56904  31.559   0.901   0.967
88511W        W56905  35.748  31.729   4.954
88512W        W56906  30.136   0.932   1.676
88513W        W56907  38.011   7.646  12.058
88514W        W56908  17.133   3.842   1.455
88515W        W56909  39.955  32.516   0.962
88516W        W56910  37.977  25.601   3.295
88517W        W56911   1.716   9.782  13.518
88518W        W56912  15.546  27.008  14.881
88519W        W56913   3.324  42.167   3.396
88520W        W56914   4.761  25.508   2.362
88521W        W56915  26.810  16.616  10.782
88522W        W56916   3.992  17.797  10.257
88523W        W56917  44.579  30.502  11.026
88524W        W56918  11.631   5.038   9.948
88525W        W56919  32.001  20.798  14.377
88526W        W56920  16.592  26.935  11.537
88527W        W56921  18.735  40.822   1.854
88528W        W56922  21.963   3.702   0.287
88529W        W56923   3.004  23.072   1.258
88530W        W56924   9.374  34.568   1.431
88531W        W56925   2.004   9.607  11.277
88532W        W56926   3.426  13.550  11.607
88533W        W56927  42.108   4.653  10.411
88534W        W56928  37.287  39.387  12.388
88535W        W56929  39.070   8.702  11.183
88536W        W56930  22.323   0.244  12.902
88537W        W56931  33.569   9.652   2.231
88538W        W56932  12.175  27.468  13.419
88539W        W56933  11.802  15.659   3.306
88540W        W56934  42.541   8.697  13.333
88541W        W56935  30.953  29.157  11.968
88542W        W56936  34.974   8.310  12.078
88543W        W56937  23.102  38.998   4.253
88544W        W56938  30.173  20.538   0.623
88545W        W56939  11.528  34.351  12.064
88546W        W56940  15.795  37.120  10.610
88547W        W56941  37.789  25.180   3.603
88548W        W56942  16.722  38.093  14.684
88549W        W56943  22.770  13.102   0.776
88550W        W56944  34.308  14.391  13.146
88551W        W56945  15.092  23.638  14.129
88552W        W56946  36.553   3.942  11.032
88553W        W56947  31.546   1.970  11.657
88554W        W56948   4.368  13.408  12.962
88555W        W56949  34.177  16.682   2.799
88556W        W56950  31.595  16.274  10.678
88557W        W56951  23.004  17.166  12.684
88558W        W56952  33.027  29.709   4.614
88559W        W56953  35.831  39.258  10.701
88560W        W56954  17.233  27.015   4.940
88561W        W56955   7.894  11.156   3.373
88562W        W56956  43.759  36.500  14.869
88563W        W56957   4.941  15.521  11.609
88564W        W56958  22.552  11.706   0.435
88565W        W56959   4.023  21.663   0.839
88566W        W56960   2.614  30.880  10.745
88567W        W56961  37.363   4.960   2.287
88568W        W56962   8.175  21.329  11.973
88569W        W56963  43.972  29.709  13.180
88570W        W56964  17.017  39.336  13.130
88571W        W56965  10.195  35.365  11.160
88572W        W56966  15.618  17.295  10.413
88573W        W56967   4.955  25.464   3.224
88574W        W56968   6.900  41.032  11.614
88575W        W56969  20.202  32.913   1.940
88576W        W56970  11.200  26.020  11.155
88577W        W56971  39.980  22.961  12.887
88578W        W56972  13.004  24.490  11.836
88579W        W56973  15.641  12.200  14.788
88580W        W56974  28.562  10.809   4.638
88581W        W56975  35.363  11.377  14.067
88582W        W56976   3.721   2.461   1.933
88583W        W56977  40.345  39.909   4.072
88584W        W56978   2.881  41.560   1.465
88585W        W56979  40.778  21.556  13.093
88586W        W56980  18.320  17.165  11.951
88587W        W56981  17.037   2.894   1.416
88588W        W56982  41.090  23.485   1.251
88589W        W56983  39.532  15.768   4.573
88590W        W56984   1.408  39.356  12.476
88591W        W56985   3.296  22.640   0.378
88592W        W56986  28.998  30.129   1.331
88593W        W56987  35.603  41.256  11.154
88594W        W56988  36.888  30.665   2.342
88595W        W56989  23.161  39.783   0.736
88596W        W56990   7.989  37.348   3.715
88597W        W56991  31.981  28.551   1.609
88598W        W56992  19.816  24.077  13.215
88599W        W56993  16.843  40.986  13.982
88600W        W56994  31.935   8.205  14.829
88601W        W56995  36.639   4.831  11.419
88602W        W56996  14.851  31.041   4.270
88603W        W56997  24.625   4.374   4.678
88604W        W56998  33.220   5.690  12.373
88605W        W56999  10.429  21.632  12.005
88606W        W57000   8.458  35.555   1.834
88607W        W57001   5.814  28.749  14.801
88608W        W57002   5.793   6.267  11.640
88609W        W57003  34.613  13.864   3.713
88610W        W57004  15.077  43.839   3.779
88611W        W57005   4.785   4.803  13.328
88612W        W57006  38.411  41.378   1.547
88613W        W57007  26.576   8.237   1.311
88614W        W57008   1.062   9.721   3.918
88615W        W57009   4.181  32.582  10.824
88616W        W57010  44.759  23.308  12.988
88617W        W57011  21.280  18.623  10.605
88618W        W57012   4.430  36.820  13.563
88619W        W57013   9.142  16.277   1.936
88620W        W57014  13.086   4.178   3.199
88621W        W57015   2.501  40.439  12.582
88622W        W57016   6.118  30.411  11.946
88623W        W57017  22.054  18.585  13.368
88624W        W57018   0.463  28.958   3.675
88625W        W57019  25.047  21.766   1.239
88626W        W57020  27.673  32.357  11.895
88627W        W57021  14.629  40.606   0.385
88628W        W57022  31.099  31.029   2.320
88629W        W57023  11.238  31.162  14.809
88630W        W57024   4.090  38.042   1.850
88631W        W57025   1.305  16.259  14.064
88632W        W57026  10.704  18.677  14.246
88633W        W57027  40.633  41.135   0.709
88634W        W57028  43.315  28.751   1.782
88635W        W57029  41.037  13.893   2.306
88636W        W57030  35.792  20.673   2.717
88637W        W57031  14.685   1.293   3.964
88638W        W57032   7.233   7.904  11.213
88639W        W57033   4.242   6.742  13.724
88640W        W57034  10.807  33.113   0.927
88641W        W57035  25.759  18.959   4.165
88642W        W57036  28.178  17.110  13.327
88643W        W57037  34.439  14.848  10.453
88644W        W57038   5.003  28.986  12.281
88645W        W57039  32.121   0.512   2.572
88646W        W57040  37.940  20.161   2.575
88647W        W57041   0.472  37.423   0.095
88648W        W57042  13.204  15.555  13.968
88649W        W57043  30.989  30.071  10.708
88650W        W57044  15.163  16.603  10.744
88651W        W57045  33.850  36.045   4.094
88652W        W57046   7.857  40.021   1.303
88653W        W57047  24.184  30.721  10.728
88654W        W57048  40.562  16.379   1.244
88655W        W57049   3.800   0.161   3.732
88656W        W57050  19.590  32.924   4.427
88657W        W57051  28.500  24.528  10.590
88658W        W57052  21.993   3.922  10.664
88659W        W57053  31.175  21.125   4.615
88660W        W57054   7.801  23.178   3.592
88661W        W57055  18.235  15.984   0.374
88662W        W57056  32.813  25.651   1.874
88663W        W57057  33.417   4.851   0.304
88664W        W57058   5.658  25.293  11.607
88665W        W57059  30.152   0.726   0.443
88666W        W57060  24.759  14.702   0.201
88667W        W57061  38.447  11.258   0.815
88668W        W57062  42.448  19.045   3.649
88669W        W57063  34.643  31.405   1.380
88670W        W57064  17.865  37.154   3.385
88671W        W57065  26.694   8.245  12.828
88672W        W57066  25.379  33.418   1.019
88673W        W57067  40.602  19.774  13.471
88674W        W57068   3.051   6.256   2.303
88675W        W57069  14.392   8.597  11.384
88676W        W57070   5.530  24.725   1.341
88677W        W57071   4.007  15.456  11.685
88678W        W57072  42.513  38.003   2.288
88679W        W57073  15.042  28.689  11.242
88680W        W57074  18.283  31.581   0.844
88681W        W57075  33.919  22.588   0.709
88682W        W57076  14.379   4.494   3.646
88683W        W57077  26.869   9.594   3.813
88684W        W57078  26.628  27.236   0.014
88685W        W57079  27.094  35.739  12.964
88686W        W57080   4.788  21.024  14.030
88687W        W57081  30.874  22.258   3.683
88688W        W57082   5.164   5.171  13.474
88689W        W57083  32.057   2.737  12.889
88690W        W57084  14.119  32.574  10.745
88691W        W57085  15.522  22.830  14.929
88692W        W57086  33.175  13.951  12.474
88693W        W57087  39.864  16.932   2.253
88694W        W57088   6.501  12.993  11.432
88695W        W57089   7.965  14.076   0.006
88696W        W57090  39.529  19.788  13.588
88697W        W57091  34.034  43.622   1.309
88698W        W57092  14.714   3.793  13.255
88699W        W57093   2.901  20.094   3.620
88700W        W57094   8.122  17.313   4.659
88701W        W57095  10.928   1.393  12.008
88702W        W57096   7.857  31.993   4.546
88703W        W57097  25.949  21.413  11.204
88704W        W57098   6.894  38.391  11.698
88705W        W57099  35.033  37.339   0.828
88706W        W57100  27.768  12.771  11.639
88707W        W57101  23.087  33.657   2.274
88708W        W57102  13.844  41.093   4.110
88709W        W57103  16.697  31.306  13.583
88710W        W57104  31.042  34.943   2.858
88711W        W57105  22.991  41.370   4.603
88712W        W57106   9.694  26.208  10.089
88713W        W57107  28.949  37.404   0.428
88714W        W57108  27.456  32.137   0.330
88715W        W57109  25.083   8.672  10.624
88716W        W57110  22.247  33.953  10.732
88717W        W57111  14.344  13.906   2.808
88718W        W57112  35.772  36.489  13.376
88719W        W57113  15.748   4.473   4.011
88720W        W57114  32.805  24.361   2.820
88721W        W57115   7.963  44.426  14.029
88722W        W57116  35.804   5.783   3.627
88723W        W57117   6.495  18.749  14.468
88724W        W57118  26.981  27.622  13.495
88725W        W57119  29.616   0.989   1.783
88726W        W57120  31.691  44.089  10.711
88727W        W57121   2.923  24.831   2.313
88728W        W57122  19.793  18.783  13.601
88729W        W57123   5.616   2.485   2.407
88730W        W57124  34.032  43.083   1.289
88731W        W57125  36.760  24.049   1.277
88732W        W57126  30.544   0.243  13.723
88733W        W57127  14.725  40.255  12.918
88734W        W57128   4.765  35.647  11.711
88735W        W57129   2.850  27.727   2.832
88736W        W57130   2.734  24.194  14.899
88737W        W57131  24.577  43.732   0.793
88738W        W57132  27.506  40.555  13.027
88739W        W57133  14.683   2.058   2.774
88740W        W57134   1.866  41.809   1.795
88741W        W57135  23.269   9.863  10.682
88742W        W57136   1.452   5.340   0.273
88743W        W57137  44.867  29.602   1.866
88744W        W57138   3.533   6.412   4.631
88745W        W57139  33.378  13.113   2.942
88746W        W57140   8.256   5.384   2.667
88747W        W57141  19.672  11.786  13.993
88748W        W57142  32.484  29.419   3.268
88749W        W57143  24.034   0.171   3.792
88750W        W57144  41.858  23.130  14.995
88751W        W57145  13.524  25.587   1.860
88752W        W57146  44.691  38.985  12.484
88753W        W57147   8.643  33.303  14.453
88754W        W57148   8.292  22.491   1.828
88755W        W57149   6.317  35.936  14.117
88756W        W57150  30.298   9.877  11.796
88757W        W57151  39.585   4.272  13.973
88758W        W57152  25.739  43.966  11.959
88759W        W57153  31.210   9.868  14.563
88760W        W57154   8.593  10.422   4.094
88761W        W57155  32.351  27.465  13.636
88762W        W57156  19.412  14.990   3.615
88763W        W57157   2.922   7.402   4.633
88764W        W57158  33.811  35.591   1.302
88765W        W57159  24.282   1.118  13.968
88766W        W57160  40.099  26.008  10.682
88767W        W57161  26.769  21.520   0.824
88768W        W57162  14.377  11.413  11.676
88769W        W57163  39.461   2.652   0.152
88770W        W57164  28.735  19.097  12.382
88771W        W57165   4.190   4.192  12.821
88772W        W57166  23.904   5.931   4.703
88773W        W57167   1.209   3.158   1.151
88774W        W57168  19.888  40.558   4.194
88775W        W57169  36.830  33.327   0.167
88776W        W57170   3.169  34.378  12.957
88777W        W57171   5.349  37.045  13.880
88778W        W57172  35.789  16.897  11.994
88779W        W57173  37.385  17.183   2.624
88780W        W57174   5.781   3.071  11.086
88781W        W57175   9.809   2.425  12.569
88782W        W57176  42.473   4.766  11.677
88783W        W57177  12.780   7.703  14.102
88784W        W57178  15.021  13.767   1.959
88785W        W57179  13.648  24.121  10.652
88786W        W57180   4.400  29.114   3.607
88787W        W57181  34.854  30.314   3.291
88788W        W57182  14.271   6.039  11.164
88789W        W57183  15.094  25.892  14.470
88790W        W57184  27.575  32.297   3.211
88791W        W57185  11.369  23.028   2.865
88792W        W57186  28.386  26.245   3.566
88793W        W57187  14.786  33.153  13.402
88794W        W57188  33.448  17.893  11.683
88795W        W57189  31.457  43.344  14.519
88796W        W57190   3.761  23.029  14.673
88797W        W57191  13.261  39.848  13.874
88798W        W57192  19.592   4.819  13.836
88799W        W57193   7.124  19.264  14.085
88800W        W57194  13.175  17.094   4.532
88801W        W57195  36.910   8.811  10.596
88802W        W57196   9.742  36.795  10.681
88803W        W57197  25.636  40.744  14.297
88804W        W57198  18.057  34.023  14.412
88805W        W57199  33.441   9.356  14.883
88806W        W57200  21.074  24.245  13.049
88807W        W57201  17.736  37.089  10.864
88808W        W57202  34.982  21.560   4.411
88809W        W57203   0.487  18.725  12.532
88810W        W57204   1.345  25.670  12.871
88811W        W57205  38.736  43.227   1.278
88812W        W57206   7.380  23.646  10.098
88813W        W57207  27.669  33.046  14.448
88814W        W57208  31.344  12.622  14.294
88815W        W57209  20.286   0.464   1.608
88816W        W57210  14.828  23.326   0.473
88817W        W57211  43.889  18.570   2.684
88818W        W57212  37.297  44.390  14.373
88819W        W57213   1.005  22.397  10.169
88820W        W57214   5.794  21.138   0.677
88821W        W57215  13.088   3.877   3.691
88822W        W57216  42.780   3.297   3.610
88823W        W57217  20.677  37.548   3.624
88824W        W57218   5.314  14.641  11.085
88825W        W57219  33.662  30.512   1.895
88826W        W57220  35.853  44.805  12.853
88827W        W57221  19.611  12.045  14.501
88828W        W57222   4.846  36.453   3.469
88829W        W57223  19.430  12.451  10.694
88830W        W57224  42.039  42.554  12.560
88831W        W57225  15.631  20.798   2.803
88832W        W57226  29.942  22.751  12.044
88833W        W57227  23.255  11.764   1.373
88834W        W57228  43.883  18.317  11.399
88835W        W57229  35.910  11.269  11.843
88836W        W57230  14.534  33.911  13.046
88837W        W57231   0.073  39.528  10.807
88838W        W57232  38.928  19.485  10.718
88839W        W57233  12.859  25.491  14.408
88840W        W57234  10.097   1.376   4.575
88841W        W57235   4.363   7.667  12.022
88842W        W57236   6.216  11.323   4.612
88843W        W57237  44.563  37.461  13.265
88844W        W57238   9.582  42.306   1.370
88845W        W57239  17.616  12.245  14.346
88846W        W57240   3.179  28.940  12.533
88847W        W57241  18.297   8.773  14.333
88848W        W57242  39.211  44.455  14.478
88849W        W57243  27.191   1.887  12.460
88850W        W57244  34.208  27.185  12.263
88851W        W57245  21.237  16.746  12.867
88852W        W57246  25.006  24.112   1.098
88853W        W57247  29.816  27.050  12.936
88854W        W57248  13.136  13.463  12.145
88855W        W57249  12.777  27.544   2.369
88856W        W57250  38.809  13.469   1.809
88857W        W57251  25.877  34.226   3.297
88858W        W57252  29.571   5.405  14.099
88859W        W57253  21.609  37.080   1.052
88860W        W57254  13.523  44.909  11.695
88861W        W57255  29.036  27.913   3.674
88862W        W57256  12.648  10.185   4.304
88863W        W57257  18.119  41.153  13.422
88864W        W57258   3.743  21.774   2.428
88865W        W57259  12.223  32.486  13.003
88866W        W57260  26.393  38.428   3.672
88867W        W57261  33.752  14.296  10.517
88868W        W57262   6.529  10.432  12.975
88869W        W57263   7.812   2.178  13.111
88870W        W57264  13.649  25.920   3.921
88871W        W57265  41.747  20.974  11.112
88872W        W57266  36.112  27.084   2.547
88873W        W57267  35.470  33.927   4.560
88874W        W57268  35.193  19.341   5.052
88875W        W57269  37.844  14.469  14.444
88876W        W57270  42.523  31.160  13.942
88877W        W57271  28.641  37.976  14.461
88878W        W57272  36.158   8.012   4.084
88879W        W57273   6.380  41.781   0.156
88880W        W57274  27.025  23.425  14.765
88881W        W57275  27.897  42.872   4.021
88882W        W57276  19.032  41.306  12.161
88883W        W57277  17.364  10.631  11.085
88884W        W57278  32.003   2.394  14.782
88885W        W57279   4.770  39.352  12.590
88886W        W57280  29.652  25.149  13.325
88887W        W57281  16.123  15.149   4.600
88888W        W57282  11.105  36.543   4.567
88889W        W57283   5.652  35.463  14.258
88890W        W57284  13.229   9.936  11.976
88891W        W57285  10.317  31.489   4.600
88892W        W57286  26.659   3.384  13.540
88893W        W57287   9.681   2.286  14.296
88894W        W57288  16.500  28.856  10.630
88895W        W57289  33.643  27.951  11.451
88896W        W57290  28.726   1.453   3.614
88897W        W57291  37.562  20.944  13.886
88898W        W57292  40.220  43.221   0.713
88899W        W57293  43.956   9.764  10.928
88900W        W57294  37.781   8.105  14.934
88901W        W57295   4.132  36.781   0.934
88902W        W57296  18.058   4.767  13.784
88903W        W57297   9.110  41.340   0.054
88904W        W57298  21.568  28.015   0.933
88905W        W57299  14.834  39.056  13.593
88906W        W57300  43.684  42.827   1.005
88907W        W57301  17.763  35.012  12.235
88908W        W57302  21.241   2.309  12.420
88909W        W57303   2.877  40.560   3.686
88910W        W57304  24.028  22.584  13.903
88911W        W57305   4.737  43.304  11.865
88912W        W57306   5.030  44.991   1.188
88913W        W57307  34.454  43.385   1.113
88914W        W57308  13.285  41.493   4.836
88915W        W57309  36.634   3.903  14.751
88916W        W57310  43.876  32.935  11.502
88917W        W57311  33.819  24.696   3.321
88918W        W57312  38.052   6.472  13.897
88919W        W57313  37.382  43.074  11.878
88920W        W57314  38.951  36.847   3.535
88921W        W57315  17.899  12.376  13.713
88922W        W57316   0.060  41.300  10.848
88923W        W57317  34.070  42.796   3.261
88924W        W57318  16.736  16.214   0.662
88925W        W57319  23.278  15.769   1.350
88926W        W57320  25.066   6.160   1.817
88927W        W57321  25.336  35.498   0.320
88928W        W57322   1.469   4.720  12.665
88929W        W57323  34.047  32.094  14.384
88930W        W57324  25.293   2.302  13.098
88931W        W57325  21.257  17.769  12.857
88932W        W57326  12.189  31.691  13.419
88933W        W57327  21.849  22.915  13.979
88934W        W57328  31.342   4.656  13.013
88935W        W57329  29.548  38.069   2.391
88936W        W57330  12.619  25.563   3.914
88937W        W57331  32.062  25.348  13.364
88938W        W57332  22.331  10.292  13.645
88939W        W57333  24.507  13.355   1.642
88940W        W57334  13.905  37.943   5.275
88941W        W57335  19.227  22.197   2.785
88942W        W57336  26.499   0.360   3.323
88943W        W57337  26.389  11.249   1.231
88944W        W57338  41.803   6.672   3.438
88945W        W57339   5.750  32.891   3.163
88946W        W57340   2.753  34.099  14.835
88947W        W57341  20.284  22.994   0.528
88948W        W57342  17.776  21.549   2.779
88949W        W57343  26.603   7.535  10.977
88950W        W57344   0.523  37.212   1.308
88951W        W57345  21.296  20.113  11.989
88952W        W57346  23.153  34.508   2.726
88953W        W57347   8.776  19.816  14.524
88954W        W57348  30.677  31.968  13.834
88955W        W57349   7.613  42.303   1.438
88956W        W57350  35.945   6.644   1.707
88957W        W57351  23.565   2.359   2.160
88958W        W57352   5.150  37.576  13.949
88959W        W57353   8.167  39.168   2.476
88960W        W57354   7.851  22.490   4.240
88961W        W57355   0.328  11.342  12.906
88962W        W57356  17.399  11.308   1.306
88963W        W57357  28.701  42.944   0.324
88964W        W57358   4.937  34.423   4.552
88965W        W57359  12.708  31.534   3.637
88966W        W57360   3.687  21.699  11.113
88967W        W57361  29.734   8.802  13.778
88968W        W57362  34.948  34.897   0.932
88969W        W57363  38.837  25.214   0.199
88970W        W57364  22.567  29.999   1.409
88971W        W57365   4.142   9.321   2.621
88972W        W57366  28.512  15.871  12.106
88973W        W57367  21.801  27.116  14.362
88974W        W57368  32.214  34.598  11.123
88975W        W57369  17.243   1.828  13.507
88976W        W57370  19.480  24.238  12.265
88977W        W57371   4.874  43.438   2.180
88978W        W57372  13.251  22.486   0.811
88979W        W57373   6.655  21.938  14.310
88980W        W57374   5.961   7.176  10.623
88981W        W57375   1.994  21.460  12.231
88982W        W57376   0.796  21.568   4.690
88983W        W57377  34.578   4.981   2.314
88984W        W57378  38.095  16.250  10.702
88985W        W57379  16.530  24.765   2.678
88986W        W57380  10.668  16.108   1.495
88987W        W57381  27.995  40.833  14.811
88988W        W57382  40.074  44.855  11.753
88989W        W57383  25.132  17.338   1.079
88990W        W57384  22.902  17.728  14.723
88991W        W57385  21.932  19.418   3.696
88992W        W57386   0.335   0.274  13.869
88993W        W57387  33.936  12.808  10.699
88994W        W57388  24.194  24.603   2.294
88995W        W57389   9.558  25.556  12.055
88996W        W57390   8.164  17.156   0.209
88997W        W57391  19.264  37.494  12.475
88998W        W57392  22.747  36.937  14.391
88999W        W57393  32.017  40.090   0.931
89000W        W57394  33.216   2.199   3.643
89001W        W57395   4.723  35.138   3.228
89002W        W57396  10.688  40.500   3.622
89003W        W57397  20.278   1.485  14.245
89004W        W57398  29.781   8.335   1.419
89005W        W57399  19.650   2.750   3.219
89006W        W57400  20.547  31.956   4.127
89007W        W57401   2.521  18.795  12.261
89008W        W57402  42.428  39.295   1.876
89009W        W57403   9.272  42.517  11.021
89010W        W57404  26.705  35.906   4.230
89011W        W57405  35.051  25.984  12.043
89012W        W57406  34.713  40.392   5.028
89013W        W57407  15.820  20.148   4.675
89014W        W57408  27.675   3.833  11.578
89015W        W57409  42.471  14.235  12.378
89016W        W57410   1.871   5.248  11.143
89017W        W57411  24.722   2.012   2.160
89018W        W57412   5.821  12.532   2.338
89019W        W57413   7.885  10.994   4.202
89020W        W57414  33.839  44.557   1.308
89021W        W57415  34.914  25.207   0.718
89022W        W57416  37.273  28.544   1.421
89023W        W57417  16.543  22.554  14.991
89024W        W57418  34.785  32.108   9.895
89025W        W57419   0.048   8.691  14.697
89026W        W57420  37.778  30.424   2.290
89027W        W57421  41.252  36.484  10.222
89028W        W57422   0.267  34.626   2.585
89029W        W57423   4.770  15.724  12.066
89030W        W57424  14.846  12.529  11.113
89031W        W57425  31.928  29.883   0.249
89032W        W57426  18.535  32.516   4.518
89033W        W57427  43.371  28.386  14.010
89034W        W57428  32.473  17.785   0.116
89035W        W57429   8.746  13.382  10.542
89036W        W57430  38.897  13.291  11.504
89037W        W57431  39.355   3.206   0.218
89038W        W57432   4.233  42.320  13.539
89039W        W57433  29.568  10.374   1.982
89040W        W57434  11.918  30.543   0.923
89041W        W57435  17.511   8.600  10.487
89042W        W57436  29.831  11.152   1.920
89043W        W57437   4.502  26.981   2.321
89044W        W57438  30.462  26.621   3.184
89045W        W57439   9.714   7.643   4.631
89046W        W57440  20.746   4.593  13.769
89047W        W57441  31.416  17.213   1.572
89048W        W57442  43.611  43.878  13.384
89049W        W57443  37.518  33.542  14.643
89050W        W57444  41.896  22.101  12.706
89051W        W57445  29.041  38.382   0.749
89052W        W57446  34.998   0.186   4.452
89053W        W57447   3.223   3.358   0.819
89054W        W57448   8.290  19.632  14.477
89055W        W57449  14.197  36.059   1.792
89056W        W57450  34.054  44.787   4.649
89057W        W57451  39.672   0.831  14.901
89058W        W57452  34.319  25.947  13.289
89059W        W57453  27.497  20.755   0.140
89060W        W57454  32.461  43.035  10.555
89061W        W57455  23.073  26.458  12.039
89062W        W57456  43.046  26.609   2.838
89063W        W57457  15.165  44.199   4.195
89064W        W57458   9.094  29.192  12.946
89065W        W57459  10.057   6.421   2.195
89066W        W57460   5.282   8.552  12.288
89067W        W57461  32.193   7.304   2.151
89068W        W57462  31.370   5.149  11.488
89069W        W57463  33.217  31.115  14.827
89070W        W57464  12.251  31.625   3.359
89071W        W57465  32.070   4.632  14.182
89072W        W57466  11.120  36.108  14.958
89073W        W57467  40.014  36.105   4.628
89074W        W57468  32.479   5.262  10.797
89075W        W57469  19.265  27.138  12.512
89076W        W57470  38.839  37.550  11.580
89077W        W57471  12.689  32.494   1.471
89078W        W57472   4.912   7.401   4.261
89079W        W57473  42.279  31.499  11.952
89080W        W57474  26.683  38.023  14.297
89081W        W57475  43.304  16.845  12.001
89082W        W57476  44.614   7.779   2.384
89083W        W57477  33.764  44.025  13.626
89084W        W57478  21.637   8.187   3.719
89085W        W57479  11.083  13.308  14.886
89086W        W57480  37.031   2.911  14.944
89087W        W57481   7.930  33.721   0.862
89088W        W57482  31.974  35.393  13.028
89089W        W57483  39.510  44.276  10.665
89090W        W57484  13.611   7.786  12.842
89091W        W57485   8.755  43.940   3.848
89092W        W57486  34.925  31.054   3.625
89093W        W57487  23.112  29.219   1.405
89094W        W57488  39.897   4.214   1.314
89095W        W57489   4.762  15.975   2.806
89096W        W57490  20.237  23.153   2.707
89097W        W57491  20.723  14.492   1.409
89098W        W57492  39.785  17.120   3.278
89099W        W57493  38.189  19.368   5.016
89100W        W57494  29.496  27.583  10.774
89101W        W57495   9.574  27.307   0.924
89102W        W57496  36.030  25.668   0.058
89103W        W57497  23.729  18.631  12.050
89104W        W57498   2.663   9.946  14.303
89105W        W57499   9.684   3.201  10.635
89106W        W57500   6.809  36.024  12.100
89107W        W57501  43.289  36.350  12.145
89108W        W57502  30.506  11.214  13.555
89109W        W57503  34.522  10.686   4.727
89110W        W57504  30.361  38.726  11.411
89111W        W57505  21.654   4.415  13.337
89112W        W57506  38.559  31.591   3.640
89113W        W57507  17.544  31.764   2.190
89114W        W57508  43.521  16.899   2.439
89115W        W57509  12.442   0.233  12.938
89116W        W57510  19.814   8.972   2.618
89117W        W57511  34.276  35.154  12.755
89118W        W57512   2.913   8.301  10.616
89119W        W57513   9.233  25.700  13.006
89120W        W57514  20.525  39.112   1.357
89121W        W57515  44.997  10.872  12.104
89122W        W57516   8.300  30.914  11.261
89123W        W57517  36.664  27.522   0.387
89124W        W57518  20.063   2.879   4.372
89125W        W57519  26.924  35.843   4.908
89126W        W57520   7.535  24.003  13.852
89127W        W57521  11.693  23.814   3.210
89128W        W57522  23.925  27.681  12.928
89129W        W57523  39.159   0.200   0.998
89130W        W57524  27.940  35.962   1.349
89131W        W57525  29.693   3.394  13.501
89132W        W57526  17.957  10.325   4.987
89133W        W57527  23.128  34.855  12.494
89134W        W57528  28.919  31.272  14.156
89135W        W57529  34.017   0.806   1.349
89136W        W57530  25.619   3.264   4.709
89137W        W57531  18.771   6.801   1.475
89138W        W57532  44.947  35.518   1.816
89139W        W57533   9.298  27.197   0.488
89140W        W57534  44.485  39.262   1.245
89141W        W57535   8.738  38.999   1.920
89142W        W57536  14.816  20.189   2.694
89143W        W57537  28.462  44.545   4.345
89144W        W57538  44.511  20.307  12.952
89145W        W57539  29.276  15.508   0.246
89146W        W57540  12.695  26.649   0.242
89147W        W57541  18.330  34.517   3.245
89148W        W57542  14.131   2.339  13.783
89149W        W57543  10.673  13.332  11.646
89150W        W57544  15.914  14.751   2.111
89151W        W57545  32.052  20.242   4.565
89152W        W57546  17.497   3.911   2.377
89153W        W57547   2.862  43.280   2.105
89154W        W57548   2.402   3.845   1.374
89155W        W57549  23.923   9.015   4.784
89156W        W57550  42.347  15.863  10.291
89157W        W57551   3.047  22.481  14.945
89158W        W57552   5.834   8.727   4.652
89159W        W57553  39.931  34.346  11.163
89160W        W57554  23.301   8.134  13.556
89161W        W57555  26.003  44.710   2.914
89162W        W57556  21.266  20.321   4.036
89163W        W57557  11.632  23.493  14.695
89164W        W57558   1.337  37.952  13.361
89165W        W57559   6.883  28.575   3.406
89166W        W57560  18.617   6.006  12.621
89167W        W57561  19.059  10.109  12.389
89168W        W57562  26.391  40.856  13.829
89169W        W57563  44.460  27.165   1.712
89170W        W57564  26.524  33.160  11.761
89171W        W57565  11.350  20.216   0.825
89172W        W57566  10.724   9.159  14.435
89173W        W57567   6.902  25.593   3.319
89174W        W57568  40.579   5.166  14.718
89175W        W57569  26.604  21.291   1.267
89176W        W57570  34.472   3.289   2.747
89177W        W57571  19.441  40.975  12.118
89178W        W57572  32.311  19.572   2.818
89179W        W57573  24.562  30.638   0.214
89180W        W57574  33.357  40.208   9.780
89181W        W57575  20.569   3.294  11.997
89182W        W57576  15.748  20.774   1.674
89183W        W57577  32.184  38.477   4.683
89184W        W57578  43.596  41.749   0.292
89185W        W57579  25.630  32.962  13.530
89186W        W57580  21.513   2.050   2.771
89187W        W57581  21.665  14.861   4.177
89188W        W57582  25.743  21.323   1.535
89189W        W57583  39.881  29.130  11.152
89190W        W57584  37.053  14.231  11.138
89191W        W57585  23.872   6.307  10.647
89192W        W57586  44.465  15.183   2.355
89193W        W57587  32.981   1.208   2.269
89194W        W57588  11.107  36.989   0.826
89195W        W57589   6.371  40.993  13.423
89196W        W57590  30.132  22.507   0.867
89197W        W57591  26.122   9.443  13.861
89198W        W57592  25.092  14.144  13.480
89199W        W57593  21.618  22.520   4.096
89200W        W57594  21.283   6.664  11.104
89201W        W57595  44.594  16.233  14.827
89202W        W57596   1.641  17.757  11.173
89203W        W57597   8.577  31.689  14.949
89204W        W57598  23.519  28.158  10.445
89205W        W57599  12.411  17.748   2.828
89206W        W57600   1.786  19.028  14.908
89207W        W57601  27.237   2.905   4.408
89208W        W57602  24.593   3.337  14.221
89209W        W57603  10.331  10.155   1.446
89210W        W57604  22.784  35.613   2.855
89211W        W57605  20.258  39.694   0.083
89212W        W57606  28.862  13.641  12.530
89213W        W57607  39.318  24.524   1.325
89214W        W57608  31.113   5.216  11.931
89215W        W57609  19.641  44.610   2.218
89216W        W57610  23.171  38.147   2.469
89217W        W57611  15.102  26.483  13.495
89218W        W57612  42.259  10.956   1.761
89219W        W57613  29.323   8.803  14.106
89220W        W57614   5.805  24.163  13.631
89221W        W57615  27.326  17.914   4.164
89222W        W57616  21.156  28.175  12.117
89223W        W57617  36.851  28.044   3.644
89224W        W57618   0.769  33.572  14.360
89225W        W57619  16.746   6.304  13.846
89226W        W57620   6.024  13.052  12.538
89227W        W57621  40.880  27.614  11.663
89228W        W57622  18.625  22.583   3.513
89229W        W57623  23.005  37.103   1.689
89230W        W57624  10.497  31.233  14.592
89231W        W57625  40.414  39.444   2.211
89232W        W57626  35.437  36.822   1.324
89233W        W57627   6.663  42.554  12.997
89234W        W57628   4.250  20.496  10.722
89235W        W57629  36.501  32.559   0.423
89236W        W57630  27.956  17.160   4.049
89237W        W57631   5.415  25.434  11.161
89238W        W57632  21.575  35.125  12.921
89239W        W57633  23.532   0.287   0.858
89240W        W57634  31.282  10.060   3.221
89241W        W57635  18.054  24.888  10.712
89242W        W57636  38.580   1.837   2.290
89243W        W57637  27.455  38.013  10.737
89244W        W57638   9.634  19.746   2.715
89245W        W57639  26.935  21.411  14.494
89246W        W57640   1.967  39.067  14.491
89247W        W57641  21.263  20.743   2.692
89248W        W57642   2.489   4.386  12.535
89249W        W57643  12.610  40.247   0.993
89250W        W57644  19.332   3.847   1.049
89251W        W57645   1.391  29.853   2.908
89252W        W57646  13.047  38.060   2.852
89253W        W57647  29.659   5.273   0.918
89254W        W57648   3.953  20.983   3.814
89255W        W57649  33.445  16.292   1.901
89256W        W57650  39.210  37.214  12.620
89257W        W57651  30.361  13.642   0.245
89258W        W57652  36.791  39.119   2.238
89259W        W57653  18.726  19.833   1.445
89260W        W57654  12.104  24.276  13.590
89261W        W57655  26.276  38.878   1.161
89262W        W57656  30.496  30.084   3.595
89263W        W57657  37.024  38.647   2.315
89264W        W57658  33.379  21.014   4.080
89265W        W57659   7.190   9.661   3.262
89266W        W57660   3.715  42.247  13.517
89267W        W57661   2.867   6.363   4.551
89268W        W57662   0.434  38.801   0.299
89269W        W57663  26.599  14.099  13.821
89270W        W57664   2.372  40.914   4.519
89271W        W57665  14.661  42.577   3.263
89272W        W57666   7.257   6.481   5.426
89273W        W57667  20.937  18.581  14.403
89274W        W57668  27.913   6.613   2.759
89275W        W57669  23.776  13.257  10.508
89276W        W57670  33.829  35.028  13.411
89277W        W57671  35.644   6.343  11.752
89278W        W57672  33.418   7.212  11.646
89279W        W57673   6.731  37.200  12.985
89280W        W57674  29.028  37.228   1.745
89281W        W57675  36.641   6.498  14.835
89282W        W57676  27.703   5.328   0.321
89283W        W57677  44.753  15.374  13.391
89284W        W57678  31.429  16.780   1.885
89285W        W57679   7.676  16.213  12.111
89286W        W57680  11.578  28.778   2.746
89287W        W57681  22.219  40.543   2.887
89288W        W57682  24.037   3.937  10.644
89289W        W57683  16.689  38.457   1.912
89290W        W57684  39.314  38.785   2.758
89291W        W57685  24.301   9.202  13.462
89292W        W57686  19.698  19.773   2.388
89293W        W57687  21.593  42.122  12.886
89294W        W57688   9.882  40.297  12.982
89295W        W57689  20.923  12.557   1.205
89296W        W57690  33.889  20.956  12.580
89297W        W57691  17.625   1.255   2.106
89298W        W57692   7.202   9.867   0.200
89299W        W57693  20.753  24.029  13.513
89300W        W57694  33.516   7.656   4.839
89301W        W57695  25.498  24.085   2.426
89302W        W57696   2.815  32.098   2.198
89303W        W57697  31.586  10.839  12.059
89304W        W57698  31.623  39.010   4.199
89305W        W57699  27.663  32.337  11.155
89306W        W57700  11.471  43.964   4.519
89307W        W57701  39.802  14.769  11.160
89308W        W57702  25.691  29.960  14.900
89309W        W57703   3.757  38.845   1.325
89310W        W57704  35.014  15.412   3.830
89311W        W57705  30.167  11.802   2.804
89312W        W57706  29.604   2.939   0.705
89313W        W57707   7.190  20.258  14.920
89314W        W57708  26.511  44.335   0.816
89315W        W57709  34.655   6.838  11.055
89316W        W57710  12.571  12.710  11.278
89317W        W57711   9.293  24.777  10.625
89318W        W57712   9.424  39.335  13.007
89319W        W57713  11.944  38.643   4.209
89320W        W57714   0.910  31.901   3.782
89321W        W57715  44.291   8.375   2.220
89322W        W57716  13.535   1.278  11.579
89323W        W57717  22.608  41.972   3.349
89324W        W57718  20.177  41.183  11.555
89325W        W57719  15.596  21.920  12.903
89326W        W57720  26.550  38.091   2.254
89327W        W57721   9.719  43.884   4.665
89328W        W57722   7.687  27.465  11.192
89329W        W57723  42.927  29.329   4.842
89330W        W57724   9.833  31.582   2.318
89331W        W57725  15.790  43.064  12.851
89332W        W57726   9.765  31.046  10.710
89333W        W57727  31.664  18.250   0.399
89334W        W57728  11.567  26.722  12.178
89335W        W57729  25.044  13.897  13.041
89336W        W57730  13.385  44.591  14.667
89337W        W57731  29.616  39.624  12.912
89338W        W57732   3.474  31.458   0.543
89339W        W57733  32.591   1.827  12.573
89340W        W57734  44.740   1.923  12.065
89341W        W57735   1.992  20.673   4.752
89342W        W57736  28.565  21.322   2.312
89343W        W57737  15.289  13.421  12.499
89344W        W57738  35.709  40.078  11.086
89345W        W57739  44.388  18.855   3.379
89346W        W57740  15.334   9.672  14.321
89347W        W57741  24.377  26.986  10.898
89348W        W57742  12.253   1.477  10.521
89349W        W57743  39.932  41.757   3.220
89350W        W57744  13.043  31.146  14.984
89351W        W57745  27.213  15.649  13.685
89352W        W57746  42.993   0.633  13.715
89353W        W57747  40.542   4.951  12.008
89354W        W57748   9.283   9.371   4.878
89355W        W57749  37.147  27.729   0.308
89356W        W57750   4.264   3.628   5.231
89357W        W57751   4.340  25.617   3.771
89358W        W57752  19.175  17.738   0.847
89359W        W57753  25.683  23.300   0.469
89360W        W57754  36.431  22.987  10.694
89361W        W57755  33.930  14.561  13.937
89362W        W57756  32.707  34.127  12.958
89363W        W57757  43.869  16.055   1.892
89364W        W57758  32.717  34.031   3.242
89365W        W57759   7.907  17.868  13.133
89366W        W57760  15.673  13.801   3.134
89367W        W57761  11.426   3.797  10.746
89368W        W57762  31.404  19.078   1.950
89369W        W57763  27.401  34.494   2.571
89370W        W57764  30.355  44.556  14.214
89371W        W57765  26.117  38.563  14.926
89372W        W57766  38.889   9.158  11.021
89373W        W57767  15.253  39.603  13.908
89374W        W57768  39.910  15.444   9.833
89375W        W57769  27.731  22.705   4.903
89376W        W57770  28.072  25.665   2.397
89377W        W57771  12.339   9.857  14.040
89378W        W57772  24.442  31.720   0.131
89379W        W57773  16.350  12.733   4.589
89380W        W57774   0.484  35.048  13.501
89381W        W57775  27.491  15.321   4.261
89382W        W57776  40.440  12.726  10.291
89383W        W57777  43.794  21.232   0.110
89384W        W57778   5.492  41.145   1.701
89385W        W57779   4.763  15.510  14.363
89386W        W57780  30.589  37.511  14.937
89387W        W57781  34.394  22.715   1.213
89388W        W57782  35.030  23.919   1.377
89389W        W57783  24.332  15.355  10.750
89390W        W57784  24.142   2.859  10.612
89391W        W57785   9.390  15.020   1.282
89392W        W57786  25.500   1.235   2.859
89393W        W57787  12.913  38.873   0.735
89394W        W57788  12.517  41.426   2.249
89395W        W57789  21.699  33.532   3.583
89396W        W57790   4.195   5.428   1.946
89397W        W57791  42.764  24.441  11.173
89398W        W57792  40.370  21.555   2.124
89399W        W57793   2.466  38.867   4.151
89400W        W57794  12.926  32.110   1.171
89401W        W57795  37.753  44.707  11.078
89402W        W57796  40.475  39.204  10.149
89403W        W57797  36.076  37.069   4.754
89404W        W57798   7.300  23.560  13.088
89405W        W57799  20.699   8.580  12.845
89406W        W57800  19.147  28.861   4.218
89407W        W57801  27.509  31.657  11.579
89408W        W57802  29.546  42.464   4.223
89409W        W57803  23.683  32.602  11.985
89410W        W57804  27.024  30.063   1.652
89411W        W57805  19.769  28.252  12.143
89412W        W57806  16.622  26.138   0.733
89413W        W57807  42.088  15.446   3.132
89414W        W57808  25.961  14.088   3.122
89415W        W57809  12.118  32.832   0.725
89416W        W57810  38.052  41.636  13.036
89417W        W57811  14.770  41.658   0.388
89418W        W57812  18.290  29.334  12.930
89419W        W57813  35.114  30.601   2.303
89420W        W57814   3.328  21.252  13.056
89421W        W57815  27.745   7.863   3.845
89422W        W57816  28.947  27.144  11.600
89423W        W57817  16.890  28.794  13.235
89424W        W57818  28.921  43.549   3.704
89425W        W57819  37.805  27.189   0.732
89426W        W57820   1.519   1.390  12.577
89427W        W57821  39.759  28.647   4.623
89428W        W57822   6.170  24.906   0.182
89429W        W57823   0.407   7.752  14.521
89430W        W57824   4.749  15.350   5.015
89431W        W57825   4.149  18.596  11.091
89432W        W57826  41.963  35.000  13.392
89433W        W57827  34.518  20.282   2.687
89434W        W57828  36.041  12.785   2.631
89435W        W57829   9.632  37.402  13.027
89436W        W57830  34.755  30.391   0.692
89437W        W57831  44.456  44.063  14.425
89438W        W57832  23.735  14.112  14.449
89439W        W57833  22.646   0.388   3.212
89440W        W57834  28.329  32.283   2.726
89441W        W57835   2.394   7.846   0.367
89442W        W57836  36.021   7.109   1.929
89443W        W57837   0.824  34.903  12.139
89444W        W57838  30.726  14.743   1.211
89445W        W57839  12.080  13.461  12.081
89446W        W57840   8.183  14.059   2.709
89447W        W57841   3.953   5.393  12.067
89448W        W57842  27.036   9.123   3.575
89449W        W57843  24.975  27.545  13.017
89450W        W57844  30.190  32.683  13.498
89451W        W57845  27.996  26.341   2.619
89452W        W57846   0.413   5.403  12.817
89453W        W57847  16.302  23.508  11.126
89454W        W57848  11.535  39.401  14.864
89455W        W57849  16.666  27.555   4.669
89456W        W57850  41.079  30.578   2.044
89457W        W57851  15.103  25.928   1.959
89458W        W57852  35.049  14.735   0.556
89459W        W57853   0.735  10.235  12.916
89460W        W57854  44.039   3.995  10.986
89461W        W57855   5.022   7.251   0.910
89462W        W57856   6.983  11.054   4.161
89463W        W57857  12.528  33.785  12.853
89464W        W57858  30.861  32.965  11.189
89465W        W57859  19.830  20.595  13.722
89466W        W57860  30.817  15.255  11.105
89467W        W57861   0.883  36.381  13.970
89468W        W57862  10.482  33.939   0.849
89469W        W57863  34.399  43.300  13.408
89470W        W57864  18.531  10.208  10.276
89471W        W57865  11.622  12.367  13.998
89472W        W57866   8.440  36.095   2.695
89473W        W57867   3.243  13.405   0.330
89474W        W57868  11.398  39.252   2.936
89475W        W57869  24.097  20.927  10.316
89476W        W57870  44.399  34.952  12.225
89477W        W57871  42.962  12.330  14.824
89478W        W57872   5.681  27.397   4.759
89479W        W57873  31.401  18.263   0.957
89480W        W57874  31.951  16.793  12.486
89481W        W57875  21.490  14.388   4.228
89482W        W57876  27.190  17.644   0.283
89483W        W57877   1.862  30.237  10.370
89484W        W57878   9.715   8.040   0.276
89485W        W57879  39.971  15.143   1.430
89486W        W57880  13.535   3.248   4.171
89487W        W57881   7.131  26.321   5.733
89488W        W57882  23.513  41.758  10.533
89489W        W57883  27.702  28.103  12.337
89490W        W57884  44.003  37.189   4.039
89491W        W57885   6.151   2.676  13.462
89492W        W57886   4.727  42.498  13.507
89493W        W57887  39.925  43.331   3.272
89494W        W57888   5.264  44.709  14.970
89495W        W57889  15.417  16.855  11.151
89496W        W57890  44.049   1.104  10.756
89497W        W57891  18.888   1.281   0.714
89498W        W57892  19.585  11.413   2.867
89499W        W57893   4.734  35.103  12.218
89500W        W57894   5.155  25.060  14.514
89501W        W57895  26.736   9.402  12.435
89502W        W57896  27.934  23.663  14.852
89503W        W57897  31.493  43.861  14.525
89504W        W57898  43.245  34.597  14.048
89505W        W57899  36.350  44.572   0.984
89506W        W57900  28.981  38.581  13.963
89507W        W57901   4.076  36.074   1.955
89508W        W57902  15.330  20.918  12.955
89509W        W57903  23.267   1.240  10.644
89510W        W57904   6.822   6.655  11.426
89511W        W57905   9.104  14.967   1.724
89512W        W57906  44.557  28.328  13.500
89513W        W57907  11.636  43.539   0.372
89514W        W57908  38.580  24.906  13.885
89515W        W57909  29.893  22.508  12.843
89516W        W57910  21.013   2.638  13.842
89517W        W57911   6.152   6.229   4.065
89518W        W57912   2.045  33.005   1.874
89519W        W57913  24.622  42.736   4.596
89520W        W57914  31.876  15.136   4.520
89521W        W57915  36.957  36.853  13.131
89522W        W57916   2.732  39.411  14.391
89523W        W57917  13.362  41.993   4.077
89524W        W57918  10.610   7.780   2.977
89525W        W57919  10.259   9.829   3.638
89526W        W57920  42.902  15.257  11.063
89527W        W57921  16.392  18.187   9.526
89528W        W57922  10.670   1.442  12.714
89529W        W57923   1.146  33.808  11.178
89530W        W57924  20.301  33.436  13.150
89531W        W57925  25.075   7.369   4.270
89532W        W57926  20.506   7.260  12.336
89533W        W57927  33.814  21.195  12.120
89534W        W57928   9.917  14.868   3.157
89535W        W57929   3.673  37.970  12.466
89536W        W57930  32.904   6.731   1.753
89537W        W57931  14.300  43.644   0.228
89538W        W57932   1.735   0.404  12.333
89539W        W57933  30.601  42.932   0.519
89540W        W57934  14.207  28.169  12.763
89541W        W57935  30.054  24.465  12.613
89542W        W57936  11.855  36.948  10.338
89543W        W57937  22.700  21.667  14.528
89544W        W57938  15.175  35.183  11.287
89545W        W57939  35.276  39.371  14.362
89546W        W57940   0.444  30.553  10.471
89547W        W57941   2.861   9.853   4.132
89548W        W57942  14.335   4.709  10.693
89549W        W57943  28.399  34.125  11.242
89550W        W57944  36.663   5.581  11.956
89551W        W57945   5.617   8.808   4.155
89552W        W57946   4.406  32.026  12.463
89553W        W57947  11.361  30.161   4.103
89554W        W57948  29.416  35.593   4.437
89555W        W57949   8.997   4.469   3.080
89556W        W57950  38.502   7.042  12.218
89557W        W57951  41.517  42.331  13.605
89558W        W57952  17.969  21.940   1.340
89559W        W57953  22.658  31.858   1.814
89560W        W57954   4.655   9.602   3.293
89561W        W57955  12.316  11.402   4.550
89562W        W57956  31.600   4.219  12.901
89563W        W57957  44.997  42.390   2.614
89564W        W57958  39.813   9.101   3.633
89565W        W57959  44.273   3.769   1.252
89566W        W57960  20.558  34.578   3.751
89567W        W57961  23.413   4.790   0.015
89568W        W57962  16.694  24.272   3.747
89569W        W57963  16.378  32.575   3.604
89570W        W57964  37.084  11.716  12.513
89571W        W57965  21.567  14.634  13.300
89572W        W57966  35.549  29.617  12.064
89573W        W57967   0.621  11.034   1.691
89574W        W57968  18.590  34.724   1.763
89575W        W57969  15.794  10.722  11.968
89576W        W57970   2.965   0.339  12.038
89577W        W57971  18.289  35.541   1.910
89578W        W57972  20.393  16.066   4.097
89579W        W57973  13.088  20.014   3.305
89580W        W57974  35.850   3.868  14.633
89581W        W57975  15.212  27.413  13.391
89582W        W57976  36.255  36.920  12.142
89583W        W57977  38.342  11.694   2.413
89584W        W57978  32.063  26.309  11.640
89585W        W57979  21.642  10.685  13.987
89586W        W57980  22.674  22.460  14.440
89587W        W57981  42.848  39.518  14.267
89588W        W57982   4.145   9.074  12.125
89589W        W57983  10.722  25.034   0.363
89590W        W57984  27.783  24.701   2.418
89591W        W57985  28.410  41.886   3.324
89592W        W57986  42.946  31.466   0.726
89593W        W57987   7.046  33.393  13.341
89594W        W57988  43.590  24.577  10.862
89595W        W57989  34.841  25.452  13.550
89596W        W57990   6.200  12.018   1.601
89597W        W57991  34.797  27.919  13.522
89598W        W57992  11.797  34.913   0.440
89599W        W57993  38.539  38.888  10.882
89600W        W57994  30.549  39.214  11.480
89601W        W57995  43.459  15.124  12.094
89602W        W57996  12.468  33.119   3.885
89603W        W57997  15.862  15.505   3.313
89604W        W57998  11.149  14.297   1.816
89605W        W57999   0.834  12.608  10.970
89606W        W58000  41.019  33.530   4.473
89607W        W58001  33.693  42.050  11.615
89608W        W58002  44.939   3.544  10.901
89609W        W58003   1.955  17.901   4.661
89610W        W58004  34.057  30.666  12.406
89611W        W58005  42.056  37.285   1.270
89612W        W58006   7.341   7.534   4.445
89613W        W58007  40.204  21.241  12.348
89614W        W58008  19.801  16.764  14.543
89615W        W58009  35.075  42.975   0.222
89616W        W58010  39.315  19.587  12.581
89617W        W58011   6.912  29.762   2.869
89618W        W58012  12.320  42.309   0.195
89619W        W58013   6.665  32.723  12.099
89620W        W58014  32.990   9.911   0.997
89621W        W58015  15.159  41.334   0.375
89622W        W58016   1.450  13.061   3.306
89623W        W58017  12.418  28.295   2.439
89624W        W58018  12.092   7.164   1.171
89625W        W58019   2.236   8.329   0.332
89626W        W58020   7.332  15.290   0.475
89627W        W58021  20.018  37.118   4.049
89628W        W58022  22.230  33.149   3.079
89629W        W58023  29.382  38.289   4.147
89630W        W58024  38.398   0.283  13.931
89631W        W58025  24.752  29.636  14.946
89632W        W58026  17.471  15.082  10.262
89633W        W58027  17.385  15.935  10.116
89634W        W58028   3.496  23.044  10.724
89635W        W58029   7.592  34.320  12.450
89636W        W58030   1.936  14.854  11.459
89637W        W58031  40.813   6.716   3.348
89638W        W58032   1.744  16.831   3.741
89639W        W58033  21.726   4.377  13.926
89640W        W58034   1.339   1.019   3.163
89641W        W58035  15.045  21.145   1.862
89642W        W58036  23.193  29.384   4.082
89643W        W58037  44.768   3.315   1.270
89644W        W58038  33.931  10.890  12.507
89645W        W58039  21.015  39.513  12.665
89646W        W58040   5.932  25.134   1.966
89647W        W58041  12.635   8.137  12.321
89648W        W58042  17.101  25.641   4.650
89649W        W58043  32.107  42.959   3.353
89650W        W58044  37.022  42.258   3.264
89651W        W58045  24.824  42.316  13.777
89652W        W58046  31.035   1.735   0.254
89653W        W58047  42.665  29.238   3.108
89654W        W58048  39.067  20.702  13.989
89655W        W58049  22.845  44.456   1.253
89656W        W58050   2.666   5.854  11.136
89657W        W58051  32.813  12.633   2.220
89658W        W58052  40.976  26.439   1.381
89659W        W58053  34.251  38.493  10.919
89660W        W58054   4.032  34.841   2.634
89661W        W58055  31.922  30.315   1.009
89662W        W58056  44.759  28.703  14.972
89663W        W58057   0.712   0.397  12.562
89664W        W58058  20.694  24.595   3.741
89665W        W58059  24.652  13.876  13.411
89666W        W58060   0.312  10.853  14.445
89667W        W58061   7.452  13.659   2.184
89668W        W58062  44.420  23.504  13.347
89669W        W58063  15.572   9.713   0.989
89670W        W58064  36.575  29.012   4.537
89671W        W58065  23.399  36.582  13.378
89672W        W58066  14.665  38.037   3.147
89673W        W58067  38.535  33.454  11.475
89674W        W58068  16.300  25.016  13.841
89675W        W58069  21.163  33.512  13.290
89676W        W58070  23.270  29.979   4.652
89677W        W58071   1.710   4.858   2.800
89678W        W58072  15.852  43.532   4.610
89679W        W58073  44.261  24.505   5.150
89680W        W58074  42.212  43.957   0.304
89681W        W58075   7.163   6.254  14.224
89682W        W58076   8.129  19.965  14.063
89683W        W58077  14.056  28.156   4.571
89684W        W58078  26.901  13.224   4.124
89685W        W58079  22.535  10.338   3.653
89686W        W58080  29.651  42.818  13.784
89687W        W58081  32.049   4.113  12.647
89688W        W58082  39.006   2.445   3.174
89689W        W58083   6.121  19.677   1.428
89690W        W58084  17.752   5.082   1.885
89691W        W58085  12.423  41.586   3.927
89692W        W58086  19.671  35.177   0.407
89693W        W58087  17.130  23.258  14.589
89694W        W58088  21.573  11.059  10.130
89695W        W58089  28.884  40.454  12.775
89696W        W58090  40.531   3.173   2.192
89697W        W58091   5.807  29.070  12.132
89698W        W58092   9.896   8.040  14.306
89699W        W58093  41.745  11.275   2.327
89700W        W58094  13.729   4.862  14.302
89701W        W58095  23.133  20.615   4.149
89702W        W58096   3.764  21.079   4.600
89703W        W58097  29.856  40.424  11.202
89704W        W58098  29.697  33.124  11.980
89705W        W58099  43.323  15.133   0.969
89706W        W58100   1.899  27.577  12.415
89707W        W58101   8.410  30.016  13.894
89708W        W58102  16.372  23.503  14.299
89709W        W58103   4.490   2.397  11.012
89710W        W58104   7.370  13.810   4.630
89711W        W58105   3.620  25.454  13.875
89712W        W58106  32.472   1.640   4.459
89713W        W58107  37.451   3.000   3.222
89714W        W58108   9.130  40.583  11.226
89715W        W58109  21.624  15.538  11.581
89716W        W58110  37.445  11.773  10.666
89717W        W58111  33.828   4.159   0.679
89718W        W58112  39.542  16.818   0.212
89719W        W58113  27.145  38.033  13.498
89720W        W58114  11.945  17.559   1.413
89721W        W58115  15.363  28.335  11.429
89722W        W58116  37.933  34.889  12.967
89723W        W58117  26.595   8.813   0.450
89724W        W58118  35.431   0.938  14.172
89725W        W58119   3.870  29.557   3.580
89726W        W58120  10.455  44.088  11.648
89727W        W58121  35.901  42.891   2.056
89728W        W58122   7.459  42.896   3.707
89729W        W58123  16.610  10.313  11.848
89730W        W58124  16.552  29.095   2.185
89731W        W58125   4.874  23.219   1.597
89732W        W58126  43.557  21.513  13.790
89733W        W58127   2.173  28.676  14.999
89734W        W58128   2.821  35.308  14.033
89735W        W58129  33.600  32.554   4.787
89736W        W58130  36.481  24.996  13.876
89737W        W58131  38.004  20.103   3.115
89738W        W58132  38.299  28.654   1.788
89739W        W58133  37.462  31.502  13.289
89740W        W58134   3.261  31.219   1.871
89741W        W58135   4.930  23.107  12.440
89742W        W58136  36.302  37.461   2.841
89743W        W58137  28.152  13.116   1.617
89744W        W58138  43.275  22.127   0.172
89745W        W58139  20.479   3.912  12.651
89746W        W58140  20.776  25.019   2.294
89747W        W58141  14.758  25.521  14.581
89748W        W58142  33.066  40.232  12.584
89749W        W58143  22.637  14.571  13.401
89750W        W58144  12.560   6.829  13.011
89751W        W58145   8.646   1.319   0.500
89752W        W58146  34.811  26.688  14.569
89753W        W58147  20.499  30.542   0.025
89754W        W58148   8.968  31.969   0.109
89755W        W58149  27.095  43.482   3.544
89756W        W58150  34.337  36.280   3.242
89757W        W58151  35.824   9.234   2.923
89758W        W58152   5.442  41.057   2.645
89759W        W58153  43.808  34.382   4.116
89760W        W58154  42.815  33.140   3.724
89761W        W58155  27.709   0.967  10.790
89762W        W58156  20.420  34.310   4.170
89763W        W58157  27.957  31.228  12.146
89764W        W58158  40.029  32.515   0.053
89765W        W58159   2.634  27.859  14.361
89766W        W58160  23.381   2.860  11.037
89767W        W58161  26.752  22.733  12.985
89768W        W58162  18.725  36.934   3.964
89769W        W58163  37.385  44.043  10.685
89770W        W58164  37.734  22.166   1.344
89771W        W58165   8.312  39.993  14.756
89772W        W58166   9.523  32.007   2.209
89773W        W58167   6.876  33.619  11.545
89774W        W58168  22.094  22.266   4.095
89775W        W58169  18.172  12.827  14.473
89776W        W58170  28.282  17.562  11.562
89777W        W58171  32.571  23.199   0.699
89778W        W58172  39.825   3.335   0.048
89779W        W58173  19.102   6.209  12.589
89780W        W58174   9.126  14.789   3.683
89781W        W58175  13.549   8.785   2.295
89782W        W58176  27.231  18.108  10.405
89783W        W58177  38.441  25.066   0.480
89784W        W58178  17.904  31.961   0.773
89785W        W58179  15.714  44.462  13.085
89786W        W58180  34.085   9.425   1.843
89787W        W58181  25.177   7.203   0.846
89788W        W58182  42.010  16.821   1.964
89789W        W58183  42.131   8.235   3.675
89790W        W58184  17.803  15.290  11.156
89791W        W58185  16.274  24.754  12.514
89792W        W58186  28.222  22.827  13.787
89793W        W58187  10.001   5.599   9.984
89794W        W58188  27.042  27.187   0.776
89795W        W58189   8.335   6.478   2.166
89796W        W58190   6.174  36.424  10.002
89797W        W58191  31.827  21.879  12.090
89798W        W58192  36.948  15.631  14.999
89799W        W58193  20.623  38.381  14.010
89800W        W58194  19.745  10.175   2.007
89801W        W58195   3.943  12.104   2.609
89802W        W58196  14.710  43.977   4.353
89803W        W58197  26.025  23.514  14.889
89804W        W58198  44.167  26.528   0.936
89805W        W58199  16.240  21.649   3.804
89806W        W58200  16.187  19.121   0.925
89807W        W58201   2.834  24.483  11.715
89808W        W58202  24.332  42.877   0.017
89809W        W58203  39.753  29.080  14.459
89810W        W58204  22.521  32.483  11.552
89811W        W58205  41.296   3.256  14.573
89812W        W58206  19.201  39.827  12.878
89813W        W58207  23.411   5.810  11.186
89814W        W58208  26.166  21.741   0.782
89815W        W58209  11.188   9.225   1.458
89816W        W58210  30.199  15.260  13.895
89817W        W58211  43.749  14.860  14.179
89818W        W58212  15.499  16.642   5.155
89819W        W58213  39.943  33.954   0.943
89820W        W58214  30.904   8.207  14.390
89821W        W58215   6.296  11.849   2.103
89822W        W58216  20.935  28.024   4.570
89823W        W58217   9.869   1.819  14.426
89824W        W58218  44.375   6.479  12.316
89825W        W58219  32.883  26.826   4.179
89826W        W58220  39.952  23.214   4.109
89827W        W58221  22.572  30.791   2.113
89828W        W58222  18.942   0.264   4.566
89829W        W58223  42.540   4.185   3.957
89830W        W58224  13.408  34.925  12.800
89831W        W58225  30.153  31.498   2.825
89832W        W58226   5.808   1.467   3.180
89833W        W58227  30.036  22.775  11.222
89834W        W58228  44.289  43.259  14.760
89835W        W58229  43.989  39.812  13.518
89836W        W58230  21.180  40.949   3.656
89837W        W58231   9.869  28.523  12.982
89838W        W58232  25.179   0.935   3.169
89839W        W58233  30.996  10.580  13.847
89840W        W58234   4.509  15.506   2.761
89841W        W58235  40.144   6.402   0.878
89842W        W58236  42.374  44.023   4.047
89843W        W58237   5.429  22.412   0.671
89844W        W58238  27.965  42.348   1.293
89845W        W58239  11.916  34.027  10.752
89846W        W58240  21.691  38.620   0.274
89847W        W58241   0.738  27.570  13.909
89848W        W58242  35.376  42.961   1.961
89849W        W58243  28.069  11.884  14.535
89850W        W58244  31.450  11.153   1.959
89851W        W58245  43.886  23.113  12.492
89852W        W58246   1.912  16.466   1.562
89853W        W58247  35.912  36.134  12.398
89854W        W58248  27.064   2.454   4.243
89855W        W58249  42.529  36.397   1.396
89856W        W58250  29.154  38.511  12.043
89857W        W58251  33.150   8.995   1.454
89858W        W58252  13.219   3.676  11.061
89859W        W58253  16.010  16.662   4.283
89860W        W58254  15.092  25.991  11.140
89861W        W58255  38.683  25.717  13.065
89862W        W58256  15.950  37.531   3.688
89863W        W58257  39.856  14.237  13.396
89864W        W58258   5.134  42.096  12.676
89865W        W58259  28.009  23.061  11.051
89866W        W58260  43.935  43.063  13.635
89867W        W58261  17.033  35.660   0.760
89868W        W58262  16.690  32.331  11.073
89869W        W58263  20.682  25.148   3.740
89870W        W58264  32.386  37.397   4.131
89871W        W58265   7.867  41.266  14.261
89872W        W58266  33.998  28.043   1.394
89873W        W58267  32.591  23.944  14.469
89874W        W58268  14.875  14.676   2.344
89875W        W58269  40.510  39.357   3.758
89876W        W58270  41.356  14.134   4.457
89877W        W58271  13.523  20.127  12.618
89878W        W58272  18.390  33.188   3.258
89879W        W58273  22.128  27.018   4.871
89880W        W58274  29.736  43.951   2.580
89881W        W58275  37.436   1.388   3.266
89882W        W58276  25.141  22.669  14.866
89883W        W58277  30.454  26.400   4.567
89884W        W58278  23.286  16.258  14.479
89885W        W58279  44.711  20.309  14.914
89886W        W58280   9.848   3.353  11.618
89887W        W58281  40.214  27.113  13.112
89888W        W58282  19.422  20.328  13.539
89889W        W58283  36.027  36.777  10.742
89890W        W58284   4.809  42.717  13.025
89891W        W58285   1.136  33.480   3.796
89892W        W58286  24.019  14.279   3.229
89893W        W58287  18.698  22.649   5.338
89894W        W58288  10.236  11.168  11.961
89895W        W58289  25.301  20.040   1.781
89896W        W58290  38.898  17.736   1.939
89897W        W58291  27.191  39.281   3.202
89898W        W58292  16.209  39.891  14.377
89899W        W58293   6.759  12.860  11.864
89900W        W58294  29.677  32.925   2.798
89901W        W58295   8.473  14.116   0.985
89902W        W58296  17.219  26.935  14.531
89903W        W58297  11.219  32.333   0.399
89904W        W58298  29.383   8.640   2.669
89905W        W58299  34.649  21.595   2.134
89906W        W58300  39.938  35.237   0.176
89907W        W58301  16.895  41.788   1.627
89908W        W58302  42.433  37.877   0.477
89909W        W58303   4.950   0.566  10.785
89910W        W58304   9.280   3.671  10.730
89911W        W58305   1.230  16.898  10.993
89912W        W58306  13.784   9.429  13.022
89913W        W58307  31.071  24.237  14.481
89914W        W58308   0.204  27.089   0.257
89915W        W58309  19.002  21.727  14.842
89916W        W58310  14.070  18.322  12.416
89917W        W58311  30.181  31.948  13.953
89918W        W58312  27.127  27.997   4.787
89919W        W58313  36.929  10.212   1.462
89920W        W58314  29.261  25.798  14.407
89921W        W58315  19.559  30.490   0.716
89922W        W58316  38.583  15.580   3.408
89923W        W58317  36.663  30.306  10.844
89924W        W58318   7.254  19.241   1.738
89925W        W58319  44.963   3.098  11.236
89926W        W58320  18.824   2.303   3.294
89927W        W58321  41.916  11.357  14.353
89928W        W58322  29.841  13.706   3.334
89929W        W58323  31.039  21.751   3.806
89930W        W58324  21.200  17.584   3.884
89931W        W58325  21.683  25.426  12.312
89932W        W58326  42.428  14.185  11.384
89933W        W58327  18.233   1.502   1.314
89934W        W58328  39.934  42.591  10.494
89935W        W58329   7.396  12.595  14.412
89936W        W58330  31.990  14.009   3.312
89937W        W58331  10.658  22.104   2.349
89938W        W58332  40.434  37.327  10.164
89939W        W58333  39.366   5.245  11.020
89940W        W58334   4.739  31.561  13.983
89941W        W58335  24.811  38.856   4.137
89942W        W58336   8.388   4.794   1.630
89943W        W58337   3.004   5.562   2.962
89944W        W58338  13.379  12.221   4.058
89945W        W58339  32.712  18.605   2.372
89946W        W58340  15.868  23.772  11.090
89947W        W58341  34.079  15.104   3.599
89948W        W58342  18.015  36.783  13.819
89949W        W58343  17.730  15.521   5.364
89950W        W58344  24.028  13.252   2.901
89951W        W58345  21.802   9.998   0.947
89952W        W58346  36.364  43.763  12.606
89953W        W58347  10.801  28.429  11.978
89954W        W58348  19.268  13.015   0.456
89955W        W58349  43.382  22.527  13.872
89956W        W58350  43.522  17.545  12.544
89957W        W58351  43.498   5.679  13.145
89958W        W58352  13.078   7.459  10.087
89959W        W58353  44.698  16.479  11.939
89960W        W58354   5.476   4.782  11.576
89961W        W58355   0.680  25.684   0.360
89962W        W58356  17.578  37.664   4.894
89963W        W58357   3.923  13.105   2.421
89964W        W58358  31.896  24.807   4.326
89965W        W58359   8.971  16.025  13.543
89966W        W58360  18.232  16.636  13.626
89967W        W58361  39.337  41.325  12.088
89968W        W58362  40.816  29.104   1.013
89969W        W58363   8.290  44.684   2.376
89970W        W58364  41.511   3.695  14.753
89971W        W58365  19.800  25.161  11.194
89972W        W58366  17.287   4.687  11.579
89973W        W58367  31.994  24.927  14.763
89974W        W58368  17.739   3.356  12.272
89975W        W58369  36.496  25.135  10.871
89976W        W58370  26.451  36.355   4.163
89977W        W58371  23.203  36.404  12.212
89978W        W58372   6.466  26.204  12.956
89979W        W58373   5.045  26.411   1.816
89980W        W58374  39.636  26.593   4.711
89981W        W58375   7.010  16.776   1.537
89982W        W58376  34.628  39.042   1.467
89983W        W58377  27.452  25.591  12.115
89984W        W58378  36.864  28.264  12.906
89985W        W58379   7.163   1.880   4.706
89986W        W58380  38.881   5.235  10.788
89987W        W58381  36.409   0.217  12.532
89988W        W58382  26.459  24.595   0.936
89989W        W58383  34.577  17.600  12.439
89990W        W58384  14.278  10.686  12.912
89991W        W58385  29.133  31.196   4.163
89992W        W58386  41.085  41.773  11.579
89993W        W58387  34.718  23.330   2.531
89994W        W58388  28.458  19.648  13.404
89995W        W58389  23.603   5.069  13.996
89996W        W58390  19.232  37.555   3.812
89997W        W58391   6.919  43.708  14.771
89998W        W58392  43.113  12.138   3.361
89999W        W58393  31.117  14.096  12.949
90000W        W58394  14.948  24.073   4.755
90001W        W58395  16.206  34.085   1.245
90002W        W58396  19.277   0.852   3.064
90003W        W58397  24.639  12.300   0.263
90004W        W58398  13.265  39.355  10.637
90005W        W58399  28.062  39.870   0.547
90006W        W58400  23.085  28.190   3.710
90007W        W58401  17.434  31.814  14.993
90008W        W58402  40.101  10.445   4.828
90009W        W58403  28.858   3.613  12.000
90010W        W58404  27.084  24.229  13.829
90011W        W58405  24.774  13.980   0.798
90012W        W58406  33.061   7.470  10.938
90013W        W58407  14.372  10.511  14.599
90014W        W58408   9.818  28.129   3.125
90015W        W58409  13.699  26.004  12.248
90016W        W58410  32.544  27.000   4.689
90017W        W58411  37.591  37.092  12.075
90018W        W58412  16.762  34.388   3.596
90019W        W58413  34.273  11.113   0.974
90020W        W58414   6.780  17.811  14.319
90021W        W58415  38.550  21.976   4.077
90022W        W58416  35.936  23.582   0.246
90023W        W58417  33.939   3.442  13.291
90024W        W58418  34.406  10.657   2.180
90025W        W58419  39.646  35.493   1.446
90026W        W58420   9.668   4.340  13.361
90027W        W58421   5.847  32.678  12.958
90028W        W58422  23.078  40.070  12.428
90029W        W58423  40.793  33.691  12.557
90030W        W58424  18.694  19.763   4.968
90031W        W58425  37.516  20.962  14.788
90032W        W58426   1.850  33.552  14.774
90033W        W58427  35.410   9.386   3.518
90034W        W58428  11.811   2.008   1.857
90035W        W58429  37.487  32.535  12.902
90036W        W58430  26.750  23.940   3.203
90037W        W58431  32.909   1.418   0.473
90038W        W58432  27.614  26.934   2.295
90039W        W58433  32.476   6.890  12.446
90040W        W58434  23.522  37.918   4.895
90041W        W58435  16.792  21.541  10.671
90042W        W58436  27.095   7.206  11.330
90043W        W58437   2.432  11.101  14.431
90044W        W58438  19.871  37.147   4.893
90045W        W58439   8.422  14.625  11.565
90046W        W58440  37.418   0.573   4.345
90047W        W58441  18.085   9.359   2.818
90048W        W58442  32.487  16.115   1.745
90049W        W58443  41.477  43.450   1.464
90050W        W58444  17.579  19.200   3.234
90051W        W58445   3.424   3.377  12.105
90052W        W58446  18.841  40.888   3.711
90053W        W58447  17.687   6.736  10.633
90054W        W58448  11.226  17.819   1.826
90055W        W58449  19.730  23.544  10.530
90056W        W58450   7.454   9.404   3.603
90057W        W58451  39.974   3.709   5.058
90058W        W58452   8.867  39.746   2.284
90059W        W58453  21.163   5.400  12.667
90060W        W58454  16.223  33.538  14.875
90061W        W58455   8.948  42.988   3.332
90062W        W58456  33.064  36.890   2.948
90063W        W58457  13.838  17.813  13.956
90064W        W58458  26.666  38.384  13.472
90065W        W58459  31.609  24.081   4.200
90066W        W58460  11.837  17.734   0.020
90067W        W58461  30.260  17.743   2.732
90068W        W58462  43.382  12.870   4.745
90069W        W58463  28.602  22.935   1.530
90070W        W58464  37.598   5.257   3.645
90071W        W58465  25.161  20.461  13.798
90072W        W58466  11.952  18.877  11.228
90073W        W58467  23.059  21.912   3.199
90074W        W58468  32.069  22.522   5.042
90075W        W58469  28.540   7.622   0.409
90076W        W58470  26.223  13.390   5.040
90077W        W58471  35.513  31.724  13.062
90078W        W58472  26.585   7.821   2.000
90079W        W58473   0.361  40.436  11.157
90080W        W58474  35.084  39.772  11.522
90081W        W58475  38.986  29.608  12.017
90082W        W58476  33.984   7.606   2.741
90083W        W58477  18.284  38.060   3.088
90084W        W58478  37.836  41.310  12.489
90085W        W58479  34.021  22.065   4.559
90086W        W58480   1.330  16.538  12.684
90087W        W58481  34.532  30.519   0.221
90088W        W58482  10.556  37.044   2.273
90089W        W58483  37.453  39.545  14.598
90090W        W58484  13.742  41.277  13.385
90091W        W58485   5.262  32.489   0.172
90092W        W58486  28.115  15.993  10.394
90093W        W58487   3.704  38.890   3.681
90094W        W58488  17.002  22.975  12.054
90095W        W58489   2.721  37.882   4.577
90096W        W58490  23.596  28.433   4.115
90097W        W58491  39.856  26.738  14.755
90098W        W58492  27.462  12.313  13.422
90099W        W58493   3.353  31.517   3.651
90100W        W58494  11.754  33.432  13.393
90101W        W58495  19.278  23.292   0.903
90102W        W58496  32.234  17.155   0.880
90103W        W58497  11.457  22.009  11.118
90104W        W58498   0.829  35.379   1.699
90105W        W58499  31.475  20.754   2.772
90106W        W58500  36.013  12.073  11.584
90107W        W58501  32.339  16.080   0.701
90108W        W58502  10.910  19.422   2.333
90109W        W58503  30.164   5.702  14.869
90110W        W58504  22.671  38.275  11.225
90111W        W58505  15.961   2.967   0.487
90112W        W58506  40.927  17.948  13.969
90113W        W58507  39.883  43.880   2.313
90114W        W58508  41.189  28.180  14.544
90115W        W58509   1.991   7.855   1.248
90116W        W58510   0.192   9.174   4.080
90117W        W58511   0.021  42.539  14.849
90118W        W58512  33.099  40.685  10.782
90119W        W58513  33.707  22.283   1.714
90120W        W58514  24.634  38.396  13.418
90121W        W58515  33.684   4.132  11.477
90122W        W58516  36.178  27.187  11.899
90123W        W58517   6.263  38.810   1.791
90124W        W58518  24.533  32.090  13.821
90125W        W58519  23.429  39.941  14.046
90126W        W58520   9.330   5.633  10.768
90127W        W58521   0.343  44.491   2.410
90128W        W58522  37.834  18.181  11.531
90129W        W58523   7.964  39.749  12.625
90130W        W58524   2.414  15.848   2.659
90131W        W58525  39.670  30.000   4.727
90132W        W58526  25.725   2.880   1.932
90133W        W58527  20.732  44.887  13.573
90134W        W58528  20.704   1.799   4.204
90135W        W58529  39.620  39.979  13.483
90136W        W58530   4.459  35.829   4.234
90137W        W58531  41.817  37.145  12.318
90138W        W58532   4.841  28.369   3.433
90139W        W58533  22.504  39.057   3.696
90140W        W58534  33.269   6.387  14.357
90141W        W58535  43.317  31.735  10.956
90142W        W58536  11.192  44.776   4.431
90143W        W58537   2.954  42.845  12.561
90144W        W58538  39.679  24.675  13.469
90145W        W58539   2.448   0.615   0.882
90146W        W58540  28.122   1.366   0.895
90147W        W58541  42.847  13.879  10.681
90148W        W58542   5.481  20.188  14.926
90149W        W58543  34.857  32.853   0.951
90150W        W58544   1.716  20.640  11.220
90151W        W58545  33.853  17.454  11.241
90152W        W58546  19.070  37.666  12.006
90153W        W58547  11.231  24.461   2.695
90154W        W58548  34.635  31.898  12.688
90155W        W58549  10.734  37.025   1.218
90156W        W58550   2.281  43.268   1.323
90157W        W58551   8.257  41.499  13.994
90158W        W58552  19.374  44.365   4.694
90159W        W58553  43.767  17.651   0.089
90160W        W58554  26.986  41.801   3.216
90161W        W58555  26.538  43.566   1.413
90162W        W58556  40.222  20.510   4.643
90163W        W58557  27.444  33.841   4.210
90164W        W58558  21.800  19.248  14.348
90165W        W58559  20.190  14.429   4.807
90166W        W58560   4.389  17.574  12.062
90167W        W58561  36.980  12.564  13.368
90168W        W58562  22.325  15.603  13.366
90169W        W58563  34.077  20.340   0.389
90170W        W58564  13.114  11.643   0.401
90171W        W58565  36.040  25.161   3.150
90172W        W58566   3.604  25.260   3.081
90173W        W58567   8.091  25.982   1.222
90174W        W58568  22.143  30.504   3.703
90175W        W58569   2.233  40.307   4.139
90176W        W58570   1.228  23.172   4.367
90177W        W58571  43.712  37.908   5.946
90178W        W58572  20.505  25.113   5.181
90179W        W58573   2.711  23.122  11.287
90180W        W58574  27.988   1.866  12.086
90181W        W58575  15.008  14.320   0.686
90182W        W58576  27.706  14.911   2.665
90183W        W58577  31.135  38.542  10.344
90184W        W58578  30.088  28.418   2.939
90185W        W58579  21.948  19.274  14.984
90186W        W58580  39.997  10.294   3.051
90187W        W58581  17.668  17.350  13.648
90188W        W58582  34.026  16.735   1.025
90189W        W58583  41.155  31.046  12.042
90190W        W58584  42.910   9.813  13.785
90191W        W58585   5.873  30.874   0.546
90192W        W58586  18.765  36.639  14.979
90193W        W58587  27.615   8.266   2.240
90194W        W58588  17.845  13.281  13.773
90195W        W58589  11.362  36.530   0.793
90196W        W58590   9.282  30.583   1.840
90197W        W58591  38.671   8.887  12.000
90198W        W58592  26.974  19.213   2.846
90199W        W58593  24.823  15.939  12.522
90200W        W58594   5.919  31.159   0.974
90201W        W58595   4.154  18.666   0.857
90202W        W58596  19.808  41.863   0.618
90203W        W58597  28.670  17.946  13.516
90204W        W58598  40.511  44.765   3.572
90205W        W58599  31.637  25.121  13.555
90206W        W58600  33.601  37.954  11.022
90207W        W58601  20.010  43.105  10.492
90208W        W58602  33.408   5.174   3.256
90209W        W58603   2.263   3.963  13.972
90210W        W58604  36.036  10.204  10.481
90211W        W58605  22.143   3.449   1.729
90212W        W58606  30.501  36.131  14.490
90213W        W58607  19.658  27.711   1.468
90214W        W58608   5.802  28.877   4.204
90215W        W58609  10.166  35.164  14.011
90216W        W58610  18.009  42.452  13.959
90217W        W58611  43.530  29.088  13.501
90218W        W58612  34.539  24.487   0.746
90219W        W58613  44.877  35.338   4.543
90220W        W58614  15.270  38.582  13.813
90221W        W58615  27.443   7.876  14.748
90222W        W58616  27.170  36.942   4.197
90223W        W58617  19.156  29.432  12.827
90224W        W58618  22.071  19.098  12.590
90225W        W58619  30.019  17.966   4.438
90226W        W58620  30.611  25.027   1.640
90227W        W58621  38.423  40.398   4.390
90228W        W58622  33.829  38.135   0.764
90229W        W58623  44.600   1.039  12.566
90230W        W58624  32.426  35.049   4.318
90231W        W58625  21.728  33.504  13.574
90232W        W58626  28.627   2.952  11.425
90233W        W58627  11.477  11.559  12.993
90234W        W58628  16.328  44.282  11.021
90235W        W58629  14.549  27.103   2.368
90236W        W58630  36.593  40.265  11.213
90237W        W58631  40.513   1.497   3.837
90238W        W58632  30.845  27.544  11.169
90239W        W58633  36.921   4.148  11.965
90240W        W58634  26.126   4.226  14.409
90241W        W58635  27.194  43.824  11.878
90242W        W58636  30.961  39.000  13.852
90243W        W58637  16.501   4.339  13.258
90244W        W58638  29.995   1.290   4.240
90245W        W58639  29.588  22.346  10.702
90246W        W58640  12.632  24.369  13.542
90247W        W58641  14.712  39.240   0.839
90248W        W58642  41.599  14.131   1.942
90249W        W58643  20.690   4.763   1.721
90250W        W58644  20.174  13.603   4.643
90251W        W58645  37.952   8.638   4.343
90252W        W58646  22.443  31.953  10.210
90253W        W58647  41.304  29.952  12.099
90254W        W58648   6.122  34.459  14.871
90255W        W58649  14.696  25.687  14.075
90256W        W58650  18.628  29.411   4.564
90257W        W58651  21.592  25.686  10.932
90258W        W58652   3.474  36.351  11.508
90259W        W58653  36.400   2.923  13.459
90260W        W58654  38.316  20.306   1.325
90261W        W58655  31.137  37.058   1.208
90262W        W58656  19.518  44.412  11.554
90263W        W58657  14.009  18.224  13.385
90264W        W58658  25.685  17.281   3.684
90265W        W58659   5.970  28.674   2.873
90266W        W58660  16.672   0.746   4.980
90267W        W58661   9.771  32.936  12.058
90268W        W58662  18.204   0.892  13.535
90269W        W58663  27.140  40.569  12.632
90270W        W58664  18.950  31.944  11.019
90271W        W58665  29.967  23.991   2.799
90272W        W58666  21.119   6.408  14.693
90273W        W58667   0.924  44.268   0.522
90274W        W58668  13.246  39.038   2.081
90275W        W58669   7.807  13.100   0.542
90276W        W58670  37.842  19.154  14.458
90277W        W58671   9.783   4.108  11.930
90278W        W58672  15.032  33.464   1.166
90279W        W58673  23.399  12.902  12.607
90280W        W58674  14.302   9.163   4.056
90281W        W58675  43.832   6.130   1.856
90282W        W58676  39.945  10.340  11.997
90283W        W58677  16.265  13.830   1.903
90284W        W58678  44.184   8.239  13.473
90285W        W58679  36.881  39.772   4.610
90286W        W58680  12.427  43.416  14.854
90287W        W58681  28.604   6.269   0.845
90288W        W58682  27.669  13.394   0.931
90289W        W58683  34.350   2.745  11.984
90290W        W58684   7.203  15.159   2.334
90291W        W58685  12.538   0.374   3.049
90292W        W58686   8.878  32.254   1.442
90293W        W58687   4.458  25.521  14.895
90294W        W58688  11.356  37.097   3.099
90295W        W58689  44.284  14.143   3.259
90296W        W58690  36.885  39.617   2.320
90297W        W58691   6.782  20.808   0.473
90298W        W58692  14.236  24.386   2.901
90299W        W58693  24.089   7.766   1.539
90300W        W58694  24.066  38.809   4.566
90301W        W58695  27.491  30.605  10.651
90302W        W58696   9.400  10.332   4.729
90303W        W58697  17.552  28.934  11.461
90304W        W58698  15.217  35.824   2.352
90305W        W58699  42.791  40.601  14.249
90306W        W58700  44.435  39.904  12.902
90307W        W58701  38.969  41.948   3.102
90308W        W58702  12.733  24.699  10.764
90309W        W58703  19.407  35.822   5.050
90310W        W58704  36.217  17.268  13.065
90311W        W58705  43.189  20.005   2.348
90312W        W58706  29.999  30.127   3.881
90313W        W58707  44.712  24.939  11.583
90314W        W58708   4.701  25.424   4.093
90315W        W58709  28.022  38.693   5.312
90316W        W58710   5.410  22.476   1.737
90317W        W58711  39.950  33.816  12.387
90318W        W58712  14.859  12.901  14.209
90319W        W58713  35.597  12.868   2.916
90320W        W58714   1.761  25.666   3.661
90321W        W58715  15.648  32.603   1.889
90322W        W58716   6.920   9.406  11.651
90323W        W58717  34.229  21.886   4.089
90324W        W58718  27.686   7.262   2.421
90325W        W58719  15.861  33.063   4.666
90326W        W58720  43.421  42.624  10.717
90327W        W58721  14.839  42.132   1.399
90328W        W58722   7.642  29.191   4.340
90329W        W58723  23.224  16.178  11.081
90330W        W58724  25.873  18.138  13.448
90331W        W58725  31.855   1.229   3.655
90332W        W58726   0.542  28.214   1.686
90333W        W58727  40.762  19.130  14.273
90334W        W58728  33.490  33.121  13.838
90335W        W58729  43.051  29.242   1.725
90336W        W58730   2.664  16.665  13.478
90337W        W58731  29.383  31.369   3.708
90338W        W58732   7.437   1.683   0.722
90339W        W58733  15.281   2.377  13.032
90340W        W58734   1.305  41.417  10.712
90341W        W58735  40.839  40.242  13.051
90342W        W58736   7.763  30.108   1.167
90343W        W58737  23.451  41.712  14.801
90344W        W58738  20.237  38.866   2.708
90345W        W58739  39.799  36.134   2.768
90346W        W58740  22.022  14.721   3.285
90347W        W58741   9.273  21.686   2.369
90348W        W58742  44.368   5.008  11.078
90349W        W58743  23.269  35.699   0.290
90350W        W58744  36.289   7.818   1.155
90351W        W58745  32.497  36.559  11.505
90352W        W58746   8.790  28.181   1.081
90353W        W58747   1.395  30.204  14.088
90354W        W58748  32.918   0.730  11.331
90355W        W58749  32.033  28.118   4.625
90356W        W58750   8.639   6.767  13.508
90357W        W58751  29.448   7.264  12.984
90358W        W58752  41.397  20.529   4.597
90359W        W58753  30.539  34.894   3.043
90360W        W58754  15.027  43.688  11.140
90361W        W58755  20.633   0.043  11.631
90362W        W58756   6.630  40.297   1.723
90363W        W58757  31.000  10.908  13.451
90364W        W58758  17.602   3.120  13.319
90365W        W58759  37.548  34.839  14.567
90366W        W58760  44.494  19.062   1.304
90367W        W58761   8.805  26.094  10.715
90368W        W58762  37.493   3.001  11.632
90369W        W58763  33.848   4.293   2.334
90370W        W58764  32.891   9.359   0.830
90371W        W58765  14.110  12.664  13.643
90372W        W58766  39.439  41.995   4.259
90373W        W58767  27.665  36.002  11.802
90374W        W58768   3.322  11.115  13.483
90375W        W58769  36.445  44.868   3.674
90376W        W58770  24.995   4.954  14.759
90377W        W58771  23.061   0.992   2.203
90378W        W58772  14.783  43.536   4.645
90379W        W58773  35.633  19.560   2.853
90380W        W58774   4.341  42.555  13.088
90381W        W58775   2.449  40.305   1.462
90382W        W58776  23.022   0.666  13.440
90383W        W58777  38.513  16.399  12.030
90384W        W58778  30.255  16.335  13.987
90385W        W58779  29.746   8.404  13.026
90386W        W58780  26.034  37.383  14.824
90387W        W58781  10.252  39.038   3.595
90388W        W58782  21.572  40.446  14.003
90389W        W58783  24.655  21.467   1.885
90390W        W58784   9.543   8.999   2.006
90391W        W58785  35.551   2.883  14.033
90392W        W58786  32.231  10.247   4.565
90393W        W58787  44.948   1.353   2.378
90394W        W58788  22.123  29.133   0.564
90395W        W58789  10.496  14.729  12.983
90396W        W58790   6.728  34.626   2.675
90397W        W58791  38.463  20.967  10.282
90398W        W58792  21.258  25.870   4.247
90399W        W58793  22.191  39.360  10.657
90400W        W58794   4.260  17.689   2.916
90401W        W58795  33.909  34.556  13.624
90402W        W58796  25.189   8.507   1.219
90403W        W58797   8.379  12.678  14.416
90404W        W58798  18.695  11.628  11.491
90405W        W58799  25.976   1.660  12.112
90406W        W58800  42.726  10.610   3.322
90407W        W58801   0.889  38.670   3.391
90408W        W58802  18.189  28.885   1.313
90409W        W58803  31.908   6.474  14.104
90410W        W58804  30.317   4.959  11.575
90411W        W58805  16.785  28.906  13.734
90412W        W58806   2.820  15.325  11.783
90413W        W58807   2.928  44.965   0.621
90414W        W58808   7.331  26.909  13.794
90415W        W58809   9.635  11.919  14.319
90416W        W58810  37.407   4.288   3.602
90417W        W58811  14.872  44.630   1.042
90418W        W58812  14.121  41.004  12.167
90419W        W58813  34.038  43.370   2.588
90420W        W58814  30.366  37.428   3.714
90421W        W58815  14.364  41.720   3.216
90422W        W58816  25.361   0.458   0.178
90423W        W58817  40.623  15.952  13.118
90424W        W58818  30.525  24.401   2.881
90425W        W58819  14.373  44.747  14.308
90426W        W58820  36.456   6.896   0.661
90427W        W58821  11.193  44.681  14.469
90428W        W58822   6.382  24.299  12.351
90429W        W58823  11.766  12.581  11.901
90430W        W58824   8.665  44.417  14.859
90431W        W58825   6.240   0.967   4.201
90432W        W58826   8.662  17.203  14.261
90433W        W58827   7.311   9.733   4.610
90434W        W58828  21.206   8.256  12.009
90435W        W58829  34.955  39.063  11.694
90436W        W58830  22.544  36.364  12.937
90437W        W58831   0.954   6.716  13.925
90438W        W58832  30.974   1.719  10.811
90439W        W58833   8.310  12.620  13.610
90440W        W58834  31.547  17.569   2.893
90441W        W58835  14.028  22.092  13.371
90442W        W58836  30.904  14.256   1.355
90443W        W58837  26.760  12.700  11.132
90444W        W58838  40.886   5.748   1.351
90445W        W58839  23.589  37.695  13.523
90446W        W58840  15.666  40.823   4.584
90447W        W58841  33.041  31.908   1.609
90448W        W58842  25.174   6.654  12.495
90449W        W58843  40.001  17.881  10.741
90450W        W58844   0.307  25.149  12.702
90451W        W58845  26.027  37.288   2.826
90452W        W58846  20.818  28.632  13.973
90453W        W58847  40.157   0.969  14.700
90454W        W58848  41.785  10.194  12.102
90455W        W58849  26.077   8.729  13.112
90456W        W58850  37.788  38.879  13.399
90457W        W58851  26.468  16.753   0.136
90458W        W58852   8.991  23.838   3.242
90459W        W58853  24.594  16.622  12.013
90460W        W58854  19.577  41.544   0.270
90461W        W58855  37.593  25.029  10.620
90462W        W58856   6.926  29.719  10.999
90463W        W58857   4.364  13.300   4.074
90464W        W58858   1.558  17.517  13.806
90465W        W58859   9.019   1.529   4.453
90466W        W58860  43.892  36.399   4.548
90467W        W58861  36.671  31.157  12.435
90468W        W58862  23.337  28.753  13.021
90469W        W58863  30.062  39.377  13.701
90470W        W58864  23.681  33.942  14.947
90471W        W58865   7.175  24.020   2.315
90472W        W58866  27.268   8.362  12.022
90473W        W58867  44.153   6.632  11.106
90474W        W58868  18.478  25.664  13.943
90475W        W58869  24.579  34.463  10.585
90476W        W58870  27.808  34.078   1.890
90477W        W58871   6.501   0.451  11.150
90478W        W58872   0.961   5.777  14.991
90479W        W58873  17.670  26.977   1.281
90480W        W58874  36.890  12.964   2.776
90481W        W58875  25.194  44.949  12.950
90482W        W58876  28.466  19.093  11.953
90483W        W58877  29.156  12.710  14.965
90484W        W58878  38.094  36.150  13.365
90485W        W58879  35.431  21.112   2.150
90486W        W58880  28.432  28.639  13.367
90487W        W58881  28.214   6.159  14.342
90488W        W58882  38.140  39.319  12.068
90489W        W58883  31.514  23.241   2.195
90490W        W58884   7.651  18.065   2.829
90491W        W58885  12.506   2.730   0.292
90492W        W58886  41.350   6.781   4.788
90493W        W58887   9.867  34.788  10.624
90494W        W58888  30.904  28.605   3.832
90495W        W58889  31.591   2.693  11.168
90496W        W58890  40.540   7.110  12.106
90497W        W58891  26.086  17.651  14.373
90498W        W58892  13.766  19.693  14.283
90499W        W58893  15.137  15.629  12.869
90500W        W58894  31.099  43.318   1.213
90501W        W58895  18.313  12.376  14.744
90502W        W58896  17.349  25.081  13.956
90503W        W58897  41.907  36.085   3.562
90504W        W58898  23.910  25.883   0.698
90505W        W58899  19.710  36.164  11.975
90506W        W58900  25.747  19.460   3.380
90507W        W58901  33.493  36.771   0.758
90508W        W58902  42.102  14.086   1.838
90509W        W58903  12.314  14.748   3.413
90510W        W58904  38.235  19.119  13.074
90511W        W58905   6.038   5.108   4.293
90512W        W58906  25.209  37.285   0.399
90513W        W58907   4.438  14.243  10.185
90514W        W58908   1.544  23.564   4.213
90515W        W58909  33.237   4.334  14.324
90516W        W58910  23.717  43.831  12.674
90517W        W58911  32.440  18.643  14.836
90518W        W58912   6.073   3.922  14.928
90519W        W58913  43.971  29.024  11.910
90520W        W58914  21.147  31.267   2.241
90521W        W58915  38.453  37.551   3.660
90522W        W58916  10.309  32.392   1.245
90523W        W58917  14.074  40.499  12.037
90524W        W58918  27.946  42.853   1.488
90525W        W58919  28.922   1.233  11.170
90526W        W58920  17.235  39.317  11.315
90527W        W58921  18.786  28.751  13.402
90528W        W58922  30.127  24.763  13.865
90529W        W58923  31.846  10.653   1.289
90530W        W58924  29.869  16.227  14.781
90531W        W58925   6.922  44.726  14.762
90532W        W58926  17.199  27.539   4.725
90533W        W58927  38.668  23.702  11.561
90534W        W58928  33.139  28.988   0.493
90535W        W58929  35.900  26.378  12.560
90536W        W58930  36.574  19.186  12.503
90537W        W58931   3.760  44.211   1.698
90538W        W58932   8.364  34.357   4.749
90539W        W58933  14.797  43.507  14.452
90540W        W58934  27.451  19.166  11.959
90541W        W58935   1.266  13.192  12.485
90542W        W58936  16.118  35.332  10.310
90543W        W58937  25.805  35.007   0.881
90544W        W58938   8.212  18.223  11.930
90545W        W58939  19.039   6.352  10.505
90546W        W58940  15.936  42.660  11.616
90547W        W58941  10.577  20.787   4.692
90548W        W58942  37.464  20.832  12.936
90549W        W58943   9.145  33.071   2.822
90550W        W58944  38.991  32.426  13.268
90551W        W58945  43.511  25.083   1.235
90552W        W58946  10.873  30.115   0.315
90553W        W58947   6.822  40.816   4.029
90554W        W58948  17.258   1.319  13.322
90555W        W58949  13.257   5.354  11.481
90556W        W58950  13.155  31.934   2.254
90557W        W58951   3.671  29.249  12.537
90558W        W58952  22.478  33.409   4.589
90559W        W58953  21.168  41.621   0.832
90560W        W58954   9.664   8.370  12.425
90561W        W58955  39.080  40.282  11.623
90562W        W58956   4.770  11.041   2.166
90563W        W58957  10.102   5.393  13.850
90564W        W58958  44.416  42.670  13.152
90565W        W58959  15.558  11.696   2.404
90566W        W58960  21.571  19.772   2.952
90567W        W58961  12.692  40.030   1.442
90568W        W58962  14.232  34.994  12.286
90569W        W58963  28.708  19.997  12.026
90570W        W58964  26.747  25.247  12.470
90571W        W58965  33.529   8.194  14.464
90572W        W58966  17.098   9.838   4.191
90573W        W58967  28.621  19.585  12.504
90574W        W58968  42.846  35.699  12.621
90575W        W58969  39.114  23.462   1.430
90576W        W58970  28.991  21.320  13.457
90577W        W58971  36.397  14.398   0.314
90578W        W58972  11.172   3.755   4.624
90579W        W58973  38.462  25.457  14.908
90580W        W58974   4.995   8.088  13.927
90581W        W58975  22.252  24.808  13.310
90582W        W58976  24.525  42.437  11.656
90583W        W58977  44.228  40.578   0.836
90584W        W58978   8.215   1.244   2.279
90585W        W58979  15.013   0.059   4.561
90586W        W58980   4.984  19.770  11.854
90587W        W58981  37.929  30.524  14.813
90588W        W58982   3.742  10.241  13.674
90589W        W58983  15.331  16.357  13.503
90590W        W58984  34.262  25.398  14.399
90591W        W58985  44.246  36.871   3.701
90592W        W58986  44.487  39.888  11.871
90593W        W58987  11.289  44.761   1.324
90594W        W58988   4.306  40.634   3.642
90595W        W58989   9.775  31.174  14.072
90596W        W58990  22.005  21.146  12.698
90597W        W58991  27.324  35.331  11.136
90598W        W58992  24.669  26.917   3.100
90599W        W58993   3.915  21.003  14.805
90600W        W58994  24.229  33.068   1.894
90601W        W58995  26.820  44.504   3.976
90602W        W58996  37.215  40.982   1.500
90603W        W58997  39.209  30.063   4.448
90604W        W58998  41.492  14.272  10.434
90605W        W58999  12.408  32.957   2.586
90606W        W59000  26.500  30.567  12.643
90607W        W59001  30.540  11.260   3.092
90608W        W59002  28.171  16.695   3.102
90609W        W59003   5.290  15.240   1.771
90610W        W59004  41.792  32.275   3.479
90611W        W59005  27.239  20.500   1.363
90612W        W59006   0.129  31.705  13.884
90613W        W59007  37.380  24.103  14.311
90614W        W59008  44.786  17.354  10.861
90615W        W59009  22.841   9.762  10.956
90616W        W59010  18.225   4.787   4.575
90617W        W59011  18.828  15.090  11.484
90618W        W59012  37.990  33.087   3.394
90619W        W59013  20.059  41.827  14.109
90620W        W59014  36.945  15.624   2.163
90621W        W59015  25.627  24.509  11.101
90622W        W59016   5.227   2.187  13.812
90623W        W59017   6.682   1.242   4.220
90624W        W59018  16.614  17.129  12.510
90625W        W59019  33.751  26.585  12.870
90626W        W59020  35.808  22.641   4.561
90627W        W59021  36.597  34.386  11.976
90628W        W59022  22.992  39.045  10.359
90629W        W59023  39.488  41.778  11.222
90630W        W59024  15.629  25.304  14.192
90631W        W59025  24.999  31.183   3.506
90632W        W59026   5.227  28.567   0.029
90633W        W59027  11.919   8.092   0.293
90634W        W59028   9.624  24.469  14.329
90635W        W59029  14.930  15.838   1.410
90636W        W59030   4.461  17.599  14.813
90637W        W59031  36.896  22.776   4.473
90638W        W59032   0.453  35.659  14.516
90639W        W59033   4.745  29.406   4.517
90640W        W59034  11.117  29.422  11.239
90641W        W59035   2.927   7.544   3.267
90642W        W59036  35.875  23.877  14.745
90643W        W59037   9.647   7.463   1.377
90644W        W59038  44.912  17.296  12.577
90645W        W59039   3.946  16.826   3.694
90646W        W59040   6.909  27.276   1.302
90647W        W59041   1.761  26.038   0.685
90648W        W59042  33.819   0.341  10.949
90649W        W59043   9.649   9.792   3.143
90650W        W59044  24.891  40.368  12.913
90651W        W59045  12.732  16.701   4.100
90652W        W59046  29.158  31.141  14.943
90653W        W59047  31.462  13.264   1.343
90654W        W59048  19.101  15.182   1.725
90655W        W59049  31.123  28.556  11.630
90656W        W59050  43.535   5.224   1.207
90657W        W59051  12.155  25.591  10.700
90658W        W59052  33.482  38.225   1.825
90659W        W59053  23.749  19.292  14.449
90660W        W59054  32.157  43.736  10.338
90661W        W59055  27.203   5.293   2.345
90662W        W59056   4.118  25.744  11.553
90663W        W59057  31.132  19.462  12.501
90664W        W59058  33.832  40.863  13.087
90665W        W59059  36.509  41.852   2.907
90666W        W59060  41.681  10.390   2.368
90667W        W59061  36.949  33.786   2.144
90668W        W59062  24.105  25.462  13.621
90669W        W59063  24.733  37.155  14.295
90670W        W59064   2.759  32.699  13.056
90671W        W59065  22.242   8.638  14.985
90672W        W59066   2.878   9.310  11.305
90673W        W59067  22.220  21.698   1.927
90674W        W59068   5.446   0.653  12.945
90675W        W59069  39.095  39.111  12.454
90676W        W59070  39.037  39.714   0.394
90677W        W59071  21.760  12.235   0.916
90678W        W59072  33.361  23.526   0.965
90679W        W59073  24.914  43.334  12.157
90680W        W59074   0.042   9.680  14.955
90681W        W59075  10.253  13.967   3.219
90682W        W59076  31.011  41.055  12.877
90683W        W59077  31.249  11.138  13.037
90684W        W59078   4.250  10.107  14.304
90685W        W59079   3.122  43.819   0.783
90686W        W59080  10.666   2.587  11.983
90687W        W59081  14.370  10.706  12.385
90688W        W59082  23.033  17.840   1.634
90689W        W59083   8.937  14.665  12.402
90690W        W59084  29.659  14.815  12.035
90691W        W59085  29.008  15.580  12.114
90692W        W59086  12.321  40.833  14.316
90693W        W59087  31.095  23.430  11.320
90694W        W59088  33.433  37.836   3.797
90695W        W59089  16.447  11.780   0.904
90696W        W59090  14.051  37.368   0.281
90697W        W59091  15.283   1.475   2.539
90698W        W59092  33.615  40.839   0.829
90699W        W59093  30.020   1.765  11.593
90700W        W59094  17.363   6.507  12.514
90701W        W59095  29.628  24.289   0.993
90702W        W59096   8.250  19.777  11.045
90703W        W59097   9.881  12.725   0.899
90704W        W59098  13.320   5.806  12.890
90705W        W59099  28.798  44.507  10.592
90706W        W59100  37.555  15.165   0.363
90707W        W59101  21.509  43.408   4.576
90708W        W59102   8.363  42.705  13.404
90709W        W59103  34.084  39.075  12.431
90710W        W59104  22.202  14.280  10.712
90711W        W59105  14.513  28.008   4.336
90712W        W59106  23.193  39.132   4.777
90713W        W59107  16.745   3.786  11.560
90714W        W59108  32.270  24.127  14.894
90715W        W59109  11.430  40.038  13.513
90716W        W59110  41.763   7.588  10.243
90717W        W59111  36.495   6.274   2.937
90718W        W59112  33.032  44.932  13.685
90719W        W59113  44.525  25.588  13.411
90720W        W59114   7.816  37.760   4.222
90721W        W59115  42.142  13.304   2.754
90722W        W59116  21.523  14.571  10.634
90723W        W59117  31.233  42.736  13.989
90724W        W59118  27.917   7.718  14.813
90725W        W59119  40.399   5.960   2.796
90726W        W59120  26.363  16.569  12.837
90727W        W59121   5.731  15.072  14.047
90728W        W59122  20.138  28.105   3.284
90729W        W59123  40.875  18.279  11.011
90730W        W59124  34.717  43.495   3.489
90731W        W59125   6.640  41.844  14.310
90732W        W59126  19.601  14.162   4.315
90733W        W59127  23.664  18.955   3.260
90734W        W59128  35.290  14.284  11.337
90735W        W59129   9.717  33.098   4.490
90736W        W59130  33.426   7.307  12.312
90737W        W59131   5.206   2.857  13.405
90738W        W59132  28.026  16.636  13.516
90739W        W59133  33.882   5.327  14.525
90740W        W59134  26.985  41.483   0.270
90741W        W59135  33.484  28.202   3.344
90742W        W59136  36.999  14.614   1.198
90743W        W59137   4.901  23.691   1.373
90744W        W59138  14.121   3.950   3.836
90745W        W59139  20.516   6.364   5.191
90746W        W59140  21.211  20.561  10.592
90747W        W59141   9.978  40.276   0.328
90748W        W59142   1.846  35.828  14.957
90749W        W59143  35.082  18.100  12.062
90750W        W59144  18.739   9.608   0.790
90751W        W59145  24.165  43.173   2.250
90752W        W59146   7.295  44.924   2.176
90753W        W59147  38.571  29.495  14.412
90754W        W59148  16.541   5.801  12.984
90755W        W59149  23.854  14.254  13.958
90756W        W59150  41.590  23.732  13.386
90757W        W59151  16.074  28.917  12.843
90758W        W59152   7.285  28.383  14.985
90759W        W59153   0.853  23.343  13.895
90760W        W59154  43.775  44.761  11.411
90761W        W59155  31.050  11.050   2.267
90762W        W59156  42.257   3.171  14.492
90763W        W59157   0.151  35.741   1.341
90764W        W59158  30.495  37.892  10.476
90765W        W59159   6.613  19.303   3.205
90766W        W59160   8.935  33.705   1.694
90767W        W59161  42.301  40.761   3.283
90768W        W59162  10.884  24.529   0.548
90769W        W59163  44.253  26.507   2.000
90770W        W59164  24.849  24.809  14.661
90771W        W59165  32.585  33.307  13.756
90772W        W59166   4.922  43.307  14.945
90773W        W59167  34.881  32.254  13.499
90774W        W59168  27.160   8.549  11.565
90775W        W59169  10.454  23.111  13.420
90776W        W59170  34.819  25.544   1.968
90777W        W59171  44.034  16.887  11.074
90778W        W59172  11.368  27.697   2.837
90779W        W59173  17.288  38.918  14.817
90780W        W59174  44.499  29.083   3.995
90781W        W59175  33.083  22.603   2.382
90782W        W59176  40.650  33.934   3.250
90783W        W59177  29.523   4.028   4.559
90784W        W59178   7.170  20.649   4.116
90785W        W59179  14.282  32.447   3.022
90786W        W59180   7.216  11.819   3.967
90787W        W59181  14.100  25.872  14.790
90788W        W59182  43.525   1.971   0.752
90789W        W59183  25.307  21.025   1.605
90790W        W59184   2.511  21.173  10.816
90791W        W59185   9.059  18.790   0.753
90792W        W59186  38.244  31.177   1.811
90793W        W59187  18.529  32.927   1.909
90794W        W59188  43.330  26.204  13.137
90795W        W59189   5.923  43.240  11.201
90796W        W59190   3.665  25.506   2.635
90797W        W59191  37.622  15.813   1.362
90798W        W59192  36.260  16.847  12.785
90799W        W59193  32.011  27.340   1.707
90800W        W59194   6.345  26.768  12.836
90801W        W59195  31.957  40.230   2.357
90802W        W59196  39.195  36.741   0.348
90803W        W59197   1.610   0.186  11.418
90804W        W59198   7.716  10.731   4.611
90805W        W59199   3.993  32.151   3.761
90806W        W59200  14.873  19.673   1.716
90807W        W59201  25.083   0.800   0.865
90808W        W59202  32.478  42.967  12.287
90809W        W59203  34.929  11.573   3.751
90810W        W59204   2.361  27.627   3.073
90811W        W59205  13.389  30.598   2.355
90812W        W59206  39.823  35.018   1.647
90813W        W59207  41.768  15.698  14.298
90814W        W59208   0.444   2.221  13.406
90815W        W59209  17.734  16.233   4.970
90816W        W59210   7.376  15.153  11.055
90817W        W59211   6.375  21.314  12.401
90818W        W59212   5.794  21.859   4.077
90819W        W59213   9.448  41.387   2.266
90820W        W59214  34.085   9.391  10.447
90821W        W59215  37.278  29.986  14.168
90822W        W59216  33.196  10.825   2.788
90823W        W59217   2.643   1.282  13.439
90824W        W59218  28.597  39.254  11.138
90825W        W59219   3.029  29.732  12.842
90826W        W59220  27.410   1.784   1.881
90827W        W59221  28.139  39.517  11.085
90828W        W59222   9.528  12.973  14.869
90829W        W59223   6.259  34.633   0.368
90830W        W59224   8.816   7.818   3.384
90831W        W59225   5.265   0.705  12.087
90832W        W59226  24.841   6.687   3.577
90833W        W59227  41.944  36.948   0.460
90834W        W59228  10.835  37.362  13.826
90835W        W59229  43.772   7.826  13.535
90836W        W59230  16.368   2.377   4.616
90837W        W59231   7.900  30.308   4.885
90838W        W59232  29.985   0.989   3.833
90839W        W59233  16.027   8.882  11.950
90840W        W59234  42.844  13.345  14.988
90841W        W59235  31.582  41.549   3.165
90842W        W59236  14.788  32.951   1.974
90843W        W59237  39.308  13.642  12.856
90844W        W59238  12.604  44.695   3.770
90845W        W59239   8.275   8.596   0.989
90846W        W59240  15.883  21.019  10.680
90847W        W59241  35.833  29.884  14.034
90848W        W59242  29.381  35.257  14.471
90849W        W59243  36.047  16.822   2.745
90850W        W59244  44.902  15.105   2.056
90851W        W59245  35.698  40.133   0.666
90852W        W59246  28.412  18.227  13.160
90853W        W59247  16.174   9.280  12.325
90854W        W59248  38.462  17.418   1.800
90855W        W59249  32.022   4.636   3.260
90856W        W59250  38.182  31.426  10.496
90857W        W59251   3.640   3.367  14.058
90858W        W59252  27.116   7.339   4.982
90859W        W59253  35.051  12.783  12.940
90860W        W59254   2.806   9.195  11.798
90861W        W59255  26.729  24.226  11.114
90862W        W59256  15.640   4.963   0.384
90863W        W59257  13.710  14.872  10.955
90864W        W59258  14.538  15.613  14.510
90865W        W59259  35.674  17.411  11.977
90866W        W59260  35.322  16.646  12.061
90867W        W59261  19.697  38.877  11.448
90868W        W59262  10.130   3.562   3.557
90869W        W59263   2.979   7.364  13.574
90870W        W59264  41.444  36.536  14.821
90871W        W59265   5.126  18.192   0.002
90872W        W59266  25.015  36.781   2.354
90873W        W59267  43.754  24.922   2.580
90874W        W59268  35.799  24.512  12.016
90875W        W59269  20.220  31.377  12.735
90876W        W59270  35.827  43.991  14.236
90877W        W59271  15.269  44.355  10.572
90878W        W59272  38.288  22.733   0.938
90879W        W59273  10.216  10.787   4.730
90880W        W59274  18.673  15.831  12.622
90881W        W59275  18.052  44.858   1.975
90882W        W59276   5.184   2.555   2.145
90883W        W59277  40.756  13.711  12.442
90884W        W59278  14.815  44.987  13.856
90885W        W59279  16.894  37.387   9.880
90886W        W59280  30.097  18.067  12.559
90887W        W59281  15.161  33.100   0.399
90888W        W59282  11.604  32.550  12.427
90889W        W59283  42.965  17.597   3.220
90890W        W59284  43.933  24.430   0.878
90891W        W59285  10.262   8.265  13.456
90892W        W59286  14.752  40.559  13.345
90893W        W59287  36.637  31.438  10.699
90894W        W59288  14.776  26.529  12.670
90895W        W59289  27.053  32.512  10.641
90896W        W59290  41.690  17.119   2.303
90897W        W59291  27.022  32.884   1.190
90898W        W59292  22.188  42.893  12.965
90899W        W59293  30.855  28.462  13.393
90900W        W59294  22.080  42.911   0.813
90901W        W59295  16.593  23.929  14.525
90902W        W59296  42.764  44.331  11.948
90903W        W59297  31.066  22.532   4.834
90904W        W59298  27.755  11.671  13.787
90905W        W59299  32.989  24.539  13.573
90906W        W59300  21.166  22.187   3.133
90907W        W59301   9.368  43.004  12.684
90908W        W59302   5.797   0.786   1.517
90909W        W59303  41.063  42.011  14.471
90910W        W59304   2.805   5.951  12.301
90911W        W59305   1.508  22.708  13.935
90912W        W59306  14.690  11.372   2.549
90913W        W59307  41.983  22.659   3.913
90914W        W59308   7.627  11.584  11.292
90915W        W59309  35.849  25.392   1.861
90916W        W59310  19.522  13.310   4.100
90917W        W59311  35.753  11.091   3.864
90918W        W59312  35.846  29.611   0.809
90919W        W59313  19.590  11.921   2.901
90920W        W59314  36.730  24.688  10.686
90921W        W59315  19.828  37.481   2.797
90922W        W59316  36.851  26.153  13.302
90923W        W59317   6.337  44.998  11.283
90924W        W59318  24.477  13.535   2.136
90925W        W59319  39.391   8.817   0.563
90926W        W59320  37.424  39.370  14.108
90927W        W59321   2.469  43.983   0.145
90928W        W59322  35.848  23.316  12.926
90929W        W59323   0.800  22.750   1.370
90930W        W59324  11.583  22.033  13.103
90931W        W59325  10.339   8.671  12.157
90932W        W59326  25.421  19.162   2.113
90933W        W59327  34.646  30.209  12.101
90934W        W59328  19.637  13.566   1.305
90935W        W59329   2.985  41.900   0.478
90936W        W59330  23.903  25.717  14.019
90937W        W59331  28.764  43.894   0.461
90938W        W59332  44.259  23.187  12.905
90939W        W59333   9.669  21.570   2.675
90940W        W59334  35.106   7.160  13.072
90941W        W59335  36.183  44.526   4.147
90942W        W59336  22.002  26.401   1.087
90943W        W59337  26.489  20.111   1.149
90944W        W59338  34.129  24.956  12.016
90945W        W59339  31.890  25.166   3.237
90946W        W59340   7.167  28.708  11.885
90947W        W59341   2.360  20.321  11.927
90948W        W59342  22.771   5.730   3.211
90949W        W59343   7.783   2.365  11.723
90950W        W59344   0.272  22.601   3.254
90951W        W59345  29.461   4.892   2.451
90952W        W59346  31.857  12.487   4.986
90953W        W59347  44.551  19.090  13.948
90954W        W59348  40.540  39.135  14.403
90955W        W59349  29.176  34.915   2.401
90956W        W59350  25.088  38.493   0.250
90957W        W59351  41.627  41.874   4.090
90958W        W59352  29.309   5.949  13.431
90959W        W59353   0.511  29.374   2.818
90960W        W59354  28.619  44.515  14.948
90961W        W59355  18.667  33.878  11.164
90962W        W59356  25.952  36.801  13.094
90963W        W59357  18.278   5.865  11.234
90964W        W59358  39.838  14.592   0.703
90965W        W59359   7.940  38.430  11.662
90966W        W59360  36.091   4.465   3.920
90967W        W59361   3.474   5.332   1.720
90968W        W59362  15.826  33.197  11.036
90969W        W59363  40.093   7.120  14.521
90970W        W59364   0.317  21.917  10.686
90971W        W59365  14.180  29.918  12.366
90972W        W59366  16.122  20.617   3.378
90973W        W59367  44.097  42.340  13.958
90974W        W59368   7.233  20.100  10.558
90975W        W59369  36.061   4.120   4.342
90976W        W59370   3.478   5.379  11.134
90977W        W59371   2.877   2.095  10.396
90978W        W59372  19.133   0.729   0.404
90979W        W59373  22.716  43.736   3.719
90980W        W59374  17.850  19.683   5.470
90981W        W59375  26.319  20.614   2.813
90982W        W59376  38.051  35.545   4.280
90983W        W59377  29.441  36.932  14.741
90984W        W59378   3.229  35.870   3.904
90985W        W59379   7.206  11.219   0.010
90986W        W59380   3.071   4.914   3.788
90987W        W59381  17.630   8.483   2.680
90988W        W59382  25.178  20.816   2.279
90989W        W59383  13.746   3.506   0.052
90990W        W59384  39.339   9.559  12.992
90991W        W59385   2.161  36.103   0.274
90992W        W59386  37.993   8.433  10.613
90993W        W59387  32.163  41.039  14.492
90994W        W59388  29.423  29.424  11.175
90995W        W59389   7.450  37.389  14.348
90996W        W59390  19.889  42.422   0.427
90997W        W59391   4.208  28.969  11.705
90998W        W59392  33.481  32.452  12.173
90999W        W59393  34.456  29.954  14.449
91000W        W59394   0.928  43.842  14.579
91001W        W59395   1.006   9.983  14.990
91002W        W59396  38.928   3.412   0.446
91003W        W59397  36.294  17.788  12.975
91004W        W59398  16.884  35.895   2.533
91005W        W59399  36.267   3.110   4.149
91006W        W59400  43.004  35.675  10.347
91007W        W59401  37.903   6.708   4.952
91008W        W59402  31.895  29.966  10.499
91009W        W59403  33.390   3.529  12.163
91010W        W59404   8.325  15.357  11.363
91011W        W59405  17.276  33.207  14.457
91012W        W59406  22.529  10.311   3.146
91013W        W59407  15.328  32.504  10.494
91014W        W59408   1.765   3.504  10.759
91015W        W59409  32.908  20.202  14.894
91016W        W59410  26.228  39.269  13.156
91017W        W59411  44.156  36.416   2.881
91018W        W59412  39.459   6.152   0.392
91019W        W59413   8.377   4.254  12.562
91020W        W59414   1.267  28.217   3.898
91021W        W59415  39.211  41.097   4.647
91022W        W59416  42.046  44.592  12.673
91023W        W59417  16.230   1.256  14.813
91024W        W59418  21.272  40.388   2.331
91025W        W59419   5.229   7.624  12.270
91026W        W59420  29.996   2.130   2.520
91027W        W59421  41.735  22.118   3.308
91028W        W59422  34.982  43.483   0.353
91029W        W59423   2.217  40.518  13.595
91030W        W59424  32.070   8.199  12.540
91031W        W59425  36.958  37.448  14.875
91032W        W59426   8.750  24.123   3.626
91033W        W59427  35.164  35.783  11.046
91034W        W59428   5.491  20.086   2.592
91035W        W59429  35.390  39.046   3.994
91036W        W59430   0.419   9.372   0.726
91037W        W59431  20.325  30.914  12.524
91038W        W59432  10.233   3.379   0.839
91039W        W59433  29.975  40.003  12.947
91040W        W59434  13.821  36.527   2.253
91041W        W59435  13.136   2.757  13.200
91042W        W59436   5.370  34.081   1.600
91043W        W59437  27.228  38.273  14.415
91044W        W59438  21.035  24.562   2.304
91045W        W59439  14.787  16.813  10.465
91046W        W59440  34.550  18.598   0.561
91047W        W59441  10.104  24.627  14.397
91048W        W59442  35.938   5.942  11.605
91049W        W59443  27.952  40.512  14.381
91050W        W59444  32.213  27.961   0.173
91051W        W59445  27.675  22.458  13.113
91052W        W59446  37.456  37.471   4.495
91053W        W59447   6.282  17.407   4.577
91054W        W59448   4.133  44.299   0.395
91055W        W59449  14.117  13.840   1.859
91056W        W59450  13.812   5.185  14.706
91057W        W59451  32.335  28.863  13.905
91058W        W59452  38.877  30.663  11.505
91059W        W59453  27.685  17.044  13.163
91060W        W59454  23.151   8.259   4.286
91061W        W59455  15.664  37.193   3.408
91062W        W59456  20.592  17.637   3.150
91063W        W59457   7.481  12.716   2.781
91064W        W59458  16.466   2.769  12.490
91065W        W59459  18.432   3.207  11.439
91066W        W59460  33.639  11.381   3.643
91067W        W59461  35.901   6.374   0.384
91068W        W59462   7.669  18.661  13.513
91069W        W59463  13.629  34.833   0.611
91070W        W59464  21.691  35.072   4.191
91071W        W59465  11.702  10.155  14.125
91072W        W59466  27.687   2.419  12.610
91073W        W59467   9.007   0.776   2.988
91074W        W59468  28.216  34.169   2.813
91075W        W59469  30.489   1.237  12.102
91076W        W59470  21.621   0.885  13.955
91077W        W59471  39.994  19.607  10.656
91078W        W59472  28.917   7.816   4.552
91079W        W59473   7.191  13.127  12.046
91080W        W59474  11.420  36.582  14.936
91081W        W59475  12.597  36.644  12.078
91082W        W59476  38.923  42.969   0.299
91083W        W59477  40.683  34.639   1.238
91084W        W59478  37.397  10.705  10.746
91085W        W59479  18.264   9.875   2.749
91086W        W59480   6.192   6.781  12.509
91087W        W59481   6.639  13.225   0.205
91088W        W59482   3.472  22.755  11.891
91089W        W59483  23.150   8.968  14.037
91090W        W59484  38.537  30.528  11.040
91091W        W59485  37.818  40.401   3.618
91092W        W59486  28.534   0.515   1.963
91093W        W59487  28.450  38.274   1.422
91094W        W59488  32.686  38.921   2.304
91095W        W59489  26.405  31.095  12.525
91096W        W59490  28.970  14.198  11.221
91097W        W59491   3.350  43.949  11.958
91098W        W59492  36.590   0.447   4.699
91099W        W59493  16.538  20.040  12.124
91100W        W59494  37.002  35.311  12.912
91101W        W59495   4.789  32.466   0.893
91102W        W59496  36.035  18.581   0.963
91103W        W59497   0.358  15.210   2.321
91104W        W59498  28.062  31.413  13.891
91105W        W59499   6.012  39.292  14.816
91106W        W59500  16.488   4.719   2.014
91107W        W59501  22.633   3.231  11.853
91108W        W59502   1.439  18.604   0.401
91109W        W59503  36.583   8.662  10.221
91110W        W59504  10.378   0.078   3.837
91111W        W59505  37.604  34.041  14.837
91112W        W59506  16.496  16.118   2.855
91113W        W59507   0.941  37.961   0.882
91114W        W59508   4.346  29.385   2.729
91115W        W59509   7.679  26.731  14.394
91116W        W59510  26.464   1.025   0.585
91117W        W59511  44.384  26.518  13.632
91118W        W59512  13.479  42.448   0.522
91119W        W59513  42.445  33.883  10.682
91120W        W59514   2.733   1.902   2.296
91121W        W59515  39.014  18.112   3.688
91122W        W59516  17.453  28.905   0.750
91123W        W59517  27.912  26.269  11.084
91124W        W59518  28.503  15.226   3.370
91125W        W59519   6.884  36.127   2.788
91126W        W59520  17.469  33.969   0.197
91127W        W59521  21.649  18.778   4.162
91128W        W59522  21.781  20.214   1.301
91129W        W59523  10.618   5.656  14.526
91130W        W59524  15.885  16.581  12.446
91131W        W59525  21.711  12.392  13.030
91132W        W59526  13.247   6.224   4.112
91133W        W59527  15.832  37.806  12.962
91134W        W59528  28.463  23.672   3.671
91135W        W59529  33.857   2.497   0.083
91136W        W59530   6.893  43.072  10.837
91137W        W59531  33.890  16.383   4.591
91138W        W59532   4.950  17.702  10.163
91139W        W59533   4.460  13.062  10.957
91140W        W59534   3.714  28.606  13.287
91141W        W59535  26.488  30.201   3.200
91142W        W59536  42.291  22.693  14.191
91143W        W59537  42.237  13.169  11.197
91144W        W59538  44.309  21.093   4.053
91145W        W59539  20.181  10.672   4.642
91146W        W59540  28.712   5.463  13.847
91147W        W59541  41.753  15.503   0.458
91148W        W59542  31.963   3.034   1.975
91149W        W59543  21.129  35.047   1.073
91150W        W59544  26.559  15.122  13.324
91151W        W59545  19.807  18.203  13.050
91152W        W59546  13.688  40.042   2.387
91153W        W59547  32.294  10.925   2.611
91154W        W59548   5.950   9.791   1.408
91155W        W59549  10.651   1.367   3.195
91156W        W59550  40.417  17.273   0.870
91157W        W59551  27.548  43.494  14.332
91158W        W59552  14.681  22.980  12.084
91159W        W59553   9.282  34.805  11.226
91160W        W59554  44.780  17.307  14.109
91161W        W59555   1.572  32.039  12.974
91162W        W59556   6.327   9.785  13.939
91163W        W59557  32.422  18.571  14.305
91164W        W59558  20.258  37.496  10.607
91165W        W59559  39.333  24.275   1.893
91166W        W59560  42.469  27.693  14.683
91167W        W59561   9.829  16.410   1.240
91168W        W59562   6.195  44.767  14.814
91169W        W59563  24.671  37.583  10.658
91170W        W59564   1.974   2.968  14.046
91171W        W59565   2.690  25.670   0.884
91172W        W59566   2.629   6.354  11.020
91173W        W59567  17.800  40.211   2.983
91174W        W59568  39.480  29.875  14.896
91175W        W59569  19.027  44.900  10.518
91176W        W59570   6.410   3.739  14.536
91177W        W59571   3.257  11.727  10.715
91178W        W59572  18.600  36.786   1.022
91179W        W59573  19.011   1.830   3.176
91180W        W59574  33.072   9.123  13.973
91181W        W59575   4.312   5.385  13.906
91182W        W59576  27.935  24.097  13.514
91183W        W59577   7.190   7.880  13.986
91184W        W59578   0.218  34.379   2.131
91185W        W59579  22.727  43.910  12.502
91186W        W59580  38.907  15.751  12.859
91187W        W59581  36.542  37.049   2.576
91188W        W59582  19.610  23.284   1.859
91189W        W59583  42.919  39.589  10.249
91190W        W59584  22.934   0.877   4.223
91191W        W59585   2.507  25.434   4.280
91192W        W59586  31.664   5.357  11.823
91193W        W59587  30.587  40.273  10.802
91194W        W59588   3.893  37.616   5.073
91195W        W59589  28.496  10.645   3.667
91196W        W59590   7.811  22.607  14.256
91197W        W59591  38.683  13.888  13.481
91198W        W59592  16.939  25.467  11.159
91199W        W59593  12.605   4.739  12.586
91200W        W59594   6.135  12.595   4.088
91201W        W59595  37.665  32.927  11.235
91202W        W59596  17.238   5.256  11.982
91203W        W59597  12.443  23.871   1.891
91204W        W59598  24.519  24.136  13.972
91205W        W59599  11.557   4.392   2.651
91206W        W59600  31.609  32.227  14.228
91207W        W59601  32.289  41.709  13.921
91208W        W59602  26.227  22.428   2.512
91209W        W59603   4.853  20.940   0.040
91210W        W59604  16.255  39.642  12.785
91211W        W59605  28.490  22.626  11.625
91212W        W59606  44.073  30.774   0.702
91213W        W59607  21.623  43.405  11.438
91214W        W59608  14.531  43.772  11.360
91215W        W59609  13.703   4.362  14.222
91216W        W59610  10.805  37.023   2.910
91217W        W59611  37.126  38.921  14.094
91218W        W59612  13.743   6.829  14.373
91219W        W59613   3.608   1.961   5.111
91220W        W59614   4.116  37.833   0.045
91221W        W59615  27.430   7.361  14.019
91222W        W59616   1.110  43.546   3.772
91223W        W59617  43.947   9.316  13.468
91224W        W59618   9.640  17.791  14.067
91225W        W59619  37.831  40.335  13.500
91226W        W59620  28.131  20.465   3.324
91227W        W59621  26.626   0.768   2.380
91228W        W59622  38.988  19.625   3.806
91229W        W59623  39.831  39.920  11.919
91230W        W59624   4.743   0.159  11.740
91231W        W59625  19.634  39.339   3.527
91232W        W59626  29.072  15.546   4.103
91233W        W59627  30.077  22.698   4.610
91234W        W59628  21.295   0.237   0.561
91235W        W59629  28.485  39.581   2.601
91236W        W59630   1.048   2.752  12.950
91237W        W59631   6.670  39.854   1.990
91238W        W59632   9.608  14.096   2.680
91239W        W59633  21.996  23.532  11.761
91240W        W59634   7.404  22.160   0.324
91241W        W59635  41.072  38.403   2.598
91242W        W59636  30.089  14.268  12.949
91243W        W59637  21.337  24.129  12.109
91244W        W59638  21.720  40.440  13.514
91245W        W59639  38.937   9.605  13.308
91246W        W59640   2.999  31.896   3.644
91247W        W59641  38.021  31.402  13.517
91248W        W59642  10.744  10.329  11.063
91249W        W59643  37.152  21.844  12.013
91250W        W59644   0.775  32.371   3.029
91251W        W59645   9.190  33.872   4.251
91252W        W59646  16.317  25.465  11.590
91253W        W59647  44.954  23.576   1.521
91254W        W59648  30.247   2.702  11.516
91255W        W59649  23.554  20.574  11.691
91256W        W59650  31.152  17.623   4.598
91257W        W59651   8.305   9.419   0.494
91258W        W59652  37.577   4.436  14.863
91259W        W59653  26.900  17.194   0.892
91260W        W59654  31.640   4.463  14.397
91261W        W59655  10.033   3.873   0.250
91262W        W59656  27.480  17.286   3.292
91263W        W59657  23.024  27.410   0.812
91264W        W59658  44.980   9.791   2.131
91265W        W59659   5.239   7.975   1.848
91266W        W59660  10.109  30.299  11.266
91267W        W59661  41.758  25.461  12.069
91268W        W59662  13.585  37.961  13.868
91269W        W59663  18.641   8.266   1.359
91270W        W59664  30.939  22.549   1.023
91271W        W59665  22.085   1.474   3.149
91272W        W59666   8.415  13.658  12.891
91273W        W59667  40.352  40.601  11.415
91274W        W59668   8.136  41.739  12.152
91275W        W59669   5.803  40.756   1.773
91276W        W59670  12.681  40.788  12.031
91277W        W59671   0.452  32.657   3.861
91278W        W59672  23.594   7.166  11.121
91279W        W59673  21.540  27.762  13.507
91280W        W59674  23.657  41.973   1.649
91281W        W59675  27.063  43.009  10.785
91282W        W59676  11.260  39.029   4.366
91283W        W59677  35.592  38.355  11.615
91284W        W59678  26.500  18.747   1.349
91285W        W59679   9.430  14.086  14.431
91286W        W59680   0.533   7.209  12.349
91287W        W59681  25.237  25.963   1.113
91288W        W59682  25.726  25.893   4.074
91289W        W59683   5.457  23.694  14.220
91290W        W59684  39.824  41.400   0.487
91291W        W59685  31.083  11.288   0.412
91292W        W59686  43.583   2.705   0.196
91293W        W59687   2.756   8.269   0.344
91294W        W59688  20.344   6.183  13.988
91295W        W59689  29.219   5.362  14.505
91296W        W59690  11.214  21.214  10.622
91297W        W59691  27.730  41.300  14.820
91298W        W59692  29.096  26.039   4.327
91299W        W59693  43.980   6.470   2.214
91300W        W59694   9.865  34.185  11.609
91301W        W59695   3.144  13.703   1.939
91302W        W59696  25.706   7.851   2.824
91303W        W59697  43.823  34.553   2.583
91304W        W59698  28.795   9.874   2.301
91305W        W59699  42.772   7.626  10.591
91306W        W59700  16.706  37.991   1.671
91307W        W59701  36.179   3.523   3.533
91308W        W59702   0.834  31.365   3.704
91309W        W59703  10.939  22.093   1.834
91310W        W59704  22.816  11.493   0.015
91311W        W59705   4.753  28.853   3.275
91312W        W59706  29.372  27.919  14.837
91313W        W59707   7.670  39.540   0.390
91314W        W59708  12.966  28.801   2.889
91315W        W59709  31.112  19.538   3.137
91316W        W59710  27.113   9.476  11.703
91317W        W59711  41.325  21.819  14.882
91318W        W59712  37.503  39.503  13.066
91319W        W59713  44.841  29.038   1.793
91320W        W59714   1.689  12.333   4.149
91321W        W59715  44.180  18.674  11.053
91322W        W59716   2.490  10.798   0.930
91323W        W59717  17.306  28.568  10.680
91324W        W59718  31.812  38.839  11.450
91325W        W59719   0.538  37.595  13.383
91326W        W59720   5.157   1.674  10.854
91327W        W59721  41.767   2.938  13.820
91328W        W59722  37.143  18.972  13.965
91329W        W59723  30.062  36.530   1.165
91330W        W59724  14.047  14.301   2.649
91331W        W59725  41.968  10.221  10.739
91332W        W59726   5.123   0.274  13.028
91333W        W59727  27.591  35.315  12.362
91334W        W59728   0.219   2.374  11.418
91335W        W59729  43.601  32.982   2.232
91336W        W59730  44.427  23.642  10.999
91337W        W59731  44.316  18.856   4.248
91338W        W59732  17.050  12.182   2.354
91339W        W59733   6.831  19.728   2.236
91340W        W59734  32.393  36.362  12.578
91341W        W59735  26.758  18.165  11.613
91342W        W59736  39.924  43.902   0.868
91343W        W59737   8.938  16.653   3.716
91344W        W59738  19.675  10.952  11.538
91345W        W59739  15.407  22.002  11.533
91346W        W59740   2.939  12.420  13.612
91347W        W59741  19.195  16.771  12.122
91348W        W59742   5.759  23.375   2.911
91349W        W59743  27.113   0.178   0.030
91350W        W59744  21.433  39.456   2.607
91351W        W59745  37.371  14.739   3.290
91352W        W59746  25.725  37.059   2.271
91353W        W59747   7.734  33.759  13.060
91354W        W59748  10.082  26.058   1.045
91355W        W59749  14.646   1.827  14.060
91356W        W59750  23.577  39.374   3.564
91357W        W59751  27.111  11.061   4.133
91358W        W59752  33.984  39.505  10.217
91359W        W59753  28.142   9.775   0.974
91360W        W59754   6.449  32.969   1.439
91361W        W59755   9.407  25.402   1.413
91362W        W59756  18.409  39.623  14.460
91363W        W59757  33.549  16.813  11.074
91364W        W59758  23.592  24.168  10.467
91365W        W59759   3.965   1.920  12.256
91366W        W59760   4.146  19.952  13.952
91367W        W59761  33.947  12.627   0.982
91368W        W59762  14.354  36.732  13.426
91369W        W59763   5.838  13.013   4.977
91370W        W59764  13.879  44.455  13.828
91371W        W59765  16.337  13.430   2.444
91372W        W59766  30.044  34.030  11.130
91373W        W59767   9.393  15.593  13.474
91374W        W59768  19.961   5.989  12.033
91375W        W59769  13.234   3.191  11.188
91376W        W59770  26.928  12.231  13.356
91377W        W59771   0.548   9.526   3.900
91378W        W59772   5.854  32.344   1.714
91379W        W59773  30.511  21.497   4.125
91380W        W59774  40.737  22.898  12.997
91381W        W59775  16.578  23.001   3.133
91382W        W59776   3.324  17.969  14.938
91383W        W59777  17.127  11.055  14.001
91384W        W59778  33.593  19.276   1.759
91385W        W59779  22.658   3.044  14.044
91386W        W59780  23.938  17.579  11.730
91387W        W59781  29.078  34.663   1.366
91388W        W59782   6.922   7.159  10.709
91389W        W59783  38.401  10.319  10.869
91390W        W59784  17.704  42.788   0.925
91391W        W59785  32.022   4.278   4.778
91392W        W59786   5.308  40.452   4.326
91393W        W59787  24.613   8.677   3.800
91394W        W59788  16.553  14.090  12.063
91395W        W59789  36.535  38.603  12.852
91396W        W59790  11.640  42.571  10.049
91397W        W59791  19.541  25.902   4.578
91398W        W59792   6.097  44.965  13.940
91399W        W59793  18.435   8.619   1.668
91400W        W59794  29.728  29.193   3.817
91401W        W59795  38.407  10.386  12.522
91402W        W59796  19.819  25.743  12.545
91403W        W59797  35.784  10.786   4.288
91404W        W59798  10.640  25.167   3.755
91405W        W59799  20.396   7.134   5.208
91406W        W59800   8.151  23.332   2.314
91407W        W59801  10.096  18.174   2.380
91408W        W59802  39.890  30.843  12.046
91409W        W59803  43.524   6.820   4.409
91410W        W59804  11.282  42.749  11.413
91411W        W59805  13.598   5.975  10.736
91412W        W59806  15.495  19.194  11.626
91413W        W59807  20.057   8.885  12.047
91414W        W59808   4.396  38.632  13.003
91415W        W59809  19.320  10.458  11.002
91416W        W59810   2.043   8.139  13.871
91417W        W59811  42.980   7.858  14.429
91418W        W59812  31.696  20.802   3.717
91419W        W59813  39.003   6.033  14.111
91420W        W59814  41.388   1.186  11.561
91421W        W59815  40.521  33.481  13.005
91422W        W59816  25.535  43.715  13.669
91423W        W59817  23.677   9.395   0.961
91424W        W59818  34.986  16.616  14.345
91425W        W59819   4.829  27.548  11.982
91426W        W59820  22.456   7.832  13.560
91427W        W59821  41.512  32.924   0.921
91428W        W59822  37.507   9.731   3.223
91429W        W59823  12.874  10.229  14.340
91430W        W59824   2.157  38.120   1.745
91431W        W59825  34.624   2.887  12.398
91432W        W59826  29.829  28.470   4.588
91433W        W59827   1.942  35.580   0.406
91434W        W59828  34.013  22.717  12.869
91435W        W59829  27.966  10.835   1.890
91436W        W59830  19.227  40.136   0.423
91437W        W59831   7.701  26.901  10.701
91438W        W59832   7.282  41.318   0.328
91439W        W59833  18.147  33.548  12.195
91440W        W59834  17.577   9.513   2.036
91441W        W59835  24.591  44.019  12.464
91442W        W59836  27.060   5.878  14.854
91443W        W59837  42.378  38.980   2.283
91444W        W59838  24.954  32.447  14.626
91445W        W59839  25.153  24.465  13.763
91446W        W59840  21.133  11.278   0.900
91447W        W59841  30.096  25.711  14.947
91448W        W59842  40.038   0.338  11.100
91449W        W59843   1.827  39.794   4.719
91450W        W59844  17.661  24.522  12.099
91451W        W59845  31.961  28.937   0.391
91452W        W59846  25.184  32.141   4.623
91453W        W59847  12.734  27.755   4.230
91454W        W59848  41.916  28.970   2.673
91455W        W59849  17.633  33.585   0.524
91456W        W59850   3.827  22.806   0.999
91457W        W59851  22.739   8.152   4.608
91458W        W59852  42.376  44.296  12.414
91459W        W59853   2.693  16.253  13.787
91460W        W59854  21.516   3.149   2.019
91461W        W59855  11.665  20.744   2.365
91462W        W59856  33.935  26.965  13.219
91463W        W59857  37.157  14.716   2.573
91464W        W59858  22.006  38.936   3.516
91465W        W59859  37.491   4.249   0.661
91466W        W59860   4.922  43.367  14.093
91467W        W59861  17.209  19.779  13.138
91468W        W59862   2.879  33.426  10.795
91469W        W59863  12.057  17.314   2.665
91470W        W59864  26.212  23.113   3.276
91471W        W59865  37.308  20.721   1.589
91472W        W59866   9.308   9.409   2.940
91473W        W59867  40.091  41.840   1.842
91474W        W59868  21.206  38.811  11.768
91475W        W59869  12.342  11.819  13.555
91476W        W59870  42.882  37.681   2.805
91477W        W59871  33.548  15.895  14.680
91478W        W59872  36.833  30.411  13.070
91479W        W59873  30.942  12.372  13.370
91480W        W59874  31.138   2.226   2.851
91481W        W59875  21.479  13.668  14.380
91482W        W59876   5.346  21.999   4.442
91483W        W59877   4.814  17.286   9.895
91484W        W59878   0.027  42.882  13.993
91485W        W59879  41.295   8.472   4.613
91486W        W59880  12.814  34.956  13.308
91487W        W59881  15.560  17.555   5.094
91488W        W59882  44.815  17.044   2.332
91489W        W59883  30.740  11.145   4.725
91490W        W59884  13.178  27.810   4.524
91491W        W59885   1.486  41.573  12.888
91492W        W59886  40.327  19.833   0.657
91493W        W59887   7.226  21.551  14.096
91494W        W59888  36.975  20.140   0.665
91495W        W59889  44.954  43.467   1.509
91496W        W59890  26.649  22.257   2.788
91497W        W59891  26.436  21.473  12.442
91498W        W59892  36.287  40.305   2.751
91499W        W59893  34.600  38.478  13.316
91500W        W59894  24.260  29.093   0.958
91501W        W59895   7.671   9.172  13.603
91502W        W59896  11.307  37.578  13.115
91503W        W59897  31.367  16.237  13.304
91504W        W59898   2.776   9.740   4.716
91505W        W59899  26.917  44.870  11.076
91506W        W59900   8.149  27.174  12.022
91507W        W59901  11.346   8.730   1.451
91508W        W59902   9.922  31.609   3.275
91509W        W59903  31.004  41.239  13.359
91510W        W59904  32.509  31.780   4.152
91511W        W59905  20.536  24.457  13.769
91512W        W59906   5.643  37.336  11.190
91513W        W59907  26.398  16.832  14.633
91514W        W59908  26.011  12.661   1.265
91515W        W59909  38.096  36.793   4.751
91516W        W59910  31.526   5.468  14.313
91517W        W59911   2.998  41.357   3.266
91518W        W59912  14.637  38.339  13.097
91519W        W59913  42.195  10.943  14.191
91520W        W59914  22.991  11.812   2.752
91521W        W59915   0.310  41.744  14.824
91522W        W59916  27.221  26.605   2.772
91523W        W59917  42.836  20.760  13.778
91524W        W59918  17.809  36.007  13.333
91525W        W59919  11.315  27.641   4.382
91526W        W59920  39.550  12.359   0.248
91527W        W59921   0.762  27.475   3.772
91528W        W59922  43.843  25.520  12.080
91529W        W59923  20.073  18.259  11.615
91530W        W59924  27.583  30.867  11.102
91531W        W59925  40.111   5.623   4.049
91532W        W59926  16.990  26.122   9.948
91533W        W59927  42.486  10.241  10.739
91534W        W59928  12.642  12.783  12.622
91535W        W59929   4.952  42.871  11.124
91536W        W59930  16.798  37.754  12.853
91537W        W59931  17.112  20.840  14.961
91538W        W59932  30.607  22.864   3.341
91539W        W59933  35.896  19.881   2.476
91540W        W59934  26.421  37.411  12.637
91541W        W59935  22.890  17.720  11.997
91542W        W59936   1.554  31.575   0.347
91543W        W59937  37.928  44.267  11.524
91544W        W59938  21.530   5.235  14.038
91545W        W59939  17.080  22.467  12.020
91546W        W59940  37.390  10.379   0.327
91547W        W59941  22.449  40.554   1.206
91548W        W59942  34.493  43.823  13.447
91549W        W59943  30.473  31.656   0.953
91550W        W59944  20.944   0.757  13.795
91551W        W59945  12.869  34.825   1.995
91552W        W59946   9.543  19.742  10.386
91553W        W59947  16.642  21.074  14.110
91554W        W59948  17.136  32.054  11.150
91555W        W59949  42.253  31.838  14.959
91556W        W59950  10.373  15.634  11.567
91557W        W59951  37.873  40.855   4.478
91558W        W59952   6.438  39.090  13.160
91559W        W59953  17.368  17.024  14.025
91560W        W59954   7.915  39.979  12.153
91561W        W59955   2.250   1.777   3.737
91562W        W59956  14.380  24.730   1.872
91563W        W59957  15.726   8.634  12.572
91564W        W59958   5.352   7.134  12.413
91565W        W59959   8.796  16.319   3.027
91566W        W59960   1.358  16.244   3.254
91567W        W59961  39.744  29.946   0.387
91568W        W59962  20.713   3.905  11.074
91569W        W59963   8.170  41.999  13.899
91570W        W59964  32.877  31.557   1.259
91571W        W59965   2.834   5.215   0.242
91572W        W59966  18.574  20.095   1.873
91573W        W59967  30.523   0.671  13.987
91574W        W59968  32.072   1.188   3.164
91575W        W59969  37.456  11.421  11.032
91576W        W59970  19.486  27.508  11.317
91577W        W59971  27.442   3.397   3.809
91578W        W59972   6.216  36.860  12.743
91579W        W59973   0.697  36.630  14.395
91580W        W59974  25.694  16.179   2.328
91581W        W59975  16.749   6.803  14.089
91582W        W59976  32.091  19.566   0.604
91583W        W59977  33.853  38.698   0.692
91584W        W59978  27.649  42.835  11.631
91585W        W59979  31.883  21.504   4.861
91586W        W59980   1.498  24.106  11.573
91587W        W59981  19.569  17.221   1.397
91588W        W59982  41.024  22.677  14.379
91589W        W59983   1.274  21.251   2.262
91590W        W59984  27.137  26.726  11.551
91591W        W59985  35.701  29.735  11.242
91592W        W59986  33.548  20.575  14.395
91593W        W59987   3.760  16.276   4.883
91594W        W59988  23.528   6.254  11.979
91595W        W59989  15.351  33.658  14.302
91596W        W59990   9.972  13.097  12.281
91597W        W59991  34.459  41.965   2.698
91598W        W59992   9.212  12.634   1.511
91599W        W59993  31.654   5.170   0.802
91600W        W59994  41.612  24.473  12.056
91601W        W59995   8.971  41.284   3.166
91602W        W59996   3.680  21.934   4.548
91603W        W59997  31.059  43.617   3.638
91604W        W59998  36.945   8.179  14.465
91605W        W59999  20.241  21.501  13.616
91606W        W60000   1.949  20.525   4.234
91607W        W60001  33.829  11.685  14.568
91608W        W60002  27.739  13.029   1.913
91609W        W60003   2.427  14.199  12.590
91610W        W60004   5.654  37.892   4.120
91611W        W60005  13.818  17.076  11.648
91612W        W60006   5.159   3.221   3.612
91613W        W60007  36.814  44.006  13.417
91614W        W60008   3.483  43.127  13.463
91615W        W60009   0.819  30.969   1.558
91616W        W60010  22.727  38.544  12.540
91617W        W60011  29.468  12.731  12.580
91618W        W60012   4.839   2.033  12.463
91619W        W60013  15.257  11.936   3.682
91620W        W60014  33.946  32.104   0.865
91621W        W60015   8.312  13.640  10.702
91622W        W60016  21.567  35.556   2.292
91623W        W60017  44.251  20.589  13.488
91624W        W60018   8.235  36.836   2.288
91625W        W60019  14.225   9.813   4.606
91626W        W60020  44.935  39.604   0.381
91627W        W60021  25.723   6.204  14.587
91628W        W60022  13.212   9.843   0.395
91629W        W60023  10.415   0.321  14.428
91630W        W60024  29.378  17.694  12.455
91631W        W60025   7.655  39.020   0.444
91632W        W60026  21.612  16.310  13.550
91633W        W60027  10.569  38.646   3.871
91634W        W60028  17.134  12.419  10.716
91635W        W60029  40.505  20.663   1.656
91636W        W60030  26.245  34.981  11.854
91637W        W60031   9.887  19.311   2.609
91638W        W60032   9.943   9.899   1.713
91639W        W60033  40.428  42.844  13.361
91640W        W60034  16.728  16.271   1.270
91641W        W60035  17.681  12.211   0.980
91642W        W60036  20.757  34.531   5.046
91643W        W60037  22.272   7.647  14.967
91644W        W60038  28.416  43.005  14.839
91645W        W60039  25.806  28.136  14.439
91646W        W60040  31.888  35.674   1.921
91647W        W60041  26.024   3.098  11.104
91648W        W60042   3.244  22.246   1.707
91649W        W60043  29.346  29.924  14.560
91650W        W60044  27.092  41.983  11.609
91651W        W60045  14.604   8.431   1.700
91652W        W60046  35.254  15.324  12.358
91653W        W60047  11.474  26.594  12.665
91654W        W60048   1.507  33.743  12.504
91655W        W60049  13.863  14.861   0.510
91656W        W60050  31.159   9.051  12.007
91657W        W60051  30.119  16.079   3.107
91658W        W60052  16.836   9.871   0.407
91659W        W60053   0.436  31.953   0.899
91660W        W60054  27.189   3.314   1.455
91661W        W60055   1.421   1.808   2.893
91662W        W60056  11.713  20.541  14.479
91663W        W60057  41.530  32.161   4.342
91664W        W60058   0.962  16.112  14.408
91665W        W60059  27.607  20.324   2.376
91666W        W60060  36.045  43.918  10.933
91667W        W60061  16.293   5.019  11.663
91668W        W60062  24.578  33.472   3.673
91669W        W60063  31.560  40.652   1.696
91670W        W60064   5.680   2.273  10.640
91671W        W60065  16.055  40.854   1.200
91672W        W60066  18.703   7.165  14.826
91673W        W60067  20.445   1.277  13.139
91674W        W60068  41.586  39.361   3.687
91675W        W60069   2.628  42.850  12.977
91676W        W60070  34.698  24.964   2.084
91677W        W60071   1.186   3.731   3.098
91678W        W60072   5.889   2.659  12.057
91679W        W60073  40.839   0.147  10.537
91680W        W60074  26.549  10.263  12.346
91681W        W60075  29.620  17.106  12.851
91682W        W60076  24.834  30.442  13.247
91683W        W60077  10.750  26.667  11.522
91684W        W60078  11.875  20.284  12.128
91685W        W60079  10.672  21.670  14.067
91686W        W60080  27.699   6.305  13.390
91687W        W60081  33.604  28.409  12.174
91688W        W60082   3.432  17.511   3.069
91689W        W60083  12.701   8.867  14.336
91690W        W60084  27.457  37.218  14.965
91691W        W60085  40.822  29.076  10.447
91692W        W60086   8.996  22.413   2.723
91693W        W60087   5.927   3.901  14.061
91694W        W60088  41.540  21.065   4.874
91695W        W60089  42.425  17.297   4.699
91696W        W60090  20.020  32.569  14.514
91697W        W60091  14.618  19.502  10.549
91698W        W60092  14.122  18.472  10.847
91699W        W60093   7.236  31.872  11.502
91700W        W60094  19.576  12.944  10.727
91701W        W60095  17.137  16.728  13.662
91702W        W60096   2.716   5.013   2.797
91703W        W60097  32.417   0.151   3.715
91704W        W60098  36.192  43.454  13.026
91705W        W60099  10.824  20.326   2.344
91706W        W60100  31.970   0.260   1.118
91707W        W60101  10.678  14.701  11.995
91708W        W60102  10.143  28.600  12.533
91709W        W60103  26.117  20.709   4.171
91710W        W60104  36.298  40.841  12.854
91711W        W60105   2.865   6.756   2.387
91712W        W60106   7.019   0.154   0.908
91713W        W60107   5.656  31.865  14.444
91714W        W60108  14.084  17.221   2.664
91715W        W60109  14.752  18.165   1.876
91716W        W60110   6.889  25.285  14.046
91717W        W60111  21.973  10.164  11.084
91718W        W60112  35.305  18.330   4.159
91719W        W60113   7.355  39.328   3.347
91720W        W60114  30.478  21.681   4.603
91721W        W60115  42.047   0.739   3.140
91722W        W60116   5.446  18.828   0.112
91723W        W60117  32.006  39.979  14.498
91724W        W60118  37.402  36.064  12.901
91725W        W60119   9.611  43.422   0.935
91726W        W60120  37.651  32.682   2.155
91727W        W60121  20.270   7.402  13.465
91728W        W60122  41.795   0.355   0.447
91729W        W60123  39.571   1.702   0.484
91730W        W60124  38.638   1.039   2.686
91731W        W60125  11.882  40.778   1.729
91732W        W60126   0.767  11.864   3.993
91733W        W60127  12.620   0.687  12.058
91734W        W60128  31.057  30.967   4.447
91735W        W60129  33.003  26.922  12.817
91736W        W60130  39.525   4.770  13.405
91737W        W60131   9.318   8.863   2.702
91738W        W60132  29.597  33.395   3.597
91739W        W60133   5.799   2.450   5.430
91740W        W60134  25.485  22.547  14.459
91741W        W60135  28.393  22.359   3.004
91742W        W60136  20.020  22.249   4.895
91743W        W60137  15.744  18.221  14.499
91744W        W60138  41.486  41.813   0.778
91745W        W60139  43.890   5.767  11.867
91746W        W60140  10.783  21.493  10.554
91747W        W60141   2.492  20.808   4.825
91748W        W60142  21.101  20.164  13.012
91749W        W60143  41.252  28.483  12.461
91750W        W60144   2.930  11.637   0.241
91751W        W60145  34.402  41.559  13.302
91752W        W60146  17.003  33.803   1.888
91753W        W60147  17.187  44.479  12.137
91754W        W60148   2.316  17.684   1.691
91755W        W60149  32.641  38.532  10.603
91756W        W60150  39.947  31.151   0.081
91757W        W60151  39.539   2.256   2.383
91758W        W60152  11.444   1.586   5.152
91759W        W60153  16.169  21.741  12.383
91760W        W60154  19.615   4.890   0.866
91761W        W60155   9.559  44.225   1.348
91762W        W60156  32.296  22.119  14.334
91763W        W60157   1.146   3.518   0.155
91764W        W60158   7.485   2.197   2.880
91765W        W60159   7.070  16.009   1.022
91766W        W60160  11.457  26.998  13.943
91767W        W60161  31.456  37.892   0.846
91768W        W60162  27.625  21.436  10.765
91769W        W60163  25.147  14.248   1.086
91770W        W60164   6.210  14.754   2.742
91771W        W60165   1.914  14.670  14.521
91772W        W60166  35.864  20.250  14.332
91773W        W60167  28.617  39.894  13.267
91774W        W60168  41.480  14.138  14.939
91775W        W60169  27.932  19.871   1.453
91776W        W60170  13.653   9.405   1.894
91777W        W60171   7.417  20.705  10.604
91778W        W60172  37.860   0.311  11.557
91779W        W60173  27.045   5.924  10.671
91780W        W60174  19.184  29.089  11.871
91781W        W60175  24.595  16.020   0.578
91782W        W60176  43.119  22.597  11.756
91783W        W60177  42.569  31.153  12.846
91784W        W60178  19.581   2.180   3.680
91785W        W60179   1.322  10.590  11.146
91786W        W60180  33.105   2.775   0.225
91787W        W60181   8.813  12.297  13.817
91788W        W60182   7.012  26.126  14.149
91789W        W60183  15.745  12.117  11.618
91790W        W60184  18.272  32.208  14.557
91791W        W60185  24.696  17.787   3.362
91792W        W60186  29.544  34.258  14.389
91793W        W60187  35.749  25.420  13.724
91794W        W60188   5.220  24.991  11.541
91795W        W60189  28.210  11.998  12.949
91796W        W60190  18.285  30.800  12.167
91797W        W60191  24.599  26.601   3.794
91798W        W60192  28.837   1.668   0.228
91799W        W60193  13.009  15.313  12.075
91800W        W60194  42.979  20.112  13.127
91801W        W60195   4.181   0.865   2.315
91802W        W60196  23.135  20.938   0.819
91803W        W60197  34.523  40.247  12.091
91804W        W60198  37.714  44.361   1.694
91805W        W60199  39.385  41.762  14.052
91806W        W60200  37.369  30.910  11.057
91807W        W60201  40.026  18.099   3.198
91808W        W60202  10.763  44.909   4.157
91809W        W60203  34.139  19.573   0.844
91810W        W60204  28.934  20.136   4.475
91811W        W60205  31.444   0.703   1.889
91812W        W60206  31.328  36.812  14.377
91813W        W60207  25.778  44.867  12.148
91814W        W60208  41.420  36.463  11.569
91815W        W60209  17.202   1.111   3.226
91816W        W60210  14.953   5.393   2.597
91817W        W60211  12.832  32.625   3.635
91818W        W60212  18.081  39.249   1.388
91819W        W60213  10.311  37.029  12.016
91820W        W60214  21.546   4.038   2.304
91821W        W60215  14.026   8.644  13.136
91822W        W60216   4.865  28.077   4.774
91823W        W60217  28.071   4.734  12.083
91824W        W60218  34.825  43.004  13.884
91825W        W60219  34.557  39.631  14.892
91826W        W60220  20.957   7.320   1.203
91827W        W60221  29.180   5.032  12.194
91828W        W60222   8.441  21.228   0.523
91829W        W60223  12.256  21.022   3.777
91830W        W60224  20.307  33.094  12.386
91831W        W60225  31.876  13.001   3.295
91832W        W60226  31.151  38.244  12.338
91833W        W60227  44.379   3.787  12.934
91834W        W60228  32.695  21.302   4.622
91835W        W60229  33.296   1.337  12.441
91836W        W60230  39.221  18.129  10.743
91837W        W60231  27.201   6.923  12.651
91838W        W60232  16.751  44.244   1.275
91839W        W60233  32.858  37.927  14.441
91840W        W60234  16.842   9.214   4.095
91841W        W60235  39.660  24.735  11.150
91842W        W60236  37.405  44.568  10.725
91843W        W60237  23.617  10.734  13.563
91844W        W60238  18.341   2.438  14.982
91845W        W60239  19.965  16.643   0.201
91846W        W60240  37.488   7.739   3.727
91847W        W60241  22.459  20.521  14.607
91848W        W60242  33.611  17.356   0.430
91849W        W60243  13.288   5.247   1.694
91850W        W60244   2.913  35.910   0.745
91851W        W60245  20.629  22.670   1.370
91852W        W60246  41.411  43.612   3.269
91853W        W60247   4.239   6.775   3.723
91854W        W60248   0.092  33.846   0.739
91855W        W60249  30.801  28.920   1.614
91856W        W60250   3.744  28.847   2.930
91857W        W60251  33.869   2.617  11.146
91858W        W60252  44.818  34.477   1.801
91859W        W60253  42.278   8.894   2.800
91860W        W60254  44.242  38.940  11.097
91861W        W60255  11.323   1.794   4.074
91862W        W60256   8.884   9.674   2.793
91863W        W60257   5.985  41.562  11.853
91864W        W60258  32.511  37.030  12.461
91865W        W60259  37.286   6.813  11.943
91866W        W60260  31.193  16.898  12.611
91867W        W60261   9.256  44.009  13.962
91868W        W60262   4.692  38.058  11.536
91869W        W60263  10.304  30.170  14.812
91870W        W60264  33.593  32.586  10.312
91871W        W60265  37.330   8.355   4.587
91872W        W60266  17.787  33.943   2.157
91873W        W60267  17.291  10.698  13.080
91874W        W60268  15.625  18.432   5.281
91875W        W60269  14.146  16.598  12.329
91876W        W60270   1.283  18.837   4.617
91877W        W60271   5.414  17.352  11.357
91878W        W60272   3.431  37.011  13.130
91879W        W60273  40.059  31.094  12.494
91880W        W60274  33.846  18.072   5.131
91881W        W60275  44.039  15.942  12.813
91882W        W60276   2.869  20.259   4.542
91883W        W60277  34.444  35.528  10.679
91884W        W60278  22.237   1.404  11.965
91885W        W60279   5.999  30.680  14.298
91886W        W60280  12.925  41.549  14.246
91887W        W60281  20.253   9.251  13.542
91888W        W60282  26.503  43.798   4.566
91889W        W60283  42.047  34.844   1.815
91890W        W60284  32.817  32.494  14.223
91891W        W60285  10.265  25.959  14.111
91892W        W60286  39.630  38.038   0.569
91893W        W60287  42.352  27.271   3.783
91894W        W60288  41.071  11.381  11.366
91895W        W60289  21.979  29.382  14.672
91896W        W60290  39.942  13.952  10.752
91897W        W60291  21.987  18.923   2.219
91898W        W60292  32.098  19.004   0.638
91899W        W60293  40.523  34.023   3.766
91900W        W60294   2.899  39.721  10.536
91901W        W60295  14.284  17.573  13.916
91902W        W60296   5.205  29.876   0.317
91903W        W60297  42.398  30.125  13.858
91904W        W60298  40.486   3.374   1.195
91905W        W60299  38.103  44.016   1.748
91906W        W60300  23.825  42.576  12.637
91907W        W60301   1.474   7.151   4.334
91908W        W60302  23.987  39.531  11.734
91909W        W60303   5.400  43.011   4.154
91910W        W60304   6.940  30.442   0.267
91911W        W60305  29.170  10.081   3.826
91912W        W60306  11.668  30.034   2.150
91913W        W60307  27.609  22.812   0.072
91914W        W60308  31.447  25.555   1.369
91915W        W60309  30.480  38.507   4.150
91916W        W60310  28.287   4.442  12.457
91917W        W60311  34.500  14.212   3.353
91918W        W60312  11.106  42.336  11.648
91919W        W60313  13.129  22.868   4.207
91920W        W60314  16.672  24.044   1.293
91921W        W60315  41.447  36.961  11.668
91922W        W60316  44.026  42.960   2.399
91923W        W60317   4.133  39.018  10.774
91924W        W60318  10.080  43.029   1.662
91925W        W60319  40.674   9.784   0.381
91926W        W60320  29.658  39.760  11.654
91927W        W60321  23.265   6.479  13.885
91928W        W60322   6.670  33.646  12.483
91929W        W60323   2.527  35.182   0.431
91930W        W60324  22.238  32.563   4.262
91931W        W60325  36.851  40.169   3.496
91932W        W60326  13.254   8.049  11.558
91933W        W60327  41.054   0.508  12.045
91934W        W60328  37.906  17.558   1.844
91935W        W60329   9.448  27.151   5.702
91936W        W60330  30.866  15.405   0.886
91937W        W60331  27.148  38.284   2.721
91938W        W60332  16.975  21.961  11.946
91939W        W60333  36.913  17.687   2.192
91940W        W60334  29.162  36.381   0.873
91941W        W60335  32.619  35.931  13.544
91942W        W60336  42.945  31.971   2.279
91943W        W60337  11.771   9.329   3.190
91944W        W60338  44.203  29.651   1.359
91945W        W60339  30.952  33.853  12.037
91946W        W60340  15.521  41.445   0.023
91947W        W60341   5.199  15.837   3.200
91948W        W60342  26.489  10.841   0.489
91949W        W60343   0.283   8.874   0.494
91950W        W60344  15.157  41.418  11.526
91951W        W60345  13.480  37.152   0.940
91952W        W60346  10.385  43.226  13.857
91953W        W60347  12.676  41.379   1.761
91954W        W60348  33.040  41.443   4.920
91955W        W60349  26.471  42.897  11.985
91956W        W60350  17.266  15.747   2.416
91957W        W60351  21.187  27.392  13.816
91958W        W60352  15.228   0.226   4.115
91959W        W60353  17.308  34.609  10.822
91960W        W60354   2.017  38.450  12.615
91961W        W60355  30.713  26.462   5.011
91962W        W60356   6.803  42.061   0.445
91963W        W60357  23.702  32.675  13.825
91964W        W60358  33.928  12.386  12.354
91965W        W60359  38.874  31.489   2.643
91966W        W60360  12.055  14.872   0.318
91967W        W60361   1.681  14.042  11.962
91968W        W60362  38.042   2.615  13.836
91969W        W60363   0.931   9.473   0.858
91970W        W60364  21.226  21.600   0.276
91971W        W60365  31.008  12.522   3.609
91972W        W60366  10.613   4.464  13.821
91973W        W60367  26.988  21.727   4.534
91974W        W60368  39.846  23.795  14.775
91975W        W60369  29.054  33.074  14.877
91976W        W60370  35.829  14.601  14.317
91977W        W60371   6.314  22.227   4.859
91978W        W60372  24.240   9.452   5.507
91979W        W60373  33.963  19.472  11.617
91980W        W60374  35.341   9.368   2.999
91981W        W60375   0.712  31.192  14.212
91982W        W60376  33.673   4.255  13.339
91983W        W60377  40.308  17.975   4.891
91984W        W60378  23.719  28.573  10.740
91985W        W60379  36.541  30.007   3.290
91986W        W60380  19.121  22.345   4.876
91987W        W60381  25.364  16.601  11.670
91988W        W60382  36.008   7.652  13.934
91989W        W60383  31.130  36.516   1.235
91990W        W60384   1.727   5.745  11.157
91991W        W60385   5.938  37.874  14.801
91992W        W60386   8.961  10.482   4.957
91993W        W60387   8.222   9.690  12.540
91994W        W60388  16.671  43.271   3.203
91995W        W60389   2.791   9.040   2.928
91996W        W60390  10.708  34.414  10.537
91997W        W60391  31.146   6.304   4.129
91998W        W60392   5.858   5.969   4.575
91999W        W60393  32.531  20.161   2.338
92000W        W60394  41.562   8.345   2.890
92001W        W60395   1.684  11.877   1.807
92002W        W60396   5.937   9.311   1.176
92003W        W60397  20.465  24.117   2.138
92004W        W60398  35.762  38.055  12.024
92005W        W60399   8.835  38.810   1.450
92006W        W60400  20.542  16.161   4.588
92007W        W60401  15.519  39.751  11.244
92008W        W60402  11.217  44.724  10.723
92009W        W60403  17.719  13.094  11.918
92010W        W60404  22.628  17.874   1.295
92011W        W60405   6.880   0.385  12.197
92012W        W60406  33.921  25.522   0.434
92013W        W60407  29.857  38.504   4.143
92014W        W60408  22.275   8.618  10.181
92015W        W60409  32.351  14.257  11.561
92016W        W60410   4.874  34.617   0.487
92017W        W60411   0.211  30.834   3.639
92018W        W60412  25.297   2.801  12.900
92019W        W60413   2.217  11.577   4.170
92020W        W60414  34.363   9.810  12.076
92021W        W60415  40.312  30.588  11.815
92022W        W60416  13.241  43.864   3.554
92023W        W60417  43.910   1.166   1.325
92024W        W60418  31.176   3.771   3.846
92025W        W60419  37.451  19.137   0.735
92026W        W60420  12.256  10.106   2.298
92027W        W60421   8.612  18.792  11.527
92028W        W60422  30.687   5.290   0.940
92029W        W60423  14.652  25.545  12.435
92030W        W60424  37.355   4.213  14.453
92031W        W60425   5.757  44.959  10.679
92032W        W60426  38.996  19.421   5.043
92033W        W60427  24.222  43.114   4.590
92034W        W60428  37.001  21.636  11.585
92035W        W60429  24.421  14.205  11.621
92036W        W60430   6.253  23.070  13.043
92037W        W60431  44.025  28.394  13.417
92038W        W60432  32.717  16.588   3.339
92039W        W60433  41.074   5.970  14.896
92040W        W60434  43.352  37.173   0.213
92041W        W60435  17.119   0.365  13.540
92042W        W60436  22.054  43.703  11.476
92043W        W60437   1.516   1.813  11.270
92044W        W60438   8.767   0.012  12.340
92045W        W60439  13.175  35.270  14.284
92046W        W60440  32.000  37.379   4.605
92047W        W60441   2.468  43.024  12.507
92048W        W60442  11.999  25.825   2.159
92049W        W60443  34.227  30.118   2.288
92050W        W60444  34.498  21.865  14.960
92051W        W60445  11.113  30.472   3.064
92052W        W60446  11.969  36.446   4.993
92053W        W60447  22.711  37.993   0.719
92054W        W60448   4.077  28.252  14.556
92055W        W60449   7.178  14.316  12.071
92056W        W60450  35.449  32.114   0.913
92057W        W60451  21.871  32.595  13.114
92058W        W60452  33.346  38.427  13.773
92059W        W60453  22.192  18.665  10.691
92060W        W60454  40.332  22.016  14.365
92061W        W60455  36.056  17.615   1.168
92062W        W60456  30.829   3.791  13.002
92063W        W60457   9.659  41.342  12.338
92064W        W60458  30.906  41.746  13.338
92065W        W60459  20.788  21.745  12.443
92066W        W60460  26.452  17.052   1.114
92067W        W60461  26.542  10.828  14.988
92068W        W60462   7.262  41.280  12.949
92069W        W60463  30.109   0.243   3.310
92070W        W60464   2.443  24.199  10.777
92071W        W60465  41.527  41.524  11.340
92072W        W60466  38.238   4.774  14.363
92073W        W60467  43.070  20.611   4.960
92074W        W60468  38.477  33.422   3.192
92075W        W60469  20.253  18.473   1.372
92076W        W60470  28.994  43.242  10.566
92077W        W60471  27.980   7.121  14.441
92078W        W60472  20.518  19.325  12.396
92079W        W60473   6.735  21.544  12.125
92080W        W60474  29.971  26.708   4.071
92081W        W60475  39.469  28.224   3.815
92082W        W60476  12.766  22.312  10.510
92083W        W60477  39.294  13.656  14.930
92084W        W60478  16.348  19.546  14.823
92085W        W60479   8.294  42.840   0.263
92086W        W60480  44.850   7.773  10.480
92087W        W60481  23.164  22.414  12.874
92088W        W60482   0.384  14.887   1.919
92089W        W60483   0.722  24.510   4.392
92090W        W60484  31.587  35.022   3.839
92091W        W60485  34.877  43.417  11.417
92092W        W60486   6.460   1.362  11.089
92093W        W60487  35.501   4.193  12.660
92094W        W60488  39.907  23.145  13.899
92095W        W60489  21.308  29.534   3.350
92096W        W60490   5.691  32.354  11.195
92097W        W60491   1.464   7.884   3.156
92098W        W60492  30.425  18.033  13.520
92099W        W60493  37.119  37.741  12.484
92100W        W60494  33.654  15.217   4.926
92101W        W60495  18.287   7.415   1.945
92102W        W60496  35.101   8.116   1.753
92103W        W60497  14.582  39.821   5.075
92104W        W60498  18.157  20.633  11.186
92105W        W60499  24.891  42.841   0.932
92106W        W60500   3.393  15.268   1.368
92107W        W60501  32.906   2.706  13.844
92108W        W60502  17.536  12.649   1.194
92109W        W60503  12.096  23.917   0.348
92110W        W60504  42.336   6.682  10.643
92111W        W60505  26.621  31.162  13.846
92112W        W60506  27.145  12.115  14.978
92113W        W60507  43.243  34.885  10.265
92114W        W60508  20.527  11.638  12.907
92115W        W60509  36.054  15.389   2.129
92116W        W60510  24.102  37.793   1.274
92117W        W60511  33.096  33.615   2.348
92118W        W60512   5.997  39.072  11.264
92119W        W60513  20.163  36.871   2.714
92120W        W60514   4.038  14.654   4.179
92121W        W60515  42.137  18.710   1.208
92122W        W60516  16.394   6.623  12.592
92123W        W60517  10.546  14.816  10.657
92124W        W60518  15.413  23.977  11.014
92125W        W60519  42.254   0.922  10.833
92126W        W60520   1.915  21.782   3.252
92127W        W60521  28.894  44.461   1.281
92128W        W60522  21.219  38.903  11.249
92129W        W60523  32.849   8.658   3.379
92130W        W60524   3.210   7.949   4.021
92131W        W60525  32.553  35.458   2.110
92132W        W60526   0.056   2.357   0.806
92133W        W60527  19.653   2.440  12.111
92134W        W60528  19.095  28.950  11.046
92135W        W60529  42.570  42.270   1.218
92136W        W60530  35.348  24.196  11.166
92137W        W60531  15.426   1.517  13.343
92138W        W60532  15.738  11.629   4.646
92139W        W60533  22.489  12.332  13.523
92140W        W60534  25.099  39.296   2.232
92141W        W60535  41.792  29.494  12.615
92142W        W60536   7.815  14.705   4.479
92143W        W60537  35.872  28.965   2.808
92144W        W60538   2.223   3.005  12.033
92145W        W60539  26.103  14.982  13.115
92146W        W60540   3.224  24.528   3.135
92147W        W60541  10.567  19.753  11.187
92148W        W60542  36.366  21.639   1.309
92149W        W60543  44.834   7.433  11.745
92150W        W60544  17.762  28.677   2.167
92151W        W60545  29.102  17.255  12.655
92152W        W60546  29.019   8.217   3.617
92153W        W60547  31.299  15.042  14.971
92154W        W60548  22.522  10.253   1.341
92155W        W60549  39.402  44.349   4.504
92156W        W60550  36.709  42.244  14.712
92157W        W60551  23.565  39.554  14.399
92158W        W60552  22.214  33.664   2.868
92159W        W60553  37.041  16.194   0.747
92160W        W60554   7.202  27.526   4.382
92161W        W60555  39.316  13.670   0.837
92162W        W60556  30.843  19.793   4.598
92163W        W60557  36.172  16.112  12.428
92164W        W60558  20.230  26.670  13.208
92165W        W60559   2.632  36.911   2.412
92166W        W60560  23.509   3.472   0.457
92167W        W60561   3.001   1.887   1.829
92168W        W60562  23.107  39.761  12.868
92169W        W60563  44.822  14.569   0.216
92170W        W60564  21.987  35.925   1.427
92171W        W60565  35.064   0.762   3.238
92172W        W60566  30.100  37.317  12.909
92173W        W60567  31.406  20.203   0.927
92174W        W60568   6.104  27.191  13.025
92175W        W60569   7.116  38.913   1.066
92176W        W60570  26.818  10.142   3.630
92177W        W60571   1.882  18.675  14.529
92178W        W60572  37.568  39.634   0.893
92179W        W60573  43.017  34.151   3.686
92180W        W60574  11.201  26.133  12.642
92181W        W60575  32.001  41.213  10.735
92182W        W60576  32.976   2.909  14.750
92183W        W60577  44.701  21.515  10.361
92184W        W60578  36.684   8.688  11.052
92185W        W60579  16.047  26.010  11.311
92186W        W60580  14.310  36.079  14.761
92187W        W60581  31.187   1.396   4.502
92188W        W60582   6.705  37.399  14.808
92189W        W60583   7.634  10.435   0.668
92190W        W60584   0.298  27.665   0.799
92191W        W60585  28.666   8.258   2.267
92192W        W60586  11.912  36.444  14.834
92193W        W60587  23.238  33.859   3.230
92194W        W60588  16.300  43.137   0.950
92195W        W60589  41.439  29.639  11.511
92196W        W60590  15.148  38.305  11.142
92197W        W60591   7.253  18.707   3.068
92198W        W60592  18.106  37.544   4.938
92199W        W60593  41.258  31.048  13.342
92200W        W60594  38.497   0.704   3.117
92201W        W60595  14.753   4.940  12.419
92202W        W60596  43.823  28.496  11.554
92203W        W60597  42.018  29.166   3.755
92204W        W60598  23.415   8.657   0.973
92205W        W60599   0.792  30.628   0.594
92206W        W60600  31.031   7.403  13.911
92207W        W60601  19.622  36.644   4.721
92208W        W60602  29.259  13.873  13.177
92209W        W60603  21.467  44.902   0.904
92210W        W60604  28.690   0.518   4.491
92211W        W60605  43.761  18.097   3.096
92212W        W60606  24.554   6.689   1.352
92213W        W60607  12.861  18.944   2.401
92214W        W60608   9.316  43.083   1.789
92215W        W60609   6.466  41.481  14.635
92216W        W60610  38.400  12.946   4.082
92217W        W60611  40.431   1.690  10.742
92218W        W60612  10.186   9.441   2.632
92219W        W60613  15.594  44.435  14.619
92220W        W60614  37.583  44.794   1.355
92221W        W60615   0.553   5.944   0.444
92222W        W60616  13.039  44.264   3.146
92223W        W60617  40.944  42.732  14.060
92224W        W60618  14.791   2.676  12.022
92225W        W60619  12.944  18.779  13.182
92226W        W60620  22.651  13.738   1.238
92227W        W60621  37.110  30.098   2.787
92228W        W60622  26.674   1.568   0.729
92229W        W60623  14.254   9.854   1.331
92230W        W60624  38.920  33.687   3.214
92231W        W60625  34.660  41.209  12.028
92232W        W60626   9.387  28.015  11.599
92233W        W60627  29.607  32.560   4.274
92234W        W60628  28.974  31.291   4.671
92235W        W60629   7.841  26.138   1.651
92236W        W60630  13.609  15.528  14.352
92237W        W60631  17.560   1.812  13.901
92238W        W60632  22.507  39.245   4.211
92239W        W60633   0.486  21.739  14.550
92240W        W60634  25.728   8.012   4.677
92241W        W60635  40.266  30.122   1.758
92242W        W60636  42.092  43.354   4.632
92243W        W60637  29.839  12.663  14.513
92244W        W60638   5.031  16.502   4.458
92245W        W60639  36.687  41.496  14.459
92246W        W60640   1.934  29.257   3.599
92247W        W60641   8.971  30.119  13.612
92248W        W60642   6.213  38.066  14.391
92249W        W60643  22.693  27.034  13.231
92250W        W60644  14.248  40.418   5.039
92251W        W60645  27.956  10.397  10.546
92252W        W60646  28.514  15.673   3.080
92253W        W60647  17.512  18.183   1.720
92254W        W60648   6.437  10.183   3.188
92255W        W60649   0.441  28.504  11.661
92256W        W60650  32.255  27.752   2.503
92257W        W60651  24.045  19.539   0.381
92258W        W60652  39.232   6.409   3.046
92259W        W60653   0.549  42.234   0.559
92260W        W60654  39.637   9.320  10.780
92261W        W60655  18.610  39.385   1.816
92262W        W60656  25.471   4.324  12.829
92263W        W60657   7.201   4.972   0.320
92264W        W60658  10.129  24.610   0.819
92265W        W60659   2.067  44.802  14.932
92266W        W60660   0.033  31.730  12.038
92267W        W60661   3.692   1.716   3.370
92268W        W60662  41.620  39.045  14.929
92269W        W60663   6.964  14.532   9.790
92270W        W60664  13.539  35.035   4.413
92271W        W60665   6.762  26.602  11.623
92272W        W60666   3.865   1.932   3.806
92273W        W60667  10.400   7.293  11.278
92274W        W60668   7.706  32.322   0.776
92275W        W60669   1.021  23.641   4.167
92276W        W60670  29.153  36.287  13.769
92277W        W60671   2.938  12.273  13.099
92278W        W60672  15.275   8.262   2.189
92279W        W60673   5.054  16.404   0.211
92280W        W60674  37.192  39.258   4.816
92281W        W60675  13.544  37.314   0.186
92282W        W60676  16.739   6.495   0.609
92283W        W60677  38.064  12.235  12.162
92284W        W60678  28.659  33.093  13.393
92285W        W60679  36.492  35.507  14.790
92286W        W60680  18.349  19.082   2.764
92287W        W60681  31.298  27.853   4.247
92288W        W60682  10.735  15.172   2.987
92289W        W60683  15.267  11.165   0.763
92290W        W60684   2.387  40.152   0.022
92291W        W60685  18.502   9.465  12.145
92292W        W60686   5.912  27.031  12.555
92293W        W60687  36.424  44.366  13.428
92294W        W60688  30.839   2.758  11.779
92295W        W60689   1.896  44.416   4.593
92296W        W60690  26.486  23.378  12.382
92297W        W60691  32.100  32.096  14.045
92298W        W60692  19.499  20.246   5.008
92299W        W60693  14.737  26.088  10.624
92300W        W60694  16.088  23.228   0.483
92301W        W60695  36.890  42.330   0.712
92302W        W60696  40.237  37.008   4.642
92303W        W60697  43.444  37.674   0.348
92304W        W60698  18.075  30.588   1.655
92305W        W60699  41.324  26.155   2.230
92306W        W60700  22.482  18.537   4.475
92307W        W60701   9.790  30.977   1.440
92308W        W60702   0.172  27.671  11.440
92309W        W60703  37.442  33.196   2.715
92310W        W60704   6.151  30.641   4.227
92311W        W60705  11.726  41.316   0.799
92312W        W60706  20.685  27.378  13.482
92313W        W60707   5.412  15.896  11.648
92314W        W60708   7.727  27.179  14.020
92315W        W60709  43.841   0.937  14.867
92316W        W60710   8.246  30.466  11.679
92317W        W60711  10.459  11.223   2.889
92318W        W60712  28.454  22.309   0.481
92319W        W60713   0.790  21.088   3.586
92320W        W60714   2.917  42.985  10.726
92321W        W60715  16.490   4.934  14.962
92322W        W60716  26.068  30.873  11.988
92323W        W60717  36.380  14.924   0.475
92324W        W60718  30.978  21.578   0.245
92325W        W60719   4.179  14.886   1.068
92326W        W60720  34.467  18.586   4.539
92327W        W60721  19.731  14.065   1.325
92328W        W60722   4.366  26.010  13.610
92329W        W60723  41.184   1.876   1.965
92330W        W60724  41.086  40.484  13.466
92331W        W60725  34.941  36.110  13.418
92332W        W60726  13.580  29.656   4.708
92333W        W60727  36.058   6.935   2.834
92334W        W60728  39.558  25.681   2.277
92335W        W60729  28.660  18.605   4.684
92336W        W60730  32.099  22.119  14.826
92337W        W60731  18.727  38.132  14.909
92338W        W60732  41.438   1.513  13.488
92339W        W60733  27.298  21.515  12.808
92340W        W60734  44.827  24.787  13.985
92341W        W60735  21.024  17.743  13.333
92342W        W60736  13.139  25.675   4.646
92343W        W60737   2.031  38.470  11.214
92344W        W60738   4.699  43.771  12.145
92345W        W60739  38.447  23.205  10.714
92346W        W60740  39.120  39.936  12.578
92347W        W60741  13.379  26.374  12.084
92348W        W60742   8.891  32.892  14.215
92349W        W60743  32.817  17.035  14.067
92350W        W60744   4.612  18.037   9.921
92351W        W60745  29.401  34.801   3.287
92352W        W60746  27.134  43.567   2.299
92353W        W60747  36.415  17.180  14.012
92354W        W60748  17.694   0.515   1.340
92355W        W60749  17.111   0.073  14.009
92356W        W60750  10.185   9.938   2.668
92357W        W60751  12.564  35.661  12.184
92358W        W60752  33.096  10.233  11.036
92359W        W60753  11.139  20.164   4.107
92360W        W60754  42.437  41.963  12.883
92361W        W60755   3.349   4.872   3.341
92362W        W60756  18.809  15.847  11.740
92363W        W60757  26.498  41.512   0.403
92364W        W60758   4.734  16.780   3.247
92365W        W60759   6.851  36.480   1.150
92366W        W60760  21.243  18.726   5.200
92367W        W60761  12.354  43.756   4.188
92368W        W60762  29.579  18.748   3.224
92369W        W60763  40.985  39.484  12.238
92370W        W60764  26.028   6.372   3.787
92371W        W60765  25.079  22.881  10.781
92372W        W60766  32.171  40.443   4.563
92373W        W60767  38.626  41.077   2.299
92374W        W60768  15.256  24.441  13.435
92375W        W60769   1.773  42.013   0.433
92376W        W60770  40.757  33.440  11.122
92377W        W60771  40.879  38.563  11.243
92378W        W60772  30.741  15.592   2.754
92379W        W60773  31.690  14.230   0.815
92380W        W60774  44.283  34.389   3.834
92381W        W60775   5.434  37.956  12.527
92382W        W60776  19.065  39.080  14.726
92383W        W60777   1.359  28.909  12.585
92384W        W60778  16.642   8.335   1.280
92385W        W60779  11.660  14.550   0.218
92386W        W60780  42.077   4.189   2.301
92387W        W60781   7.861  37.102   0.950
92388W        W60782  33.188  15.321  12.910
92389W        W60783  39.164  35.528  13.060
92390W        W60784   7.945  10.677  14.857
92391W        W60785  38.063  36.020   3.586
92392W        W60786   1.854  18.846   3.364
92393W        W60787  44.733   7.930   4.121
92394W        W60788  18.761   9.289   1.237
92395W        W60789  37.939  26.535   3.700
92396W        W60790  40.755  10.039  11.285
92397W        W60791  34.865  33.470   1.731
92398W        W60792   4.148  23.980  12.210
92399W        W60793  43.236   3.793  13.798
92400W        W60794  28.132  13.161  12.636
92401W        W60795  28.843  35.045   4.683
92402W        W60796  26.138  40.542  14.886
92403W        W60797  40.638  10.349  14.022
92404W        W60798  21.180  37.381   3.593
92405W        W60799  40.434  38.628   1.878
92406W        W60800  23.673  43.744   0.877
92407W        W60801  27.689  35.502  14.498
92408W        W60802  20.180  39.842   1.725
92409W        W60803  30.625   4.799   4.464
92410W        W60804  32.302   3.918  13.485
92411W        W60805  28.011  11.373  11.640
92412W        W60806  36.133  22.657   0.504
92413W        W60807  37.941   7.913   2.674
92414W        W60808   3.998   1.827  13.509
92415W        W60809  35.173   4.876   5.030
92416W        W60810  40.424  34.443   2.131
92417W        W60811   3.929  29.655   4.117
92418W        W60812  41.400  10.253  13.349
92419W        W60813  31.223   6.807  13.355
92420W        W60814  40.897  25.536  11.688
92421W        W60815  43.524  17.980   2.644
92422W        W60816  30.623  35.576   2.399
92423W        W60817  40.500  30.987   3.357
92424W        W60818  38.941  16.655   3.335
92425W        W60819   7.877  14.205   3.581
92426W        W60820  10.398   5.715   0.477
92427W        W60821  11.913  29.476  12.510
92428W        W60822  12.156  40.300   1.234
92429W        W60823   6.852  44.812   4.328
92430W        W60824   9.149  21.938   3.211
92431W        W60825  13.428   5.624  13.415
92432W        W60826  27.375  41.763   4.166
92433W        W60827  30.405  16.727   0.447
92434W        W60828  32.011  15.554  13.299
92435W        W60829  23.678  41.398  11.600
92436W        W60830  20.214  14.066  13.829
92437W        W60831   6.308  25.381  14.268
92438W        W60832   9.759  12.706  13.025
92439W        W60833  32.382   6.715   1.692
92440W        W60834  39.916  35.934   1.370
92441W        W60835  42.357  36.804  13.566
92442W        W60836  20.145  40.620   1.254
92443W        W60837  12.858  25.542   0.974
92444W        W60838  11.612  41.049  11.591
92445W        W60839   1.823  42.515   1.315
92446W        W60840   3.345  33.956   1.224
92447W        W60841   1.355  24.738   4.233
92448W        W60842  41.063  32.453  13.597
92449W        W60843  18.301  43.348  10.566
92450W        W60844   0.092  26.465   4.399
92451W        W60845  25.929  30.655   2.365
92452W        W60846  44.578   5.903   1.211
92453W        W60847  11.200  34.769  10.692
92454W        W60848  33.298  14.101   3.788
92455W        W60849   2.272   9.190   2.267
92456W        W60850  36.854   5.806   3.527
92457W        W60851  37.554  16.303  14.106
92458W        W60852   0.759  29.982   4.607
92459W        W60853  32.089  31.818   0.438
92460W        W60854  19.343   6.643  14.365
92461W        W60855  17.252  31.879  14.496
92462W        W60856  15.391  19.794   1.688
92463W        W60857  20.328  32.342  13.080
92464W        W60858  26.076  24.962  13.914
92465W        W60859  40.615  13.755   3.775
92466W        W60860  37.473  16.969   4.917
92467W        W60861  35.684  41.287   0.624
92468W        W60862  34.282   0.974   3.678
92469W        W60863  13.083  37.619   3.632
92470W        W60864   1.295  29.103   2.094
92471W        W60865  18.276  20.164   4.764
92472W        W60866   2.767   0.918   2.234
92473W        W60867  34.988  42.312   0.976
92474W        W60868  41.874  24.685  12.433
92475W        W60869  37.868  16.035  11.243
92476W        W60870  23.198  31.837  12.051
92477W        W60871  40.300  14.036  12.061
92478W        W60872  30.200  31.143  10.997
92479W        W60873  18.227  42.737  13.562
92480W        W60874  40.499   0.767  11.502
92481W        W60875  25.921  14.671   0.849
92482W        W60876  36.608   3.888   0.305
92483W        W60877  25.016  35.910  13.585
92484W        W60878  10.484  30.722   2.286
92485W        W60879   0.107  39.367   9.888
92486W        W60880  34.394  13.163  12.494
92487W        W60881  43.327  21.035   4.224
92488W        W60882   9.790  28.661   3.168
92489W        W60883  22.737  37.815   4.006
92490W        W60884  10.157  20.950   1.183
92491W        W60885  39.503  12.233   2.358
92492W        W60886  29.215   2.190  11.080
92493W        W60887  21.929  32.012  13.496
92494W        W60888  36.486  30.656  13.867
92495W        W60889   2.008  43.797  14.962
92496W        W60890   9.265  12.189   2.868
92497W        W60891  44.107  23.416  11.913
92498W        W60892  10.854  16.236   3.339
92499W        W60893  22.646   6.413  10.936
92500W        W60894   2.597  44.026   0.667
92501W        W60895  41.874  17.856  12.817
92502W        W60896  15.538  12.148   1.010
92503W        W60897  39.522  32.045  12.858
92504W        W60898  27.705  18.515   4.718
92505W        W60899   5.366  37.147   0.184
92506W        W60900  13.354  10.309  10.274
92507W        W60901  40.183  35.738  13.102
92508W        W60902   6.702  15.394   3.715
92509W        W60903   8.280  24.056  13.392
92510W        W60904  20.410  21.806   2.232
92511W        W60905  24.585  21.097  14.067
92512W        W60906  25.993  28.916   3.254
92513W        W60907   5.536  25.846  14.357
92514W        W60908   5.628   4.205   2.707
92515W        W60909  43.475  44.711   3.587
92516W        W60910  12.597  16.516  13.084
92517W        W60911   6.682  26.203   5.008
92518W        W60912  14.480  22.705   2.857
92519W        W60913  26.904  41.939   4.122
92520W        W60914   3.165  24.432   2.609
92521W        W60915  20.974  44.064  12.013
92522W        W60916   0.883  28.727  12.434
92523W        W60917  44.067  29.150  12.436
92524W        W60918  38.625  35.595  13.073
92525W        W60919   2.438  36.466   1.028
92526W        W60920  23.192  20.507   2.640
92527W        W60921  42.690  15.080  10.632
92528W        W60922   0.734  44.561  13.537
92529W        W60923  34.963  26.504  13.629
92530W        W60924   8.787  44.356   3.204
92531W        W60925   6.784  32.647   1.727
92532W        W60926  42.956  26.982   0.787
92533W        W60927  41.435  15.061   0.823
92534W        W60928  35.962  18.098   4.778
92535W        W60929  21.179  29.232  14.479
92536W        W60930  21.450  31.421   4.285
92537W        W60931  16.138  23.501   0.945
92538W        W60932  36.441  23.066  12.937
92539W        W60933  30.731  22.221  12.988
92540W        W60934  22.470  32.982   2.651
92541W        W60935  43.697  36.402   3.203
92542W        W60936  38.901  15.898   2.160
92543W        W60937  24.091   8.795   0.454
92544W        W60938   0.768  10.746   3.302
92545W        W60939  23.598   1.479  13.459
92546W        W60940  13.845  34.563   2.178
92547W        W60941  28.541  33.993  11.720
92548W        W60942  32.487  25.206   5.314
92549W        W60943   7.009  24.711  11.540
92550W        W60944  34.328  43.305  10.740
92551W        W60945  22.801  31.163   3.749
92552W        W60946  27.405   4.756  11.105
92553W        W60947   3.371  20.564   3.169
92554W        W60948   8.403  40.053  11.050
92555W        W60949  44.371  30.520  11.503
92556W        W60950  25.980   6.105  12.425
92557W        W60951  21.116  42.942   0.615
92558W        W60952  13.634  31.629  13.976
92559W        W60953   3.177  40.952  13.622
92560W        W60954  11.038  36.852   4.079
92561W        W60955  15.734  10.254  12.876
92562W        W60956  19.742  22.954   2.802
92563W        W60957  12.991   8.377   3.658
92564W        W60958  13.576  37.325  14.434
92565W        W60959  24.868  29.605  10.711
92566W        W60960  32.270  16.939   3.832
92567W        W60961  12.392  13.228  14.798
92568W        W60962  36.255  36.328   2.008
92569W        W60963   7.768  29.468   0.303
92570W        W60964  13.667  10.238   3.105
92571W        W60965  44.572  33.399   5.271
92572W        W60966   0.517  37.887  10.374
92573W        W60967  17.654  28.760   2.981
92574W        W60968  26.396  22.550   5.042
92575W        W60969  12.644  41.017  11.563
92576W        W60970   3.849  21.790   0.362
92577W        W60971  14.732  21.560   1.343
92578W        W60972  11.455   9.937   4.485
92579W        W60973  44.155  28.860  11.442
92580W        W60974  18.525  38.523  12.041
92581W        W60975  29.169  12.046   0.540
92582W        W60976   9.455  39.782  13.802
92583W        W60977  26.416  37.056  13.955
92584W        W60978  20.651  31.583   1.741
92585W        W60979  20.247   0.342  12.047
92586W        W60980   4.863   3.931   1.720
92587W        W60981  14.669  37.281   2.626
92588W        W60982  30.475  33.166   2.319
92589W        W60983  44.015  19.089  13.984
92590W        W60984  40.964  16.041   1.371
92591W        W60985   7.385  15.233   3.308
92592W        W60986  15.444  33.092   4.332
92593W        W60987  24.963  31.066   0.806
92594W        W60988  37.867   6.675  12.956
92595W        W60989  37.334  19.366  11.207
92596W        W60990   3.676  43.213   1.403
92597W        W60991  33.595  44.289   2.347
92598W        W60992  13.174  23.946   4.650
92599W        W60993  23.730   7.133   2.372
92600W        W60994  36.150  40.395  13.086
92601W        W60995  29.553  31.873  11.159
92602W        W60996  42.811   5.894  10.942
92603W        W60997  12.749  33.940  11.844
92604W        W60998  33.083  17.308  10.738
92605W        W60999  32.843  15.540   3.917
92606W        W61000  18.516  42.556   1.362
92607W        W61001  13.215  37.597   2.696
92608W        W61002  42.037  23.975  12.984
92609W        W61003   6.893   3.629   0.501
92610W        W61004   8.573  35.996  14.995
92611W        W61005  39.087  25.846   2.461
92612W        W61006  40.977  36.379   2.074
92613W        W61007  18.650  21.843   4.113
92614W        W61008  29.673  31.170   0.710
92615W        W61009  44.360  20.917   1.291
92616W        W61010  42.906  44.818   4.373
92617W        W61011  43.289  42.475   4.536
92618W        W61012  26.936  26.619   4.983
92619W        W61013  39.524  33.620   0.864
92620W        W61014  18.758   0.358  10.329
92621W        W61015   2.744   8.685   4.157
92622W        W61016  43.411  35.647   4.540
92623W        W61017   7.743  28.668  12.516
92624W        W61018  35.368  23.959  14.927
92625W        W61019  43.235  21.606   3.717
92626W        W61020  30.461   0.889  12.535
92627W        W61021  37.300  13.789   1.338
92628W        W61022  39.227  26.998  12.849
92629W        W61023  43.660  26.012   2.035
92630W        W61024  44.205  11.847   4.610
92631W        W61025  27.660   5.671  12.126
92632W        W61026  14.964  28.653   3.821
92633W        W61027   0.579  39.098  10.662
92634W        W61028  32.775   0.240  11.217
92635W        W61029  37.451   5.985   3.317
92636W        W61030  37.292   6.183  14.292
92637W        W61031  28.363  20.525   0.026
92638W        W61032   8.209  12.253  11.272
92639W        W61033   2.943  10.371   3.101
92640W        W61034   2.564  29.431   4.618
92641W        W61035   0.387  38.107   1.713
92642W        W61036  31.851   9.107  12.545
92643W        W61037  36.514  35.455   2.808
92644W        W61038  34.540  34.624   0.825
92645W        W61039  34.548  32.908   4.099
92646W        W61040  16.067  39.845   5.024
92647W        W61041   6.584  14.574  14.932
92648W        W61042   8.815   9.084   1.721
92649W        W61043   2.148  13.661   2.245
92650W        W61044  12.655   1.828   0.906
92651W        W61045   2.066  32.664   0.949
92652W        W61046  23.040  33.873   0.532
92653W        W61047  42.983  38.422   0.445
92654W        W61048  37.996  15.340  13.058
92655W        W61049  10.296  19.892  12.823
92656W        W61050  29.367  28.130  12.490
92657W        W61051  31.520  37.688  14.519
92658W        W61052  30.946  22.578   0.004
92659W        W61053  41.951  19.309  14.438
92660W        W61054  13.728  24.115   4.010
92661W        W61055  11.726   4.021   2.989
92662W        W61056  26.706   2.828   4.285
92663W        W61057  29.163  33.077   3.666
92664W        W61058   0.832  36.066  11.627
92665W        W61059  18.826   1.415   1.197
92666W        W61060  10.215  37.029   4.048
92667W        W61061   9.804  31.042   3.671
92668W        W61062  11.857  33.685  14.826
92669W        W61063  42.969   9.226   0.455
92670W        W61064   5.761  38.909   4.694
92671W        W61065  34.813  44.255  14.311
92672W        W61066  35.468  26.266   2.421
92673W        W61067  10.662  34.706   0.760
92674W        W61068  35.482  17.043   4.383
92675W        W61069  39.833  24.471   4.803
92676W        W61070  39.986  37.461   4.593
92677W        W61071   7.063  11.377   0.468
92678W        W61072  41.268   9.699   1.341
92679W        W61073  21.607   3.367   0.478
92680W        W61074   0.830  24.054   1.759
92681W        W61075  24.084   3.042  14.856
92682W        W61076  28.579  38.311   4.260
92683W        W61077  15.373  19.773  13.651
92684W        W61078  26.726  32.934  13.676
92685W        W61079  10.184  14.905   4.535
92686W        W61080  10.583  40.451   2.680
92687W        W61081  38.540  25.277   4.422
92688W        W61082  41.621  44.044  10.729
92689W        W61083  13.787  37.175  12.598
92690W        W61084  42.538  21.641  11.193
92691W        W61085  34.041  16.220  14.884
92692W        W61086  43.426  31.018   2.366
92693W        W61087  41.337   7.314   4.751
92694W        W61088  37.470  19.055   4.498
92695W        W61089  27.950  13.243  13.855
92696W        W61090  22.772   6.959  10.085
92697W        W61091   2.595  26.125   1.867
92698W        W61092   5.727  19.789   1.059
92699W        W61093  27.867   5.798  13.386
92700W        W61094  30.067  19.645   1.666
92701W        W61095  24.627   6.262  13.116
92702W        W61096  10.068  17.084  10.626
92703W        W61097   4.987  24.627   1.355
92704W        W61098   2.632  34.119   2.224
92705W        W61099  22.594  26.102   3.366
92706W        W61100   2.483  19.001   4.189
92707W        W61101   2.841  38.303   0.859
92708W        W61102  24.024  24.139   1.354
92709W        W61103  30.717  14.763   2.741
92710W        W61104  11.607  13.324  14.856
92711W        W61105  30.960  24.303   1.848
92712W        W61106   1.715  12.884  10.125
92713W        W61107   8.412  40.480   0.444
92714W        W61108  15.162   2.728   2.696
92715W        W61109  42.508  22.235   2.783
92716W        W61110  23.100  30.194   0.357
92717W        W61111   6.734   3.163  11.147
92718W        W61112  16.553   1.716   3.688
92719W        W61113  15.753  36.895  11.945
92720W        W61114  39.452  13.225   4.509
92721W        W61115  23.387  11.352  11.147
92722W        W61116   3.826  38.323   1.352
92723W        W61117   7.099  17.978   0.494
92724W        W61118  36.091   1.218  10.766
92725W        W61119  39.081   6.260  11.710
92726W        W61120  41.087  16.640   0.376
92727W        W61121  10.651  35.425  12.134
92728W        W61122  29.956   0.877  10.626
92729W        W61123   4.420   3.801   1.902
92730W        W61124  17.237   9.761  14.317
92731W        W61125   6.393  20.257   0.980
92732W        W61126   3.104   2.381  10.783
92733W        W61127   0.510  36.901   2.120
92734W        W61128  11.460  32.067   0.868
92735W        W61129  30.161  12.957  10.750
92736W        W61130  10.170   6.761  11.956
92737W        W61131  10.710  26.299   9.989
92738W        W61132  23.537  35.481  14.040
92739W        W61133  12.985   7.659  13.203
92740W        W61134  14.300   2.290   1.001
92741W        W61135  21.595  15.798   3.296
92742W        W61136   2.061  23.025  13.270
92743W        W61137  34.447  42.442  11.598
92744W        W61138   6.237  44.781  13.474
92745W        W61139  31.111  25.939   3.017
92746W        W61140   4.506   7.112  12.202
92747W        W61141  33.240   1.389  14.330
92748W        W61142  29.978  39.488   0.936
92749W        W61143   6.639  35.725  13.128
92750W        W61144  36.997   0.807   0.864
92751W        W61145  38.074  41.420   4.529
92752W        W61146  10.097   3.552  14.330
92753W        W61147  31.927  40.256   0.438
92754W        W61148  17.946   7.967  14.745
92755W        W61149  33.875  24.227  13.610
92756W        W61150  43.718  20.146  11.629
92757W        W61151   7.833   3.343   2.802
92758W        W61152  20.491  37.744   4.129
92759W        W61153  18.338  20.592  10.683
92760W        W61154  24.962  27.173   1.523
92761W        W61155  44.169  17.841  11.149
92762W        W61156  25.077  18.392   4.109
92763W        W61157  14.696   8.728   3.303
92764W        W61158  27.791  25.088  11.515
92765W        W61159  44.813  16.520   2.228
92766W        W61160  23.176  10.714   1.927
92767W        W61161  12.468  18.591   2.371
92768W        W61162  23.580  34.000  12.440
92769W        W61163  19.216  19.857  13.501
92770W        W61164   8.277  15.571   4.628
92771W        W61165  40.750  41.705   3.715
92772W        W61166  27.441  25.514  11.601
92773W        W61167  28.195  36.584   1.670
92774W        W61168  39.559  37.003   2.852
92775W        W61169   5.218  41.949  12.175
92776W        W61170  15.798  11.567  12.438
92777W        W61171   9.717  36.086   2.387
92778W        W61172  44.957  37.069   2.972
92779W        W61173   1.842  14.341  13.237
92780W        W61174  30.447  13.359  10.906
92781W        W61175  10.889  19.727   0.283
92782W        W61176  24.064   1.036  14.941
92783W        W61177  22.025  43.278  12.692
92784W        W61178  42.514  18.868   0.371
92785W        W61179  12.015  21.903  12.374
92786W        W61180  38.862  20.832   9.869
92787W        W61181  41.526  25.937  13.830
92788W        W61182  44.926   1.507  10.486
92789W        W61183   4.478  36.546  14.457
92790W        W61184  13.233  41.558   0.796
92791W        W61185  43.831  33.673   1.454
92792W        W61186  15.471  36.909  10.203
92793W        W61187   0.744  22.525  14.773
92794W        W61188  15.054   8.626   1.887
92795W        W61189  35.009  34.513  14.374
92796W        W61190  36.810   5.212  14.991
92797W        W61191   8.606  17.695   2.664
92798W        W61192  34.527  41.067  14.695
92799W        W61193  32.016  29.376   0.140
92800W        W61194   4.304  11.797  10.700
92801W        W61195  41.836  17.846   1.846
92802W        W61196  21.603  35.879   0.107
92803W        W61197  43.235   9.793  10.550
92804W        W61198   1.939  10.122   2.687
92805W        W61199   9.793  40.522   2.413
92806W        W61200  38.895  37.719   0.445
92807W        W61201  20.249  39.301   0.912
92808W        W61202  35.124  16.527   2.300
92809W        W61203   9.482  27.879   1.516
92810W        W61204  12.337  22.407  12.445
92811W        W61205  38.102  23.138  13.840
92812W        W61206  29.963  12.951   2.335
92813W        W61207  41.952   7.199  14.022
92814W        W61208  14.612   8.413   4.561
92815W        W61209  23.592  38.567  12.860
92816W        W61210  15.803  31.630   2.443
92817W        W61211  44.091   8.869   3.302
92818W        W61212  15.069   8.570  14.027
92819W        W61213  19.863   5.205  14.119
92820W        W61214  18.422  44.386   0.756
92821W        W61215  17.753  29.874  13.596
92822W        W61216  27.232  41.660   5.522
92823W        W61217  20.741  14.711  11.007
92824W        W61218  29.482  29.569   3.222
92825W        W61219  41.767  37.542   3.066
92826W        W61220  21.319  36.152  13.467
92827W        W61221  20.810  17.258  13.829
92828W        W61222  20.086  33.995  14.749
92829W        W61223   3.191  15.793  13.535
92830W        W61224  20.615  16.688  12.496
92831W        W61225  30.725  11.572  12.421
92832W        W61226   9.258  32.837  11.932
92833W        W61227   9.828  23.703   3.657
92834W        W61228  43.275  12.371  13.097
92835W        W61229  23.363   9.729   2.733
92836W        W61230   9.369  33.023  12.391
92837W        W61231  36.128  32.915   1.397
92838W        W61232  23.121  40.512  10.783
92839W        W61233  23.001  14.872   2.893
92840W        W61234  22.168  13.881  14.895
92841W        W61235  25.244  38.223  11.067
92842W        W61236  25.942  33.422  13.389
92843W        W61237  29.060  33.996  13.452
92844W        W61238  11.488  18.600   1.457
92845W        W61239  30.389  18.187   1.293
92846W        W61240  43.893  16.447   2.222
92847W        W61241   2.917  12.510   3.249
92848W        W61242  33.794   0.387   1.142
92849W        W61243  11.542   3.478   0.636
92850W        W61244  22.277   1.760  12.944
92851W        W61245  34.000  31.808  10.465
92852W        W61246  18.080  25.379   2.196
92853W        W61247  25.067  24.240   3.883
92854W        W61248  14.361  16.551   0.009
92855W        W61249  13.694  32.981   4.817
92856W        W61250  29.738   0.424  13.038
92857W        W61251  12.089  26.068  13.649
92858W        W61252  31.528  27.515   1.502
92859W        W61253  35.986  38.362  11.277
92860W        W61254   6.905  24.229  11.670
92861W        W61255  16.174  27.071   0.406
92862W        W61256   7.133  32.580  14.476
92863W        W61257  10.366  36.072  14.085
92864W        W61258  27.922  18.580   0.568
92865W        W61259  43.385  25.269  12.044
92866W        W61260  39.045  31.057  10.704
92867W        W61261  14.334  18.032   2.128
92868W        W61262  22.164  20.250  10.726
92869W        W61263  25.429   2.690  13.403
92870W        W61264  23.919  37.995   0.366
92871W        W61265  16.737   6.233  12.524
92872W        W61266  17.696  38.089   0.850
92873W        W61267  14.124  13.852  11.477
92874W        W61268  29.170   9.632   4.095
92875W        W61269   1.389  28.441   2.700
92876W        W61270   8.419  30.189   0.006
92877W        W61271  24.566  19.774  12.505
92878W        W61272  30.243  17.584   4.127
92879W        W61273   5.336   3.439  14.012
92880W        W61274   0.336  38.918   3.418
92881W        W61275  33.409   7.372   3.062
92882W        W61276  30.104  40.724  13.491
92883W        W61277  13.356  26.979  10.657
92884W        W61278   9.272  41.346  10.686
92885W        W61279  21.563  44.477   3.214
92886W        W61280  44.886  14.455   3.869
92887W        W61281  10.189  29.027  10.787
92888W        W61282  39.990  24.832  12.491
92889W        W61283  34.060  35.460   0.821
92890W        W61284  24.997  44.813  12.491
92891W        W61285  42.627  12.180   4.540
92892W        W61286   8.293  33.436  13.826
92893W        W61287  27.517  42.671  14.781
92894W        W61288   2.920   6.771  12.327
92895W        W61289   9.575  40.007   4.117
92896W        W61290  34.035   4.901  14.961
92897W        W61291  32.375   5.181   2.641
92898W        W61292  19.748  27.512  14.787
92899W        W61293  41.786  17.357   4.124
92900W        W61294   3.037  27.150  14.691
92901W        W61295  19.093  35.200  12.004
92902W        W61296  26.015  21.520   2.603
92903W        W61297   9.380  12.819  13.390
92904W        W61298  27.497   9.177   4.376
92905W        W61299  39.071   5.866   2.734
92906W        W61300   4.152   3.151   5.021
92907W        W61301  16.306  11.711   1.844
92908W        W61302  13.685  11.414  13.472
92909W        W61303   4.300   1.825  13.078
92910W        W61304  16.705  39.725   1.229
92911W        W61305  42.343  38.510   2.918
92912W        W61306  22.863  31.259   0.682
92913W        W61307  10.862  17.405  14.061
92914W        W61308  20.902  34.922  12.876
92915W        W61309  26.439  33.887  12.340
92916W        W61310   1.167  18.644   0.855
92917W        W61311  28.436  19.047   3.704
92918W        W61312  28.652  28.520  14.403
92919W        W61313  23.658  21.174   3.028
92920W        W61314  28.908  25.406  11.122
92921W        W61315  21.030  33.817  10.612
92922W        W61316  26.758  34.165  11.995
92923W        W61317  15.719  25.913   3.180
92924W        W61318  37.115  39.023  10.766
92925W        W61319  25.527  20.001  12.526
92926W        W61320  40.931  13.660  14.028
92927W        W61321  14.820   7.893   3.862
92928W        W61322  44.441   8.440   3.234
92929W        W61323  31.306  42.397  12.438
92930W        W61324  36.051   3.874   2.033
92931W        W61325  30.667  27.061  12.902
92932W        W61326  39.086  40.649   4.898
92933W        W61327  16.576  12.828  13.488
92934W        W61328  35.045  43.384   4.507
92935W        W61329  38.810  36.056  10.525
92936W        W61330  39.288  12.387  11.315
92937W        W61331  15.029  38.308   9.774
92938W        W61332   6.732  26.556   5.432
92939W        W61333  37.662   3.246  14.607
92940W        W61334   0.194   7.917  13.098
92941W        W61335  37.826  34.889  11.991
92942W        W61336  14.596  35.261   1.749
92943W        W61337  31.229  33.393  11.198
92944W        W61338   7.641   3.693  12.270
92945W        W61339  28.407   3.667   4.587
92946W        W61340   2.799   7.766   4.269
92947W        W61341  43.126   6.442  10.243
92948W        W61342  34.509  21.286  10.446
92949W        W61343  28.161  38.450  12.613
92950W        W61344  25.031  24.133  12.113
92951W        W61345  15.673  37.293   4.194
92952W        W61346  35.552   3.409  10.561
92953W        W61347   7.596  40.950   2.251
92954W        W61348  12.194  17.796  12.727
92955W        W61349   1.784   4.739   3.904
92956W        W61350  34.017  32.057   3.888
92957W        W61351  13.532  30.125   1.328
92958W        W61352  44.846  22.099  14.303
92959W        W61353  33.678  33.453   3.732
92960W        W61354  33.024   5.301  12.073
92961W        W61355   4.341   3.011   1.441
92962W        W61356  32.731  16.815   4.334
92963W        W61357  29.639  11.113  10.571
92964W        W61358  15.530   6.719  11.671
92965W        W61359  29.454   0.245   4.011
92966W        W61360  12.219  37.886   4.332
92967W        W61361  14.876   9.222  14.779
92968W        W61362  18.068   0.431  13.801
92969W        W61363  10.683   8.348  14.778
92970W        W61364  36.122   0.512   2.742
92971W        W61365  39.934  43.393  13.976
92972W        W61366  21.629  35.449   4.696
92973W        W61367   3.314  11.629  13.437
92974W        W61368  40.201  25.903  13.512
92975W        W61369  38.811  44.500   0.283
92976W        W61370  23.432  12.315  11.471
92977W        W61371  35.064  36.811  13.870
92978W        W61372  20.309  42.430  12.132
92979W        W61373  27.915  31.905   0.329
92980W        W61374  27.596   7.809  12.890
92981W        W61375  43.487   5.652  13.642
92982W        W61376   5.482  42.952  11.151
92983W        W61377  31.609  35.967   0.511
92984W        W61378  39.370  41.220   2.737
92985W        W61379  44.531  24.674  13.570
92986W        W61380  40.511  15.446   0.740
92987W        W61381   7.127  33.937   2.974
92988W        W61382   9.670  35.955  13.376
92989W        W61383  17.833   9.901   0.557
92990W        W61384  33.153  34.082   4.142
92991W        W61385  12.579  14.367   1.727
92992W        W61386   0.534  20.649   3.631
92993W        W61387   0.858  30.868   0.097
92994W        W61388   7.433  39.563  10.697
92995W        W61389  26.604  40.055  12.019
92996W        W61390  17.982  39.976  12.406
92997W        W61391  31.585  14.625  12.485
92998W        W61392  33.445  12.293  11.167
92999W        W61393  20.224  17.111  14.501
93000W        W61394  33.668  28.663   2.549
93001W        W61395  18.933  37.722   5.002
93002W        W61396   7.477   2.265   1.760
93003W        W61397  20.630   7.324   0.389
93004W        W61398  30.540  28.239   4.664
93005W        W61399   9.547  27.571   0.238
93006W        W61400  17.504  35.070  12.980
93007W        W61401   6.307  31.505   3.066
93008W        W61402  33.161  38.041  13.504
93009W        W61403  19.339   7.448  13.584
93010W        W61404  11.325  20.001   0.296
93011W        W61405  43.317   6.330  11.498
93012W        W61406  35.169  12.558   3.853
93013W        W61407  15.269   9.508   9.996
93014W        W61408  10.720  39.856   0.718
93015W        W61409  31.636  28.628  11.596
93016W        W61410  25.711   5.921  12.872
93017W        W61411  27.130  23.004   0.028
93018W        W61412  10.805  40.939  13.556
93019W        W61413  39.404   8.089   3.413
93020W        W61414  11.909   3.611  14.943
93021W        W61415  44.003  20.695  12.453
93022W        W61416   2.310  22.805  12.873
93023W        W61417  18.385  13.843   5.095
93024W        W61418  10.581  16.566   3.075
93025W        W61419   6.183   5.868  14.726
93026W        W61420  34.496  40.872   2.752
93027W        W61421   4.853  35.608  12.247
93028W        W61422  21.212  43.055  12.100
93029W        W61423  44.789  38.977  10.176
93030W        W61424  20.642  18.246  11.648
93031W        W61425   0.183  28.993  11.581
93032W        W61426  44.908  17.248   2.863
93033W        W61427  25.544  16.666  14.724
93034W        W61428   7.165   3.965   2.531
93035W        W61429  27.523  21.120   3.693
93036W        W61430  16.039  39.374  13.526
93037W        W61431  16.032   4.164  12.439
93038W        W61432  34.401  39.330  11.029
93039W        W61433  31.832  14.187  12.455
93040W        W61434  17.094  34.092  11.980
93041W        W61435   4.749  22.058  13.973
93042W        W61436  35.950  15.585  11.640
93043W        W61437  23.378  26.181  13.300
93044W        W61438   5.595  27.665  14.085
93045W        W61439  15.251   6.829  14.446
93046W        W61440  32.175  39.554  13.393
93047W        W61441  26.095   0.080  11.264
93048W        W61442  30.725  25.990   2.052
93049W        W61443  26.471   4.663  14.902
93050W        W61444  23.272  22.856   3.633
93051W        W61445  26.048   8.214  11.230
93052W        W61446  13.879   6.746   2.886
93053W        W61447  44.907  30.171   1.246
93054W        W61448  11.239  13.987   1.421
93055W        W61449  18.523   0.230  13.778
93056W        W61450   7.584  30.015  13.532
93057W        W61451   9.350  14.482  11.665
93058W        W61452  19.082  25.944   4.965
93059W        W61453  19.393  29.548  11.788
93060W        W61454  43.314  14.739  12.783
93061W        W61455   1.278  30.447  11.939
93062W        W61456   7.242   1.694  13.788
93063W        W61457  33.951  34.359  14.119
93064W        W61458  17.032  40.817   3.263
93065W        W61459   8.286  15.752  10.490
93066W        W61460  28.078  11.661   4.103
93067W        W61461  12.555  44.063   0.722
93068W        W61462  35.301  24.506  12.018
93069W        W61463  27.000  10.030   4.091
93070W        W61464   0.515  24.525  11.529
93071W        W61465  19.509  13.784   2.655
93072W        W61466  42.058  23.013   3.094
93073W        W61467  36.565  18.152  10.072
93074W        W61468   9.231  27.014  10.523
93075W        W61469  23.612   0.358  12.442
93076W        W61470  15.361  31.460   2.669
93077W        W61471  34.228   4.465   4.526
93078W        W61472  37.507   7.301   2.481
93079W        W61473  10.158  14.847   5.046
93080W        W61474   6.077  36.263  13.795
93081W        W61475  40.308  40.924  14.925
93082W        W61476  16.179  17.570   4.024
93083W        W61477  44.274  42.521   2.266
93084W        W61478  16.112  29.179  13.299
93085W        W61479  17.110   0.416  12.968
93086W        W61480  28.550  41.963  11.138
93087W        W61481  10.310  42.117   2.384
93088W        W61482  36.814  38.895   0.405
93089W        W61483  15.541  16.531   3.064
93090W        W61484  12.284  39.305   1.272
93091W        W61485  42.451  17.652   1.731
93092W        W61486  33.341  24.525  14.605
93093W        W61487  30.572  32.350  13.419
93094W        W61488  32.992  40.753  11.681
93095W        W61489  41.595  27.743  14.602
93096W        W61490  15.217  14.495   1.114
93097W        W61491  18.727  13.014   3.200
93098W        W61492  26.471   5.413   3.629
93099W        W61493  17.618  20.778   2.276
93100W        W61494   3.843  18.670   0.451
93101W        W61495  35.795  12.135   4.596
93102W        W61496  24.775  41.805   1.974
93103W        W61497   2.316  23.590   4.805
93104W        W61498  25.522  32.131  10.148
93105W        W61499  35.382  12.701   3.387
93106W        W61500  33.541  33.567  10.480
93107W        W61501   0.214  44.251  11.015
93108W        W61502  31.191   4.669   2.176
93109W        W61503  34.151  32.916   0.321
93110W        W61504  25.033  43.771  12.426
93111W        W61505  16.865  38.009   1.178
93112W        W61506   1.909  24.283   2.262
93113W        W61507  28.040   1.118   0.404
93114W        W61508  28.970  33.492  13.536
93115W        W61509   5.159  21.021  13.408
93116W        W61510  36.359  41.840  14.680
93117W        W61511  34.149  41.587   2.378
93118W        W61512  15.053  39.555   5.061
93119W        W61513  39.750  44.278   3.602
93120W        W61514  17.700  32.154   2.648
93121W        W61515  40.614  18.895  12.094
93122W        W61516  12.183  42.504   1.116
93123W        W61517  16.547  41.967  11.306
93124W        W61518  37.505  22.501  13.415
93125W        W61519  18.066  31.267   2.328
93126W        W61520  32.391   3.853  14.586
93127W        W61521  20.563  32.312  13.531
93128W        W61522  30.042  15.373   1.734
93129W        W61523   8.565  23.552   2.088
93130W        W61524  36.606  24.947   4.620
93131W        W61525  30.550  25.968  11.900
93132W        W61526  44.840  14.017   4.745
93133W        W61527  17.267  18.878   2.894
93134W        W61528   0.706  22.090   2.587
93135W        W61529   7.904  41.142  11.507
93136W        W61530  38.484   3.499   0.719
93137W        W61531   3.880  39.336   1.481
93138W        W61532  38.647  12.092   2.493
93139W        W61533  27.651  25.051  13.903
93140W        W61534  10.277  38.784  13.456
93141W        W61535   2.959  41.619  11.017
93142W        W61536  32.567   7.740  11.986
93143W        W61537  30.944  23.790   1.743
93144W        W61538  23.648  23.968  13.214
93145W        W61539  15.324  33.066   1.359
93146W        W61540  20.478   0.248  10.777
93147W        W61541   5.685  29.258  14.838
93148W        W61542  30.242  41.775  12.421
93149W        W61543  30.674   5.600  14.721
93150W        W61544  12.364  23.227   2.961
93151W        W61545  14.151  32.643   1.635
93152W        W61546  39.052  15.129   0.573
93153W        W61547  17.304   0.824  12.517
93154W        W61548   3.373  14.837   2.353
93155W        W61549  20.124  37.791   1.881
93156W        W61550  36.089  37.923  10.515
93157W        W61551  10.250  28.504  10.827
93158W        W61552  32.169  22.087   3.318
93159W        W61553  14.509  41.801   2.680
93160W        W61554  11.155  31.146   3.842
93161W        W61555  14.070  30.057  11.396
93162W        W61556  20.080  40.770  14.823
93163W        W61557  10.314   7.087   1.774
93164W        W61558  10.009  40.914   1.821
93165W        W61559  12.133  40.640   2.197
93166W        W61560  43.823  21.008  14.638
93167W        W61561   0.079  16.676   1.793
93168W        W61562   3.309  16.321  12.394
93169W        W61563  27.491  10.177   0.300
93170W        W61564  19.931  16.521  12.695
93171W        W61565  28.814  19.713  14.852
93172W        W61566  21.767  41.938   2.911
93173W        W61567  35.472  14.073   1.626
93174W        W61568  20.245  27.742  12.608
93175W        W61569  15.039  23.757  14.655
93176W        W61570  28.966  17.519   3.564
93177W        W61571  25.989  20.266  12.480
93178W        W61572  25.567   7.582   4.897
93179W        W61573  44.186  15.529   2.737
93180W        W61574  37.007  32.204  12.863
93181W        W61575   4.955  14.915  14.760
93182W        W61576  40.353   5.696   2.341
93183W        W61577  23.551  23.060   0.199
93184W        W61578  44.045  20.690   4.693
93185W        W61579  41.217  32.738  12.782
93186W        W61580   3.783  39.815  10.639
93187W        W61581   8.895   3.189  10.182
93188W        W61582  22.115  14.574   4.163
93189W        W61583  36.511  33.645  12.157
93190W        W61584  13.293   8.267  12.048
93191W        W61585  39.246   2.887   1.801
93192W        W61586  22.550  29.909   2.460
93193W        W61587  17.023  10.938   1.205
93194W        W61588   1.949  40.136  11.936
93195W        W61589  14.702  32.651  13.404
93196W        W61590  18.799  24.306   1.482
93197W        W61591   7.695  11.958   1.790
93198W        W61592  22.466  26.509  10.603
93199W        W61593  15.628  39.026  10.885
93200W        W61594  23.963  12.643  11.647
93201W        W61595  21.514  29.474  10.263
93202W        W61596   7.556  25.297   3.733
93203W        W61597  41.064  19.537  14.874
93204W        W61598  31.012  43.248   2.389
93205W        W61599  39.290  11.608   1.873
93206W        W61600  33.547  42.867  12.588
93207W        W61601  13.389  42.514  13.396
93208W        W61602  36.656  35.152   2.421
93209W        W61603  20.834  32.091  10.751
93210W        W61604   8.169  38.157   1.280
93211W        W61605  34.620  42.370   2.331
93212W        W61606  28.434  25.487   3.261
93213W        W61607  11.222  35.669  13.530
93214W        W61608   6.341   1.702   9.806
93215W        W61609  23.124   5.925  10.725
93216W        W61610  24.326  35.933  10.879
93217W        W61611  42.446   3.505  10.991
93218W        W61612  32.318   1.905  12.137
93219W        W61613  25.136  35.158  11.615
93220W        W61614  13.201  23.563  13.805
93221W        W61615  24.596   3.478   0.993
93222W        W61616   4.381  13.871  14.043
93223W        W61617  15.617  18.232   2.777
93224W        W61618  40.091   7.470  13.355
93225W        W61619  13.749  15.410   3.629
93226W        W61620  35.569  24.453   1.731
93227W        W61621  29.017  31.974  11.122
93228W        W61622   1.793   0.964  13.560
93229W        W61623  30.779  26.286  11.543
93230W        W61624   6.915  11.541   4.254
93231W        W61625  36.637  13.900  13.875
93232W        W61626  41.539  40.946   4.269
93233W        W61627  38.305  43.139   1.017
93234W        W61628   8.538  33.879   4.638
93235W        W61629  20.059  28.086   1.832
93236W        W61630   0.575  33.534  12.345
93237W        W61631  25.481  23.918  13.489
93238W        W61632   7.707  36.515  13.060
93239W        W61633   9.350   3.426   1.909
93240W        W61634  37.306  11.703  13.889
93241W        W61635   7.299  22.905   4.923
93242W        W61636  18.944  18.857   1.607
93243W        W61637   0.056  19.636  13.400
93244W        W61638  20.735   9.604  12.104
93245W        W61639  38.854  31.501  11.271
93246W        W61640  32.533  39.536   4.010
93247W        W61641  30.078  37.989  14.570
93248W        W61642  13.005  26.626  11.539
93249W        W61643  40.271  13.259   0.464
93250W        W61644  13.239  16.690   1.550
93251W        W61645  34.477   4.705   1.870
93252W        W61646  16.046   3.606   3.361
93253W        W61647  12.323  33.958   4.153
93254W        W61648  31.046  28.107   3.845
93255W        W61649   5.978   7.800  12.405
93256W        W61650   2.894  20.350   3.142
93257W        W61651  13.372   4.017  14.045
93258W        W61652  36.597  37.669   1.398
93259W        W61653   3.617  10.968  12.542
93260W        W61654  15.381  11.427  13.370
93261W        W61655   5.350  12.162   0.959
93262W        W61656  33.645  20.158   0.007
93263W        W61657   6.647  23.022  13.823
93264W        W61658  27.192   4.262  13.106
93265W        W61659  33.428  30.655   2.401
93266W        W61660  37.965   0.313   1.986
93267W        W61661  27.470   3.778   1.459
93268W        W61662  35.172   3.959  13.428
93269W        W61663   4.362  12.599   9.987
93270W        W61664  18.508  44.441  13.012
93271W        W61665  10.124   5.071   1.107
93272W        W61666  33.647  22.319   4.238
93273W        W61667   3.484  37.975   0.735
93274W        W61668  39.905   3.225  12.095
93275W        W61669  34.360  16.243  13.494
93276W        W61670  33.501  23.212   1.391
93277W        W61671  24.649  28.480   4.347
93278W        W61672  28.238  14.171  12.857
93279W        W61673  11.184  44.367   4.751
93280W        W61674  23.050   2.456   1.920
93281W        W61675  34.905  15.027  10.557
93282W        W61676  40.987  12.356  12.347
93283W        W61677  42.303  33.639   2.601
93284W        W61678  30.374  16.294  13.038
93285W        W61679  34.903   4.242  13.784
93286W        W61680   4.880  31.324  12.642
93287W        W61681  42.902  26.567   0.010
93288W        W61682   0.862  43.437  12.453
93289W        W61683  30.630  15.843  11.961
93290W        W61684  20.964  33.356   0.439
93291W        W61685  41.347  12.068   1.319
93292W        W61686  35.691   5.440  13.344
93293W        W61687  40.561   2.461  12.016
93294W        W61688  22.635  17.670   4.714
93295W        W61689  44.573  19.746   0.803
93296W        W61690  25.995  10.725   0.351
93297W        W61691   6.910  13.080   4.162
93298W        W61692   2.027   9.163  14.259
93299W        W61693  18.350  12.605  13.870
93300W        W61694  27.427  37.091   2.664
93301W        W61695  25.191  20.799  10.749
93302W        W61696   4.945   2.666  13.841
93303W        W61697  30.368  35.032   4.296
93304W        W61698   1.365  12.381   2.500
93305W        W61699  35.760  17.300   5.317
93306W        W61700  21.081  20.813  14.972
93307W        W61701  37.022  23.772   4.246
93308W        W61702  22.027  31.722  12.855
93309W        W61703   0.022   3.261  12.282
93310W        W61704  44.832  35.788  13.427
93311W        W61705   5.982  22.456   3.227
93312W        W61706   3.204  31.352   2.359
93313W        W61707  14.106  17.479  11.454
93314W        W61708  36.472  10.871  12.420
93315W        W61709  36.284   5.770  12.532
93316W        W61710  13.183  33.523   0.006
93317W        W61711  16.724  17.226   2.239
93318W        W61712  12.376  15.293   0.477
93319W        W61713  22.705  37.387   2.010
93320W        W61714   3.485  13.312   2.142
93321W        W61715   3.020   3.387  10.334
93322W        W61716  30.518  32.412   0.235
93323W        W61717  41.281  39.174   0.363
93324W        W61718  34.273  44.508   3.452
93325W        W61719   0.830   6.003  10.937
93326W        W61720  19.250   3.520  11.500
93327W        W61721  29.401  40.867  10.699
93328W        W61722  37.736  28.467   1.189
93329W        W61723  14.219  41.348  13.614
93330W        W61724  17.130  21.870  12.409
93331W        W61725  41.363  17.708   0.779
93332W        W61726  11.423  24.741  11.580
93333W        W61727  16.387  36.087  11.907
93334W        W61728   9.922  24.642   3.830
93335W        W61729  32.932   1.481  13.889
93336W        W61730  19.555  22.616  11.664
93337W        W61731   7.170  32.482   2.859
93338W        W61732  25.210  43.078   1.863
93339W        W61733  38.268  10.189   0.534
93340W        W61734   5.166  20.990   1.752
93341W        W61735  20.887  25.269   0.916
93342W        W61736  33.861  28.513   1.199
93343W        W61737  33.851  32.829  14.895
93344W        W61738  21.234  35.171  14.486
93345W        W61739   7.751   9.061  12.106
93346W        W61740  14.077  29.460  13.614
93347W        W61741  44.935  35.422   0.081
93348W        W61742   5.180  34.485   3.733
93349W        W61743  19.041  34.487  12.497
93350W        W61744  38.100  17.729   5.011
93351W        W61745  41.030  17.683   4.457
93352W        W61746  32.465  30.906   0.769
93353W        W61747  25.794  33.995  10.896
93354W        W61748   4.744  38.616   0.733
93355W        W61749  26.186  33.685  11.055
93356W        W61750  31.014  36.969   2.102
93357W        W61751   8.910  30.098   3.819
93358W        W61752  16.309  34.858   4.285
93359W        W61753  22.640  22.457  13.503
93360W        W61754  44.460  32.423  12.905
93361W        W61755  24.681  30.080  14.104
93362W        W61756   9.641  24.720   4.774
93363W        W61757  34.846  29.515   0.727
93364W        W61758  37.544  17.249  14.257
93365W        W61759   9.148  20.363   2.352
93366W        W61760  44.245  22.260  10.971
93367W        W61761  37.567  37.361  11.194
93368W        W61762   2.546  36.420  12.046
93369W        W61763  30.104  23.719  14.958
93370W        W61764  35.844   0.450   0.280
93371W        W61765  17.332  39.533  14.850
93372W        W61766  24.147  24.039  13.094
93373W        W61767  27.751  42.216   2.270
93374W        W61768  41.173  14.960  12.920
93375W        W61769  25.150  29.018   4.553
93376W        W61770   5.317  16.560   2.054
93377W        W61771  36.997  30.450  14.012
93378W        W61772   0.817  36.370   1.358
93379W        W61773  28.514  27.439   2.187
93380W        W61774  14.200  39.822  14.287
93381W        W61775  34.921   5.795   1.935
93382W        W61776  13.299  28.578   1.450
93383W        W61777  32.111   8.695  12.398
93384W        W61778  29.680  39.294   3.722
93385W        W61779  10.859  26.007   2.696
93386W        W61780  11.967  33.071   3.859
93387W        W61781  35.594  30.879  13.533
93388W        W61782  12.945  33.194  11.634
93389W        W61783  34.547  28.883  14.363
93390W        W61784   4.191  18.971  12.390
93391W        W61785   9.219  30.586  13.194
93392W        W61786  31.214  10.228   4.769
93393W        W61787  15.520  29.029  14.342
93394W        W61788  17.527  22.233   2.133
93395W        W61789   2.960  37.785   4.125
93396W        W61790  25.343  31.628   3.117
93397W        W61791  34.475  29.129  13.892
93398W        W61792  38.739  20.432   0.524
93399W        W61793   4.762  35.604  10.121
93400W        W61794  35.173   9.792  13.434
93401W        W61795  41.305   3.387  13.492
93402W        W61796  35.218  25.925  11.235
93403W        W61797  23.019  28.423  14.336
93404W        W61798  25.118  30.443   4.921
93405W        W61799  16.891   2.267   4.470
93406W        W61800  41.485  40.201   1.759
93407W        W61801  15.665  40.116  13.225
93408W        W61802   3.246  25.556   3.318
93409W        W61803  26.709   0.150  10.659
93410W        W61804   4.005  18.896  10.699
93411W        W61805   9.161  28.645   1.841
93412W        W61806  14.663  30.839   5.128
93413W        W61807  41.343   6.707  13.302
93414W        W61808  12.569  30.592  11.012
93415W        W61809  43.786  12.646  10.760
93416W        W61810  23.929  44.109   2.108
93417W        W61811  18.610  22.154  11.664
93418W        W61812   2.864  11.259  11.194
93419W        W61813  11.756  32.658  12.894
93420W        W61814   9.081   7.223  13.383
93421W        W61815  42.872  32.663   4.633
93422W        W61816  42.323  26.954  13.980
93423W        W61817   9.362  43.167  14.388
93424W        W61818   6.185  16.956  11.587
93425W        W61819  44.477   2.445   3.685
93426W        W61820  41.949  16.483  12.387
93427W        W61821  31.629  10.204   1.724
93428W        W61822  22.679  24.756  12.463
93429W        W61823  23.942  40.443  12.065
93430W        W61824  17.060  18.081   2.596
93431W        W61825  24.220   8.885   9.647
93432W        W61826   4.739  38.576   2.904
93433W        W61827   8.296  30.596   3.043
93434W        W61828  11.531  21.156   4.610
93435W        W61829  39.504  20.840   1.666
93436W        W61830  20.859  18.318   4.481
93437W        W61831   9.748   8.885   1.524
93438W        W61832  12.824   2.833  12.791
93439W        W61833   8.924  30.389  10.584
93440W        W61834  12.998  25.454   3.036
93441W        W61835  19.106  33.241  13.606
93442W        W61836  14.610  32.139  13.353
93443W        W61837  22.248  24.899   0.286
93444W        W61838   8.712  20.024   4.576
93445W        W61839  38.627  20.051  12.236
93446W        W61840  38.557  12.241  12.066
93447W        W61841  10.345  43.256  14.797
93448W        W61842   4.949   5.256  12.087
93449W        W61843   5.186  20.848  12.900
93450W        W61844  15.603  32.117  12.956
93451W        W61845  28.065  39.843  12.493
93452W        W61846  20.535  41.370   0.523
93453W        W61847  17.979  14.247   3.178
93454W        W61848  14.753  29.451  13.995
93455W        W61849  16.827   3.242  13.909
93456W        W61850  18.711  13.693  10.880
93457W        W61851   1.718  28.503   3.807
93458W        W61852  36.413   6.197   4.437
93459W        W61853  23.606   8.739  14.804
93460W        W61854  22.937  23.604   1.863
93461W        W61855  40.199  30.590   2.629
93462W        W61856   0.470  31.117   3.272
93463W        W61857  28.676   4.905   4.169
93464W        W61858  18.708  29.207   3.521
93465W        W61859   2.567  22.151   3.676
93466W        W61860  34.121  25.934  12.041
93467W        W61861  38.400  17.437  14.682
93468W        W61862  30.580  33.110   0.858
93469W        W61863  24.126  33.736   3.116
93470W        W61864  43.935  11.148  11.113
93471W        W61865  25.527  40.983  14.826
93472W        W61866  34.088  11.783  12.655
93473W        W61867  40.125  29.696   2.592
93474W        W61868  11.152  14.196   4.232
93475W        W61869   3.697  35.466  12.969
93476W        W61870  20.389  42.753   2.798
93477W        W61871  34.009  15.016   2.378
93478W        W61872  42.586  40.853   0.532
93479W        W61873   9.444   1.400  12.929
93480W        W61874   6.101  21.184  13.340
93481W        W61875  10.230   6.573   1.742
93482W        W61876  18.323  35.891  13.348
93483W        W61877   5.841  25.593  13.510
93484W        W61878  19.511  10.420   4.691
93485W        W61879   1.064   9.166  11.624
93486W        W61880  34.094  44.905   0.464
93487W        W61881  44.518  32.761  14.086
93488W        W61882  25.658  23.095  14.981
93489W        W61883  11.463  21.725  14.247
93490W        W61884  31.937  28.256   1.167
93491W        W61885   6.874  19.010  13.139
93492W        W61886  23.595  14.841   4.006
93493W        W61887  32.045  25.598  13.884
93494W        W61888  15.187   1.312  14.779
93495W        W61889  14.791  34.652   4.495
93496W        W61890  40.929   0.060  11.039
93497W        W61891  40.978  21.997   2.639
93498W        W61892  11.201  28.006   0.808
93499W        W61893  32.205  12.705  12.961
93500W        W61894  17.232  10.712   3.235
93501W        W61895  32.082  41.401   1.295
93502W        W61896  39.285  33.086  14.923
93503W        W61897  19.195  17.424  11.063
93504W        W61898  43.815  41.058  13.485
93505W        W61899  12.378  23.613  13.042
93506W        W61900  17.973  14.128  11.713
93507W        W61901  12.622  20.183   3.147
93508W        W61902  33.986  18.753   2.427
93509W        W61903   0.139   5.018  13.028
93510W        W61904  38.277   2.617  11.220
93511W        W61905  42.049  17.538  14.396
93512W        W61906  31.931   8.240   2.254
93513W        W61907  14.249  41.042   3.776
93514W        W61908  41.237  34.407  13.106
93515W        W61909  13.725  43.829  10.988
93516W        W61910  17.674   5.650   2.766
93517W        W61911  14.968  43.235   4.263
93518W        W61912   3.798  20.276   3.118
93519W        W61913   8.314   5.483  13.893
93520W        W61914  19.201  10.633  13.480
93521W        W61915   9.901  17.326   2.815
93522W        W61916  28.073  15.203  13.072
93523W        W61917   5.485  13.904  11.575
93524W        W61918  27.167  33.077   3.036
93525W        W61919  39.290  22.793  12.437
93526W        W61920  27.365   1.232   4.133
93527W        W61921   3.262  11.178   1.080
93528W        W61922  21.906  18.887   3.677
93529W        W61923  22.649  14.135  13.116
93530W        W61924   3.437  33.028   3.747
93531W        W61925  36.923  18.281   0.982
93532W        W61926  14.083   8.847   3.225
93533W        W61927  33.918  43.847   2.329
93534W        W61928   5.202  10.763  10.639
93535W        W61929  38.295  28.646   5.101
93536W        W61930  34.108  30.018   0.879
93537W        W61931  19.096  18.971   5.126
93538W        W61932   2.004  27.257   3.193
93539W        W61933  33.249  34.477  10.064
93540W        W61934   4.763  31.691   2.780
93541W        W61935  15.552  21.254   3.671
93542W        W61936   1.307   0.179  14.741
93543W        W61937  44.154  27.439  14.926
93544W        W61938  28.453  14.998  14.848
93545W        W61939  11.609  41.295  14.448
93546W        W61940  15.723  15.301   4.295
93547W        W61941   2.895  14.242   0.221
93548W        W61942   3.224  11.559  11.756
93549W        W61943  12.306  30.394   1.566
93550W        W61944  14.788  14.330   1.417
93551W        W61945  21.641  33.387   0.859
93552W        W61946  24.361  17.610  11.365
93553W        W61947  38.831  29.060   0.791
93554W        W61948  17.977  19.497   9.710
93555W        W61949   7.415   0.254  13.993
93556W        W61950  24.706  32.227  11.082
93557W        W61951  32.769   3.323  11.635
93558W        W61952  29.953   1.935   3.632
93559W        W61953   3.192  10.141   2.261
93560W        W61954  31.586  29.268   1.219
93561W        W61955   5.368  32.516   3.068
93562W        W61956   5.298   7.703  11.261
93563W        W61957   4.919   9.273   4.414
93564W        W61958  11.936   8.787   0.943
93565W        W61959   3.186  22.070  13.360
93566W        W61960   7.353  29.075  12.711
93567W        W61961  24.521  16.693   1.667
93568W        W61962   7.775  36.464   2.870
93569W        W61963  42.852  36.537   1.802
93570W        W61964  32.795  16.845  12.470
93571W        W61965  12.479  15.295  12.173
93572W        W61966  40.710  43.112  10.801
93573W        W61967  40.338   8.817  10.705
93574W        W61968  35.458  15.175   3.608
93575W        W61969  12.247  16.675   3.834
93576W        W61970  28.102  44.393  11.562
93577W        W61971  21.722  33.506  14.549
93578W        W61972  25.410  26.497  12.587
93579W        W61973  12.270  43.806   1.619
93580W        W61974   1.567  35.385   2.840
93581W        W61975   1.154  23.058   1.823
93582W        W61976  38.391   5.917   4.540
93583W        W61977  20.761   6.503   0.914
93584W        W61978  36.612  25.799   2.320
93585W        W61979   8.793  28.621  11.143
93586W        W61980  11.971   3.319   0.944
93587W        W61981  39.720  44.991   0.538
93588W        W61982  34.082  38.618  14.281
93589W        W61983  39.356  26.521   4.252
93590W        W61984  15.214  34.986  13.382
93591W        W61985  18.580  41.181  11.940
93592W        W61986  34.584  29.014  14.875
93593W        W61987  39.814  28.222  14.043
93594W        W61988  11.687   8.771   2.371
93595W        W61989  15.792   9.703  14.608
93596W        W61990   1.193   9.337   4.229
93597W        W61991  36.099   6.478   2.614
93598W        W61992  23.210  43.932   4.393
93599W        W61993  14.286  38.532  14.796
93600W        W61994  36.317  44.716  12.612
93601W        W61995  13.624   1.399   0.029
93602W        W61996  10.257  34.532   1.387
93603W        W61997   5.535  20.698   3.269
93604W        W61998  15.583  18.145  11.618
93605W        W61999  20.153  37.041  12.378
93606W        W62000  36.127  10.114   1.971
93607W        W62001  12.276  11.045  11.586
93608W        W62002   2.179  43.833   3.098
93609W        W62003  24.799   5.689   1.521
93610W        W62004   5.853  18.426   3.915
93611W        W62005   5.119   6.804  11.433
93612W        W62006   0.528  38.763   4.609
93613W        W62007  27.076   9.093   2.774
93614W        W62008  33.193  40.871   1.169
93615W        W62009  17.115  37.546   0.123
93616W        W62010  28.754   9.868  14.989
93617W        W62011  27.073  26.635  13.411
93618W        W62012  29.870   1.929  12.998
93619W        W62013   4.918   1.711   3.648
93620W        W62014   1.266  24.957  12.591
93621W        W62015  37.692  37.932  13.322
93622W        W62016  24.962  31.012  12.538
93623W        W62017  39.955  20.065   4.758
93624W        W62018   6.199  15.144  13.794
93625W        W62019  38.073  17.074   1.800
93626W        W62020   2.405  30.397   0.389
93627W        W62021  37.786   8.383  13.952
93628W        W62022  19.089   6.366   1.484
93629W        W62023   5.492   6.228   1.893
93630W        W62024  37.048  18.752   4.484
93631W        W62025  16.282  42.213  14.467
93632W        W62026  27.972  35.446   1.296
93633W        W62027  36.853  33.664   1.223
93634W        W62028  30.052   8.143  14.756
93635W        W62029   0.239  43.939   1.326
93636W        W62030  38.045  41.543   1.221
93637W        W62031  42.895  39.068   5.398
93638W        W62032  19.492  38.303  10.639
93639W        W62033  15.684  31.735   4.960
93640W        W62034  22.681  29.331  12.363
93641W        W62035  13.284  37.037   2.747
93642W        W62036  24.740  32.696   2.415
93643W        W62037  21.608  10.165  12.952
93644W        W62038   4.690   0.806   0.294
93645W        W62039  43.335   3.625  10.523
93646W        W62040  25.493  24.730   5.149
93647W        W62041  17.752  21.019   0.016
93648W        W62042  40.587  41.715   1.837
93649W        W62043  42.362  31.468   2.334
93650W        W62044   6.315  40.786   1.889
93651W        W62045   8.080  16.303  13.942
93652W        W62046  28.466  17.748  13.950
93653W        W62047  43.918  24.705  12.519
93654W        W62048   6.240  23.991   1.350
93655W        W62049  40.863  28.418  14.211
93656W        W62050  34.158  24.603   2.859
93657W        W62051  23.451  15.305  11.664
93658W        W62052  16.038  31.869  14.763
93659W        W62053  24.009  28.618   0.967
93660W        W62054  36.953  14.609  13.950
93661W        W62055  24.082  28.383  13.466
93662W        W62056  22.811  18.684   1.907
93663W        W62057  43.003   9.293   2.887
93664W        W62058  14.728  17.488  14.144
93665W        W62059  22.535  23.018   4.155
93666W        W62060   7.763  25.438  12.024
93667W        W62061   7.294   2.740   1.832
93668W        W62062  37.286  38.493  10.685
93669W        W62063   4.338  15.671  10.732
93670W        W62064   9.965  28.958   3.552
93671W        W62065  21.183   9.103  12.395
93672W        W62066  26.108  12.604   4.110
93673W        W62067  36.040  39.867   3.652
93674W        W62068  29.543   1.992   9.645
93675W        W62069  38.149   8.241   4.038
93676W        W62070   5.421  37.619  10.778
93677W        W62071  29.389  15.852  11.140
93678W        W62072  31.945  35.226   2.847
93679W        W62073  43.820   3.827  11.436
93680W        W62074  19.033  28.405   2.541
93681W        W62075  11.861   8.661  11.098
93682W        W62076  19.717  17.244  14.745
93683W        W62077   4.403  36.529  13.094
93684W        W62078  18.209  11.622   1.600
93685W        W62079  32.453   9.672   3.144
93686W        W62080  14.219  37.105   0.694
93687W        W62081  39.858  28.218   0.053
93688W        W62082   3.319  29.244   1.648
93689W        W62083  24.961  10.729   2.786
93690W        W62084  26.174   8.903   0.869
93691W        W62085  36.788  43.273  11.174
93692W        W62086  10.405  31.012  11.469
93693W        W62087  42.166  14.520  12.947
93694W        W62088  37.401  14.797  12.656
93695W        W62089  24.443   8.425  10.639
93696W        W62090  11.841  35.105  14.510
93697W        W62091  44.784  19.825  11.093
93698W        W62092  28.215  24.740  11.500
93699W        W62093  14.666  33.918  14.579
93700W        W62094   5.730   9.736  14.536
93701W        W62095  32.440  20.673  11.227
93702W        W62096   8.471  27.441  10.662
93703W        W62097  18.229  10.591   0.487
93704W        W62098  34.998  28.139  11.714
93705W        W62099   7.691  37.546   5.140
93706W        W62100  41.125   3.392   0.908
93707W        W62101  13.640  33.898  13.304
93708W        W62102  32.085   9.710   0.100
93709W        W62103  19.558   1.868  13.773
93710W        W62104   5.338  21.315   1.354
93711W        W62105  34.521  29.667  12.112
93712W        W62106  43.161  29.082   3.100
93713W        W62107  15.594  13.157   0.299
93714W        W62108  17.299  21.700   2.689
93715W        W62109  12.558   3.893   3.699
93716W        W62110  23.673  31.624  12.161
93717W        W62111  19.302   3.824  14.422
93718W        W62112   6.366   7.653   1.724
93719W        W62113  21.813  26.777   5.684
93720W        W62114  37.608  19.846  11.207
93721W        W62115  44.295  10.391  11.121
93722W        W62116   3.398   5.100  10.340
93723W        W62117   4.194  15.625  11.213
93724W        W62118  32.066  21.157   2.164
93725W        W62119   0.410  35.308  12.777
93726W        W62120  43.322   7.355   4.335
93727W        W62121  26.895   3.889   3.635
93728W        W62122  30.125   1.245  13.384
93729W        W62123   4.294  30.393  12.340
93730W        W62124   2.178  38.513   4.379
93731W        W62125  15.228   6.588   4.505
93732W        W62126   6.294  37.357   0.517
93733W        W62127  25.243  24.600  12.055
93734W        W62128  12.683  20.619  14.903
93735W        W62129  29.940  41.038   0.051
93736W        W62130  21.158  22.368   5.206
93737W        W62131  33.094   1.444  10.743
93738W        W62132  41.966  20.561  14.772
93739W        W62133  20.926  38.692  12.643
93740W        W62134   5.428  28.574  12.864
93741W        W62135  26.375  31.187   4.044
93742W        W62136  36.883  44.561   3.304
93743W        W62137  15.823  19.504   0.877
93744W        W62138   4.701  43.707   0.880
93745W        W62139  15.853  18.461  13.875
93746W        W62140  21.731  29.651  11.539
93747W        W62141  27.895   3.276   0.802
93748W        W62142  27.551  16.329  13.591
93749W        W62143  21.673  17.315  13.937
93750W        W62144   9.184  34.091   0.421
93751W        W62145  42.921  34.593   1.772
93752W        W62146  40.208  24.663   4.063
93753W        W62147   0.146  42.018   3.296
93754W        W62148   8.040   1.823   4.426
93755W        W62149  19.841  32.486  14.022
93756W        W62150  14.290  12.234   4.796
93757W        W62151  37.208   9.805  13.570
93758W        W62152  12.440   5.143  14.371
93759W        W62153  15.060  17.173   1.220
93760W        W62154   8.155  24.186   1.430
93761W        W62155  32.448   7.796   4.451
93762W        W62156  23.761  44.755   4.553
93763W        W62157   4.261  34.001   2.260
93764W        W62158  36.437  42.167  11.997
93765W        W62159   4.688  30.131   2.350
93766W        W62160  26.318  27.379   4.122
93767W        W62161  40.362  39.440   3.226
93768W        W62162  16.744  42.469  14.361
93769W        W62163  19.167   7.355   0.743
93770W        W62164  43.541  43.227  14.868
93771W        W62165  17.496  20.873  13.353
93772W        W62166  44.873  23.257   2.508
93773W        W62167   9.362  10.588   1.265
93774W        W62168  14.274  22.758  12.531
93775W        W62169  23.642  31.868   1.654
93776W        W62170  18.743  25.144   2.481
93777W        W62171  38.948   9.885  12.862
93778W        W62172  17.230  15.285  14.955
93779W        W62173  34.104  15.850  12.825
93780W        W62174  33.149   9.797  14.395
93781W        W62175  17.210  33.664  14.228
93782W        W62176  15.094  13.076   0.163
93783W        W62177  19.925  35.123  14.657
93784W        W62178  19.987  11.878   4.381
93785W        W62179   8.080  10.304   0.910
93786W        W62180  16.631   1.983  10.605
93787W        W62181  24.103  34.871  13.982
93788W        W62182  42.778  21.000   3.315
93789W        W62183  22.087  13.709  12.485
93790W        W62184  13.000  15.057  10.729
93791W        W62185   1.300  21.531  11.675
93792W        W62186   6.460   6.120   1.575
93793W        W62187   0.619  40.001  11.386
93794W        W62188  24.026  41.700   2.948
93795W        W62189   4.718  25.921  10.514
93796W        W62190  33.469  11.655  13.533
93797W        W62191   2.671  12.877   2.428
93798W        W62192  36.028  20.205   1.453
93799W        W62193  32.609   0.946   1.313
93800W        W62194  18.306   3.312   2.380
93801W        W62195  32.459   1.053  11.383
93802W        W62196  41.825  13.718   2.783
93803W        W62197  23.552  40.276   4.589
93804W        W62198  43.702  10.075   5.170
93805W        W62199  20.142  31.165   0.493
93806W        W62200  20.474  38.406   4.587
93807W        W62201  33.164  33.491  11.166
93808W        W62202  37.516  30.005  13.149
93809W        W62203  41.835  14.514   1.353
93810W        W62204  38.266  34.018  12.848
93811W        W62205  15.531  12.295   1.951
93812W        W62206  18.620  29.065  10.788
93813W        W62207  27.959  12.149  10.706
93814W        W62208  20.697  41.500   2.471
93815W        W62209   6.287  29.414  14.033
93816W        W62210  30.959  10.888  11.608
93817W        W62211  31.675  10.979  12.541
93818W        W62212  27.725  34.978  10.801
93819W        W62213  44.713   6.354   0.515
93820W        W62214  20.582  26.243   1.338
93821W        W62215   1.729  32.347   0.508
93822W        W62216  25.581  40.507   0.747
93823W        W62217  26.631  39.860  12.492
93824W        W62218  22.440   4.347   2.301
93825W        W62219  28.071  43.880  11.594
93826W        W62220  34.630  34.368  13.415
93827W        W62221  33.119  43.608   2.786
93828W        W62222  22.518  29.516   5.069
93829W        W62223   0.740  18.552  10.753
93830W        W62224  36.098  22.718   1.498
93831W        W62225   3.473  26.393   4.428
93832W        W62226  20.782   2.673  10.664
93833W        W62227   2.450  24.307  12.580
93834W        W62228  25.473  25.404  11.558
93835W        W62229  24.170  41.325   2.190
93836W        W62230  22.703  30.544  12.405
93837W        W62231  20.048  39.100  13.720
93838W        W62232  12.935  14.663  12.810
93839W        W62233   2.942  44.619  11.446
93840W        W62234  26.635  42.394   0.953
93841W        W62235  30.787  33.244  14.132
93842W        W62236  33.136  22.722   3.929
93843W        W62237   4.015  35.827  12.657
93844W        W62238   3.985  11.149   4.638
93845W        W62239  29.066  30.400   3.624
93846W        W62240  12.685   7.130  11.759
93847W        W62241  28.130  30.684  14.564
93848W        W62242   0.081  24.552   2.722
93849W        W62243  27.606  27.911   2.151
93850W        W62244  16.830  25.539  12.505
93851W        W62245  16.202  11.334   0.814
93852W        W62246  21.769  27.518  11.630
93853W        W62247   9.180  22.531  14.846
93854W        W62248  41.149  36.293  13.317
93855W        W62249  21.767  26.098   2.737
93856W        W62250  23.491  16.263   1.343
93857W        W62251  36.409  35.296  11.167
93858W        W62252  21.274   4.862  11.449
93859W        W62253  42.599  29.563   2.714
93860W        W62254  39.905  37.744  11.519
93861W        W62255  24.981   4.699  12.321
93862W        W62256  26.452  38.979  10.745
93863W        W62257  18.465  23.116   3.694
93864W        W62258  42.222  38.817   3.314
93865W        W62259  17.515  36.946   4.863
93866W        W62260  44.554  21.650  14.290
93867W        W62261   3.633   4.722   4.571
93868W        W62262  30.460   3.740  14.373
93869W        W62263  43.684  42.307  11.614
93870W        W62264  17.012  19.213   4.114
93871W        W62265  31.474   3.152   0.187
93872W        W62266   9.584  22.192  14.853
93873W        W62267  37.343  17.123  12.846
93874W        W62268  24.655   7.943   0.821
93875W        W62269  15.929  33.134   3.552
93876W        W62270  18.164  19.683   2.089
93877W        W62271  33.970   0.244   2.221
93878W        W62272   8.158   4.190   2.380
93879W        W62273  19.210  42.378   4.634
93880W        W62274  44.686  33.612   0.377
93881W        W62275   3.779  22.802   2.238
93882W        W62276  24.729  40.527   5.102
93883W        W62277  12.575  42.961   2.452
93884W        W62278   0.894   9.133  11.138
93885W        W62279  23.069  31.487  10.989
93886W        W62280  36.151   4.868   1.270
93887W        W62281  17.599   6.328   1.264
93888W        W62282  25.066  31.197  13.026
93889W        W62283  12.683  43.364   2.124
93890W        W62284  41.532  40.249   2.851
93891W        W62285   2.872  30.164  13.082
93892W        W62286  43.931   2.304  12.006
93893W        W62287  29.670  33.579   4.920
93894W        W62288  10.871  13.129  12.569
93895W        W62289  42.142   3.510  11.734
93896W        W62290  24.873  25.650   4.139
93897W        W62291  43.308  11.761   4.079
93898W        W62292   0.454  10.512   4.186
93899W        W62293  38.956   0.731  10.602
93900W        W62294   4.998  44.792   3.849
93901W        W62295  10.315  22.583   4.501
93902W        W62296  39.059  39.109   2.417
93903W        W62297  31.054  10.231  10.709
93904W        W62298  26.605  41.028   1.433
93905W        W62299  26.718   0.996   1.421
93906W        W62300  14.803  14.261   0.210
93907W        W62301  22.499  14.377  14.585
93908W        W62302   2.959  11.117   0.281
93909W        W62303  21.605  43.562   1.478
93910W        W62304  38.029  17.010  12.446
93911W        W62305   4.620  19.318   3.235
93912W        W62306   7.748  38.813  14.279
93913W        W62307  38.532  13.662   0.412
93914W        W62308  24.840  19.547  10.607
93915W        W62309  21.304  36.893   0.140
93916W        W62310  12.354  21.137   1.044
93917W        W62311  20.787  31.553   0.791
93918W        W62312  15.347  12.446   4.820
93919W        W62313  25.561   1.281   4.298
93920W        W62314  36.938  40.715   4.348
93921W        W62315  21.485  11.382  13.849
93922W        W62316  29.581  42.337   3.689
93923W        W62317  33.892   5.955   1.740
93924W        W62318  41.606  41.024  11.471
93925W        W62319  15.651  20.226   3.641
93926W        W62320   4.908  27.414  10.032
93927W        W62321   2.083  41.369   4.268
93928W        W62322  28.959  18.584   4.273
93929W        W62323  26.232  20.638  12.190
93930W        W62324  14.178   3.950   0.560
93931W        W62325  23.234   0.834   4.660
93932W        W62326  34.561   2.172   1.252
93933W        W62327  38.791  33.002  11.438
93934W        W62328  14.215  13.114   0.359
93935W        W62329  11.108  12.647  12.504
93936W        W62330   3.406  40.755   3.690
93937W        W62331  37.079  27.361   2.871
93938W        W62332  32.587   2.340  14.000
93939W        W62333   0.500  19.071   4.564
93940W        W62334  20.402  11.277   0.170
93941W        W62335  42.772  36.864  10.734
93942W        W62336  15.869  39.413  11.422
93943W        W62337  41.295  22.554  13.931
93944W        W62338   5.322  11.287   3.338
93945W        W62339  35.031  28.839   4.428
93946W        W62340   7.432  10.382  11.610
93947W        W62341  35.175  42.810  13.516
93948W        W62342  41.141  18.617  13.517
93949W        W62343  31.348  39.011  10.519
93950W        W62344  40.116   9.276  13.314
93951W        W62345  34.431  13.698   1.757
93952W        W62346  43.765  13.289   2.475
93953W        W62347   7.908   4.465  13.899
93954W        W62348  41.893  26.684   4.494
93955W        W62349  26.110   5.679   1.434
93956W        W62350   4.880  35.577  14.952
93957W        W62351  19.900  26.648  14.546
93958W        W62352  25.194  31.648   4.355
93959W        W62353  43.898  15.364   3.627
93960W        W62354  23.116  24.542  13.151
93961W        W62355  17.290  33.551   5.130
93962W        W62356  18.847   9.169   2.218
93963W        W62357  42.506  42.862  14.262
93964W        W62358  12.398  34.005  11.020
93965W        W62359  30.098   0.763   4.334
93966W        W62360  34.595  39.107  12.609
93967W        W62361  35.439   8.082  12.084
93968W        W62362  33.462  36.710  14.870
93969W        W62363   9.072   1.190  12.642
93970W        W62364  22.680  12.663  11.987
93971W        W62365  43.919  23.746   2.858
93972W        W62366  21.179   8.333  14.943
93973W        W62367  14.375   7.673  14.275
93974W        W62368   9.441  24.179   4.951
93975W        W62369   6.425   1.704  12.477
93976W        W62370  33.778  36.976  11.978
93977W        W62371   6.267  11.668  12.151
93978W        W62372  35.176  25.438  11.117
93979W        W62373  21.755  17.772   2.978
93980W        W62374   4.746  23.469   0.902
93981W        W62375  38.132  34.314   2.784
93982W        W62376  26.150  42.792  11.125
93983W        W62377  17.224  29.236   0.447
93984W        W62378  36.708   6.794   4.575
93985W        W62379  28.208  18.231  12.669
93986W        W62380  15.231  23.027  12.480
93987W        W62381  23.229  11.814   2.287
93988W        W62382  30.574  20.016  13.979
93989W        W62383  38.130  19.530  14.168
93990W        W62384   4.583  37.569   3.782
93991W        W62385  31.485  25.505   2.975
93992W        W62386  10.927  40.480  12.789
93993W        W62387  43.004  35.990  13.017
93994W        W62388  11.662  40.842   2.187
93995W        W62389  14.722   1.265  10.643
93996W        W62390   2.653  29.172  13.687
93997W        W62391  39.969  18.482  13.884
93998W        W62392  31.927  16.163   2.424
93999W        W62393  42.758   1.109   1.662
94000W        W62394  37.076  35.520  14.759
94001W        W62395  24.675  39.494  14.225
94002W        W62396  24.850   8.731   5.754
94003W        W62397  19.942  12.589  10.646
94004W        W62398  38.919  27.368   2.618
94005W        W62399  40.561  11.935   5.016
94006W        W62400  27.462   0.761   2.215
94007W        W62401  24.986   4.727  14.281
94008W        W62402  33.191  16.820  11.582
94009W        W62403  17.836  29.454  10.784
94010W        W62404  14.161  15.632  13.022
94011W        W62405  34.391  26.632   0.840
94012W        W62406  20.029  35.660  13.538
94013W        W62407  11.398   5.728   4.556
94014W        W62408   9.667  18.819  10.859
94015W        W62409  28.039  15.341  12.582
94016W        W62410  13.293   1.786   3.136
94017W        W62411  16.345  24.090  11.773
94018W        W62412  16.102  30.674   4.537
94019W        W62413  30.277  24.692   0.304
94020W        W62414   9.292  39.635   1.822
94021W        W62415  27.539   7.145   4.730
94022W        W62416  26.703  28.116   0.533
94023W        W62417  13.598  21.121  11.633
94024W        W62418  24.533  32.094   1.888
94025W        W62419   0.278  16.332   0.416
94026W        W62420  20.531  21.286   2.318
94027W        W62421  13.047   8.654   0.980
94028W        W62422  28.401  10.190   2.762
94029W        W62423  20.021  32.516   4.637
94030W        W62424   3.204  18.112  13.363
94031W        W62425  17.012   4.836  12.930
94032W        W62426   8.713  21.371   5.008
94033W        W62427  11.423  43.092   4.885
94034W        W62428   7.400  12.046  11.072
94035W        W62429   3.472  37.264  11.578
94036W        W62430  25.666  28.005  10.289
94037W        W62431   4.098  25.188  14.031
94038W        W62432  22.015  37.734  11.643
94039W        W62433  31.830  32.975   4.487
94040W        W62434  23.152  21.490  14.926
94041W        W62435  25.218  32.346  12.355
94042W        W62436  22.155  44.901   4.617
94043W        W62437  40.769  34.582  13.168
94044W        W62438   9.349   5.065  11.553
94045W        W62439   9.712  16.727   1.900
94046W        W62440   3.765  21.182   0.964
94047W        W62441  34.818   8.320   3.989
94048W        W62442  39.797  15.260  14.979
94049W        W62443  32.126  15.352   0.291
94050W        W62444  15.992  20.774   4.271
94051W        W62445   8.888  39.041  14.513
94052W        W62446  17.606   7.181   1.786
94053W        W62447   9.621   5.167  11.993
94054W        W62448  33.101  39.387  13.691
94055W        W62449  32.746  14.819   1.901
94056W        W62450  34.541  19.795  14.865
94057W        W62451  20.573  24.506  11.863
94058W        W62452   3.266  36.272   3.580
94059W        W62453  44.173   5.499   0.258
94060W        W62454  38.522  35.623   0.477
94061W        W62455  31.561   6.921  12.474
94062W        W62456  42.625  38.109   2.784
94063W        W62457  27.201  15.638  10.052
94064W        W62458  13.308  16.385  11.529
94065W        W62459   4.362  31.917   2.044
94066W        W62460  38.810  25.164   3.229
94067W        W62461   1.894  24.570  14.895
94068W        W62462   3.361   5.522  10.040
94069W        W62463   6.383  15.355   1.408
94070W        W62464   6.864   2.324  11.290
94071W        W62465   2.917  31.466   3.382
94072W        W62466  40.783   8.163   0.969
94073W        W62467  42.153  28.979   4.239
94074W        W62468  30.644   9.623   2.357
94075W        W62469  26.939  11.718   0.416
94076W        W62470  29.582  24.209  12.577
94077W        W62471  37.516  41.095   1.947
94078W        W62472  31.642  15.741  14.432
94079W        W62473  34.137  44.508  12.943
94080W        W62474  17.587  43.310   1.048
94081W        W62475  27.430  17.022   2.823
94082W        W62476   9.807   4.843   3.058
94083W        W62477   5.185   3.813  13.336
94084W        W62478  38.987  30.468  13.940
94085W        W62479   6.090  18.947  11.099
94086W        W62480  43.634   2.039  13.829
94087W        W62481  20.506  21.512  12.825
94088W        W62482  37.400   5.310  10.897
94089W        W62483  14.745  34.493   1.372
94090W        W62484  23.908  31.438   1.412
94091W        W62485  21.373  41.937   2.538
94092W        W62486  38.456  31.767   2.753
94093W        W62487  22.184  34.653  12.599
94094W        W62488   2.687   7.250  12.186
94095W        W62489  15.380  23.963  12.582
94096W        W62490  15.805  31.777   1.937
94097W        W62491   4.951  27.220  14.844
94098W        W62492  32.210   5.875  14.808
94099W        W62493   0.988   5.972  11.585
94100W        W62494   8.218  40.189   2.664
94101W        W62495   5.109   3.932  12.373
94102W        W62496  36.226  33.418   4.539
94103W        W62497  16.798   5.472   1.959
94104W        W62498  13.635  34.032  14.308
94105W        W62499  34.669   1.500   2.801
94106W        W62500  41.008  14.152  12.554
94107W        W62501  44.207   9.427   2.292
94108W        W62502  14.865  24.585   1.746
94109W        W62503  28.880   9.535  11.606
94110W        W62504  44.737  38.015   9.686
94111W        W62505  39.172  11.884  10.531
94112W        W62506  44.485   9.630  12.802
94113W        W62507  17.756  42.382   2.726
94114W        W62508  40.656   6.470   4.156
94115W        W62509   5.635   2.236  14.375
94116W        W62510  43.813  30.114   4.682
94117W        W62511  14.590  35.001  12.680
94118W        W62512  24.454  14.677   4.625
94119W        W62513  42.949  12.718  12.840
94120W        W62514  42.553  20.338   3.428
94121W        W62515  36.808  33.823  13.916
94122W        W62516  21.765  35.157  11.071
94123W        W62517  43.873  21.508  10.711
94124W        W62518  16.544   3.406  10.372
94125W        W62519  23.803  17.802  13.917
94126W        W62520  35.017  35.354   0.648
94127W        W62521  32.845  29.824   0.333
94128W        W62522   2.862  41.749  12.467
94129W        W62523   0.145  44.384  14.371
94130W        W62524  14.751   5.761  12.801
94131W        W62525  33.167  36.244   1.456
94132W        W62526  24.103  12.838   3.838
94133W        W62527  10.477  40.122  12.100
94134W        W62528  10.093  33.856   3.901
94135W        W62529   2.470  39.782  11.121
94136W        W62530  20.325  37.406   2.712
94137W        W62531   0.298  21.023   3.909
94138W        W62532  33.191  41.970   0.508
94139W        W62533   6.390  38.681   9.871
94140W        W62534  32.146   2.658   3.648
94141W        W62535   7.956  32.939   4.056
94142W        W62536  13.058  41.980  14.487
94143W        W62537  26.411  30.635  14.757
94144W        W62538  13.319   4.774   1.929
94145W        W62539  34.880   5.236  13.023
94146W        W62540  33.424  11.277   0.676
94147W        W62541  15.870  23.582   4.764
94148W        W62542   4.308  33.638  13.390
94149W        W62543   0.469  18.685  13.393
94150W        W62544  17.030  44.380   2.452
94151W        W62545  25.291  19.551  13.258
94152W        W62546  14.157  29.852  10.604
94153W        W62547  18.157  40.686   1.347
94154W        W62548  19.503   6.311  13.547
94155W        W62549  34.340  16.082  11.211
94156W        W62550  28.558  36.576  12.115
94157W        W62551  37.570   6.990  12.698
94158W        W62552  40.357  43.653  13.862
94159W        W62553  32.585  19.750  10.255
94160W        W62554  27.454  41.598   1.184
94161W        W62555  25.655  14.927  11.963
94162W        W62556  34.402  25.301   0.411
94163W        W62557  25.579  35.984   3.246
94164W        W62558  10.572  43.990  14.905
94165W        W62559  30.527  43.739  14.889
94166W        W62560  28.049   7.382  10.791
94167W        W62561   3.377  28.685   0.864
94168W        W62562  43.531  44.646   2.352
94169W        W62563  24.514  37.256   4.607
94170W        W62564  13.622  37.054   4.806
94171W        W62565   2.792  40.153  10.801
94172W        W62566  19.712  44.253   2.666
94173W        W62567  21.626  15.351   4.277
94174W        W62568  40.751  15.952  14.531
94175W        W62569  36.918  21.070   2.256
94176W        W62570  36.266  18.842   2.802
94177W        W62571  39.520  25.984   2.715
94178W        W62572  22.557  44.381  12.441
94179W        W62573  15.024  35.124  14.979
94180W        W62574  10.884  19.493   3.657
94181W        W62575   6.423   3.158   2.894
94182W        W62576   0.628   2.738   0.384
94183W        W62577  32.870  43.319   0.790
94184W        W62578  11.933  23.415  12.874
94185W        W62579   6.344  41.448  13.647
94186W        W62580  25.996  10.224   2.390
94187W        W62581  34.110  32.453   3.588
94188W        W62582  11.000   0.619   0.230
94189W        W62583  24.154  24.555  13.022
94190W        W62584  26.107  25.460   1.662
94191W        W62585  19.670   8.234  13.598
94192W        W62586  28.711  21.565  13.099
94193W        W62587  33.566  27.454  11.547
94194W        W62588  33.909  25.011  12.860
94195W        W62589   0.033  25.000   4.538
94196W        W62590  16.059   6.730   1.748
94197W        W62591  21.129  38.014   0.043
94198W        W62592  14.303   8.665  14.383
94199W        W62593   1.795  22.543  10.435
94200W        W62594  36.493  34.901   1.676
94201W        W62595  43.810   0.275  10.692
94202W        W62596  21.584   0.166  14.745
94203W        W62597   9.654  16.159  11.456
94204W        W62598  36.960  20.131  14.339
94205W        W62599  33.926  36.529   2.217
94206W        W62600  10.901  10.297  14.464
94207W        W62601  18.946  12.687   4.524
94208W        W62602   7.595  31.637  12.822
94209W        W62603  42.859  44.446   3.214
94210W        W62604  43.762  13.418  14.001
94211W        W62605  28.623   0.420   1.464
94212W        W62606   3.383  37.354  14.081
94213W        W62607   8.235  35.828   3.660
94214W        W62608  44.508   0.751   2.342
94215W        W62609  14.325  39.186  13.473
94216W        W62610  39.086  14.403  14.000
94217W        W62611  16.609  23.194   0.272
94218W        W62612   8.114  17.183  14.191
94219W        W62613   9.247  44.384  10.850
94220W        W62614  39.600  32.408   1.885
94221W        W62615  16.130  10.012  14.044
94222W        W62616  39.924  20.242  14.449
94223W        W62617  23.546  39.610  13.067
94224W        W62618   9.382   3.424  10.260
94225W        W62619  40.011   7.223  11.977
94226W        W62620  26.106   1.926  14.136
94227W        W62621   7.313  17.668   1.388
94228W        W62622  20.226  13.662  14.142
94229W        W62623  42.404  23.153   3.433
94230W        W62624   1.121   5.634   1.855
94231W        W62625   3.537   3.435   2.745
94232W        W62626   8.185  20.285   1.658
94233W        W62627  14.870  32.326   0.242
94234W        W62628  43.503  34.721  11.584
94235W        W62629  38.296  21.603  14.949
94236W        W62630   8.230  12.683  14.909
94237W        W62631  34.106  10.158   4.107
94238W        W62632   0.719  17.261  10.312
94239W        W62633  38.477  30.019  11.107
94240W        W62634  26.629   8.188   2.411
94241W        W62635  28.693  24.649   2.326
94242W        W62636   3.793   3.393  11.510
94243W        W62637   4.534  10.897   0.991
94244W        W62638  36.762  31.341  13.045
94245W        W62639  28.206  21.265  12.783
94246W        W62640  25.457  12.600   2.486
94247W        W62641   0.834   8.335   3.221
94248W        W62642   6.823   4.591  11.643
94249W        W62643  15.872  23.732  13.425
94250W        W62644  14.850   8.815   3.779
94251W        W62645  37.647  41.960   5.011
94252W        W62646  38.708  34.026  10.365
94253W        W62647  37.737  41.355   3.208
94254W        W62648   3.664  24.565   0.968
94255W        W62649  10.074  11.519  11.615
94256W        W62650  44.027   4.620   5.085
94257W        W62651  32.192   6.840  11.133
94258W        W62652  33.964   1.535   3.563
94259W        W62653  23.883   2.730  11.036
94260W        W62654   6.693  41.390  14.030
94261W        W62655  23.061   2.899   2.672
94262W        W62656  22.651  23.044  10.698
94263W        W62657  29.562  32.173   3.336
94264W        W62658  43.402  35.876  10.100
94265W        W62659  11.822  32.715   1.402
94266W        W62660  22.997  30.354  11.961
94267W        W62661  18.201  33.007  11.021
94268W        W62662  18.549  22.881   1.700
94269W        W62663  13.845  43.432   0.944
94270W        W62664  28.058  28.322  12.708
94271W        W62665  24.967  37.117  14.745
94272W        W62666  19.548  37.478   1.868
94273W        W62667  18.617  11.365   1.979
94274W        W62668  18.140  28.663   1.763
94275W        W62669  44.009  14.208   2.612
94276W        W62670  26.608   5.818   0.834
94277W        W62671  23.607  32.906   1.458
94278W        W62672  28.736   5.761  11.419
94279W        W62673   1.875  17.708   4.180
94280W        W62674  38.094   8.273  13.022
94281W        W62675  13.849   4.517   1.135
94282W        W62676  15.661  38.963  11.914
94283W        W62677  11.879  14.092   0.341
94284W        W62678  31.278   1.948  12.120
94285W        W62679   8.172  26.519   1.806
94286W        W62680  27.119   3.251   2.837
94287W        W62681   8.385   3.623  13.417
94288W        W62682   2.862  38.905  13.145
94289W        W62683  42.187  16.066   0.680
94290W        W62684   3.476  22.952   2.608
94291W        W62685  32.975  39.589   0.971
94292W        W62686  17.565  15.066  12.105
94293W        W62687  14.326  11.056   2.177
94294W        W62688  36.374  14.612   4.180
94295W        W62689  42.606  31.137  12.162
94296W        W62690   2.587   5.019   5.217
94297W        W62691  10.395  17.790  12.496
94298W        W62692  35.997  14.359   1.817
94299W        W62693  15.747  25.420   3.073
94300W        W62694   2.825  11.719  11.452
94301W        W62695  35.305  28.519  14.930
94302W        W62696  30.910  11.882  14.875
94303W        W62697  20.428  13.710   3.076
94304W        W62698   6.456   9.200   4.636
94305W        W62699  31.406  14.392  14.419
94306W        W62700  35.908   7.496  11.389
94307W        W62701  17.893  40.180   0.072
94308W        W62702  33.826  17.350  12.125
94309W        W62703  28.021  29.542  13.421
94310W        W62704  15.302  15.082   0.218
94311W        W62705  27.380  39.469   3.698
94312W        W62706  35.637   8.398   0.210
94313W        W62707  16.002   9.638  11.456
94314W        W62708  34.337   2.385   4.595
94315W        W62709  34.593  30.769   2.074
94316W        W62710  33.588   4.958   1.655
94317W        W62711  36.898  36.400   3.774
94318W        W62712  44.125  31.482  14.919
94319W        W62713  17.967  20.869   1.917
94320W        W62714  13.238   9.768   1.429
94321W        W62715   4.396   9.455   4.504
94322W        W62716  35.906   1.924  14.868
94323W        W62717  14.297   4.738  12.607
94324W        W62718   6.207   7.222  10.160
94325W        W62719  33.517   5.113   0.781
94326W        W62720   1.737   4.394  12.075
94327W        W62721  43.679  37.175   2.720
94328W        W62722   7.767  30.579   0.980
94329W        W62723  12.324  37.618  13.511
94330W        W62724  43.305  30.153  14.276
94331W        W62725  22.795   6.640   1.995
94332W        W62726   3.762  22.625  10.891
94333W        W62727  41.797   4.328  14.541
94334W        W62728  16.130  17.044  12.675
94335W        W62729  15.986  33.912   4.125
94336W        W62730  34.628  29.761   2.215
94337W        W62731  33.941   7.294  11.267
94338W        W62732  36.790   0.578   1.441
94339W        W62733  18.867  34.697   4.174
94340W        W62734  38.100  43.305  14.645
94341W        W62735  40.789  36.359  12.412
94342W        W62736   1.314   4.413  13.050
94343W        W62737  14.802  24.539  11.288
94344W        W62738   0.974  11.156   4.467
94345W        W62739   6.182   7.856   2.623
94346W        W62740  25.505  10.715  11.472
94347W        W62741  17.751   0.994   2.540
94348W        W62742  33.152  33.435   4.562
94349W        W62743  13.266   9.647  10.738
94350W        W62744  27.539  26.433   2.378
94351W        W62745  25.968  29.679  12.021
94352W        W62746  18.780   1.573  11.484
94353W        W62747  15.344  38.455   2.762
94354W        W62748  25.898  11.731   0.306
94355W        W62749   7.985  16.212   4.121
94356W        W62750  40.409  27.854   1.190
94357W        W62751  19.076   0.522  11.178
94358W        W62752  31.589   4.529   3.801
94359W        W62753  35.033  26.488   2.005
94360W        W62754   0.879  39.620   3.250
94361W        W62755   6.397  41.051  14.965
94362W        W62756   3.696   2.462   3.887
94363W        W62757  27.100   7.875   4.949
94364W        W62758  35.488  22.145  11.188
94365W        W62759   7.218   4.926  14.322
94366W        W62760   1.749   7.872   5.033
94367W        W62761  11.447  11.211   1.133
94368W        W62762  17.616  25.507   2.298
94369W        W62763  26.304   9.520   1.696
94370W        W62764  31.585  38.545  10.618
94371W        W62765  42.621  28.674   4.270
94372W        W62766  30.519  40.872  12.927
94373W        W62767  26.899  29.870   0.576
94374W        W62768  40.926  22.586   3.515
94375W        W62769  31.043  22.074  10.711
94376W        W62770  34.574  22.600   2.623
94377W        W62771  44.536  17.710  13.850
94378W        W62772  35.465  18.023  13.339
94379W        W62773  38.397  31.234   2.722
94380W        W62774   9.768  25.175   3.124
94381W        W62775  29.104  26.119   1.244
94382W        W62776  20.675   1.357   0.981
94383W        W62777   7.289   6.588  13.346
94384W        W62778  13.735   4.683  13.798
94385W        W62779  34.875  26.456  12.473
94386W        W62780  43.767  34.558  12.201
94387W        W62781  22.480  29.757   0.928
94388W        W62782  11.133  20.608   3.388
94389W        W62783  36.316  29.953   3.740
94390W        W62784  41.063   5.923  14.368
94391W        W62785  39.880  44.745   1.744
94392W        W62786   7.649  40.057   0.380
94393W        W62787  33.098   5.438  14.917
94394W        W62788  35.027  20.801   3.893
94395W        W62789  26.712  44.471  10.700
94396W        W62790   7.984  26.651  13.981
94397W        W62791  26.124  21.511   1.236
94398W        W62792  13.220  22.217   1.246
94399W        W62793   9.307  29.991   1.225
94400W        W62794  33.884  19.967  11.480
94401W        W62795  19.492  29.624   0.616
94402W        W62796   1.783  24.772  14.434
94403W        W62797  17.945  32.848  13.811
94404W        W62798   3.795  41.526   0.236
94405W        W62799  39.500  30.898  10.926
94406W        W62800  23.063  29.065   4.601
94407W        W62801  12.678  15.556   2.823
94408W        W62802  19.164  24.445   2.240
94409W        W62803  28.933  39.258   3.205
94410W        W62804  31.174  44.375   1.388
94411W        W62805  24.270   2.419   1.274
94412W        W62806  28.443  18.743  13.028
94413W        W62807  23.568   5.918   0.338
94414W        W62808  40.452  15.575  11.065
94415W        W62809  26.425  16.122  10.691
94416W        W62810  25.031   4.283  13.579
94417W        W62811  21.507   5.287   2.683
94418W        W62812  33.026  23.687   4.527
94419W        W62813  18.737  14.218   2.473
94420W        W62814  32.430   1.908   2.646
94421W        W62815   6.994  27.825   2.974
94422W        W62816  28.230  40.900  11.620
94423W        W62817  16.376  36.915  11.416
94424W        W62818   3.521  38.103  11.115
94425W        W62819   3.715  40.798  13.596
94426W        W62820  11.531   7.030   4.927
94427W        W62821  17.191  11.928  12.523
94428W        W62822  29.642  27.901  11.638
94429W        W62823  22.193  42.377   4.535
94430W        W62824  36.224  36.185   3.271
94431W        W62825  36.941  12.435   2.865
94432W        W62826  28.725  32.316   3.774
94433W        W62827   4.254   1.990   0.467
94434W        W62828   5.546  34.975  12.589
94435W        W62829  18.251   4.765  10.642
94436W        W62830  23.926  37.525  14.274
94437W        W62831  28.903  10.307   2.757
94438W        W62832   6.418  10.304   0.798
94439W        W62833  14.053  14.105   0.063
94440W        W62834  13.678  33.300  14.968
94441W        W62835   5.471  33.661  14.974
94442W        W62836  35.845  44.997  13.578
94443W        W62837  19.725  37.851   3.644
94444W        W62838  18.488  29.689   0.955
94445W        W62839  39.278  17.153  12.030
94446W        W62840  22.202   0.803  11.936
94447W        W62841   8.417   8.404  12.883
94448W        W62842  42.485  12.196  13.330
94449W        W62843  15.115   5.100   0.337
94450W        W62844  19.800  35.938   3.684
94451W        W62845  26.100  34.293   2.323
94452W        W62846  27.603  11.664  14.403
94453W        W62847  10.927  20.844  14.533
94454W        W62848  13.459  34.480   1.376
94455W        W62849  44.917  15.638  12.977
94456W        W62850  24.700  26.532   2.640
94457W        W62851  19.085  39.427  11.369
94458W        W62852  14.667   9.704   4.350
94459W        W62853  40.795   3.224  12.569
94460W        W62854  16.535  19.481  13.409
94461W        W62855  39.939  13.162  13.906
94462W        W62856  22.450  42.077   3.832
94463W        W62857  16.121   9.828   1.879
94464W        W62858   0.279  10.690   1.481
94465W        W62859  28.420   1.740  11.851
94466W        W62860  36.328  42.436  11.555
94467W        W62861   4.864  23.231   4.673
94468W        W62862  16.336   3.735   3.824
94469W        W62863  43.063  11.034  13.641
94470W        W62864  14.957  32.124  10.566
94471W        W62865  27.954   5.830   1.254
94472W        W62866  42.494  41.373  14.395
94473W        W62867  44.829  19.902   0.349
94474W        W62868  28.509  40.587  12.426
94475W        W62869  34.181  33.059  11.010
94476W        W62870  11.393  32.463   4.190
94477W        W62871  23.197   4.001  12.023
94478W        W62872  18.632  31.653  12.182
94479W        W62873  27.092   8.433   1.329
94480W        W62874  33.076  16.023  14.901
94481W        W62875  21.920   1.974   0.812
94482W        W62876  26.990  23.104   4.871
94483W        W62877  40.901  17.508   2.236
94484W        W62878  34.923   4.738  10.294
94485W        W62879  32.069  28.570   4.276
94486W        W62880   2.911  39.214   1.165
94487W        W62881  39.711  40.559   4.244
94488W        W62882  37.836  22.644  12.586
94489W        W62883  26.185  43.452   4.814
94490W        W62884   3.768  29.843  13.989
94491W        W62885  31.997  32.841  13.326
94492W        W62886  25.678  25.261  13.760
94493W        W62887  43.271  32.143   1.942
94494W        W62888  34.393  16.101   3.388
94495W        W62889  36.517   8.295   4.320
94496W        W62890  35.973   4.321  12.804
94497W        W62891   3.387  38.836  13.032
94498W        W62892  23.886   6.586  11.721
94499W        W62893  44.286  34.127   0.384
94500W        W62894  44.453   6.957   1.760
94501W        W62895  11.400   0.784  12.437
94502W        W62896   7.816  34.481  12.903
94503W        W62897  42.216  12.406  10.684
94504W        W62898   1.921   5.613   0.360
94505W        W62899   1.747  29.091   4.644
94506W        W62900  37.423  15.541   2.340
94507W        W62901  14.342  24.811   3.199
94508W        W62902   0.773  21.984  13.353
94509W        W62903  17.526  24.982  11.881
94510W        W62904  20.117  43.452   0.777
94511W        W62905   5.173  20.070   3.556
94512W        W62906   6.743  35.394   0.181
94513W        W62907  17.883  44.342   2.047
94514W        W62908  36.926  20.663   1.927
94515W        W62909  17.228   5.386  10.030
94516W        W62910  15.297  29.634  12.739
94517W        W62911  22.317  37.842  13.907
94518W        W62912   4.880  35.871   1.803
94519W        W62913  32.166  38.491  14.263
94520W        W62914  31.971  38.340  11.376
94521W        W62915  15.317  14.117  11.532
94522W        W62916  17.536  17.733  12.113
94523W        W62917  29.261  42.846  10.282
94524W        W62918  32.666  37.615  13.343
94525W        W62919  18.619  21.492  10.929
94526W        W62920   4.010  37.563  12.464
94527W        W62921  19.748   8.865  14.409
94528W        W62922  34.802   5.345  12.141
94529W        W62923  34.673  41.700  11.038
94530W        W62924  12.974  27.949  11.462
94531W        W62925  18.622   8.628  11.800
94532W        W62926  22.226  36.314  10.748
94533W        W62927   2.948  44.948  12.417
94534W        W62928  33.363  10.131   2.175
94535W        W62929   3.011  41.618  10.457
94536W        W62930  10.364  38.356   1.710
94537W        W62931  21.617  12.126   4.388
94538W        W62932  11.239  19.722  11.884
94539W        W62933  30.761   1.155   2.306
94540W        W62934  20.515   1.955  12.016
94541W        W62935  22.452  29.237  11.190
94542W        W62936  11.791  18.174  13.373
94543W        W62937   2.821  25.002   4.212
94544W        W62938  34.493  43.828  12.514
94545W        W62939  32.969  11.565   5.048
94546W        W62940  38.615   7.933   4.688
94547W        W62941   3.529  40.030   4.308
94548W        W62942  30.116  43.696   4.420
94549W        W62943  28.689  33.356  11.892
94550W        W62944  32.904  35.561   4.952
94551W        W62945   0.830  12.449  12.222
94552W        W62946  27.210  44.700  13.732
94553W        W62947  10.277  32.234   1.744
94554W        W62948  44.890  12.701  12.726
94555W        W62949   3.673  30.478  13.076
94556W        W62950  38.238   6.845   2.175
94557W        W62951  37.623  10.221  12.086
94558W        W62952  29.910   1.487   0.488
94559W        W62953  31.098  25.771  13.387
94560W        W62954  26.465  11.819  11.159
94561W        W62955  32.564  22.279  13.903
94562W        W62956  24.415  40.004   3.801
94563W        W62957  27.236   1.854   1.358
94564W        W62958  41.769  14.017   1.455
94565W        W62959  12.255   1.969   2.630
94566W        W62960  32.644  19.685  12.038
94567W        W62961  16.280  17.113  14.848
94568W        W62962   4.754  16.025  14.352
94569W        W62963   8.431  37.935  13.400
94570W        W62964  34.005  23.214  12.668
94571W        W62965  42.413  18.858   2.192
94572W        W62966  18.441  14.695  12.617
94573W        W62967  41.502  20.927  10.544
94574W        W62968  39.423  31.008  11.920
94575W        W62969  36.384  41.841   0.202
94576W        W62970  43.773  39.294  11.955
94577W        W62971  35.646  39.116  11.167
94578W        W62972  13.729   9.399  10.610
94579W        W62973  29.895  28.644  11.155
94580W        W62974  36.409  13.833   0.256
94581W        W62975  21.207  36.562   2.972
94582W        W62976   9.940  29.518   1.751
94583W        W62977  14.645  28.989   1.668
94584W        W62978  36.856   5.093  12.032
94585W        W62979   7.629  13.686   4.206
94586W        W62980  21.806   0.343   3.711
94587W        W62981  28.878   0.703   2.321
94588W        W62982  41.981   3.947  14.065
94589W        W62983  41.251   0.967  12.881
94590W        W62984  34.421  31.144  11.191
94591W        W62985  13.185  37.591   1.867
94592W        W62986  34.444  33.078  10.535
94593W        W62987  14.373  36.347  14.336
94594W        W62988  14.411  40.315   1.777
94595W        W62989   6.711  34.910  11.104
94596W        W62990  41.042  39.991   1.470
94597W        W62991   4.948  43.668   4.421
94598W        W62992  31.203   1.903  13.435
94599W        W62993  29.557  25.653   4.645
94600W        W62994  11.893  28.752  14.388
94601W        W62995  11.698  25.590   2.827
94602W        W62996   4.965   9.280  14.367
94603W        W62997  40.326  44.816   3.078
94604W        W62998  27.583   6.659   3.369
94605W        W62999  16.047  27.409   2.359
94606W        W63000  43.819  31.322  14.549
94607W        W63001  35.146   6.330  13.275
94608W        W63002  40.417  15.526   3.241
94609W        W63003   7.296   1.391  10.567
94610W        W63004  43.790  30.388   0.994
94611W        W63005  30.516  13.509  12.549
94612W        W63006  27.612   3.514  13.435
94613W        W63007   0.931   0.749  14.325
94614W        W63008  19.459  11.927   4.539
94615W        W63009  38.771  42.538  13.007
94616W        W63010  25.695   3.571   1.372
94617W        W63011  35.128  34.908   4.648
94618W        W63012  11.621   2.436   3.255
94619W        W63013  43.237  17.186  12.801
94620W        W63014  14.792   4.206  10.231
94621W        W63015   3.954   0.760   3.289
94622W        W63016  12.802  43.839   3.890
94623W        W63017  24.795  28.200  11.498
94624W        W63018  30.120  15.244   3.664
94625W        W63019  38.062  40.882  10.712
94626W        W63020  15.986   6.852  12.332
94627W        W63021  10.918   5.246  11.642
94628W        W63022  27.134  10.424  12.789
94629W        W63023  19.646  10.727  12.607
94630W        W63024  42.850  38.562   2.770
94631W        W63025  32.847  18.901   2.898
94632W        W63026  21.769   0.204   4.232
94633W        W63027   2.057  17.749   1.228
94634W        W63028   9.696   2.303   4.447
94635W        W63029  43.819   3.023  11.084
94636W        W63030  16.956  43.972  10.279
94637W        W63031  42.347   3.886  12.788
94638W        W63032  13.753  27.979  12.497
94639W        W63033  10.060   9.117  12.048
94640W        W63034   3.731  40.557   2.237
94641W        W63035  41.985   0.767  13.450
94642W        W63036  28.235  39.990   4.878
94643W        W63037  32.880  14.229   3.538
94644W        W63038  39.168  31.093  14.569
94645W        W63039  38.247  14.109  12.489
94646W        W63040  28.725   0.057   4.959
94647W        W63041  29.611   0.309  14.981
94648W        W63042  25.670  41.902   1.689
94649W        W63043  19.027  18.251   2.595
94650W        W63044  23.102  38.576   2.758
94651W        W63045  14.608  37.416   1.716
94652W        W63046   4.358  29.897  11.667
94653W        W63047  43.021  28.648   2.222
94654W        W63048  33.937  26.726  12.387
94655W        W63049  24.182  17.122  14.853
94656W        W63050  42.473  18.602   2.663
94657W        W63051  36.015  29.117   0.939
94658W        W63052  19.189   9.245  14.969
94659W        W63053  39.437  11.930  13.416
94660W        W63054  35.566   5.448   1.849
94661W        W63055   6.136  36.476   1.931
94662W        W63056   9.768  35.843   1.695
94663W        W63057  23.982  22.692  14.859
94664W        W63058  17.485   8.079  10.337
94665W        W63059  15.091  28.780  10.740
94666W        W63060  10.644   5.995   1.284
94667W        W63061   3.281   0.364   4.614
94668W        W63062  36.937  40.177   4.270
94669W        W63063  33.159  28.943   4.758
94670W        W63064  32.077  14.664   0.824
94671W        W63065   1.470  11.188   0.252
94672W        W63066   8.765  35.930   1.423
94673W        W63067   4.464  13.031   5.061
94674W        W63068  33.677   2.908   0.411
94675W        W63069  42.275  40.952   0.999
94676W        W63070  30.208  42.986   3.710
94677W        W63071  42.019  43.347  11.154
94678W        W63072  28.496  27.610  13.045
94679W        W63073  22.646  20.364  14.122
94680W        W63074  33.464  26.741  13.355
94681W        W63075  11.212  33.512   3.702
94682W        W63076  11.153   8.980  12.029
94683W        W63077  28.683  25.257   3.683
94684W        W63078   3.591  39.005  10.623
94685W        W63079  34.537  10.845  11.711
94686W        W63080   0.374  28.008   2.152
94687W        W63081  19.590  38.856   0.927
94688W        W63082  29.597  35.097  12.143
94689W        W63083  44.666   5.366   0.370
94690W        W63084   7.182  12.054  13.374
94691W        W63085  37.476  14.790  11.136
94692W        W63086  32.093  27.727  12.497
94693W        W63087   8.262  12.317   4.260
94694W        W63088  11.873  20.589  10.582
94695W        W63089  24.094  26.088   3.408
94696W        W63090  35.518   3.348  12.393
94697W        W63091  15.876  27.862   1.509
94698W        W63092  24.264  23.632   1.409
94699W        W63093  25.253  42.071   1.951
94700W        W63094   7.741   9.056  11.585
94701W        W63095  26.137  31.969  13.855
94702W        W63096  37.505  21.499  14.766
94703W        W63097  23.807   9.382  10.780
94704W        W63098  31.603  27.932  14.708
94705W        W63099  43.908  36.569   0.371
94706W        W63100  30.626   7.130   3.855
94707W        W63101  34.084  36.873   2.769
94708W        W63102  16.243  11.553   2.746
94709W        W63103  30.006  36.009  11.586
94710W        W63104  12.722  20.219   3.675
94711W        W63105   9.813   3.363  11.115
94712W        W63106  43.445  41.762   4.012
94713W        W63107  17.328  38.637   4.069
94714W        W63108  28.087  16.136   0.278
94715W        W63109  31.624  37.962  11.497
94716W        W63110  40.342  37.322  11.042
94717W        W63111  39.897  10.612  14.137
94718W        W63112   9.258  34.894   3.662
94719W        W63113  29.600  25.225  12.426
94720W        W63114   6.228  17.356  12.075
94721W        W63115  43.888  11.128  13.396
94722W        W63116  16.724  38.074   3.383
94723W        W63117  16.218   6.515   0.730
94724W        W63118  31.350   6.878   2.578
94725W        W63119  39.560  26.314  11.551
94726W        W63120   0.778  25.511  11.208
94727W        W63121   3.876  35.662   1.547
94728W        W63122  14.485   8.766  12.012
94729W        W63123  16.463  43.163  13.607
94730W        W63124  26.817  11.611  14.087
94731W        W63125  17.529   7.460   2.686
94732W        W63126  21.581   2.305   1.896
94733W        W63127   2.293  41.367   0.852
94734W        W63128  34.953  16.421   0.889
94735W        W63129   9.354  43.670  13.514
94736W        W63130  13.083  18.086  12.514
94737W        W63131  14.830  27.155  11.288
94738W        W63132  24.961  35.817  13.097
94739W        W63133  26.592  22.064  11.274
94740W        W63134  34.341   6.112   3.635
94741W        W63135  26.637   2.889   1.994
94742W        W63136  22.149  15.261  10.748
94743W        W63137  19.339  41.011   0.915
94744W        W63138  41.311  10.220  12.420
94745W        W63139  37.025  44.814  11.228
94746W        W63140  10.343   4.838   0.685
94747W        W63141  18.803  30.941  14.406
94748W        W63142  36.748  10.688   0.337
94749W        W63143   5.169  42.769   4.559
94750W        W63144  33.524  26.743   0.500
94751W        W63145   3.026   0.396  14.755
94752W        W63146  33.724   4.176  10.154
94753W        W63147  24.040  34.376   0.817
94754W        W63148  43.062  38.495   4.629
94755W        W63149  29.748  44.044   4.214
94756W        W63150  18.549  23.622  12.944
94757W        W63151  42.196  22.748   2.109
94758W        W63152  34.086  38.359   3.837
94759W        W63153  17.302   0.927  11.095
94760W        W63154  39.520  40.063   3.585
94761W        W63155   4.157  26.400  14.856
94762W        W63156  32.825  19.425   2.776
94763W        W63157   6.143  35.845  11.641
94764W        W63158  41.903   9.914   3.115
94765W        W63159  29.369  14.832  12.492
94766W        W63160  35.608  34.867   0.529
94767W        W63161   6.869   5.271   2.893
94768W        W63162   5.032   1.018  11.729
94769W        W63163   4.908  41.983   1.554
94770W        W63164  10.564  13.215  14.870
94771W        W63165  43.991  26.452   4.612
94772W        W63166  12.583  41.102   3.660
94773W        W63167  37.881  18.730  13.647
94774W        W63168  32.338   3.868   4.713
94775W        W63169  38.782  10.183   2.777
94776W        W63170  44.921  21.558  12.924
94777W        W63171  23.862   1.460   2.265
94778W        W63172  44.938  27.777  13.692
94779W        W63173  28.718  36.083   0.295
94780W        W63174  30.154   0.974  13.816
94781W        W63175  29.831  41.361  11.065
94782W        W63176  36.621   9.898  14.857
94783W        W63177  28.538   0.268  11.664
94784W        W63178   5.187  11.799  12.422
94785W        W63179   1.021   4.828  12.941
94786W        W63180  37.341  18.753  12.857
94787W        W63181  24.510  21.766   3.215
94788W        W63182  20.470  26.516   2.270
94789W        W63183  38.086   3.177   0.658
94790W        W63184  19.281  22.716   2.665
94791W        W63185  44.025  21.839   2.463
94792W        W63186  24.121   8.601   4.568
94793W        W63187  31.785  11.588  10.482
94794W        W63188  43.596   5.254  11.442
94795W        W63189  35.824   7.228   3.732
94796W        W63190   1.756  35.096  12.032
94797W        W63191  11.029  11.765   3.212
94798W        W63192  31.000   7.476  12.112
94799W        W63193   5.740  43.957  10.785
94800W        W63194  41.609   7.730  14.744
94801W        W63195  23.961  30.683   4.161
94802W        W63196  24.943   0.140   5.135
94803W        W63197   9.052  36.870   2.156
94804W        W63198  22.871  18.324   1.157
94805W        W63199   5.286  14.773  11.581
94806W        W63200  37.838  15.985  14.980
94807W        W63201  32.547   6.191  11.102
94808W        W63202  19.959  32.445   1.766
94809W        W63203  15.340  43.311   2.823
94810W        W63204  10.538  18.304  12.471
94811W        W63205  27.585  22.695   2.704
94812W        W63206  25.598   5.202  11.443
94813W        W63207   9.566  26.085   2.755
94814W        W63208  37.915  23.227   4.160
94815W        W63209   4.353  28.865   4.217
94816W        W63210   3.786  24.546   0.477
94817W        W63211  27.419  20.179   3.701
94818W        W63212  10.837  32.534  12.945
94819W        W63213   0.029  10.174  11.570
94820W        W63214  13.162  15.152  13.550
94821W        W63215  33.749   1.243  14.237
94822W        W63216   7.843  39.565   2.292
94823W        W63217   6.263   6.729   3.770
94824W        W63218  18.764  36.050  10.947
94825W        W63219  23.489  17.807   1.913
94826W        W63220  13.383   2.499  10.593
94827W        W63221   6.653  36.077   2.287
94828W        W63222  13.544  32.166   3.298
94829W        W63223  28.402   3.441  10.657
94830W        W63224  15.131   1.308   0.314
94831W        W63225  34.713  15.750   2.158
94832W        W63226  23.497  14.990   4.513
94833W        W63227  35.528  25.068  10.399
94834W        W63228   9.672  17.160   2.181
94835W        W63229   5.981  38.346  13.481
94836W        W63230  17.576   0.945   1.639
94837W        W63231  44.018  15.564   1.913
94838W        W63232  43.761   4.444   0.834
94839W        W63233  35.883  28.086  13.741
94840W        W63234  21.678   2.420   0.547
94841W        W63235  29.097   0.361  13.889
94842W        W63236  22.876  44.356  12.841
94843W        W63237  18.774  30.625  12.079
94844W        W63238  22.187  16.277  12.900
94845W        W63239   2.309  40.845   2.465
94846W        W63240  38.881  30.663   4.386
94847W        W63241  18.509  44.891   0.868
94848W        W63242  24.623  37.549  12.127
94849W        W63243  23.545   1.570  14.449
94850W        W63244  10.978  29.443   2.426
94851W        W63245  27.564  37.020   3.853
94852W        W63246   3.006  39.846  12.111
94853W        W63247  40.721   5.371   2.136
94854W        W63248  17.820   3.614  13.274
94855W        W63249  30.698  11.893  11.137
94856W        W63250  22.139   4.917   3.181
94857W        W63251  28.158  13.805   1.954
94858W        W63252   1.608   2.757   1.233
94859W        W63253  14.442  14.691  13.998
94860W        W63254  23.022  40.503   1.886
94861W        W63255   4.355  33.878  11.966
94862W        W63256  15.089  35.834   4.213
94863W        W63257   8.910  27.023  11.416
94864W        W63258  16.163  32.371   0.829
94865W        W63259  31.952  12.983   5.073
94866W        W63260   6.182  36.945   0.202
94867W        W63261   0.701  31.503   0.850
94868W        W63262   4.856  23.060   2.100
94869W        W63263  17.402  27.481  12.988
94870W        W63264   1.354   6.425  12.451
94871W        W63265  12.443  33.326  11.147
94872W        W63266  28.157  17.655   1.282
94873W        W63267   1.565  31.482  14.797
94874W        W63268  44.895  40.507  11.362
94875W        W63269  11.190   4.717   1.323
94876W        W63270  41.812  42.165  13.993
94877W        W63271  28.350  22.470   0.003
94878W        W63272  27.916   9.094  14.822
94879W        W63273   7.323  24.043  11.938
94880W        W63274   9.458  26.213  14.594
94881W        W63275  22.679  26.634   2.012
94882W        W63276  42.099  16.482  11.173
94883W        W63277  28.642  24.944   4.138
94884W        W63278  34.849  19.304   4.176
94885W        W63279  35.041  12.921  13.987
94886W        W63280  10.736  41.520   3.653
94887W        W63281  12.313  11.641   1.250
94888W        W63282   3.979  38.621   4.025
94889W        W63283   9.657  40.843   3.619
94890W        W63284  36.316   4.798  11.011
94891W        W63285   6.333  35.542   0.486
94892W        W63286   6.114   0.887   0.301
94893W        W63287  20.599  19.819  12.368
94894W        W63288  23.601  23.049  14.299
94895W        W63289  41.057   8.466   0.544
94896W        W63290  18.551  44.495  14.885
94897W        W63291  44.378   5.420   4.060
94898W        W63292   4.652  38.564  13.926
94899W        W63293  22.284  43.641  14.419
94900W        W63294   3.772  37.753   3.593
94901W        W63295  14.230   9.208   0.660
94902W        W63296  36.331  39.045  11.197
94903W        W63297  44.029  44.044  11.947
94904W        W63298   3.795  11.263  14.573
94905W        W63299  25.685  11.209   0.423
94906W        W63300   8.100  25.164  14.470
94907W        W63301  23.610  20.153  11.435
94908W        W63302  26.565   4.371   0.345
94909W        W63303  15.228  41.896  10.667
94910W        W63304   6.035  14.674   4.138
94911W        W63305  24.929  16.861   3.285
94912W        W63306  17.589  22.061  14.807
94913W        W63307  27.124  33.315   3.737
94914W        W63308  37.760  32.597   3.420
94915W        W63309  21.986  14.952   4.552
94916W        W63310  18.105  12.515   0.373
94917W        W63311  16.526  23.560  12.922
94918W        W63312  17.663  30.831  13.097
94919W        W63313   2.707  11.602   2.693
94920W        W63314  28.008   3.916   3.637
94921W        W63315  27.586  27.240   1.889
94922W        W63316  36.049  40.478  11.129
94923W        W63317   7.753  15.721   4.545
94924W        W63318  22.526  21.520   4.330
94925W        W63319  10.252  32.141  11.196
94926W        W63320  38.465  20.566   2.846
94927W        W63321  16.403  17.404  12.966
94928W        W63322  36.437  10.330   1.617
94929W        W63323  15.385  13.605   1.536
94930W        W63324  15.142  37.177  12.499
94931W        W63325  40.647  27.217  14.651
94932W        W63326  30.193   2.281   3.986
94933W        W63327  18.216  14.041   0.249
94934W        W63328  13.114  18.653  14.359
94935W        W63329  31.980  11.394  12.502
94936W        W63330  12.857  27.273  12.519
94937W        W63331  41.875  39.569   4.061
94938W        W63332   4.868   1.370   4.195
94939W        W63333  21.758   2.303  12.409
94940W        W63334   8.216  14.838  13.682
94941W        W63335  41.589   2.816   3.010
94942W        W63336  32.778  11.840   2.117
94943W        W63337  30.522  44.797   0.914
94944W        W63338  24.945  29.941  11.909
94945W        W63339   1.981  43.328   3.161
94946W        W63340  10.633  22.739  11.085
94947W        W63341  26.118  35.028   0.447
94948W        W63342  30.533  11.655   1.717
94949W        W63343  43.919  38.379   0.191
94950W        W63344   5.272   0.937   1.352
94951W        W63345   4.399  29.650   0.799
94952W        W63346   5.275  35.957  12.861
94953W        W63347  21.287   4.342  11.542
94954W        W63348  14.739  14.629  12.085
94955W        W63349  20.755  44.929   4.121
94956W        W63350  42.002  19.550  11.970
94957W        W63351  20.690  25.298  11.948
94958W        W63352  39.535  33.441   1.842
94959W        W63353  16.559  38.313   0.415
94960W        W63354  26.101   1.730  14.943
94961W        W63355  43.726  34.857  12.923
94962W        W63356   6.918  27.071  10.251
94963W        W63357  36.011   0.461  14.788
94964W        W63358  41.971  27.461   2.492
94965W        W63359  41.571  37.471   3.530
94966W        W63360  10.279  34.786  13.576
94967W        W63361  16.208   1.814   2.792
94968W        W63362  44.957  38.520  12.493
94969W        W63363  19.828   4.343  13.943
94970W        W63364  29.299  23.565   2.314
94971W        W63365   3.592  39.941  13.486
94972W        W63366  21.308  44.940  12.401
94973W        W63367  43.439  12.064   0.881
94974W        W63368  33.315  44.602   9.951
94975W        W63369  12.825  22.049   4.041
94976W        W63370  30.220  29.408  13.529
94977W        W63371  17.379  40.077  10.719
94978W        W63372  39.948  30.399   3.573
94979W        W63373  36.005  40.019   4.563
94980W        W63374  19.059   9.371   4.163
94981W        W63375  36.018   2.556  14.908
94982W        W63376  22.237  31.942   4.747
94983W        W63377  40.961  32.175   2.433
94984W        W63378  23.502  43.861   1.869
94985W        W63379  37.416  25.937   4.154
94986W        W63380   5.231   0.834   3.787
94987W        W63381   0.448  24.138  13.486
94988W        W63382  33.949  35.475  11.510
94989W        W63383  24.651   3.007   3.837
94990W        W63384  26.046  28.980  10.889
94991W        W63385  25.311  40.592  12.391
94992W        W63386  29.591   4.729   0.261
94993W        W63387   3.465  18.535  12.027
94994W        W63388   3.854  10.619   0.429
94995W        W63389  27.937  27.081   4.493
94996W        W63390  28.724  36.419  14.065
94997W        W63391  31.985  31.546  10.645
94998W        W63392  20.750  35.114   0.685
94999W        W63393  33.483  22.192   2.638
95000W        W63394   2.001  44.489   3.587
95001W        W63395  15.813  29.033  11.068
95002W        W63396  29.572  19.110   2.815
95003W        W63397  27.202  22.094   2.878
95004W        W63398  41.816   3.310  13.476
95005W        W63399  26.513  11.708   1.949
95006W        W63400  27.003  12.370  14.319
95007W        W63401  23.333  14.680  14.876
95008W        W63402   6.902  43.737  14.251
95009W        W63403  32.674  20.292  12.885
95010W        W63404  17.246  29.008  13.951
95011W        W63405  31.493   3.806   3.376
95012W        W63406  40.059  19.836  13.475
95013W        W63407   0.270  22.417  10.783
95014W        W63408  20.936  13.612   3.274
95015W        W63409  42.082  35.401   1.803
95016W        W63410  42.134  43.947  13.511
95017W        W63411  40.911  14.046   4.704
95018W        W63412  31.304  40.043   5.104
95019W        W63413  10.020  36.050  13.719
95020W        W63414  41.150  38.590   5.019
95021W        W63415   3.939  38.078   3.209
95022W        W63416  10.199  21.809   3.771
95023W        W63417  22.581  12.989  12.370
95024W        W63418  32.043   5.737  12.987
95025W        W63419  17.286  18.469  12.410
95026W        W63420   0.900  20.720   2.755
95027W        W63421   5.167  15.985   4.538
95028W        W63422  14.750  43.192   0.960
95029W        W63423  27.951  31.523  12.970
95030W        W63424  21.954  17.557  12.519
95031W        W63425  33.284  20.616   2.216
95032W        W63426  26.698  15.243   4.616
95033W        W63427  36.995   9.333   4.343
95034W        W63428  34.903  37.341   3.999
95035W        W63429   6.772  33.995   0.036
95036W        W63430   8.307  35.470  13.871
95037W        W63431   8.095   3.248   2.301
95038W        W63432  39.053  14.089   4.387
95039W        W63433   7.328  28.821   2.189
95040W        W63434   5.665  25.126   3.172
95041W        W63435  23.702  22.301  12.070
95042W        W63436  37.050  15.236   0.812
95043W        W63437  39.515  11.888   2.800
95044W        W63438  36.140  33.577  14.555
95045W        W63439  15.586  16.625  14.284
95046W        W63440  23.451  18.185   0.292
95047W        W63441  43.340  19.041   4.070
95048W        W63442  16.824  43.695  14.947
95049W        W63443  20.763   6.834  12.562
95050W        W63444  12.564  19.202  13.822
95051W        W63445  40.007  11.727   1.699
95052W        W63446   8.090  12.366   4.764
95053W        W63447  40.002  26.021  11.527
95054W        W63448  20.808   0.319  13.019
95055W        W63449  18.036  33.497  11.084
95056W        W63450  32.054  15.021  10.588
95057W        W63451  26.660  10.702  10.610
95058W        W63452   9.557   6.900   3.090
95059W        W63453  40.389   0.166   4.350
95060W        W63454  32.897   1.503   4.750
95061W        W63455  30.388  31.515  11.962
95062W        W63456  24.163  18.804  11.689
95063W        W63457  13.597  22.590  11.519
95064W        W63458  27.553   6.859   4.283
95065W        W63459  24.456  44.129  11.096
95066W        W63460  34.862   6.692   2.448
95067W        W63461  13.118  31.582   2.801
95068W        W63462  21.291  11.833  12.451
95069W        W63463  28.764   4.343  14.323
95070W        W63464  14.311  14.886   2.834
95071W        W63465  41.329  40.494  12.911
95072W        W63466   0.308  35.994  13.352
95073W        W63467  29.038  12.418   4.540
95074W        W63468  36.959   4.316  10.662
95075W        W63469   7.201  39.096  10.702
95076W        W63470  25.630  29.711   1.255
95077W        W63471  19.211  35.510  13.228
95078W        W63472  36.396  13.805   1.196
95079W        W63473  13.094  41.825  12.869
95080W        W63474   6.848  39.217  13.452
95081W        W63475  24.205  43.825  11.984
95082W        W63476  14.391  36.563   3.700
95083W        W63477  17.505  37.003  12.486
95084W        W63478  13.782  40.235  13.484
95085W        W63479  15.500   1.650   1.709
95086W        W63480  39.771   6.295  11.125
95087W        W63481  37.376  29.610   2.821
95088W        W63482   1.242  12.763   4.806
95089W        W63483   2.909   5.718   0.108
95090W        W63484   9.852  16.171  14.890
95091W        W63485   4.477  12.088  12.034
95092W        W63486  28.220   1.351   2.294
95093W        W63487   3.471  35.662  13.393
95094W        W63488  18.897  43.401  13.610
95095W        W63489  37.842  13.928   3.138
95096W        W63490  40.117  21.586   0.601
95097W        W63491  22.261   4.107  10.199
95098W        W63492  14.870  18.111  10.552
95099W        W63493  40.735  21.762  11.648
95100W        W63494  41.434  41.569  12.906
95101W        W63495   3.488  32.085  14.378
95102W        W63496  23.604  32.469  11.497
95103W        W63497  18.468  40.660  11.939
95104W        W63498  37.236  12.107  13.460
95105W        W63499   1.058  37.879   3.718
95106W        W63500  12.370  34.069  10.508
95107W        W63501  11.565  16.951   2.079
95108W        W63502  29.200   2.849  12.572
95109W        W63503  32.309  38.992   3.253
95110W        W63504  13.515  19.097  12.011
95111W        W63505  21.455   3.231  11.997
95112W        W63506   0.506   9.813   2.007
95113W        W63507  27.065  42.410  10.145
95114W        W63508  17.799  30.161  11.068
95115W        W63509  21.699  20.501  10.753
95116W        W63510  16.794  28.313  12.377
95117W        W63511  17.687   3.790   3.720
95118W        W63512  26.417  41.845  13.376
95119W        W63513  30.481  32.147   3.972
95120W        W63514  39.542   9.770   0.965
95121W        W63515  14.280  12.022  10.683
95122W        W63516   1.762   1.392   0.965
95123W        W63517   9.816  35.321   1.729
95124W        W63518  39.465  43.528   3.422
95125W        W63519  42.637  18.845   1.348
95126W        W63520   2.470  40.437  11.664
95127W        W63521  40.256  12.066   0.916
95128W        W63522  28.612   8.195  14.584
95129W        W63523   5.776  30.645  10.780
95130W        W63524   0.958  25.345   4.003
95131W        W63525  32.305  35.905   4.108
95132W        W63526   2.925  44.232   2.153
95133W        W63527  24.635  22.217  10.907
95134W        W63528   7.185  29.146   4.098
95135W        W63529   0.969  28.675  13.021
95136W        W63530  24.129  32.967   0.529
95137W        W63531  30.955   8.374   0.767
95138W        W63532  35.066   6.333  12.775
95139W        W63533   9.289  19.074   2.766
95140W        W63534  42.260  23.276  14.454
95141W        W63535  27.278  36.587   2.802
95142W        W63536  17.530  27.881   4.206
95143W        W63537  40.415   0.745   3.283
95144W        W63538  15.066   0.740  13.017
95145W        W63539  13.300  18.160  14.475
95146W        W63540  25.038  44.786   3.927
95147W        W63541  43.519  23.333  13.491
95148W        W63542  25.498  33.025  11.836
95149W        W63543  20.481  31.628   2.675
95150W        W63544  37.981   8.900   2.850
95151W        W63545  44.105   7.842  11.003
95152W        W63546  30.866   3.118   2.938
95153W        W63547  18.349   3.261   4.114
95154W        W63548  27.472   3.634  12.560
95155W        W63549  11.703  13.602   3.305
95156W        W63550  17.063  44.569  13.973
95157W        W63551  18.297   0.228  10.568
95158W        W63552  33.566  25.704   4.078
95159W        W63553  16.031  34.903  14.940
95160W        W63554  34.086  14.960  12.551
95161W        W63555   7.313  39.835  13.042
95162W        W63556  37.636  22.274  11.649
95163W        W63557  14.142  21.551  14.232
95164W        W63558  20.144  18.812   3.548
95165W        W63559  42.533  19.808  10.997
95166W        W63560  22.829  31.497   4.187
95167W        W63561  42.002   7.585   1.861
95168W        W63562  39.801  14.330   1.265
95169W        W63563   6.678  24.624  12.878
95170W        W63564  27.774  41.299  12.429
95171W        W63565   6.882  18.732   2.435
95172W        W63566   4.061  40.910   2.697
95173W        W63567  12.426  29.620  12.535
95174W        W63568  13.611  24.975   1.379
95175W        W63569  13.783   5.749  12.086
95176W        W63570  34.027  26.477  10.533
95177W        W63571  11.854  28.868   4.101
95178W        W63572  15.924  27.903   2.353
95179W        W63573  35.876  30.909  10.553
95180W        W63574  13.137  15.841   2.830
95181W        W63575  26.559  41.124  10.620
95182W        W63576  37.768  41.797   0.874
95183W        W63577  25.011  16.282  10.958
95184W        W63578  10.962  39.367   3.172
95185W        W63579  32.063  10.250   2.659
95186W        W63580  40.528  34.058  12.318
95187W        W63581  18.143   1.939   0.766
95188W        W63582   9.654  12.154   3.220
95189W        W63583  44.420   7.683   3.790
95190W        W63584  14.224  39.303  14.367
95191W        W63585   9.821  26.833   0.904
95192W        W63586  22.518  41.084   3.618
95193W        W63587  43.865  22.948  11.923
95194W        W63588   7.902  10.231   2.304
95195W        W63589   9.925  17.284   1.731
95196W        W63590  37.525  26.095   4.672
95197W        W63591  24.167  44.792   9.760
95198W        W63592  38.837  11.839  14.398
95199W        W63593  33.499  13.823   2.220
95200W        W63594  19.526  19.043  14.904
95201W        W63595   8.494   8.713   4.889
95202W        W63596  39.428  32.319  13.969
95203W        W63597  31.560  36.050   2.748
95204W        W63598  24.649   7.491  12.256
95205W        W63599  30.123  44.181   4.577
95206W        W63600   5.249  17.686   3.597
95207W        W63601  35.788   7.390  12.437
95208W        W63602  13.527  19.297  11.549
95209W        W63603  23.460   7.421   0.434
95210W        W63604  32.449  35.993  14.067
95211W        W63605   9.377  36.941  14.290
95212W        W63606  21.744   7.424   1.472
95213W        W63607  38.061  17.931  12.963
95214W        W63608  41.272  35.342   1.387
95215W        W63609  42.825  19.921  14.435
95216W        W63610   8.233  31.373  12.078
95217W        W63611   2.954  19.600  13.591
95218W        W63612  28.108  29.127   9.852
95219W        W63613  17.546  44.882   3.637
95220W        W63614  13.295  23.827   4.169
95221W        W63615  15.814  14.806   4.089
95222W        W63616  24.212  20.004  12.138
95223W        W63617  19.663  40.940  14.548
95224W        W63618  39.055  41.507  11.517
95225W        W63619  39.066  16.764   1.663
95226W        W63620  35.696   9.222   4.709
95227W        W63621  24.199   8.763  10.153
95228W        W63622   5.817  27.849   2.316
95229W        W63623   9.225  43.742   3.775
95230W        W63624  19.002  30.078  14.552
95231W        W63625  37.608  16.661  11.558
95232W        W63626  15.178  23.071  13.458
95233W        W63627  13.653  41.390   1.798
95234W        W63628   9.870  21.550  11.517
95235W        W63629  44.313  31.658  12.503
95236W        W63630   0.187  29.401   0.189
95237W        W63631  12.619  44.424  12.467
95238W        W63632  33.966  14.040  13.873
95239W        W63633  30.705   6.554   2.712
95240W        W63634  35.392  19.130   2.073
95241W        W63635  14.427  24.789  13.101
95242W        W63636   3.230  24.243  14.719
95243W        W63637  39.436  23.009   3.336
95244W        W63638   7.943   2.848   3.886
95245W        W63639  14.206  23.931   2.665
95246W        W63640  18.571  18.414  13.507
95247W        W63641  42.725  44.038   0.360
95248W        W63642  20.188  30.467  12.813
95249W        W63643  14.355  29.068   0.742
95250W        W63644  33.923  16.876  12.007
95251W        W63645  27.927   2.125   4.086
95252W        W63646  27.808  16.578   0.158
95253W        W63647  35.340  26.860   4.177
95254W        W63648  27.888  16.593  14.362
95255W        W63649  31.961  23.482  11.829
95256W        W63650  36.512   5.937   2.114
95257W        W63651  31.181   9.247  12.915
95258W        W63652  17.408  16.707   0.377
95259W        W63653  37.489  13.685   3.415
95260W        W63654  29.116  22.498   3.423
95261W        W63655  22.601  15.184  11.730
95262W        W63656  17.602   0.892   3.462
95263W        W63657  15.080  24.188  12.955
95264W        W63658  39.642  41.030   2.246
95265W        W63659  28.784  26.655  11.530
95266W        W63660   9.305  32.298   3.185
95267W        W63661   1.026  38.860  14.122
95268W        W63662  44.711  27.435  10.709
95269W        W63663  40.427  15.873  11.517
95270W        W63664  44.317  43.480   4.156
95271W        W63665  18.509  27.677  12.025
95272W        W63666  19.607  13.055   1.283
95273W        W63667   1.208  24.317   1.505
95274W        W63668  14.871   8.827   4.676
95275W        W63669  29.310  41.421  12.611
95276W        W63670  15.265  26.597   4.111
95277W        W63671  40.420  23.153   3.316
95278W        W63672  42.316  27.358  13.185
95279W        W63673  18.229  42.482  11.134
95280W        W63674  15.320  14.856   4.794
95281W        W63675  40.131  27.005  11.567
95282W        W63676  32.720  33.565  10.893
95283W        W63677  42.699  26.697   4.314
95284W        W63678  36.005   3.387   1.931
95285W        W63679  29.828  43.750  11.688
95286W        W63680  17.418  37.390   9.924
95287W        W63681  40.289  15.605   2.232
95288W        W63682  22.596  39.717  10.089
95289W        W63683  11.175  10.930   2.859
95290W        W63684   5.922  43.831  12.510
95291W        W63685  29.224   3.791   4.205
95292W        W63686   9.456  22.152   3.547
95293W        W63687  41.577  31.141  13.747
95294W        W63688  20.394   5.554   0.312
95295W        W63689   5.404  25.806   3.654
95296W        W63690  11.751  41.278  14.953
95297W        W63691  34.865  13.902  11.936
95298W        W63692  16.054  22.692  14.819
95299W        W63693   9.177   9.766   2.371
95300W        W63694  32.645  14.735   4.208
95301W        W63695  18.059   8.746   2.463
95302W        W63696  17.699  10.724  10.695
95303W        W63697  44.399  17.073   1.178
95304W        W63698   6.501  42.006  13.002
95305W        W63699  14.021   2.103   2.306
95306W        W63700  38.061  34.444  12.060
95307W        W63701  17.948  44.503  14.303
95308W        W63702   2.191  24.754   0.790
95309W        W63703  31.090  29.335   1.373
95310W        W63704  18.892  44.487   1.677
95311W        W63705  25.041  14.759   1.136
95312W        W63706  25.005  30.944   2.763
95313W        W63707  27.745  21.788  14.237
95314W        W63708   5.867   0.739  13.231
95315W        W63709  34.954   0.714   4.525
95316W        W63710   1.290  43.316   0.417
95317W        W63711  34.222  24.591  10.762
95318W        W63712  13.147  19.238  12.377
95319W        W63713  13.744   1.820   1.376
95320W        W63714  19.691  32.325   3.685
95321W        W63715   4.736  17.815   4.926
95322W        W63716   7.511  17.103   1.855
95323W        W63717  32.356  12.849  11.656
95324W        W63718  27.691  37.880   0.920
95325W        W63719  32.830  20.994  11.349
95326W        W63720   3.928  19.765   0.399
95327W        W63721  20.603  20.578  11.240
95328W        W63722  41.353  38.764  13.907
95329W        W63723  40.004  30.639  14.982
95330W        W63724  35.151  11.334  13.061
95331W        W63725  25.861  10.385  11.616
95332W        W63726  15.102   4.364   0.820
95333W        W63727  12.351   0.940  11.166
95334W        W63728  18.701  25.616  10.736
95335W        W63729  37.084  40.461   1.822
95336W        W63730  13.453   9.647  11.618
95337W        W63731  22.461  10.302  11.652
95338W        W63732   5.749  30.195   1.904
95339W        W63733  23.213   7.794  12.478
95340W        W63734  42.099   1.206  11.402
95341W        W63735  29.297  32.686   1.528
95342W        W63736  26.925  24.194   4.869
95343W        W63737  25.606  26.129  13.240
95344W        W63738  19.544  35.475  10.832
95345W        W63739  30.458  27.574  12.157
95346W        W63740  42.975  34.960   4.744
95347W        W63741  37.767   4.926  12.490
95348W        W63742  39.174   6.788  12.847
95349W        W63743  39.495  27.458  10.747
95350W        W63744  22.314  44.486   1.392
95351W        W63745  17.292   1.425  14.858
95352W        W63746  26.858  17.975   1.304
95353W        W63747  33.427   9.608   4.143
95354W        W63748  41.047  13.023   0.925
95355W        W63749  15.838  12.907  14.577
95356W        W63750   7.004  43.373  13.890
95357W        W63751  33.784   6.416  14.361
95358W        W63752  15.702  23.560   3.073
95359W        W63753   3.761   4.614   2.036
95360W        W63754  35.211   2.133   5.094
95361W        W63755  16.352  44.835  12.511
95362W        W63756  20.615  13.794   4.475
95363W        W63757  33.517  44.258   0.420
95364W        W63758   3.266   4.671   2.279
95365W        W63759  29.726  40.840   1.850
95366W        W63760   4.279  24.767  10.598
95367W        W63761  30.152  34.850  12.969
95368W        W63762  10.704  43.826  12.555
95369W        W63763  29.049   2.221   2.549
95370W        W63764  43.957  30.010   4.196
95371W        W63765   2.001  21.871  13.024
95372W        W63766  19.261  31.415   3.806
95373W        W63767   2.882  30.966  14.551
95374W        W63768  10.080  13.321  13.778
95375W        W63769  38.272  17.840   0.645
95376W        W63770  15.640  15.108   0.846
95377W        W63771   0.444  14.234  12.427
95378W        W63772  23.623  15.110  12.100
95379W        W63773  28.964  34.980  14.277
95380W        W63774  42.790  34.819   9.908
95381W        W63775  43.983  12.174   2.111
95382W        W63776  43.582   9.218  12.789
95383W        W63777  24.097  30.737  12.945
95384W        W63778  12.634  40.270  12.018
95385W        W63779  27.859   6.500   1.947
95386W        W63780   2.925  34.025   2.672
95387W        W63781   3.427   0.747   0.859
95388W        W63782   3.886  20.312   4.890
95389W        W63783  35.591  39.006   2.583
95390W        W63784  16.418  12.253   0.336
95391W        W63785  15.363  21.440   2.165
95392W        W63786  43.545  21.379   4.551
95393W        W63787  44.811  20.946   3.202
95394W        W63788  36.683  37.899  13.488
95395W        W63789  32.846  17.785  14.405
95396W        W63790   8.976  22.514  11.880
95397W        W63791  37.171  26.503   1.351
95398W        W63792  18.106  31.128   3.240
95399W        W63793  40.143   3.683  10.773
95400W        W63794  28.407  33.600   4.065
95401W        W63795   8.770  26.999   1.691
95402W        W63796  41.431  19.040   3.804
95403W        W63797  18.245  35.313  10.996
95404W        W63798  11.733   8.962   5.052
95405W        W63799  38.643  20.140  12.738
95406W        W63800  38.836  20.036   0.170
95407W        W63801  36.892  41.332   2.988
95408W        W63802  18.726  18.607   4.875
95409W        W63803   3.142  17.258   2.212
95410W        W63804   1.439  23.747  11.989
95411W        W63805  19.167   7.356  11.724
95412W        W63806  16.040  15.855  14.291
95413W        W63807  39.097  31.558   1.740
95414W        W63808  23.963  20.350  12.579
95415W        W63809  25.112   3.288   0.982
95416W        W63810  42.745  33.415   2.366
95417W        W63811   5.862  23.205  11.788
95418W        W63812   5.963  40.025  13.950
95419W        W63813  42.669   8.514  10.734
95420W        W63814  42.453  12.664   4.354
95421W        W63815  23.060  16.251  13.075
95422W        W63816   6.789  17.533   0.612
95423W        W63817   1.916  11.044   2.910
95424W        W63818  30.774   2.022  12.110
95425W        W63819   4.775  28.542  12.168
95426W        W63820   4.763  23.244  13.395
95427W        W63821  24.754  22.430  12.775
95428W        W63822  15.119  36.947   2.263
95429W        W63823  29.610  32.898   3.873
95430W        W63824  44.008  14.872   4.292
95431W        W63825  19.921  12.710  11.617
95432W        W63826  19.218  19.145  12.973
95433W        W63827  24.698  29.878   1.775
95434W        W63828   2.316  32.534  14.030
95435W        W63829  14.146  27.252   0.870
95436W        W63830   0.577  30.146   0.664
95437W        W63831  29.128  39.753  14.599
95438W        W63832   1.403  21.936   1.329
95439W        W63833  18.864  22.520  13.329
95440W        W63834  28.116  15.835  12.554
95441W        W63835  16.692  42.829   2.298
95442W        W63836   5.577  12.352  11.561
95443W        W63837  29.792  11.285   3.846
95444W        W63838  25.446  31.255  14.302
95445W        W63839   3.902  30.145  14.451
95446W        W63840  37.951   5.697   0.082
95447W        W63841  26.577  31.515   1.395
95448W        W63842  34.100  43.858   3.198
95449W        W63843  36.791  36.056  10.775
95450W        W63844  44.709  37.162  12.143
95451W        W63845   6.069  20.558   4.151
95452W        W63846  17.153  12.305   3.375
95453W        W63847  31.840  16.976   3.531
95454W        W63848  35.312  23.064   0.493
95455W        W63849   1.439  39.421   0.310
95456W        W63850  14.814  18.613   3.315
95457W        W63851  16.676  30.201   0.041
95458W        W63852  35.644  31.377   3.631
95459W        W63853  11.641   7.246   3.797
95460W        W63854  37.766  14.157   0.325
95461W        W63855  21.294  35.821   3.674
95462W        W63856  43.961  22.260  14.874
95463W        W63857  31.308  37.557  11.417
95464W        W63858  35.093  43.274   3.739
95465W        W63859  25.517  14.756   1.787
95466W        W63860  22.067  14.399  14.837
95467W        W63861  40.911  23.876   2.853
95468W        W63862  12.368  25.439   2.174
95469W        W63863  37.852  11.733  12.981
95470W        W63864  42.308  20.066   3.796
95471W        W63865  42.582  43.349   0.283
95472W        W63866   3.256  10.616  13.509
95473W        W63867  13.324  16.315   0.944
95474W        W63868  11.214  11.740  11.631
95475W        W63869  35.901  16.371  11.964
95476W        W63870   8.087  11.764  11.513
95477W        W63871  28.280   0.695   0.231
95478W        W63872   7.373   7.635  14.823
95479W        W63873  44.807   5.832  11.192
95480W        W63874  32.623  32.538   4.606
95481W        W63875   6.992  16.579   1.060
95482W        W63876   2.308  23.311  12.838
95483W        W63877   0.865  28.213  13.271
95484W        W63878  41.547  24.173  11.229
95485W        W63879  36.084  33.054  12.158
95486W        W63880  40.851  14.131  14.319
95487W        W63881   5.452  15.608  14.849
95488W        W63882  19.498  16.271  13.875
95489W        W63883   8.084   0.775  11.866
95490W        W63884  29.831  32.697  11.730
95491W        W63885  42.307  17.166   1.706
95492W        W63886  30.700  42.878  13.937
95493W        W63887  27.050  40.277  12.176
95494W        W63888  13.268  42.807  10.325
95495W        W63889  11.345   6.442   4.014
95496W        W63890  18.318  43.389  12.351
95497W        W63891  18.087   1.263  12.583
95498W        W63892  19.610  23.741  10.991
95499W        W63893   3.433  35.454   1.362
95500W        W63894   6.947  37.464  13.403
95501W        W63895   2.763   7.105  12.693
95502W        W63896   4.702  16.305   4.077
95503W        W63897  32.513  38.239   3.659
95504W        W63898   7.398   0.469   0.336
95505W        W63899  11.209  21.697  14.688
95506W        W63900   3.290  38.466   3.684
95507W        W63901  21.097   1.340   1.276
95508W        W63902   1.372  28.224   4.940
95509W        W63903  44.686   1.724   1.279
95510W        W63904  43.970  36.620   0.882
95511W        W63905  15.664   8.346   0.356
95512W        W63906  35.511  40.863   2.705
95513W        W63907  21.050  42.880  14.346
95514W        W63908  22.067  27.090   4.258
95515W        W63909   8.184  24.462  12.584
95516W        W63910   9.428  10.340   0.437
95517W        W63911  40.281  37.982  13.062
95518W        W63912  13.021   6.183  14.508
95519W        W63913   5.298  18.860  13.902
95520W        W63914  27.018  23.164   3.832
95521W        W63915  33.835  16.711   3.618
95522W        W63916  19.511  33.806  11.171
95523W        W63917  19.227  13.124  13.848
95524W        W63918  32.537  33.374  12.964
95525W        W63919  39.430  10.653   2.302
95526W        W63920  39.522  13.195  14.882
95527W        W63921  24.172   9.156  10.509
95528W        W63922   5.559  22.703   3.420
95529W        W63923  15.027  41.572  14.923
95530W        W63924  22.864  31.043  12.499
95531W        W63925  27.580  27.748   1.657
95532W        W63926  16.154  41.813   0.412
95533W        W63927   3.729  18.341   0.963
95534W        W63928  35.825  29.945   2.405
95535W        W63929  42.817  12.933  10.633
95536W        W63930  15.778  33.979  10.659
95537W        W63931   9.878   1.299  14.564
95538W        W63932  30.912  12.866  11.533
95539W        W63933  44.253  24.939   3.817
95540W        W63934   2.957  14.258  14.722
95541W        W63935  40.418  25.629  14.345
95542W        W63936  35.675   9.729   3.222
95543W        W63937  40.307  14.284   2.131
95544W        W63938  13.602  38.164  12.280
95545W        W63939  17.009   7.374  13.422
95546W        W63940  19.704  38.857  14.025
95547W        W63941  25.128  14.853   2.354
95548W        W63942  24.621  43.311  14.822
95549W        W63943   0.746  18.630  12.981
95550W        W63944  27.367  33.948  12.787
95551W        W63945  18.772  16.293   0.456
95552W        W63946   4.820  31.688  11.742
95553W        W63947  41.874  31.837  11.167
95554W        W63948  28.451   9.159  10.678
95555W        W63949  35.520  37.926   2.615
95556W        W63950  10.527  28.150   3.646
95557W        W63951  12.150  36.474   1.182
95558W        W63952  40.574  35.058   4.682
95559W        W63953   4.267  23.652   0.341
95560W        W63954  14.863  12.711   1.076
95561W        W63955  37.422  43.787   1.259
95562W        W63956  21.634   8.810   1.163
95563W        W63957   1.939  26.944   1.227
95564W        W63958   6.709  28.014   5.220
95565W        W63959   9.789  39.532   4.166
95566W        W63960   7.986  39.057  11.149
95567W        W63961  40.562  33.551  11.584
95568W        W63962  40.766  13.682   2.685
95569W        W63963  10.343  32.971   0.762
95570W        W63964  35.550  30.690   0.273
95571W        W63965  30.557  25.245   3.152
95572W        W63966  14.926  13.822   1.452
95573W        W63967  13.520  15.353   4.114
95574W        W63968  29.553  19.635   1.714
95575W        W63969   4.774  10.358   0.810
95576W        W63970  11.771  35.869  13.986
95577W        W63971   2.978  29.134  11.966
95578W        W63972   3.509  28.129   0.822
95579W        W63973  20.636  39.320   4.602
95580W        W63974  31.441   7.456  10.772
95581W        W63975  29.215   2.823  10.616
95582W        W63976  11.629  17.015   0.250
95583W        W63977  11.246  36.524   2.196
95584W        W63978   5.904   7.684   2.194
95585W        W63979  12.824  32.959  14.860
95586W        W63980  13.352  42.398  14.639
95587W        W63981  35.790  11.864   1.149
95588W        W63982  15.170   4.396  12.990
95589W        W63983   6.694  27.687   1.606
95590W        W63984  23.736  23.187  11.244
95591W        W63985   2.341  34.172  13.636
95592W        W63986   7.777   0.954   2.378
95593W        W63987  17.080  44.606  12.623
95594W        W63988  17.209   2.343  14.310
95595W        W63989   5.922  22.713  10.429
95596W        W63990  44.414  29.865   1.824
95597W        W63991  20.468  12.864   1.213
95598W        W63992  37.057  14.182  11.646
95599W        W63993   1.480  17.723   4.516
95600W        W63994  23.019  32.586   4.599
95601W        W63995  14.814   8.710  14.476
95602W        W63996  36.913  22.569   3.715
95603W        W63997  38.567  13.543  10.739
95604W        W63998  18.253  10.528   4.140
95605W        W63999  26.668   4.380   3.739
95606W        W64000  21.137   1.866   1.401
95607W        W64001   9.738  38.340   4.140
95608W        W64002  41.036  29.991   1.117
95609W        W64003  20.278   7.765   4.843
95610W        W64004  35.441  43.258  13.471
95611W        W64005   2.004  36.364   4.403
95612W        W64006  12.133   4.360  12.811
95613W        W64007  20.215  42.515   4.148
95614W        W64008  33.032  18.469   3.680
95615W        W64009  28.201  18.183   3.711
95616W        W64010  43.534  34.641  14.544
95617W        W64011  34.589  27.700   2.387
95618W        W64012  44.758  14.170  12.790
95619W        W64013  37.906  24.514  11.679
95620W        W64014  12.918   4.180   1.374
95621W        W64015  44.684   4.830  12.216
95622W        W64016  36.472  12.663  13.201
95623W        W64017  29.045  41.066  11.448
95624W        W64018  35.579  34.861  13.456
95625W        W64019  38.605  37.840  13.271
95626W        W64020  30.766  18.327   3.303
95627W        W64021  18.303  13.432   4.760
95628W        W64022  42.397   6.410  11.086
95629W        W64023  29.641  17.992  13.089
95630W        W64024   8.695  39.272  13.438
95631W        W64025  37.584  37.841   2.398
95632W        W64026  24.249  35.029  12.521
95633W        W64027   5.953   4.383  11.207
95634W        W64028  31.600  42.760  13.119
95635W        W64029  29.696  18.885  12.034
95636W        W64030  11.798  10.811   1.965
95637W        W64031   6.966  42.918  12.700
95638W        W64032  13.891  21.227   0.808
95639W        W64033  37.141  34.230  12.627
95640W        W64034  23.483  27.883  12.768
95641W        W64035  20.737  11.754  11.434
95642W        W64036  17.463  35.635  13.452
95643W        W64037  40.847  13.379   2.277
95644W        W64038  14.314  19.106  14.210
95645W        W64039  25.211  10.782   1.761
95646W        W64040   4.189  23.767  11.514
95647W        W64041  42.400  32.879  14.901
95648W        W64042   4.315  12.998  14.352
95649W        W64043   8.941   6.582   0.851
95650W        W64044  19.081  16.660  14.688
95651W        W64045  23.465   3.951  14.993
95652W        W64046  38.549   4.798  14.805
95653W        W64047   1.657   3.390   3.031
95654W        W64048  19.073  44.483  14.913
95655W        W64049  37.374   6.248   1.899
95656W        W64050  29.149  34.583   2.832
95657W        W64051  15.971  11.952  13.550
95658W        W64052   2.860   0.584   4.895
95659W        W64053  13.623   4.314   1.889
95660W        W64054  24.634  37.384  10.134
95661W        W64055   2.103  13.688  10.328
95662W        W64056   4.343  15.736   5.388
95663W        W64057  20.616  10.285   0.296
95664W        W64058   6.421  28.182  12.060
95665W        W64059  23.209  21.209  13.411
95666W        W64060  14.375  31.596   2.338
95667W        W64061  41.909  16.088  10.480
95668W        W64062  27.054  19.320  14.978
95669W        W64063  20.195   6.651   3.677
95670W        W64064  41.992  35.213   3.316
95671W        W64065  36.589  25.205  12.977
95672W        W64066   3.867  25.507   1.324
95673W        W64067   1.608  24.479  13.660
95674W        W64068  35.967  28.054   1.338
95675W        W64069   6.010   2.917   0.847
95676W        W64070  27.602  27.627  12.924
95677W        W64071   3.988  30.432  11.118
95678W        W64072  24.230  38.374   0.004
95679W        W64073  10.302  30.249   2.400
95680W        W64074  27.930   4.062  12.597
95681W        W64075  31.301  38.718   1.928
95682W        W64076  36.039  40.991  11.160
95683W        W64077  38.407  42.773   2.039
95684W        W64078   1.337  37.770   1.375
95685W        W64079   6.994  31.213  11.531
95686W        W64080  27.555  11.360  13.005
95687W        W64081  34.662  35.970  13.006
95688W        W64082  20.537  27.281   1.376
95689W        W64083  34.535  28.879  13.443
95690W        W64084   5.115   4.306   2.686
95691W        W64085  12.405  15.752   4.105
95692W        W64086  21.341  21.176  12.937
95693W        W64087   6.320   8.659   2.254
95694W        W64088   7.378  16.095  14.419
95695W        W64089  36.585  43.389   2.190
95696W        W64090   4.800  23.804  13.392
95697W        W64091  21.976  33.994  11.560
95698W        W64092   8.983  21.584   1.910
95699W        W64093  21.704  20.631  12.030
95700W        W64094  38.802   6.969   1.240
95701W        W64095   7.248  25.491  12.054
95702W        W64096  37.612  20.995  10.609
95703W        W64097  37.492   7.723   0.262
95704W        W64098  12.017   6.025   1.286
95705W        W64099  27.563  30.424  13.420
95706W        W64100   1.423   9.374   0.747
95707W        W64101  14.267   1.346  12.825
95708W        W64102  21.593  38.862   0.866
95709W        W64103   3.207  17.493   3.535
95710W        W64104  42.012  36.308  10.894
95711W        W64105  15.624  11.410   3.326
95712W        W64106  16.140  27.120  11.379
95713W        W64107  44.251  15.606   4.566
95714W        W64108   0.051  17.122   0.099
95715W        W64109   0.724   8.819  12.100
95716W        W64110  24.983  22.465   4.151
95717W        W64111   1.269  10.394  14.224
95718W        W64112  13.038  40.801  13.001
95719W        W64113  41.833  15.189  14.214
95720W        W64114   8.679  39.186   3.245
95721W        W64115  19.366  22.692  14.931
95722W        W64116  19.125  42.633   0.846
95723W        W64117  39.985   1.311   4.545
95724W        W64118  41.488  22.636   3.684
95725W        W64119  24.642  23.337   0.513
95726W        W64120  40.060  36.323   2.302
95727W        W64121  16.717  41.655  11.681
95728W        W64122  35.894   3.543   0.051
95729W        W64123  43.029  42.169  14.284
95730W        W64124   0.339  34.935   3.084
95731W        W64125  31.442  39.542   3.036
95732W        W64126  34.018  10.378  12.448
95733W        W64127  17.738  41.060  14.689
95734W        W64128   8.302   6.908  11.693
95735W        W64129  38.649   3.486   1.237
95736W        W64130  28.505  13.686   2.296
95737W        W64131   6.331   9.034  13.249
95738W        W64132  40.017  15.499  14.109
95739W        W64133  17.121  35.833   4.220
95740W        W64134  10.578  36.358  12.579
95741W        W64135  36.350  26.283  14.285
95742W        W64136  44.954  35.601   4.097
95743W        W64137  44.016  31.087  10.743
95744W        W64138  21.825  19.253   4.181
95745W        W64139  43.099  32.113  10.654
95746W        W64140  14.933  35.877  12.151
95747W        W64141  22.822  26.041   3.830
95748W        W64142  33.904  37.403   0.284
95749W        W64143  11.246  41.034   2.411
95750W        W64144  18.476  11.408  12.145
95751W        W64145   6.835  42.461  12.481
95752W        W64146  25.116  19.524  11.954
95753W        W64147  22.038  16.067  11.045
95754W        W64148  32.136  42.598  11.980
95755W        W64149  21.922  11.310   4.122
95756W        W64150   1.031  40.014   0.929
95757W        W64151   4.556  15.823   4.933
95758W        W64152  21.250   9.915  10.223
95759W        W64153  28.445   0.059   3.665
95760W        W64154  28.074  34.975   2.430
95761W        W64155  35.965  25.655   4.132
95762W        W64156  36.074  30.631  13.555
95763W        W64157   1.326  18.567  11.333
95764W        W64158  29.156  43.654   1.701
95765W        W64159  34.440  16.675  12.875
95766W        W64160   6.029  24.412  14.019
95767W        W64161   9.331  39.496   4.415
95768W        W64162  28.019  12.893  13.446
95769W        W64163  37.488  18.479  12.332
95770W        W64164  13.153  33.938   2.678
95771W        W64165  40.051  35.312  13.361
95772W        W64166  16.601  37.658  11.977
95773W        W64167  38.500  35.969   0.846
95774W        W64168  44.857   8.516   2.946
95775W        W64169  39.512  14.369   3.959
95776W        W64170   8.890  21.024   2.755
95777W        W64171  11.934  41.587   3.043
95778W        W64172  21.855  20.562  12.522
95779W        W64173   3.557  39.956  12.485
95780W        W64174  41.558  28.055  12.503
95781W        W64175  17.093  19.246  11.674
95782W        W64176  35.606  21.867   3.102
95783W        W64177  14.587   3.813  13.737
95784W        W64178   8.874  23.158  12.546
95785W        W64179  24.162  32.637  14.070
95786W        W64180  22.421  26.682  13.513
95787W        W64181   1.839  17.649   2.549
95788W        W64182  17.546  25.198   1.858
95789W        W64183  43.605  13.842   1.359
95790W        W64184   8.205   1.273   0.223
95791W        W64185  29.869  26.060   0.844
95792W        W64186  10.161  13.599   2.299
95793W        W64187   1.769  36.833  14.869
95794W        W64188  29.649  10.548  12.440
95795W        W64189  22.581  13.541  12.352
95796W        W64190  17.155  29.942  12.443
95797W        W64191   6.787  17.237   2.309
95798W        W64192  30.591   2.530   4.178
95799W        W64193  29.944   2.279  11.610
95800W        W64194   0.721  34.783   2.774
95801W        W64195   1.515   2.398  12.377
95802W        W64196  36.458   3.657  11.426
95803W        W64197  29.760  41.003  11.921
95804W        W64198  20.093  33.068  11.938
95805W        W64199  13.807   3.888   1.631
95806W        W64200  24.209  39.059   1.948
95807W        W64201  44.798   9.631   1.274
95808W        W64202  29.529  15.068  10.727
95809W        W64203   3.669  38.775  13.930
95810W        W64204   8.777  15.155  11.156
95811W        W64205  16.989  22.282  10.691
95812W        W64206  37.896   0.421   3.311
95813W        W64207  17.205  22.344  14.018
95814W        W64208  35.429   4.720  12.749
95815W        W64209  35.680  25.900   2.820
95816W        W64210  40.592  19.595  11.150
95817W        W64211  40.810  27.890  14.065
95818W        W64212  17.832  21.718  13.531
95819W        W64213  32.157  18.631   3.266
95820W        W64214  10.818  40.034  13.028
95821W        W64215  35.327   5.902  12.617
95822W        W64216  37.909  26.176   0.691
95823W        W64217  24.616  28.023  12.100
95824W        W64218   4.836  17.308   1.357
95825W        W64219   4.837  31.689  10.560
95826W        W64220  22.054  14.878   1.784
95827W        W64221  25.186  31.677  11.657
95828W        W64222  20.967  35.420   3.505
95829W        W64223  17.942  42.030   4.145
95830W        W64224   7.656  38.947  11.621
95831W        W64225  24.825  38.540  14.295
95832W        W64226  35.585  24.518   2.637
95833W        W64227  24.753   0.994  14.131
95834W        W64228  40.945   5.908   0.711
95835W        W64229   5.427  36.072  14.962
95836W        W64230  33.095   5.341   0.978
95837W        W64231  37.275  13.636   2.377
95838W        W64232   6.090  12.297  11.563
95839W        W64233   0.779  16.698  11.125
95840W        W64234   3.842  21.459  13.884
95841W        W64235  42.937  35.306   9.712
95842W        W64236  22.281  32.389  13.548
95843W        W64237   8.420  39.282   4.890
95844W        W64238  43.950   7.434   2.610
95845W        W64239  24.711  26.624  10.730
95846W        W64240  22.119   3.751   4.858
95847W        W64241  36.927   4.212   3.358
95848W        W64242  33.991  38.978   1.771
95849W        W64243  32.580   3.340  10.713
95850W        W64244   2.445  22.194  13.983
95851W        W64245  10.937  28.110   0.376
95852W        W64246   7.846  14.109   4.071
95853W        W64247  28.871  35.849   4.267
95854W        W64248  20.482   1.830  13.877
95855W        W64249  19.512  43.282  11.138
95856W        W64250  41.161  17.053   2.393
95857W        W64251   2.796  15.965  14.476
95858W        W64252  42.022  39.049  12.054
95859W        W64253  15.585  13.836   4.665
95860W        W64254  42.197  20.686  12.041
95861W        W64255  42.689  10.242  13.615
95862W        W64256   6.802  30.167  12.960
95863W        W64257  13.143  23.591  12.237
95864W        W64258  24.156  11.955   3.701
95865W        W64259  34.944  20.729   2.872
95866W        W64260  12.033  41.020  11.896
95867W        W64261  39.923   4.652  13.999
95868W        W64262  23.938   6.763  14.496
95869W        W64263  13.323  24.816  11.601
95870W        W64264   0.224  13.747   2.195
95871W        W64265  35.162  30.866  13.903
95872W        W64266   0.709  15.811   3.682
95873W        W64267  44.083  38.784   4.763
95874W        W64268  36.300  37.919  11.964
95875W        W64269  27.028  16.814  14.686
95876W        W64270  26.196  37.941  12.491
95877W        W64271   4.475  10.838  14.024
95878W        W64272   5.136  13.231   3.634
95879W        W64273  15.567  19.655  10.502
95880W        W64274  16.526  40.957   0.293
95881W        W64275  24.592   9.388  10.299
95882W        W64276  10.884   6.703   4.209
95883W        W64277  34.809  21.336  13.652
95884W        W64278   3.448   4.787   0.887
95885W        W64279  33.663   1.105   0.247
95886W        W64280  33.198  30.561  12.932
95887W        W64281  44.796   8.624   1.162
95888W        W64282  16.598  20.527   4.521
95889W        W64283  28.478  23.920  12.941
95890W        W64284  10.279  28.831  12.976
95891W        W64285  12.939  15.634   3.264
95892W        W64286  33.129   7.896   1.776
95893W        W64287  24.131  30.400   0.044
95894W        W64288  41.211  28.432  11.501
95895W        W64289  40.583  12.575  13.071
95896W        W64290  22.657  20.851  12.270
95897W        W64291  39.498   7.128   3.656
95898W        W64292  21.148   4.364  12.499
95899W        W64293  14.420  13.638  12.928
95900W        W64294   3.930  32.163  14.059
95901W        W64295  22.941  12.880   3.193
95902W        W64296  33.475  16.244   2.411
95903W        W64297  15.607  30.399  14.249
95904W        W64298  21.848  16.677  10.767
95905W        W64299  39.933  38.804   0.167
95906W        W64300   4.704  27.402  10.492
95907W        W64301  24.626   1.789  14.974
95908W        W64302  36.858  29.392   1.739
95909W        W64303  31.229  41.983  13.779
95910W        W64304   8.222  24.061   3.354
95911W        W64305  20.515  40.344  11.696
95912W        W64306   8.676  11.992   4.162
95913W        W64307  13.822  14.629   4.828
95914W        W64308  44.218  14.539   2.939
95915W        W64309   0.375  20.825   4.945
95916W        W64310  23.270   9.209   4.169
95917W        W64311  28.927  33.044  10.753
95918W        W64312  19.123  29.196   4.615
95919W        W64313  31.635  17.546   3.927
95920W        W64314  21.941  39.981  13.379
95921W        W64315  17.006  15.080   4.666
95922W        W64316  26.166  22.781   2.878
95923W        W64317  13.315  37.545  14.057
95924W        W64318  12.142   3.645  13.470
95925W        W64319  38.383  18.780  11.088
95926W        W64320  31.083   2.237   3.346
95927W        W64321  22.503  37.721  11.181
95928W        W64322  20.212  34.309   2.360
95929W        W64323   5.018   9.310  10.644
95930W        W64324  30.421  31.488   0.066
95931W        W64325  37.678  13.813  10.703
95932W        W64326   9.998  39.297   1.826
95933W        W64327  12.696  19.660  14.990
95934W        W64328   0.345   4.731   4.450
95935W        W64329   3.550  22.212  14.305
95936W        W64330  21.637  23.672   0.498
95937W        W64331   5.343  21.638  14.944
95938W        W64332  16.983  30.098   3.633
95939W        W64333  17.591  29.627  12.432
95940W        W64334  15.048  15.644   4.627
95941W        W64335  14.996  31.935   3.917
95942W        W64336  26.131   1.228   1.746
95943W        W64337  14.252  16.534  10.473
95944W        W64338  36.326  20.160  12.583
95945W        W64339  36.912  43.315  10.643
95946W        W64340  31.912  31.828  11.611
95947W        W64341  13.829  44.991   0.497
95948W        W64342  40.996   9.731   1.795
95949W        W64343  17.538  11.566   3.395
95950W        W64344  13.323  38.830   1.088
95951W        W64345  24.764   2.740  12.907
95952W        W64346  15.132  34.696  13.781
95953W        W64347  22.044   8.308   3.425
95954W        W64348  26.209   9.186   0.400
95955W        W64349  21.140   9.939  12.115
95956W        W64350  19.519   8.118   0.946
95957W        W64351  21.663  30.685  11.543
95958W        W64352  10.691   2.988  14.511
95959W        W64353  14.053  26.240   3.852
95960W        W64354  22.429   3.740   4.434
95961W        W64355  26.657  25.546   5.214
95962W        W64356  42.435  24.380  11.606
95963W        W64357   9.856  12.848  11.716
95964W        W64358  31.465  18.003   3.733
95965W        W64359  16.503  31.171  12.239
95966W        W64360  43.812  29.135   0.015
95967W        W64361  37.093   6.226  14.898
95968W        W64362   8.946  37.649   3.652
95969W        W64363   3.939  23.962   2.724
95970W        W64364  11.794  18.052   3.443
95971W        W64365   8.119   9.901   0.591
95972W        W64366   3.019  20.608   3.578
95973W        W64367   7.693  15.693  11.993
95974W        W64368  12.895   5.954   0.944
95975W        W64369   6.369  21.319  11.774
95976W        W64370  40.568   6.716  14.785
95977W        W64371  41.824  30.180   3.512
95978W        W64372  31.907  24.424  14.669
95979W        W64373  33.633   7.795   1.772
95980W        W64374  12.307   8.892   3.135
95981W        W64375  40.811  17.190   1.226
95982W        W64376  40.397  33.190   4.987
95983W        W64377  29.313  28.054  10.836
95984W        W64378   6.764   3.308  12.985
95985W        W64379  15.941  31.431   0.106
95986W        W64380  39.847   6.344   4.350
95987W        W64381   5.923   2.943   5.240
95988W        W64382  31.402  20.294   3.296
95989W        W64383  34.943  19.527   1.516
95990W        W64384   4.626  24.688  10.140
95991W        W64385  27.852  41.554   2.991
95992W        W64386  14.702  30.886   2.281
95993W        W64387  16.813  41.398   1.944
95994W        W64388  16.699  15.698   0.783
95995W        W64389  29.084   5.471   4.630
95996W        W64390  30.661  26.573   0.089
95997W        W64391  26.692   7.393  12.099
95998W        W64392  27.067   6.780  12.190
95999W        W64393  29.447   2.400   3.337
96000W        W64394  26.163  13.316  13.854
96001W        W64395   5.443  29.782  11.028
96002W        W64396  17.844   1.439  14.172
96003W        W64397   9.673   4.099   5.075
96004W        W64398  34.042  19.475   1.351
96005W        W64399  41.497   5.771   4.096
96006W        W64400   8.140  10.173   4.175
96007W        W64401  10.684  22.511  12.955
96008W        W64402  18.749  10.104   2.682
96009W        W64403   4.508  41.180  12.143
96010W        W64404  28.067   7.773   0.299
96011W        W64405  11.781   2.733  13.935
96012W        W64406  14.284   1.243   2.669
96013W        W64407  22.174   4.227   3.436
96014W        W64408   8.760   5.013   2.298
96015W        W64409  18.303   5.875  14.420
96016W        W64410  17.878  17.113  14.734
96017W        W64411  41.254   5.604   2.622
96018W        W64412   9.259  42.069  11.272
96019W        W64413   4.559   2.088   0.888
96020W        W64414  33.452  30.414   4.286
96021W        W64415  43.370  35.621  12.910
96022W        W64416  21.581  26.415  13.634
96023W        W64417  26.229  13.303   3.626
96024W        W64418  29.539   2.338   2.406
96025W        W64419   0.480  19.314  14.164
96026W        W64420  44.979  42.699  12.908
96027W        W64421  15.603  35.855  11.452
96028W        W64422   7.436  43.499  14.158
96029W        W64423   7.475  37.476  11.894
96030W        W64424   9.244   4.080   2.818
96031W        W64425  21.130   5.206   4.141
96032W        W64426  25.639  15.085  11.078
96033W        W64427  37.376  28.151   4.590
96034W        W64428  22.194  16.379   4.322
96035W        W64429   6.672  41.760   4.250
96036W        W64430  37.464  30.428  11.245
96037W        W64431  34.832  17.959   3.936
96038W        W64432  12.859  39.450  11.405
96039W        W64433  27.290  32.792  14.238
96040W        W64434  44.271  26.904  10.683
96041W        W64435  36.708  22.632   4.939
96042W        W64436  42.433  33.122   0.355
96043W        W64437  18.763  37.457  12.363
96044W        W64438  27.554   7.193  13.136
96045W        W64439  30.138   5.110   4.154
96046W        W64440  20.315  30.205  11.631
96047W        W64441  16.477  17.083  14.344
96048W        W64442  44.426  17.150  13.464
96049W        W64443   7.711   3.679   3.970
96050W        W64444  34.829  39.567  12.490
96051W        W64445  17.061   8.909  12.747
96052W        W64446  15.491  19.647   5.026
96053W        W64447  40.571  11.565   2.338
96054W        W64448  33.398   2.979  10.672
96055W        W64449  21.784  15.604  10.874
96056W        W64450  41.240  23.519  11.927
96057W        W64451   5.512  36.889   3.634
96058W        W64452  12.628  37.433   3.480
96059W        W64453   9.855  41.920   0.088
96060W        W64454  24.100   4.475   4.514
96061W        W64455  33.697  28.944  12.905
96062W        W64456   7.331   1.006  12.456
96063W        W64457  15.194  22.461  14.713
96064W        W64458  15.145  43.885   0.044
96065W        W64459  32.392  30.899   1.637
96066W        W64460   4.702   0.815  14.216
96067W        W64461   0.590   8.144  12.511
96068W        W64462  16.310  23.923   2.876
96069W        W64463  24.819  26.231   0.880
96070W        W64464  22.235   4.279  12.546
96071W        W64465  38.943  18.678   1.896
96072W        W64466  18.600  10.610  14.819
96073W        W64467  41.449  38.540   1.356
96074W        W64468  12.074   9.698  14.445
96075W        W64469   6.252  23.067   2.274
96076W        W64470  24.770  24.889   1.124
96077W        W64471  43.441  40.925   4.512
96078W        W64472   2.356  42.993   2.912
96079W        W64473  11.741  37.771   2.204
96080W        W64474  43.035  44.032  13.134
96081W        W64475  15.258  15.837   0.958
96082W        W64476   3.127   4.329   0.364
96083W        W64477  16.670  21.840   4.552
96084W        W64478  14.874  32.644  14.810
96085W        W64479  38.296  24.615  13.520
96086W        W64480   8.328  26.296  13.822
96087W        W64481  24.646  12.822  13.397
96088W        W64482  31.480   7.131  13.815
96089W        W64483  23.046  12.918  14.987
96090W        W64484   3.903  33.877  12.573
96091W        W64485  34.515  42.007   3.253
96092W        W64486  25.191   4.125   4.077
96093W        W64487  41.331  11.439   4.039
96094W        W64488  11.248  37.422   4.300
96095W        W64489   8.160  20.287   0.307
96096W        W64490  26.622  37.928   4.422
96097W        W64491   9.802  14.190   3.642
96098W        W64492   5.963   4.443   0.740
96099W        W64493  12.156  32.317   1.574
96100W        W64494   8.810  34.183  11.653
96101W        W64495  21.533  27.375   2.946
96102W        W64496  18.020  23.473  12.978
96103W        W64497  41.929  22.601  12.533
96104W        W64498  19.591  24.764   0.036
96105W        W64499  41.781  15.814   3.372
96106W        W64500  31.097  22.951  14.398
96107W        W64501  38.859  32.190  10.178
96108W        W64502  41.250  37.334   2.101
96109W        W64503  15.865  32.203   1.620
96110W        W64504  24.019   4.259  12.537
96111W        W64505  34.327  27.658  12.078
96112W        W64506  39.848  15.280  10.967
96113W        W64507  17.682  37.061   0.846
96114W        W64508   3.913  29.532   0.867
96115W        W64509  14.180  35.655  13.078
96116W        W64510  20.576   5.703  13.979
96117W        W64511  44.434  16.234   3.917
96118W        W64512  34.617  18.216   0.914
96119W        W64513  42.557   8.807  11.981
96120W        W64514  23.762  44.353   2.623
96121W        W64515  29.560  30.349  12.156
96122W        W64516  28.744  21.756  11.683
96123W        W64517  37.283   5.894  12.540
96124W        W64518  24.715   7.342  14.952
96125W        W64519  10.693  26.482  11.994
96126W        W64520  14.576  26.489  11.533
96127W        W64521   9.888  11.399   1.726
96128W        W64522   8.449  11.714  11.916
96129W        W64523  18.671  40.811  14.158
96130W        W64524   6.781  11.899  12.167
96131W        W64525  11.248   8.911  14.436
96132W        W64526   4.208   3.814  12.368
96133W        W64527   0.048   8.440   0.745
96134W        W64528  36.588  33.519   3.235
96135W        W64529  12.219  29.991   0.877
96136W        W64530  13.158   2.695  11.100
96137W        W64531  44.996  12.587  11.124
96138W        W64532   2.753   7.688  11.211
96139W        W64533  19.409  42.279  13.475
96140W        W64534  14.488  43.774  11.895
96141W        W64535   6.772  27.762  12.922
96142W        W64536  12.543   7.857   1.568
96143W        W64537   0.830   1.811  10.981
96144W        W64538   2.337  41.772   4.019
96145W        W64539  12.144  13.266  12.935
96146W        W64540  33.307   3.979   1.301
96147W        W64541  20.006  21.594   1.196
96148W        W64542   6.841   1.778   1.801
96149W        W64543  40.927   3.710   0.453
96150W        W64544  25.498   8.656  12.057
96151W        W64545  30.638  23.415   2.551
96152W        W64546  21.239  24.148   1.727
96153W        W64547  15.141   8.247   9.946
96154W        W64548  19.537  15.355   0.999
96155W        W64549  36.177  36.959   0.006
96156W        W64550  31.580  17.305  10.670
96157W        W64551   5.330   5.038  11.160
96158W        W64552  15.607  17.901  14.904
96159W        W64553  42.929  25.033  12.056
96160W        W64554  32.685  33.064   2.126
96161W        W64555  13.163  43.550   4.825
96162W        W64556  40.257  24.988   0.742
96163W        W64557  20.712   3.561   2.918
96164W        W64558  28.927  31.543   2.134
96165W        W64559  18.010   1.939   2.270
96166W        W64560  37.126  24.736  14.011
96167W        W64561  16.580  33.897   0.948
96168W        W64562   0.355  24.253  10.535
96169W        W64563  31.526  11.584   4.698
96170W        W64564  38.550  40.901  10.514
96171W        W64565  39.575  29.594   3.609
96172W        W64566  39.223  42.221  11.206
96173W        W64567   4.569  28.462   4.940
96174W        W64568  27.456  31.420  12.949
96175W        W64569  33.146  10.234  12.692
96176W        W64570   2.678  31.911  13.344
96177W        W64571  14.817   9.761   2.548
96178W        W64572  31.912  33.005   2.711
96179W        W64573  38.970   8.777   2.852
96180W        W64574   8.150  42.522  13.860
96181W        W64575  36.393  37.799  13.896
96182W        W64576  16.753  24.073  10.700
96183W        W64577  43.447  16.848   0.361
96184W        W64578  33.612  35.810   3.656
96185W        W64579  35.874  11.765   2.460
96186W        W64580  30.604   3.849   2.477
96187W        W64581  37.993  30.401  14.314
96188W        W64582  24.633  33.572   3.127
96189W        W64583   5.181  32.099   4.333
96190W        W64584   2.065  29.915  13.029
96191W        W64585  26.434   0.485   4.165
96192W        W64586  39.018  16.436  11.635
96193W        W64587   1.714  44.863   4.925
96194W        W64588   7.737  38.912  10.729
96195W        W64589   3.709  42.722   1.218
96196W        W64590  20.594  44.008   1.431
96197W        W64591  42.623  16.580  11.166
96198W        W64592  16.034  28.989   1.710
96199W        W64593   5.803   1.819   0.450
96200W        W64594   5.208   7.622   2.866
96201W        W64595  30.484  38.160   2.836
96202W        W64596  23.451  34.404  11.103
96203W        W64597  38.356  15.840  11.173
96204W        W64598  19.297  25.997  10.268
96205W        W64599   5.233  28.560   2.416
96206W        W64600  17.743  38.529  13.365
96207W        W64601  35.763  40.795  12.758
96208W        W64602  24.018  12.780   2.676
96209W        W64603  38.123  17.797  11.387
96210W        W64604  30.808  33.218  12.906
96211W        W64605  36.126  34.449  11.457
96212W        W64606  11.234   1.733   3.578
96213W        W64607  23.055  33.648   3.705
96214W        W64608  13.125  32.194   3.630
96215W        W64609  41.949   9.604  12.904
96216W        W64610  43.515   9.178  11.512
96217W        W64611  40.112  19.831  11.116
96218W        W64612  19.234   2.883  10.691
96219W        W64613  34.317  36.565   3.671
96220W        W64614   0.830  10.571   0.789
96221W        W64615  17.130  29.092  12.882
96222W        W64616  39.391  28.866  13.489
96223W        W64617  17.348  19.521   2.146
96224W        W64618  29.943  16.221   4.588
96225W        W64619   4.216   3.223  10.224
96226W        W64620  39.528  14.133  14.931
96227W        W64621  34.233  26.541   1.331
96228W        W64622  10.656   3.891  14.501
96229W        W64623   6.670   2.261  14.298
96230W        W64624  21.254   5.126   2.283
96231W        W64625  39.426  28.716  12.800
96232W        W64626   1.555  26.626   0.482
96233W        W64627   1.285  14.338  14.407
96234W        W64628   2.919  36.855  11.153
96235W        W64629  28.036   7.478   3.144
96236W        W64630  43.725  10.799   4.159
96237W        W64631  42.344  22.005  11.492
96238W        W64632  40.920  27.426   4.653
96239W        W64633  42.921  10.631  13.361
96240W        W64634  40.884   8.803  13.333
96241W        W64635  11.177   4.629   2.873
96242W        W64636  14.767  37.849  11.925
96243W        W64637  10.706  44.721   9.835
96244W        W64638   7.283  13.112  14.413
96245W        W64639   7.967  42.650   1.640
96246W        W64640  40.523  35.173   0.166
96247W        W64641  15.082  41.033   4.310
96248W        W64642  43.320   4.284   1.974
96249W        W64643  12.782  21.085  12.887
96250W        W64644  30.816  17.523  11.295
96251W        W64645   7.272  41.557  14.848
96252W        W64646   4.296  31.432   2.662
96253W        W64647   0.499  16.814  10.464
96254W        W64648  37.845   2.053  14.834
96255W        W64649  15.261  36.545  14.805
96256W        W64650  34.537  29.141   0.384
96257W        W64651   7.779   7.297   0.717
96258W        W64652  37.704  36.935   0.002
96259W        W64653  11.419  22.109   2.955
96260W        W64654  33.135   8.803  11.087
96261W        W64655  32.454  42.150  11.692
96262W        W64656  21.690  34.367  14.457
96263W        W64657  22.766   3.809   2.212
96264W        W64658   9.563  42.270   3.778
96265W        W64659  42.828  40.186   2.223
96266W        W64660   9.370   9.297   2.432
96267W        W64661  25.476  43.599   3.407
96268W        W64662  44.042  34.985  11.396
96269W        W64663   6.231  16.692   2.123
96270W        W64664  44.740  42.525  12.158
96271W        W64665  37.417  33.346   4.173
96272W        W64666  28.657  22.089  12.350
96273W        W64667   9.005  26.558  11.229
96274W        W64668  11.745  44.802  13.308
96275W        W64669  27.067  31.701   2.749
96276W        W64670  33.906  23.590  11.461
96277W        W64671   5.578  44.944  14.094
96278W        W64672  10.855  19.990   4.539
96279W        W64673  21.151  10.411  13.903
96280W        W64674  16.696  10.639   2.708
96281W        W64675   6.234  31.133   4.301
96282W        W64676  19.282  18.188   1.101
96283W        W64677   9.866  21.101   2.841
96284W        W64678  18.205  31.467   3.800
96285W        W64679   4.313   9.777   0.558
96286W        W64680  33.579   3.718   0.958
96287W        W64681  15.108  42.880   4.589
96288W        W64682   6.156  40.854   1.384
96289W        W64683  32.130   8.260  11.630
96290W        W64684  36.872   7.519  11.507
96291W        W64685  10.321  36.820   0.434
96292W        W64686  29.738  43.577  10.814
96293W        W64687   7.398   1.835  12.471
96294W        W64688   2.903   2.414  11.617
96295W        W64689  31.929   9.530  14.287
96296W        W64690  12.280  15.066  13.327
96297W        W64691  24.782   5.647   2.814
96298W        W64692  26.962  29.447   0.885
96299W        W64693  34.039  21.102   2.272
96300W        W64694  37.970  34.829   2.653
96301W        W64695  37.501   2.607   5.016
96302W        W64696   8.002  37.055   1.873
96303W        W64697   0.435   1.902   4.500
96304W        W64698  21.926  17.846  12.099
96305W        W64699  30.458  26.975   3.707
96306W        W64700   5.765  22.999   2.507
96307W        W64701  12.352  28.308   4.835
96308W        W64702  27.004  39.262  11.981
96309W        W64703  11.200  42.724  13.366
96310W        W64704  40.549   5.236   0.226
96311W        W64705  21.689   4.707  11.714
96312W        W64706   6.434  25.010  12.073
96313W        W64707  10.290  26.691   4.716
96314W        W64708  32.664  34.791   1.339
96315W        W64709  42.909  30.236   2.021
96316W        W64710  26.656   8.750   1.334
96317W        W64711   1.997  11.353   3.310
96318W        W64712  15.674  42.762  12.054
96319W        W64713  22.818  37.942  12.840
96320W        W64714  38.276   8.348   1.775
96321W        W64715  11.829   2.897   1.837
96322W        W64716  21.280  29.853  12.589
96323W        W64717  35.464  15.128   4.577
96324W        W64718  16.558  12.409  14.857
96325W        W64719  24.535  34.842   3.815
96326W        W64720  36.330  25.511  13.937
96327W        W64721  38.708  11.136   0.382
96328W        W64722   5.270  13.389  12.881
96329W        W64723  15.224  14.890  10.448
96330W        W64724  14.803  26.399   4.187
96331W        W64725   2.445   4.657  11.289
96332W        W64726  13.656   0.462   1.131
96333W        W64727  10.781  11.380  12.002
96334W        W64728  23.794  23.043   2.785
96335W        W64729   0.534  21.973   3.479
96336W        W64730  24.743  14.648  10.887
96337W        W64731  44.367  43.054  14.281
96338W        W64732  24.530  32.166  11.963
96339W        W64733  14.043  31.027  14.917
96340W        W64734   0.923  38.870   1.872
96341W        W64735  26.589   0.330   0.000
96342W        W64736   5.510   9.755   2.316
96343W        W64737  21.517  37.249   2.766
96344W        W64738  36.205  21.287   3.808
96345W        W64739  11.433  29.684  14.305
96346W        W64740  15.693  40.265   0.578
96347W        W64741  15.760  16.325  14.969
96348W        W64742  28.039   9.121  13.021
96349W        W64743  44.302   7.774  12.337
96350W        W64744  18.747  20.681   1.166
96351W        W64745  27.170  34.538  14.510
96352W        W64746  42.446  14.679   4.291
96353W        W64747  40.394  33.763  10.657
96354W        W64748  29.407   5.861  14.240
96355W        W64749  26.589  43.339   3.669
96356W        W64750  14.718  33.649   4.148
96357W        W64751  35.322  26.733  10.924
96358W        W64752  25.935  11.717  11.986
96359W        W64753  29.741  44.302  13.429
96360W        W64754  14.383  33.350   2.264
96361W        W64755   1.281  18.335   1.261
96362W        W64756  38.999  12.570   1.675
96363W        W64757  43.361   3.164   2.772
96364W        W64758  17.557  16.226  12.095
96365W        W64759   9.626   6.491  13.093
96366W        W64760   8.828  35.580  14.844
96367W        W64761  41.754  19.645   1.235
96368W        W64762  27.934  25.184   2.364
96369W        W64763  36.478  42.747  13.114
96370W        W64764  30.113  18.657   1.319
96371W        W64765   6.182  24.371   0.216
96372W        W64766   6.416  19.039   2.173
96373W        W64767  27.705   3.797   4.060
96374W        W64768  42.502   5.206  12.558
96375W        W64769   8.492   4.604  10.053
96376W        W64770  41.945  27.080   1.822
96377W        W64771  35.861  17.212   2.445
96378W        W64772   5.030  22.104   3.121
96379W        W64773  15.870  17.561   3.179
96380W        W64774  15.761  25.996   0.063
96381W        W64775  36.820  43.264   1.698
96382W        W64776  28.708  11.142   0.354
96383W        W64777   3.638   2.226   3.444
96384W        W64778  42.451  27.481   4.648
96385W        W64779  44.295  12.615  13.969
96386W        W64780  14.495  38.073   4.475
96387W        W64781  30.949  34.124   1.197
96388W        W64782  37.099   9.695   0.856
96389W        W64783  44.876  28.195  11.864
96390W        W64784  18.159  16.322  14.989
96391W        W64785  43.054  40.450   3.686
96392W        W64786  34.555   8.718   1.163
96393W        W64787  39.691  15.608   0.805
96394W        W64788   4.796  44.486   1.230
96395W        W64789   7.250   8.837  14.788
96396W        W64790  37.101  28.141   1.797
96397W        W64791  26.707  12.181   0.270
96398W        W64792  34.353  18.039   1.328
96399W        W64793  26.523   0.139   5.295
96400W        W64794   6.142  30.241   2.234
96401W        W64795  21.452   2.976  12.467
96402W        W64796   7.883  10.149  11.146
96403W        W64797  23.518  40.774   3.155
96404W        W64798   6.212  24.829  14.419
96405W        W64799  30.549   8.788  12.047
96406W        W64800  43.147  28.102   1.155
96407W        W64801  29.442  12.006  11.988
96408W        W64802  22.728   7.347   1.266
96409W        W64803  43.377  27.878  14.009
96410W        W64804   9.720   9.180   3.766
96411W        W64805  39.266  16.136   0.844
96412W        W64806   0.020  23.223  10.702
96413W        W64807  11.029  34.075  14.039
96414W        W64808  38.855  41.435   3.843
96415W        W64809  32.080  31.173   5.273
96416W        W64810  21.429  28.485   4.218
96417W        W64811  30.508  30.861  11.568
96418W        W64812  28.230  41.549  12.074
96419W        W64813  15.580  40.471   3.700
96420W        W64814   5.161  37.910   4.051
96421W        W64815  31.949  44.900  11.837
96422W        W64816  26.756  16.680   3.724
96423W        W64817   7.742  29.819   0.709
96424W        W64818  20.153  33.447   0.886
96425W        W64819  21.649  13.290  13.122
96426W        W64820  16.919   3.044  12.542
96427W        W64821  25.291  39.044  12.574
96428W        W64822  44.718   0.898   0.803
96429W        W64823  33.591  28.644   3.578
96430W        W64824  11.811  39.890  12.073
96431W        W64825  13.882  36.377  14.593
96432W        W64826  22.531   9.374   4.576
96433W        W64827   0.497  23.405  10.818
96434W        W64828  19.497  41.579   2.642
96435W        W64829  19.564   3.895  13.997
96436W        W64830  44.966  18.705  14.657
96437W        W64831  41.592  34.622   1.606
96438W        W64832  40.439  27.859  11.564
96439W        W64833  32.798   8.502   1.332
96440W        W64834  30.510   4.380  10.683
96441W        W64835  24.450   8.259   3.550
96442W        W64836  38.519   5.707  11.063
96443W        W64837  20.089  15.239  13.410
96444W        W64838  16.931  26.140  11.777
96445W        W64839  15.153   6.120  13.812
96446W        W64840  13.725   5.517  11.623
96447W        W64841  14.446  35.974  12.056
96448W        W64842  13.178  41.091  14.274
96449W        W64843  23.078  28.570   3.296
96450W        W64844  13.115  24.705   4.146
96451W        W64845  17.642  28.692  12.591
96452W        W64846  25.520  44.364   0.777
96453W        W64847  27.057  28.754  10.708
96454W        W64848   6.251   2.901   4.455
96455W        W64849  39.614  38.140   1.982
96456W        W64850  41.006  26.704   0.928
96457W        W64851  24.184  12.059  13.505
96458W        W64852  22.050  37.925   2.267
96459W        W64853  37.449  20.051   0.808
96460W        W64854   0.478   3.422   4.560
96461W        W64855  34.601  14.798   1.647
96462W        W64856  34.132  10.658  13.936
96463W        W64857  10.000  23.601   4.979
96464W        W64858  12.883  42.525  13.223
96465W        W64859  43.864  18.577   4.179
96466W        W64860  30.218  13.525  12.119
96467W        W64861  31.521  19.231   4.310
96468W        W64862  24.516  44.384   0.434
96469W        W64863  40.694  31.987  11.213
96470W        W64864  25.942  20.424  11.159
96471W        W64865   9.955  29.189   0.644
96472W        W64866  40.032  34.422   4.110
96473W        W64867  14.322  22.775   4.670
96474W        W64868  14.890  10.156   4.048
96475W        W64869  23.487  26.062  13.834
96476W        W64870   3.401  21.198   2.364
96477W        W64871   0.699  37.494  14.272
96478W        W64872  17.179  17.686  12.959
96479W        W64873  32.464  13.124  10.694
96480W        W64874   4.547   6.975   3.327
96481W        W64875  10.239  21.405  14.829
96482W        W64876  43.376   4.453   3.902
96483W        W64877  28.656  18.242  14.043
96484W        W64878  26.464  29.555  12.062
96485W        W64879  43.551  42.297   3.295
96486W        W64880   7.991  26.602   4.946
96487W        W64881   0.832  34.046   0.473
96488W        W64882  34.818  10.198   2.310
96489W        W64883  21.760  13.697  11.810
96490W        W64884   7.613  44.299  12.589
96491W        W64885  19.768   7.398  13.251
96492W        W64886  42.091  13.196   1.840
96493W        W64887  17.568  39.598   4.080
96494W        W64888  21.598  18.599  13.113
96495W        W64889  21.070  43.898  13.481
96496W        W64890  24.397  19.005   1.864
96497W        W64891  12.413   3.605  12.608
96498W        W64892  20.250   5.627   4.508
96499W        W64893  33.091  11.686   0.720
96500W        W64894  11.400  36.568  13.365
96501W        W64895  15.156  41.003   3.807
96502W        W64896  20.268  31.594   0.785
96503W        W64897  42.859  12.811   0.819
96504W        W64898   3.812  28.449   1.961
96505W        W64899  30.957  33.392   2.398
96506W        W64900  37.932  27.773   3.648
96507W        W64901   6.241  19.651   4.994
96508W        W64902  41.974  34.005   3.674
96509W        W64903   7.935  35.433  10.853
96510W        W64904  35.261  12.695   1.418
96511W        W64905   3.866  16.641   1.379
96512W        W64906  40.941  24.941   2.734
96513W        W64907   0.924  30.890  14.588
96514W        W64908  16.659   2.864  12.964
96515W        W64909  43.277   6.631  13.212
96516W        W64910  29.062  40.320   3.217
96517W        W64911  20.610   5.612  11.634
96518W        W64912  31.539   8.232  12.960
96519W        W64913  40.744  11.879   2.707
96520W        W64914  21.513  12.720  14.877
96521W        W64915  10.630  28.188  11.050
96522W        W64916  30.335  24.269  13.818
96523W        W64917  20.141  42.251   4.592
96524W        W64918  13.574  10.209   4.560
96525W        W64919   8.666  22.147   1.945
96526W        W64920   9.125  12.168   4.333
96527W        W64921  43.457  14.643   4.274
96528W        W64922  10.268  39.812  11.751
96529W        W64923   5.232  35.407   3.712
96530W        W64924   0.814  19.698  10.926
96531W        W64925  39.201  32.657  11.345
96532W        W64926  18.594  36.464  11.566
96533W        W64927  19.181   9.837   3.598
96534W        W64928  15.876  39.424  10.396
96535W        W64929   6.973  36.002  13.406
96536W        W64930   4.601  26.886   5.052
96537W        W64931  33.615  28.903   0.277
96538W        W64932  41.470   7.371   1.811
96539W        W64933  42.790   2.848   1.347
96540W        W64934   1.018   7.705  11.340
96541W        W64935  24.914  28.827   1.840
96542W        W64936   2.917   7.739   2.777
96543W        W64937  44.677  24.294  13.932
96544W        W64938  29.656   4.216   0.164
96545W        W64939   6.836   3.587  11.934
96546W        W64940  12.904  36.535  13.881
96547W        W64941   1.768  21.522  10.811
96548W        W64942  25.989  36.365   0.771
96549W        W64943  21.733  44.002   4.901
96550W        W64944  14.635  27.916  11.620
96551W        W64945   4.260   8.738   5.045
96552W        W64946  23.784  18.421  11.578
96553W        W64947  38.361  27.182  13.397
96554W        W64948  28.339  23.046   4.241
96555W        W64949  28.521  27.544  10.420
96556W        W64950  36.770  26.591   2.390
96557W        W64951  18.100  35.422   3.364
96558W        W64952  17.783  39.766  10.593
96559W        W64953  28.717   0.500   3.650
96560W        W64954  20.411  44.464  11.320
96561W        W64955  17.316  11.704   1.647
96562W        W64956  28.675  39.708   4.843
96563W        W64957  22.418  44.108  12.972
96564W        W64958  43.567  43.320  12.163
96565W        W64959  17.617   6.100   1.752
96566W        W64960  24.419  26.651   0.826
96567W        W64961  24.964  29.240   4.055
96568W        W64962  44.320  29.324  11.603
96569W        W64963  10.060  35.570   1.355
96570W        W64964  37.329  37.209  11.646
96571W        W64965  40.380   5.778  12.888
96572W        W64966  18.063  30.889   4.108
96573W        W64967   5.894   9.824   0.029
96574W        W64968  30.985  25.028   3.435
96575W        W64969   1.835  29.207  13.344
96576W        W64970  44.734   6.204   4.395
96577W        W64971  20.634  12.314  13.003
96578W        W64972   8.767  37.652   2.239
96579W        W64973   8.359  37.467  14.795
96580W        W64974  40.115  24.114   4.566
96581W        W64975  15.653  20.887   5.053
96582W        W64976  17.798  41.695   5.076
96583W        W64977  43.855   3.234  12.706
96584W        W64978  31.113   0.275  11.508
96585W        W64979  30.605  32.089  11.143
96586W        W64980  29.104  37.854   0.737
96587W        W64981  42.957   1.862  12.977
96588W        W64982  38.911   7.490   0.318
96589W        W64983  14.895  16.210  14.810
96590W        W64984  22.268  21.537  14.810
96591W        W64985  19.706  18.998   2.130
96592W        W64986  40.674  43.091  13.791
96593W        W64987  26.902  44.434  12.441
96594W        W64988  32.536   3.974   3.931
96595W        W64989  43.436   4.816  14.856
96596W        W64990  19.631  33.075   0.273
96597W        W64991   9.287  28.955   1.444
96598W        W64992  10.067  17.990  13.835
96599W        W64993  38.469  33.563   1.684
96600W        W64994  21.263  26.065  10.925
96601W        W64995  44.736  36.105   1.292
96602W        W64996   7.480  44.273   0.914
96603W        W64997  31.297  37.653   2.952
96604W        W64998  23.600  22.458   2.254
96605W        W64999  24.894   0.639   2.832
96606W        W65000  28.151  29.023  12.477
96607W        W65001   7.696   0.932  11.581
96608W        W65002  25.381  20.652  14.343
96609W        W65003  11.292  15.304   1.685
96610W        W65004  37.406  41.688   1.238
96611W        W65005  29.661  44.496   3.216
96612W        W65006  17.815  16.325  12.567
96613W        W65007  16.361   1.159  14.327
96614W        W65008   3.276   4.649   1.353
96615W        W65009  13.911  42.189   0.349
96616W        W65010  18.653  10.846  12.371
96617W        W65011   9.747  19.350   3.545
96618W        W65012  20.716  18.324  10.067
96619W        W65013  36.749  14.855   4.433
96620W        W65014  11.750   2.910   4.491
96621W        W65015  38.483  39.479  11.689
96622W        W65016  43.282  11.680   3.190
96623W        W65017  33.514  37.866  10.520
96624W        W65018  18.277  42.358   4.694
96625W        W65019   9.441  13.146   0.696
96626W        W65020  44.247  41.578   4.320
96627W        W65021   4.873   2.716  14.533
96628W        W65022  41.278   3.448   3.715
96629W        W65023   4.836  16.015   3.646
96630W        W65024  21.984  16.509  12.399
96631W        W65025   2.226   5.575  10.991
96632W        W65026  26.531  12.932  11.604
96633W        W65027  14.286  15.634  13.986
96634W        W65028  31.571  29.930   1.865
96635W        W65029  36.422  19.520   3.323
96636W        W65030  29.036  13.725   3.799
96637W        W65031  40.015  10.622   1.033
96638W        W65032  14.837  22.062  12.113
96639W        W65033  21.449  41.263   0.592
96640W        W65034  44.903  28.128  10.507
96641W        W65035  31.707   3.295   5.007
96642W        W65036  25.140  44.054   1.209
96643W        W65037  11.129  19.879   2.285
96644W        W65038  17.865  19.309   2.285
96645W        W65039  42.110  27.351   4.262
96646W        W65040  38.837  23.674  12.959
96647W        W65041  19.637   1.617  10.615
96648W        W65042  10.391  22.533   2.247
96649W        W65043  40.783  10.296  12.416
96650W        W65044  15.095   0.284  14.967
96651W        W65045  34.243  42.385  14.934
96652W        W65046  36.553   1.473  10.645
96653W        W65047  38.630  26.968   3.096
96654W        W65048  41.746  36.362  13.445
96655W        W65049  29.388   8.301  14.011
96656W        W65050  21.267   1.766  12.884
96657W        W65051   3.395  20.757  13.219
96658W        W65052   2.656  44.629   0.300
96659W        W65053  32.419  24.933  14.455
96660W        W65054  19.920  40.574  10.973
96661W        W65055  28.888   3.769  12.512
96662W        W65056  17.294  28.624   1.943
96663W        W65057   2.358  13.209  10.506
96664W        W65058  15.168  32.819  13.570
96665W        W65059  36.912  36.264   4.499
96666W        W65060  27.148  24.233   1.406
96667W        W65061   5.894  11.142  13.337
96668W        W65062  22.948  32.057  12.485
96669W        W65063  12.718   4.307  11.977
96670W        W65064  21.968  42.277   3.658
96671W        W65065  24.920  14.067  12.574
96672W        W65066   3.315   9.834  13.108
96673W        W65067  12.708   5.752  11.690
96674W        W65068  41.398   7.448   3.868
96675W        W65069   6.319   3.368   0.850
96676W        W65070  19.598  10.484   0.288
96677W        W65071   0.379  25.638  13.880
96678W        W65072  37.898  12.307   3.718
96679W        W65073   1.289   6.300   4.090
96680W        W65074  18.253  24.807   1.363
96681W        W65075   3.946  26.476   4.661
96682W        W65076  31.899  36.412   3.503
96683W        W65077  33.126  33.101   4.141
96684W        W65078   2.687  13.862  14.919
96685W        W65079   6.829   9.697  13.904
96686W        W65080  32.403  13.369   1.771
96687W        W65081   2.564  16.100   3.867
96688W        W65082   7.635  33.478   0.363
96689W        W65083  39.351  21.772   2.794
96690W        W65084  37.601   2.402   0.629
96691W        W65085  40.516  17.563   4.549
96692W        W65086  18.395  36.863  10.605
96693W        W65087   6.262   5.807   1.934
96694W        W65088  22.211   9.778  13.732
96695W        W65089  23.717   2.199  12.514
96696W        W65090  20.969  16.771   1.903
96697W        W65091  16.078  18.552   0.925
96698W        W65092  14.894  14.871  11.631
96699W        W65093   7.363  41.400   2.311
96700W        W65094  34.563   5.808   4.319
96701W        W65095  40.331  31.507  12.352
96702W        W65096  21.888  11.736  14.821
96703W        W65097   3.808   5.443  10.278
96704W        W65098  38.352  21.795  11.115
96705W        W65099  32.858  13.715  12.089
96706W        W65100   9.607  30.778   3.277
96707W        W65101  31.566  36.622   2.700
96708W        W65102   4.675  12.819   1.912
96709W        W65103  19.686  32.644   0.872
96710W        W65104   1.196   4.447  14.881
96711W        W65105  23.195   3.415   2.759
96712W        W65106  25.473  37.618   5.030
96713W        W65107  40.572  31.646  12.982
96714W        W65108  37.278  12.556  12.907
96715W        W65109  30.869  19.566   2.693
96716W        W65110  33.245  39.556  12.505
96717W        W65111  27.614  32.453  12.872
96718W        W65112   2.504   4.050   3.781
96719W        W65113  25.976  22.605   1.566
96720W        W65114  43.980  42.965  11.046
96721W        W65115  21.406  11.736   4.643
96722W        W65116  26.131  23.636  10.738
96723W        W65117  42.470  31.412   3.809
96724W        W65118  26.687  19.018  12.503
96725W        W65119  29.048   6.699  12.478
96726W        W65120  25.834  41.704   4.793
96727W        W65121  37.643  44.968   2.264
96728W        W65122  23.231  42.309   4.628
96729W        W65123  27.897   5.797   2.386
96730W        W65124  39.036  30.125  14.816
96731W        W65125   5.314   1.235   0.824
96732W        W65126  42.765   3.439   1.844
96733W        W65127  32.605  28.407   4.076
96734W        W65128   6.190  43.293   0.345
96735W        W65129  35.953  22.118  13.381
96736W        W65130  32.122   8.714   0.353
96737W        W65131  37.479   7.185  13.937
96738W        W65132  25.905  15.151   1.516
96739W        W65133  27.010  43.890   3.213
96740W        W65134  21.614  32.851   0.027
96741W        W65135   8.441   0.262   4.990
96742W        W65136  28.620   5.461   2.630
96743W        W65137  14.896  20.555  14.325
96744W        W65138  17.805  22.044   2.585
96745W        W65139   6.692  37.418  13.887
96746W        W65140  13.714   4.008   3.135
96747W        W65141  41.001  20.613   2.379
96748W        W65142   9.758  20.282  11.988
96749W        W65143  28.319  12.424  13.353
96750W        W65144   6.681  22.108  10.214
96751W        W65145  38.032  43.002  12.825
96752W        W65146  28.437  37.958  12.152
96753W        W65147  10.418   8.967   4.734
96754W        W65148  31.298   4.922   2.906
96755W        W65149   3.255  36.690  13.513
96756W        W65150   1.897  39.550  11.312
96757W        W65151   6.828  35.444   3.248
96758W        W65152  26.958  24.751   3.351
96759W        W65153  20.014  18.001  13.986
96760W        W65154  30.463  28.202   2.348
96761W        W65155  13.896  40.407   0.853
96762W        W65156  11.186   6.169  10.969
96763W        W65157   6.437  34.819  11.520
96764W        W65158  19.387  21.701   2.357
96765W        W65159  22.601   0.089  13.307
96766W        W65160  14.154  17.742  13.425
96767W        W65161  29.564   6.373  12.135
96768W        W65162  44.527   1.906   4.568
96769W        W65163  43.426  17.400   1.179
96770W        W65164  27.639  29.192  12.945
96771W        W65165  42.943   8.266  12.558
96772W        W65166  20.575  32.112   2.863
96773W        W65167  41.947  22.461  13.056
96774W        W65168  20.963   0.432  12.543
96775W        W65169  19.642   9.317  14.729
96776W        W65170  19.049  29.106  14.822
96777W        W65171  26.181  29.866   4.150
96778W        W65172  36.127  23.647  13.979
96779W        W65173  36.496  24.721  14.307
96780W        W65174  10.658  41.551   2.816
96781W        W65175   3.223  23.258  12.044
96782W        W65176  11.181  10.794   0.239
96783W        W65177  34.644  44.443  14.763
96784W        W65178  39.418  23.602   3.588
96785W        W65179   6.887  41.083   3.601
96786W        W65180  13.180   8.324  11.125
96787W        W65181  16.720   5.227  10.976
96788W        W65182  16.829  10.243  13.263
96789W        W65183   9.758  23.216  12.040
96790W        W65184   9.857   4.336  12.377
96791W        W65185   6.336  36.124   4.014
96792W        W65186  32.665  36.883   0.305
96793W        W65187  43.814  24.466  12.962
96794W        W65188  42.458  16.619  14.999
96795W        W65189  29.171  33.881  10.622
96796W        W65190  25.230  13.861  13.895
96797W        W65191  40.400  41.444  14.050
96798W        W65192  33.074  44.902  14.585
96799W        W65193  21.927  42.318  14.504
96800W        W65194  35.028  28.298   4.481
96801W        W65195  23.571   0.784  11.855
96802W        W65196   7.143  26.915  11.982
96803W        W65197  15.842  27.593   3.724
96804W        W65198  42.301  26.581   2.141
96805W        W65199  44.102  13.706   4.152
96806W        W65200   9.746  16.198  10.437
96807W        W65201  19.378  37.854   0.316
96808W        W65202  23.108  17.391   4.578
96809W        W65203  44.276  23.701  12.849
96810W        W65204  36.504   3.956  13.297
96811W        W65205  23.378  16.338   2.561
96812W        W65206   5.888  31.428   4.029
96813W        W65207  37.537  21.849  12.862
96814W        W65208  20.032  22.163   2.468
96815W        W65209  19.344  10.320   1.696
96816W        W65210  40.953  31.010  14.351
96817W        W65211  17.023   3.894  13.355
96818W        W65212   6.126  33.726   0.430
96819W        W65213   6.334  19.223   3.647
96820W        W65214  23.813  21.008   2.561
96821W        W65215  26.008  25.217   3.634
96822W        W65216  12.898  19.038  11.055
96823W        W65217   8.410  26.576   3.205
96824W        W65218  12.394  38.585   3.537
96825W        W65219   8.737  38.244  12.039
96826W        W65220   6.962  21.946  11.900
96827W        W65221   4.505  25.858  12.514
96828W        W65222   7.271  41.251  12.050
96829W        W65223  10.276   6.502  10.697
96830W        W65224  30.144   8.141  12.861
96831W        W65225   8.338  11.890   4.631
96832W        W65226  36.706   0.494  13.993
96833W        W65227  29.962  13.866   3.820
96834W        W65228   0.661  20.722  14.878
96835W        W65229  41.006  31.967   4.279
96836W        W65230  37.449  41.468  13.867
96837W        W65231  30.440  20.453   3.374
96838W        W65232  10.199  33.462   0.918
96839W        W65233  17.133  19.356   2.624
96840W        W65234  43.924   8.252  14.993
96841W        W65235  14.072   2.631  10.888
96842W        W65236  15.167  37.978   5.021
96843W        W65237  11.713  42.784   4.372
96844W        W65238   4.264  37.372  11.197
96845W        W65239  30.718  31.430   0.487
96846W        W65240  24.466  19.429  10.968
96847W        W65241  28.818  28.059  13.538
96848W        W65242  13.664  19.200   2.369
96849W        W65243  14.684  15.112   3.788
96850W        W65244  13.213  15.635   1.446
96851W        W65245  33.068  33.638  12.149
96852W        W65246   9.384  29.657   4.374
96853W        W65247   1.344  22.453   2.635
96854W        W65248  15.419  26.774   4.984
96855W        W65249  31.049  35.931  14.432
96856W        W65250  23.741  15.780  13.276
96857W        W65251  15.071   8.902  11.201
96858W        W65252  24.016  41.666  10.662
96859W        W65253  36.679  39.661  13.596
96860W        W65254   2.301  37.168  13.034
96861W        W65255   3.453  11.405  12.266
96862W        W65256  35.398  27.172  12.967
96863W        W65257   1.504  20.059   1.069
96864W        W65258   8.475  36.639   0.275
96865W        W65259  33.602  18.337  11.863
96866W        W65260  29.600  31.162  10.590
96867W        W65261  34.842  24.223  13.948
96868W        W65262  22.522  11.831  11.097
96869W        W65263  18.708  19.990   4.526
96870W        W65264   3.893   0.086   0.307
96871W        W65265  38.330  35.174   3.616
96872W        W65266  16.248  16.737   2.999
96873W        W65267   2.840  10.166  12.855
96874W        W65268  31.035   5.606  11.632
96875W        W65269  32.475  19.999  12.434
96876W        W65270  13.896  22.905   0.300
96877W        W65271   3.890  34.220  11.172
96878W        W65272  31.982  25.623  11.181
96879W        W65273  38.004  24.847   1.300
96880W        W65274  25.757  15.289   1.003
96881W        W65275  40.338  34.834   0.521
96882W        W65276  16.916  29.214   1.532
96883W        W65277  27.852  41.633  13.509
96884W        W65278  19.203  20.077  13.991
96885W        W65279  19.230  31.060  11.219
96886W        W65280  34.537  28.040  12.913
96887W        W65281   3.493  38.478   4.151
96888W        W65282   5.696  28.396   0.151
96889W        W65283  27.683  28.675  12.939
96890W        W65284  20.015  20.811   3.793
96891W        W65285  43.506  11.800   1.395
96892W        W65286  12.339  27.837   1.773
96893W        W65287  26.140   1.668   0.903
96894W        W65288  29.060  34.312  10.376
96895W        W65289   2.362   8.746  14.323
96896W        W65290  18.540  41.395   2.875
96897W        W65291  13.270  41.951   0.456
96898W        W65292  41.739  44.639   1.709
96899W        W65293  17.185  29.630   2.907
96900W        W65294  38.221  13.665  13.535
96901W        W65295  17.103  40.218  10.299
96902W        W65296  17.157  13.163   2.752
96903W        W65297  28.931  10.748   2.421
96904W        W65298  12.677  32.062   4.436
96905W        W65299  42.007   3.191   0.334
96906W        W65300   3.383  20.788  11.320
96907W        W65301   5.964  37.269   2.873
96908W        W65302   8.772  41.406  14.670
96909W        W65303  21.528  44.167   2.261
96910W        W65304  25.874  32.535   3.754
96911W        W65305   4.847  32.064  12.165
96912W        W65306  33.472  27.254   3.696
96913W        W65307   5.936  22.150  12.887
96914W        W65308  25.032  13.236  12.120
96915W        W65309  26.098  43.582  11.596
96916W        W65310  17.845  40.359  14.342
96917W        W65311  40.858  12.702   0.564
96918W        W65312  10.639  34.929   4.337
96919W        W65313  11.614  17.376   2.389
96920W        W65314  38.564  15.679   5.261
96921W        W65315  28.794  33.520   1.370
96922W        W65316  29.002   8.551  14.433
96923W        W65317  25.580  27.435  14.910
96924W        W65318  19.289  34.470   3.268
96925W        W65319   2.344  35.121  14.032
96926W        W65320   3.019  33.016   0.264
96927W        W65321  19.678  31.280  14.267
96928W        W65322  32.702   1.172  10.951
96929W        W65323  33.007  32.038  13.565
96930W        W65324   0.201   7.799  14.050
96931W        W65325  22.236  37.508  12.534
96932W        W65326  14.330  41.159  11.319
96933W        W65327  31.059  44.865  12.426
96934W        W65328   1.462  40.830   2.072
96935W        W65329  11.288   4.828  11.644
96936W        W65330  34.226  10.674   0.717
96937W        W65331  39.343  32.416   4.767
96938W        W65332   6.732  21.227  14.841
96939W        W65333  24.405  28.534   0.640
96940W        W65334  13.695  28.586  11.815
96941W        W65335  38.514   6.452  10.419
96942W        W65336  14.410  39.316  11.478
96943W        W65337  12.360   5.225   0.322
96944W        W65338  16.765  36.089  12.308
96945W        W65339  29.335   5.652  10.531
96946W        W65340   1.651  25.474   1.786
96947W        W65341  37.506  13.857  11.636
96948W        W65342  42.568   8.428   2.832
96949W        W65343  21.350  31.793   0.307
96950W        W65344  21.765  11.459   9.872
96951W        W65345   7.853  30.999   1.286
96952W        W65346  31.875  24.457  11.996
96953W        W65347  35.867  40.143  14.868
96954W        W65348  43.288  10.769   0.421
96955W        W65349  44.830  33.153  10.655
96956W        W65350  40.083  13.763   0.393
96957W        W65351  39.671   2.381  14.214
96958W        W65352  23.235  14.396  12.466
96959W        W65353   8.220  29.137   1.844
96960W        W65354  10.764  20.446   1.519
96961W        W65355   9.198   6.512   3.131
96962W        W65356  43.333  24.279   4.657
96963W        W65357  41.821  13.243   1.394
96964W        W65358  42.789  16.989  11.457
96965W        W65359  32.489  11.856   4.980
96966W        W65360  25.218  17.216   1.881
96967W        W65361   0.986  21.083  10.840
96968W        W65362  40.897  18.012   0.934
96969W        W65363  16.390   8.690  11.586
96970W        W65364   9.657  21.506   0.461
96971W        W65365  23.158  25.654  11.468
96972W        W65366  11.866  23.751  12.466
96973W        W65367   4.381  25.812  12.000
96974W        W65368  35.901  31.716  14.379
96975W        W65369  24.428  27.893  11.199
96976W        W65370  23.056  23.145   3.252
96977W        W65371  21.127   1.415   4.655
96978W        W65372  35.533  33.382   1.205
96979W        W65373  25.582   2.980   4.291
96980W        W65374  42.842   7.716  11.088
96981W        W65375   2.221  29.611  12.029
96982W        W65376  24.780  34.514   2.119
96983W        W65377  19.057  13.282  14.343
96984W        W65378  33.041  36.378   2.789
96985W        W65379  18.077  33.389   2.846
96986W        W65380  21.649  22.751   2.677
96987W        W65381  43.803  25.126   0.227
96988W        W65382  31.957  21.872   2.891
96989W        W65383  28.098  19.619  10.305
96990W        W65384  38.987   6.090  10.807
96991W        W65385  10.278  16.781  12.507
96992W        W65386   0.869  30.202  13.954
96993W        W65387  43.906  18.656  10.599
96994W        W65388  32.691  11.679  11.170
96995W        W65389  38.591  41.510  11.260
96996W        W65390  20.581   9.775   0.427
96997W        W65391  22.103  26.015  10.846
96998W        W65392  37.026   9.788   4.678
96999W        W65393  19.649  18.276  14.282
97000W        W65394   7.675  34.718  13.346
97001W        W65395  38.370  37.792   0.892
97002W        W65396  14.896  20.109   4.064
97003W        W65397  16.038  37.855  11.131
97004W        W65398  12.421   5.109  13.826
97005W        W65399  43.793  41.350  11.146
97006W        W65400  23.021  27.591   2.284
97007W        W65401  19.017  44.773   0.353
97008W        W65402  22.589  22.927  11.614
97009W        W65403  28.584  20.060   1.945
97010W        W65404  42.887  35.611  13.582
97011W        W65405  34.225   3.966   3.167
97012W        W65406  28.348  35.506  12.902
97013W        W65407   2.607  13.079  10.079
97014W        W65408   1.959   3.201  13.600
97015W        W65409  27.386  36.823  11.962
97016W        W65410  38.521   7.678  10.716
97017W        W65411  20.789  37.663   0.311
97018W        W65412  29.667  40.422   0.047
97019W        W65413  31.977  40.353  10.378
97020W        W65414  31.509  27.941   1.184
97021W        W65415  14.257  43.354  13.407
97022W        W65416  17.521  24.289   2.698
97023W        W65417  16.941   1.325   1.916
97024W        W65418   6.223  16.042  11.170
97025W        W65419  10.347  26.258  11.693
97026W        W65420  38.516  38.165   1.274
97027W        W65421  31.093  28.643  10.730
97028W        W65422  32.452  16.696  14.999
97029W        W65423  36.200  24.983   5.000
97030W        W65424  16.456  34.409  10.846
97031W        W65425  22.103   2.442   1.989
97032W        W65426   4.885  14.644  11.871
97033W        W65427  15.164  28.683  14.561
97034W        W65428  36.473  20.736  11.002
97035W        W65429   3.941  19.735   1.869
97036W        W65430   9.261  16.589   4.161
97037W        W65431  11.125  29.411  10.730
97038W        W65432  14.782   3.526  14.728
97039W        W65433  31.504  33.806   2.445
97040W        W65434  44.494  30.731   3.229
97041W        W65435  14.192  39.544   3.508
97042W        W65436   3.361  29.103   3.141
97043W        W65437  41.549  15.533   1.806
97044W        W65438  23.310  25.179   2.292
97045W        W65439   0.478  10.377   3.667
97046W        W65440   2.431  44.992  13.105
97047W        W65441  39.103   1.482   0.575
97048W        W65442   4.028  35.970  11.383
97049W        W65443  28.382  29.114   2.844
97050W        W65444   5.714  20.351  10.701
97051W        W65445  17.730  25.863   4.104
97052W        W65446   1.677   7.468  14.917
97053W        W65447   8.208  26.756   3.651
97054W        W65448  27.718   1.864  12.532
97055W        W65449  26.114  28.156   4.607
97056W        W65450  14.286  14.632  10.462
97057W        W65451  13.263   2.402   2.658
97058W        W65452   5.353  39.834   0.102
97059W        W65453  29.577  15.205   0.529
97060W        W65454  33.630  14.285  11.218
97061W        W65455  34.548  22.405   2.103
97062W        W65456   9.250  28.960  10.544
97063W        W65457   6.246   1.522   4.214
97064W        W65458  26.850  18.295  13.350
97065W        W65459  20.652  36.542   4.802
97066W        W65460  14.126   1.844  13.923
97067W        W65461   9.418  29.154  13.373
97068W        W65462  41.342  32.898  14.534
97069W        W65463   8.837   2.401   2.900
97070W        W65464  24.989  20.038  10.779
97071W        W65465   8.556  14.853   0.416
97072W        W65466  41.117  26.952   3.357
97073W        W65467   3.764  16.560  12.266
97074W        W65468   1.232  37.548   1.849
97075W        W65469   8.446  44.274  14.409
97076W        W65470   7.388  38.418  11.910
97077W        W65471  23.720  14.017   1.828
97078W        W65472  38.526  27.033   1.738
97079W        W65473  29.376  42.847  14.218
97080W        W65474   9.105   7.102  12.486
97081W        W65475  26.263  27.044  13.487
97082W        W65476  31.583   7.436  12.511
97083W        W65477  10.403  19.566   0.266
97084W        W65478  16.497   4.244  11.561
97085W        W65479  40.875  38.970  12.115
97086W        W65480   9.868  30.051   2.861
97087W        W65481   1.425  12.754  10.812
97088W        W65482  42.473  31.623   0.830
97089W        W65483  23.513  15.645  10.399
97090W        W65484  37.781  34.362  14.469
97091W        W65485  43.267  40.570  13.982
97092W        W65486  42.337  14.696  10.621
97093W        W65487  21.993  27.840  13.853
97094W        W65488  16.291  19.242   0.246
97095W        W65489  24.028   3.812   2.856
97096W        W65490  37.046  10.112  11.216
97097W        W65491  18.184  43.854  14.087
97098W        W65492  36.575  27.017   0.309
97099W        W65493  24.100  27.902  14.513
97100W        W65494   8.783  10.415  14.997
97101W        W65495  18.634  20.642  11.420
97102W        W65496  18.793  28.013   1.293
97103W        W65497  25.489   9.296   2.274
97104W        W65498  17.044  23.100   4.010
97105W        W65499  27.080  34.591   0.958
97106W        W65500  16.311  11.806   3.730
97107W        W65501  39.879  13.319  13.426
97108W        W65502  31.392  41.043  14.921
97109W        W65503   6.159  14.117  14.269
97110W        W65504  14.384  19.200  13.254
97111W        W65505  36.439  10.485   1.118
97112W        W65506  19.157  18.795   4.218
97113W        W65507  25.458  27.564  13.875
97114W        W65508  38.927   3.696   0.868
97115W        W65509   8.134  29.018   0.824
97116W        W65510  30.748  35.499  12.643
97117W        W65511  19.725  34.939  12.633
97118W        W65512  32.337  10.722  14.336
97119W        W65513  35.090  15.843  12.404
97120W        W65514  14.038  14.647  14.348
97121W        W65515  28.980   4.194  12.057
97122W        W65516  24.050  17.157   4.325
97123W        W65517  15.757  32.207  12.473
97124W        W65518  42.544  34.844   4.023
97125W        W65519   9.927   7.964   4.283
97126W        W65520  44.272  17.364  11.031
97127W        W65521  41.446  38.553  14.898
97128W        W65522  27.735  26.571   1.355
97129W        W65523  30.661   4.223  14.356
97130W        W65524  23.010  10.411   1.330
97131W        W65525  27.333   9.203  14.412
97132W        W65526   9.354   4.193   9.867
97133W        W65527  11.961  14.729  13.037
97134W        W65528  12.239   3.148   4.580
97135W        W65529  41.769  43.929  11.684
97136W        W65530   9.720  41.903   1.070
97137W        W65531  19.356  27.926  13.056
97138W        W65532  37.348   3.508  10.737
97139W        W65533  20.413  31.916   1.415
97140W        W65534   5.615  23.502   5.004
97141W        W65535  26.729  35.680   0.220
97142W        W65536  11.846   5.487  11.391
97143W        W65537  14.265  38.228  13.446
97144W        W65538  33.801  23.471   4.667
97145W        W65539   5.439  13.187   0.714
97146W        W65540   3.251  43.384  12.800
97147W        W65541   5.016  43.465   1.308
97148W        W65542  25.648  16.153  14.543
97149W        W65543  18.150  43.286  11.474
97150W        W65544  41.042  16.744  12.051
97151W        W65545   8.879  32.077   1.939
97152W        W65546  33.541   5.686  14.913
97153W        W65547  27.396   8.269   3.886
97154W        W65548  29.145  16.549   4.283
97155W        W65549  39.500  14.175  10.681
97156W        W65550   8.131  44.693   3.720
97157W        W65551   2.474  39.017  14.589
97158W        W65552  25.762  24.580  12.106
97159W        W65553   7.877  29.343  10.760
97160W        W65554  13.781  11.970  14.956
97161W        W65555   8.140  23.552  13.372
97162W        W65556   0.200  39.581   4.085
97163W        W65557  28.550  13.310  11.880
97164W        W65558  39.787  44.936   2.210
97165W        W65559  44.435  20.724  11.599
97166W        W65560  41.525  35.447  13.858
97167W        W65561  18.888   7.547  12.586
97168W        W65562  26.648   0.240   4.546
97169W        W65563   8.774  15.367  11.626
97170W        W65564  25.887  15.889   4.945
97171W        W65565  22.753   0.016  13.799
97172W        W65566  43.192  15.763  10.480
97173W        W65567  24.327  16.763  10.795
97174W        W65568  22.543  41.290  14.978
97175W        W65569  41.019  27.212   1.005
97176W        W65570  36.707  36.019   4.916
97177W        W65571  19.057  30.671  11.557
97178W        W65572  13.884  19.194  13.453
97179W        W65573  12.729  44.916   3.259
97180W        W65574  16.115  31.064  11.903
97181W        W65575  38.354  43.909   4.589
97182W        W65576   9.462  25.492   4.840
97183W        W65577  32.933  20.687   4.125
97184W        W65578   6.171  34.106   3.263
97185W        W65579   7.037  38.558  14.451
97186W        W65580  20.482  23.701   2.640
97187W        W65581   4.814  24.275   4.717
97188W        W65582  36.458   4.911  13.376
97189W        W65583  20.320  26.730   0.328
97190W        W65584  36.167  20.143   3.324
97191W        W65585  37.093  38.288  14.378
97192W        W65586  23.577   3.696   1.390
97193W        W65587   7.214   7.825   1.164
97194W        W65588  21.098   4.683   1.382
97195W        W65589  29.626   4.387   1.212
97196W        W65590  22.204  29.390  11.644
97197W        W65591  17.975  39.541  14.196
97198W        W65592   7.269   0.484   2.160
97199W        W65593  14.068  32.366   4.731
97200W        W65594  10.025  15.737  10.316
97201W        W65595  27.746  11.616  10.571
97202W        W65596  15.651  30.939  12.138
97203W        W65597  36.643   0.811   3.429
97204W        W65598  31.124  28.981  11.129
97205W        W65599  42.895   2.420   3.874
97206W        W65600  22.561   2.888   4.728
97207W        W65601   4.203  26.699  12.049
97208W        W65602  13.858  17.745   1.442
97209W        W65603  42.313  32.437  13.334
97210W        W65604  34.386   4.767   2.750
97211W        W65605  34.393  19.753  11.593
97212W        W65606   4.443  34.437  13.778
97213W        W65607  23.610   9.754   0.208
97214W        W65608  24.578  42.928   1.318
97215W        W65609  14.376  16.122  13.128
97216W        W65610  43.952  34.791  14.832
97217W        W65611   4.666  13.251   1.242
97218W        W65612  31.438  38.034  11.969
97219W        W65613  19.522  43.313   0.924
97220W        W65614  34.733  35.348  11.980
97221W        W65615  40.391  12.761   0.332
97222W        W65616  34.799  32.585  14.330
97223W        W65617   4.539  31.684   4.508
97224W        W65618  13.125   8.516  13.635
97225W        W65619  12.268   1.982  10.409
97226W        W65620  16.276  31.413   1.090
97227W        W65621  10.511   2.590  14.206
97228W        W65622  18.161  17.378   1.207
97229W        W65623   4.151  18.189  13.479
97230W        W65624  30.527  43.900   4.757
97231W        W65625  15.539  21.869   2.413
97232W        W65626  19.651  34.148  10.823
97233W        W65627  16.073  37.444   3.199
97234W        W65628  25.748  40.859   2.773
97235W        W65629  38.329  42.904   1.507
97236W        W65630  43.851  44.259  13.702
97237W        W65631  29.477   1.732   4.113
97238W        W65632  10.421  31.744   1.874
97239W        W65633   0.735   6.499   1.984
97240W        W65634  38.849  28.560  13.562
97241W        W65635  36.219  19.600  10.357
97242W        W65636  36.602  11.140  12.861
97243W        W65637  21.281  35.872  13.929
97244W        W65638   0.247   4.301  10.448
97245W        W65639   5.337  42.739  10.706
97246W        W65640  35.819  13.841  11.609
97247W        W65641  13.267  27.991   2.765
97248W        W65642  25.647   6.387   0.984
97249W        W65643  37.769   0.426  12.490
97250W        W65644   9.585   8.164  11.897
97251W        W65645  28.029  29.198   2.446
97252W        W65646   6.332  13.048  10.955
97253W        W65647  25.042   6.916  10.659
97254W        W65648   0.808   2.320  10.710
97255W        W65649  40.877  39.735  11.794
97256W        W65650  21.178   9.838  13.100
97257W        W65651  33.169  36.138  13.486
97258W        W65652  10.859   9.441  11.955
97259W        W65653   5.965  25.528   3.025
97260W        W65654  14.558  35.829   4.104
97261W        W65655   0.139  12.081   3.386
97262W        W65656  25.494  10.185   4.088
97263W        W65657  42.734   2.410   2.636
97264W        W65658  27.381   5.729  14.206
97265W        W65659  37.859   2.847   4.481
97266W        W65660  26.304  21.071  14.479
97267W        W65661  11.337  29.619   0.935
97268W        W65662  42.949  11.779  10.467
97269W        W65663  21.062   4.710  14.498
97270W        W65664  14.555  18.731  14.517
97271W        W65665  14.759  28.936  13.909
97272W        W65666  22.679  25.723   0.259
97273W        W65667  13.119  18.552   0.791
97274W        W65668  28.474  34.628   4.159
97275W        W65669  38.401  11.245  14.910
97276W        W65670  13.644   3.774   3.725
97277W        W65671  10.193  23.177  14.400
97278W        W65672  11.845  41.883   4.198
97279W        W65673  25.387   0.847  11.976
97280W        W65674  10.280  40.992  13.523
97281W        W65675  14.503  11.502   1.934
97282W        W65676  22.476   4.889  12.644
97283W        W65677   6.465   9.714  13.392
97284W        W65678  18.128  37.397   0.016
97285W        W65679  41.501  21.722   1.906
97286W        W65680  39.403  28.392  14.784
97287W        W65681  20.550   9.037   1.677
97288W        W65682  13.170  42.464  10.710
97289W        W65683   2.360   7.551  10.897
97290W        W65684  10.271  39.493   4.431
97291W        W65685   7.895   5.398   3.800
97292W        W65686  21.563  42.757  14.468
97293W        W65687  42.798  41.046   0.978
97294W        W65688  30.229   1.635  14.335
97295W        W65689  28.677  15.569   2.586
97296W        W65690  21.926  39.328  12.368
97297W        W65691  44.314  17.967  12.340
97298W        W65692  40.447  20.273  13.825
97299W        W65693  35.465  22.763   2.217
97300W        W65694  44.347  28.142   1.310
97301W        W65695  37.848  35.801  13.841
97302W        W65696  19.490   7.695   1.319
97303W        W65697  28.444  19.112   2.777
97304W        W65698  36.410  38.909  10.701
97305W        W65699  23.511  11.670   0.812
97306W        W65700  39.587  27.763  11.662
97307W        W65701  37.730  25.423  13.444
97308W        W65702  32.366  31.548   1.232
97309W        W65703  23.470  31.386   1.660
97310W        W65704  30.517  36.510   1.922
97311W        W65705   2.333  17.959  10.153
97312W        W65706  28.725   7.662  14.540
97313W        W65707  10.675  40.552   4.535
97314W        W65708  30.911  37.523  11.106
97315W        W65709   5.831   8.629   2.395
97316W        W65710  23.683  11.475  14.832
97317W        W65711  34.130  24.747  12.476
97318W        W65712   2.356  10.087  13.435
97319W        W65713   8.290   4.243   1.095
97320W        W65714  15.260   9.487  13.841
97321W        W65715  27.185  15.276  12.078
97322W        W65716  25.791  19.110  14.230
97323W        W65717  41.970   4.815   3.234
97324W        W65718  29.598  24.187   0.485
97325W        W65719  35.566  21.098   4.986
97326W        W65720   5.856  35.620   2.277
97327W        W65721   6.353  11.101   2.844
97328W        W65722   0.714   8.321   2.688
97329W        W65723  42.172  13.285  14.525
97330W        W65724   5.958  33.159   4.069
97331W        W65725  27.016  17.299   3.003
97332W        W65726  12.034  30.846  12.364
97333W        W65727  24.658   6.810   4.048
97334W        W65728  12.230   8.404   2.633
97335W        W65729  44.478   3.975  12.106
97336W        W65730  18.037  44.306  13.292
97337W        W65731   4.328  27.060  10.381
97338W        W65732  42.484   6.268   0.942
97339W        W65733  31.574  20.844  13.470
97340W        W65734  30.697   2.295   4.637
97341W        W65735  30.259   5.363  11.206
97342W        W65736  33.608   0.563   5.215
97343W        W65737  33.529  19.004   3.270
97344W        W65738  31.928  42.020   2.682
97345W        W65739  27.145  23.254   3.336
97346W        W65740  11.719  33.054  13.743
97347W        W65741   0.030  38.603  14.531
97348W        W65742  41.003  12.899   1.421
97349W        W65743  20.633  40.283   3.661
97350W        W65744  42.046  26.603  10.328
97351W        W65745  10.166  29.537  14.044
97352W        W65746  41.681  33.126   3.359
97353W        W65747   0.177  34.982  13.938
97354W        W65748  43.564  14.431  14.419
97355W        W65749  32.121  37.879  11.228
97356W        W65750  20.690  40.023   1.694
97357W        W65751  14.769   5.893  14.112
97358W        W65752  15.273  13.410   4.282
97359W        W65753  19.293  25.947   3.267
97360W        W65754   6.485  35.880   3.008
97361W        W65755   3.487  25.609  12.460
97362W        W65756  12.134   4.207   4.606
97363W        W65757   9.849   9.813  11.113
97364W        W65758  41.857  19.813  14.457
97365W        W65759   4.363   9.552  14.039
97366W        W65760   5.361  30.352   3.690
97367W        W65761  32.572   5.214   3.725
97368W        W65762   5.779  30.558  13.856
97369W        W65763  18.076  18.737   4.486
97370W        W65764  12.522   5.834   0.054
97371W        W65765  43.656  44.345  10.181
97372W        W65766  28.874  14.927   2.103
97373W        W65767   2.996   1.978   0.918
97374W        W65768  31.529  33.504   1.193
97375W        W65769   4.133  10.837  13.626
97376W        W65770   4.552  22.174   2.941
97377W        W65771  11.526  20.787  12.997
97378W        W65772  42.358  29.035  12.115
97379W        W65773  31.244   9.637  14.039
97380W        W65774  40.960  33.142  10.726
97381W        W65775  30.655  16.609   1.263
97382W        W65776  28.523   1.797  13.863
97383W        W65777  24.151  41.004  14.764
97384W        W65778  39.251  20.244  11.003
97385W        W65779   5.283  24.873  14.064
97386W        W65780  13.332  20.701  11.279
97387W        W65781  42.954  41.566  14.500
97388W        W65782  40.392  37.400   2.434
97389W        W65783  17.164  13.399   0.977
97390W        W65784  17.362  23.272  11.559
97391W        W65785  18.458  43.089  11.095
97392W        W65786  37.322  22.508  13.897
97393W        W65787  33.373  24.760   3.063
97394W        W65788  41.300   1.864   4.180
97395W        W65789  19.543   5.293   1.756
97396W        W65790  41.908  30.928  10.779
97397W        W65791   1.247  21.097  14.941
97398W        W65792  32.206  37.010  11.560
97399W        W65793   1.450  23.451   1.666
97400W        W65794  33.369  13.159   4.885
97401W        W65795  23.582  12.154   2.124
97402W        W65796   2.347  29.965   4.692
97403W        W65797  19.773  39.081   5.672
97404W        W65798  38.992  20.076  10.283
97405W        W65799   1.940  11.626   3.746
97406W        W65800   9.421   0.474   0.846
97407W        W65801  14.828   5.795   1.013
97408W        W65802  40.896  10.677   4.854
97409W        W65803  15.728  25.840  12.309
97410W        W65804  43.893  17.744  10.730
97411W        W65805  17.772  25.654   1.829
97412W        W65806  31.681   9.790  13.779
97413W        W65807  19.037   5.611   4.583
97414W        W65808  44.099  32.828   2.156
97415W        W65809  23.960  22.689   1.351
97416W        W65810   0.582  17.587  11.450
97417W        W65811  26.400  35.885  13.377
97418W        W65812  27.931  13.685   2.414
97419W        W65813  11.675  33.831  11.166
97420W        W65814   0.701  27.134  10.724
97421W        W65815  36.001   1.797  13.111
97422W        W65816   9.196   5.389  11.189
97423W        W65817  42.324  11.750  11.127
97424W        W65818  12.540  40.992  10.676
97425W        W65819  29.432  17.780   0.510
97426W        W65820  39.768  30.246   1.912
97427W        W65821  20.211   0.290   0.232
97428W        W65822   5.953   6.722   3.151
97429W        W65823  32.894  31.696  13.959
97430W        W65824  24.756  28.726   3.648
97431W        W65825  35.880   3.414  12.781
97432W        W65826   2.919  28.327  13.846
97433W        W65827   7.586  22.723  13.280
97434W        W65828  40.992   0.835  11.644
97435W        W65829   3.736  44.251  11.673
97436W        W65830  22.722  11.303   0.818
97437W        W65831  28.668   4.216  14.800
97438W        W65832  11.137  30.060   0.758
97439W        W65833   9.099  19.714  10.705
97440W        W65834  29.240   1.237   2.332
97441W        W65835   5.295  19.038  10.533
97442W        W65836  13.203  32.072   1.598
97443W        W65837   5.005  12.869  12.013
97444W        W65838  38.507   9.401   0.937
97445W        W65839   1.785   6.847  11.290
97446W        W65840  36.840  25.502  10.711
97447W        W65841  18.261  25.213   2.656
97448W        W65842  26.042  11.992  14.378
97449W        W65843  41.260  16.144   0.954
97450W        W65844  36.185   0.325   3.645
97451W        W65845  36.967   6.135   3.154
97452W        W65846  43.257  40.007  11.883
97453W        W65847  42.853  33.398   4.176
97454W        W65848  30.028  22.765  13.347
97455W        W65849  37.598  42.026  10.751
97456W        W65850  17.686  38.866  13.837
97457W        W65851  24.106   3.900  14.302
97458W        W65852  36.081  38.375  11.775
97459W        W65853  31.632  34.907   1.356
97460W        W65854  29.395  21.227  13.758
97461W        W65855  41.438   4.661  14.724
97462W        W65856  26.293  28.189  14.633
97463W        W65857  43.533  18.102   3.814
97464W        W65858  12.292  22.598  12.937
97465W        W65859   8.111  36.070  11.378
97466W        W65860  44.344   5.265  12.958
97467W        W65861  43.446   7.678   0.714
97468W        W65862   8.972  25.969   4.717
97469W        W65863   8.207  31.579   2.823
97470W        W65864  15.770  39.724   3.082
97471W        W65865  30.879  12.024   2.377
97472W        W65866   3.321  39.882   1.289
97473W        W65867  41.406  23.521  12.878
97474W        W65868   5.211   6.634  13.774
97475W        W65869  15.748  15.692  11.057
97476W        W65870  28.943  21.077  12.376
97477W        W65871  15.241  11.651   4.121
97478W        W65872  22.744  10.776   3.844
97479W        W65873  40.852   9.968  14.923
97480W        W65874  31.719  26.889   2.293
97481W        W65875   0.349   9.733  10.680
97482W        W65876  28.908   8.920   1.263
97483W        W65877   3.873  22.217   4.139
97484W        W65878  23.438  42.963   2.110
97485W        W65879  39.402   0.846  13.487
97486W        W65880  39.949  40.021  14.014
97487W        W65881   0.430  43.631  11.619
97488W        W65882  21.818  27.396   5.023
97489W        W65883  14.264   7.564   1.837
97490W        W65884  24.443  12.284  11.227
97491W        W65885  13.354  39.881  11.516
97492W        W65886  16.735  24.759   3.874
97493W        W65887  16.441   5.011   4.145
97494W        W65888  32.799  44.775   0.022
97495W        W65889  35.419   8.602   4.152
97496W        W65890  36.500  37.661  10.298
97497W        W65891   2.352  31.885   0.290
97498W        W65892  17.678  43.326   1.555
97499W        W65893   9.452  30.140  13.017
97500W        W65894  42.328  16.200  12.618
97501W        W65895  27.457  17.591  13.907
97502W        W65896   0.428  27.978   4.551
97503W        W65897  20.241   8.759   2.865
97504W        W65898  30.128  23.487   2.769
97505W        W65899  24.761  28.190   0.774
97506W        W65900  10.484   3.074   4.985
97507W        W65901  17.843  12.861  12.935
97508W        W65902  39.397  12.819   4.114
97509W        W65903  43.400  27.245   0.947
97510W        W65904  33.588  25.390  12.700
97511W        W65905  31.282  25.639   5.281
97512W        W65906  21.318  43.219  10.239
97513W        W65907   7.642  19.867  10.317
97514W        W65908  28.060  15.904   4.281
97515W        W65909   8.174   2.991  13.956
97516W        W65910  37.403  12.681   4.893
97517W        W65911  43.600  31.962   0.270
97518W        W65912  22.738  19.200   0.407
97519W        W65913   9.187  18.177   1.386
97520W        W65914  39.812  18.259   1.196
97521W        W65915  43.524   2.081   3.703
97522W        W65916   7.386  16.175  13.420
97523W        W65917  11.330  31.319   3.342
97524W        W65918   5.018  41.320   4.138
97525W        W65919  37.000  19.736   3.987
97526W        W65920   3.885   6.705   4.133
97527W        W65921  36.375  14.755  12.751
97528W        W65922   4.461   4.248   0.795
97529W        W65923  29.999  29.164  13.124
97530W        W65924   1.177  11.307  14.828
97531W        W65925  32.515  41.002  12.521
97532W        W65926  37.831  37.529  14.786
97533W        W65927   6.153  10.714   4.097
97534W        W65928  17.242   0.953   2.320
97535W        W65929  17.678   1.056   0.284
97536W        W65930   3.676  15.769  14.861
97537W        W65931  32.664  30.513   3.696
97538W        W65932  30.702   1.939  10.412
97539W        W65933   5.030  39.332  14.410
97540W        W65934  17.041  30.093   0.957
97541W        W65935  21.552  23.545  13.991
97542W        W65936   7.584  43.120   4.541
97543W        W65937   9.826   2.743   3.103
97544W        W65938  23.759  35.576  14.499
97545W        W65939  13.750   6.629   1.452
97546W        W65940  31.120   2.348  11.552
97547W        W65941  34.438   6.973   2.391
97548W        W65942   5.862  32.399   3.140
97549W        W65943  23.250   9.982  12.131
97550W        W65944  37.131  40.889  10.396
97551W        W65945  11.768  17.206   3.109
97552W        W65946  30.161  15.830   0.351
97553W        W65947  14.654  37.286  11.118
97554W        W65948  37.559  14.380  14.023
97555W        W65949  36.333   3.092  14.428
97556W        W65950   6.311  24.129   2.256
97557W        W65951  20.492  13.631   2.554
97558W        W65952  17.865   0.039  14.333
97559W        W65953  36.988   4.597  13.479
97560W        W65954  31.118  15.800   4.968
97561W        W65955  31.307  18.792   4.144
97562W        W65956  32.012  19.463  13.832
97563W        W65957  18.585   4.882  14.682
97564W        W65958  11.427  43.859   1.384
97565W        W65959  15.515  42.829  11.089
97566W        W65960  29.681  34.550  13.978
97567W        W65961  15.669  35.506  11.823
97568W        W65962  42.452  31.912  14.501
97569W        W65963  38.062  28.633  11.154
97570W        W65964  10.747  12.852   2.574
97571W        W65965  13.702  20.631   3.314
97572W        W65966   9.555  33.971   2.625
97573W        W65967  40.575  44.443  14.186
97574W        W65968  32.510   9.800   3.641
97575W        W65969  41.803   8.584  13.089
97576W        W65970   9.795   7.443  13.975
97577W        W65971  34.168  30.735  11.445
97578W        W65972  20.103  41.763   3.724
97579W        W65973  37.620  40.798   1.185
97580W        W65974   5.921  18.455  11.112
97581W        W65975  31.439  30.074   4.096
97582W        W65976   2.258  33.598  13.367
97583W        W65977  13.991  14.196   5.078
97584W        W65978  20.050  17.977  13.471
97585W        W65979   7.375   9.293  12.450
97586W        W65980  11.843  10.897   4.549
97587W        W65981  18.497  20.579   2.232
97588W        W65982  30.878  21.113  12.534
97589W        W65983   9.677  40.805  11.659
97590W        W65984  43.907  33.936  11.667
97591W        W65985  31.732  24.501   0.661
97592W        W65986  13.390   5.635   3.286
97593W        W65987  23.004  26.986   1.713
97594W        W65988  29.664  35.483   0.787
97595W        W65989   2.927   5.921  13.836
97596W        W65990   2.549  20.503   0.880
97597W        W65991  20.508  27.951  13.434
97598W        W65992  34.449   4.981  10.349
97599W        W65993   3.691   6.025   1.011
97600W        W65994  24.200  16.747   0.198
97601W        W65995   9.934  23.624  10.263
97602W        W65996  19.476   9.226   3.356
97603W        W65997  26.695  15.722   1.303
97604W        W65998  20.693  35.736   0.145
97605W        W65999  18.655  15.784   2.419
97606W        W66000   9.995  24.517  11.303
97607W        W66001   7.122  24.452  11.105
97608W        W66002  39.533  23.281   1.824
97609W        W66003   5.479  42.405   2.880
97610W        W66004   9.291  43.453  14.823
97611W        W66005  17.221  11.904  10.693
97612W        W66006   7.774  35.899   3.412
97613W        W66007   9.368   9.810  14.387
97614W        W66008   6.451  10.560  11.138
97615W        W66009  32.594  42.030  12.513
97616W        W66010  26.329  42.446  13.200
97617W        W66011  35.532   3.718  13.692
97618W        W66012  20.984  25.115   1.809
97619W        W66013  25.548  17.081   0.893
97620W        W66014  25.015  32.407  11.887
97621W        W66015  19.801  30.254   1.311
97622W        W66016   4.774  42.142   3.358
97623W        W66017  33.319  29.647   3.756
97624W        W66018  11.181  35.513  10.807
97625W        W66019   3.252  43.562  13.287
97626W        W66020  36.955  35.825  12.925
97627W        W66021   6.476  22.119  12.777
97628W        W66022  44.926  32.088  11.694
97629W        W66023  33.931  15.309   0.912
97630W        W66024   7.420  15.621   2.308
97631W        W66025  22.563  28.733   3.323
97632W        W66026   1.416   6.787  10.924
97633W        W66027  19.743  38.056   5.465
97634W        W66028  21.408   8.328   4.624
97635W        W66029  25.240  17.355  11.948
97636W        W66030  27.848  29.102  11.018
97637W        W66031  31.231  19.626  12.030
97638W        W66032  40.296  16.286   0.801
97639W        W66033  25.661   3.020  10.295
97640W        W66034  11.293  41.569   1.771
97641W        W66035  17.624  35.773   5.030
97642W        W66036  41.788   7.388   1.041
97643W        W66037  24.153  37.818  13.804
97644W        W66038   1.780  33.990  12.875
97645W        W66039   8.789  27.977   0.460
97646W        W66040  40.386  26.590  13.897
97647W        W66041  24.963   8.260   3.402
97648W        W66042   2.687  14.646   1.374
97649W        W66043  12.556   2.489   3.965
97650W        W66044  26.003  28.380   1.343
97651W        W66045   5.415  22.214  11.984
97652W        W66046  24.251   6.397   4.966
97653W        W66047  31.612  10.225  13.291
97654W        W66048  13.209   3.316  11.705
97655W        W66049   1.786  10.758  11.371
97656W        W66050  42.302  39.393  12.441
97657W        W66051   7.628  21.255  12.850
97658W        W66052  43.456  10.721   2.862
97659W        W66053   6.454   9.227  12.426
97660W        W66054  33.664  12.915  13.918
97661W        W66055  28.675  30.097   1.898
97662W        W66056  21.406  13.345   4.540
97663W        W66057   4.721  12.503   3.289
97664W        W66058   7.518   0.280   0.797
97665W        W66059  41.378  39.793   0.301
97666W        W66060   2.282  29.927   1.730
97667W        W66061  24.340  43.659  13.351
97668W        W66062  30.541  35.639   1.401
97669W        W66063   8.053  35.367   1.569
97670W        W66064  26.388  43.963  13.391
97671W        W66065  39.874   4.945   2.164
97672W        W66066  24.532  36.767  11.673
97673W        W66067   6.795   7.162   2.307
97674W        W66068   6.285  18.255   2.705
97675W        W66069  17.888  10.178   4.070
97676W        W66070   3.888  40.923  12.599
97677W        W66071  27.885  30.496   4.546
97678W        W66072  27.593  24.132  14.986
97679W        W66073  15.253  12.758  13.290
97680W        W66074  12.386  35.010  12.901
97681W        W66075  41.412  33.385   4.781
97682W        W66076   2.370  42.570  10.675
97683W        W66077  19.553  36.828   1.295
97684W        W66078  14.104   0.705   9.788
97685W        W66079  21.594  17.052   2.694
97686W        W66080  24.051  35.042  11.571
97687W        W66081  29.275   7.769   3.590
97688W        W66082  21.151  38.818   3.656
97689W        W66083  25.470  30.712   1.239
97690W        W66084  14.319  22.109  11.000
97691W        W66085  32.585   1.464  10.538
97692W        W66086  14.328  24.846  12.033
97693W        W66087  22.027  41.927   4.360
97694W        W66088   3.449  34.430   4.493
97695W        W66089  11.961   9.121  10.849
97696W        W66090  43.835   8.942  11.172
97697W        W66091  24.729  26.620  11.636
97698W        W66092  44.247  31.838   0.718
97699W        W66093  34.860  26.486   0.640
97700W        W66094  25.673   0.255  12.945
97701W        W66095  41.916  12.606  12.920
97702W        W66096  33.158  12.251   1.392
97703W        W66097  35.178  44.889  13.623
97704W        W66098  16.830  13.322  13.510
97705W        W66099  42.791  16.838  13.859
97706W        W66100  37.902  19.021   0.495
97707W        W66101  18.139   8.291   4.633
97708W        W66102  40.551  15.116   4.048
97709W        W66103  36.986  40.480   3.863
97710W        W66104  25.576  27.552  12.869
97711W        W66105  24.474  26.129  11.544
97712W        W66106  31.557  23.564  11.005
97713W        W66107  43.030  34.189  11.673
97714W        W66108  11.666  39.003   3.303
97715W        W66109  42.420  35.622   5.395
97716W        W66110  24.715  43.940  14.393
97717W        W66111  15.994  17.609  13.251
97718W        W66112  31.101  21.618   0.834
97719W        W66113  35.128  10.255   5.189
97720W        W66114   2.245  42.043   2.490
97721W        W66115  11.811   1.290  11.883
97722W        W66116  21.052  40.623  14.913
97723W        W66117  12.740   2.978   4.743
97724W        W66118  17.136  43.608  12.416
97725W        W66119  17.284   7.734  10.730
97726W        W66120  41.601  19.179   2.217
97727W        W66121  33.558  15.151   4.383
97728W        W66122   8.311  16.566   1.365
97729W        W66123  14.241   4.772   3.225
97730W        W66124  11.897  23.065   2.817
97731W        W66125  44.277  24.004  13.275
97732W        W66126  38.513  31.863  11.983
97733W        W66127   4.410  42.927   4.283
97734W        W66128  10.201  20.558  11.415
97735W        W66129  21.931  38.843   1.298
97736W        W66130  16.982   7.884  10.342
97737W        W66131  13.747  17.116  14.417
97738W        W66132  35.306   0.784   4.937
97739W        W66133  44.558  26.320   4.167
97740W        W66134  27.123  38.555   1.414
97741W        W66135  30.953   0.535   1.863
97742W        W66136   1.776  14.158  13.733
97743W        W66137  28.584  36.664   3.769
97744W        W66138   7.591  26.046   2.094
97745W        W66139  41.500  25.661  11.649
97746W        W66140  43.022  34.355   3.191
97747W        W66141  27.149   7.532  12.961
97748W        W66142  15.300  25.618   3.253
97749W        W66143  21.273  41.206  10.039
97750W        W66144  43.849  41.562  14.374
97751W        W66145  19.102   6.965   0.372
97752W        W66146  43.763  18.790  14.323
97753W        W66147  43.274  28.078   3.316
97754W        W66148  11.032  42.656  13.867
97755W        W66149  43.211   8.872  12.829
97756W        W66150   0.767  32.662   0.435
97757W        W66151  10.635  44.177   1.264
97758W        W66152  27.843   4.362  14.912
97759W        W66153   3.259  23.615  10.651
97760W        W66154  23.682  28.692  11.695
97761W        W66155  30.990  43.707   2.156
97762W        W66156   6.198   2.080   5.095
97763W        W66157   7.440  21.537   4.128
97764W        W66158  35.581  18.697  12.471
97765W        W66159  37.514   2.368   1.154
97766W        W66160  29.566   1.844  10.831
97767W        W66161  22.714  29.426   4.276
97768W        W66162  38.387  29.885  12.760
97769W        W66163  44.953  21.784   2.160
97770W        W66164  26.226  29.156  11.719
97771W        W66165  43.391  31.433  12.230
97772W        W66166   6.886  15.882   1.838
97773W        W66167  31.873  12.089  11.179
97774W        W66168  20.645  15.697  12.392
97775W        W66169   6.894  20.534   2.885
97776W        W66170  22.107  30.021   1.681
97777W        W66171   9.788  20.759   3.903
97778W        W66172  33.634  30.660  10.811
97779W        W66173  29.190  35.509   1.146
97780W        W66174   1.666   9.377   3.250
97781W        W66175  22.497  21.559   3.826
97782W        W66176  33.426  11.610  12.438
97783W        W66177  31.548  37.972  13.102
97784W        W66178  19.068  36.032   4.112
97785W        W66179  43.767  32.090   0.868
97786W        W66180  41.022  28.669   3.870
97787W        W66181   6.342  17.052  14.385
97788W        W66182   1.777  32.480  13.151
97789W        W66183  11.799   6.512   0.324
97790W        W66184  14.844  28.448   2.992
97791W        W66185  11.334  31.496  14.413
97792W        W66186  35.900  14.750  11.530
97793W        W66187   7.669   4.818  12.096
97794W        W66188  23.579  20.554  12.309
97795W        W66189  28.967  40.871  10.990
97796W        W66190  14.859  16.732  14.946
97797W        W66191  10.199  34.832   4.665
97798W        W66192  20.141   9.322   0.025
97799W        W66193  22.143  42.155  14.951
97800W        W66194  19.105  26.715   2.788
97801W        W66195   7.642  43.031  12.263
97802W        W66196  42.227  27.477   1.683
97803W        W66197  39.829  20.054  13.946
97804W        W66198  25.805   5.244   2.184
97805W        W66199  30.917  44.318   3.191
97806W        W66200   1.552  26.960   3.308
97807W        W66201  38.250  13.069   0.605
97808W        W66202   7.435   2.707   0.345
97809W        W66203  15.729  31.439  14.639
97810W        W66204   8.692  17.196  13.363
97811W        W66205  42.415   6.686  12.189
97812W        W66206  17.002   3.354  10.647
97813W        W66207  36.675  12.807   0.967
97814W        W66208  23.528  17.357   3.165
97815W        W66209  43.085  12.779   1.286
97816W        W66210   5.145   9.858   4.420
97817W        W66211  25.437  32.440   1.903
97818W        W66212   8.641  27.517  13.204
97819W        W66213  23.546  19.314   4.198
97820W        W66214  33.187  16.257   0.425
97821W        W66215  36.406   3.916  13.807
97822W        W66216  43.389   1.511   0.971
97823W        W66217   7.817  16.370   1.348
97824W        W66218  16.510   9.664  11.563
97825W        W66219  28.858  38.269  11.163
97826W        W66220  25.499  44.832   2.090
97827W        W66221  30.411  17.966   0.790
97828W        W66222   2.991   9.422   1.188
97829W        W66223  32.491  22.293  10.631
97830W        W66224  39.482  37.012  14.562
97831W        W66225   4.189   5.011   3.241
97832W        W66226  11.475  41.090   0.383
97833W        W66227  33.368  44.166  10.278
97834W        W66228  10.434  39.464  10.608
97835W        W66229  43.768  40.821   0.804
97836W        W66230  11.265  40.694  10.847
97837W        W66231  21.053  33.895  14.627
97838W        W66232  15.106   5.597   3.318
97839W        W66233  32.041   7.336   2.655
97840W        W66234  35.609   5.381  13.859
97841W        W66235  42.275  14.203   4.450
97842W        W66236  11.510  10.800  12.080
97843W        W66237  43.416  12.072  14.970
97844W        W66238  11.411  25.721  12.443
97845W        W66239  39.854  40.069   4.175
97846W        W66240  30.486  26.950   2.791
97847W        W66241   0.332  37.383  11.853
97848W        W66242   7.210  32.347  11.326
97849W        W66243  20.385  17.150   3.900
97850W        W66244   6.677  39.996   3.862
97851W        W66245  12.282  38.561   1.855
97852W        W66246  18.655  23.631   5.282
97853W        W66247  40.038   3.832   2.637
97854W        W66248  43.831  17.756   4.440
97855W        W66249  16.646  39.270   3.680
97856W        W66250  39.277  11.385  11.175
97857W        W66251  22.249   6.765  12.715
97858W        W66252  14.280  37.370   2.950
97859W        W66253  13.278  11.726  12.925
97860W        W66254   0.287  35.433   2.201
97861W        W66255  12.688   7.084  12.506
97862W        W66256  19.587   5.366   3.345
97863W        W66257  31.656   2.768   0.490
97864W        W66258   5.317  11.107   0.908
97865W        W66259  12.113  21.751  13.693
97866W        W66260  34.075  28.659  13.477
97867W        W66261   0.795   5.386  14.659
97868W        W66262  39.307  24.809  11.495
97869W        W66263  14.956  37.395   3.649
97870W        W66264  37.368   0.046  10.924
97871W        W66265  23.998  18.322  14.469
97872W        W66266  27.600  15.236  12.813
97873W        W66267  30.180  18.075  13.058
97874W        W66268  38.423   1.194  12.783
97875W        W66269  40.821  42.310   3.182
97876W        W66270  13.221  37.655   0.407
97877W        W66271  18.255  15.578   5.532
97878W        W66272   7.102  27.337  12.906
97879W        W66273  42.581   3.267   4.383
97880W        W66274  40.422  17.787   2.239
97881W        W66275  36.548  33.988   2.464
97882W        W66276  27.559   2.532  11.745
97883W        W66277   9.856  41.945  14.124
97884W        W66278  27.947  30.063   1.375
97885W        W66279  40.752  23.990  10.745
97886W        W66280  26.731  35.603   3.793
97887W        W66281  14.053   6.852  13.024
97888W        W66282  40.399  38.092  13.542
97889W        W66283  12.936  23.670   1.999
97890W        W66284  16.760   3.427  11.990
97891W        W66285  22.890  19.587   3.688
97892W        W66286  16.072   6.435   2.238
97893W        W66287  10.691   3.948   2.361
97894W        W66288  34.110  35.763  14.578
97895W        W66289  17.005  11.854   4.109
97896W        W66290   9.424   6.138   0.507
97897W        W66291  34.099  38.606   3.388
97898W        W66292   0.761  43.056  10.798
97899W        W66293  12.307  34.160   0.476
97900W        W66294   3.863  35.693  12.170
97901W        W66295  38.932   8.160  11.175
97902W        W66296  38.913  17.035   3.722
97903W        W66297   6.731   3.930   3.289
97904W        W66298  22.179  15.404   4.428
97905W        W66299  20.473  35.551  14.262
97906W        W66300  33.096  15.912   1.799
97907W        W66301  29.101   7.683   2.274
97908W        W66302  39.085  10.606  13.361
97909W        W66303  27.609  22.301   4.610
97910W        W66304   4.896  39.450   4.836
97911W        W66305  23.283  18.683   0.991
97912W        W66306  23.605  41.796  11.974
97913W        W66307  27.158   4.290   3.784
97914W        W66308  32.571  34.857   2.329
97915W        W66309  42.796   7.123   0.789
97916W        W66310   2.215  22.317   4.108
97917W        W66311  31.031  44.460   2.713
97918W        W66312  37.669   4.319   1.730
97919W        W66313   0.712  19.302   3.583
97920W        W66314  29.486  15.288   1.348
97921W        W66315  29.999   0.365  14.317
97922W        W66316  17.391  15.221  13.459
97923W        W66317  32.907   1.820   2.882
97924W        W66318  12.182  42.918   0.680
97925W        W66319   0.831   7.791  12.062
97926W        W66320  30.263   7.104  14.970
97927W        W66321   3.290  31.137   1.366
97928W        W66322  32.461  33.569  11.949
97929W        W66323   0.372   7.521  10.647
97930W        W66324   6.960  35.226  10.786
97931W        W66325  11.147  16.962   2.431
97932W        W66326  21.371   9.287   5.002
97933W        W66327  32.468  13.372  11.850
97934W        W66328   6.873  32.995  12.538
97935W        W66329   7.834  32.530  10.763
97936W        W66330  12.534  23.012   0.279
97937W        W66331   8.161  22.300   3.411
97938W        W66332  35.029  43.474  11.911
97939W        W66333   3.822  29.525  13.559
97940W        W66334   2.207   1.082   4.216
97941W        W66335   6.152  13.367  12.950
97942W        W66336  10.391  22.004   2.796
97943W        W66337  11.222  40.283  10.542
97944W        W66338   2.661  36.230  13.948
97945W        W66339  19.046  13.762  14.545
97946W        W66340  33.567  30.157  10.914
97947W        W66341  34.497  27.030  13.069
97948W        W66342   9.679  23.695   0.790
97949W        W66343  35.818  10.601   3.737
97950W        W66344   0.772  33.779   3.259
97951W        W66345  38.825  24.604   0.759
97952W        W66346  27.226  32.412   4.137
97953W        W66347  36.124  37.420  12.202
97954W        W66348  27.666  14.943  14.321
97955W        W66349  26.026   5.190  11.148
97956W        W66350  15.107  32.561   1.790
97957W        W66351   9.291  18.196   3.792
97958W        W66352  38.785  27.103  12.098
97959W        W66353  18.278  21.072  10.960
97960W        W66354  29.144  24.471  11.201
97961W        W66355  34.132  17.589   3.697
97962W        W66356  22.682  27.190  14.299
97963W        W66357  38.404  28.892   3.124
97964W        W66358  37.440  18.006   4.919
97965W        W66359  28.942   3.016   0.043
97966W        W66360  35.538  15.041   1.294
97967W        W66361  21.766  12.977   4.502
97968W        W66362  18.989   5.747  13.362
97969W        W66363   7.976  21.265   3.337
97970W        W66364  30.535   6.763  11.939
97971W        W66365   2.382  27.694  13.746
97972W        W66366   2.410   4.248  11.607
97973W        W66367   6.661   7.381   1.407
97974W        W66368  34.903  12.376  14.933
97975W        W66369  41.530  16.010  12.995
97976W        W66370  26.432  31.529  14.682
97977W        W66371  14.157   6.224  12.504
97978W        W66372   1.011  30.008  11.469
97979W        W66373  14.097  32.847  10.293
97980W        W66374  29.934  38.383  13.915
97981W        W66375  13.874  19.673   1.940
97982W        W66376  36.597  22.628   0.272
97983W        W66377   1.396  29.964  12.046
97984W        W66378  38.849  20.923   0.397
97985W        W66379  15.035  17.923  13.343
97986W        W66380  36.414  21.608  10.477
97987W        W66381  12.227   0.907  13.301
97988W        W66382  13.995  37.950   4.538
97989W        W66383  28.624  14.777   4.590
97990W        W66384  23.681  30.609  14.763
97991W        W66385  14.515  21.090  12.599
97992W        W66386  24.119  42.947   0.544
97993W        W66387  11.391  43.773  14.494
97994W        W66388  19.518   4.855  14.988
97995W        W66389  31.038  15.674   0.198
97996W        W66390  13.111  21.720  14.811
97997W        W66391  32.572  33.892  10.506
97998W        W66392  41.244   8.756   2.777
97999W        W66393  26.215  42.412   1.266
98000W        W66394  10.130   7.366   4.757
98001W        W66395   0.223  37.985   3.349
98002W        W66396  44.221  28.582  10.230
98003W        W66397   3.426  30.429   0.272
98004W        W66398  34.065  39.877  13.801
98005W        W66399  27.506  44.158  13.510
98006W        W66400  38.176   4.950  11.402
98007W        W66401  32.445  21.739   0.658
98008W        W66402  36.506  22.593   2.761
98009W        W66403   7.573  20.844   2.199
98010W        W66404  20.586  29.498   4.209
98011W        W66405  22.501  13.112   3.260
98012W        W66406  33.747  15.527   4.076
98013W        W66407   8.243   3.074  11.729
98014W        W66408  10.600  43.300   1.337
98015W        W66409   4.876  26.952  10.297
98016W        W66410  17.830   4.536   4.326
98017W        W66411  25.326   2.374  11.671
98018W        W66412   6.866   8.864  13.343
98019W        W66413  14.113  28.187  14.733
98020W        W66414   1.605  14.652   4.893
98021W        W66415   5.454  27.487   2.021
98022W        W66416  14.574  33.995  13.581
98023W        W66417  30.459  17.214  11.538
98024W        W66418  43.313  16.220   3.226
98025W        W66419  26.122  42.584  13.669
98026W        W66420  33.838  17.733  10.797
98027W        W66421  28.374  37.462   3.134
98028W        W66422  30.762  22.985  14.773
98029W        W66423  33.848  37.263  12.411
98030W        W66424  21.258  26.063  13.408
98031W        W66425  39.984  18.547   4.103
98032W        W66426  27.737  27.426   0.837
98033W        W66427  23.066   7.225  13.429
98034W        W66428  42.871  23.017   3.263
98035W        W66429  39.978  38.061  13.851
98036W        W66430   4.940  13.193  13.545
98037W        W66431  38.645   6.922  12.728
98038W        W66432  43.425  29.907   2.790
98039W        W66433  41.500  19.547  12.577
98040W        W66434  12.077   2.605  11.648
98041W        W66435  27.585  32.571  10.678
98042W        W66436  41.500  25.069  11.208
98043W        W66437  42.424  30.417   1.890
98044W        W66438  28.252   2.531  14.443
98045W        W66439   3.852  21.505   1.364
98046W        W66440  27.001   5.362  14.815
98047W        W66441  41.940  24.475  13.793
98048W        W66442  10.493   5.712   1.671
98049W        W66443  11.184  26.249  12.155
98050W        W66444  32.047  33.000  10.588
98051W        W66445   6.242  29.832  14.338
98052W        W66446  38.507  15.664  12.518
98053W        W66447  10.047  42.939  11.972
98054W        W66448  12.532  14.170   2.984
98055W        W66449  24.270  20.567   0.465
98056W        W66450  35.649  24.710   1.282
98057W        W66451  11.250   8.439   4.764
98058W        W66452  10.300  20.023  13.424
98059W        W66453   2.884  38.421   2.746
98060W        W66454  20.924  30.570   4.878
98061W        W66455  40.306  32.042  12.460
98062W        W66456  20.028  19.481   2.108
98063W        W66457  10.799  40.351  14.808
98064W        W66458  33.870  30.860  14.693
98065W        W66459  28.227  13.577  10.484
98066W        W66460  38.464  23.153  14.557
98067W        W66461   3.390  31.568  10.700
98068W        W66462   6.783  43.515   2.903
98069W        W66463  16.677  40.444  14.490
98070W        W66464  11.880  44.830   1.334
98071W        W66465  41.373  26.496   3.146
98072W        W66466  44.874  22.556   1.546
98073W        W66467  44.675  24.515   2.414
98074W        W66468   2.242  44.054   4.365
98075W        W66469  33.626  10.796   3.623
98076W        W66470  13.797   4.943   2.078
98077W        W66471  11.093  14.440  14.028
98078W        W66472  26.694   6.354  13.473
98079W        W66473  17.065   1.129  14.518
98080W        W66474  27.273   7.816  14.247
98081W        W66475   9.713  27.293  11.153
98082W        W66476  25.701  28.041   3.379
98083W        W66477   7.440  25.692   2.448
98084W        W66478  14.093  25.752   1.200
98085W        W66479   5.007  17.310   4.981
98086W        W66480  25.060  30.457   0.281
98087W        W66481  26.593  33.909   2.744
98088W        W66482  27.901  12.564   3.785
98089W        W66483  10.155  37.309  12.468
98090W        W66484  16.193  35.006   3.168
98091W        W66485  14.646  25.483   0.093
98092W        W66486  21.494  13.742  10.399
98093W        W66487  38.920  26.258  13.910
98094W        W66488  28.210   4.998  12.518
98095W        W66489  42.327   0.352   3.371
98096W        W66490  36.832  22.629   2.322
98097W        W66491  23.521  21.379  11.966
98098W        W66492  17.688  24.686  14.105
98099W        W66493  42.542  37.410  14.880
98100W        W66494  30.534   3.066   1.983
98101W        W66495   2.252   7.668   0.841
98102W        W66496  10.242  18.346  12.974
98103W        W66497  20.611  31.555   4.628
98104W        W66498  12.715  21.446   0.313
98105W        W66499  10.644  44.687   0.506
98106W        W66500  37.492  16.141   0.968
98107W        W66501  24.772  33.173  11.092
98108W        W66502  27.588  27.874  11.907
98109W        W66503  21.122  39.577  14.865
98110W        W66504  43.550  24.664  14.434
98111W        W66505  40.326  30.009  13.059
98112W        W66506   4.435  15.807  11.622
98113W        W66507  10.446  27.591  10.309
98114W        W66508  24.166  33.922  13.596
98115W        W66509  36.407  23.910   2.758
98116W        W66510  42.349   5.775   3.110
98117W        W66511  26.648  40.366   5.093
98118W        W66512  23.126  27.056  13.526
98119W        W66513  18.224   6.158  13.931
98120W        W66514   9.412  14.013  13.560
98121W        W66515  40.868  40.549   0.489
98122W        W66516  38.085  13.308  13.872
98123W        W66517  23.181  38.055  10.708
98124W        W66518  28.913  13.633  13.489
98125W        W66519  44.684  43.373   3.822
98126W        W66520   9.159   7.030   0.733
98127W        W66521  42.544  11.449  13.000
98128W        W66522  25.758  37.992   0.347
98129W        W66523  23.205  15.341   0.498
98130W        W66524   1.962  37.288   1.740
98131W        W66525  31.036  28.190  12.083
98132W        W66526  22.085   9.068   2.779
98133W        W66527  22.770  32.109  11.989
98134W        W66528  26.661  44.790  11.929
98135W        W66529  32.021  25.263  14.324
98136W        W66530  39.578  17.276  11.174
98137W        W66531  30.822  18.679  12.798
98138W        W66532   8.706  26.974   1.167
98139W        W66533  26.252  12.757  11.126
98140W        W66534  34.876  30.888   0.750
98141W        W66535  25.340  11.258   1.947
98142W        W66536   5.515  33.396   4.097
98143W        W66537  32.902  30.987   1.629
98144W        W66538  43.075  43.405   0.002
98145W        W66539   2.848  28.039   4.840
98146W        W66540  35.889  21.054   3.450
98147W        W66541   5.137   5.754   2.703
98148W        W66542  34.101  12.788  14.997
98149W        W66543  40.334  28.371   1.214
98150W        W66544   6.049   5.489   4.659
98151W        W66545  36.514  15.495   2.402
98152W        W66546  20.624  40.602  12.656
98153W        W66547  37.377  32.931   3.179
98154W        W66548  22.618  14.685   4.096
98155W        W66549   6.738  20.951   1.419
98156W        W66550  12.271  18.049  13.167
98157W        W66551  39.207  16.277  13.899
98158W        W66552  20.635   7.746   2.769
98159W        W66553  25.999  24.105   4.213
98160W        W66554  43.112  12.150   4.364
98161W        W66555  40.870  15.339  12.079
98162W        W66556  22.178  16.101   3.333
98163W        W66557  17.538  12.802   2.725
98164W        W66558  44.030  21.707  14.481
98165W        W66559  35.364  41.486   0.967
98166W        W66560  40.475  25.826  12.955
98167W        W66561  13.708  35.551   1.300
98168W        W66562  34.683  31.603   3.884
98169W        W66563  12.209  21.950  11.528
98170W        W66564  11.567   8.810  10.709
98171W        W66565  17.081  10.064  13.918
98172W        W66566  43.149  31.151  13.361
98173W        W66567  17.076  30.005  14.767
98174W        W66568  32.976   8.265  14.408
98175W        W66569  34.951  11.584   0.332
98176W        W66570  42.752  40.518   3.269
98177W        W66571  18.524  33.844  14.875
98178W        W66572  27.877  19.244  10.670
98179W        W66573  15.588   2.829  12.757
98180W        W66574   7.631  21.731   4.672
98181W        W66575  18.835   2.980  12.909
98182W        W66576  10.342  23.468   2.530
98183W        W66577  26.222  42.480   4.560
98184W        W66578   4.352  32.849  13.791
98185W        W66579  27.586  24.031   0.489
98186W        W66580  11.839  14.047   2.721
98187W        W66581  36.910  43.088   3.633
98188W        W66582  25.612  27.482  12.336
98189W        W66583  30.622  30.391  10.536
98190W        W66584   6.844   1.791   9.615
98191W        W66585  27.843  16.788  12.518
98192W        W66586  37.052  18.246   4.611
98193W        W66587  27.021  35.350   0.501
98194W        W66588  25.664  25.049  11.896
98195W        W66589   7.782  13.893  12.770
98196W        W66590  27.922  33.599   0.394
98197W        W66591   9.754   4.193   2.851
98198W        W66592  10.808  19.703   1.902
98199W        W66593  12.887   6.767   2.835
98200W        W66594  21.973  23.801   4.278
98201W        W66595  36.951  43.606   3.577
98202W        W66596  41.929   7.505   0.091
98203W        W66597  43.479  44.277   1.855
98204W        W66598  20.202   1.204   1.727
98205W        W66599  22.552  16.079  13.273
98206W        W66600  30.655  19.659  12.442
98207W        W66601  30.366  24.443  13.008
98208W        W66602  16.901  23.020   1.138
98209W        W66603   6.762  41.077  10.744
98210W        W66604   7.907  12.300  13.708
98211W        W66605  38.776   1.353   2.298
98212W        W66606   6.834  37.889   3.218
98213W        W66607  31.604  18.614  11.168
98214W        W66608  24.549   3.182  12.759
98215W        W66609  37.952   8.870  13.800
98216W        W66610  16.698  22.112   1.728
98217W        W66611  10.890  27.588   2.115
98218W        W66612  18.528  39.824   0.992
98219W        W66613   3.703  41.396  11.484
98220W        W66614  43.237  39.984   5.462
98221W        W66615  40.126  28.577   3.667
98222W        W66616  12.780  18.621   2.796
98223W        W66617  25.375  32.151  11.623
98224W        W66618  25.322   0.243  10.762
98225W        W66619   9.914  38.509   3.318
98226W        W66620   9.257  10.799  14.369
98227W        W66621  38.876   2.365   0.003
98228W        W66622  42.480  20.703   0.730
98229W        W66623  44.971   4.812   0.838
98230W        W66624  21.654  20.700   4.002
98231W        W66625  40.899   6.260   0.325
98232W        W66626  30.466  14.152  14.302
98233W        W66627  15.559  43.693  12.033
98234W        W66628  24.464  42.860   3.715
98235W        W66629  12.179  22.626   2.546
98236W        W66630   4.480  35.853   0.140
98237W        W66631   6.230   9.148   1.569
98238W        W66632  27.106  29.597   3.384
98239W        W66633   3.965  21.774  13.030
98240W        W66634   9.518  19.622   1.336
98241W        W66635   7.800   8.681  10.319
98242W        W66636  22.706  11.882   2.324
98243W        W66637  33.217  34.052  13.818
98244W        W66638  17.536  35.169   3.313
98245W        W66639  27.232   4.917  13.383
98246W        W66640  26.185  18.796   0.905
98247W        W66641  34.877  24.001  11.054
98248W        W66642  35.577   4.019   2.265
98249W        W66643  34.088  13.737   3.835
98250W        W66644  39.646  41.669   2.783
98251W        W66645  44.903   6.681  10.722
98252W        W66646   9.306  24.058  14.338
98253W        W66647  28.194  33.178  10.299
98254W        W66648  36.301  11.123  11.549
98255W        W66649  17.758   5.370   2.318
98256W        W66650   3.382  41.222  14.425
98257W        W66651  31.046  43.411  11.420
98258W        W66652  31.976  36.008   0.936
98259W        W66653  26.851  21.160  12.375
98260W        W66654  28.142  29.257  12.991
98261W        W66655  30.645  19.774   1.134
98262W        W66656  34.461  17.140   2.374
98263W        W66657  20.284  17.493  13.690
98264W        W66658   7.712   4.173  12.116
98265W        W66659  20.227  23.442   2.272
98266W        W66660  27.744   2.468  14.420
98267W        W66661  32.956  18.271  12.458
98268W        W66662  23.185  16.036   3.533
98269W        W66663  33.640  31.420   0.920
98270W        W66664   8.895  26.089  12.046
98271W        W66665  36.027  41.595   1.729
98272W        W66666   3.529  42.443  10.642
98273W        W66667  20.710  41.849   0.639
98274W        W66668  15.820  33.926  14.260
98275W        W66669  32.554  31.165  13.004
98276W        W66670   9.089  27.076  14.495
98277W        W66671  29.171  33.884  14.411
98278W        W66672   3.898  30.693  11.601
98279W        W66673  25.608  18.208   3.707
98280W        W66674  17.089  22.547   4.741
98281W        W66675  21.308  26.142   3.828
98282W        W66676  23.010  29.862   4.229
98283W        W66677  16.259   1.669  14.427
98284W        W66678  11.904  19.985  12.560
98285W        W66679   9.865  21.780   0.031
98286W        W66680  10.784  22.462  11.954
98287W        W66681  39.514  13.830   2.157
98288W        W66682  38.327  40.888   4.196
98289W        W66683  43.689   6.219  11.813
98290W        W66684  36.738   5.642  13.837
98291W        W66685  41.106   4.629   1.252
98292W        W66686  44.459   5.732   2.612
98293W        W66687  16.296  16.137  13.703
98294W        W66688  12.463   5.554   3.289
98295W        W66689  43.183  32.018   1.431
98296W        W66690  34.930  34.015   4.596
98297W        W66691   8.168  32.956  11.693
98298W        W66692  12.840  30.218  13.277
98299W        W66693  18.761  13.672  11.896
98300W        W66694   6.872  43.209  14.912
98301W        W66695  38.580  27.187   0.428
98302W        W66696  21.923  18.334   3.730
98303W        W66697   1.940  34.025   1.279
98304W        W66698  23.454  15.762   3.168
98305W        W66699  16.756   6.883   1.329
98306W        W66700  43.772  29.130   2.285
98307W        W66701  27.722   4.225   1.546
98308W        W66702  34.731   4.040   2.317
98309W        W66703  35.648  27.753   4.145
98310W        W66704  27.777   7.883  14.320
98311W        W66705  37.042  39.616  10.807
98312W        W66706  17.428  39.584   0.676
98313W        W66707   4.351  14.631   4.588
98314W        W66708  24.968  18.812   3.310
98315W        W66709   1.745  14.717   4.394
98316W        W66710  14.613   9.234   4.536
98317W        W66711  38.947   9.621  12.396
98318W        W66712  28.510  18.632  10.759
98319W        W66713  19.781  42.293   3.303
98320W        W66714  32.646   2.092  14.470
98321W        W66715  12.691   1.449   1.755
98322W        W66716  28.151  29.897  10.774
98323W        W66717  37.517  30.922   3.046
98324W        W66718  26.747  15.120  11.836
98325W        W66719   1.831  29.925  14.828
98326W        W66720  18.283  29.205   0.863
98327W        W66721  20.941  35.522   4.025
98328W        W66722   7.248  12.615   0.767
98329W        W66723  10.063   9.369  12.510
98330W        W66724  23.155  19.157   3.881
98331W        W66725  40.981   2.469   2.392
98332W        W66726  35.957   7.356  10.518
98333W        W66727  31.796  38.965   1.809
98334W        W66728  24.827  32.216  13.380
98335W        W66729  32.491  11.604  10.705
98336W        W66730  39.938  41.864   4.138
98337W        W66731  12.735  39.765  12.134
98338W        W66732   1.043  15.523  14.956
98339W        W66733  23.742   9.774  13.793
98340W        W66734  44.463  36.461   0.889
98341W        W66735  38.448  28.554   0.839
98342W        W66736   5.927  21.981   1.263
98343W        W66737  17.090  16.604   1.816
98344W        W66738  23.020  11.630  13.903
98345W        W66739  42.538  30.599   0.466
98346W        W66740  23.523   7.830  12.899
98347W        W66741  15.215  10.629  13.014
98348W        W66742   0.411  30.433  13.780
98349W        W66743  42.338   5.668  14.810
98350W        W66744  10.086  41.507  13.478
98351W        W66745   6.500  39.346   1.718
98352W        W66746   3.503  24.532  11.614
98353W        W66747  19.683   9.930   3.732
98354W        W66748  39.145   1.961  12.097
98355W        W66749   7.416  27.756  13.528
98356W        W66750  12.319  40.527   0.687
98357W        W66751  24.797   6.653  12.165
98358W        W66752  38.915  28.915   2.948
98359W        W66753   3.196  23.460   0.963
98360W        W66754  17.884  18.063  11.966
98361W        W66755  43.812   4.866  10.884
98362W        W66756  15.201  27.030   1.227
98363W        W66757  23.586   7.316  13.855
98364W        W66758  14.289  36.281   2.285
98365W        W66759  17.286   6.178  12.935
98366W        W66760  15.755  43.229  12.336
98367W        W66761  42.086  38.917  13.403
98368W        W66762   7.255  16.310   1.409
98369W        W66763  22.579   0.662  10.352
98370W        W66764  34.414  15.218   0.753
98371W        W66765  21.797  16.085  14.409
98372W        W66766   5.441   3.023   2.208
98373W        W66767  35.544  35.650   3.802
98374W        W66768  38.622  28.162  11.607
98375W        W66769  39.986  25.745  12.675
98376W        W66770  37.635  44.975   3.275
98377W        W66771  20.450  33.489   0.419
98378W        W66772  34.439  15.523  14.642
98379W        W66773  29.870   2.234  12.528
98380W        W66774  11.364  24.469   3.514
98381W        W66775   7.388  17.744  13.156
98382W        W66776  36.502  15.767   4.788
98383W        W66777   5.285  44.733  10.456
98384W        W66778  29.028  11.599  11.175
98385W        W66779  40.444  42.251   1.859
98386W        W66780  41.524  29.191  12.982
98387W        W66781   4.754  17.499   3.680
98388W        W66782  18.426   8.851  13.432
98389W        W66783   9.513  28.098  13.499
98390W        W66784  14.281  13.729  10.997
98391W        W66785  27.585  24.183  14.460
98392W        W66786  23.207  18.539  13.898
98393W        W66787  36.965  12.719   1.870
98394W        W66788  28.591  37.860  13.451
98395W        W66789  36.773  17.978  12.876
98396W        W66790  40.434   3.036  10.310
98397W        W66791  22.773  16.758  13.920
98398W        W66792   9.743  27.081   1.381
98399W        W66793  22.382  11.628   3.597
98400W        W66794  24.186   4.978   0.190
98401W        W66795  21.220  26.156   5.083
98402W        W66796  19.695  19.693   4.981
98403W        W66797  21.184  17.122  14.590
98404W        W66798  14.878  13.138  14.702
98405W        W66799  31.096  36.672  13.006
98406W        W66800  35.126   4.947   2.471
98407W        W66801  42.596  13.689   1.239
98408W        W66802  44.920  38.847  11.592
98409W        W66803  16.268   8.150   3.282
98410W        W66804  42.667  43.912  13.533
98411W        W66805  33.708  28.237   4.827
98412W        W66806  26.356  19.502   2.185
98413W        W66807   8.813  36.083  14.551
98414W        W66808   9.876  36.880  14.244
98415W        W66809  35.070  37.931   2.894
98416W        W66810  28.127  43.283  12.799
98417W        W66811  40.088  40.717  11.872
98418W        W66812  35.512  31.335   1.909
98419W        W66813  30.963  44.434   0.201
98420W        W66814   0.180  11.791  11.642
98421W        W66815  23.477  21.559  13.090
98422W        W66816  20.715   5.430   4.371
98423W        W66817   9.233  19.597  14.521
98424W        W66818  20.269  19.189  11.500
98425W        W66819   9.761   1.819  11.592
98426W        W66820  25.298  23.668   1.141
98427W        W66821  19.447   2.984  13.931
98428W        W66822  36.509  37.990  12.490
98429W        W66823   4.639  10.354  14.054
98430W        W66824   3.915  14.071   2.063
98431W        W66825  39.611  34.149  13.407
98432W        W66826  29.725   2.756  11.501
98433W        W66827  24.457  21.992   0.899
98434W        W66828  39.324  22.496   3.552
98435W        W66829  27.807   1.845   4.597
98436W        W66830  38.352   8.278  13.471
98437W        W66831  20.217  12.505   3.156
98438W        W66832   8.412  44.348  10.386
98439W        W66833  17.228  16.516  14.137
98440W        W66834  29.091  38.030   1.273
98441W        W66835  19.575  11.643   4.114
98442W        W66836  15.667  22.630  12.103
98443W        W66837   5.896  33.062  12.576
98444W        W66838  11.463  25.065   1.838
98445W        W66839  30.562  17.576  14.842
98446W        W66840  39.448  22.321   1.660
98447W        W66841  12.535   8.322  10.519
98448W        W66842   7.483  27.673   3.028
98449W        W66843  20.773   5.160  14.491
98450W        W66844  34.584  28.725   2.367
98451W        W66845  36.368   6.671   4.198
98452W        W66846   3.460  30.496  13.915
98453W        W66847  21.826  29.507   2.431
98454W        W66848   2.820   8.018  12.930
98455W        W66849  21.110  18.664  13.912
98456W        W66850  26.703  24.515  11.972
98457W        W66851  29.058  40.550   4.716
98458W        W66852  35.386  19.518   0.313
98459W        W66853   3.551  32.048  11.542
98460W        W66854   4.781  25.183  10.112
98461W        W66855  30.822   5.038  13.240
98462W        W66856  25.593  43.109  12.103
98463W        W66857  24.465   3.391  11.400
98464W        W66858   7.557  36.505  14.376
98465W        W66859  22.064  14.517  13.438
98466W        W66860  32.894  13.160  10.979
98467W        W66861  22.140  25.046  14.280
98468W        W66862   0.509  10.352  11.578
98469W        W66863  10.426  19.976   1.159
98470W        W66864   4.449  33.632  14.781
98471W        W66865  38.430  29.481   1.712
98472W        W66866  30.003  11.696  14.529
98473W        W66867  15.472  26.467  13.078
98474W        W66868   2.098  11.781   0.465
98475W        W66869   1.259  42.569  13.412
98476W        W66870  36.866  31.178   1.415
98477W        W66871  16.757   1.757   1.180
98478W        W66872  24.432  15.981   4.997
98479W        W66873  19.775  31.886  13.890
98480W        W66874   3.959  24.213   4.412
98481W        W66875  28.675  38.477  14.366
98482W        W66876  37.625   9.002   0.134
98483W        W66877  23.150  13.693   4.722
98484W        W66878   0.672  22.756   4.088
98485W        W66879  43.909   9.109  13.995
98486W        W66880  10.894  22.578   2.251
98487W        W66881   3.865  19.518  14.927
98488W        W66882  33.795  36.487   1.639
98489W        W66883   3.412  39.080  12.069
98490W        W66884  10.420   3.664   3.145
98491W        W66885  34.478  35.218  13.484
98492W        W66886   2.015  18.463  14.988
98493W        W66887  36.541  30.868  13.399
98494W        W66888  26.410  40.269   4.125
98495W        W66889  11.817  42.442   3.662
98496W        W66890   0.381   2.306   3.663
98497W        W66891  36.307  31.013   1.473
98498W        W66892  33.314   6.047  13.083
98499W        W66893  38.893  19.526   0.353
98500W        W66894  26.483  25.274  10.245
98501W        W66895  38.450  18.282   2.073
98502W        W66896  39.073  24.731  10.068
98503W        W66897   2.835  29.436   0.975
98504W        W66898  16.469  36.375  12.652
98505W        W66899  39.957  36.589   4.786
98506W        W66900  12.786  43.369   1.131
98507W        W66901  17.748  25.244   2.773
98508W        W66902  36.267  18.381   5.093
98509W        W66903   8.742  37.577  14.342
98510W        W66904  34.927  16.227  11.962
98511W        W66905  16.182  27.670   1.900
98512W        W66906  17.198  40.543  10.679
98513W        W66907   6.490  21.634  13.520
98514W        W66908  20.346  22.548   0.824
98515W        W66909  11.982   9.410   2.727
98516W        W66910  33.198  14.879   1.037
98517W        W66911  15.100   5.722   1.974
98518W        W66912  24.728  21.307  13.618
98519W        W66913  19.886  28.042  13.061
98520W        W66914  22.614  44.229   2.228
98521W        W66915   7.685  37.568   2.430
98522W        W66916  30.253   2.317   3.490
98523W        W66917  32.385  44.152   0.788
98524W        W66918  37.048  14.655  11.418
98525W        W66919  42.051   3.362  12.204
98526W        W66920  37.992  12.429  14.332
98527W        W66921  17.042  13.704   0.336
98528W        W66922   9.950  14.284  14.986
98529W        W66923  42.303  17.833   2.196
98530W        W66924  37.614  30.369   0.503
98531W        W66925  37.816  16.916   0.373
98532W        W66926  23.885  10.519  10.365
98533W        W66927  37.450  35.607   2.885
98534W        W66928  18.679  34.916   4.601
98535W        W66929   4.097  37.373   2.681
98536W        W66930  36.298  19.631  12.530
98537W        W66931  14.537   9.013   5.043
98538W        W66932  16.278  40.852   0.756
98539W        W66933  32.129  19.727  14.294
98540W        W66934   0.873  11.794   2.934
98541W        W66935   5.685  16.414   3.871
98542W        W66936  31.502   9.722   4.548
98543W        W66937  21.246  32.566   4.256
98544W        W66938  42.444  24.018   4.072
98545W        W66939  40.860   2.940   0.871
98546W        W66940  35.095  32.616  11.265
98547W        W66941  33.146  13.570  14.361
98548W        W66942   3.325  15.397  11.045
98549W        W66943  19.570  24.113   4.355
98550W        W66944  27.578  33.579   3.790
98551W        W66945  21.955  29.227   1.948
98552W        W66946  22.352  41.954  11.355
98553W        W66947  30.366  43.258  12.141
98554W        W66948   3.387  20.311   3.786
98555W        W66949  19.335  33.091   3.542
98556W        W66950  23.913  43.171   5.028
98557W        W66951  15.706  32.368   4.140
98558W        W66952  15.632  17.667   4.136
98559W        W66953  36.347  12.197   4.564
98560W        W66954  41.665  12.891   0.549
98561W        W66955  34.793  23.904   3.819
98562W        W66956  10.303  32.888  12.856
98563W        W66957  19.318   5.302  12.921
98564W        W66958  39.471  18.340   2.869
98565W        W66959  18.114  19.176   3.290
98566W        W66960  40.948  22.192   3.893
98567W        W66961  23.364  43.798  13.063
98568W        W66962  25.564  36.051   2.373
98569W        W66963  13.227  33.731   1.839
98570W        W66964  22.128  43.578   2.711
98571W        W66965  17.156  36.972   0.863
98572W        W66966  20.434  42.847  12.919
98573W        W66967  18.078   0.774   1.738
98574W        W66968  44.699  20.498   1.192
98575W        W66969  22.441   9.064  11.014
98576W        W66970  14.100  10.231  13.573
98577W        W66971  34.251  36.783  11.178
98578W        W66972  18.296  12.057   0.246
98579W        W66973  20.759   0.348   2.795
98580W        W66974  22.215  39.093  11.149
98581W        W66975  42.762   0.553  11.523
98582W        W66976   1.251  13.247  11.488
98583W        W66977  28.111  25.655   0.742
98584W        W66978  17.241   8.925  13.316
98585W        W66979  29.964  36.236   0.205
98586W        W66980  23.084   2.898  10.623
98587W        W66981  33.111  43.818  10.722
98588W        W66982  15.685  15.376  14.900
98589W        W66983  41.259  18.522   0.251
98590W        W66984   6.874  22.887   3.123
98591W        W66985  37.277  39.453   2.674
98592W        W66986  40.999   6.854  14.263
98593W        W66987   3.661  28.374  14.960
98594W        W66988   3.107   3.814  13.350
98595W        W66989  21.512   6.962  12.992
98596W        W66990   2.783   9.170   2.437
98597W        W66991  21.427  13.597  11.406
98598W        W66992  22.901  21.281   0.360
98599W        W66993  28.402  20.093   4.603
98600W        W66994   8.007  26.242   2.994
98601W        W66995   1.777  38.847   3.285
98602W        W66996  27.884  10.413   0.537
98603W        W66997   4.764   3.763   1.176
98604W        W66998   9.355  41.098  13.603
98605W        W66999  40.088   8.579   1.229
98606W        W67000   8.412  21.118   1.470
98607W        W67001  11.716  31.327  14.757
98608W        W67002   3.965   5.895  12.791
98609W        W67003   6.854  13.400   2.829
98610W        W67004  23.967  26.102  11.405
98611W        W67005  25.160  22.386  12.423
98612W        W67006  18.318   1.063  11.055
98613W        W67007  30.286  15.247  14.901
98614W        W67008  30.375  24.805  14.818
98615W        W67009  35.082   7.784  12.361
98616W        W67010  34.370  27.517  12.915
98617W        W67011  14.726   5.587   4.072
98618W        W67012  42.830  32.778   1.841
98619W        W67013  22.710   1.657   4.616
98620W        W67014  28.327  16.194   2.046
98621W        W67015  32.531  13.330   0.414
98622W        W67016  19.081  40.933   1.402
98623W        W67017  15.609   3.362  12.599
98624W        W67018   4.441  33.548  10.649
98625W        W67019  40.942  30.902   4.772
98626W        W67020  14.027  44.831   3.800
98627W        W67021  28.407  13.456  14.021
98628W        W67022  40.933  10.620   3.331
98629W        W67023  26.774  31.125   3.195
98630W        W67024   8.771  20.788  14.812
98631W        W67025   0.633  21.512  13.450
98632W        W67026  43.422  23.937   0.217
98633W        W67027  21.076  40.362  12.981
98634W        W67028  31.050  25.601   4.785
98635W        W67029  41.325  12.645   4.597
98636W        W67030   1.507  36.663  13.436
98637W        W67031  23.560  14.658  10.679
98638W        W67032  11.316  15.335  13.906
98639W        W67033   5.525  43.489  14.087
98640W        W67034  39.581  32.355  10.527
98641W        W67035  41.351  20.271   1.656
98642W        W67036  27.592   1.706   2.376
98643W        W67037  41.900  30.971  14.917
98644W        W67038  35.024  26.378  11.142
98645W        W67039   0.837   0.076   1.980
98646W        W67040  12.909  30.425   2.323
98647W        W67041  30.601  43.885  14.030
98648W        W67042  23.286   3.015   0.391
98649W        W67043   1.376  13.640  12.122
98650W        W67044  17.505   4.549  10.237
98651W        W67045  11.710  10.676   4.068
98652W        W67046   8.724  21.186  14.060
98653W        W67047   2.441  24.964   2.089
98654W        W67048  17.525   4.803  12.013
98655W        W67049  20.962  22.326  12.574
98656W        W67050  22.397  17.651  12.157
98657W        W67051  44.949  33.126  14.424
98658W        W67052  37.483  17.219  11.430
98659W        W67053  20.742  40.927   1.767
98660W        W67054  11.207   3.106  11.513
98661W        W67055  42.771  19.890   3.604
98662W        W67056  35.401  39.286   4.780
98663W        W67057  37.442   3.795   0.928
98664W        W67058  31.014  12.059  12.976
98665W        W67059  11.229  15.227  13.005
98666W        W67060  17.368  41.679  11.662
98667W        W67061   2.444   1.748  13.429
98668W        W67062   2.491  37.794  11.055
98669W        W67063  44.295  43.760   3.698
98670W        W67064  23.446  19.944  10.464
98671W        W67065  26.405  43.812   1.940
98672W        W67066  12.691  12.152  10.825
98673W        W67067  14.848  31.622   3.370
98674W        W67068  37.802  38.276   0.734
98675W        W67069  34.482  37.491  10.687
98676W        W67070  11.724   8.730  14.616
98677W        W67071  31.087  23.199   2.757
98678W        W67072  20.686  20.219   0.461
98679W        W67073  23.010  15.289  10.922
98680W        W67074  38.804  36.849  13.422
98681W        W67075   4.288  23.562  12.502
98682W        W67076  12.586  39.904   0.540
98683W        W67077  19.836   6.734   0.877
98684W        W67078   6.931  22.093  11.137
98685W        W67079  34.480   4.449   1.367
98686W        W67080  27.060   1.735  11.449
98687W        W67081  37.942  28.814  12.523
98688W        W67082   7.289   5.150  10.764
98689W        W67083  35.411  17.303  13.813
98690W        W67084  13.622  27.316   2.099
98691W        W67085   9.208  16.019   4.926
98692W        W67086  10.944  29.993   4.523
98693W        W67087  20.744  21.583  11.499
98694W        W67088  16.663  35.328  14.016
98695W        W67089   7.734  20.292  14.998
98696W        W67090   0.091  22.157  12.864
98697W        W67091  22.154  18.017  10.083
98698W        W67092  23.493  18.476  14.554
98699W        W67093  25.091  18.112   3.676
98700W        W67094  38.554  29.909  13.376
98701W        W67095   8.573  28.080   3.385
98702W        W67096   2.809  28.543  12.437
98703W        W67097   3.153  23.911   4.650
98704W        W67098   0.020  32.179  10.556
98705W        W67099  26.564  20.385   3.824
98706W        W67100   2.323  18.811  14.303
98707W        W67101  33.444  37.829   4.666
98708W        W67102  32.561  17.240   2.285
98709W        W67103  11.747   4.936   3.424
98710W        W67104  42.897  16.812   2.683
98711W        W67105  32.870   0.952  13.890
98712W        W67106  34.362  24.391  13.642
98713W        W67107  17.321  40.496  13.413
98714W        W67108  16.422  29.914  13.997
98715W        W67109  11.656  18.240   2.692
98716W        W67110  29.219  24.382  13.911
98717W        W67111  18.067   4.358   0.972
98718W        W67112  23.617  42.791  10.334
98719W        W67113   9.163  35.504   0.963
98720W        W67114  42.364   9.950  12.880
98721W        W67115   6.674   9.189   2.510
98722W        W67116  13.110  24.298   0.483
98723W        W67117  26.324  37.045   4.529
98724W        W67118  25.483  20.325  11.615
98725W        W67119   7.748   9.634  12.772
98726W        W67120  19.258  17.364  14.224
98727W        W67121   2.551  21.029  10.320
98728W        W67122  33.974  36.964   3.647
98729W        W67123  25.565  12.061  12.994
98730W        W67124  34.009  43.520  11.087
98731W        W67125  21.395  31.719   3.869
98732W        W67126   7.337  25.948   1.645
98733W        W67127  39.468  10.619  12.992
98734W        W67128  17.219  41.162  12.396
98735W        W67129  31.885  30.708  12.438
98736W        W67130  12.309  15.707  11.580
98737W        W67131  20.967  22.069  11.588
98738W        W67132  22.560  25.236  14.061
98739W        W67133  40.352  27.167   3.799
98740W        W67134   1.619  27.727   1.340
98741W        W67135  25.339  10.228  11.445
98742W        W67136  25.695  18.033   2.423
98743W        W67137  31.694  15.705   0.909
98744W        W67138   5.379  11.296  11.334
98745W        W67139  27.671   3.135   0.298
98746W        W67140  10.138  21.956   3.275
98747W        W67141   6.760   5.762   0.521
98748W        W67142  42.397  23.004  14.883
98749W        W67143   9.710  42.848   5.018
98750W        W67144   4.474  24.300  10.448
98751W        W67145  27.208   1.237   9.834
98752W        W67146  16.165  17.667   9.845
98753W        W67147  44.284  12.639  14.876
98754W        W67148  12.544  44.185  14.887
98755W        W67149  29.574   6.048   0.914
98756W        W67150  23.398  32.984   0.102
98757W        W67151   4.680  34.976  10.926
98758W        W67152  19.431  38.366   0.814
98759W        W67153  23.809  35.073   4.248
98760W        W67154   6.212  18.003   1.322
98761W        W67155  26.701  19.029   2.113
98762W        W67156  21.179   8.685  13.916
98763W        W67157  15.838   8.862   0.494
98764W        W67158  22.800  14.765   1.266
98765W        W67159  38.361   9.311   3.803
98766W        W67160  33.403  16.912  12.942
98767W        W67161  12.534  43.338  11.197
98768W        W67162  40.059  27.627   3.155
98769W        W67163  15.972  37.416   2.245
98770W        W67164  12.136  23.756  14.380
98771W        W67165   5.624  10.185  14.780
98772W        W67166   8.797   8.928  12.904
98773W        W67167  24.098   3.141   1.858
98774W        W67168   5.930   7.341   1.778
98775W        W67169   2.989  30.244   4.945
98776W        W67170  16.049  23.044   3.182
98777W        W67171  17.243  12.869   2.011
98778W        W67172  39.116  38.254  11.031
98779W        W67173  25.618  40.994   1.719
98780W        W67174  40.846  18.956   1.733
98781W        W67175  39.066   1.460   3.736
98782W        W67176   9.706   1.257   3.629
98783W        W67177  43.905  11.636  13.453
98784W        W67178  24.137   5.194  11.065
98785W        W67179   8.321  39.852   3.579
98786W        W67180  31.148  22.229  14.666
98787W        W67181  33.264  12.113  13.397
98788W        W67182   4.130  44.026  10.931
98789W        W67183  24.961   8.813  12.418
98790W        W67184  17.836   7.804  11.174
98791W        W67185   8.503  14.824  10.606
98792W        W67186  28.939   1.175  14.358
98793W        W67187  35.444  36.798  14.556
98794W        W67188  24.172   9.508  11.089
98795W        W67189  39.945  20.344  13.535
98796W        W67190   0.938   3.897  14.751
98797W        W67191  43.786   7.278   4.564
98798W        W67192  11.875  33.202   4.720
98799W        W67193  19.776  39.395   5.240
98800W        W67194   6.967  36.125   1.849
98801W        W67195   6.420   3.886   0.769
98802W        W67196  41.854  19.838   3.734
98803W        W67197  26.075   9.433   0.837
98804W        W67198  27.940  20.133   3.682
98805W        W67199   3.731  43.305   4.288
98806W        W67200   1.776  38.497  12.163
98807W        W67201   3.451  29.130  12.096
98808W        W67202  23.723   8.706  11.945
98809W        W67203  39.341  19.240   1.732
98810W        W67204   7.214  27.950  13.993
98811W        W67205  39.423   3.232  12.323
98812W        W67206  30.323  33.567  12.775
98813W        W67207  27.151  26.401  14.043
98814W        W67208  25.220  23.256   0.798
98815W        W67209  28.503  37.844   4.031
98816W        W67210   7.261  12.870   3.240
98817W        W67211  10.290  26.599  14.880
98818W        W67212  27.043  33.924  11.647
98819W        W67213   0.426  17.933  13.696
98820W        W67214  41.334  18.296  13.881
98821W        W67215  15.757  21.320  14.912
98822W        W67216  38.070  35.073   4.038
98823W        W67217  26.795  16.840  14.236
98824W        W67218  16.302   1.935   3.277
98825W        W67219  30.473  11.221   0.786
98826W        W67220   9.444  11.349   2.607
98827W        W67221  31.468  33.874  12.091
98828W        W67222  15.158   2.886  13.059
98829W        W67223   7.454  11.902   1.290
98830W        W67224  37.168  44.462  12.013
98831W        W67225  23.654  28.475   1.340
98832W        W67226  24.128   5.269  12.411
98833W        W67227  30.482   7.967   1.336
98834W        W67228  37.146  19.686   3.495
98835W        W67229   8.571  25.616   4.337
98836W        W67230   3.259   3.320   5.027
98837W        W67231   5.232  10.036   0.902
98838W        W67232  19.966  21.166  13.917
98839W        W67233  18.192  10.893   0.935
98840W        W67234   9.332  24.610   1.957
98841W        W67235  22.722   5.974   4.108
98842W        W67236  34.011  44.226  12.091
98843W        W67237   7.458  29.059   3.658
98844W        W67238  16.233  24.484   1.931
98845W        W67239  22.683  28.937   1.251
98846W        W67240  29.319  35.847   2.065
98847W        W67241   7.312  12.281   1.611
98848W        W67242   9.905  25.520  13.440
98849W        W67243  11.767  30.570  13.775
98850W        W67244  23.877  13.111  12.565
98851W        W67245  12.755  33.704  14.769
98852W        W67246  32.792  21.332   2.816
98853W        W67247  20.173  42.370   2.226
98854W        W67248  33.909  26.538  11.037
98855W        W67249   5.981  35.441  11.927
98856W        W67250  18.218  30.875   2.608
98857W        W67251  29.467  13.248  12.465
98858W        W67252  23.051  20.011  14.046
98859W        W67253   6.663  40.021  11.845
98860W        W67254  19.565  43.336  14.425
98861W        W67255   5.748  20.132   4.386
98862W        W67256   5.001  18.841   4.123
98863W        W67257  33.908  18.218  10.991
98864W        W67258   3.778  35.418   3.313
98865W        W67259   9.172  26.935   1.357
98866W        W67260  32.004  42.058  11.111
98867W        W67261   2.450  18.746  13.323
98868W        W67262  22.019  23.061   2.204
98869W        W67263  41.922   0.881  13.969
98870W        W67264  27.416  18.565   0.389
98871W        W67265  24.148  44.727  13.552
98872W        W67266  37.842  15.796  10.776
98873W        W67267   8.099  26.246  11.348
98874W        W67268  39.024   9.304   3.079
98875W        W67269   9.658  28.553   3.689
98876W        W67270  26.078  32.167   0.985
98877W        W67271  30.656   9.313  12.011
98878W        W67272  20.677   9.873   4.969
98879W        W67273   4.536  18.678   2.400
98880W        W67274  12.534  20.196  11.506
98881W        W67275  31.512  15.430   4.045
98882W        W67276  14.743  27.096   4.697
98883W        W67277  29.117  25.998   3.808
98884W        W67278  26.085  10.652   1.199
98885W        W67279  13.667  37.536   1.697
98886W        W67280  32.042  17.811   1.346
98887W        W67281  40.559   7.744   4.717
98888W        W67282  17.186   1.859   1.991
98889W        W67283   5.960  11.773   4.571
98890W        W67284  10.316   7.235   3.071
98891W        W67285  27.047  39.737   4.024
98892W        W67286  39.314  39.372  14.885
98893W        W67287  21.731  19.564  10.494
98894W        W67288  13.560  13.776  12.243
98895W        W67289  24.706  26.934   2.207
98896W        W67290   5.404  21.966   1.767
98897W        W67291   0.921  25.696  12.028
98898W        W67292  42.331  10.109   3.320
98899W        W67293   8.280  35.657  11.642
98900W        W67294  29.003   5.284   4.168
98901W        W67295  11.129  24.667  12.030
98902W        W67296  29.015  11.355   1.725
98903W        W67297  24.058  41.000   3.197
98904W        W67298  17.810  26.261  14.019
98905W        W67299  21.093  37.770  10.674
98906W        W67300  32.107   1.841   0.407
98907W        W67301  10.335  25.061   1.043
98908W        W67302  32.125  10.198  10.609
98909W        W67303  21.395  32.814  10.670
98910W        W67304  22.053  14.645   0.276
98911W        W67305   6.431  39.452   2.618
98912W        W67306  42.443  39.593   4.906
98913W        W67307  23.808  25.228  12.048
98914W        W67308   6.702   2.102   4.514
98915W        W67309  15.143   7.376  11.200
98916W        W67310  33.908  43.316   0.867
98917W        W67311  29.918  20.214  13.472
98918W        W67312  18.373   7.408  11.620
98919W        W67313  43.373  27.647  14.453
98920W        W67314  12.045  36.649  10.775
98921W        W67315  16.629  13.275   0.297
98922W        W67316   5.804   5.918  13.373
98923W        W67317  23.835  28.198  11.824
98924W        W67318  16.671  27.473  12.564
98925W        W67319   8.456  39.087  14.871
98926W        W67320  11.718  36.146  14.458
98927W        W67321  11.652   8.791  14.129
98928W        W67322  31.151  17.577  13.981
98929W        W67323   2.167  16.221  13.803
98930W        W67324   1.680   3.269   0.438
98931W        W67325  34.238   0.789  13.251
98932W        W67326   1.015   5.451  11.614
98933W        W67327  30.507  26.822  14.660
98934W        W67328  20.120  36.736  10.039
98935W        W67329   5.416  34.099   2.118
98936W        W67330  44.820  43.297  13.745
98937W        W67331   0.660  31.675  14.951
98938W        W67332   6.668  23.550   5.005
98939W        W67333  24.695  25.209   0.719
98940W        W67334   7.467  12.304   2.123
98941W        W67335  10.842   0.192  12.160
98942W        W67336  22.517  34.491  10.352
98943W        W67337  20.500  39.083   2.273
98944W        W67338   7.307  18.035  10.663
98945W        W67339  22.221  40.904   0.337
98946W        W67340  13.265  38.545  12.006
98947W        W67341  14.776   2.090  13.066
98948W        W67342   7.361  36.269   2.654
98949W        W67343  44.566  17.998   1.285
98950W        W67344  18.077   6.953   1.785
98951W        W67345  14.830   8.807   0.473
98952W        W67346  11.879   4.233  12.052
98953W        W67347  24.992  21.693  13.362
98954W        W67348   7.489  28.419  14.273
98955W        W67349   7.750  43.886  13.875
98956W        W67350  30.801  22.915  13.977
98957W        W67351  31.770   9.717  13.279
98958W        W67352  11.293  31.648  11.490
98959W        W67353  40.503  24.433   3.240
98960W        W67354  14.674   9.695   0.000
98961W        W67355   9.138  25.868   1.400
98962W        W67356  23.240  44.306   2.594
98963W        W67357   7.430  41.780  12.912
98964W        W67358  36.831   2.946  14.466
98965W        W67359  12.825  28.383   3.712
98966W        W67360  41.806   8.715  11.637
98967W        W67361  32.661   3.708   4.350
98968W        W67362  21.951  28.071   0.243
98969W        W67363  11.172  41.329  12.505
98970W        W67364   2.010  38.972   0.432
98971W        W67365  44.421  39.476  13.389
98972W        W67366  10.755  16.637   3.645
98973W        W67367  18.432  21.061  13.702
98974W        W67368  33.763  27.113   4.091
98975W        W67369   3.376  23.784  14.007
98976W        W67370  34.181  17.065   3.775
98977W        W67371  21.757  34.836   0.735
98978W        W67372  20.698  15.287  14.360
98979W        W67373   6.157  37.437   3.731
98980W        W67374  35.880   2.018   1.764
98981W        W67375  22.657  17.479  14.311
98982W        W67376  24.058  27.611  14.961
98983W        W67377  21.221   1.434  14.292
98984W        W67378  31.708  39.773   3.660
98985W        W67379  26.259  13.077  10.730
98986W        W67380   3.866  17.374   2.807
98987W        W67381  13.317   5.288  14.875
98988W        W67382  27.434  42.000   3.075
98989W        W67383   6.513  20.074  11.978
98990W        W67384   5.278  31.631  12.436
98991W        W67385  20.232  26.838  14.155
98992W        W67386  31.828  23.993   0.558
98993W        W67387  16.236  34.382  12.150
98994W        W67388  24.039  12.173  14.428
98995W        W67389  22.704  21.454  13.426
98996W        W67390  39.149   0.895  14.978
98997W        W67391  39.174  37.529   1.460
98998W        W67392   8.289  10.819   3.934
98999W        W67393  38.096  33.169   1.560
99000W        W67394   8.448  44.972   2.819
99001W        W67395  32.958  19.282  14.341
99002W        W67396   2.811  41.181  10.164
99003W        W67397  30.960  39.846   2.790
99004W        W67398  44.233  14.158  10.760
99005W        W67399  18.260  14.985   1.560
99006W        W67400  32.836  32.522  13.402
99007W        W67401   9.294  17.608   2.934
99008W        W67402  11.630  18.593   0.540
99009W        W67403   4.501  20.481   0.909
99010W        W67404  20.833  10.825  12.895
99011W        W67405  36.035  33.478  10.474
99012W        W67406   4.748  16.279  13.890
99013W        W67407  29.062  15.291  10.740
99014W        W67408  43.510   4.700  10.352
99015W        W67409  29.534   6.550   4.916
99016W        W67410   6.204   8.639  13.646
99017W        W67411  35.733  25.663  13.064
99018W        W67412   5.677   8.504  13.502
99019W        W67413  32.113  27.749  11.517
99020W        W67414  15.182  19.061   9.794
99021W        W67415  41.578   1.794   3.750
99022W        W67416  16.111   3.716   4.325
99023W        W67417   7.323   6.938   9.599
99024W        W67418  20.176  24.162   4.662
99025W        W67419  11.482   9.329   3.619
99026W        W67420  14.811  20.991   4.754
99027W        W67421   4.924  14.194   2.675
99028W        W67422   7.356  26.546  10.511
99029W        W67423  21.430  26.737  14.516
99030W        W67424  22.760  26.863   1.232
99031W        W67425  30.049  13.376   4.885
99032W        W67426   7.887  43.342  13.941
99033W        W67427   1.274  29.439   1.709
99034W        W67428  34.139  20.867  13.921
99035W        W67429   9.757   5.848  14.515
99036W        W67430  34.239   2.732   0.400
99037W        W67431  22.013   2.402  14.205
99038W        W67432  39.307  17.923  11.641
99039W        W67433  10.936   1.826   3.160
99040W        W67434  42.393   8.026   1.673
99041W        W67435  22.003  31.708  12.348
99042W        W67436   3.739  31.928   4.219
99043W        W67437  17.615  14.744   3.157
99044W        W67438  27.474   5.630   1.134
99045W        W67439  19.317  15.199  11.662
99046W        W67440  34.596  38.827   0.983
99047W        W67441  37.088  32.624   3.535
99048W        W67442  18.102  22.449  13.020
99049W        W67443  25.225   7.749   2.677
99050W        W67444   1.845  15.344   3.170
99051W        W67445  28.583  40.399  13.580
99052W        W67446  21.428   0.716  13.516
99053W        W67447  19.177  12.648   3.203
99054W        W67448  25.240  11.872  11.094
99055W        W67449  26.482  44.315   2.851
99056W        W67450  38.386  25.445  12.725
99057W        W67451   7.173  23.603   1.984
99058W        W67452  13.631  32.952   0.365
99059W        W67453  31.657  16.564   3.120
99060W        W67454  14.423  37.289   3.437
99061W        W67455  26.702  13.345   1.294
99062W        W67456  40.473  17.476  11.103
99063W        W67457   8.283  11.674   1.245
99064W        W67458  34.762   5.343   1.751
99065W        W67459   8.139  38.894   0.594
99066W        W67460   2.279  13.125  14.200
99067W        W67461  13.226  27.665   3.187
99068W        W67462   0.435  33.122  13.769
99069W        W67463  23.220  30.612  12.403
99070W        W67464  12.276  22.255   0.909
99071W        W67465  42.080  19.610  11.458
99072W        W67466  21.384  28.096  10.284
99073W        W67467  16.759  15.843  12.934
99074W        W67468  40.862   1.509  10.494
99075W        W67469  26.938  21.644  14.033
99076W        W67470  34.910  38.213   1.466
99077W        W67471  41.508  30.170  13.919
99078W        W67472  23.147  30.500   4.712
99079W        W67473   9.323  25.602  11.209
99080W        W67474  37.059  27.516  11.205
99081W        W67475  30.551   6.655  13.861
99082W        W67476   2.862  18.851   1.387
99083W        W67477  10.820  19.420   4.495
99084W        W67478   3.914  37.641   4.077
99085W        W67479  14.405  16.885   2.443
99086W        W67480  13.828  27.428   0.351
99087W        W67481  19.130  39.115   3.599
99088W        W67482   5.894  30.568  12.992
99089W        W67483  33.098   1.365   1.800
99090W        W67484  10.773  29.197   1.264
99091W        W67485  42.552  15.646  12.062
99092W        W67486  34.443  42.833   1.488
99093W        W67487  21.280  35.115  13.347
99094W        W67488  21.163  30.745  14.382
99095W        W67489  26.599  35.265  13.427
99096W        W67490  19.683  15.947   5.327
99097W        W67491  31.410  24.021   1.849
99098W        W67492  37.115   7.817   0.617
99099W        W67493  42.425  25.666   3.618
99100W        W67494  34.133   4.855  12.464
99101W        W67495   4.198   4.954  14.524
99102W        W67496  37.780   4.821  14.030
99103W        W67497  23.169  21.116   4.338
99104W        W67498  20.199  19.260   0.473
99105W        W67499  24.038  37.554  13.329
99106W        W67500  10.832  33.919   1.441
99107W        W67501   9.935  26.639   5.096
99108W        W67502  28.928  15.254  13.943
99109W        W67503  29.220  26.503  12.492
99110W        W67504   8.007   8.196   1.231
99111W        W67505  32.015   7.863   5.242
99112W        W67506  41.363  25.109  14.696
99113W        W67507  35.521  37.138   0.909
99114W        W67508  29.960  22.322  14.943
99115W        W67509  12.018   4.529   2.800
99116W        W67510  35.047   2.374   1.962
99117W        W67511  31.491  21.078  13.920
99118W        W67512   8.697  21.222   0.071
99119W        W67513  27.215   8.329   4.396
99120W        W67514   2.387  44.166  10.687
99121W        W67515  34.575  23.065  13.579
99122W        W67516  28.427  11.821   4.860
99123W        W67517  22.205   9.206   1.668
99124W        W67518  36.082   4.310  13.300
99125W        W67519  20.776  18.677   2.847
99126W        W67520  13.460  28.952   2.727
99127W        W67521  39.445  30.445   2.300
99128W        W67522   4.200  33.161  14.903
99129W        W67523  23.515  14.257  13.547
99130W        W67524  40.303  20.719  13.557
99131W        W67525  39.770  27.798   4.058
99132W        W67526   4.691  18.794  14.488
99133W        W67527  28.875  37.861  12.454
99134W        W67528  26.153  38.932  12.768
99135W        W67529  15.325  34.816   0.288
99136W        W67530  32.490  39.974  13.433
99137W        W67531  33.646  32.046  11.457
99138W        W67532  38.439   5.931   2.403
99139W        W67533  26.348  43.963   4.100
99140W        W67534   7.933  19.498   4.267
99141W        W67535  22.220  14.199   0.487
99142W        W67536  26.490  24.718   2.123
99143W        W67537   2.387  22.489  11.136
99144W        W67538  36.100  36.917  14.035
99145W        W67539  24.418  31.207   1.933
99146W        W67540  40.457  34.872   2.877
99147W        W67541  14.212   8.115  13.030
99148W        W67542  37.449  15.625   0.193
99149W        W67543  44.677   4.503   4.443
99150W        W67544  40.794  30.422  13.034
99151W        W67545  12.122  29.497  11.241
99152W        W67546  12.464   0.521  14.287
99153W        W67547  22.038  28.615  13.461
99154W        W67548  34.030  26.710   4.298
99155W        W67549  24.285   4.761   3.268
99156W        W67550  30.506  29.038  13.315
99157W        W67551  16.083  36.002  11.398
99158W        W67552  11.854   5.371   0.491
99159W        W67553  22.838  42.513  10.895
99160W        W67554  27.943  39.913   1.913
99161W        W67555  34.232  18.283   2.394
99162W        W67556   0.496  44.950  12.025
99163W        W67557   1.958  44.981   0.987
99164W        W67558   8.566  32.329  11.312
99165W        W67559   8.788   8.000  12.593
99166W        W67560  41.796  23.684   2.237
99167W        W67561  16.681  19.077   4.903
99168W        W67562  22.079   6.482  13.372
99169W        W67563   0.946  16.251   3.561
99170W        W67564  19.072   1.903  13.968
99171W        W67565  34.569  24.696  13.995
99172W        W67566  36.793   5.496   2.663
99173W        W67567  15.693  13.825   1.169
99174W        W67568  13.139   4.728   4.168
99175W        W67569   0.285   2.151   3.135
99176W        W67570  18.596  44.531   1.248
99177W        W67571  44.738  27.000   3.111
99178W        W67572  43.433   8.323   4.885
99179W        W67573  33.868   3.463   0.643
99180W        W67574  32.412  23.144   2.410
99181W        W67575  25.223  32.640   0.035
99182W        W67576  18.622  13.154  10.733
99183W        W67577  29.636  36.398  14.686
99184W        W67578  32.097  17.392   3.739
99185W        W67579  44.021  40.367   3.554
99186W        W67580  15.283  39.424  12.515
99187W        W67581  29.388  17.523   0.954
99188W        W67582  24.590  27.292  13.929
99189W        W67583  43.926   9.416   4.734
99190W        W67584  32.303  30.002  13.536
99191W        W67585  19.649   9.856   0.304
99192W        W67586   9.523  29.428  14.763
99193W        W67587  43.848  41.311   1.942
99194W        W67588  10.676  36.535  10.669
99195W        W67589   5.847  20.714  14.309
99196W        W67590  11.271  14.777   1.678
99197W        W67591  26.878  30.463   4.443
99198W        W67592  42.838  16.540   4.710
99199W        W67593  19.863  33.535  11.727
99200W        W67594  36.066  25.042   2.265
99201W        W67595  18.606   9.841   3.561
99202W        W67596   4.417  38.087  13.869
99203W        W67597  27.027  22.238   3.812
99204W        W67598  26.652   4.496   1.338
99205W        W67599  27.166  21.201  13.242
99206W        W67600  10.159  17.293  12.395
99207W        W67601  30.121  28.445  10.729
99208W        W67602  15.556  33.509   1.214
99209W        W67603  20.681  26.410  10.313
99210W        W67604  33.391  17.746  10.546
99211W        W67605  36.985  27.730   3.243
99212W        W67606  17.878  10.753  11.194
99213W        W67607   5.852  30.027   1.431
99214W        W67608  27.022  43.329  14.998
99215W        W67609  40.223   4.147   4.181
99216W        W67610   5.708  25.589   4.025
99217W        W67611  30.511  43.952   0.872
99218W        W67612   8.216   1.230  13.375
99219W        W67613   5.336  40.786   0.349
99220W        W67614  24.517   5.283   1.353
99221W        W67615   1.424   3.122  14.989
99222W        W67616  14.700  43.812   1.802
99223W        W67617  24.335  14.376   4.221
99224W        W67618  22.303   0.390  14.167
99225W        W67619  33.535  29.895  12.113
99226W        W67620  32.486  25.501  12.940
99227W        W67621   1.749  38.095   2.501
99228W        W67622  14.507  22.020   1.323
99229W        W67623   4.950  15.680  13.055
99230W        W67624  38.327  15.987   4.932
99231W        W67625  34.937  41.477  13.349
99232W        W67626  20.035  15.170  14.860
99233W        W67627  12.005   6.822   4.682
99234W        W67628  11.473  39.464   0.724
99235W        W67629  17.079  17.010   3.478
99236W        W67630  31.521  18.272   5.053
99237W        W67631  17.283   2.849  12.205
99238W        W67632  37.238  20.581  12.519
99239W        W67633  32.931  30.115  12.942
99240W        W67634  25.799  26.171  12.754
99241W        W67635  16.868   0.458   4.573
99242W        W67636  12.733   9.150   3.172
99243W        W67637   8.017  42.088  14.911
99244W        W67638  12.327  17.610   2.335
99245W        W67639  21.040  13.823  11.100
99246W        W67640  35.159   4.503   2.735
99247W        W67641   7.623  44.829   1.756
99248W        W67642  18.906  20.540   1.775
99249W        W67643   8.464  37.195  12.007
99250W        W67644   8.902   2.978   3.577
99251W        W67645  16.198  21.371  14.240
99252W        W67646  18.090   6.720   4.088
99253W        W67647  22.454  36.805  10.763
99254W        W67648   4.390  24.552   3.311
99255W        W67649  26.914   4.647  11.192
99256W        W67650  43.865  35.225   1.119
99257W        W67651  36.308  24.068   3.759
99258W        W67652   7.224  11.813  11.490
99259W        W67653  43.950  18.135  14.986
99260W        W67654  35.509   1.017  13.297
99261W        W67655  25.803   7.945  13.916
99262W        W67656  21.156  26.377  10.108
99263W        W67657  35.500  28.267   3.356
99264W        W67658  41.255  28.172  11.043
99265W        W67659  41.832  24.312  11.633
99266W        W67660  42.377  27.472  12.113
99267W        W67661  14.062  16.776   1.632
99268W        W67662  14.204  25.286  12.418
99269W        W67663  37.888   8.900  10.829
99270W        W67664  17.312   8.241  10.794
99271W        W67665  21.495   1.614   0.921
99272W        W67666  18.987  21.573   0.349
99273W        W67667  21.307  13.233  12.414
99274W        W67668  11.178  29.660  13.431
99275W        W67669  18.238  23.664   1.899
99276W        W67670   2.429  19.285   2.767
99277W        W67671  34.829   0.306   3.138
99278W        W67672  21.937  42.687   1.283
99279W        W67673  22.117  37.769  13.413
99280W        W67674  23.039   6.920   0.680
99281W        W67675   9.817  29.043   1.523
99282W        W67676  23.459  22.269   0.897
99283W        W67677  20.299  11.562  12.434
99284W        W67678  39.709  13.963  12.644
99285W        W67679  34.246  14.573  12.171
99286W        W67680   1.464   3.044  12.857
99287W        W67681  42.452  35.350  13.370
99288W        W67682   5.248  13.874  13.009
99289W        W67683  21.879  13.180   4.975
99290W        W67684   4.470  19.699  11.856
99291W        W67685  16.823   0.709   4.105
99292W        W67686  35.286  21.764  13.404
99293W        W67687   4.807  44.087  13.387
99294W        W67688  28.706  29.638  12.002
99295W        W67689  31.326  16.499   0.011
99296W        W67690  30.288  12.656  13.063
99297W        W67691  20.251  20.077   4.340
99298W        W67692   8.583  40.942  14.822
99299W        W67693  22.159  22.500  11.157
99300W        W67694  26.455  42.536  10.779
99301W        W67695  26.832  34.642  11.754
99302W        W67696  41.419  24.690  14.346
99303W        W67697  31.799  20.281  11.732
99304W        W67698  33.507  17.855   0.310
99305W        W67699   0.400  20.629   2.606
99306W        W67700   9.365  20.459   3.222
99307W        W67701  39.457   3.716  12.574
99308W        W67702  34.123  31.322  14.708
99309W        W67703  22.693   1.270   0.851
99310W        W67704  24.259  30.062   3.420
99311W        W67705  11.897  12.983  11.621
99312W        W67706  31.560   1.675   4.231
99313W        W67707  15.359   2.790  11.373
99314W        W67708  40.306  30.169  11.462
99315W        W67709  37.902  28.669   3.618
99316W        W67710  32.370  10.188  14.894
99317W        W67711   0.816  31.060  12.702
99318W        W67712  19.525   1.912  14.273
99319W        W67713  12.386  35.790  12.864
99320W        W67714  44.993  30.558   3.241
99321W        W67715  18.760  13.968  12.340
99322W        W67716  23.221   9.338  10.605
99323W        W67717   2.146  22.468   2.358
99324W        W67718  38.154  16.723   2.656
99325W        W67719  32.363  39.396  12.929
99326W        W67720  10.581  15.008   4.233
99327W        W67721  16.628  16.384  12.970
99328W        W67722  18.097  34.885   2.706
99329W        W67723   3.730  23.248   3.304
99330W        W67724  42.191  11.826  13.089
99331W        W67725  15.661  10.877   3.307
99332W        W67726   6.547   9.142   0.377
99333W        W67727  12.410  44.379  12.954
99334W        W67728  21.052   0.332  13.489
99335W        W67729  33.933  41.954   2.748
99336W        W67730  21.371   5.355   0.356
99337W        W67731  22.991  11.419  13.015
99338W        W67732  14.755   6.687  14.507
99339W        W67733  44.586  36.996  14.782
99340W        W67734  24.575  17.249   5.045
99341W        W67735   7.407  29.508  13.991
99342W        W67736  30.639  41.304  11.649
99343W        W67737  41.265  26.010  14.789
99344W        W67738  27.669  16.714  13.903
99345W        W67739  38.609  23.476   1.346
99346W        W67740   8.602  37.489   4.545
99347W        W67741  20.050   5.745  14.010
99348W        W67742  30.497  23.515  12.790
99349W        W67743  40.719  34.316  14.920
99350W        W67744  44.229  43.687  11.623
99351W        W67745  44.024  31.453  11.134
99352W        W67746  28.385  16.379   0.859
99353W        W67747   7.628   0.516   1.245
99354W        W67748  29.688  28.055   4.309
99355W        W67749   2.057  17.360   2.001
99356W        W67750   1.900  41.142   2.323
99357W        W67751  26.716  15.637   3.541
99358W        W67752  35.039  22.988   4.468
99359W        W67753   1.407  42.541   2.623
99360W        W67754   2.380  30.516  14.512
99361W        W67755   2.589  22.704   3.310
99362W        W67756  36.039  37.706   2.271
99363W        W67757  18.243  21.728   2.664
99364W        W67758   4.187   3.570   4.712
99365W        W67759   8.891   3.635  13.799
99366W        W67760  35.680  37.802   0.316
99367W        W67761   9.265  15.487   0.366
99368W        W67762   3.722  20.225  11.993
99369W        W67763  29.417   7.484   1.525
99370W        W67764  34.632  19.631  13.499
99371W        W67765  42.154  12.246  14.270
99372W        W67766  42.266  40.955  13.002
99373W        W67767  29.594  25.149   4.569
99374W        W67768  28.548  13.395   1.791
99375W        W67769  31.161  12.858  11.991
99376W        W67770  43.308  31.567  10.452
99377W        W67771  23.491  39.086   1.297
99378W        W67772   3.227  26.455   3.643
99379W        W67773   9.087  18.143   2.330
99380W        W67774  11.868  42.928   1.139
99381W        W67775  40.128  18.850   2.532
99382W        W67776  15.747  23.363   3.561
99383W        W67777   2.986  26.363  10.940
99384W        W67778  32.080  28.754  14.916
99385W        W67779  29.389  39.524  12.036
99386W        W67780  25.323  28.514  13.085
99387W        W67781  42.263   9.528  11.551
99388W        W67782   0.133  24.744   1.720
99389W        W67783   7.318   1.818  10.240
99390W        W67784   7.795  10.174   3.739
99391W        W67785  16.809  18.715   4.113
99392W        W67786   9.148  14.273  13.161
99393W        W67787   9.276  28.235  13.016
99394W        W67788  33.960  26.921  11.902
99395W        W67789   4.320  44.200   4.021
99396W        W67790   0.440  16.435   2.672
99397W        W67791  15.986  26.493  13.105
99398W        W67792  26.664  39.354   3.973
99399W        W67793  38.415   3.276  12.386
99400W        W67794   9.777  19.178   1.288
99401W        W67795  36.907   8.119   2.364
99402W        W67796  17.238   3.754   2.854
99403W        W67797  27.898  27.552   4.185
99404W        W67798  15.652   2.045   4.088
99405W        W67799  18.039  31.564   4.778
99406W        W67800  23.479  13.451  12.530
99407W        W67801   4.340  33.901   3.341
99408W        W67802  31.099  11.904   2.836
99409W        W67803   4.771  36.837   1.430
99410W        W67804  15.314   2.075   1.377
99411W        W67805  29.496  39.814   4.455
99412W        W67806   7.372   6.269   0.115
99413W        W67807  37.469  43.661  14.874
99414W        W67808  16.935   2.553  12.441
99415W        W67809  22.560  11.134  11.329
99416W        W67810  21.805   5.409   3.742
99417W        W67811  44.993  38.786   1.403
99418W        W67812  18.007  28.182  11.020
99419W        W67813  39.537  11.677  10.836
99420W        W67814   2.799  15.555   1.295
99421W        W67815   5.666  41.732  13.394
99422W        W67816  15.145  27.652  11.948
99423W        W67817  40.023  40.970   4.182
99424W        W67818  39.046  36.783  12.089
99425W        W67819   6.872  14.180   3.227
99426W        W67820  18.804   3.419  11.740
99427W        W67821  42.794  16.932  12.053
99428W        W67822  29.645  22.002  11.767
99429W        W67823  41.356  23.725   0.215
99430W        W67824  22.337  33.470   1.936
99431W        W67825  14.672  38.312  14.010
99432W        W67826  15.261  18.675   2.425
99433W        W67827  12.929  16.102  12.478
99434W        W67828  18.995   4.765   3.136
99435W        W67829  13.367  19.301   0.346
99436W        W67830  10.618  37.888   1.553
99437W        W67831  23.064  12.409   4.157
99438W        W67832  11.901  35.395  11.135
99439W        W67833  42.258  23.527  14.972
99440W        W67834  32.856   5.129   4.175
99441W        W67835  27.988  23.431   3.644
99442W        W67836  35.393   4.767   4.579
99443W        W67837   7.263  18.010   2.339
99444W        W67838  44.477   9.882   2.292
99445W        W67839   7.903   6.420  14.969
99446W        W67840  11.165  21.997   4.749
99447W        W67841  25.498  22.486   4.130
99448W        W67842   1.615  43.351  11.568
99449W        W67843  10.251  35.945  14.557
99450W        W67844  20.769  35.985   0.963
99451W        W67845  33.949  18.521   1.955
99452W        W67846  44.535  11.029   4.208
99453W        W67847  33.612  40.266   4.121
99454W        W67848  17.259  34.163   4.534
99455W        W67849  16.760  15.028   3.431
99456W        W67850  20.224   1.392  12.286
99457W        W67851   0.450  27.208  13.055
99458W        W67852  25.671  36.410   3.710
99459W        W67853  44.322   0.086   3.133
99460W        W67854  31.456   8.259   0.882
99461W        W67855  36.312  17.783   4.944
99462W        W67856  34.924  21.974   4.694
99463W        W67857   4.341   4.641  13.069
99464W        W67858  37.317  31.860  12.382
99465W        W67859   5.175   2.239  14.717
99466W        W67860  40.509  40.315   3.781
99467W        W67861  22.830  31.978   3.395
99468W        W67862   7.730  31.417   0.400
99469W        W67863  20.574   6.825   1.721
99470W        W67864  18.236  44.856  11.535
99471W        W67865  23.180  30.801  10.737
99472W        W67866  14.855  13.322   2.233
99473W        W67867   9.452  28.973  11.536
99474W        W67868  28.023  17.501   2.129
99475W        W67869  10.105  22.191   4.138
99476W        W67870  17.024  15.281   2.431
99477W        W67871  19.068   8.630  12.053
99478W        W67872  21.116  26.590  12.668
99479W        W67873  38.456  23.066   0.063
99480W        W67874  17.208  17.466  11.539
99481W        W67875  19.095  43.966   2.381
99482W        W67876   6.409  19.895   2.506
99483W        W67877  21.046  41.140   4.581
99484W        W67878   4.934  16.286   3.204
99485W        W67879  15.685  11.363   4.219
99486W        W67880  33.656  30.553   3.812
99487W        W67881  28.957  36.290  11.052
99488W        W67882  27.162   8.249  14.533
99489W        W67883  37.586  43.991   3.295
99490W        W67884  17.133  28.502  11.160
99491W        W67885   9.756  35.431  13.386
99492W        W67886  40.086  39.590  10.163
99493W        W67887  44.607  42.544   0.780
99494W        W67888   0.987  36.004   2.795
99495W        W67889  23.720   6.418   1.261
99496W        W67890  32.667   5.199   1.779
99497W        W67891   3.761  12.664  11.786
99498W        W67892  19.744   1.953   2.796
99499W        W67893  29.527   6.408   3.653
99500W        W67894  18.065   7.429  14.527
99501W        W67895  26.022  41.085   2.167
99502W        W67896   3.153  14.183   4.009
99503W        W67897  39.311  22.846  11.391
99504W        W67898   6.843  14.334  12.492
99505W        W67899  13.688  37.559   4.192
99506W        W67900  32.013  13.198   3.760
99507W        W67901  23.396   3.495   3.223
99508W        W67902  30.101   9.264   4.683
99509W        W67903  17.190  39.067   0.485
99510W        W67904  35.895  21.282  14.535
99511W        W67905  15.844  19.366  12.890
99512W        W67906  44.036   8.388   3.558
99513W        W67907   3.749   4.769  11.142
99514W        W67908  33.767  25.512  14.524
99515W        W67909  39.354  29.596   0.463
99516W        W67910  30.074   3.469   4.670
99517W        W67911  25.767  32.531   1.506
99518W        W67912  39.805  36.944  12.611
99519W        W67913   6.946  44.378  13.118
99520W        W67914  37.643  26.724   1.349
99521W        W67915  11.684  34.546  12.800
99522W        W67916   1.817   7.367  10.731
99523W        W67917  12.416  25.320   0.931
99524W        W67918  28.477   1.341  12.620
99525W        W67919  16.032  34.032  12.895
99526W        W67920  25.639   3.849  10.826
99527W        W67921  13.781   6.005  13.385
99528W        W67922   3.309  40.464   1.022
99529W        W67923  39.257  11.077   0.290
99530W        W67924   2.358  21.818   4.038
99531W        W67925   3.535   1.991   1.803
99532W        W67926   8.651  14.112   4.731
99533W        W67927  37.946  25.097   0.704
99534W        W67928   4.626  13.181   3.631
99535W        W67929   2.672  17.610   3.550
99536W        W67930  31.811  13.932   0.231
99537W        W67931  30.088   3.614   3.124
99538W        W67932   8.783  20.533   2.725
99539W        W67933  26.706  41.303   3.739
99540W        W67934  35.405  28.778   0.374
99541W        W67935   5.174  13.218   1.181
99542W        W67936  40.896  11.860   0.578
99543W        W67937   7.768  29.185  12.433
99544W        W67938  42.716   2.510   1.738
99545W        W67939  40.926   9.534  13.774
99546W        W67940  24.774  14.155  13.901
99547W        W67941  34.302  13.214   0.760
99548W        W67942  19.804  42.437  11.991
99549W        W67943  29.084   0.808  10.407
99550W        W67944  44.187  29.233   2.554
99551W        W67945   5.937  11.761   3.558
99552W        W67946   1.282  14.171  10.461
99553W        W67947  40.237  27.632   3.629
99554W        W67948  15.732  22.254  11.130
99555W        W67949  19.579  25.619   0.952
99556W        W67950  13.541  34.167   1.781
99557W        W67951  37.213  29.263  10.220
99558W        W67952  42.302   2.678   1.477
99559W        W67953   4.845  20.768  10.371
99560W        W67954  43.428  22.614   4.158
99561W        W67955  16.308  35.861   3.793
99562W        W67956  24.500  39.503  11.843
99563W        W67957  28.229  21.914   0.741
99564W        W67958  28.092  15.573   0.857
99565W        W67959   8.816  29.673  12.536
99566W        W67960  12.742  14.653   3.119
99567W        W67961  28.036  40.777  13.084
99568W        W67962   6.778  20.666  12.773
99569W        W67963  31.968  36.180   1.810
99570W        W67964  28.679  18.568  13.514
99571W        W67965  25.245   8.971   1.431
99572W        W67966   7.595  35.991  11.489
99573W        W67967  17.824  34.452  10.718
99574W        W67968  19.521   9.151  12.457
99575W        W67969  28.101  12.698   5.196
99576W        W67970  35.830  33.094   3.291
99577W        W67971  23.281  41.853   2.574
99578W        W67972  11.558  30.188  11.088
99579W        W67973  11.363  41.769  14.345
99580W        W67974  22.725  10.985  14.980
99581W        W67975  32.274  41.054   2.829
99582W        W67976  39.820  17.687  14.672
99583W        W67977  44.709   7.372  11.253
99584W        W67978  32.025   1.314  13.186
99585W        W67979  30.435  11.107  12.440
99586W        W67980   0.952  24.635   1.202
99587W        W67981  13.405   9.646  14.910
99588W        W67982  23.025   5.747  14.900
99589W        W67983  36.268   1.321   3.642
99590W        W67984  34.705  34.909  14.545
99591W        W67985   6.606  16.126  10.746
99592W        W67986  35.032   0.761   0.598
99593W        W67987  43.524  16.622   1.873
99594W        W67988  11.770  44.571   9.999
99595W        W67989  25.874   7.873   0.787
99596W        W67990  15.716  11.793   0.140
99597W        W67991  13.375   0.875   3.886
99598W        W67992  16.893  17.720   1.342
99599W        W67993   3.429  10.682  14.390
99600W        W67994   7.117  34.104  11.226
99601W        W67995  10.407  16.056  12.518
99602W        W67996  40.586  39.085   4.232
99603W        W67997  30.961  28.186  12.960
99604W        W67998  33.431  27.496   0.270
99605W        W67999  43.873   9.860  14.479
99606W        W68000  35.540  12.559   2.254
99607W        W68001  15.749  14.067   0.363
99608W        W68002  26.601   1.791  13.616
99609W        W68003   6.341  27.711   0.501
99610W        W68004  38.520  14.100   0.808
99611W        W68005   8.137  13.444  14.069
99612W        W68006  31.100  43.890   4.065
99613W        W68007   3.278  42.947   3.405
99614W        W68008  42.296  30.287   4.236
99615W        W68009   7.119   0.493   1.283
99616W        W68010  26.967  37.848   4.038
99617W        W68011  18.135  31.710  14.409
99618W        W68012  21.805   2.732   3.312
99619W        W68013   9.338   0.222   0.378
99620W        W68014  21.670  37.424  12.560
99621W        W68015   3.192  37.087   0.747
99622W        W68016  21.170  36.391  10.634
99623W        W68017   9.991  28.145  13.291
99624W        W68018  20.038  39.100   9.955
99625W        W68019  33.292  14.786  10.514
99626W        W68020  37.974  42.992  13.350
99627W        W68021  12.181  16.083   4.476
99628W        W68022  43.809   4.375  10.669
99629W        W68023  28.955   8.362   1.853
99630W        W68024  10.266  38.121   3.274
99631W        W68025  39.030  30.138  13.450
99632W        W68026  12.656   7.235   3.728
99633W        W68027  26.531   4.195   3.251
99634W        W68028   4.253   6.219  13.058
99635W        W68029  24.507  39.843  10.723
99636W        W68030   5.176   1.883   3.113
99637W        W68031   1.971  43.294   2.642
99638W        W68032  25.566   1.188   4.821
99639W        W68033  30.559  33.535  13.228
99640W        W68034  23.511  40.390   2.792
99641W        W68035   6.766   9.634   0.342
99642W        W68036  13.251  39.209   3.792
99643W        W68037  11.358  26.611  10.903
99644W        W68038  43.347   1.442   4.294
99645W        W68039   7.541  32.515  12.228
99646W        W68040   4.345  15.971   0.240
99647W        W68041  32.538  40.587  11.509
99648W        W68042  38.248   6.457   1.762
99649W        W68043  24.716  12.131  12.124
99650W        W68044  22.552  13.632  13.917
99651W        W68045  38.443   3.952   1.256
99652W        W68046   7.683  40.717   3.219
99653W        W68047  20.993  31.670  14.331
99654W        W68048  19.674  43.353   3.866
99655W        W68049   5.859  17.747   0.092
99656W        W68050   5.658  14.945   9.708
99657W        W68051  34.905  41.818  11.504
99658W        W68052  26.306   1.292  13.368
99659W        W68053   1.215   8.492  13.366
99660W        W68054  20.513  35.707  11.846
99661W        W68055  33.427  27.491   4.567
99662W        W68056  16.468  38.998   3.291
99663W        W68057  41.700  21.356   2.284
99664W        W68058  13.208   3.284   4.585
99665W        W68059  36.907   8.677  14.659
99666W        W68060  11.793   7.252   2.484
99667W        W68061  14.215  15.084  14.832
99668W        W68062  31.710  28.999   1.656
99669W        W68063  29.932  18.464   4.283
99670W        W68064  37.633  35.965  14.721
99671W        W68065   2.467   4.447   1.486
99672W        W68066   9.793  14.340   1.807
99673W        W68067  39.940  14.188   3.695
99674W        W68068   8.379   5.872   3.740
99675W        W68069  30.995  14.628  10.736
99676W        W68070  28.218   1.806  12.564
99677W        W68071  19.591  20.331  11.714
99678W        W68072  15.078   3.611   0.436
99679W        W68073   2.713   5.221  12.489
99680W        W68074  44.453  26.566  10.327
99681W        W68075   4.285  25.193  10.274
99682W        W68076  30.612   2.532   1.898
99683W        W68077   7.906  19.068   1.300
99684W        W68078  22.973  28.021  11.143
99685W        W68079  40.301   7.759   0.260
99686W        W68080  31.551  25.637  13.733
99687W        W68081  31.330  25.783  12.840
99688W        W68082  12.464  33.916   2.219
99689W        W68083  36.846   4.505   1.777
99690W        W68084  35.438  24.265   2.208
99691W        W68085  37.367  10.190  11.624
99692W        W68086  42.877  18.625  12.622
99693W        W68087  22.958  41.872   3.714
99694W        W68088   0.635  38.054   5.014
99695W        W68089  27.082   6.123   3.247
99696W        W68090   4.727  36.621   3.955
99697W        W68091  10.210   9.835  14.140
99698W        W68092   7.135  30.592  13.056
99699W        W68093  23.172  32.518  12.615
99700W        W68094  22.182  14.039  13.300
99701W        W68095  32.888  12.167  13.775
99702W        W68096  26.069  17.885  13.891
99703W        W68097  28.281  12.566   0.186
99704W        W68098  34.599  39.479   3.288
99705W        W68099  16.778   5.234  13.642
99706W        W68100  36.495   6.485   1.294
99707W        W68101   4.015   8.459  14.984
99708W        W68102  35.402  14.176  14.356
99709W        W68103  26.471  21.596  14.331
99710W        W68104  40.572  27.182   1.794
99711W        W68105   2.525   4.363   4.201
99712W        W68106  15.572  16.848  12.788
99713W        W68107  33.420   9.867   4.617
99714W        W68108  13.094  30.796   4.163
99715W        W68109   0.913   2.150   1.060
99716W        W68110  14.781  21.232  11.301
99717W        W68111   9.892  11.256  10.748
99718W        W68112   3.582   2.867   4.924
99719W        W68113  38.119   8.863   4.787
99720W        W68114   1.269  30.611   0.360
99721W        W68115   9.008  25.471   4.593
99722W        W68116   5.505  17.330  12.691
99723W        W68117   4.272  20.997   4.718
99724W        W68118  42.334  30.180   3.364
99725W        W68119  20.067   8.236  12.501
99726W        W68120  30.884  12.843  12.459
99727W        W68121  35.793  20.151  11.002
99728W        W68122  41.764  32.187  11.606
99729W        W68123  34.866  16.144  11.153
99730W        W68124   5.778  19.632  14.065
99731W        W68125   5.262  19.603  14.275
99732W        W68126  39.318  29.477  10.783
99733W        W68127   9.243   9.053   4.481
99734W        W68128   0.607  39.592  10.794
99735W        W68129  16.722   2.986   4.075
99736W        W68130  44.657  18.245  13.298
99737W        W68131  42.988  17.369  11.793
99738W        W68132   0.556  33.865  14.743
99739W        W68133   9.338  14.246   3.112
99740W        W68134   8.722   7.837   0.854
99741W        W68135  33.400  26.534   0.970
99742W        W68136   8.230  14.389  11.175
99743W        W68137  23.186   9.418   3.710
99744W        W68138  27.102  20.575   0.495
99745W        W68139  21.397  26.868  13.424
99746W        W68140   6.306  19.493   0.368
99747W        W68141  17.113   6.253   1.799
99748W        W68142   7.458  36.420   0.293
99749W        W68143  10.366  19.538  13.603
99750W        W68144  24.241  30.699   1.795
99751W        W68145  24.266  20.099   3.252
99752W        W68146  20.673   9.254   0.216
99753W        W68147  12.635  22.836   2.346
99754W        W68148  26.878  20.487  14.780
99755W        W68149  44.769  11.926   0.031
99756W        W68150   5.959  39.871   0.864
99757W        W68151  16.572  32.628   0.963
99758W        W68152  22.917  26.991   0.411
99759W        W68153   1.928  26.034  11.231
99760W        W68154   1.186  31.854  14.892
99761W        W68155  11.689   0.882  14.034
99762W        W68156  38.063   4.826  10.882
99763W        W68157  18.716  43.025  10.588
99764W        W68158  17.118  37.369  11.632
99765W        W68159  37.874  43.936  10.663
99766W        W68160  37.833  44.444   3.139
99767W        W68161   4.239   5.491  12.606
99768W        W68162  16.760  25.746   1.656
99769W        W68163  19.036  41.328   2.710
99770W        W68164  30.136  34.912   3.720
99771W        W68165  10.378  25.431   0.303
99772W        W68166  43.531  21.265   1.966
99773W        W68167  18.215  30.745   0.170
99774W        W68168  33.365   3.355   0.530
99775W        W68169   7.075  16.018  10.964
99776W        W68170   6.002  41.080  11.550
99777W        W68171  38.404   5.031   2.292
99778W        W68172  29.915  24.603  14.823
99779W        W68173   1.747   4.980  11.609
99780W        W68174  12.374   7.849  10.713
99781W        W68175  41.374  16.661  14.233
99782W        W68176  17.985   7.272   4.558
99783W        W68177  10.085  26.518  10.311
99784W        W68178  13.643  14.381   4.075
99785W        W68179  43.775  21.580  12.114
99786W        W68180  43.026   2.946   1.779
99787W        W68181  32.983  23.830  12.472
99788W        W68182  22.186   1.314  13.763
99789W        W68183   2.497  40.031   0.945
99790W        W68184  33.889  23.565   2.751
99791W        W68185  33.528  28.720   5.037
99792W        W68186  40.346  38.441   2.352
99793W        W68187  41.538  43.947  12.178
99794W        W68188   0.779  41.323  10.678
99795W        W68189  10.479  38.133   4.101
99796W        W68190  26.714  25.879   3.329
99797W        W68191  17.348  18.939  12.165
99798W        W68192  38.909   3.263  10.168
99799W        W68193  11.368  22.200  14.520
99800W        W68194  20.633  33.572  14.436
99801W        W68195  18.505  26.205   9.867
99802W        W68196   2.760  25.141  11.911
99803W        W68197   1.263  10.869   3.387
99804W        W68198   4.796  36.323   1.492
99805W        W68199  36.951  13.492   2.775
99806W        W68200   8.493  23.692   3.089
99807W        W68201  27.955  14.708   0.731
99808W        W68202  13.439  42.707  11.705
99809W        W68203  37.931  42.960  12.323
99810W        W68204  23.083  24.976  13.412
99811W        W68205  11.859  40.336  12.298
99812W        W68206   8.816  32.775   4.240
99813W        W68207  20.016  30.916  13.977
99814W        W68208  32.520   8.716   3.767
99815W        W68209  34.243  41.437  13.786
99816W        W68210   6.751  42.019  10.690
99817W        W68211  31.461  21.557   2.126
99818W        W68212  24.155  30.479  10.085
99819W        W68213   9.397  15.017   2.183
99820W        W68214  29.588  32.092  10.688
99821W        W68215  11.058  43.710  12.197
99822W        W68216  22.608   6.895   1.021
99823W        W68217   4.763  21.226  13.038
99824W        W68218   3.035  22.779  12.189
99825W        W68219  38.279  12.675  12.934
99826W        W68220  14.798   6.708   2.040
99827W        W68221  28.042  27.408   0.400
99828W        W68222  12.305   9.444   3.173
99829W        W68223   6.226   9.379   0.750
99830W        W68224  28.498  28.990  12.073
99831W        W68225  16.737  39.357   2.719
99832W        W68226   0.005  32.939   0.901
99833W        W68227   2.744  33.923  12.495
99834W        W68228   6.887   6.470  13.820
99835W        W68229  41.955  27.971   2.306
99836W        W68230  44.715   7.457  12.637
99837W        W68231  10.685  10.842   0.065
99838W        W68232  21.560   6.682   3.786
99839W        W68233  20.261  23.683  12.521
99840W        W68234  29.987  30.546   1.680
99841W        W68235   5.782  17.980  10.987
99842W        W68236  33.426  19.802  11.609
99843W        W68237  37.147  44.988   3.165
99844W        W68238  16.239  24.488   0.903
99845W        W68239  38.840  34.333   0.377
99846W        W68240  12.483  31.832   0.717
99847W        W68241   3.795  17.343   1.910
99848W        W68242  29.583  15.584  11.557
99849W        W68243  37.437  31.567  12.792
99850W        W68244  30.412  39.910  13.348
99851W        W68245  33.985  38.373  12.389
99852W        W68246  34.873  37.028   3.288
99853W        W68247  15.415  39.418  11.660
99854W        W68248  30.479  34.377   1.502
99855W        W68249  36.531  40.747  11.098
99856W        W68250   7.724  33.269  10.317
99857W        W68251  39.265  18.571   2.368
99858W        W68252  28.538   9.148   3.649
99859W        W68253   9.571  16.199  11.999
99860W        W68254   3.851  30.189   4.388
99861W        W68255  41.688  30.283  14.390
99862W        W68256   9.856  25.420   4.499
99863W        W68257  31.483   9.880  10.971
99864W        W68258  14.679  13.333   0.363
99865W        W68259  27.185  36.623  10.739
99866W        W68260  16.131  43.487   1.772
99867W        W68261  18.497  25.157   2.029
99868W        W68262  33.454  36.514   2.466
99869W        W68263  39.487   5.264   1.450
99870W        W68264  41.557  40.580  13.730
99871W        W68265   2.865  34.973   4.222
99872W        W68266  11.142  38.930  14.386
99873W        W68267  42.010  27.649  14.951
99874W        W68268   7.870  11.693   4.873
99875W        W68269  13.799  16.574  11.424
99876W        W68270  13.527   8.882   4.072
99877W        W68271  12.161  18.225  14.016
99878W        W68272  32.071  43.573   3.564
99879W        W68273  30.392  16.111  14.819
99880W        W68274   3.280  43.973   1.822
99881W        W68275  36.627  17.296   3.599
99882W        W68276   5.785  40.327   2.048
99883W        W68277  23.163  10.684   0.741
99884W        W68278  32.832   7.475   4.273
99885W        W68279  26.529  31.020  11.500
99886W        W68280  31.612   7.553  11.640
99887W        W68281  35.651  33.450   3.653
99888W        W68282  12.836   7.417  14.535
99889W        W68283  14.658  21.026   3.093
99890W        W68284  10.655   6.200   4.826
99891W        W68285  13.594  41.956   0.868
99892W        W68286  25.720   7.023  11.184
99893W        W68287  37.608  41.284   0.972
99894W        W68288  40.946  12.344  13.373
99895W        W68289  17.224   9.701   4.697
99896W        W68290  16.090  11.689   4.172
99897W        W68291   0.192   1.313  11.393
99898W        W68292  27.206  34.392   3.570
99899W        W68293  41.220  27.297   4.240
99900W        W68294   0.185  28.518   3.741
99901W        W68295  40.916   0.916   3.382
99902W        W68296  40.371  29.597  12.246
99903W        W68297  36.888  15.853  12.990
99904W        W68298  36.657  41.976  14.271
99905W        W68299   8.647  16.698  13.206
99906W        W68300  15.637  32.889  13.362
99907W        W68301   5.867  30.185  14.243
99908W        W68302   9.763  38.755  11.004
99909W        W68303  30.647   6.180   0.918
99910W        W68304  27.121   2.353   1.292
99911W        W68305  23.061  25.709   4.379
99912W        W68306  11.021  16.672   4.106
99913W        W68307  37.311  30.421   4.375
99914W        W68308  23.829  18.682   0.957
99915W        W68309  35.082  16.626   1.759
99916W        W68310  13.678  15.327  10.702
99917W        W68311  33.091  27.156  14.563
99918W        W68312  39.766   4.504   0.851
99919W        W68313  16.417  30.551  11.211
99920W        W68314  29.201   6.005   1.845
99921W        W68315   0.994  38.485  12.549
99922W        W68316  44.733   8.916  10.453
99923W        W68317  17.328  32.003   4.557
99924W        W68318  17.158  35.835  12.552
99925W        W68319  12.947  33.026   3.999
99926W        W68320   0.370   9.195  13.866
99927W        W68321  29.424  26.942  11.599
99928W        W68322   3.364  29.083  14.917
99929W        W68323  17.001  25.154   1.934
99930W        W68324   2.743  27.672  13.386
99931W        W68325   5.741  43.069  13.862
99932W        W68326  33.549  27.355  14.676
99933W        W68327  37.604  26.408   4.066
99934W        W68328  12.261  10.887   1.733
99935W        W68329  16.726  22.295  13.233
99936W        W68330  18.732  20.111   0.498
99937W        W68331  28.741   6.974  14.020
99938W        W68332  43.921  33.148   2.633
99939W        W68333  28.373  17.541   1.744
99940W        W68334   6.670   8.352   3.738
99941W        W68335  42.062  24.194  12.489
99942W        W68336  11.205  43.694  13.506
99943W        W68337   9.332  43.956  10.585
99944W        W68338   4.930  27.262  13.482
99945W        W68339  18.722  24.624  13.953
99946W        W68340  42.511  16.529   2.361
99947W        W68341   3.006  24.049   0.333
99948W        W68342  26.061  30.418   5.031
99949W        W68343   1.516  23.110   3.952
99950W        W68344  10.720  36.559  14.426
99951W        W68345   9.752  17.812   2.757
99952W        W68346  16.581  14.836  11.614
99953W        W68347  22.545   8.697  10.621
99954W        W68348  39.781  22.685   1.440
99955W        W68349  30.963  32.728   3.772
99956W        W68350  23.565  21.041   2.125
99957W        W68351  17.397  25.643   3.242
99958W        W68352  31.964  32.526  12.898
99959W        W68353  16.274  18.761  11.568
99960W        W68354  24.081  31.383  11.944
99961W        W68355  18.142  23.226   3.162
99962W        W68356  31.125  15.778   4.048
99963W        W68357   2.194  37.128  11.600
99964W        W68358  28.341  27.883  14.970
99965W        W68359   6.697  24.853   1.771
99966W        W68360  10.678  31.462   0.702
99967W        W68361  37.095  25.130   4.523
99968W        W68362  15.812  20.656  10.326
99969W        W68363  34.943  33.392  12.684
99970W        W68364  43.854  16.489   0.506
99971W        W68365  27.247  40.399  13.530
99972W        W68366  39.384  17.314   2.909
99973W        W68367  44.807  19.192   0.885
99974W        W68368  34.472  11.111  12.147
99975W        W68369  43.483  15.721   0.850
99976W        W68370  37.927  42.261  11.210
99977W        W68371  25.606  15.092   4.427
99978W        W68372  11.277   6.759   3.578
99979W        W68373  19.541  24.658   0.542
99980W        W68374  34.846  42.379  10.597
99981W        W68375  13.411  14.677   0.730
99982W        W68376   2.734  28.521  11.914
99983W        W68377   5.952  28.029  12.177
99984W        W68378  39.196  37.571   4.124
99985W        W68379  32.388  22.292   3.728
99986W        W68380  24.228  41.330   1.681
99987W        W68381   5.760   9.304   4.133
99988W        W68382  19.675  15.413  14.589
99989W        W68383   5.077  40.008   0.759
99990W        W68384  28.683  34.351   2.871
99991W        W68385  28.474  12.588   1.197
99992W        W68386  38.617  20.998   4.138
99993W        W68387  38.736   9.926  14.522
99994W        W68388  18.895  16.145   3.191
99995W        W68389  28.819   9.048  14.512
99996W        W68390  43.326  15.935   1.302
99997W        W68391  42.820  27.000   3.750
99998W        W68392  20.068  39.885  14.109
99999W        W68393   9.319   8.350   2.828
    0W        W68394   1.950  40.880   1.860
    1W        W68395  10.251  10.445   2.706
    2W        W68396  22.549   8.664  12.788
    3W        W68397  16.781  27.845   2.763
    4W        W68398   3.102  29.418  14.487
    5W        W68399  25.539   8.152   4.183
    6W        W68400  18.200   8.684   0.264
    7W        W68401  39.363  24.135   4.907
    8W        W68402  35.828  10.927   3.326
    9W        W68403  21.833  20.669   1.085
   10W        W68404  31.909  35.450   0.277
   11W        W68405  19.062  36.356   3.342
   12W        W68406  31.061  10.405  14.725
   13W        W68407  23.020  13.854  13.836
   14W        W68408  42.287  36.363  13.292
   15W        W68409  43.980   4.131   0.482
   16W        W68410   9.452  26.188   1.692
   17W        W68411  30.986  39.850  12.553
   18W        W68412  18.555   4.907  13.742
   19W        W68413  30.102  10.712   1.928
   20W        W68414   3.945  14.727  12.995
   21W        W68415  18.559  33.906   3.896
   22W        W68416  25.448  21.772  12.968
   23W        W68417  24.556  19.254  14.855
   24W        W68418  22.580  10.081  12.659
   25W        W68419   9.731  43.701   0.026
   26W        W68420  42.466   1.911  11.966
   27W        W68421  43.239   7.905   3.229
   28W        W68422  43.115   2.807   0.439
   29W        W68423   1.847  31.552   3.869
   30W        W68424   8.585   4.384  12.115
   31W        W68425  14.280   7.860   3.815
   32W        W68426  18.517  35.377   0.893
   33W        W68427  31.781  17.056   0.620
   34W        W68428  39.691  32.778  14.709
   35W        W68429  31.187  43.979  10.737
   36W        W68430  12.535   4.288   1.881
   37W        W68431  38.543  23.994  10.377
   38W        W68432   4.397  37.226   0.834
   39W        W68433   0.550  19.037   2.776
   40W        W68434  19.550  27.942   4.566
   41W        W68435  18.611  32.976   1.403
   42W        W68436   5.484  20.515   1.773
   43W        W68437  27.236  35.471   1.819
   44W        W68438  14.748  35.530   2.326
   45W        W68439  11.620  44.365   1.352
   46W        W68440   8.135  19.421  14.024
   47W        W68441   4.625  24.683   5.588
   48W        W68442  14.462  13.893  13.758
   49W        W68443  19.951  23.428   1.411
   50W        W68444   4.515   2.728   1.038
   51W        W68445  25.021  24.186   2.587
   52W        W68446  33.852  39.612   0.866
   53W        W68447  32.853  34.618  11.944
   54W        W68448  22.558  44.551  11.907
   55W        W68449  33.554  20.558  11.038
   56W        W68450  14.831   3.403   3.303
   57W        W68451  38.258  33.725  11.123
   58W        W68452  38.894   0.353   4.964
   59W        W68453  37.481  40.166   0.385
   60W        W68454  41.476   7.512   0.640
   61W        W68455  10.441   6.335  12.039
   62W        W68456  21.920   4.857   4.380
   63W        W68457  33.628  13.730   3.607
   64W        W68458  16.972   2.796   0.203
   65W        W68459  23.255  34.476  14.433
   66W        W68460  13.366  11.154   1.718
   67W        W68461  30.239   7.947   0.674
   68W        W68462  42.463   9.743  14.907
   69W        W68463   6.617  38.119   1.261
   70W        W68464   7.752  20.294   3.209
   71W        W68465  33.493  23.932   4.674
   72W        W68466  26.946   9.864  10.670
   73W        W68467   9.245  37.628  11.541
   74W        W68468  15.735  40.987  14.893
   75W        W68469   2.542  29.367   0.404
   76W        W68470  39.430  24.414  10.452
   77W        W68471  14.285   9.308   3.170
   78W        W68472  36.460  15.079   2.110
   79W        W68473  10.251   0.830  14.217
   80W        W68474  32.829   2.271  12.487
   81W        W68475  17.131  12.860   0.962
   82W        W68476   5.409  41.633  13.876
   83W        W68477  40.988   3.298  11.664
   84W        W68478  20.048  12.599   0.958
   85W        W68479  42.758  36.321   3.189
   86W        W68480  29.973   0.700  12.546
   87W        W68481  40.877  34.876  14.919
   88W        W68482  42.092   0.418  12.046
   89W        W68483   0.478  19.108  11.187
   90W        W68484  43.411   1.237   1.471
   91W        W68485   4.697  19.700  12.763
   92W        W68486  16.319  33.483   0.726
   93W        W68487   5.423  28.477  10.594
   94W        W68488   7.346  27.123   3.685
   95W        W68489  43.115  24.026  11.198
   96W        W68490  28.454   9.783  11.399
   97W        W68491  10.808  11.640  14.992
   98W        W68492  26.073   4.119   0.296
   99W        W68493   6.738   1.058   4.732
  100W        W68494  24.566   2.464  14.269
  101W        W68495  44.681   9.738  11.436
  102W        W68496  38.019  18.195  14.855
  103W        W68497   3.608  29.515   1.275
  104W        W68498  22.721  11.755   1.385
  105W        W68499  35.713  34.325  12.626
  106W        W68500   3.557  26.215   3.934
  107W        W68501   3.406  28.454  13.985
  108W        W68502  30.095  16.823  13.862
  109W        W68503   1.525  14.552  13.998
  110W        W68504   7.265  29.570  13.498
  111W        W68505   8.983  12.740  11.752
  112W        W68506  31.855  18.549   0.773
  113W        W68507   9.330  44.813   0.788
  114W        W68508   8.772  35.856   4.357
  115W        W68509  10.901  43.525  11.068
  116W        W68510  10.131  15.206  14.792
  117W        W68511  44.430   5.410  12.444
  118W        W68512  18.756  22.051   0.258
  119W        W68513   7.092  21.736   0.420
  120W        W68514  21.655  31.398   2.022
  121W        W68515  43.487  35.969  11.237
  122W        W68516  12.743  13.075  14.362
  123W        W68517   2.419  34.150  11.522
  124W        W68518   9.716  19.099   3.063
  125W        W68519  16.627  35.284  10.935
  126W        W68520  21.020  37.406  13.831
  127W        W68521  26.917  36.142  13.904
  128W        W68522  12.185  39.104   4.287
  129W        W68523  25.467  40.729   0.294
  130W        W68524  40.579  28.911   2.403
  131W        W68525   7.601  30.395   4.100
  132W        W68526  16.973  21.716   0.475
  133W        W68527  17.279  40.305  14.331
  134W        W68528  22.271  40.535  14.347
  135W        W68529  33.257   2.766   2.574
  136W        W68530  13.676  44.799   0.941
  137W        W68531  23.094  41.563  13.351
  138W        W68532  23.166   1.383  11.117
  139W        W68533   7.024  16.672   3.606
  140W        W68534  32.688  30.518   1.787
  141W        W68535  42.069   9.136   1.478
  142W        W68536   7.221   4.216  13.042
  143W        W68537  24.744   1.056   1.366
  144W        W68538   5.355  29.021   4.008
  145W        W68539  12.624  24.696   3.928
  146W        W68540  24.660   6.296   4.285
  147W        W68541  41.884  15.607  11.135
  148W        W68542   0.395  14.393   3.900
  149W        W68543  32.439  22.253   0.213
  150W        W68544  35.052  35.872   0.638
  151W        W68545  39.384  29.147   2.897
  152W        W68546   1.308  27.526  13.274
  153W        W68547  34.076  20.753   1.796
  154W        W68548  12.345  15.051  13.819
  155W        W68549  13.840  13.594  14.404
  156W        W68550  19.776  34.640   0.850
  157W        W68551  24.119  25.617  11.133
  158W        W68552   7.421   4.260  14.830
  159W        W68553  12.980  42.329  12.772
  160W        W68554  31.371  44.499  10.721
  161W        W68555  14.945  38.546  10.735
  162W        W68556  10.340  40.076   2.385
  163W        W68557  31.544   5.806  11.572
  164W        W68558  14.590  26.146   2.712
  165W        W68559   2.298  10.838   0.412
  166W        W68560  31.828  12.309   2.188
  167W        W68561  17.532  15.191   0.878
  168W        W68562  26.371  12.831   2.971
  169W        W68563  33.013  12.270   1.903
  170W        W68564  11.817  42.246   4.592
  171W        W68565  15.180  34.924   2.887
  172W        W68566  36.202  31.010   3.768
  173W        W68567  30.603  44.507   2.441
  174W        W68568  23.686   3.353  10.195
  175W        W68569  16.570  35.306   4.192
  176W        W68570   4.811   8.659   1.081
  177W        W68571  23.163  20.051   4.485
  178W        W68572  13.794  30.501   2.672
  179W        W68573  14.791  24.530  14.597
  180W        W68574  14.999  39.635  10.823
  181W        W68575  32.520  43.474  11.989
  182W        W68576  25.391  42.285   0.498
  183W        W68577  25.916   7.234   3.710
  184W        W68578  31.237  26.906  11.783
  185W        W68579  36.736  34.800  13.921
  186W        W68580  25.517  25.645   0.583
  187W        W68581  39.635   7.669   2.661
  188W        W68582  38.939   0.582   3.374
  189W        W68583  10.523   7.701   0.703
  190W        W68584  34.835  40.837  11.499
  191W        W68585  10.146   4.086   3.687
  192W        W68586  35.043   4.450  12.556
  193W        W68587   1.525  19.280   2.962
  194W        W68588  16.543  34.859  14.801
  195W        W68589  19.724   9.373  12.858
  196W        W68590  19.948  41.422  11.955
  197W        W68591  39.535  40.624   1.908
  198W        W68592  21.530  25.143   2.823
  199W        W68593  23.297   4.633  12.971
  200W        W68594  33.827  40.438   2.928
  201W        W68595  21.798  28.958   4.159
  202W        W68596  23.791  37.107  11.190
  203W        W68597  16.112  44.570  11.557
  204W        W68598  32.354   0.969  10.596
  205W        W68599   5.990  24.178   1.863
  206W        W68600  22.754  30.048  14.945
  207W        W68601  37.092  38.399   3.697
  208W        W68602  16.119  41.547   1.914
  209W        W68603   9.284  19.596   3.658
  210W        W68604  30.788  10.302   3.861
  211W        W68605  16.592  25.173   0.282
  212W        W68606  23.200  20.633   2.126
  213W        W68607  37.183  32.304   2.549
  214W        W68608  40.852   7.970  11.243
  215W        W68609  25.008  13.937   3.211
  216W        W68610   4.525   9.908  13.267
  217W        W68611  35.048  40.441  12.144
  218W        W68612  42.841  20.833  10.273
  219W        W68613  40.540   8.723  11.164
  220W        W68614  15.328  24.939   1.844
  221W        W68615  16.259  44.879   4.273
  222W        W68616  29.404  20.012   0.685
  223W        W68617  36.595   3.275  12.597
  224W        W68618  32.456  10.857  12.370
  225W        W68619   8.624  36.947  11.598
  226W        W68620  12.677   2.227   0.470
  227W        W68621  42.319  16.928   0.383
  228W        W68622  16.654  30.723  12.467
  229W        W68623  32.855  18.732   4.077
  230W        W68624  23.895   4.688  11.077
  231W        W68625  15.146  36.368   2.355
  232W        W68626   9.873  18.674  12.089
  233W        W68627   5.696  31.074  14.013
  234W        W68628  39.271  14.028  11.133
  235W        W68629  34.996  39.857  12.926
  236W        W68630  20.385  22.418   2.216
  237W        W68631  21.715   0.905  11.745
  238W        W68632  23.585  43.118  14.399
  239W        W68633  30.731  10.673  12.422
  240W        W68634  37.463  25.090   1.327
  241W        W68635  26.162  12.772   4.608
  242W        W68636  22.938  35.580   3.896
  243W        W68637  44.326  31.282  13.474
  244W        W68638  10.559   3.771   3.746
  245W        W68639  44.973  26.185   0.775
  246W        W68640  38.896  24.294   3.273
  247W        W68641  24.804  33.430  11.528
  248W        W68642  39.967  18.575  11.367
  249W        W68643  44.367  33.941  10.941
  250W        W68644  37.934  38.788   0.819
  251W        W68645  12.990   5.767  13.713
  252W        W68646  43.726   4.955   3.778
  253W        W68647   4.794   4.752  11.945
  254W        W68648   4.490  34.769   0.825
  255W        W68649  16.596   0.864  14.810
  256W        W68650  42.779  32.572   3.745
  257W        W68651   2.844  21.650   1.095
  258W        W68652  17.916  26.344  10.616
  259W        W68653  24.517  27.937   2.510
  260W        W68654  23.223   5.891   0.900
  261W        W68655  30.844  24.998  14.814
  262W        W68656  13.192  33.031   4.668
  263W        W68657  18.948  39.926   0.012
  264W        W68658  24.411  43.787  14.786
  265W        W68659  13.504  43.306   3.354
  266W        W68660   3.844  28.444  11.044
  267W        W68661  39.646  37.316   1.412
  268W        W68662  44.027   5.305  12.100
  269W        W68663  40.211  38.494  14.866
  270W        W68664  15.031  40.135  12.065
  271W        W68665  41.391  44.395   0.240
  272W        W68666   6.156   3.584   4.114
  273W        W68667  23.063  29.954  11.452
  274W        W68668  24.679  12.466   1.753
  275W        W68669   9.651   0.821  13.513
  276W        W68670  10.851   1.274   4.437
  277W        W68671   1.910  32.334  10.906
  278W        W68672  23.475  28.932  14.872
  279W        W68673   9.092   6.143  13.929
  280W        W68674  14.944  15.146  11.205
  281W        W68675  21.893  21.030  11.310
  282W        W68676  32.045   1.365  10.680
  283W        W68677   7.382  15.171  11.982
  284W        W68678  34.860  42.975  14.744
  285W        W68679  40.802  28.155  10.811
  286W        W68680  16.596  18.696  14.189
  287W        W68681  13.125  16.786  12.943
  288W        W68682  33.390  22.141   3.837
  289W        W68683   1.855  36.274   1.631
  290W        W68684  15.126  38.455   2.295
  291W        W68685   3.181  14.698   4.055
  292W        W68686  39.281   7.897  12.427
  293W        W68687  29.390   9.353   2.667
  294W        W68688  41.767   2.174   0.355
  295W        W68689   7.695   0.679   4.614
  296W        W68690  27.549  18.776  13.001
  297W        W68691  25.044  10.703  11.231
  298W        W68692  14.614  17.605  14.624
  299W        W68693   9.426  25.675   4.362
  300W        W68694   9.247  43.531   3.286
  301W        W68695   0.797  12.970  12.312
  302W        W68696  36.615  44.370   3.690
  303W        W68697   1.807  16.560   2.745
  304W        W68698  31.685  11.999   0.407
  305W        W68699   0.938  29.029   3.450
  306W        W68700  17.740   5.479  10.090
  307W        W68701  40.898  12.224  14.257
  308W        W68702   1.278  19.734  11.219
  309W        W68703  41.986   7.278  10.676
  310W        W68704  13.802   5.602   4.488
  311W        W68705  34.070  14.008   0.751
  312W        W68706  18.069  30.571   3.564
  313W        W68707  42.372  34.907  14.992
  314W        W68708   1.619  34.495   0.437
  315W        W68709  20.819  33.297  11.472
  316W        W68710  25.599   5.265  14.966
  317W        W68711  26.207  20.592   4.685
  318W        W68712   3.693  11.716   2.319
  319W        W68713  40.890  39.529   0.259
  320W        W68714   9.735   6.720  14.694
  321W        W68715  36.343  12.084  10.378
  322W        W68716  39.448  21.113  14.245
  323W        W68717  41.083  37.339  11.558
  324W        W68718   6.728  43.818   2.181
  325W        W68719  33.614   1.977  13.539
  326W        W68720  13.804   1.658  10.678
  327W        W68721  44.943  40.274  10.374
  328W        W68722  28.324   6.735  14.341
  329W        W68723  14.650  17.426   3.637
  330W        W68724  23.580   0.436  14.264
  331W        W68725   0.336  11.820   2.967
  332W        W68726  35.933  33.860   3.835
  333W        W68727  22.052  18.104   0.863
  334W        W68728  24.606  37.633   1.336
  335W        W68729  42.306  15.399  10.523
  336W        W68730  35.062  37.135  10.655
  337W        W68731  23.840   2.911   0.711
  338W        W68732  21.688  26.534   3.046
  339W        W68733  29.075  11.412  14.350
  340W        W68734   3.297  44.840  14.286
  341W        W68735  39.737  26.185   0.462
  342W        W68736  23.260  19.697  11.149
  343W        W68737  25.581  35.772  12.405
  344W        W68738  22.994   3.248  11.002
  345W        W68739   4.857  26.437   3.317
  346W        W68740  30.221   3.944   2.164
  347W        W68741   7.562  25.227   2.240
  348W        W68742  17.067  40.037   3.347
  349W        W68743   2.756  40.184   4.062
  350W        W68744  18.749  17.749   3.693
  351W        W68745  27.921  24.511   2.877
  352W        W68746  43.131  39.534   4.707
  353W        W68747  17.291  34.556   0.857
  354W        W68748   8.939  24.718   1.635
  355W        W68749  19.549   5.116  14.514
  356W        W68750  16.305  28.208  13.359
  357W        W68751  12.732   8.722   4.924
  358W        W68752   1.260   5.402   2.723
  359W        W68753   8.707  11.389  14.885
  360W        W68754  36.440  42.331  13.957
  361W        W68755  15.994  35.976  14.244
  362W        W68756  28.613   6.447  14.018
  363W        W68757  37.296  29.208  12.053
  364W        W68758  38.558  24.602   2.001
  365W        W68759  36.437  28.576   2.770
  366W        W68760  39.306  17.302   4.252
  367W        W68761  38.811   1.893   1.835
  368W        W68762  40.439  15.770   0.342
  369W        W68763  15.703  17.385  14.902
  370W        W68764   5.780  24.087   4.236
  371W        W68765  42.558   0.871   4.200
  372W        W68766  10.176  25.431   2.828
  373W        W68767  34.707  10.096   0.194
  374W        W68768  13.097  18.840   3.722
  375W        W68769   1.238   4.619   2.764
  376W        W68770  17.797  12.053   2.346
  377W        W68771  11.897  42.258  13.305
  378W        W68772  19.566  40.017  14.069
  379W        W68773   4.363  23.923  10.794
  380W        W68774  10.376  10.249  14.475
  381W        W68775  30.577  23.599  13.312
  382W        W68776  32.992  37.004   1.463
  383W        W68777   8.710  27.023  10.449
  384W        W68778  41.486  31.701  12.941
  385W        W68779  20.852  25.190  11.132
  386W        W68780  44.358   1.363   3.896
  387W        W68781   5.267   6.193   0.641
  388W        W68782  23.534  26.385   0.527
  389W        W68783  22.905  10.273  11.375
  390W        W68784  34.170  12.761   0.524
  391W        W68785  10.336   9.334  11.669
  392W        W68786  12.132  13.336  11.315
  393W        W68787  25.592  17.023  12.887
  394W        W68788  30.634  28.407  10.757
  395W        W68789  43.593  41.473  14.839
  396W        W68790   8.037  10.804   0.764
  397W        W68791  39.981  40.311   4.618
  398W        W68792  16.349   9.696   1.438
  399W        W68793  21.226  28.287  13.499
  400W        W68794  39.337  44.059  14.149
  401W        W68795  10.865  17.181  11.608
  402W        W68796   3.295   8.543  11.137
  403W        W68797  16.722  35.840   1.139
  404W        W68798  26.969  24.688   0.521
  405W        W68799  41.100  44.541   2.282
  406W        W68800  31.146  36.670  14.854
  407W        W68801  26.894   1.069   0.912
  408W        W68802  39.755  19.141  10.720
  409W        W68803  26.914  30.560  14.954
  410W        W68804  24.702  44.894   0.380
  411W        W68805  14.109  40.035  12.913
  412W        W68806   7.357   7.929  13.492
  413W        W68807   8.803   0.552   1.661
  414W        W68808  33.997  20.510   4.532
  415W        W68809  21.518  11.683   4.127
  416W        W68810  10.669  32.568  10.735
  417W        W68811  10.114  34.641  11.802
  418W        W68812  31.971  36.604   2.144
  419W        W68813  20.329  15.261   9.707
  420W        W68814  27.271  18.825  11.149
  421W        W68815  10.270   7.922  14.785
  422W        W68816  41.319  28.932  13.413
  423W        W68817  26.027  15.497   1.883
  424W        W68818  28.962   9.796  12.209
  425W        W68819  12.190  30.551  10.501
  426W        W68820  42.761  38.810   1.392
  427W        W68821  38.889  38.289   2.350
  428W        W68822  23.563  37.482  13.047
  429W        W68823  44.824  34.195  12.085
  430W        W68824  35.924  35.093   0.964
  431W        W68825  40.507  21.145  13.322
  432W        W68826  18.724  26.208  12.100
  433W        W68827  14.810  35.915  13.393
  434W        W68828  21.235   9.670   0.145
  435W        W68829  27.207  26.486   3.698
  436W        W68830  42.815  34.818  10.539
  437W        W68831  37.176  21.086   3.663
  438W        W68832  14.806  34.908  11.616
  439W        W68833  10.252   7.782  11.374
  440W        W68834  38.360  17.998   4.385
  441W        W68835  26.809  29.750  13.806
  442W        W68836  20.636  30.610  11.513
  443W        W68837  22.993  31.674   0.983
  444W        W68838  22.481   2.691  12.623
  445W        W68839  31.403   6.721   4.818
  446W        W68840  39.959  15.279  13.250
  447W        W68841  20.965  19.511  12.595
  448W        W68842  39.033  13.797   0.392
  449W        W68843  18.264   4.734   1.309
  450W        W68844   6.475  28.491   1.780
  451W        W68845  21.727  41.435  10.945
  452W        W68846  31.598  32.658  11.574
  453W        W68847  41.846   4.909   0.014
  454W        W68848  11.312  31.310  13.914
  455W        W68849  22.637  12.842  11.080
  456W        W68850   7.727  37.100   3.327
  457W        W68851  15.975  41.451   1.421
  458W        W68852  14.665  16.838  12.214
  459W        W68853  14.086  21.847   4.487
  460W        W68854  35.845  10.782   1.897
  461W        W68855  10.264  27.851  12.953
  462W        W68856  23.126  34.338  11.828
  463W        W68857  41.919  13.901   0.004
  464W        W68858  43.816  12.894  13.945
  465W        W68859  41.638  17.262  12.195
  466W        W68860  40.024  16.869  14.952
  467W        W68861  29.004   8.965   2.723
  468W        W68862  16.383  26.892   2.713
  469W        W68863   1.778  29.150   3.033
  470W        W68864  25.303  38.760   5.048
  471W        W68865  14.494  41.066   1.240
  472W        W68866   5.352  37.815   2.947
  473W        W68867  15.861   7.783   0.181
  474W        W68868   8.482  26.030  10.322
  475W        W68869  30.146  38.632   4.552
  476W        W68870  11.736  21.867   3.349
  477W        W68871  21.299  41.321  12.322
  478W        W68872  38.985  27.638  14.489
  479W        W68873  17.913  44.036  11.870
  480W        W68874  32.115  37.137   2.261
  481W        W68875  14.796  21.512  14.696
  482W        W68876  14.230  31.489   4.622
  483W        W68877  35.112  38.527  14.020
  484W        W68878  17.230   4.784  14.555
  485W        W68879  32.789   8.498   4.154
  486W        W68880   5.711  43.081  12.101
  487W        W68881  20.128  29.053  13.426
  488W        W68882  19.264  37.621   4.558
  489W        W68883   1.128  26.681  10.832
  490W        W68884  27.285  30.936   3.110
  491W        W68885  42.460   9.315   2.135
  492W        W68886  28.103  10.852   0.367
  493W        W68887  37.816  33.416   3.797
  494W        W68888  38.382  10.188   3.616
  495W        W68889  14.123  38.538   2.345
  496W        W68890  25.502  18.710  10.762
  497W        W68891  31.333  42.386   0.973
  498W        W68892  31.387  33.997   3.679
  499W        W68893   5.416  29.913  14.258
  500W        W68894  33.696  11.298  10.286
  501W        W68895  44.479   2.367  12.038
  502W        W68896  17.815  20.009  10.508
  503W        W68897  17.150  16.187   2.165
  504W        W68898  41.353  36.466   0.808
  505W        W68899  26.390   7.461  12.512
  506W        W68900  44.954  33.010  13.918
  507W        W68901  36.988  42.782  13.864
  508W        W68902  29.013  22.289  13.548
  509W        W68903  18.536  28.795   3.204
  510W        W68904   2.761  18.162  14.279
  511W        W68905  10.334  32.345  13.701
  512W        W68906   5.848  43.284   4.068
  513W        W68907  29.980  12.515   0.901
  514W        W68908  21.649  19.051  11.815
  515W        W68909  12.305  17.776   4.668
  516W        W68910  29.494  12.902  13.399
  517W        W68911  40.445   4.407  11.414
  518W        W68912  17.621  43.796   0.840
  519W        W68913   1.853  16.242  13.385
  520W        W68914   7.156  42.258   4.761
  521W        W68915  26.386  23.834  11.169
  522W        W68916  36.945  30.621  11.224
  523W        W68917   9.841  34.759   0.638
  524W        W68918  33.030   5.871   0.865
  525W        W68919  28.203   3.393   2.289
  526W        W68920  13.981  43.694   3.190
  527W        W68921  32.544  42.772   1.164
  528W        W68922   5.827  23.763  10.779
  529W        W68923   2.312  27.679   2.070
  530W        W68924  35.793  40.427   2.751
  531W        W68925   8.293  41.338  14.522
  532W        W68926   8.121  18.595  14.394
  533W        W68927  15.856  13.709  11.193
  534W        W68928   9.781   6.426   4.694
  535W        W68929  11.316   7.246   3.300
  536W        W68930  34.817  38.864  12.132
  537W        W68931  17.054  21.471  13.329
  538W        W68932  13.093  38.890  11.596
  539W        W68933  26.734  39.387  12.395
  540W        W68934   6.031  14.563   4.677
  541W        W68935   7.214  43.487  13.430
  542W        W68936  23.158  38.092   3.848
  543W        W68937  37.401   0.442   0.341
  544W        W68938   4.464  36.974   2.712
  545W        W68939  44.808   0.699   0.319
  546W        W68940  34.594  35.016   3.795
  547W        W68941  18.883  20.225   2.245
  548W        W68942  29.480  31.643   0.772
  549W        W68943  39.728  28.935  13.131
  550W        W68944  34.936  19.792   0.312
  551W        W68945  15.732  14.356   1.256
  552W        W68946  13.212  40.928  14.988
  553W        W68947  34.648  38.863   2.888
  554W        W68948  13.190  15.898  10.179
  555W        W68949  41.827  42.330  11.164
  556W        W68950  37.593  24.614  12.608
  557W        W68951  44.407  28.927   3.508
  558W        W68952   4.482   3.217   2.291
  559W        W68953  44.913  35.373  10.980
  560W        W68954   5.786  40.522  13.921
  561W        W68955  35.313   3.525   0.778
  562W        W68956  23.620  12.377   0.388
  563W        W68957   8.539  36.496   3.213
  564W        W68958   7.428  14.002   3.723
  565W        W68959  32.915  35.189   4.604
  566W        W68960   5.499  31.937   2.358
  567W        W68961  43.997  17.500  13.474
  568W        W68962   4.384  28.412   0.527
  569W        W68963  37.943  36.365   2.809
  570W        W68964  22.128  44.307   3.278
  571W        W68965  21.303  43.267   0.252
  572W        W68966  22.474  39.119  11.611
  573W        W68967  15.790  27.447   1.207
  574W        W68968  21.282  28.393  14.016
  575W        W68969  39.815  33.702   2.230
  576W        W68970  12.782  32.306   0.524
  577W        W68971  30.456  40.826   4.566
  578W        W68972  13.805  32.941   1.390
  579W        W68973  39.897  23.290  14.847
  580W        W68974   6.336  17.657   3.366
  581W        W68975  12.320  32.685   4.085
  582W        W68976  13.424  27.533  13.254
  583W        W68977  44.480  23.236  10.678
  584W        W68978  19.284   6.772   2.299
  585W        W68979  29.478  44.164   4.969
  586W        W68980  21.820  21.523  14.028
  587W        W68981   3.340  35.071   3.198
  588W        W68982  32.782  38.986  13.570
  589W        W68983  17.666   5.209  10.780
  590W        W68984   3.925   2.509  12.355
  591W        W68985  17.101  16.042   3.733
  592W        W68986  28.719  21.161   0.728
  593W        W68987   3.844  37.115  11.252
  594W        W68988  24.450  41.130  11.065
  595W        W68989   7.983  26.489  12.873
  596W        W68990   6.156  31.580   1.186
  597W        W68991  17.693  32.403  14.004
  598W        W68992  23.469   8.720  12.381
  599W        W68993  31.920  11.741  14.591
  600W        W68994  21.285   9.895   0.951
  601W        W68995  23.353  33.647   1.803
  602W        W68996  39.532  25.513   0.240
  603W        W68997   9.212  17.636  14.288
  604W        W68998  14.659   5.621   2.957
  605W        W68999  21.252  44.891  13.640
  606W        W69000   6.494   4.734  13.537
  607W        W69001  24.190  23.843  12.243
  608W        W69002   3.491   9.895  14.892
  609W        W69003   7.308  22.584   3.176
  610W        W69004  23.782   8.375  14.454
  611W        W69005  44.808  41.705  12.599
  612W        W69006   2.792  31.673  14.293
  613W        W69007   4.357  32.766   1.986
  614W        W69008   9.166  10.109  11.961
  615W        W69009  37.601  43.845  10.225
  616W        W69010  11.584   3.853  14.337
  617W        W69011  21.540  19.273   1.193
  618W        W69012  40.860  29.642  12.086
  619W        W69013   0.110  42.385   4.097
  620W        W69014  40.873   7.287  13.995
  621W        W69015  29.664   9.298   4.998
  622W        W69016  37.973  23.232  14.737
  623W        W69017   0.105  43.392  11.256
  624W        W69018  28.641  26.154  12.677
  625W        W69019  30.706  42.265  10.818
  626W        W69020   3.138  39.287  12.914
  627W        W69021  14.792  21.982  13.142
  628W        W69022  44.058  24.508   0.356
  629W        W69023   4.141  15.197   2.454
  630W        W69024  38.900   0.356  14.124
  631W        W69025  25.847  14.250  11.670
  632W        W69026  23.106  40.920   2.184
  633W        W69027  20.109  44.479  13.831
  634W        W69028  27.232  30.124  13.096
  635W        W69029  33.141  28.602   2.769
  636W        W69030   0.895  13.176   4.761
  637W        W69031  21.676   7.925  14.008
  638W        W69032  37.605  26.920   0.320
  639W        W69033  19.526  32.545   4.762
  640W        W69034  19.323  23.533   3.654
  641W        W69035  14.696  13.049  11.220
  642W        W69036  31.450  27.081  13.571
  643W        W69037  39.655  42.968  10.720
  644W        W69038  16.609  38.563  14.453
  645W        W69039  14.327  17.435  11.009
  646W        W69040  28.213  19.095  12.400
  647W        W69041  15.629  15.597   1.901
  648W        W69042  44.397   3.732  13.866
  649W        W69043   2.224  42.256   0.439
  650W        W69044   9.470   2.703  14.510
  651W        W69045   8.115  32.654   3.601
  652W        W69046  30.415  29.057  13.931
  653W        W69047  34.297   3.532  13.689
  654W        W69048  39.807  38.804   3.900
  655W        W69049  24.552  29.590  13.937
  656W        W69050  17.813  18.818  10.276
  657W        W69051  24.164  44.869   4.195
  658W        W69052  39.828  33.327  12.554
  659W        W69053  22.935  12.176  11.542
  660W        W69054  42.362  25.466   4.652
  661W        W69055   8.127   8.354  14.972
  662W        W69056  20.147  16.599  13.693
  663W        W69057  42.332  19.180   4.169
  664W        W69058  43.835  12.903  14.879
  665W        W69059  32.529  22.861  11.540
  666W        W69060  32.655  38.079  12.390
  667W        W69061  34.659  19.813   3.735
  668W        W69062  37.483  24.866  11.920
  669W        W69063  28.068  27.908  10.359
  670W        W69064  25.252  30.652   0.753
  671W        W69065   1.407  27.245   1.300
  672W        W69066  11.805   2.367  13.399
  673W        W69067  36.983  42.293  10.858
  674W        W69068  42.835  35.919  14.448
  675W        W69069  43.223  20.191  11.552
  676W        W69070  27.395   2.031  11.706
  677W        W69071   0.524   9.956  13.790
  678W        W69072  43.532   0.576   1.898
  679W        W69073  28.942  20.861  14.468
  680W        W69074  20.294  22.989  11.084
  681W        W69075   0.761  41.557  11.877
  682W        W69076  30.062   4.937  12.443
  683W        W69077  34.972  43.874   1.277
  684W        W69078   9.365  38.123  12.448
  685W        W69079   1.580  34.174  11.879
  686W        W69080   9.520  25.691   5.305
  687W        W69081  17.960  27.681   4.504
  688W        W69082  12.799  35.183  11.019
  689W        W69083  28.837  21.090  11.039
  690W        W69084  15.988   2.674   2.289
  691W        W69085  10.243  23.433  14.979
  692W        W69086  23.481   1.364   1.280
  693W        W69087  24.464   1.980  10.784
  694W        W69088  20.231  11.443  14.575
  695W        W69089  13.182  21.199   4.103
  696W        W69090  32.903  18.311  14.302
  697W        W69091  21.265  38.959   0.447
  698W        W69092  13.239  12.531  10.643
  699W        W69093  13.769  15.736  14.809
  700W        W69094  18.225  12.098   1.803
  701W        W69095  20.666  31.324  12.492
  702W        W69096   0.672   9.156   3.182
  703W        W69097  28.391  33.539  14.486
  704W        W69098  29.495  41.119   0.303
  705W        W69099  37.119  44.104   3.497
  706W        W69100  22.575  26.086  12.825
  707W        W69101  27.399  41.759   5.041
  708W        W69102   1.171   7.384   2.993
  709W        W69103  24.472  30.073  11.634
  710W        W69104  13.872  37.481   4.685
  711W        W69105  27.939  36.865   0.882
  712W        W69106  14.011  26.636   4.682
  713W        W69107  39.830   6.677   3.130
  714W        W69108  30.045  20.652  11.192
  715W        W69109   0.414  40.368   0.481
  716W        W69110  32.125  16.755  13.252
  717W        W69111  25.974  30.051  11.590
  718W        W69112  14.270   6.669   1.349
  719W        W69113  40.096  31.525  11.312
  720W        W69114  35.374  44.236  14.343
  721W        W69115  20.139  29.112   5.179
  722W        W69116  37.144  43.018  13.417
  723W        W69117  30.164  35.121  14.397
  724W        W69118   6.208  30.561  12.473
  725W        W69119   6.366  15.966  10.300
  726W        W69120  11.651  44.878  10.951
  727W        W69121  34.908  33.355   0.906
  728W        W69122  41.601  29.172  11.668
  729W        W69123  34.915   2.964  11.147
  730W        W69124   3.380  13.722   4.104
  731W        W69125  16.247  22.002   4.822
  732W        W69126  40.238  25.772  11.968
  733W        W69127   9.734  18.814  13.948
  734W        W69128  25.533   9.666   3.245
  735W        W69129  15.743   0.748   4.559
  736W        W69130  13.541  10.802   0.456
  737W        W69131  21.815   8.354  14.936
  738W        W69132  44.058  23.792   4.325
  739W        W69133  28.389  25.486  11.064
  740W        W69134  11.335  24.152  10.773
  741W        W69135  18.084  44.757  13.014
  742W        W69136   5.801  44.723   1.351
  743W        W69137  14.187  28.113  13.264
  744W        W69138  10.773  32.985   1.964
  745W        W69139  17.528  29.974   0.886
  746W        W69140  24.844   7.671  10.537
  747W        W69141  36.884  32.085  11.434
  748W        W69142  24.258  29.461   0.010
  749W        W69143  37.239  42.233  13.467
  750W        W69144   7.307  21.216   4.835
  751W        W69145  14.970  13.161  13.451
  752W        W69146   5.235  14.212   1.752
  753W        W69147  29.694  18.532   4.745
  754W        W69148  17.469  42.877   3.449
  755W        W69149  16.285  30.914   2.745
  756W        W69150  31.111  32.634  14.466
  757W        W69151  19.792   9.396  13.351
  758W        W69152  30.927  12.731   0.265
  759W        W69153   5.140  39.078   0.730
  760W        W69154   6.143  25.982   0.812
  761W        W69155  14.193  44.066  11.119
  762W        W69156  33.458  21.676  13.850
  763W        W69157  29.132  23.755   1.391
  764W        W69158  20.526  15.598   2.419
  765W        W69159  37.589  38.797   2.180
  766W        W69160   5.221  26.681  13.074
  767W        W69161  21.974   2.318  11.794
  768W        W69162  34.007   3.165   4.187
  769W        W69163  42.687  26.958   0.317
  770W        W69164  40.435  32.084   2.910
  771W        W69165  22.726  10.423   0.874
  772W        W69166   1.328  23.928   1.853
  773W        W69167  26.855  33.041  10.905
  774W        W69168  24.679  41.332  14.301
  775W        W69169  27.394  41.652  12.452
  776W        W69170  42.601  40.055   5.124
  777W        W69171  27.020  10.912  13.509
  778W        W69172  18.572   5.316  11.627
  779W        W69173  14.771  12.442   3.133
  780W        W69174  13.391   0.749   1.978
  781W        W69175  14.878   0.980   1.215
  782W        W69176  20.137   0.296   2.102
  783W        W69177  11.864  29.032   4.582
  784W        W69178   5.398  18.105   0.803
  785W        W69179  21.143  40.187  11.018
  786W        W69180   2.937  30.385  11.672
  787W        W69181   8.359  17.330   4.209
  788W        W69182   1.379   3.698   1.806
  789W        W69183  15.592  23.031  11.643
  790W        W69184  44.472  35.462   4.153
  791W        W69185  27.098  16.705   0.887
  792W        W69186  25.105   2.195   0.880
  793W        W69187  14.800   5.386   1.682
  794W        W69188  35.936  34.670   4.530
  795W        W69189  27.523  38.320   0.717
  796W        W69190  17.676  10.403   4.550
  797W        W69191  30.640  36.927  12.429
  798W        W69192  40.907  42.501   1.829
  799W        W69193  31.078   8.292   4.433
  800W        W69194  16.767  14.251  13.478
  801W        W69195  24.893  42.010  12.424
  802W        W69196   9.792  42.574   2.202
  803W        W69197  43.389  17.729   4.137
  804W        W69198  30.687   9.822  11.444
  805W        W69199   7.816   9.673   1.593
  806W        W69200   0.032   0.834   2.382
  807W        W69201  30.380  42.479   0.657
  808W        W69202   1.371  38.526   3.208
  809W        W69203  26.351  38.741   4.099
  810W        W69204  15.543  24.157  12.090
  811W        W69205   5.191   9.221  14.846
  812W        W69206  37.923  28.921  10.764
  813W        W69207   9.379  40.242   0.832
  814W        W69208  32.577  43.715   1.067
  815W        W69209  33.167  28.063   0.692
  816W        W69210  43.102  14.802   4.659
  817W        W69211  20.216  29.623  12.333
  818W        W69212   0.461  37.961   4.243
  819W        W69213   2.254  37.813   1.349
  820W        W69214  42.321   4.214   4.959
  821W        W69215  22.914  40.352  11.245
  822W        W69216  35.745  22.387   3.005
  823W        W69217  19.639   5.092   4.653
  824W        W69218  41.639   1.946  12.520
  825W        W69219  37.659   6.145  13.839
  826W        W69220  42.475   8.635   4.069
  827W        W69221  30.120   5.730  11.533
  828W        W69222  41.779  10.697   4.295
  829W        W69223   1.404   5.791  10.712
  830W        W69224  23.557  15.153  13.997
  831W        W69225   9.958  44.837   2.662
  832W        W69226  15.402  10.163   4.106
  833W        W69227   1.903  22.433  10.931
  834W        W69228  34.011  32.998  14.423
  835W        W69229  13.708   9.082   0.952
  836W        W69230  11.213  12.665  10.626
  837W        W69231  21.420  42.123  14.035
  838W        W69232  37.044  14.668  10.867
  839W        W69233  30.587   3.435   3.259
  840W        W69234  14.470  19.024  12.759
  841W        W69235   7.133   2.307   0.300
  842W        W69236  24.063   5.380   1.603
  843W        W69237  44.064  31.182  11.570
  844W        W69238   2.387  29.000   3.430
  845W        W69239  31.407  28.163  11.538
  846W        W69240  42.792  43.467  13.282
  847W        W69241  16.760   4.689  11.609
  848W        W69242  44.757  36.276   3.526
  849W        W69243  17.391   8.732  11.809
  850W        W69244  12.109  11.750   0.227
  851W        W69245  30.386  14.924   3.338
  852W        W69246   0.440  21.766   1.404
  853W        W69247  14.044   0.168   0.956
  854W        W69248  14.904   4.829   5.343
  855W        W69249  18.807  31.438   4.495
  856W        W69250  16.825  12.240  13.864
  857W        W69251  44.904  31.609  12.919
  858W        W69252  11.702   9.733  14.839
  859W        W69253   6.213  23.163   3.996
  860W        W69254  40.912  34.922   4.061
  861W        W69255  12.586  17.873  12.397
  862W        W69256  41.761   1.045  12.593
  863W        W69257  40.817  23.515  13.837
  864W        W69258  18.720  16.524  11.029
  865W        W69259  38.922  35.918  12.826
  866W        W69260  26.430  34.555  12.068
  867W        W69261  25.375  39.997  11.173
  868W        W69262  22.824  41.042   2.614
  869W        W69263  42.363  36.384   4.162
  870W        W69264   5.720  41.933  10.692
  871W        W69265  32.993  16.366   4.602
  872W        W69266  28.719   4.232  12.653
  873W        W69267  22.502   7.161  12.953
  874W        W69268  17.968   2.918   3.588
  875W        W69269  24.439  20.443   2.860
  876W        W69270  24.445  22.266   3.121
  877W        W69271  13.245   7.947   4.154
  878W        W69272  35.410  36.135   0.925
  879W        W69273  27.532   8.894  12.934
  880W        W69274  39.299   7.219   2.820
  881W        W69275  11.314   4.061  11.176
  882W        W69276  34.609  22.172   4.299
  883W        W69277  40.930  41.487   2.834
  884W        W69278  37.056  28.245   3.176
  885W        W69279  16.028  34.403   0.065
  886W        W69280   1.766  22.070  13.444
  887W        W69281  27.045  13.363  14.053
  888W        W69282  41.661   3.783  11.116
  889W        W69283  30.501  31.147   0.914
  890W        W69284  37.468  25.075   4.854
  891W        W69285  24.635   3.509   3.713
  892W        W69286  24.971   1.958   3.153
  893W        W69287  34.151   2.365   3.879
  894W        W69288  37.948  21.035  11.929
  895W        W69289  24.418  38.365   3.924
  896W        W69290  30.616  39.303   4.682
  897W        W69291  18.679  10.378   0.297
  898W        W69292  35.502  33.620  10.734
  899W        W69293  18.740   8.234  12.085
  900W        W69294  18.227  21.038  10.436
  901W        W69295   6.275  27.621  12.138
  902W        W69296  32.027  30.849  13.537
  903W        W69297  31.731   6.970   2.886
  904W        W69298  44.956  30.982  12.580
  905W        W69299   1.825   7.695   3.505
  906W        W69300  37.949  43.925   1.274
  907W        W69301  40.924  41.403  11.212
  908W        W69302   9.101  30.631  14.408
  909W        W69303  27.245  42.171   5.320
  910W        W69304  26.763  18.207   3.258
  911W        W69305  36.821  41.879   2.072
  912W        W69306  13.598  43.554  14.066
  913W        W69307   6.216  41.136   2.269
  914W        W69308  22.603  15.350   1.654
  915W        W69309  39.906  40.411   0.383
  916W        W69310  17.523  41.232   4.906
  917W        W69311  13.703  32.227   0.663
  918W        W69312  36.541  18.451   3.315
  919W        W69313   6.915  44.489   1.962
  920W        W69314   6.478  40.434   4.081
  921W        W69315  41.819  12.304   1.356
  922W        W69316  36.817  10.993  14.020
  923W        W69317  13.535  31.669  11.162
  924W        W69318  40.330   6.605   4.560
  925W        W69319  36.602  36.040  13.581
  926W        W69320  22.583  31.442  10.249
  927W        W69321  33.916  22.169   3.787
  928W        W69322   5.688  31.512  12.085
  929W        W69323   2.946  32.216  13.013
  930W        W69324   0.371  14.742  12.492
  931W        W69325  13.145  42.080  13.311
  932W        W69326  23.775   6.647   1.722
  933W        W69327   4.668  39.945  12.612
  934W        W69328  29.448  10.871   3.703
  935W        W69329  23.614   4.171  12.896
  936W        W69330   7.441  44.569   3.215
  937W        W69331  42.144   5.800  12.525
  938W        W69332  39.800   3.749   4.082
  939W        W69333  20.941  24.607  14.381
  940W        W69334  32.789  26.298   1.298
  941W        W69335  23.201   6.197   4.122
  942W        W69336  22.958  23.669  11.574
  943W        W69337   1.343  24.954   3.752
  944W        W69338   7.702  37.392  12.391
  945W        W69339  34.520  34.246   1.263
  946W        W69340  44.714  36.172   2.221
  947W        W69341   1.814  20.652  10.724
  948W        W69342  25.296  29.405   4.853
  949W        W69343  25.709   1.409   1.983
  950W        W69344  34.613  37.992   0.806
  951W        W69345  35.251  43.407  12.432
  952W        W69346  26.419  32.505  11.614
  953W        W69347  33.996  23.634   3.269
  954W        W69348   4.458  14.920  12.994
  955W        W69349  31.129  22.299  11.597
  956W        W69350  24.407  16.192   2.345
  957W        W69351  21.214  11.685   3.061
  958W        W69352  12.191  19.537  14.926
  959W        W69353  20.752   5.652  12.476
  960W        W69354   2.865  11.096   3.590
  961W        W69355  22.365  22.054  14.446
  962W        W69356  19.699  10.925  10.695
  963W        W69357  19.003  17.880   1.412
  964W        W69358  45.000   0.754   3.374
  965W        W69359   0.724  30.354   0.136
  966W        W69360   1.010  18.712   2.790
  967W        W69361  38.531  18.248  13.894
  968W        W69362  14.814  12.178   3.584
  969W        W69363  36.296  24.545  12.091
  970W        W69364  21.801  27.202   3.822
  971W        W69365  40.891   0.374   4.330
  972W        W69366   1.500   6.238   2.382
  973W        W69367  37.581  36.635  13.890
  974W        W69368  25.862  30.605   4.597
  975W        W69369  36.650  28.983  11.439
  976W        W69370  30.268  22.723   1.871
  977W        W69371  23.382  31.099  12.541
  978W        W69372  14.134  12.826   3.099
  979W        W69373   9.887  28.953   4.592
  980W        W69374  26.161  10.815   3.671
  981W        W69375  11.179  15.547   2.132
  982W        W69376  33.593  14.773  11.414
  983W        W69377  42.511   7.499   1.765
  984W        W69378  36.847  43.598  14.468
  985W        W69379   5.225  28.660   1.460
  986W        W69380  31.352   6.130  14.907
  987W        W69381  22.158   4.190   2.729
  988W        W69382  19.778  24.664  12.318
  989W        W69383  14.754  32.431   2.820
  990W        W69384  19.336  37.529  11.564
  991W        W69385  34.445  15.869   0.041
  992W        W69386  40.270   4.432   3.744
  993W        W69387  43.016  38.109   0.908
  994W        W69388  34.899  28.304  13.883
  995W        W69389   9.141  14.218   4.833
  996W        W69390  37.474   1.688   3.727
  997W        W69391  14.333  38.577   1.847
  998W        W69392   6.485   1.427   1.025
  999W        W69393  41.368  32.103   0.416
 1000W        W69394   5.286  35.002   5.008
 1001W        W69395  24.955  12.886  12.483
 1002W        W69396  26.592  33.930   4.066
 1003W        W69397  29.338  26.067   4.894
 1004W        W69398   9.193  13.751   2.882
 1005W        W69399  30.476   7.873   0.230
 1006W        W69400  12.292  42.436   2.835
 1007W        W69401  12.785  17.781  13.273
 1008W        W69402  16.735  27.211  11.122
 1009W        W69403   5.411  17.854  11.589
 1010W        W69404  26.746  21.357  10.684
 1011W        W69405  33.943  19.101   0.921
 1012W        W69406   0.471  20.584  14.406
 1013W        W69407  23.044  31.019   4.169
 1014W        W69408  18.728  33.661  10.682
 1015W        W69409   9.952  15.897  11.762
 1016W        W69410   2.808  11.774  12.966
 1017W        W69411  22.016  23.568   1.446
 1018W        W69412  23.964  18.098   0.379
 1019W        W69413  42.876  44.240  11.049
 1020W        W69414   5.790  43.018   3.638
 1021W        W69415  20.279  14.648   2.597
 1022W        W69416  17.328  34.022   2.358
 1023W        W69417  15.769  31.159   4.783
 1024W        W69418   3.231  37.279  11.112
 1025W        W69419  42.711  35.416   2.800
 1026W        W69420  18.583  22.716  10.241
 1027W        W69421  17.978  40.627  10.358
 1028W        W69422  24.220  14.183   2.756
 1029W        W69423  30.492  24.626  13.468
 1030W        W69424  14.288   5.945  12.937
 1031W        W69425  44.599   5.951  14.131
 1032W        W69426   9.151  37.400   0.464
 1033W        W69427  14.722   4.662  12.896
 1034W        W69428  34.604   9.741  13.487
 1035W        W69429  25.029  34.370  13.288
 1036W        W69430   1.783   9.144   1.928
 1037W        W69431  13.687  27.701   2.432
 1038W        W69432  15.179  36.052  14.590
 1039W        W69433   6.898  35.846  12.686
 1040W        W69434   6.665  12.167   1.424
 1041W        W69435   3.226  10.967  14.839
 1042W        W69436   6.243  11.826   0.755
 1043W        W69437  17.193  34.671   3.672
 1044W        W69438   7.305  29.996   0.908
 1045W        W69439  38.559  41.429   4.686
 1046W        W69440  41.748   7.608  11.029
 1047W        W69441   3.427  29.904   0.337
 1048W        W69442   0.759  24.575   1.705
 1049W        W69443  25.219  30.916  10.733
 1050W        W69444  41.571  31.066  11.218
 1051W        W69445  12.382  39.035  11.115
 1052W        W69446  36.310  15.384  14.767
 1053W        W69447  19.658  32.562  12.607
 1054W        W69448  12.663  23.762  10.629
 1055W        W69449   1.258   8.348   1.382
 1056W        W69450  10.591  32.833   2.834
 1057W        W69451   9.702   9.318   0.066
 1058W        W69452  20.323   4.798  10.484
 1059W        W69453  28.543   4.306   0.682
 1060W        W69454  17.114   7.782   2.639
 1061W        W69455  41.823  20.294  12.069
 1062W        W69456  22.224  23.059  11.047
 1063W        W69457  18.562  35.248   4.213
 1064W        W69458  18.257  42.007  14.064
 1065W        W69459   6.654  10.624  13.481
 1066W        W69460  20.511  31.527   0.341
 1067W        W69461  23.465  34.510   0.945
 1068W        W69462  13.684  20.752  13.949
 1069W        W69463  36.030   4.782  13.067
 1070W        W69464  13.124   7.323  12.386
 1071W        W69465  34.929  34.577   3.351
 1072W        W69466  31.726  13.621   3.614
 1073W        W69467  30.015  16.375  10.707
 1074W        W69468  13.432  41.532  14.377
 1075W        W69469   2.446   5.524   1.679
 1076W        W69470  23.656  19.168   2.169
 1077W        W69471  43.994  20.023   2.696
 1078W        W69472  18.937  19.608   0.496
 1079W        W69473  42.048  43.339   1.347
 1080W        W69474  11.449  12.381   2.718
 1081W        W69475  40.593  13.669   0.385
 1082W        W69476   6.333   1.820  13.311
 1083W        W69477  42.905  39.573  11.957
 1084W        W69478  20.983  34.011  12.036
 1085W        W69479   6.482  11.165   1.694
 1086W        W69480  17.731  33.528  14.467
 1087W        W69481   2.389  10.187  14.910
 1088W        W69482   5.207  17.740  11.109
 1089W        W69483  21.648  44.036   2.885
 1090W        W69484  21.455  20.740   0.739
 1091W        W69485  10.625   6.231   1.785
 1092W        W69486  26.993  36.637   2.360
 1093W        W69487  25.161  32.414  10.896
 1094W        W69488  42.857   6.809  11.424
 1095W        W69489  43.935   8.846  14.528
 1096W        W69490  14.368   8.671   2.823
 1097W        W69491  20.641   1.904  11.071
 1098W        W69492   7.455  28.550   2.932
 1099W        W69493  10.432  41.279   4.183
 1100W        W69494  30.446  28.078  14.231
 1101W        W69495   7.113  38.696   3.678
 1102W        W69496   2.042  31.936   3.548
 1103W        W69497  20.687  11.100  13.963
 1104W        W69498  22.665  22.693   1.871
 1105W        W69499  28.484  18.726   2.269
 1106W        W69500  36.439  34.073  10.639
 1107W        W69501  16.367  32.669  14.372
 1108W        W69502  42.313  32.326   3.645
 1109W        W69503   4.372  29.386   0.352
 1110W        W69504  30.648  38.095  12.997
 1111W        W69505  16.923  12.432   0.226
 1112W        W69506  33.625  12.007   0.243
 1113W        W69507  14.236  17.348  14.378
 1114W        W69508  20.627  28.434   3.257
 1115W        W69509  16.464   3.915  11.140
 1116W        W69510  38.011   0.755   2.924
 1117W        W69511  24.669  31.423  11.604
 1118W        W69512   0.955  30.889   3.218
 1119W        W69513  19.164  43.525   2.748
 1120W        W69514   8.199  32.650  11.115
 1121W        W69515   9.898  38.967   4.887
 1122W        W69516   4.268  11.876  13.818
 1123W        W69517   9.340  36.456   2.332
 1124W        W69518  25.198  27.695  12.565
 1125W        W69519   9.828  30.140  11.696
 1126W        W69520  37.304  22.584  10.828
 1127W        W69521  39.315  37.448  14.805
 1128W        W69522  16.263  32.675  10.697
 1129W        W69523  14.230  42.248   2.228
 1130W        W69524  21.555  39.956  14.736
 1131W        W69525  34.023  40.453  11.152
 1132W        W69526   9.063  27.518  12.372
 1133W        W69527  40.052  39.479  12.775
 1134W        W69528  22.688   5.366   0.051
 1135W        W69529   6.405  22.103  11.092
 1136W        W69530  39.033  44.694   3.766
 1137W        W69531  23.035  32.993  10.993
 1138W        W69532  18.993  43.958  10.386
 1139W        W69533  28.444  14.831  11.782
 1140W        W69534  30.081  25.588   0.887
 1141W        W69535  25.707   9.329   0.233
 1142W        W69536  29.177  14.232  13.563
 1143W        W69537   1.462  39.868   3.947
 1144W        W69538   3.764  16.718   4.165
 1145W        W69539  42.484  12.484   0.946
 1146W        W69540  38.926  21.037  13.582
 1147W        W69541   6.880  41.533  11.921
 1148W        W69542   4.194  32.098   4.451
 1149W        W69543  19.632   9.333   0.252
 1150W        W69544  13.983  28.508   4.152
 1151W        W69545  42.889   1.911  14.939
 1152W        W69546   4.840  33.638  12.478
 1153W        W69547  40.220  37.931   4.723
 1154W        W69548   8.700  19.382  12.318
 1155W        W69549  44.763   1.454   4.650
 1156W        W69550  31.823   5.798   1.040
 1157W        W69551  16.989  31.145  12.440
 1158W        W69552  41.495   0.955  13.352
 1159W        W69553  40.504  35.409  11.857
 1160W        W69554  17.241   4.889  13.396
 1161W        W69555  29.450  25.024  12.883
 1162W        W69556  20.765  41.480  12.553
 1163W        W69557  44.663  14.602  13.789
 1164W        W69558  13.573  18.604   0.537
 1165W        W69559  22.549  28.053  10.403
 1166W        W69560  24.528  28.021   1.967
 1167W        W69561  24.024  22.327   0.260
 1168W        W69562  19.517  13.023  14.317
 1169W        W69563  33.136  39.891   1.383
 1170W        W69564  39.847  41.801   0.815
 1171W        W69565  44.832  36.360   4.653
 1172W        W69566  43.741  17.904   4.938
 1173W        W69567  36.712  16.602   3.689
 1174W        W69568   2.054   5.921  13.987
 1175W        W69569   2.658  11.853  12.474
 1176W        W69570  44.768  25.222   1.691
 1177W        W69571  32.006   4.967   1.138
 1178W        W69572  24.032  32.046   4.503
 1179W        W69573  29.964  19.522   4.061
 1180W        W69574  16.825  39.248   1.387
 1181W        W69575  17.578  11.195   4.225
 1182W        W69576  22.511  19.506  11.479
 1183W        W69577  25.495  10.789  13.303
 1184W        W69578  24.069   6.220  13.262
 1185W        W69579  40.142   5.314  12.839
 1186W        W69580  38.395  39.229   2.201
 1187W        W69581  28.517  17.380  11.075
 1188W        W69582   8.538  36.907   4.497
 1189W        W69583  11.781   3.238  11.955
 1190W        W69584   2.822  19.543   0.483
 1191W        W69585  20.795  39.317   4.102
 1192W        W69586  16.268  32.437  14.820
 1193W        W69587  17.287  40.669   4.087
 1194W        W69588  29.497  12.269  10.848
 1195W        W69589  44.203  32.376   2.372
 1196W        W69590  41.722  43.558   2.824
 1197W        W69591  32.899   0.525   1.420
 1198W        W69592   6.477  12.650   4.481
 1199W        W69593  21.067  15.433  12.471
 1200W        W69594   2.398  20.031   0.983
 1201W        W69595   2.703  29.993  12.494
 1202W        W69596  11.381  14.249  14.500
 1203W        W69597  10.243  43.632   5.193
 1204W        W69598   1.626  11.721   0.265
 1205W        W69599  17.213  15.555   4.678
 1206W        W69600  12.371  19.130   2.443
 1207W        W69601  23.372  35.570  11.066
 1208W        W69602  14.411  27.243  11.006
 1209W        W69603  20.272  41.501   4.149
 1210W        W69604  23.450  19.733  11.690
 1211W        W69605   3.515   3.843  11.600
 1212W        W69606  41.086  25.424   1.374
 1213W        W69607  13.561  16.720   0.209
 1214W        W69608   4.567  20.092  14.259
 1215W        W69609   4.604  29.351   5.031
 1216W        W69610  19.740  40.325  12.371
 1217W        W69611  41.050  12.740  14.554
 1218W        W69612  32.363  16.026  12.509
 1219W        W69613  33.998  35.682   2.176
 1220W        W69614   9.017  12.576   0.478
 1221W        W69615  25.361   8.617   4.167
 1222W        W69616   6.256  42.542  14.743
 1223W        W69617  37.788  16.805  12.876
 1224W        W69618  30.388  13.595   4.070
 1225W        W69619  33.503  23.763   0.453
 1226W        W69620  20.071  15.298  11.072
 1227W        W69621  37.853  40.235   4.102
 1228W        W69622  26.061  32.896  11.738
 1229W        W69623  37.961   6.163  12.921
 1230W        W69624  40.084   5.780  11.886
 1231W        W69625  20.989   1.973  10.281
 1232W        W69626   4.108  14.038  11.632
 1233W        W69627  15.016  39.785   1.423
 1234W        W69628   8.145   7.822  12.201
 1235W        W69629  21.706  33.534  11.514
 1236W        W69630   8.898  27.198  10.899
 1237W        W69631  12.356  11.645  13.017
 1238W        W69632  31.200  44.264  10.299
 1239W        W69633  22.763  32.390   4.179
 1240W        W69634  42.405  35.099  11.182
 1241W        W69635   8.961  44.683   5.037
 1242W        W69636  30.218  14.553   4.246
 1243W        W69637  23.002  37.382   3.779
 1244W        W69638   9.514  13.548  13.361
 1245W        W69639  39.835   2.441   3.811
 1246W        W69640  38.481   8.318   0.454
 1247W        W69641  33.481  30.794   3.353
 1248W        W69642  44.820  11.241  12.940
 1249W        W69643  35.477  11.622   0.833
 1250W        W69644   5.294   1.218  14.849
 1251W        W69645  18.096  40.519  13.924
 1252W        W69646  32.503  10.349  12.322
 1253W        W69647  44.954  43.045   1.860
 1254W        W69648  44.769  12.229  12.987
 1255W        W69649   5.674  42.724   4.565
 1256W        W69650   8.352  17.770   1.369
 1257W        W69651  39.094  24.111   4.305
 1258W        W69652  41.599   4.316  14.045
 1259W        W69653  18.812   0.780   2.805
 1260W        W69654  32.580  43.237   0.370
 1261W        W69655  29.842  23.280  13.353
 1262W        W69656  21.443   1.806   1.825
 1263W        W69657   5.875  11.568  10.535
 1264W        W69658  30.651  36.438   2.870
 1265W        W69659   7.166  23.054  13.018
 1266W        W69660   6.965  12.885   2.822
 1267W        W69661  34.568  23.101   4.290
 1268W        W69662  16.641  20.614   0.132
 1269W        W69663  26.554  42.861  11.464
 1270W        W69664  13.115   7.479   2.170
 1271W        W69665   3.855  20.656  13.446
 1272W        W69666  21.189   2.143  13.835
 1273W        W69667  25.514  21.953  14.482
 1274W        W69668  21.828  26.608   9.607
 1275W        W69669  16.234   8.665   4.491
 1276W        W69670  31.946   7.130   4.595
 1277W        W69671   0.227  32.661   4.312
 1278W        W69672  42.586  32.186   5.112
 1279W        W69673   3.210  26.414   2.772
 1280W        W69674  39.535  41.798  14.544
 1281W        W69675  27.630  25.562   4.080
 1282W        W69676  44.438  15.673   2.213
 1283W        W69677   5.231  19.983  11.481
 1284W        W69678  19.827  13.947  10.637
 1285W        W69679   9.820  35.508  12.471
 1286W        W69680   5.190  38.838  13.421
 1287W        W69681  42.054   2.785  13.421
 1288W        W69682   4.554  39.965   0.768
 1289W        W69683   3.386   9.761  12.217
 1290W        W69684  11.280  34.965   0.371
 1291W        W69685  37.157  41.804  12.168
 1292W        W69686  13.655   6.272   3.765
 1293W        W69687  13.442   1.884   4.501
 1294W        W69688  27.404  27.217  14.305
 1295W        W69689  25.572  37.530  14.622
 1296W        W69690   8.269  18.991  13.515
 1297W        W69691  26.572  43.438   0.327
 1298W        W69692  42.800  10.919   1.846
 1299W        W69693  20.684  23.428   1.689
 1300W        W69694  40.352  20.515  14.457
 1301W        W69695  20.248   6.736  11.630
 1302W        W69696   0.811  17.493  14.449
 1303W        W69697   3.639  19.242  10.747
 1304W        W69698  42.676  28.541  13.330
 1305W        W69699  43.990  20.717   0.959
 1306W        W69700  12.251  32.066   0.283
 1307W        W69701  13.247  38.402  11.486
 1308W        W69702   0.593  40.293  13.631
 1309W        W69703  40.496  27.450  10.649
 1310W        W69704  27.398  24.666   2.003
 1311W        W69705  10.652  30.438   4.583
 1312W        W69706  10.656  39.438   3.662
 1313W        W69707  34.528   8.883   0.666
 1314W        W69708  22.508  29.591   3.844
 1315W        W69709  22.293  12.641  14.022
 1316W        W69710  43.278  25.354   5.029
 1317W        W69711  25.640  14.687  11.498
 1318W        W69712  26.977  32.873   0.290
 1319W        W69713  17.730  10.691   4.139
 1320W        W69714   3.912  28.523   3.296
 1321W        W69715  16.251   3.473  12.020
 1322W        W69716  15.767  39.108   3.765
 1323W        W69717   1.981  10.651   0.826
 1324W        W69718  39.043   2.802  14.784
 1325W        W69719  29.872  16.607   3.808
 1326W        W69720  25.788   9.864   1.748
 1327W        W69721  14.264  38.269  14.345
 1328W        W69722  15.542   1.397  10.473
 1329W        W69723  40.403   9.184  11.408
 1330W        W69724  37.229   1.166  11.978
 1331W        W69725  26.089  20.018  10.866
 1332W        W69726   5.116  26.025   4.473
 1333W        W69727  23.703  24.165   1.743
 1334W        W69728   9.384   4.455   1.933
 1335W        W69729  35.815  17.563  12.932
 1336W        W69730  31.317   2.843  11.975
 1337W        W69731  32.864  27.474  13.702
 1338W        W69732  40.999   2.645  11.745
 1339W        W69733   5.419   8.401  13.936
 1340W        W69734  26.210  11.636  12.522
 1341W        W69735  18.855  40.295   4.151
 1342W        W69736  44.650  31.419  14.851
 1343W        W69737  11.839   7.038   0.350
 1344W        W69738  31.566  41.717  12.994
 1345W        W69739  38.130  34.507   1.407
 1346W        W69740  43.760  24.208  13.414
 1347W        W69741  23.232  18.605  10.694
 1348W        W69742  39.755  22.664   1.958
 1349W        W69743  14.058  13.107   4.053
 1350W        W69744  17.556  23.502   3.153
 1351W        W69745  36.423  34.046   0.359
 1352W        W69746  24.826   2.452  11.635
 1353W        W69747  15.181  35.813  10.587
 1354W        W69748  39.077  40.307   3.577
 1355W        W69749  26.335  40.851   1.852
 1356W        W69750  11.866  23.578   0.685
 1357W        W69751  16.686  39.680  11.414
 1358W        W69752   9.795  10.198   2.866
 1359W        W69753  14.843  32.142   1.614
 1360W        W69754  21.428   9.273   1.261
 1361W        W69755  43.471  21.213  10.737
 1362W        W69756  33.572  13.361  13.127
 1363W        W69757  19.132   0.704  13.055
 1364W        W69758   2.257  32.562  12.191
 1365W        W69759  26.015   0.700   0.775
 1366W        W69760  41.021   5.897   3.929
 1367W        W69761  23.454  18.051  10.993
 1368W        W69762   1.294   8.773  13.802
 1369W        W69763  34.290   6.922   3.300
 1370W        W69764  19.697   8.673  11.179
 1371W        W69765   3.594   3.341  14.579
 1372W        W69766  19.191  31.215   2.842
 1373W        W69767  10.857  32.908  14.851
 1374W        W69768  18.092  11.034   4.269
 1375W        W69769  43.416  13.264  13.606
 1376W        W69770   6.758  33.487  14.345
 1377W        W69771   2.919  41.074   3.719
 1378W        W69772  13.525  22.458   2.745
 1379W        W69773  23.155   3.738  14.642
 1380W        W69774  37.852  38.892  12.045
 1381W        W69775   9.371  41.702  14.809
 1382W        W69776  24.920  33.069  14.965
 1383W        W69777  33.963  28.102   3.633
 1384W        W69778  34.346  21.615   1.730
 1385W        W69779  16.727  10.820   0.221
 1386W        W69780  13.684   3.793  11.302
 1387W        W69781  19.835  32.482  13.116
 1388W        W69782  33.156  18.670  11.097
 1389W        W69783  20.766  23.121   0.348
 1390W        W69784  42.238  35.908  10.651
 1391W        W69785   3.290  17.025   3.793
 1392W        W69786  14.334  21.779  14.681
 1393W        W69787   1.349   4.556   3.691
 1394W        W69788  27.155  30.497  11.824
 1395W        W69789  17.598   1.256  12.423
 1396W        W69790  39.450  35.542   3.755
 1397W        W69791   9.886   9.404  11.403
 1398W        W69792   9.212   8.348  10.505
 1399W        W69793  35.165  33.906   1.881
 1400W        W69794  34.480  39.810   3.686
 1401W        W69795  21.689  15.853  13.890
 1402W        W69796  22.639   8.952  14.769
 1403W        W69797  31.586  19.077   2.933
 1404W        W69798  24.693  40.090  12.508
 1405W        W69799  25.469  35.916  13.338
 1406W        W69800  13.103  37.892  13.716
 1407W        W69801  28.824  43.177   0.763
 1408W        W69802  14.050  26.442  13.765
 1409W        W69803  35.829  42.248   3.743
 1410W        W69804   6.411  23.870   1.818
 1411W        W69805  38.531  24.415   3.731
 1412W        W69806   3.420  36.605   3.151
 1413W        W69807   5.444  41.827  11.167
 1414W        W69808   1.454  38.352   4.853
 1415W        W69809  26.604   7.373   1.714
 1416W        W69810  16.895  28.075   1.446
 1417W        W69811  19.645  36.374   1.540
 1418W        W69812  42.967  14.469   5.038
 1419W        W69813  31.467  43.815   1.914
 1420W        W69814   4.294   3.855   2.840
 1421W        W69815  10.313  25.753   4.628
 1422W        W69816  12.181  44.383  13.438
 1423W        W69817  34.660  40.241  13.052
 1424W        W69818  10.911   4.755  12.986
 1425W        W69819  23.765  11.257  12.059
 1426W        W69820  34.180  34.911  14.505
 1427W        W69821  18.621  44.799  14.044
 1428W        W69822  41.558  41.262  10.481
 1429W        W69823  23.062  20.215  12.747
 1430W        W69824  31.515   4.108  14.770
 1431W        W69825  29.467   8.882   0.122
 1432W        W69826  30.329  41.313   1.603
 1433W        W69827  27.912  39.647   3.792
 1434W        W69828  17.303  14.072   3.792
 1435W        W69829   3.013  34.584   0.388
 1436W        W69830  38.423   2.319  14.097
 1437W        W69831   1.655  44.397  12.495
 1438W        W69832  17.361  19.634   0.735
 1439W        W69833  19.521  23.654   1.260
 1440W        W69834   5.468  36.010   4.003
 1441W        W69835  14.586   9.918   0.936
 1442W        W69836  39.072  43.774   2.778
 1443W        W69837   1.509  11.637  11.141
 1444W        W69838  44.054  37.870  12.006
 1445W        W69839   3.879  25.550   4.523
 1446W        W69840  39.480  26.611  13.115
 1447W        W69841  28.631  30.876   4.735
 1448W        W69842  42.493  25.180  13.883
 1449W        W69843  24.451  37.575   4.202
 1450W        W69844  27.497  40.494   3.611
 1451W        W69845  13.463  32.044   1.131
 1452W        W69846  10.497  12.358   1.469
 1453W        W69847  38.129  20.290  14.778
 1454W        W69848  38.742  16.542  13.820
 1455W        W69849  35.039  31.623   0.483
 1456W        W69850  17.214  10.833   4.122
 1457W        W69851  16.857  15.152  13.492
 1458W        W69852  26.171  26.219  12.339
 1459W        W69853  14.335  10.362   1.352
 1460W        W69854  15.898  24.457   3.305
 1461W        W69855  40.478  23.953   3.112
 1462W        W69856  22.775   9.774   1.355
 1463W        W69857   5.916  10.396   0.744
 1464W        W69858  12.123  14.205   4.458
 1465W        W69859   8.842   4.533  12.567
 1466W        W69860  29.608  32.323   1.277
 1467W        W69861  42.442  34.507  12.393
 1468W        W69862  36.887   1.821   0.884
 1469W        W69863  39.665   6.821   4.079
 1470W        W69864  32.087  40.747   0.500
 1471W        W69865  11.085  43.329  12.684
 1472W        W69866  10.066  23.979   3.236
 1473W        W69867  20.387  34.914  14.767
 1474W        W69868   3.027  20.682   0.829
 1475W        W69869   2.198  37.558  12.583
 1476W        W69870   4.046  27.405   1.479
 1477W        W69871  31.436  18.100   4.583
 1478W        W69872  27.689  13.878  12.479
 1479W        W69873  27.663  15.933  14.482
 1480W        W69874  20.491   4.766   3.804
 1481W        W69875  24.605  31.751  14.577
 1482W        W69876  28.607  40.716   0.633
 1483W        W69877  20.308  25.585   4.424
 1484W        W69878  12.611  34.609  14.308
 1485W        W69879  21.301  21.101  10.726
 1486W        W69880  12.085  42.350  12.849
 1487W        W69881  29.425  11.721   4.564
 1488W        W69882  31.212   9.898  13.380
 1489W        W69883  23.303  19.558   0.856
 1490W        W69884   8.999   2.440   1.917
 1491W        W69885  18.378  35.919   0.183
 1492W        W69886  39.188  12.726  11.682
 1493W        W69887  44.698  44.868   3.826
 1494W        W69888  20.103  37.625   3.219
 1495W        W69889   6.145   7.425  14.481
 1496W        W69890  17.234  43.864   1.684
 1497W        W69891  17.569  36.457  11.667
 1498W        W69892   6.475  12.564   2.816
 1499W        W69893   2.149  14.391   4.257
 1500W        W69894  34.999  16.913   0.723
 1501W        W69895  43.066   2.776  14.374
 1502W        W69896  19.121  43.388  11.670
 1503W        W69897  16.830  25.502  14.515
 1504W        W69898  32.001   0.346  11.590
 1505W        W69899  15.884  13.383  13.074
 1506W        W69900  16.124   8.341   1.320
 1507W        W69901   0.009   6.969   4.160
 1508W        W69902  32.214  17.461  11.042
 1509W        W69903  32.928  42.105   2.698
 1510W        W69904  33.588  35.645  12.437
 1511W        W69905  11.111   7.515  10.759
 1512W        W69906  36.125  16.369   2.355
 1513W        W69907  18.572  34.948  11.189
 1514W        W69908   7.945   8.671  12.876
 1515W        W69909  43.462  44.896   0.160
 1516W        W69910  15.265  40.518   0.746
 1517W        W69911  41.849  35.612   2.247
 1518W        W69912   3.264  15.170   0.425
 1519W        W69913  18.240  18.555   3.985
 1520W        W69914   8.464  25.060   0.353
 1521W        W69915  23.701  26.914  12.920
 1522W        W69916  33.419  33.619   4.156
 1523W        W69917  36.509  35.037  14.521
 1524W        W69918   1.307  22.687   2.170
 1525W        W69919  42.465  36.975   3.270
 1526W        W69920  16.501  40.351  14.962
 1527W        W69921   1.785  28.801  10.629
 1528W        W69922  23.931  33.084   3.803
 1529W        W69923  17.541   9.718  13.053
 1530W        W69924  41.743  31.598  14.910
 1531W        W69925  35.895   9.353   2.404
 1532W        W69926  44.746  14.124   3.471
 1533W        W69927   2.460   1.148   0.632
 1534W        W69928  18.577   6.289   1.389
 1535W        W69929  26.544  40.325  11.156
 1536W        W69930  39.965  42.500  14.516
 1537W        W69931  37.298  26.888   3.183
 1538W        W69932  40.429   6.517  12.223
 1539W        W69933  35.429  33.408  13.831
 1540W        W69934  31.884  13.057  14.900
 1541W        W69935  36.105  38.447   0.609
 1542W        W69936  15.455  21.362   2.666
 1543W        W69937  10.426  29.027   0.757
 1544W        W69938  21.567   5.688  13.784
 1545W        W69939  24.018  18.330   2.321
 1546W        W69940  13.210  30.102   3.164
 1547W        W69941  27.016   5.509   0.826
 1548W        W69942   2.766  20.002  14.253
 1549W        W69943   5.479  24.084   1.771
 1550W        W69944  29.633  20.740   2.183
 1551W        W69945  10.722  21.029  11.369
 1552W        W69946  29.119   2.528  14.889
 1553W        W69947  15.970  44.773   3.650
 1554W        W69948  18.180  38.393   2.224
 1555W        W69949   0.647  36.796  13.732
 1556W        W69950  30.977  43.021   1.906
 1557W        W69951   3.205   5.586   5.136
 1558W        W69952  39.308  36.525   4.122
 1559W        W69953  14.858  15.744   3.167
 1560W        W69954  34.487  28.197   3.823
 1561W        W69955  23.121  41.318  11.233
 1562W        W69956   8.885  17.721   0.124
 1563W        W69957  41.590  38.445   4.721
 1564W        W69958  43.935  10.561   3.723
 1565W        W69959  26.454  27.587   2.290
 1566W        W69960   7.797  13.113   2.766
 1567W        W69961  23.433   9.863   5.003
 1568W        W69962  31.969  11.863   4.560
 1569W        W69963  44.519  28.354   4.741
 1570W        W69964  23.000  28.044  11.644
 1571W        W69965  16.599  20.496   9.964
 1572W        W69966  39.860   2.751  10.581
 1573W        W69967  36.083  28.576   2.397
 1574W        W69968   5.755  30.690   2.808
 1575W        W69969  39.040   3.354  12.643
 1576W        W69970  25.103  12.541  13.319
 1577W        W69971  34.820  17.662  11.413
 1578W        W69972  43.811  36.573   3.685
 1579W        W69973  21.151   6.988   3.654
 1580W        W69974  44.712   2.835  13.525
 1581W        W69975   8.167  16.071   2.214
 1582W        W69976   2.634   1.100   1.136
 1583W        W69977  37.783  20.003  12.971
 1584W        W69978   7.292  15.018   3.782
 1585W        W69979  38.044   2.034   1.465
 1586W        W69980  25.761  16.804  11.981
 1587W        W69981  33.957  18.790   4.140
 1588W        W69982  16.096  31.977   2.737
 1589W        W69983  30.468  33.138  12.503
 1590W        W69984  17.062  16.130  11.060
 1591W        W69985  14.972  11.566  14.453
 1592W        W69986  33.385  31.845  12.434
 1593W        W69987   1.242  19.209  12.550
 1594W        W69988  32.776  25.224   2.636
 1595W        W69989  19.804   6.830   2.229
 1596W        W69990   7.204  13.584   1.160
 1597W        W69991  35.040  12.387  14.068
 1598W        W69992  21.715  44.352  14.707
 1599W        W69993  28.606  24.116   2.146
 1600W        W69994  13.674  13.811   0.271
 1601W        W69995   1.006  15.249  11.054
 1602W        W69996  38.463   0.939   0.843
 1603W        W69997  41.042   0.450   0.045
 1604W        W69998  26.007  40.836   3.645
 1605W        W69999  26.194  41.585   0.830
 1606W        W70000  19.268  30.460  12.859
 1607W        W70001   3.677  26.097  12.447
 1608W        W70002   4.893  18.550   2.799
 1609W        W70003  24.465  18.681   3.240
 1610W        W70004  31.909  38.222  13.372
 1611W        W70005  25.282  13.978   4.267
 1612W        W70006   1.271  18.259  13.405
 1613W        W70007  40.703  30.047  14.197
 1614W        W70008   1.237  42.799   1.250
 1615W        W70009  33.894  44.620  12.476
 1616W        W70010  10.527  40.023  12.593
 1617W        W70011  25.200  39.240   3.095
 1618W        W70012  16.774  19.337   3.666
 1619W        W70013  13.651  25.939  11.095
 1620W        W70014  29.042  21.750   1.272
 1621W        W70015  42.545  17.669  12.616
 1622W        W70016   5.556   6.649   0.612
 1623W        W70017   0.296   2.163   1.213
 1624W        W70018  24.266  26.488   4.202
 1625W        W70019  10.696  25.799   4.999
 1626W        W70020  30.924  11.178   2.752
 1627W        W70021  12.663  21.231  10.714
 1628W        W70022   6.059  16.236   0.190
 1629W        W70023  40.833  25.512   2.357
 1630W        W70024  43.972  13.556  13.205
 1631W        W70025   6.449  34.136   3.736
 1632W        W70026   7.976  27.637  14.534
 1633W        W70027  38.031  44.717   4.179
 1634W        W70028  17.109  11.796   3.189
 1635W        W70029  41.772  25.430   0.926
 1636W        W70030  39.251  35.052  11.095
 1637W        W70031  28.042  30.446  13.654
 1638W        W70032   9.266  35.821  11.127
 1639W        W70033   3.382   9.082   1.155
 1640W        W70034  42.362   4.369   3.514
 1641W        W70035  33.639  17.965  14.830
 1642W        W70036  27.595  37.287   1.773
 1643W        W70037  23.268  17.882   4.606
 1644W        W70038  12.240   6.177  12.651
 1645W        W70039  12.924  42.385   4.858
 1646W        W70040  19.930   7.924   1.203
 1647W        W70041  13.672  26.163   2.847
 1648W        W70042  35.820   8.902   4.328
 1649W        W70043  10.133  14.333  13.042
 1650W        W70044  16.772   4.717  12.489
 1651W        W70045  16.502  12.177   1.684
 1652W        W70046   7.100  19.814   4.185
 1653W        W70047   0.793  30.848  10.170
 1654W        W70048   7.691  29.431   1.759
 1655W        W70049   8.700  38.600   3.293
 1656W        W70050  25.075  13.112   2.859
 1657W        W70051  24.707  31.634   1.747
 1658W        W70052  26.692  18.600   1.818
 1659W        W70053  26.459  21.601   4.598
 1660W        W70054  29.713  33.506  14.867
 1661W        W70055  33.622  33.148   4.133
 1662W        W70056  18.962   8.168   0.046
 1663W        W70057  28.462  18.629   1.252
 1664W        W70058  34.979  32.426  10.809
 1665W        W70059  36.513  43.895  14.751
 1666W        W70060  18.257  38.223  13.322
 1667W        W70061  24.444  44.317  10.601
 1668W        W70062  41.939   4.724   4.154
 1669W        W70063  25.997  37.351  13.791
 1670W        W70064   8.925  14.860  11.596
 1671W        W70065  12.113   8.131   2.208
 1672W        W70066  31.639  14.361   3.149
 1673W        W70067   9.713   5.282  10.668
 1674W        W70068  15.197  18.200   2.163
 1675W        W70069  32.380   4.279  12.295
 1676W        W70070  39.536  39.803   1.260
 1677W        W70071   2.304  43.650  10.763
 1678W        W70072   2.164  25.884  12.850
 1679W        W70073  38.341  37.025   1.463
 1680W        W70074   9.676  30.785  14.992
 1681W        W70075   7.284  40.517   1.818
 1682W        W70076  18.721  41.734  12.850
 1683W        W70077  40.589  42.344  13.313
 1684W        W70078  33.660  37.994   1.245
 1685W        W70079   2.372  40.324   2.418
 1686W        W70080  35.068  14.892   1.446
 1687W        W70081  30.043  43.692   3.021
 1688W        W70082  43.486   2.784  10.789
 1689W        W70083  37.958  11.863   2.737
 1690W        W70084  37.331  16.368   2.617
 1691W        W70085  34.093   1.051  14.918
 1692W        W70086  11.761  25.661   4.890
 1693W        W70087  32.502   2.443  13.034
 1694W        W70088  17.521  31.144  11.771
 1695W        W70089  42.929  24.551   1.681
 1696W        W70090  13.394   0.825   4.899
 1697W        W70091  35.566  32.799   2.409
 1698W        W70092  41.744   3.766   2.329
 1699W        W70093  30.261  21.630   3.113
 1700W        W70094  13.404  37.497  12.669
 1701W        W70095  41.627   5.285   4.307
 1702W        W70096  19.466  28.864   9.854
 1703W        W70097  19.016  39.825   2.418
 1704W        W70098   9.812  17.836   1.507
 1705W        W70099  43.977  17.168  10.645
 1706W        W70100  12.847  13.326   3.128
 1707W        W70101  25.869  36.533  12.147
 1708W        W70102  33.491   5.382   0.337
 1709W        W70103  13.009  10.042   5.177
 1710W        W70104  33.780   7.684  11.569
 1711W        W70105   0.013  26.025   4.134
 1712W        W70106  40.453  19.831  10.706
 1713W        W70107  33.904   5.219  12.131
 1714W        W70108  43.301   7.286   3.831
 1715W        W70109  18.205  39.044   0.820
 1716W        W70110  14.948  18.061   1.147
 1717W        W70111  34.073  15.570  11.007
 1718W        W70112  35.721  28.192   0.278
 1719W        W70113   3.555   3.272   0.421
 1720W        W70114  24.767  18.806   4.143
 1721W        W70115  40.614  23.540   1.415
 1722W        W70116  33.520  18.753   2.210
 1723W        W70117  13.792  43.566  14.990
 1724W        W70118   4.814   8.416  12.089
 1725W        W70119  27.945  28.584  12.286
 1726W        W70120  27.382  19.061  13.881
 1727W        W70121  15.193   6.000  12.913
 1728W        W70122  21.969  37.388   0.747
 1729W        W70123  28.442   0.057   4.505
 1730W        W70124  21.520  15.343  14.890
 1731W        W70125  15.345   8.156   4.076
 1732W        W70126  26.696  21.042   1.708
 1733W        W70127  23.784  33.977  11.964
 1734W        W70128  42.327  36.869   3.759
 1735W        W70129  15.091   5.095  13.809
 1736W        W70130  44.363  17.550  14.348
 1737W        W70131  42.476  27.061   3.301
 1738W        W70132  41.607  19.209  12.993
 1739W        W70133  20.486   6.711   3.257
 1740W        W70134  33.910  17.076   2.400
 1741W        W70135  41.041  27.475   2.487
 1742W        W70136   6.184  32.595   0.019
 1743W        W70137   2.655  14.869   5.575
 1744W        W70138  26.051   3.894   1.939
 1745W        W70139   8.348  44.251  11.594
 1746W        W70140   1.923  26.281  14.406
 1747W        W70141  16.207  15.204  11.714
 1748W        W70142   1.713  27.504   1.889
 1749W        W70143  16.503   5.813  14.912
 1750W        W70144  26.640  16.115   4.466
 1751W        W70145  41.022  44.436  14.524
 1752W        W70146  31.224  31.746   3.565
 1753W        W70147  33.557  13.778  14.068
 1754W        W70148  25.940   5.709  11.081
 1755W        W70149  39.380  37.708  12.775
 1756W        W70150  25.264  40.126   1.799
 1757W        W70151  15.387  40.000   2.829
 1758W        W70152   0.077  42.081   0.434
 1759W        W70153   7.349  24.700   3.516
 1760W        W70154  34.167  42.433  11.113
 1761W        W70155  23.643  29.072  12.081
 1762W        W70156  21.807  23.413   3.571
 1763W        W70157   4.490  32.103   1.169
 1764W        W70158  33.130   8.611   2.357
 1765W        W70159  24.705  28.938   0.727
 1766W        W70160  39.505  31.306  13.956
 1767W        W70161  25.944  19.227  11.959
 1768W        W70162  16.041  17.343  14.467
 1769W        W70163  18.945   4.824   2.203
 1770W        W70164  24.042  30.230  12.880
 1771W        W70165  19.995   8.695   3.322
 1772W        W70166  30.158   8.135   1.714
 1773W        W70167  11.155  27.599   3.365
 1774W        W70168  35.387  44.793  14.070
 1775W        W70169  38.959  27.136   4.006
 1776W        W70170  42.981  43.436   0.945
 1777W        W70171  29.483  39.333   4.237
 1778W        W70172   4.968  39.875  14.376
 1779W        W70173   8.340  43.500   4.360
 1780W        W70174  43.118   0.845   0.579
 1781W        W70175  20.961  30.259  12.572
 1782W        W70176  18.043   2.235   1.794
 1783W        W70177  22.592   3.636  13.337
 1784W        W70178   4.529   8.211   1.280
 1785W        W70179  36.663  12.042   1.143
 1786W        W70180  19.235  11.185  13.457
 1787W        W70181  40.120   3.011   2.741
 1788W        W70182  13.581  31.857   2.891
 1789W        W70183  20.782  38.184   0.407
 1790W        W70184  40.008   9.852   0.794
 1791W        W70185  34.244  22.132  11.741
 1792W        W70186  29.008  12.387  14.503
 1793W        W70187   4.223  35.130   2.215
 1794W        W70188  36.929  14.820  12.924
 1795W        W70189  11.136  11.137   1.549
 1796W        W70190  37.444  39.312   0.059
 1797W        W70191  17.334  22.659   2.344
 1798W        W70192   1.316  16.769   0.390
 1799W        W70193  29.387   9.631   0.738
 1800W        W70194  24.988   6.540   1.159
 1801W        W70195   9.369   5.630   0.427
 1802W        W70196  10.028  44.933   1.757
 1803W        W70197  14.710   3.377  10.577
 1804W        W70198   9.903  32.499   4.726
 1805W        W70199   2.512  35.475   1.293
 1806W        W70200  37.871   7.634  11.565
 1807W        W70201   9.774   7.904  11.477
 1808W        W70202  36.423  22.094   0.318
 1809W        W70203  35.001  31.913   2.340
 1810W        W70204  19.449  41.873   2.225
 1811W        W70205   5.413  41.022  11.626
 1812W        W70206  37.728  40.265  11.235
 1813W        W70207  30.020  44.449   4.094
 1814W        W70208  24.001   8.683  10.623
 1815W        W70209  41.992  32.067   4.608
 1816W        W70210  24.179  28.549  11.646
 1817W        W70211   9.913  24.693  13.921
 1818W        W70212  42.581  40.399   4.572
 1819W        W70213  40.650  29.021  11.500
 1820W        W70214  24.632  32.027  12.951
 1821W        W70215  13.467   4.206   3.548
 1822W        W70216  44.435  13.462  12.473
 1823W        W70217   6.133  33.603   2.153
 1824W        W70218  28.518  29.948  12.510
 1825W        W70219   2.807  43.086  12.106
 1826W        W70220  44.893  37.559   3.168
 1827W        W70221  35.998  24.954  11.187
 1828W        W70222  15.035  17.013   0.354
 1829W        W70223  16.112   7.754   0.644
 1830W        W70224   4.159   9.384   0.860
 1831W        W70225  29.856  31.408   1.505
 1832W        W70226  10.153   1.350   1.888
 1833W        W70227   8.301  22.789   2.249
 1834W        W70228  15.093  31.417   4.674
 1835W        W70229  32.829  22.762  14.919
 1836W        W70230  16.061  13.744  13.440
 1837W        W70231  10.244  34.409   0.875
 1838W        W70232  30.111   1.960   0.342
 1839W        W70233  12.810  11.665  13.999
 1840W        W70234  25.518  12.797  13.499
 1841W        W70235   7.232   5.941  12.058
 1842W        W70236  17.434  36.942  14.469
 1843W        W70237  11.174  25.446   3.610
 1844W        W70238  43.738  14.729   2.931
 1845W        W70239   9.090  27.973   5.148
 1846W        W70240   3.254   6.013   4.423
 1847W        W70241   3.778  22.269   2.231
 1848W        W70242  41.572  16.545  11.134
 1849W        W70243  28.467  17.874  11.111
 1850W        W70244  29.008  30.490  11.470
 1851W        W70245  41.814  31.713  12.464
 1852W        W70246  39.379  32.166  11.503
 1853W        W70247  36.389   8.305  11.245
 1854W        W70248  21.670  17.225   0.807
 1855W        W70249  25.681  38.899   1.298
 1856W        W70250  21.194  10.920  13.925
 1857W        W70251  42.992  32.610  14.128
 1858W        W70252  36.033  24.994  13.591
 1859W        W70253  14.326  35.620  11.670
 1860W        W70254  17.418  37.995   1.312
 1861W        W70255   2.442  14.320   1.029
 1862W        W70256  37.405   6.399  12.283
 1863W        W70257  26.504  41.529   1.357
 1864W        W70258  11.336   7.238  11.147
 1865W        W70259  27.464   7.658  13.358
 1866W        W70260   1.667  21.036   2.683
 1867W        W70261  31.231  19.024   1.397
 1868W        W70262  21.536  13.829  13.878
 1869W        W70263  25.048  11.362   1.139
 1870W        W70264  22.036  38.580   0.867
 1871W        W70265  24.683  36.996   3.315
 1872W        W70266  32.867  18.967  13.036
 1873W        W70267   0.714  24.000  13.911
 1874W        W70268  34.565  17.660   0.281
 1875W        W70269  38.487  34.918  10.578
 1876W        W70270  33.662  27.621   4.100
 1877W        W70271   7.621  32.455   1.687
 1878W        W70272   9.618  41.809  11.006
 1879W        W70273  42.681  30.604   4.268
 1880W        W70274  26.139  10.740   2.193
 1881W        W70275   5.718  35.538   3.323
 1882W        W70276  25.835   7.441  11.492
 1883W        W70277  10.823  27.178  14.396
 1884W        W70278  34.819  20.717   2.374
 1885W        W70279  30.129   2.781   1.797
 1886W        W70280  25.191  10.317  12.499
 1887W        W70281  24.461  26.509   4.686
 1888W        W70282  28.403  42.568  10.654
 1889W        W70283  43.264  33.650   4.403
 1890W        W70284  42.369  14.126  14.970
 1891W        W70285  28.161  44.093  11.130
 1892W        W70286  33.100  34.488   2.643
 1893W        W70287  13.296  10.642   0.909
 1894W        W70288   2.976   4.221   2.194
 1895W        W70289  31.300  18.283   4.136
 1896W        W70290  15.852  19.110  14.433
 1897W        W70291  25.584  39.989   0.756
 1898W        W70292   8.365  16.860   4.418
 1899W        W70293   9.242  28.488  11.379
 1900W        W70294   6.405  14.857   1.276
 1901W        W70295  32.952  40.991   4.123
 1902W        W70296  21.707  13.112  11.420
 1903W        W70297  39.763   1.331  14.749
 1904W        W70298  27.698  26.003  12.825
 1905W        W70299   3.455  23.540   1.452
 1906W        W70300   8.267  10.762   0.273
 1907W        W70301  28.088   1.081  13.030
 1908W        W70302   4.435  39.466  11.616
 1909W        W70303  26.979  11.331  11.622
 1910W        W70304  25.650  38.884  14.837
 1911W        W70305  31.487  34.205  10.612
 1912W        W70306  26.920  40.228   4.148
 1913W        W70307   7.433  14.746  12.311
 1914W        W70308  27.515  14.515  14.555
 1915W        W70309  26.588   4.746   0.881
 1916W        W70310  38.984  15.316  10.715
 1917W        W70311  19.796  14.562   1.298
 1918W        W70312  39.825  18.957   0.843
 1919W        W70313  41.999  23.228   2.202
 1920W        W70314  16.596  14.857  12.440
 1921W        W70315   5.064  34.452   2.325
 1922W        W70316  25.006   9.828  12.490
 1923W        W70317   5.852  30.519   1.117
 1924W        W70318  12.599   3.961   2.314
 1925W        W70319   6.785  26.034   5.483
 1926W        W70320  42.064   4.946   2.730
 1927W        W70321  11.418  38.739  11.045
 1928W        W70322  22.644  42.328  14.880
 1929W        W70323  38.394  41.217  10.902
 1930W        W70324  15.008  38.098   1.771
 1931W        W70325  10.485  18.700   3.166
 1932W        W70326  41.483  31.866   0.875
 1933W        W70327   4.943  25.015   5.325
 1934W        W70328   0.514  11.526   1.617
 1935W        W70329  26.198  20.898   0.319
 1936W        W70330   3.051  40.849  11.158
 1937W        W70331  37.500   4.732   0.906
 1938W        W70332  34.939  22.046   2.233
 1939W        W70333  17.670   9.088  10.400
 1940W        W70334  35.247  27.451  14.028
 1941W        W70335   8.596  33.489   3.553
 1942W        W70336  15.015  18.215  11.038
 1943W        W70337   6.880  11.684   0.053
 1944W        W70338  42.393  40.885   4.660
 1945W        W70339  37.046  19.952   1.167
 1946W        W70340  31.656  44.939   3.078
 1947W        W70341  42.982  28.036  12.468
 1948W        W70342   0.987  40.327  11.408
 1949W        W70343  35.044  17.704   1.758
 1950W        W70344  18.654  40.319   0.925
 1951W        W70345   1.468  14.658  10.580
 1952W        W70346  12.084  16.828   2.964
 1953W        W70347  40.476  13.699   3.143
 1954W        W70348  22.399  11.771  14.898
 1955W        W70349  14.844  41.818   3.135
 1956W        W70350   7.743   1.450  13.859
 1957W        W70351   7.377  18.602  12.462
 1958W        W70352  26.589   4.331   2.218
 1959W        W70353   4.496   2.427  13.711
 1960W        W70354  41.530   9.866  14.324
 1961W        W70355  31.465  28.147   2.661
 1962W        W70356  10.315  22.317  11.211
 1963W        W70357   7.486  12.549  12.857
 1964W        W70358  23.183  24.573  12.655
 1965W        W70359   3.564  28.288  12.176
 1966W        W70360   7.642  23.608  11.881
 1967W        W70361  25.900   0.504   1.249
 1968W        W70362  43.467   6.757   3.885
 1969W        W70363  16.189  14.703  14.960
 1970W        W70364  38.044  22.951  14.317
 1971W        W70365  22.470  14.393   0.933
 1972W        W70366  22.410  32.114   1.432
 1973W        W70367  20.660  21.473   3.364
 1974W        W70368  32.020  20.919  10.951
 1975W        W70369  23.590  30.847   2.884
 1976W        W70370  39.460  33.837   0.352
 1977W        W70371  10.264   7.309  13.561
 1978W        W70372   3.535  14.322   1.297
 1979W        W70373  36.105   9.818  14.763
 1980W        W70374   1.704  16.767  11.038
 1981W        W70375  14.674   4.053   0.742
 1982W        W70376  13.347  40.362   4.710
 1983W        W70377  37.369  40.403  10.900
 1984W        W70378  14.186  40.857   2.342
 1985W        W70379  30.351   5.757  10.639
 1986W        W70380  34.793  13.266   0.906
 1987W        W70381  30.689   8.464   1.669
 1988W        W70382  36.608  31.744  11.981
 1989W        W70383  32.192  20.175  13.538
 1990W        W70384  42.042  15.869  12.955
 1991W        W70385  13.811   3.604   0.774
 1992W        W70386  11.220  18.736  14.099
 1993W        W70387  30.572  20.659   4.318
 1994W        W70388   2.218  41.629   0.364
 1995W        W70389  14.988  29.924  13.552
 1996W        W70390  15.566  12.872   3.175
 1997W        W70391  42.454  35.510  13.865
 1998W        W70392  30.407  42.061   3.234
 1999W        W70393   6.608  27.491   3.154
 2000W        W70394   6.848   9.706   3.672
 2001W        W70395   8.319  24.119   0.267
 2002W        W70396  43.344  32.613  14.500
 2003W        W70397  43.783   2.369   4.923
 2004W        W70398  44.443  19.995   1.344
 2005W        W70399  42.810   3.632   3.175
 2006W        W70400  13.501  30.923  11.745
 2007W        W70401  43.870  10.797  12.421
 2008W        W70402  18.684   0.941   5.123
 2009W        W70403  39.288  44.415   3.401
 2010W        W70404  40.893  37.207  14.410
 2011W        W70405   8.850  23.266  14.966
 2012W        W70406  21.135  10.787   1.204
 2013W        W70407  24.787   0.010   1.290
 2014W        W70408  25.193  43.008  14.406
 2015W        W70409  27.441  33.501  10.655
 2016W        W70410  19.296  15.475   0.342
 2017W        W70411  29.489  40.956   2.316
 2018W        W70412  44.752   2.405  13.849
 2019W        W70413  33.092  32.593   4.358
 2020W        W70414   5.645   2.235   1.944
 2021W        W70415  25.746  19.231  13.739
 2022W        W70416   8.826   6.493  14.478
 2023W        W70417  37.155   5.392   1.765
 2024W        W70418  29.200  44.246   3.243
 2025W        W70419  42.005  39.893  13.727
 2026W        W70420  17.531  19.050   1.969
 2027W        W70421   1.051  12.148  14.835
 2028W        W70422  13.696  29.986  12.543
 2029W        W70423  42.700   8.951  12.911
 2030W        W70424  33.059  10.327   2.836
 2031W        W70425  14.218  31.596  10.549
 2032W        W70426   6.384  13.844   1.684
 2033W        W70427  44.710  26.679   0.033
 2034W        W70428  35.082  24.028  13.489
 2035W        W70429   8.987  14.720  10.733
 2036W        W70430  39.304  22.245  12.526
 2037W        W70431   8.315  10.661  14.277
 2038W        W70432  21.330  25.896   9.930
 2039W        W70433  29.789   5.845  13.275
 2040W        W70434  43.491  11.298  12.164
 2041W        W70435  44.558  15.135  12.520
 2042W        W70436  38.769  33.807   1.351
 2043W        W70437   8.328  21.806  12.920
 2044W        W70438   6.390   1.279   0.544
 2045W        W70439  31.660  22.607  14.083
 2046W        W70440  36.719  30.108  12.386
 2047W        W70441  26.611  41.920  11.415
 2048W        W70442  40.062   3.952   3.680
 2049W        W70443   0.953  30.334   0.987
 2050W        W70444  27.987  18.117   4.984
 2051W        W70445  44.402  43.360   0.253
 2052W        W70446  24.687  22.624  10.595
 2053W        W70447  37.486  33.590  11.888
 2054W        W70448   6.272   9.145  11.096
 2055W        W70449  24.911  19.599  12.896
 2056W        W70450   3.712  30.684   2.885
 2057W        W70451   6.946  16.146   0.479
 2058W        W70452  37.609  44.944  13.233
 2059W        W70453  33.096  15.176  13.795
 2060W        W70454  10.104  40.743  13.120
 2061W        W70455  28.118  28.530   1.778
 2062W        W70456  35.366  38.432   3.118
 2063W        W70457  14.534   9.133  14.382
 2064W        W70458   1.904  29.381  13.839
 2065W        W70459  24.071  19.737  10.840
 2066W        W70460  12.893  26.412  12.888
 2067W        W70461  11.261   2.746   4.534
 2068W        W70462  37.014  40.896  13.396
 2069W        W70463  27.696  26.669  13.461
 2070W        W70464   2.053  42.531   3.746
 2071W        W70465   7.212  35.433   0.416
 2072W        W70466  26.698   4.401   2.761
 2073W        W70467  26.792  34.395  14.829
 2074W        W70468  37.910  15.630  12.080
 2075W        W70469  42.037   4.182   0.480
 2076W        W70470   7.307  36.879   4.232
 2077W        W70471   8.887   1.465   1.460
 2078W        W70472   6.423   0.968  10.456
 2079W        W70473  17.729  19.871  13.321
 2080W        W70474  31.876  12.186  14.008
 2081W        W70475  35.819  18.975  13.549
 2082W        W70476   8.577  30.968  12.092
 2083W        W70477  43.444  24.213  12.151
 2084W        W70478   9.510   5.546  10.275
 2085W        W70479  33.129  35.872  12.439
 2086W        W70480  42.589  31.493   0.314
 2087W        W70481   0.051  30.557  11.176
 2088W        W70482   7.129  41.647   0.761
 2089W        W70483  36.189   3.991   0.003
 2090W        W70484  42.477  38.668  10.755
 2091W        W70485  41.480  22.267  12.439
 2092W        W70486   0.478  29.065  12.499
 2093W        W70487   0.419   0.482   4.339
 2094W        W70488  11.407  40.749  10.347
 2095W        W70489   0.690   0.701   5.089
 2096W        W70490   5.262  44.269   1.212
 2097W        W70491  38.143   1.228  11.540
 2098W        W70492   8.308  21.345  10.700
 2099W        W70493  20.982  35.443  13.770
 2100W        W70494   0.920  29.016   3.965
 2101W        W70495  35.594  23.970   0.402
 2102W        W70496   8.473  25.727   2.400
 2103W        W70497  18.187  27.203   2.897
 2104W        W70498  36.007  14.824   1.439
 2105W        W70499  37.417  43.478   3.362
 2106W        W70500  44.437  23.761   3.131
 2107W        W70501   7.696  31.970   3.266
 2108W        W70502  33.647  13.709   3.086
 2109W        W70503  44.142   3.428   3.360
 2110W        W70504  22.973  28.463   0.934
 2111W        W70505  14.211  28.218   1.770
 2112W        W70506  11.334   6.835  11.517
 2113W        W70507  19.731   4.636   3.698
 2114W        W70508   7.740  29.514  12.843
 2115W        W70509  14.048  10.191   1.756
 2116W        W70510   9.975  30.152  12.970
 2117W        W70511  10.295  38.573  12.989
 2118W        W70512  12.305  39.438   3.638
 2119W        W70513  26.223  43.540  12.566
 2120W        W70514   0.737  11.599   0.456
 2121W        W70515  14.786  41.072  11.571
 2122W        W70516  12.592  13.725  14.828
 2123W        W70517  16.797  26.106   3.749
 2124W        W70518   7.316  44.776  13.491
 2125W        W70519  37.412  40.733   3.697
 2126W        W70520   5.382  16.222   2.929
 2127W        W70521  21.977   5.976  13.872
 2128W        W70522  28.660  26.332  13.677
 2129W        W70523   4.444  17.585  10.137
 2130W        W70524  10.153  43.744  14.698
 2131W        W70525  44.455   0.549  12.644
 2132W        W70526  19.540  18.031   3.674
 2133W        W70527  35.141  23.096   4.992
 2134W        W70528  37.347  40.255   3.499
 2135W        W70529   3.739  29.577  12.117
 2136W        W70530   4.850  42.270  14.870
 2137W        W70531  16.649   9.653   1.853
 2138W        W70532  25.631  19.537  14.524
 2139W        W70533   5.681  17.936   3.792
 2140W        W70534   5.728  42.965  11.608
 2141W        W70535   9.231   4.164   0.074
 2142W        W70536  28.157   4.438   3.798
 2143W        W70537   6.814   2.471  13.849
 2144W        W70538  40.126  30.618   1.765
 2145W        W70539  39.794  20.844  13.517
 2146W        W70540  36.257  28.420   0.229
 2147W        W70541  36.162  13.229   2.341
 2148W        W70542  22.231  37.271  10.731
 2149W        W70543  11.228  32.345   4.680
 2150W        W70544  31.498  11.199   2.488
 2151W        W70545   3.520  22.428   3.352
 2152W        W70546  32.169  15.592   0.750
 2153W        W70547  29.652  14.525   1.888
 2154W        W70548  29.604   7.431   2.244
 2155W        W70549  41.117  40.892  11.297
 2156W        W70550  27.255  22.615  14.071
 2157W        W70551  44.828  44.342  12.755
 2158W        W70552   2.916   5.744   4.720
 2159W        W70553   7.646  34.798   4.215
 2160W        W70554  20.184  10.374  11.010
 2161W        W70555  40.980  37.328   4.167
 2162W        W70556  22.224  19.086   0.429
 2163W        W70557  18.123   8.214   1.198
 2164W        W70558  28.645  15.597  10.119
 2165W        W70559  25.234  13.289  13.879
 2166W        W70560  43.968  26.989   2.899
 2167W        W70561  27.215   7.288  12.192
 2168W        W70562  19.831  36.995  13.133
 2169W        W70563  40.284  23.650  12.473
 2170W        W70564   2.208   0.166  12.224
 2171W        W70565  44.747  29.057   4.799
 2172W        W70566  33.321  33.939  10.056
 2173W        W70567  37.819   5.977   4.090
 2174W        W70568  14.221  28.958  13.891
 2175W        W70569   3.464  11.235   0.377
 2176W        W70570  27.117  29.455   4.388
 2177W        W70571  35.408  20.539   0.283
 2178W        W70572   1.788  10.626   2.647
 2179W        W70573   0.274  21.527   1.824
 2180W        W70574   5.592  20.523  12.892
 2181W        W70575  41.847  40.247   0.148
 2182W        W70576  28.518  44.399  14.320
 2183W        W70577  12.699  42.550   1.017
 2184W        W70578  38.532  21.694   1.435
 2185W        W70579  10.715  22.256   4.704
 2186W        W70580  10.873   9.028   3.569
 2187W        W70581  30.540  42.001   0.798
 2188W        W70582  32.422  30.905  11.031
 2189W        W70583  24.574  38.437   0.864
 2190W        W70584  26.764  36.408   1.950
 2191W        W70585   1.686  43.354   1.713
 2192W        W70586  36.290  26.497  10.730
 2193W        W70587  23.506  26.823   3.782
 2194W        W70588  10.109  22.716   3.547
 2195W        W70589   7.007  44.792   2.988
 2196W        W70590  34.586  17.090  12.584
 2197W        W70591  34.543   1.283  14.822
 2198W        W70592  21.913  32.549   2.138
 2199W        W70593   9.718  30.007   4.627
 2200W        W70594  40.486  26.179   3.141
 2201W        W70595  16.256  29.493   4.962
 2202W        W70596   3.759  25.540  10.646
 2203W        W70597   2.323   9.074  13.421
 2204W        W70598  27.819  31.603  10.752
 2205W        W70599  23.628   0.772   0.147
 2206W        W70600  28.150  13.348   1.138
 2207W        W70601  11.914  41.054   3.068
 2208W        W70602   9.588  23.925  10.551
 2209W        W70603  36.152  13.745   2.861
 2210W        W70604  39.298   4.893   3.293
 2211W        W70605  27.521  25.782   3.081
 2212W        W70606  25.177  12.575   0.148
 2213W        W70607  26.894  29.022   3.075
 2214W        W70608  24.122  31.200  13.832
 2215W        W70609  18.054   8.178   3.130
 2216W        W70610  31.665  18.078  11.994
 2217W        W70611  25.919  12.377  11.398
 2218W        W70612  13.311  40.543  12.662
 2219W        W70613  12.971  30.935  11.807
 2220W        W70614  23.118  16.830  12.261
 2221W        W70615   6.439  18.741   3.936
 2222W        W70616  42.732  37.411   3.207
 2223W        W70617   3.791  15.847   4.008
 2224W        W70618  12.826   9.622   1.155
 2225W        W70619  11.919   7.402  14.796
 2226W        W70620  30.053  20.799   4.208
 2227W        W70621  19.221  23.529  14.391
 2228W        W70622  36.122   2.930  13.999
 2229W        W70623   9.727   3.963   4.186
 2230W        W70624  19.149  25.802   1.177
 2231W        W70625  10.307   3.656   4.625
 2232W        W70626  16.238   1.003   3.242
 2233W        W70627  41.007   7.236  12.974
 2234W        W70628  36.249  37.385  14.157
 2235W        W70629  40.439  33.634   4.088
 2236W        W70630  23.537  36.363  11.542
 2237W        W70631  44.798  26.892  12.501
 2238W        W70632  31.435  11.607  11.479
 2239W        W70633   6.845  40.753  11.147
 2240W        W70634  15.389  42.791  14.367
 2241W        W70635  35.490   8.362   1.994
 2242W        W70636  31.766  23.483  14.646
 2243W        W70637  22.935  21.453   4.669
 2244W        W70638  17.900  13.545  11.077
 2245W        W70639  33.407  40.998  11.479
 2246W        W70640  11.073  13.187  14.010
 2247W        W70641   4.851   0.352   3.334
 2248W        W70642  21.275  36.934   3.865
 2249W        W70643  10.570  16.451   4.194
 2250W        W70644  36.420   6.989  10.745
 2251W        W70645  35.463  44.403   0.984
 2252W        W70646  39.319  43.272  12.482
 2253W        W70647  24.503  39.949  14.047
 2254W        W70648  34.401  23.959  13.908
 2255W        W70649  29.999  34.213  12.078
 2256W        W70650  35.367  11.523   4.059
 2257W        W70651  28.417   6.754   3.098
 2258W        W70652  14.288  12.280  12.147
 2259W        W70653  30.002   1.373  10.887
 2260W        W70654  25.853  25.405  13.294
 2261W        W70655  39.901   5.393   3.631
 2262W        W70656  10.696  16.497  14.778
 2263W        W70657  21.121  31.182  12.290
 2264W        W70658  30.934   3.361   3.644
 2265W        W70659   1.986  13.484   2.713
 2266W        W70660   5.325  34.554   1.874
 2267W        W70661  11.824  27.728  14.753
 2268W        W70662  18.772  17.102   3.179
 2269W        W70663   4.786  40.588  11.702
 2270W        W70664  43.092  25.737  11.623
 2271W        W70665  28.452  44.438  11.938
 2272W        W70666  32.027   2.736  13.916
 2273W        W70667  30.504   1.859  11.422
 2274W        W70668  13.912  20.627   2.733
 2275W        W70669  34.508  38.581   1.706
 2276W        W70670  18.831  34.526  10.336
 2277W        W70671  20.808  37.976  11.057
 2278W        W70672  29.349   9.640  10.839
 2279W        W70673  44.984   0.316   3.107
 2280W        W70674  37.117  34.629  13.579
 2281W        W70675  15.610  16.168   4.894
 2282W        W70676  22.598  17.217   4.462
 2283W        W70677   1.921  31.397  13.848
 2284W        W70678  21.138  41.905   3.627
 2285W        W70679  13.755  25.311  13.129
 2286W        W70680  26.623   2.553  13.056
 2287W        W70681  11.674  40.735  11.183
 2288W        W70682  36.072  34.393  11.967
 2289W        W70683  34.382  44.989   0.882
 2290W        W70684  37.445   5.466   2.256
 2291W        W70685  20.202  24.735   0.721
 2292W        W70686  16.149  12.653   0.545
 2293W        W70687  37.870  41.724  11.090
 2294W        W70688  39.860  32.964  10.720
 2295W        W70689  30.979  14.769  13.854
 2296W        W70690  43.037  21.289  11.527
 2297W        W70691   8.160  18.173  12.785
 2298W        W70692   7.929  44.299  11.285
 2299W        W70693  36.482  43.074  10.765
 2300W        W70694  39.132  16.565   2.665
 2301W        W70695  37.893  39.786  11.113
 2302W        W70696  30.892  11.352  14.911
 2303W        W70697  41.828   3.199   3.280
 2304W        W70698   6.325   4.482  14.017
 2305W        W70699   6.344  44.952   4.179
 2306W        W70700  37.919  13.489   2.366
 2307W        W70701  42.386  38.434   1.446
 2308W        W70702  43.402  25.501  14.352
 2309W        W70703  29.569   0.012  10.810
 2310W        W70704  27.660  39.103   4.193
 2311W        W70705  24.626   2.500   3.831
 2312W        W70706   7.237  33.648  12.925
 2313W        W70707   5.921  26.022  12.987
 2314W        W70708  23.229  10.667  11.256
 2315W        W70709  42.917  31.588   3.586
 2316W        W70710  34.493  29.966   3.154
 2317W        W70711  15.469  16.188  13.969
 2318W        W70712  19.051  18.584   2.032
 2319W        W70713   2.743  30.631   2.883
 2320W        W70714  25.492   6.950  14.193
 2321W        W70715  23.238  27.667  12.353
 2322W        W70716  29.927  29.095  11.700
 2323W        W70717  42.029  30.547   4.699
 2324W        W70718  17.157   6.618   3.636
 2325W        W70719  15.613  43.755   2.250
 2326W        W70720  40.073  38.484   3.087
 2327W        W70721  29.354  36.150  11.443
 2328W        W70722  36.463  26.229   2.608
 2329W        W70723  37.435  20.210  13.441
 2330W        W70724   1.335  10.102  13.359
 2331W        W70725   7.321  39.162  12.621
 2332W        W70726  35.375   5.865  13.412
 2333W        W70727  40.730  40.968   0.226
 2334W        W70728   1.990  13.862  13.345
 2335W        W70729  12.208   8.852   4.525
 2336W        W70730  10.431  28.873  11.758
 2337W        W70731  31.913  32.310  11.365
 2338W        W70732   9.708  44.245  13.929
 2339W        W70733  39.894  14.812   3.109
 2340W        W70734  22.688   0.541  13.834
 2341W        W70735  27.417  31.151   4.009
 2342W        W70736  11.410   5.396  11.685
 2343W        W70737  19.064  13.691   0.395
 2344W        W70738  42.970   9.760   3.639
 2345W        W70739  40.924  17.247  11.100
 2346W        W70740   3.730  20.816   2.260
 2347W        W70741  37.060  39.908  12.438
 2348W        W70742   7.178  18.169  14.486
 2349W        W70743  30.917   8.826  12.743
 2350W        W70744  40.276  38.912  13.044
 2351W        W70745  42.325  38.362  11.734
 2352W        W70746  35.980  29.466  14.993
 2353W        W70747  40.868  20.757  11.553
 2354W        W70748  22.748  40.751  11.601
 2355W        W70749  17.227   2.938  11.710
 2356W        W70750  40.927  22.434   2.999
 2357W        W70751  11.676  32.391  14.545
 2358W        W70752   7.904  36.630  13.702
 2359W        W70753  33.072  42.305  13.746
 2360W        W70754  38.679  17.740   2.423
 2361W        W70755  12.023  35.592  13.616
 2362W        W70756  27.562   6.995   1.933
 2363W        W70757  30.345  21.598  11.050
 2364W        W70758  15.879  42.272   1.275
 2365W        W70759  14.316   1.936   3.222
 2366W        W70760  43.925  16.263  12.450
 2367W        W70761  16.384  29.524  13.593
 2368W        W70762  43.971  40.426   1.687
 2369W        W70763  25.413  23.643  11.077
 2370W        W70764   9.481  35.943  13.867
 2371W        W70765  17.150  20.308  10.178
 2372W        W70766  23.731  20.054   2.219
 2373W        W70767  26.887  39.591   3.551
 2374W        W70768  42.817  42.595  13.516
 2375W        W70769   5.902   0.210  14.493
 2376W        W70770  33.209  15.366   4.707
 2377W        W70771  20.222  20.282  14.758
 2378W        W70772  37.528  11.698   2.998
 2379W        W70773  11.648  21.007  10.809
 2380W        W70774  32.357  24.285  12.090
 2381W        W70775  16.490  36.548   3.121
 2382W        W70776  11.384   9.418   4.424
 2383W        W70777  38.925   5.954   2.221
 2384W        W70778  26.533  44.851  11.447
 2385W        W70779  25.366  30.718   4.572
 2386W        W70780  34.861   4.526   2.289
 2387W        W70781  16.308  23.987  13.587
 2388W        W70782   4.237  10.771  13.099
 2389W        W70783   1.258   7.424   1.180
 2390W        W70784  32.413   1.414  12.845
 2391W        W70785  26.598  18.653  10.734
 2392W        W70786  41.401  32.153   3.828
 2393W        W70787  21.744   4.840  10.132
 2394W        W70788  39.283  44.739   0.365
 2395W        W70789   9.556   7.478  11.628
 2396W        W70790  37.401  35.334  11.259
 2397W        W70791  35.922  32.505   3.684
 2398W        W70792  22.200   9.024  11.876
 2399W        W70793  26.464  33.368  10.780
 2400W        W70794   3.712   6.247  14.852
 2401W        W70795  11.655  16.290  11.076
 2402W        W70796  30.478  32.541   2.262
 2403W        W70797  38.914  31.046  12.024
 2404W        W70798  10.138   0.715   5.069
 2405W        W70799   8.169  16.410   3.682
 2406W        W70800  28.521  34.326   0.906
 2407W        W70801  15.675   8.670  10.749
 2408W        W70802  16.000   6.348   0.289
 2409W        W70803   0.781   2.345  13.978
 2410W        W70804  21.964  22.420   3.635
 2411W        W70805  43.502  42.316   1.689
 2412W        W70806  12.319  19.569   1.337
 2413W        W70807  17.100  13.180  11.168
 2414W        W70808   3.596  10.051   1.325
 2415W        W70809  24.203   3.695  11.904
 2416W        W70810  43.485  16.046   4.121
 2417W        W70811  10.070  21.187  13.076
 2418W        W70812  32.636   0.567  10.474
 2419W        W70813  42.778  19.556  10.604
 2420W        W70814  29.941  41.452   2.757
 2421W        W70815  36.842  11.314   0.020
 2422W        W70816  21.728  39.024  13.085
 2423W        W70817  25.009  27.436  13.621
 2424W        W70818  38.237  21.702   0.865
 2425W        W70819  27.419   4.682   3.961
 2426W        W70820  36.235  16.269   1.362
 2427W        W70821  19.885  28.782  10.740
 2428W        W70822  19.180  19.775   2.182
 2429W        W70823  24.641  43.530   3.974
 2430W        W70824  13.193  18.164   1.123
 2431W        W70825  28.241  11.641   1.367
 2432W        W70826  13.594   8.303   0.247
 2433W        W70827  26.157   1.472  11.441
 2434W        W70828  29.485  40.517   3.428
 2435W        W70829  32.802  17.000  14.781
 2436W        W70830  35.002  31.123   4.325
 2437W        W70831  27.971  36.608  11.246
 2438W        W70832   4.712  13.425  11.223
 2439W        W70833   9.151   5.767  12.831
 2440W        W70834   9.730  18.060  11.295
 2441W        W70835  34.298  17.136  13.069
 2442W        W70836  23.051  38.308   0.928
 2443W        W70837   9.304  18.063   4.737
 2444W        W70838  17.344   3.661   1.928
 2445W        W70839   2.753  11.094   2.674
 2446W        W70840  36.454  42.251   1.147
 2447W        W70841   7.435  16.840  11.273
 2448W        W70842  16.709   4.513   4.992
 2449W        W70843  26.458  18.656   4.576
 2450W        W70844  18.051  11.153  14.073
 2451W        W70845  38.052  40.279   2.753
 2452W        W70846  17.047   8.410  10.374
 2453W        W70847  15.098   7.503  12.923
 2454W        W70848  30.114  36.136   2.307
 2455W        W70849  20.661   3.236   4.690
 2456W        W70850  23.108  16.649  12.759
 2457W        W70851  22.491  11.899  10.256
 2458W        W70852  37.808  23.688  12.035
 2459W        W70853  17.310  30.478  10.257
 2460W        W70854  32.354  11.655   3.758
 2461W        W70855  26.081   2.194   0.171
 2462W        W70856  25.457  30.912   3.751
 2463W        W70857   8.851  37.947  12.484
 2464W        W70858   4.131  16.830   0.327
 2465W        W70859  30.156   4.407   5.004
 2466W        W70860  21.695  32.085   4.919
 2467W        W70861  35.405   9.684  14.042
 2468W        W70862   2.983  34.471   2.375
 2469W        W70863   9.952  19.832   3.545
 2470W        W70864  41.558   2.407  11.133
 2471W        W70865  16.494  12.252   2.714
 2472W        W70866  18.332  37.101   3.148
 2473W        W70867  25.899   0.535  12.500
 2474W        W70868   3.938  36.970  13.495
 2475W        W70869  12.706  43.362   4.100
 2476W        W70870  17.683  39.101   0.685
 2477W        W70871   3.515  44.442  13.705
 2478W        W70872  36.869  26.231   0.383
 2479W        W70873  41.079  36.830   4.306
 2480W        W70874   0.700   7.867  13.003
 2481W        W70875  33.589   9.563  10.193
 2482W        W70876   0.788  20.187  10.668
 2483W        W70877  24.584  22.683  14.019
 2484W        W70878   4.657  15.996   4.463
 2485W        W70879  35.513  38.245   4.472
 2486W        W70880  21.043  30.257   2.150
 2487W        W70881  18.731  43.063  14.965
 2488W        W70882  20.985  34.677   0.339
 2489W        W70883  42.725   9.732   2.311
 2490W        W70884  14.851  19.076  14.966
 2491W        W70885  38.084  10.830  14.906
 2492W        W70886  22.303  16.553  11.025
 2493W        W70887  26.180  18.782   2.735
 2494W        W70888  11.090   3.711  14.289
 2495W        W70889  31.421  11.953   4.353
 2496W        W70890  16.283  33.357   3.144
 2497W        W70891  23.851  40.932  12.178
 2498W        W70892   1.727  33.957   2.261
 2499W        W70893  44.323  30.429   0.969
 2500W        W70894  35.974  25.876  11.922
 2501W        W70895  13.137  16.331  14.512
 2502W        W70896  23.636  28.281   3.633
 2503W        W70897  30.397  36.605  14.295
 2504W        W70898  26.648   2.835   0.855
 2505W        W70899  29.502  11.794   2.329
 2506W        W70900   0.308   1.453  13.255
 2507W        W70901  34.278  12.330   1.301
 2508W        W70902   6.194  40.528   4.500
 2509W        W70903  23.233  32.666   2.862
 2510W        W70904  41.522  14.751   4.538
 2511W        W70905  14.783  14.113  12.412
 2512W        W70906  13.821  32.564  11.179
 2513W        W70907   9.865   3.010   1.270
 2514W        W70908  44.904  27.257  13.535
 2515W        W70909   6.436  10.203   4.525
 2516W        W70910  37.554  19.334  11.997
 2517W        W70911  16.282  35.331  14.814
 2518W        W70912  10.703  31.095   1.414
 2519W        W70913  26.573  17.699  14.157
 2520W        W70914   4.633  24.911  12.461
 2521W        W70915  21.195  20.615   1.714
 2522W        W70916  13.683  11.578   0.874
 2523W        W70917  15.376  44.886  14.209
 2524W        W70918   8.553  29.337   4.051
 2525W        W70919  32.185  13.051  12.146
 2526W        W70920  38.977  14.535   2.683
 2527W        W70921   5.806  35.915  14.062
 2528W        W70922  26.437  41.227  13.411
 2529W        W70923   4.803  24.717  10.660
 2530W        W70924   0.145  16.366  12.815
 2531W        W70925   9.846  24.166  10.934
 2532W        W70926  12.289  19.391  13.370
 2533W        W70927  30.021  16.722  11.188
 2534W        W70928  14.333   8.969  12.465
 2535W        W70929  23.628  42.525   3.356
 2536W        W70930  28.143  35.595  14.265
 2537W        W70931  25.393  22.285  11.970
 2538W        W70932  44.088   0.465  14.850
 2539W        W70933  20.515  32.345  12.451
 2540W        W70934  44.942   1.475  13.974
 2541W        W70935   7.214   3.183   0.491
 2542W        W70936  13.253  24.170   3.153
 2543W        W70937  27.011  34.983  13.583
 2544W        W70938  34.403   9.152  14.203
 2545W        W70939  41.757  39.311  11.650
 2546W        W70940  21.868   7.427  12.008
 2547W        W70941  25.086   2.789   2.660
 2548W        W70942  13.051   6.661  14.791
 2549W        W70943  29.971  43.251   2.353
 2550W        W70944   8.460  14.710   2.122
 2551W        W70945  15.244   9.320  12.788
 2552W        W70946  12.949   5.937  13.228
 2553W        W70947   1.847  30.902  12.095
 2554W        W70948  22.656  16.076   4.846
 2555W        W70949   9.964   1.482  14.061
 2556W        W70950  39.748  15.407  12.789
 2557W        W70951   0.971   4.266  12.406
 2558W        W70952  30.567  21.501  11.903
 2559W        W70953  36.396  11.239  12.039
 2560W        W70954  33.997   7.810   4.696
 2561W        W70955   8.764  13.665  14.209
 2562W        W70956  25.546  10.991   0.930
 2563W        W70957   0.932   5.259   0.138
 2564W        W70958  26.378  36.613   0.314
 2565W        W70959   0.484  37.246  10.978
 2566W        W70960  43.762   1.017   1.811
 2567W        W70961  42.850  18.636  12.099
 2568W        W70962   6.826  23.078  10.489
 2569W        W70963  25.198  41.836  12.790
 2570W        W70964  30.700   0.759  12.973
 2571W        W70965   2.976  12.065   0.558
 2572W        W70966   4.152  11.777  10.201
 2573W        W70967  23.185   2.856  13.053
 2574W        W70968  11.664  17.184   4.568
 2575W        W70969   9.040   3.324   4.344
 2576W        W70970  17.491  32.626   2.491
 2577W        W70971   0.913  25.096   3.533
 2578W        W70972   6.104   9.727  12.486
 2579W        W70973  39.493  39.988  14.406
 2580W        W70974  23.999  23.554   4.546
 2581W        W70975   3.571  31.516   4.468
 2582W        W70976   5.803  42.217  11.113
 2583W        W70977  20.457  12.196   1.918
 2584W        W70978  19.699  42.884   1.634
 2585W        W70979   7.573  15.621   1.038
 2586W        W70980   5.086  28.974  14.277
 2587W        W70981  36.454  38.290  13.753
 2588W        W70982   7.455  38.319  13.295
 2589W        W70983  13.152  28.594   3.333
 2590W        W70984  30.083   6.963  12.163
 2591W        W70985  31.494  25.691  10.552
 2592W        W70986  43.710  24.215   3.810
 2593W        W70987  39.037  35.385  11.620
 2594W        W70988  21.440  20.545   5.023
 2595W        W70989   7.267  13.565   1.695
 2596W        W70990  38.620  36.574  13.037
 2597W        W70991  35.052  14.846   3.663
 2598W        W70992  25.791  31.868  11.464
 2599W        W70993  25.467  38.097  13.045
 2600W        W70994  12.134  23.540   4.637
 2601W        W70995  22.000  24.305   4.204
 2602W        W70996  40.787  17.459  13.812
 2603W        W70997   7.349   0.998   3.114
 2604W        W70998  36.630  35.565  14.295
 2605W        W70999  19.536  34.923   4.068
 2606W        W71000  35.107   7.834  11.824
 2607W        W71001  26.668   9.037   0.906
 2608W        W71002   7.635  36.238  13.932
 2609W        W71003  32.580  32.531  10.714
 2610W        W71004  27.939  16.065   0.800
 2611W        W71005  16.086  43.012  13.928
 2612W        W71006   8.638  32.609  10.361
 2613W        W71007  27.957  17.808   0.014
 2614W        W71008  22.706   7.261   4.570
 2615W        W71009   8.150  35.908  12.574
 2616W        W71010  41.245  20.124   2.334
 2617W        W71011   1.035  30.219   5.092
 2618W        W71012  32.593  11.292  13.528
 2619W        W71013  42.586   9.782   0.852
 2620W        W71014   9.846  23.626  13.044
 2621W        W71015  38.124  22.744  14.827
 2622W        W71016  12.118   5.687  13.451
 2623W        W71017  27.976  31.866   2.763
 2624W        W71018   4.235  11.311  13.840
 2625W        W71019   6.025  14.911   2.274
 2626W        W71020   1.268   6.278  10.852
 2627W        W71021   8.742  29.355   0.314
 2628W        W71022   0.861   0.604   1.183
 2629W        W71023   7.202  29.995  13.899
 2630W        W71024  23.958  13.923  11.632
 2631W        W71025  32.687  21.640  11.035
 2632W        W71026  20.992  28.349  12.578
 2633W        W71027  38.853  14.223   3.548
 2634W        W71028  23.766  11.945  11.694
 2635W        W71029  16.188  10.847   4.686
 2636W        W71030  37.820  24.739   2.372
 2637W        W71031  18.438  25.139  14.489
 2638W        W71032  16.752  24.073  14.027
 2639W        W71033  44.700  16.081  12.803
 2640W        W71034  36.475  15.880  14.909
 2641W        W71035  19.204  24.959   2.323
 2642W        W71036  32.706  28.803  13.053
 2643W        W71037  40.892  41.732  14.881
 2644W        W71038  43.607   9.663  12.376
 2645W        W71039   9.687  27.539  13.433
 2646W        W71040   2.744   9.955  10.638
 2647W        W71041   5.666  44.323   4.487
 2648W        W71042  23.612  40.841   4.522
 2649W        W71043  44.863   5.789  13.187
 2650W        W71044  36.471  33.856  11.148
 2651W        W71045  10.933   7.034  14.290
 2652W        W71046  12.680  42.366  10.443
 2653W        W71047  41.341  32.396  10.750
 2654W        W71048   6.701  14.770   5.368
 2655W        W71049  39.753  15.538   1.692
 2656W        W71050  14.126   3.218   0.909
 2657W        W71051  33.890  37.775  13.986
 2658W        W71052  30.154   4.292  11.577
 2659W        W71053  25.165  15.172   2.908
 2660W        W71054  39.783  31.707   3.122
 2661W        W71055  27.127  23.715  11.648
 2662W        W71056  22.053   2.432  11.283
 2663W        W71057  21.018  44.257   0.415
 2664W        W71058  16.704  40.819   3.776
 2665W        W71059   5.602  12.599   3.252
 2666W        W71060  29.941  13.884  14.985
 2667W        W71061  42.670  35.201   0.316
 2668W        W71062  28.109  35.017   1.006
 2669W        W71063  22.584  21.007   4.163
 2670W        W71064  17.298   5.465  10.536
 2671W        W71065  24.817  38.587   3.699
 2672W        W71066  27.663  32.005  14.847
 2673W        W71067  27.767  42.478  12.899
 2674W        W71068  34.161  16.844  14.247
 2675W        W71069   6.771  32.377   3.172
 2676W        W71070  37.082  34.381  13.120
 2677W        W71071  18.279  16.701  11.702
 2678W        W71072  12.295  41.709   3.436
 2679W        W71073  23.993  16.795   0.711
 2680W        W71074  42.103  13.598   0.377
 2681W        W71075  39.566  40.783  14.767
 2682W        W71076   5.479  42.878   1.789
 2683W        W71077  28.245  14.090  11.850
 2684W        W71078  35.488  27.779  14.422
 2685W        W71079   9.388  32.866   0.671
 2686W        W71080  26.015  43.513  14.812
 2687W        W71081  33.954  35.964  12.049
 2688W        W71082  18.028  18.131   1.768
 2689W        W71083  35.386   6.885   5.048
 2690W        W71084  22.854  32.841  14.244
 2691W        W71085  38.030   2.336  13.256
 2692W        W71086   5.299   0.552   3.176
 2693W        W71087  14.640  27.912  13.072
 2694W        W71088  41.001  24.508   3.641
 2695W        W71089  43.083  37.408  13.512
 2696W        W71090  26.509  42.820   2.804
 2697W        W71091  10.918   2.984  13.006
 2698W        W71092   5.475  20.226  11.117
 2699W        W71093   4.032  23.271  11.585
 2700W        W71094  28.643  19.594   4.923
 2701W        W71095  40.541  12.895   4.146
 2702W        W71096  33.938   5.431  13.988
 2703W        W71097   8.884  16.726  11.854
 2704W        W71098  43.603  40.143  13.400
 2705W        W71099  23.965  27.523   3.200
 2706W        W71100  35.071  38.624  10.930
 2707W        W71101  40.282  42.301  14.169
 2708W        W71102  26.986   7.906   1.321
 2709W        W71103  14.061   9.107   2.769
 2710W        W71104   5.837  10.167   3.859
 2711W        W71105  27.901  14.759  10.516
 2712W        W71106  12.304  31.214   3.799
 2713W        W71107  14.835  32.585  11.204
 2714W        W71108  13.770  16.564   2.794
 2715W        W71109  35.165   5.413  13.534
 2716W        W71110   4.219  17.116   0.733
 2717W        W71111  20.283  18.673   2.669
 2718W        W71112  30.528   8.337   3.164
 2719W        W71113  12.957  42.885   4.176
 2720W        W71114  11.811  30.028  12.096
 2721W        W71115  16.838   8.924   3.672
 2722W        W71116  30.981  38.163  13.847
 2723W        W71117  28.890  25.132   1.053
 2724W        W71118  13.188   8.953   4.474
 2725W        W71119  40.467   5.461  12.006
 2726W        W71120  16.512  44.192  12.862
 2727W        W71121  25.935  13.188  14.845
 2728W        W71122  21.913  24.988  12.946
 2729W        W71123  13.204  25.924   2.965
 2730W        W71124  35.916  13.342  13.573
 2731W        W71125  29.779  23.359   2.348
 2732W        W71126  34.738  42.151   4.391
 2733W        W71127  21.971  27.976   4.515
 2734W        W71128  42.963  34.365   9.657
 2735W        W71129   5.740   2.814   4.198
 2736W        W71130  10.231  42.597  12.342
 2737W        W71131  41.199  25.488  11.254
 2738W        W71132  29.534   3.238  11.632
 2739W        W71133  35.796   7.645  12.921
 2740W        W71134  35.587  44.001  11.525
 2741W        W71135   6.317  37.984  11.210
 2742W        W71136  19.138   9.218  13.884
 2743W        W71137  17.731  24.515   3.115
 2744W        W71138  40.943  42.936   2.442
 2745W        W71139  10.594  24.769   2.260
 2746W        W71140  41.370  15.729  12.570
 2747W        W71141  18.730  39.899   1.882
 2748W        W71142   4.377  26.493   9.786
 2749W        W71143   8.868  39.671   3.681
 2750W        W71144  22.245  32.706   3.415
 2751W        W71145  25.726  24.100  13.031
 2752W        W71146  33.045   6.167  10.956
 2753W        W71147  30.983  16.983   1.381
 2754W        W71148  41.656  29.215   1.358
 2755W        W71149  43.324  24.898   2.239
 2756W        W71150  20.339  11.325  11.542
 2757W        W71151  34.927  15.196  11.031
 2758W        W71152  18.213  36.985   0.717
 2759W        W71153  12.514  10.016   3.588
 2760W        W71154  42.215   7.284  12.496
 2761W        W71155  34.671  24.209  12.460
 2762W        W71156  22.312   9.136  10.212
 2763W        W71157   9.648  22.011  11.469
 2764W        W71158  13.882   4.417   3.830
 2765W        W71159  14.782  12.219  11.528
 2766W        W71160  33.772  10.729   1.656
 2767W        W71161  31.826  24.358   0.174
 2768W        W71162  13.499   8.598  13.975
 2769W        W71163  28.842  34.490   2.390
 2770W        W71164  36.927  21.941  12.461
 2771W        W71165  21.055  19.551   1.344
 2772W        W71166  34.120  18.190  11.888
 2773W        W71167  10.924  28.905   0.847
 2774W        W71168  42.810  19.040   0.898
 2775W        W71169  19.962   6.167  12.615
 2776W        W71170  21.178  14.194  12.108
 2777W        W71171  26.012  24.547   3.222
 2778W        W71172   6.242  29.424   1.826
 2779W        W71173  41.394   8.886  13.315
 2780W        W71174  17.168  27.037  12.843
 2781W        W71175  29.084   9.945   1.255
 2782W        W71176   4.624  41.009  13.891
 2783W        W71177  25.499  23.062  14.473
 2784W        W71178  14.228  36.479   4.606
 2785W        W71179  36.431  41.928  11.525
 2786W        W71180  41.725  44.509   5.018
 2787W        W71181  12.349  12.082   4.180
 2788W        W71182  13.424   0.734   2.822
 2789W        W71183  38.338   4.973  12.206
 2790W        W71184  33.102   9.373   3.811
 2791W        W71185   7.258  12.139   3.579
 2792W        W71186  29.505   9.561  12.378
 2793W        W71187  27.187   9.613  12.594
 2794W        W71188  34.964  20.881  14.571
 2795W        W71189  20.139  13.862   2.268
 2796W        W71190  41.635   8.410  10.724
 2797W        W71191  33.007  40.764  12.560
 2798W        W71192   0.830  13.620   3.611
 2799W        W71193   9.796  25.617   1.667
 2800W        W71194  13.320  14.617  10.740
 2801W        W71195  32.125  31.378   4.543
 2802W        W71196  44.239   1.320  12.826
 2803W        W71197  35.599  17.133  14.541
 2804W        W71198  11.336  18.800  12.140
 2805W        W71199  25.145  22.769   2.743
 2806W        W71200  11.237   4.625   0.379
 2807W        W71201   9.871  20.777  11.859
 2808W        W71202  14.722  23.235  11.094
 2809W        W71203  42.877  18.990  11.140
 2810W        W71204  41.482  41.516   2.290
 2811W        W71205  37.960  25.083  12.529
 2812W        W71206  21.034  14.093   1.841
 2813W        W71207   7.575  27.875  10.728
 2814W        W71208  38.328  20.686  14.457
 2815W        W71209  19.782  30.140  10.124
 2816W        W71210  37.391  37.052   0.433
 2817W        W71211  33.361  30.275   9.916
 2818W        W71212  27.848  21.822   2.261
 2819W        W71213  44.151  18.359  13.336
 2820W        W71214  13.233  42.570   0.999
 2821W        W71215  20.767  25.750   3.333
 2822W        W71216   7.684  30.776   2.324
 2823W        W71217  21.611  15.283   3.141
 2824W        W71218  36.866  20.617   0.258
 2825W        W71219  11.043  14.909  13.821
 2826W        W71220  20.201   3.101  14.798
 2827W        W71221   2.309  34.517  12.785
 2828W        W71222  34.541   3.989  11.137
 2829W        W71223  38.017  31.909   4.517
 2830W        W71224  20.634  12.350  14.158
 2831W        W71225  32.372  31.633  13.110
 2832W        W71226   6.163  11.118  14.514
 2833W        W71227  12.447   6.703   2.555
 2834W        W71228  44.016  28.006   0.696
 2835W        W71229   8.738   8.856   0.968
 2836W        W71230  15.376   2.862   0.749
 2837W        W71231  25.695  33.600   2.389
 2838W        W71232  10.562   3.791  11.637
 2839W        W71233  36.456  12.336  11.904
 2840W        W71234   4.809  10.754   4.487
 2841W        W71235  16.339  43.763  13.117
 2842W        W71236  10.228  19.303   3.787
 2843W        W71237  20.344   7.765  12.509
 2844W        W71238  21.659  34.067   0.251
 2845W        W71239  29.030  34.031   2.124
 2846W        W71240   3.832  42.868  11.739
 2847W        W71241  38.553  10.199  13.000
 2848W        W71242  35.623  17.582  11.272
 2849W        W71243  30.697  23.120  13.058
 2850W        W71244  10.628  31.248   4.958
 2851W        W71245  17.754  10.163  13.272
 2852W        W71246  44.014  14.312   2.097
 2853W        W71247  35.954  10.107   1.497
 2854W        W71248  23.497  28.617   0.840
 2855W        W71249  10.950  41.116  12.090
 2856W        W71250  16.253  33.413   4.739
 2857W        W71251  11.746  10.318  12.755
 2858W        W71252  42.849  19.748   2.052
 2859W        W71253   8.165   6.046  12.031
 2860W        W71254  26.771   7.796  12.612
 2861W        W71255  30.044  14.295  11.632
 2862W        W71256  38.304  16.115   4.218
 2863W        W71257  30.142  40.874   1.415
 2864W        W71258  32.161  36.857   0.383
 2865W        W71259  38.880   7.472   3.800
 2866W        W71260  43.745  10.122  14.052
 2867W        W71261  42.995  34.486   4.940
 2868W        W71262  44.525  23.069   0.336
 2869W        W71263  19.577   6.708   4.509
 2870W        W71264  21.114   5.410  11.632
 2871W        W71265  17.191  14.818  10.635
 2872W        W71266  14.642  21.725  14.249
 2873W        W71267  21.189  20.004   0.336
 2874W        W71268   6.341  41.915   0.643
 2875W        W71269   8.480  22.813  11.960
 2876W        W71270  18.126  17.362  10.352
 2877W        W71271  17.398  23.720  14.389
 2878W        W71272  33.816  33.749   1.810
 2879W        W71273  35.987  43.762   3.715
 2880W        W71274  36.538  38.704   0.774
 2881W        W71275   7.013  36.563  14.392
 2882W        W71276  11.429  17.566  11.907
 2883W        W71277  44.780  42.211  14.483
 2884W        W71278  14.102  15.882   4.526
 2885W        W71279  19.097  24.399  11.453
 2886W        W71280   9.963  20.125  13.841
 2887W        W71281   4.836  44.872  13.010
 2888W        W71282  22.063  20.279  12.986
 2889W        W71283  21.498  38.510  14.357
 2890W        W71284  21.984  41.914  11.017
 2891W        W71285  28.178  16.153   1.279
 2892W        W71286  29.461  42.148  14.832
 2893W        W71287  16.584  43.849   0.409
 2894W        W71288  19.321   1.474   1.775
 2895W        W71289  38.326  41.933   2.268
 2896W        W71290  16.284   5.294  11.230
 2897W        W71291  40.890  24.433   2.863
 2898W        W71292   4.951  21.171   4.307
 2899W        W71293  19.573  38.375  11.566
 2900W        W71294   9.795  31.570  10.713
 2901W        W71295   8.798  15.654  10.339
 2902W        W71296  13.385   6.733   2.638
 2903W        W71297  27.500  44.356   0.907
 2904W        W71298  39.025  11.425   4.283
 2905W        W71299  33.493   6.630  13.961
 2906W        W71300  14.107  32.124  12.949
 2907W        W71301   5.962  42.459   2.678
 2908W        W71302   3.454  38.452  14.855
 2909W        W71303  14.086  25.536  11.986
 2910W        W71304  33.939  24.207   4.045
 2911W        W71305  19.106  13.584  13.568
 2912W        W71306  29.866  36.332  12.530
 2913W        W71307  11.243  32.265  13.763
 2914W        W71308  33.997  42.137  14.541
 2915W        W71309   8.830  43.699  14.889
 2916W        W71310  18.033  35.119  13.828
 2917W        W71311  25.622  17.595   2.133
 2918W        W71312   0.909  12.874  10.551
 2919W        W71313  37.925   2.129  10.595
 2920W        W71314  16.765  42.973  14.282
 2921W        W71315  41.127  42.051  12.037
 2922W        W71316  43.909  21.151   1.254
 2923W        W71317   6.888  12.216   0.040
 2924W        W71318  17.609  44.666  13.941
 2925W        W71319  33.085  16.213  10.721
 2926W        W71320   6.261  24.380  11.021
 2927W        W71321   9.731  36.039  14.681
 2928W        W71322  10.041   6.969  11.491
 2929W        W71323   1.200  36.635  14.341
 2930W        W71324   5.363  20.106   4.027
 2931W        W71325  30.008  31.365   4.751
 2932W        W71326  21.622   5.798   4.069
 2933W        W71327  38.363  35.166   2.705
 2934W        W71328  18.964  19.059  11.566
 2935W        W71329  11.805   6.217   2.257
 2936W        W71330  25.409  35.250   1.789
 2937W        W71331  23.042   3.702   1.438
 2938W        W71332  36.423  44.749  14.234
 2939W        W71333   7.458  44.312  14.003
 2940W        W71334  16.973  12.729  13.832
 2941W        W71335  39.542  23.132   3.823
 2942W        W71336  33.665  32.035   4.709
 2943W        W71337  25.096  41.366  12.984
 2944W        W71338   9.752  16.073   2.650
 2945W        W71339  15.486  11.784  13.768
 2946W        W71340  38.825  31.099  13.546
 2947W        W71341  21.775   3.650  12.886
 2948W        W71342  44.185  18.421  12.826
 2949W        W71343  42.922  32.158  12.053
 2950W        W71344   6.673  37.456  12.014
 2951W        W71345  22.601  17.675   0.803
 2952W        W71346  39.734  36.611  10.106
 2953W        W71347  12.751  35.490   3.785
 2954W        W71348  19.577  33.406   4.662
 2955W        W71349  37.527   4.373  13.990
 2956W        W71350  35.553  28.416   0.723
 2957W        W71351  12.240  24.235   1.272
 2958W        W71352   3.312  27.277   3.209
 2959W        W71353  35.135   9.330  13.791
 2960W        W71354  25.932   2.309  10.760
 2961W        W71355  17.102  13.894   0.828
 2962W        W71356  41.930  23.041   0.881
 2963W        W71357  41.313   7.674   2.915
 2964W        W71358  24.665  38.314  11.686
 2965W        W71359  27.521   1.657  12.069
 2966W        W71360  24.590  21.931  12.889
 2967W        W71361  42.100  24.111   4.848
 2968W        W71362  17.014  26.766   0.366
 2969W        W71363  11.922   3.204  13.792
 2970W        W71364  20.943  41.847   1.516
 2971W        W71365  12.776  19.462   2.407
 2972W        W71366  15.079   9.409  10.472
 2973W        W71367  42.441  41.782  13.373
 2974W        W71368  10.284  28.067  10.538
 2975W        W71369  30.099  24.946  12.390
 2976W        W71370  38.874  30.640   3.081
 2977W        W71371  17.850  31.053   3.668
 2978W        W71372  13.225  18.174  11.299
 2979W        W71373  34.421  28.852   4.157
 2980W        W71374  13.929  34.147   4.937
 2981W        W71375  26.176  17.379  13.943
 2982W        W71376   9.384   2.351   1.207
 2983W        W71377  26.138  25.805   2.746
 2984W        W71378  10.269  39.721   0.948
 2985W        W71379  31.468   2.192  11.194
 2986W        W71380  18.179  35.123   3.773
 2987W        W71381   7.370  28.543   1.745
 2988W        W71382  34.354   7.692   1.263
 2989W        W71383  25.691  17.345   1.685
 2990W        W71384  30.914  19.192  12.119
 2991W        W71385  15.796  38.172  12.385
 2992W        W71386  37.645   9.558  13.347
 2993W        W71387  30.865   0.597   9.827
 2994W        W71388  34.948  30.230  12.511
 2995W        W71389   3.347  13.369  12.162
 2996W        W71390  43.335   6.276   0.681
 2997W        W71391  10.316  28.939  11.263
 2998W        W71392   5.203  29.839  12.778
 2999W        W71393  32.088  25.562   4.942
 3000W        W71394  28.756  17.320  13.985
 3001W        W71395   3.266   8.428   0.351
 3002W        W71396   6.420  43.423  11.102
 3003W        W71397  40.163  34.035   3.391
 3004W        W71398  21.687  22.054   3.876
 3005W        W71399  16.063  30.656   3.748
 3006W        W71400  30.050  34.630   0.500
 3007W        W71401  38.460   5.463  10.574
 3008W        W71402  20.592  14.211   0.350
 3009W        W71403   4.655  41.421  12.580
 3010W        W71404   0.061  14.924   4.677
 3011W        W71405   6.660  20.720   2.381
 3012W        W71406  24.511  12.323  10.056
 3013W        W71407  38.040  30.641   0.380
 3014W        W71408   0.235  29.641   4.145
 3015W        W71409  30.007  28.941   2.871
 3016W        W71410   4.227  24.155   1.233
 3017W        W71411  11.895  27.936  11.460
 3018W        W71412  42.814  27.508  10.549
 3019W        W71413  23.010  12.658  12.374
 3020W        W71414  43.756  13.303   3.437
 3021W        W71415  39.901  42.790   3.382
 3022W        W71416  18.656  14.664   4.649
 3023W        W71417  14.805  27.943   2.916
 3024W        W71418  19.517  24.532  14.584
 3025W        W71419  24.219  33.431  12.804
 3026W        W71420  12.074  34.742   3.682
 3027W        W71421  24.451  35.063  14.329
 3028W        W71422  18.590  34.277   2.011
 3029W        W71423  34.029  39.820  14.820
 3030W        W71424  12.342  11.877  14.079
 3031W        W71425  40.535  28.641   0.767
 3032W        W71426  43.589  31.493   0.002
 3033W        W71427  19.564   1.905  12.144
 3034W        W71428  34.947   9.326   1.071
 3035W        W71429  44.382  12.855  14.408
 3036W        W71430   9.155  11.915  12.348
 3037W        W71431  24.276  19.237   1.196
 3038W        W71432  33.064  20.144  11.515
 3039W        W71433  29.396  26.386   2.356
 3040W        W71434  14.356  37.548  12.037
 3041W        W71435  10.968  18.481  11.025
 3042W        W71436  28.101  40.509   1.178
 3043W        W71437   8.893  30.204   4.920
 3044W        W71438  27.621  19.529   4.536
 3045W        W71439  16.364  24.733  10.595
 3046W        W71440  35.770   5.377   2.916
 3047W        W71441  29.244  29.082   3.202
 3048W        W71442  23.290  34.911  12.979
 3049W        W71443  24.857  37.324   0.842
 3050W        W71444  32.328  14.195  12.457
 3051W        W71445   1.128  44.628  13.918
 3052W        W71446   9.380  33.617   0.337
 3053W        W71447   0.053  44.916   2.349
 3054W        W71448   9.804  43.765  10.442
 3055W        W71449  33.610  19.091  12.507
 3056W        W71450  20.154  17.279   1.919
 3057W        W71451  36.435   5.299  11.564
 3058W        W71452  11.834  27.250  14.514
 3059W        W71453  29.299  23.909  13.712
 3060W        W71454  16.596  39.257  12.862
 3061W        W71455  29.452  17.080   1.437
 3062W        W71456  18.191   1.782   2.730
 3063W        W71457  22.248   0.259  12.022
 3064W        W71458   0.331  14.248  14.218
 3065W        W71459   6.400  15.665  14.071
 3066W        W71460  30.894  32.290   1.465
 3067W        W71461  13.571  31.091   3.471
 3068W        W71462  33.587  20.799  10.573
 3069W        W71463  17.341  19.123  12.982
 3070W        W71464  14.585  17.265   2.146
 3071W        W71465   6.285   3.505  13.180
 3072W        W71466  18.380  18.321   1.137
 3073W        W71467  31.921   4.542  12.341
 3074W        W71468  30.104  35.225   1.820
 3075W        W71469  29.595  18.541   0.887
 3076W        W71470   3.933   9.195   1.284
 3077W        W71471  32.959  34.786  10.526
 3078W        W71472   9.968   1.223   5.059
 3079W        W71473  26.293  18.071   2.473
 3080W        W71474   3.690  19.900   2.302
 3081W        W71475   6.651  10.007  10.293
 3082W        W71476  39.410   9.249   4.254
 3083W        W71477  28.537  41.633   4.551
 3084W        W71478  36.014   9.344  10.622
 3085W        W71479   3.360  44.349   4.171
 3086W        W71480  35.415  15.626  11.957
 3087W        W71481   4.496  13.473  14.467
 3088W        W71482   5.032  10.843   2.672
 3089W        W71483  22.316  32.608  12.802
 3090W        W71484  14.623   9.708   5.744
 3091W        W71485  21.803  11.044   2.536
 3092W        W71486   2.093   3.984  14.860
 3093W        W71487  31.335  36.797   1.654
 3094W        W71488  15.837  35.966   2.890
 3095W        W71489   3.813   3.774   3.560
 3096W        W71490  44.011  17.297  12.407
 3097W        W71491   9.254  34.694   0.935
 3098W        W71492  35.096  42.412   1.516
 3099W        W71493  44.039  44.852  10.408
 3100W        W71494   1.816  31.481  10.949
 3101W        W71495  38.374  27.424  12.049
 3102W        W71496  39.528  19.485   1.281
 3103W        W71497   6.879  21.779   0.888
 3104W        W71498  12.333   0.053  11.098
 3105W        W71499   6.416  26.678  10.506
 3106W        W71500  40.509  14.524  11.213
 3107W        W71501   3.260  27.110  10.897
 3108W        W71502  10.750  33.088  10.620
 3109W        W71503  27.062  31.753  11.341
 3110W        W71504  29.315  40.159   0.305
 3111W        W71505  30.044   8.362  13.755
 3112W        W71506  24.235   0.021   1.722
 3113W        W71507  23.893  42.739   0.978
 3114W        W71508  12.879  37.897  10.925
 3115W        W71509  16.592  40.543  13.990
 3116W        W71510  29.497  16.748   0.283
 3117W        W71511   7.343   1.190   2.583
 3118W        W71512  16.980   6.276  13.375
 3119W        W71513  11.837  14.821  13.516
 3120W        W71514  41.802  37.147  12.952
 3121W        W71515  41.715  44.552  10.790
 3122W        W71516  24.742   3.968  11.075
 3123W        W71517  34.100   2.150  11.128
 3124W        W71518  43.766   6.644  11.511
 3125W        W71519   6.200  16.483   3.139
 3126W        W71520  32.574  22.506   2.870
 3127W        W71521  24.411  32.997  14.958
 3128W        W71522  28.610  17.820  12.034
 3129W        W71523  18.986  23.740  12.177
 3130W        W71524   8.723  14.602  14.344
 3131W        W71525  19.679  26.286   3.242
 3132W        W71526   3.267  44.811   4.415
 3133W        W71527  17.145  37.821   4.639
 3134W        W71528  23.207  42.014   0.198
 3135W        W71529  24.746  12.917   1.490
 3136W        W71530  21.962  18.177  13.752
 3137W        W71531  16.360  44.494   3.437
 3138W        W71532  44.230   7.278  12.462
 3139W        W71533  17.361  41.603  12.188
 3140W        W71534   0.832  33.283   3.403
 3141W        W71535  35.100  44.667  14.495
 3142W        W71536  36.374  40.561  13.522
 3143W        W71537  23.083  14.880  13.905
 3144W        W71538   7.387  10.672  12.890
 3145W        W71539  10.091  38.562  12.143
 3146W        W71540  38.028   6.715   2.888
 3147W        W71541  43.984  21.594  13.482
 3148W        W71542  44.318  38.655  11.644
 3149W        W71543  19.617  42.001   3.795
 3150W        W71544   4.222   8.734   3.042
 3151W        W71545  44.416  39.999   4.148
 3152W        W71546  26.610  37.584   2.210
 3153W        W71547  29.426   1.896  13.995
 3154W        W71548  27.494  10.848   3.864
 3155W        W71549  36.502  36.540   2.824
 3156W        W71550  32.406  32.050   2.791
 3157W        W71551   4.943  44.006   0.259
 3158W        W71552  24.535  17.058   4.552
 3159W        W71553   7.580  41.860   1.736
 3160W        W71554   1.747  40.017   1.518
 3161W        W71555  13.317  42.840  14.887
 3162W        W71556  25.257  25.109  12.206
 3163W        W71557  25.281  31.371  13.471
 3164W        W71558  14.566  25.435   4.768
 3165W        W71559  16.180  30.518   0.879
 3166W        W71560  29.272  20.457   0.863
 3167W        W71561   0.590  22.139  11.955
 3168W        W71562  11.855   9.232   4.612
 3169W        W71563  38.372  21.183  14.324
 3170W        W71564  17.243  22.040   3.905
 3171W        W71565   9.376   4.236   1.474
 3172W        W71566  20.931  44.860   1.781
 3173W        W71567  43.338   0.082   4.517
 3174W        W71568   1.177  19.497  11.674
 3175W        W71569  39.549  18.640  10.682
 3176W        W71570  40.849  39.545   4.204
 3177W        W71571   0.552   7.830   4.341
 3178W        W71572   6.352  43.134   0.821
 3179W        W71573  21.666  28.350   1.889
 3180W        W71574   4.261  23.053  13.403
 3181W        W71575  32.937   3.027  14.245
 3182W        W71576  23.701  38.767  13.362
 3183W        W71577  30.691   3.414  13.872
 3184W        W71578   9.810  12.541  13.508
 3185W        W71579  34.045   0.478  12.106
 3186W        W71580   1.939  25.740  12.405
 3187W        W71581  31.074  23.792   3.758
 3188W        W71582  12.850  32.951   1.269
 3189W        W71583  42.665   2.433  11.545
 3190W        W71584  19.638  26.762   1.311
 3191W        W71585   6.822  19.526   1.743
 3192W        W71586  35.615  42.856   2.952
 3193W        W71587  33.089  15.757   0.390
 3194W        W71588   0.080  33.562  12.536
 3195W        W71589  19.895  13.098  13.480
 3196W        W71590  18.830  33.463   3.971
 3197W        W71591  28.552  20.753  11.323
 3198W        W71592   4.487  34.956  12.968
 3199W        W71593  36.706  32.991  11.026
 3200W        W71594  43.445  43.354   2.805
 3201W        W71595   8.932   4.428  10.955
 3202W        W71596  10.841  16.524   2.623
 3203W        W71597   9.682   3.751   4.676
 3204W        W71598   7.694  15.722   1.877
 3205W        W71599  22.994   5.049  11.013
 3206W        W71600   8.769  34.952   5.078
 3207W        W71601   0.798  43.955   3.848
 3208W        W71602  40.424  34.319   1.632
 3209W        W71603  30.333   8.853  11.561
 3210W        W71604  24.884  31.576   4.971
 3211W        W71605  31.464  38.993  12.412
 3212W        W71606  41.019  31.831   5.322
 3213W        W71607  38.697   8.822   0.739
 3214W        W71608  20.600  25.619  10.961
 3215W        W71609  18.168  21.488  10.673
 3216W        W71610  32.438  20.237   0.851
 3217W        W71611  42.806   2.373  12.822
 3218W        W71612  37.037  13.073   2.229
 3219W        W71613   6.816  28.207   1.504
 3220W        W71614   9.807  39.791   3.698
 3221W        W71615  20.628  25.182   4.259
 3222W        W71616  27.740  25.549  13.835
 3223W        W71617  39.537  42.262  14.283
 3224W        W71618   1.983  33.926  11.703
 3225W        W71619  31.980  12.948  10.705
 3226W        W71620  26.624  30.335   1.866
 3227W        W71621  12.706  11.742   4.099
 3228W        W71622  19.442  25.000  12.112
 3229W        W71623  39.567   8.771  12.174
 3230W        W71624  37.931   0.895   4.953
 3231W        W71625   6.995  26.345  12.859
 3232W        W71626  42.286  15.412  12.963
 3233W        W71627  30.179  41.355   3.642
 3234W        W71628  35.125   1.557  12.406
 3235W        W71629   1.423   8.408   3.907
 3236W        W71630  20.036   0.016   4.291
 3237W        W71631  28.369  27.441   1.300
 3238W        W71632  44.355   0.853   0.056
 3239W        W71633  24.469   6.188  12.286
 3240W        W71634   2.522   8.660   2.209
 3241W        W71635  38.229  19.887   1.763
 3242W        W71636   7.017  42.074  13.109
 3243W        W71637  10.364  11.702   4.513
 3244W        W71638  24.017  21.806  11.169
 3245W        W71639  31.261  14.093  13.466
 3246W        W71640  42.026   1.468  14.890
 3247W        W71641  17.694  32.487   4.184
 3248W        W71642  19.728  36.371   1.039
 3249W        W71643  21.491  15.134   2.151
 3250W        W71644  41.864  11.740   4.876
 3251W        W71645   2.514   7.778   1.307
 3252W        W71646  14.550   2.144  11.167
 3253W        W71647  10.499   4.424   1.826
 3254W        W71648  44.074  27.189   4.114
 3255W        W71649  37.551  14.327   2.855
 3256W        W71650  10.114  29.526  10.653
 3257W        W71651   7.706   9.948  11.572
 3258W        W71652  35.998  24.101  13.742
 3259W        W71653   0.291  16.700  14.574
 3260W        W71654   5.247  36.242   2.708
 3261W        W71655  43.757  31.008  11.174
 3262W        W71656   1.789  17.588  14.278
 3263W        W71657  28.580  35.582  13.363
 3264W        W71658  40.125   4.185  13.898
 3265W        W71659  19.757  29.970  13.917
 3266W        W71660   8.546   5.614   5.062
 3267W        W71661  42.054  43.021  13.799
 3268W        W71662  23.616  27.523   4.017
 3269W        W71663  16.325  12.633   1.892
 3270W        W71664  18.707  34.915  13.537
 3271W        W71665  41.309  28.423  13.472
 3272W        W71666   6.304  24.989   1.068
 3273W        W71667  30.905   2.081  11.168
 3274W        W71668  21.193  10.460  12.912
 3275W        W71669  10.171   5.383  12.918
 3276W        W71670  40.830   9.287   1.512
 3277W        W71671  11.826  31.668  11.702
 3278W        W71672  43.405  22.892  12.618
 3279W        W71673  42.293   0.375  11.583
 3280W        W71674  16.804  30.180   1.911
 3281W        W71675  11.193  18.023  11.763
 3282W        W71676   2.754  24.174   2.747
 3283W        W71677  32.196  16.444   3.738
 3284W        W71678  21.828  36.612  12.786
 3285W        W71679  41.375   1.439  10.694
 3286W        W71680  39.188  38.820  10.866
 3287W        W71681  10.734  33.101   1.447
 3288W        W71682   2.987  25.478   4.037
 3289W        W71683  30.022  31.661  13.562
 3290W        W71684  40.100   8.938  12.888
 3291W        W71685  28.557  18.847   3.238
 3292W        W71686  42.284  16.874  11.456
 3293W        W71687  42.353  39.361   4.097
 3294W        W71688  32.103  22.011  11.502
 3295W        W71689   9.576   3.430   1.377
 3296W        W71690  19.911  35.821   5.119
 3297W        W71691  13.737  14.852  10.438
 3298W        W71692  14.822   3.683  10.167
 3299W        W71693  27.300  28.233   3.203
 3300W        W71694  39.345   8.592   0.058
 3301W        W71695   6.472  42.905  12.608
 3302W        W71696  44.272  17.677   0.047
 3303W        W71697  40.252  31.798   3.334
 3304W        W71698  42.008   1.088   1.218
 3305W        W71699   7.305  17.097  12.153
 3306W        W71700  33.844   3.850  10.540
 3307W        W71701  32.882  22.642   4.928
 3308W        W71702  30.695  30.996  14.980
 3309W        W71703  22.558  23.147   3.296
 3310W        W71704  21.432  28.178   3.667
 3311W        W71705  17.414  28.704  13.081
 3312W        W71706  37.488   6.322  12.777
 3313W        W71707  39.429  23.068   1.341
 3314W        W71708  27.374  39.978  11.364
 3315W        W71709  22.189  36.803   0.401
 3316W        W71710   2.542  15.128   1.511
 3317W        W71711   1.101  41.925   3.159
 3318W        W71712   5.411  33.093   1.875
 3319W        W71713  18.490  41.463  14.849
 3320W        W71714  39.943  11.787   3.145
 3321W        W71715  27.478   8.138  10.700
 3322W        W71716   5.998  17.015   4.891
 3323W        W71717  42.423   3.939  11.811
 3324W        W71718   0.975  21.523  11.254
 3325W        W71719   4.726  11.600   2.198
 3326W        W71720  35.436  15.760  12.969
 3327W        W71721  13.403  18.799   1.726
 3328W        W71722  26.562   7.774   0.015
 3329W        W71723  31.341  24.508  11.979
 3330W        W71724  19.210  42.583   4.126
 3331W        W71725  22.327  28.102  13.519
 3332W        W71726  28.627   1.783  12.853
 3333W        W71727  22.558  30.076  12.216
 3334W        W71728   5.113   5.797  14.053
 3335W        W71729  16.347  44.594  12.069
 3336W        W71730  26.654  28.395  14.326
 3337W        W71731   0.295  32.268  13.539
 3338W        W71732  18.779  40.859   0.977
 3339W        W71733   6.982  22.067  12.866
 3340W        W71734  35.902  40.848   0.796
 3341W        W71735  14.794  44.390   4.651
 3342W        W71736  20.420  15.183   3.758
 3343W        W71737  14.119   7.913  14.940
 3344W        W71738  30.601  24.490   1.475
 3345W        W71739  18.546  18.510   1.781
 3346W        W71740   6.757  31.634   2.795
 3347W        W71741  13.591   9.271   4.583
 3348W        W71742  30.069  10.420  12.733
 3349W        W71743  26.159  41.489  10.668
 3350W        W71744   8.615  41.344   0.936
 3351W        W71745  28.971   2.700   0.912
 3352W        W71746  12.376  22.265   4.297
 3353W        W71747  32.123  15.811  11.420
 3354W        W71748  40.023  41.257  11.928
 3355W        W71749  30.659  37.310   2.469
 3356W        W71750  41.205  35.600   2.819
 3357W        W71751   2.217  22.570   0.295
 3358W        W71752   9.495  36.882  12.056
 3359W        W71753  16.812  22.489   3.173
 3360W        W71754  16.561  26.515   0.387
 3361W        W71755  19.232  21.257  13.411
 3362W        W71756  20.547  41.329   4.601
 3363W        W71757   9.043   1.705   2.773
 3364W        W71758  11.380  22.796   4.660
 3365W        W71759  24.502  20.719   3.311
 3366W        W71760  37.064  13.698  11.848
 3367W        W71761  22.756   2.767   2.249
 3368W        W71762  15.301  22.937  14.433
 3369W        W71763   8.761  36.507   1.923
 3370W        W71764  13.149  18.796   1.260
 3371W        W71765  20.234   5.290  12.768
 3372W        W71766  30.917  34.868  14.829
 3373W        W71767  42.295  30.848  12.498
 3374W        W71768  24.282  19.737  11.320
 3375W        W71769  44.257   3.254   1.480
 3376W        W71770  24.076  41.824  13.926
 3377W        W71771  13.412  13.422  14.882
 3378W        W71772  29.995  16.166   4.076
 3379W        W71773  21.200  30.219   1.646
 3380W        W71774  14.573   1.712   3.650
 3381W        W71775  30.472  13.124   1.748
 3382W        W71776  17.696  19.148   1.495
 3383W        W71777  21.468  41.422   4.685
 3384W        W71778  14.405  28.638   2.840
 3385W        W71779  30.564  22.220   0.873
 3386W        W71780  31.504  27.119  11.328
 3387W        W71781  37.824  17.258  10.628
 3388W        W71782  29.165  26.435  11.116
 3389W        W71783  22.504  17.086  11.680
 3390W        W71784  40.009  37.231  11.426
 3391W        W71785  38.202  26.583  10.890
 3392W        W71786  41.336  33.442   0.917
 3393W        W71787  10.712  42.551   3.759
 3394W        W71788  32.849  10.087  14.051
 3395W        W71789  21.208   8.886   2.376
 3396W        W71790  27.674  34.685  14.683
 3397W        W71791  35.398  37.883  11.649
 3398W        W71792  29.144  19.529  12.608
 3399W        W71793   6.371  10.313   2.358
 3400W        W71794  12.888  38.493   0.395
 3401W        W71795   4.472   7.227   2.189
 3402W        W71796  43.787  11.111  11.717
 3403W        W71797  41.458  38.242   0.429
 3404W        W71798   6.273  11.776  13.987
 3405W        W71799  19.758   1.924   0.222
 3406W        W71800   8.406  42.747  10.633
 3407W        W71801  18.710  40.020  14.317
 3408W        W71802  42.852  22.426  12.995
 3409W        W71803  18.238  42.254  11.624
 3410W        W71804  36.647  15.130  12.010
 3411W        W71805  41.341   4.341   2.807
 3412W        W71806  22.481  19.650   3.375
 3413W        W71807   5.945  28.373   4.121
 3414W        W71808   2.393  17.785   0.459
 3415W        W71809  11.839   3.722  13.891
 3416W        W71810  15.195  38.569   0.223
 3417W        W71811   1.427  28.679   4.680
 3418W        W71812  41.951  28.229  12.795
 3419W        W71813  10.904   5.931   2.566
 3420W        W71814  34.842  10.440  10.884
 3421W        W71815  22.205   1.872   4.466
 3422W        W71816  13.619  28.787   3.221
 3423W        W71817  30.731  44.416  11.556
 3424W        W71818  26.010  13.046  13.414
 3425W        W71819  37.007   6.135  12.071
 3426W        W71820  14.211   2.491   0.300
 3427W        W71821  22.106  29.539   0.221
 3428W        W71822  28.161   0.575  13.013
 3429W        W71823  20.205  18.776  14.916
 3430W        W71824  17.030  38.901  14.347
 3431W        W71825  20.116  25.651  14.276
 3432W        W71826  25.336  17.437   4.043
 3433W        W71827  28.728  17.722  12.997
 3434W        W71828  44.763  15.812   4.552
 3435W        W71829  42.933   7.882  13.430
 3436W        W71830  16.652   8.637   0.845
 3437W        W71831  36.175  10.892   2.344
 3438W        W71832  42.846  26.303  11.096
 3439W        W71833   2.675   6.352  13.080
 3440W        W71834  28.401   4.482  13.987
 3441W        W71835  22.978  40.612   2.879
 3442W        W71836   8.889  31.375  12.156
 3443W        W71837  34.470  19.293  14.760
 3444W        W71838  19.760  36.474  13.004
 3445W        W71839   6.846  21.627  13.128
 3446W        W71840  21.635  19.293   2.168
 3447W        W71841  30.829  37.486  10.578
 3448W        W71842   3.401  20.199  12.380
 3449W        W71843  38.063   0.598  10.969
 3450W        W71844   8.153  10.268  10.726
 3451W        W71845  26.465   7.736   1.339
 3452W        W71846  36.603  11.869  12.548
 3453W        W71847  16.739   3.692   0.005
 3454W        W71848  43.005  19.890  12.062
 3455W        W71849  31.412  37.484   0.028
 3456W        W71850  40.550  40.973  14.251
 3457W        W71851  17.199   1.487   1.174
 3458W        W71852  32.019  25.687   0.305
 3459W        W71853  34.963   3.679  14.425
 3460W        W71854  14.936  42.523  14.378
 3461W        W71855  42.591  21.034  13.374
 3462W        W71856   6.592  21.752  10.615
 3463W        W71857  33.042  13.860   1.845
 3464W        W71858   0.340  42.701   0.244
 3465W        W71859  28.661  33.853   3.686
 3466W        W71860  11.869  37.525  14.860
 3467W        W71861   2.871   4.875  13.863
 3468W        W71862  30.887   4.697   2.652
 3469W        W71863  12.076  34.664  14.268
 3470W        W71864   7.224   9.087  12.896
 3471W        W71865   8.766   3.747  12.897
 3472W        W71866   1.388   5.286  10.879
 3473W        W71867   3.726   8.794   2.000
 3474W        W71868  25.389  29.906   2.818
 3475W        W71869   9.587  18.160  13.724
 3476W        W71870  19.656  25.262  12.484
 3477W        W71871  39.440   6.170  13.481
 3478W        W71872   0.878   2.478   0.011
 3479W        W71873  40.240  26.892   2.120
 3480W        W71874  24.563  27.447   2.302
 3481W        W71875  11.259  44.764   3.897
 3482W        W71876   5.285  33.975  11.160
 3483W        W71877   1.529  16.951   0.873
 3484W        W71878  38.027   8.156   2.200
 3485W        W71879  32.043   3.925  12.154
 3486W        W71880  33.310   7.237  13.654
 3487W        W71881  35.546   1.097   1.383
 3488W        W71882  13.091  39.924   4.585
 3489W        W71883  12.734  31.968  12.622
 3490W        W71884  12.671  32.529   4.657
 3491W        W71885  43.739  40.516   4.169
 3492W        W71886  32.960  22.474   0.323
 3493W        W71887  33.065  19.750   0.136
 3494W        W71888  27.482  13.521  13.776
 3495W        W71889  36.896  39.859   3.087
 3496W        W71890  19.032  43.460  13.116
 3497W        W71891  12.940  42.345   1.416
 3498W        W71892  14.007  42.750  10.277
 3499W        W71893  10.228  13.379  13.123
 3500W        W71894  29.323  12.657   9.901
 3501W        W71895  23.366  14.163  14.806
 3502W        W71896  25.304   0.803   4.554
 3503W        W71897   0.013  13.273   2.747
 3504W        W71898  27.889  28.018  11.399
 3505W        W71899  27.493  10.146  10.625
 3506W        W71900  29.073   5.224   2.854
 3507W        W71901  13.794   0.132  12.611
 3508W        W71902  40.738  42.389   0.943
 3509W        W71903  20.538  37.224  12.094
 3510W        W71904  21.771  33.276  10.732
 3511W        W71905  12.001   2.690   0.198
 3512W        W71906  21.307  10.956  11.221
 3513W        W71907  39.445  25.308  11.511
 3514W        W71908  10.209   1.443   2.819
 3515W        W71909   0.237  14.573   2.879
 3516W        W71910  35.879   5.916   0.179
 3517W        W71911  38.467  34.091  10.831
 3518W        W71912   7.132   4.906   2.647
 3519W        W71913   4.717  20.551   0.414
 3520W        W71914  42.826  17.586  14.956
 3521W        W71915  12.597  15.162   3.182
 3522W        W71916  20.727   9.917   2.815
 3523W        W71917  22.454  19.092  11.878
 3524W        W71918  21.185  40.925   0.308
 3525W        W71919   8.457   5.276  11.135
 3526W        W71920  42.448  12.659  13.088
 3527W        W71921  22.139  15.757  12.931
 3528W        W71922  21.254  17.659   0.217
 3529W        W71923  31.121  21.878  13.852
 3530W        W71924  24.014  43.828   1.675
 3531W        W71925  15.923   0.651   5.160
 3532W        W71926  31.876  10.133   2.184
 3533W        W71927  33.079   4.921  14.889
 3534W        W71928  44.430  22.415  13.275
 3535W        W71929  14.214  38.543  13.873
 3536W        W71930  42.081  33.935  11.039
 3537W        W71931  10.704  27.564  13.503
 3538W        W71932  32.629   5.201  14.955
 3539W        W71933  32.895  33.899   4.558
 3540W        W71934   2.359  15.223  11.463
 3541W        W71935  41.872  17.859   4.043
 3542W        W71936   3.284   8.371   2.694
 3543W        W71937  39.981   3.837   0.320
 3544W        W71938   6.553  40.855  13.949
 3545W        W71939  43.692  32.540  13.300
 3546W        W71940  43.202  20.531   4.073
 3547W        W71941   3.013  32.307   0.719
 3548W        W71942  16.153  43.924   4.687
 3549W        W71943  27.936  27.184   2.642
 3550W        W71944   1.395  43.114   3.703
 3551W        W71945  30.869  30.941   1.806
 3552W        W71946  43.386   3.906  14.830
 3553W        W71947   9.399  21.672  14.809
 3554W        W71948  44.479   8.637  14.742
 3555W        W71949   2.426  44.136   2.313
 3556W        W71950  34.275  10.822   1.701
 3557W        W71951   1.992  10.288   4.541
 3558W        W71952  33.477  36.071   2.774
 3559W        W71953   0.177   1.241   2.821
 3560W        W71954  18.732   0.347  13.320
 3561W        W71955  14.458   8.886  14.847
 3562W        W71956   4.171  25.968   2.815
 3563W        W71957   9.796  30.656  14.040
 3564W        W71958   3.231   9.261  12.089
 3565W        W71959  40.827  44.573  11.222
 3566W        W71960  32.943  39.555   4.302
 3567W        W71961  30.599  23.975   3.808
 3568W        W71962  22.087  40.955  12.284
 3569W        W71963  21.752   0.831  14.835
 3570W        W71964  15.777   2.067   1.622
 3571W        W71965  25.083   0.989   4.112
 3572W        W71966  19.720   6.913   0.079
 3573W        W71967   1.024   4.072  13.350
 3574W        W71968  41.947  44.168   1.619
 3575W        W71969  29.381  31.556  14.021
 3576W        W71970   1.356   5.388  12.371
 3577W        W71971  13.528   9.330   3.654
 3578W        W71972  43.505  39.642  14.944
 3579W        W71973  41.921  40.406   1.978
 3580W        W71974  32.106  15.195  11.079
 3581W        W71975   5.898   4.008   3.567
 3582W        W71976  27.749  32.633   2.082
 3583W        W71977  25.667   2.779  13.862
 3584W        W71978  41.303  20.514  14.346
 3585W        W71979  34.250  43.369  12.559
 3586W        W71980  17.584  22.685  13.473
 3587W        W71981  41.592  16.685   0.215
 3588W        W71982  41.439  12.073   0.270
 3589W        W71983  37.931  30.945   3.952
 3590W        W71984  30.234   1.485  13.841
 3591W        W71985  14.654  12.333  14.919
 3592W        W71986   0.330  28.971   2.104
 3593W        W71987  35.898   8.120  13.695
 3594W        W71988  39.013  40.298   2.689
 3595W        W71989   9.770  10.943  12.161
 3596W        W71990  28.314   7.720  12.440
 3597W        W71991  10.189  29.629  12.045
 3598W        W71992  33.557  10.430  13.033
 3599W        W71993  22.067  21.751   4.130
 3600W        W71994  13.325   3.870   1.761
 3601W        W71995  10.767  44.659   1.362
 3602W        W71996  12.224  21.667  14.647
 3603W        W71997  12.126  35.436  13.139
 3604W        W71998  24.727  22.000   2.767
 3605W        W71999   7.745  10.497   4.157
 3606W        W72000  37.380   8.443  14.556
 3607W        W72001  32.230  39.012  11.679
 3608W        W72002   3.481  32.879  12.982
 3609W        W72003  10.441  16.209  13.780
 3610W        W72004  20.488  11.867  12.018
 3611W        W72005  10.600  44.864  11.853
 3612W        W72006   5.191  41.010   2.120
 3613W        W72007  10.613  10.410   1.845
 3614W        W72008   2.268  42.911   2.420
 3615W        W72009  39.413  35.144   4.075
 3616W        W72010   0.234  39.688  11.446
 3617W        W72011  44.411  10.572   0.814
 3618W        W72012  40.802   7.334  10.777
 3619W        W72013  30.546  19.276   2.415
 3620W        W72014   6.908  17.693   2.083
 3621W        W72015  26.022  17.307  10.976
 3622W        W72016  44.823  35.366   3.643
 3623W        W72017  37.275  26.471   2.252
 3624W        W72018  21.126  43.980   2.779
 3625W        W72019  16.142  28.064   0.185
 3626W        W72020  42.465  14.092   0.844
 3627W        W72021   1.993  31.813   1.198
 3628W        W72022  16.848  22.542   1.477
 3629W        W72023   8.770  32.845   0.362
 3630W        W72024  38.533  28.587  14.441
 3631W        W72025  20.156  25.751  11.623
 3632W        W72026  10.442  30.988   2.728
 3633W        W72027  11.478   7.881   0.508
 3634W        W72028  38.759   3.382   2.861
 3635W        W72029  38.567  14.761  14.685
 3636W        W72030  34.322  25.858   0.371
 3637W        W72031  23.231   5.931  13.915
 3638W        W72032  35.272  13.695   4.681
 3639W        W72033  43.867  42.849  10.561
 3640W        W72034  17.082   8.100  12.484
 3641W        W72035  15.842  35.646   3.709
 3642W        W72036  43.626  41.892   4.871
 3643W        W72037  23.646   0.525   1.306
 3644W        W72038   1.260   9.899  14.403
 3645W        W72039   5.885  29.333  11.637
 3646W        W72040  20.661  15.186  11.707
 3647W        W72041  16.048  20.260   5.154
 3648W        W72042  16.241  35.613   1.157
 3649W        W72043  20.159  23.206   1.835
 3650W        W72044  31.675  44.020  11.644
 3651W        W72045  29.595  38.459   4.588
 3652W        W72046   3.600   0.224  13.438
 3653W        W72047  13.048  37.884  11.423
 3654W        W72048  11.678  14.438   1.743
 3655W        W72049  18.710  22.832  14.305
 3656W        W72050  43.720  32.384   2.141
 3657W        W72051  39.413  11.772   4.267
 3658W        W72052  21.107   9.364   2.242
 3659W        W72053   4.797  44.801  10.221
 3660W        W72054  14.931   9.750   4.782
 3661W        W72055  13.567  17.814   1.879
 3662W        W72056  10.753  14.691  14.760
 3663W        W72057  17.691   0.029  14.821
 3664W        W72058  20.278  25.173   5.645
 3665W        W72059  20.667   6.793   3.850
 3666W        W72060  38.211  43.641   0.902
 3667W        W72061  41.605   7.638  13.950
 3668W        W72062  20.710  27.025   0.534
 3669W        W72063  33.221  11.054   2.318
 3670W        W72064  12.610   2.366  12.608
 3671W        W72065  12.609  28.290   0.760
 3672W        W72066  36.502  33.173   4.164
 3673W        W72067  22.465  15.350  13.781
 3674W        W72068   6.085  26.567   1.808
 3675W        W72069  32.663  44.498   1.670
 3676W        W72070  20.527  27.729  14.434
 3677W        W72071   3.161  20.766   2.212
 3678W        W72072  14.449  23.557   2.947
 3679W        W72073  14.716   9.382  13.970
 3680W        W72074   2.930   7.611  14.047
 3681W        W72075  29.383   6.656   2.620
 3682W        W72076  28.399  33.120  12.883
 3683W        W72077  38.937  15.473  12.000
 3684W        W72078  42.962   9.356   4.406
 3685W        W72079   8.685  39.267   2.341
 3686W        W72080   8.196  43.252  11.456
 3687W        W72081   9.693  21.106  14.060
 3688W        W72082  28.875  31.987   2.688
 3689W        W72083   7.956  43.068   3.651
 3690W        W72084  19.592  42.448  14.980
 3691W        W72085  43.886   5.990   3.863
 3692W        W72086  14.740  15.271  12.834
 3693W        W72087  12.091  12.225  13.325
 3694W        W72088   2.209   3.739  10.959
 3695W        W72089  26.137  24.109   0.302
 3696W        W72090  13.724  21.713   0.719
 3697W        W72091  22.411  31.507   3.900
 3698W        W72092  16.532  11.381   3.176
 3699W        W72093   0.819  13.149   0.725
 3700W        W72094  16.236  19.769   3.077
 3701W        W72095  15.077  18.076   3.209
 3702W        W72096  19.238   4.505   3.832
 3703W        W72097   5.788   1.717  13.067
 3704W        W72098   7.648  11.714  11.783
 3705W        W72099  25.211  39.905  14.796
 3706W        W72100  25.508  36.941  11.386
 3707W        W72101  16.289  14.691   4.352
 3708W        W72102  38.007  14.108  14.867
 3709W        W72103  36.547  32.469  12.850
 3710W        W72104  11.905   0.968   0.609
 3711W        W72105   7.722  38.574  13.691
 3712W        W72106   6.800   5.275   1.380
 3713W        W72107  37.447  12.583  11.687
 3714W        W72108  32.087  21.331  10.649
 3715W        W72109  40.129  25.138   1.236
 3716W        W72110  21.165   9.893  14.102
 3717W        W72111  22.106   8.795   3.223
 3718W        W72112  38.584   7.415   3.358
 3719W        W72113  37.464  29.112   3.612
 3720W        W72114  10.938  37.314  12.863
 3721W        W72115  34.829  39.384  11.318
 3722W        W72116  26.712  38.163   4.885
 3723W        W72117  13.919  13.369  14.930
 3724W        W72118  31.990  33.891  12.471
 3725W        W72119   4.955  20.102   1.155
 3726W        W72120  33.056  35.873   4.579
 3727W        W72121  44.254  41.041  14.248
 3728W        W72122  22.089  12.197  11.419
 3729W        W72123  20.628  22.029  12.837
 3730W        W72124  21.525  27.339  11.198
 3731W        W72125  43.527  29.166  14.490
 3732W        W72126   5.694  42.030  12.030
 3733W        W72127  32.133  13.756  11.627
 3734W        W72128  19.117  42.733   2.317
 3735W        W72129  31.648  25.994  11.884
 3736W        W72130  41.070  13.188   1.856
 3737W        W72131  23.598  14.570   0.430
 3738W        W72132  32.617  11.740   1.620
 3739W        W72133  11.889  27.227  12.490
 3740W        W72134  13.264  24.090  13.102
 3741W        W72135  34.516   0.386   4.556
 3742W        W72136  15.264  35.988  13.630
 3743W        W72137  21.951  41.324   0.467
 3744W        W72138   1.720  13.623  12.919
 3745W        W72139  26.131  30.512   2.828
 3746W        W72140  44.394   4.543  11.505
 3747W        W72141   9.206  32.334  14.815
 3748W        W72142  26.222  20.698  10.780
 3749W        W72143  16.814  23.711   9.591
 3750W        W72144  10.808  41.730  14.781
 3751W        W72145  26.444  12.358  13.499
 3752W        W72146  17.002  30.971   0.769
 3753W        W72147  30.192  14.612  14.284
 3754W        W72148  35.932  41.232   2.124
 3755W        W72149  13.907  24.572  10.769
 3756W        W72150  22.441  35.520   3.224
 3757W        W72151  42.402   6.209  11.976
 3758W        W72152  32.673  44.216   2.110
 3759W        W72153  10.292  29.096  13.732
 3760W        W72154  43.107  15.810   9.815
 3761W        W72155  34.294  43.808   2.715
 3762W        W72156  23.824  28.539   1.833
 3763W        W72157   7.761  16.186   3.273
 3764W        W72158   2.215  18.621   0.790
 3765W        W72159  23.587  25.420  11.620
 3766W        W72160  41.769  26.723  11.299
 3767W        W72161  13.025   5.459   3.635
 3768W        W72162  24.615  31.437  13.058
 3769W        W72163  18.891  22.637   4.495
 3770W        W72164  30.426  30.098   1.510
 3771W        W72165  40.802  17.626  11.500
 3772W        W72166   6.413  34.536   3.137
 3773W        W72167  28.054  44.497   2.162
 3774W        W72168  18.240   7.953  10.797
 3775W        W72169   3.423  37.652  10.762
 3776W        W72170  32.172  37.084  10.698
 3777W        W72171   9.660  39.093  12.599
 3778W        W72172  43.325  35.363  10.047
 3779W        W72173   3.547  11.209   1.499
 3780W        W72174  24.619   5.988  14.003
 3781W        W72175  11.867  26.412  13.959
 3782W        W72176  43.441  31.091  10.757
 3783W        W72177   4.337   0.601  14.985
 3784W        W72178  25.537   0.494   0.865
 3785W        W72179  31.736   2.566   1.204
 3786W        W72180  15.408  39.411  10.612
 3787W        W72181  13.614  44.913  14.992
 3788W        W72182  22.760  19.707  13.628
 3789W        W72183  40.543   6.609   0.639
 3790W        W72184  19.257  22.090   1.819
 3791W        W72185   2.214  14.910   4.280
 3792W        W72186  34.500  29.477   3.325
 3793W        W72187  18.994  35.546   4.305
 3794W        W72188  25.484  19.585  14.019
 3795W        W72189  42.441   3.746  12.304
 3796W        W72190  44.294   7.412  14.073
 3797W        W72191  33.582   1.661   0.940
 3798W        W72192  12.270   5.222  13.271
 3799W        W72193  12.038  23.789  13.389
 3800W        W72194  13.129  39.021   4.776
 3801W        W72195  36.119  41.056  11.995
 3802W        W72196   7.513  38.355  14.364
 3803W        W72197   9.622   6.982   0.497
 3804W        W72198  10.983  38.294   4.027
 3805W        W72199  30.378  41.230  14.324
 3806W        W72200  35.283   0.345  11.535
 3807W        W72201  19.804  28.639  13.436
 3808W        W72202  37.907   2.890  11.921
 3809W        W72203  17.840  36.903  11.918
 3810W        W72204  11.780  25.137   4.157
 3811W        W72205  35.542  19.788  14.881
 3812W        W72206   5.163   7.364  12.884
 3813W        W72207   8.271  28.945   3.105
 3814W        W72208  13.879  10.854  10.968
 3815W        W72209  42.885  31.236  10.377
 3816W        W72210   6.810  38.488  11.201
 3817W        W72211  14.186  19.207   4.041
 3818W        W72212  36.924  41.494   1.299
 3819W        W72213  43.517  37.976   0.839
 3820W        W72214  21.075  13.649  14.000
 3821W        W72215  44.441   2.891  10.221
 3822W        W72216  39.992  42.558   0.056
 3823W        W72217  26.066  33.815   2.116
 3824W        W72218  10.311  38.388  14.490
 3825W        W72219   5.265  41.470   2.335
 3826W        W72220  28.209   3.879  10.462
 3827W        W72221  27.411  25.663  13.444
 3828W        W72222  26.012  25.121   0.308
 3829W        W72223  10.603   1.894  13.539
 3830W        W72224   9.319   6.384  14.912
 3831W        W72225  15.342  42.282  11.666
 3832W        W72226  37.442  13.257  12.447
 3833W        W72227  21.510  33.419   4.822
 3834W        W72228  26.780   5.207   1.693
 3835W        W72229  30.284  18.399  13.841
 3836W        W72230  35.433  41.531  11.591
 3837W        W72231  31.925  13.141   2.788
 3838W        W72232  40.087  10.658   2.385
 3839W        W72233  16.496  18.160  14.991
 3840W        W72234  18.185  29.649   1.903
 3841W        W72235  44.720  12.379  14.752
 3842W        W72236  35.171  33.056  11.859
 3843W        W72237  25.583  25.575  12.026
 3844W        W72238  34.891  17.764   4.411
 3845W        W72239  30.146  34.096   3.251
 3846W        W72240   6.737  32.521   1.212
 3847W        W72241  15.485   5.493   5.353
 3848W        W72242  28.635  23.207   3.868
 3849W        W72243  36.396  24.088  10.046
 3850W        W72244  44.438   6.796   3.539
 3851W        W72245  33.688  40.809  14.868
 3852W        W72246  13.688   9.827  14.461
 3853W        W72247  15.279  44.899  11.384
 3854W        W72248  35.249  21.535  13.875
 3855W        W72249  31.084  24.226  11.631
 3856W        W72250  21.572  34.934  11.486
 3857W        W72251  19.318  40.957  11.201
 3858W        W72252  15.614  42.548   4.680
 3859W        W72253  39.894   3.445  12.560
 3860W        W72254  24.121   3.939   0.797
 3861W        W72255  42.285  37.922   3.157
 3862W        W72256  18.286  42.872  12.516
 3863W        W72257  15.086  30.044   1.841
 3864W        W72258   6.836  10.776   1.701
 3865W        W72259   3.870  44.526  12.988
 3866W        W72260  41.375  19.993  14.382
 3867W        W72261  11.329  27.063  14.477
 3868W        W72262  43.466  39.657  13.440
 3869W        W72263  42.984   3.983   2.807
 3870W        W72264  22.762  31.177  13.886
 3871W        W72265  17.853  44.002   4.072
 3872W        W72266  37.528  20.171   2.899
 3873W        W72267   6.782  32.527   2.254
 3874W        W72268  14.705  34.254   0.902
 3875W        W72269  39.292  33.012   2.802
 3876W        W72270  15.495  28.475  11.922
 3877W        W72271   9.322  16.825  13.826
 3878W        W72272  16.700  24.765  13.433
 3879W        W72273  25.083  16.160   3.152
 3880W        W72274  18.382  27.931  14.896
 3881W        W72275  32.417   9.400  11.359
 3882W        W72276   9.155  24.290  13.383
 3883W        W72277   6.965  13.293   3.325
 3884W        W72278  32.546   7.338   4.730
 3885W        W72279  35.519   0.699  13.700
 3886W        W72280  15.127  13.249  11.424
 3887W        W72281  19.104  16.082  13.362
 3888W        W72282  40.533   7.320   3.864
 3889W        W72283  34.372  20.086  14.407
 3890W        W72284   4.909  29.331  12.660
 3891W        W72285  15.718  24.428   4.598
 3892W        W72286  26.946  17.305   2.491
 3893W        W72287  28.229  23.561  12.309
 3894W        W72288  44.044  22.288   2.750
 3895W        W72289  28.487   3.251   0.106
 3896W        W72290  43.780  15.662  13.570
 3897W        W72291   8.623  39.256   1.314
 3898W        W72292  31.323   6.185   0.459
 3899W        W72293  18.883   6.169   0.954
 3900W        W72294  23.047  17.683   4.168
 3901W        W72295   7.411  36.156   3.154
 3902W        W72296  38.533  40.083   2.696
 3903W        W72297  44.756  42.438  14.012
 3904W        W72298   2.489  25.896   0.477
 3905W        W72299  39.064  43.801  13.373
 3906W        W72300  26.612   8.830  10.708
 3907W        W72301  30.858  15.965   0.988
 3908W        W72302  11.257  28.602  13.551
 3909W        W72303  13.150  25.068   3.329
 3910W        W72304  42.056  42.778   3.420
 3911W        W72305   7.099  43.917   0.832
 3912W        W72306  25.030  22.635   1.376
 3913W        W72307  36.349   0.798   3.829
 3914W        W72308   0.934  26.542   4.936
 3915W        W72309  19.902  12.701   2.349
 3916W        W72310  20.800  12.704  13.842
 3917W        W72311  39.957  32.147  14.710
 3918W        W72312   7.826  28.028  14.259
 3919W        W72313  21.640  41.741   0.466
 3920W        W72314   0.100   7.372   3.818
 3921W        W72315  17.750  31.475   0.829
 3922W        W72316  29.184  16.438   2.234
 3923W        W72317  10.167  34.981  14.509
 3924W        W72318   4.910   4.853   2.749
 3925W        W72319  29.603  30.757  10.262
 3926W        W72320  44.501  27.012  13.320
 3927W        W72321   3.616  35.844   3.577
 3928W        W72322  15.956   3.838  11.176
 3929W        W72323  39.986  12.234   2.871
 3930W        W72324  27.250   2.292  14.433
 3931W        W72325  42.992  12.656  14.405
 3932W        W72326  42.354  25.043   2.350
 3933W        W72327  26.201  13.890  11.609
 3934W        W72328  37.132  43.349  12.962
 3935W        W72329  17.201  14.414   2.647
 3936W        W72330  24.927  10.437  11.665
 3937W        W72331  18.226  42.925   0.109
 3938W        W72332  10.325  20.914  11.055
 3939W        W72333  10.422  27.425  12.162
 3940W        W72334  37.455  42.426   1.747
 3941W        W72335  13.639  40.419  12.305
 3942W        W72336  30.504  23.644  10.673
 3943W        W72337  21.027  40.891  12.504
 3944W        W72338  32.868   0.462   3.664
 3945W        W72339  36.587  29.518   0.366
 3946W        W72340  31.525  33.574   1.700
 3947W        W72341  39.516  25.192   4.455
 3948W        W72342   7.945  29.551  11.212
 3949W        W72343  44.957   2.084  11.087
 3950W        W72344   8.839  34.357   4.570
 3951W        W72345  10.158   1.951   2.792
 3952W        W72346  22.558   1.900  11.209
 3953W        W72347  11.424  39.488  11.480
 3954W        W72348  43.001  43.054   1.730
 3955W        W72349  11.392  40.537   4.720
 3956W        W72350   2.443   5.299   2.146
 3957W        W72351  42.276  11.207   4.089
 3958W        W72352  33.199   0.288   4.019
 3959W        W72353  17.270  16.351  13.327
 3960W        W72354  38.481  23.252  11.710
 3961W        W72355  26.114  20.039   4.592
 3962W        W72356   0.331  18.703   4.915
 3963W        W72357  40.561  22.444  14.267
 3964W        W72358  11.630   8.323   3.792
 3965W        W72359   7.446  44.753   2.703
 3966W        W72360  33.756   6.897  12.169
 3967W        W72361  22.486  30.201   3.433
 3968W        W72362  29.159   2.195   2.059
 3969W        W72363  16.132   2.470  11.201
 3970W        W72364  38.965   6.993   0.380
 3971W        W72365  14.894  39.419   1.771
 3972W        W72366  16.628  21.161   1.449
 3973W        W72367  16.255  30.014  13.490
 3974W        W72368  44.693  10.635  11.337
 3975W        W72369  37.066  21.618   0.285
 3976W        W72370  32.710  34.621   0.818
 3977W        W72371  19.642  39.348  10.685
 3978W        W72372  15.380  34.876   0.820
 3979W        W72373  31.037   7.392   3.644
 3980W        W72374  19.258  23.054  10.649
 3981W        W72375   5.158  23.045   4.207
 3982W        W72376  38.790  24.398   1.231
 3983W        W72377  13.765   8.244  14.748
 3984W        W72378  26.471  24.984   3.439
 3985W        W72379   4.956   8.136  13.076
 3986W        W72380  42.781   3.903  11.398
 3987W        W72381   7.816  24.757   3.738
 3988W        W72382  11.819  38.505   2.104
 3989W        W72383  37.621  10.061  12.765
 3990W        W72384  34.285   5.581  14.340
 3991W        W72385  43.067  33.611  13.782
 3992W        W72386  43.010  25.773   3.294
 3993W        W72387  33.971  40.577   3.902
 3994W        W72388   0.738   8.613   5.116
 3995W        W72389  10.102  11.461  10.319
 3996W        W72390  26.170  39.902   2.166
 3997W        W72391  19.203   9.019  12.859
 3998W        W72392  38.821  43.413  13.653
 3999W        W72393  36.939  37.873   3.655
 4000W        W72394  35.421   3.280  14.974
 4001W        W72395  29.513  36.044   0.041
 4002W        W72396  12.674  24.696   4.975
 4003W        W72397   3.466  18.591   4.148
 4004W        W72398  28.386  37.041  11.230
 4005W        W72399  17.132  20.755   2.967
 4006W        W72400  20.731  35.151  14.454
 4007W        W72401  17.321  23.642   0.437
 4008W        W72402  31.611  21.247   3.450
 4009W        W72403  27.499  22.272  10.616
 4010W        W72404   7.205  43.581   2.125
 4011W        W72405   6.660  13.123   4.617
 4012W        W72406  29.403  13.758  12.406
 4013W        W72407  38.818   7.614  11.584
 4014W        W72408  30.360  43.008  10.929
 4015W        W72409  24.259   0.822   4.576
 4016W        W72410  38.672  37.351  13.446
 4017W        W72411  37.810  18.588  11.197
 4018W        W72412   2.462  29.940  13.434
 4019W        W72413  43.865  31.665   3.645
 4020W        W72414  25.740  17.836   1.634
 4021W        W72415  41.588   6.242   3.222
 4022W        W72416  43.872  21.000  10.454
 4023W        W72417  26.507   6.224   0.510
 4024W        W72418  36.456  43.227   1.335
 4025W        W72419  34.962   4.900   1.964
 4026W        W72420  21.092  35.872  13.092
 4027W        W72421  39.397   2.860   1.289
 4028W        W72422  28.545  15.579  10.641
 4029W        W72423  22.477  29.256  14.739
 4030W        W72424   7.174  32.574   3.930
 4031W        W72425  36.513  13.379   4.521
 4032W        W72426  41.458   7.142   4.288
 4033W        W72427  36.893  44.091   0.379
 4034W        W72428  16.137  29.880   4.236
 4035W        W72429  32.637  19.989  13.349
 4036W        W72430  10.386  18.011  13.419
 4037W        W72431  32.867  22.636   0.799
 4038W        W72432  29.271  21.523  14.935
 4039W        W72433   9.832   9.056  14.326
 4040W        W72434  26.051   2.681   0.308
 4041W        W72435  22.027  13.241   4.129
 4042W        W72436  38.967  21.226  14.057
 4043W        W72437  21.677  29.095  14.343
 4044W        W72438   1.423  27.994  14.033
 4045W        W72439  25.519  37.270   1.741
 4046W        W72440  38.453  21.806   0.417
 4047W        W72441   1.392  29.456  13.431
 4048W        W72442   0.347  41.200  10.433
 4049W        W72443  39.495  36.497  12.104
 4050W        W72444   4.997  24.672  14.930
 4051W        W72445   3.675  27.670   0.632
 4052W        W72446  28.183  22.704  14.293
 4053W        W72447  42.289  20.447   4.601
 4054W        W72448  15.629  34.494  11.212
 4055W        W72449  23.620  23.502  12.876
 4056W        W72450  25.102  44.526  13.971
 4057W        W72451  32.108  17.665   4.198
 4058W        W72452  22.618   4.266   3.735
 4059W        W72453   7.743  22.161   1.710
 4060W        W72454  19.193  21.954   0.953
 4061W        W72455  39.899  10.568  11.066
 4062W        W72456  41.781  42.477  11.649
 4063W        W72457  24.998  42.616  11.599
 4064W        W72458  14.132  38.649  10.159
 4065W        W72459   1.194  23.293  12.110
 4066W        W72460  30.192  16.193   1.325
 4067W        W72461  39.924   5.190   2.730
 4068W        W72462  21.754   5.497   2.296
 4069W        W72463  25.069   1.706   3.653
 4070W        W72464  13.083  19.554  11.087
 4071W        W72465  11.162  33.688   3.195
 4072W        W72466   1.817  37.554   1.286
 4073W        W72467  32.616  33.450   3.691
 4074W        W72468  30.586   5.880   1.353
 4075W        W72469  31.654  13.012   0.381
 4076W        W72470  23.607   5.957  14.390
 4077W        W72471  23.955  40.144  13.342
 4078W        W72472  39.803  20.836   1.253
 4079W        W72473   0.436  30.943  13.858
 4080W        W72474  22.629   7.298  10.887
 4081W        W72475   6.665  16.728  12.906
 4082W        W72476  37.007  33.841   2.678
 4083W        W72477   4.686  42.606   4.576
 4084W        W72478  32.346  39.556  12.459
 4085W        W72479  17.426  20.299   2.300
 4086W        W72480   4.869  34.698   4.078
 4087W        W72481  18.220  12.820  11.267
 4088W        W72482  41.586  40.351   0.957
 4089W        W72483   1.708  29.572  12.076
 4090W        W72484  41.008  24.138  11.208
 4091W        W72485   0.910   2.378  10.207
 4092W        W72486  44.896  10.666   0.619
 4093W        W72487   8.882   1.998  12.185
 4094W        W72488   6.275  40.848  11.937
 4095W        W72489  42.704  36.406  12.939
 4096W        W72490  37.320   8.191   0.940
 4097W        W72491  39.959  42.688  11.038
 4098W        W72492  41.331  37.568  13.391
 4099W        W72493   6.439   9.109  11.927
 4100W        W72494  18.802   4.439  13.025
 4101W        W72495  19.532  28.070   1.834
 4102W        W72496  35.202  34.980   1.377
 4103W        W72497  21.518  32.186   3.142
 4104W        W72498  11.704  18.763   2.728
 4105W        W72499  33.967   6.881   4.577
 4106W        W72500  10.193  25.512  13.858
 4107W        W72501  33.320  17.527  14.918
 4108W        W72502   7.815   7.016   1.189
 4109W        W72503  36.939   2.408  11.365
 4110W        W72504  29.020  15.030  11.234
 4111W        W72505  33.001   8.159  13.421
 4112W        W72506  23.372  13.242   4.903
 4113W        W72507  24.244  29.324   2.360
 4114W        W72508  19.764  24.752   3.694
 4115W        W72509  13.120  19.958   0.931
 4116W        W72510   2.441  44.918  12.597
 4117W        W72511   2.142  28.041  13.454
 4118W        W72512  31.505  24.710  14.872
 4119W        W72513  44.794   6.197  12.220
 4120W        W72514  39.923  34.982   2.711
 4121W        W72515   0.060  44.189   0.306
 4122W        W72516  36.374  44.531   1.918
 4123W        W72517  26.006  39.699   2.621
 4124W        W72518   6.163   7.740  13.860
 4125W        W72519  14.096  38.040  13.905
 4126W        W72520   5.181  30.049  10.352
 4127W        W72521  41.110  14.031   2.867
 4128W        W72522  44.943   0.691   4.400
 4129W        W72523  36.145  24.981  14.569
 4130W        W72524  24.664  27.401   3.782
 4131W        W72525  13.078  44.877  14.995
 4132W        W72526   0.271  23.237  12.966
 4133W        W72527  10.640  37.211   0.735
 4134W        W72528  33.990  28.748  11.481
 4135W        W72529  14.846  25.093   1.869
 4136W        W72530  27.965  44.199   2.577
 4137W        W72531  20.170   2.855   3.152
 4138W        W72532  34.256   8.901  10.654
 4139W        W72533  11.072   4.403   0.890
 4140W        W72534  30.177  39.576   3.501
 4141W        W72535  11.658  39.497  12.798
 4142W        W72536  35.861   2.881  13.571
 4143W        W72537  15.114   3.164  12.081
 4144W        W72538   6.421  33.471   1.719
 4145W        W72539   4.226  44.461   1.339
 4146W        W72540   3.625  38.533  12.641
 4147W        W72541  23.216   6.896  10.372
 4148W        W72542  39.527  37.957  13.592
 4149W        W72543  43.348  15.379   3.692
 4150W        W72544   2.875   4.444  12.856
 4151W        W72545  36.521   4.289   4.558
 4152W        W72546  35.164   6.664   3.708
 4153W        W72547  38.210  16.045   0.491
 4154W        W72548   0.143   7.858  11.862
 4155W        W72549  25.472  19.137  11.083
 4156W        W72550  17.194   9.394   1.318
 4157W        W72551  15.842  12.093  12.467
 4158W        W72552   4.416  44.314   4.525
 4159W        W72553  25.697   1.285  14.051
 4160W        W72554  41.421  18.544   3.595
 4161W        W72555   8.047   6.513   0.837
 4162W        W72556   4.415  30.322  11.359
 4163W        W72557  18.930  23.498   1.217
 4164W        W72558  10.378  30.117   4.283
 4165W        W72559  11.706  27.322   4.184
 4166W        W72560  13.631   8.407  11.452
 4167W        W72561  20.485   0.474   0.636
 4168W        W72562  22.658  38.084   1.742
 4169W        W72563  27.817   1.221   5.028
 4170W        W72564  24.216  16.638   4.435
 4171W        W72565  39.984  17.314  11.583
 4172W        W72566  39.476  30.967   2.195
 4173W        W72567  33.123   9.457  12.180
 4174W        W72568  38.999  31.979   3.650
 4175W        W72569  27.547  28.435   2.281
 4176W        W72570   9.355   2.129   4.007
 4177W        W72571  18.135  10.394   2.850
 4178W        W72572  14.061  18.917   2.528
 4179W        W72573  32.134   1.440  14.477
 4180W        W72574   9.973  17.027  11.521
 4181W        W72575  26.299  35.588   1.454
 4182W        W72576   4.677  28.552   1.439
 4183W        W72577  27.435  29.992   1.349
 4184W        W72578  35.462  36.574   3.764
 4185W        W72579   3.303  39.728  13.118
 4186W        W72580  20.335   0.309  14.218
 4187W        W72581   7.271  31.653   0.310
 4188W        W72582   2.986  40.805  14.698
 4189W        W72583  43.444   2.636  14.691
 4190W        W72584  40.096  42.192  10.762
 4191W        W72585  22.136  28.358   2.223
 4192W        W72586  39.359  43.466   4.482
 4193W        W72587  19.442  42.967   3.626
 4194W        W72588  38.928   2.082   1.364
 4195W        W72589   2.378  10.809  13.087
 4196W        W72590  28.467   1.043   1.899
 4197W        W72591  27.234  11.333  11.154
 4198W        W72592   3.869  42.766  13.518
 4199W        W72593   1.909   9.210  10.964
 4200W        W72594  16.572  28.365   4.383
 4201W        W72595  17.829  15.651  10.808
 4202W        W72596  38.325  44.318   3.300
 4203W        W72597   9.195  25.240   2.367
 4204W        W72598   8.180   6.872   2.461
 4205W        W72599  13.692   0.541  14.922
 4206W        W72600  27.203  40.804   3.288
 4207W        W72601   4.047  39.965   0.858
 4208W        W72602  42.510  20.091  14.036
 4209W        W72603  43.120  26.340  14.019
 4210W        W72604  35.525  13.368   0.426
 4211W        W72605  14.415  20.209   4.194
 4212W        W72606  38.006  33.801   2.846
 4213W        W72607   1.374  22.539  12.546
 4214W        W72608  13.109  18.277   5.189
 4215W        W72609  42.251  10.130   4.218
 4216W        W72610  24.210   7.752  13.498
 4217W        W72611  30.480  33.575   4.537
 4218W        W72612  17.640  43.499  14.463
 4219W        W72613  16.596  29.372  10.681
 4220W        W72614  23.207   0.761  12.937
 4221W        W72615  38.591   8.926  14.285
 4222W        W72616  21.933  36.852   4.580
 4223W        W72617   5.462  27.550  11.485
 4224W        W72618  21.256  35.663  11.246
 4225W        W72619  44.930  28.980  11.141
 4226W        W72620  14.647  28.167  12.081
 4227W        W72621   0.340  30.853   1.776
 4228W        W72622  17.657  27.963  13.566
 4229W        W72623  20.750  39.921   0.362
 4230W        W72624  30.984   5.363   1.999
 4231W        W72625   0.714  26.678   3.666
 4232W        W72626  25.975  18.280   1.732
 4233W        W72627  38.102   6.252  13.434
 4234W        W72628  41.292   3.706  11.559
 4235W        W72629  12.556   5.659   1.854
 4236W        W72630  41.340  22.112   4.453
 4237W        W72631  15.827  21.037  13.021
 4238W        W72632  42.582  11.155  13.418
 4239W        W72633  38.797  20.467  14.398
 4240W        W72634  24.282  21.770   2.700
 4241W        W72635  42.448  28.379  10.752
 4242W        W72636  38.673  39.283  12.129
 4243W        W72637   4.690  40.292   2.193
 4244W        W72638  35.517  32.121  14.974
 4245W        W72639  21.301  24.781  11.104
 4246W        W72640  15.260  14.241   3.099
 4247W        W72641  16.757  17.176  13.331
 4248W        W72642  21.620  42.414   4.617
 4249W        W72643  12.149  41.507   1.912
 4250W        W72644  14.725  21.569  12.466
 4251W        W72645   2.849   2.647  14.886
 4252W        W72646  35.632  41.358   2.874
 4253W        W72647  30.189  35.816   4.793
 4254W        W72648  39.461  39.534  11.719
 4255W        W72649  23.347  14.918  12.886
 4256W        W72650  17.741  40.804   0.160
 4257W        W72651  12.385  28.413  12.160
 4258W        W72652  44.991   9.270  10.725
 4259W        W72653  21.792  34.483  13.966
 4260W        W72654  41.525  20.241   4.201
 4261W        W72655  33.889   6.966  11.649
 4262W        W72656  35.952  24.522   2.259
 4263W        W72657  14.899  34.744   0.925
 4264W        W72658  31.153  24.986   0.238
 4265W        W72659   6.255  43.053  12.105
 4266W        W72660  10.418   1.846   3.227
 4267W        W72661   3.727  14.558  12.550
 4268W        W72662   8.600  36.184  12.471
 4269W        W72663  19.550  35.488  14.757
 4270W        W72664   6.912  35.318  14.694
 4271W        W72665   2.962   9.330   0.355
 4272W        W72666  12.838  26.001   4.263
 4273W        W72667   9.938   3.472   4.323
 4274W        W72668  23.532  30.121   1.186
 4275W        W72669   3.295  32.926   1.193
 4276W        W72670  31.117   7.924   4.792
 4277W        W72671  44.289  27.129  12.332
 4278W        W72672   7.822  17.522   4.232
 4279W        W72673  44.958   4.593  10.754
 4280W        W72674  10.771  10.575  10.616
 4281W        W72675  43.257  20.714   2.719
 4282W        W72676  14.444  40.436   4.099
 4283W        W72677   5.730  31.762  11.634
 4284W        W72678  25.963  41.890   2.775
 4285W        W72679   4.903  13.690   3.440
 4286W        W72680  28.438  42.935  13.434
 4287W        W72681  28.124  20.719  11.065
 4288W        W72682  38.786  18.753   2.379
 4289W        W72683   6.463  12.308  10.309
 4290W        W72684  39.464  42.176   2.762
 4291W        W72685  26.100   8.643   4.530
 4292W        W72686   2.830   4.949   2.278
 4293W        W72687  21.731  27.658   1.314
 4294W        W72688  20.985   2.918   4.419
 4295W        W72689   0.149  36.391   5.101
 4296W        W72690   4.257  35.432  12.905
 4297W        W72691  20.392  26.014  12.457
 4298W        W72692  19.344  44.905   3.731
 4299W        W72693   5.853  40.584   2.895
 4300W        W72694   8.118  40.305   3.434
 4301W        W72695   4.011   8.812   0.927
 4302W        W72696  36.975   7.885  14.047
 4303W        W72697  23.222  35.947   0.765
 4304W        W72698  16.614  27.245  10.630
 4305W        W72699  22.253   8.204   0.809
 4306W        W72700  13.155  35.339   1.337
 4307W        W72701  10.601  31.241   1.981
 4308W        W72702   2.618   3.895  14.787
 4309W        W72703  32.432  20.968   2.859
 4310W        W72704  19.553  32.786   1.717
 4311W        W72705  25.577  36.478  11.149
 4312W        W72706  38.358  12.496   3.819
 4313W        W72707   3.398  26.122  11.836
 4314W        W72708  16.205  21.082  14.827
 4315W        W72709   2.045   5.897   2.825
 4316W        W72710  31.683  29.442  13.875
 4317W        W72711  40.016  44.640  12.279
 4318W        W72712  20.175  13.889   0.485
 4319W        W72713  15.592  29.464  10.795
 4320W        W72714  27.502  40.040   0.461
 4321W        W72715  10.597   2.349   3.932
 4322W        W72716  33.933  29.374  12.776
 4323W        W72717   2.436  43.585  13.314
 4324W        W72718  31.557  21.680   3.155
 4325W        W72719  29.529  23.972  14.147
 4326W        W72720  32.184   5.066   1.941
 4327W        W72721   9.739  10.034   3.938
 4328W        W72722  44.001  33.201   3.345
 4329W        W72723   4.407   1.109   0.979
 4330W        W72724   2.006  16.919   1.762
 4331W        W72725   9.216  10.888   2.574
 4332W        W72726   9.697  34.308  10.574
 4333W        W72727  20.994  29.159  12.210
 4334W        W72728  38.271  42.951   3.174
 4335W        W72729   5.992  22.360  13.626
 4336W        W72730   6.886   5.714  13.401
 4337W        W72731  31.058  17.789  14.885
 4338W        W72732  14.089  33.043  14.129
 4339W        W72733   5.396  33.147  11.539
 4340W        W72734  37.809   4.338   2.801
 4341W        W72735   5.853  12.296   1.855
 4342W        W72736  28.085  18.324   0.138
 4343W        W72737  20.053  38.012  14.581
 4344W        W72738  12.151   0.975   4.203
 4345W        W72739  26.715  25.555  11.120
 4346W        W72740   6.969   2.340   1.911
 4347W        W72741   0.777   2.008  14.801
 4348W        W72742  38.062  31.936   2.245
 4349W        W72743  10.234  29.853  11.519
 4350W        W72744  30.167  42.346  11.140
 4351W        W72745  25.578  39.379  14.391
 4352W        W72746  21.125  12.377   3.663
 4353W        W72747  31.719  10.368   3.148
 4354W        W72748  14.201  27.029   3.814
 4355W        W72749  30.180  27.002  12.515
 4356W        W72750  16.792  10.134  12.761
 4357W        W72751  14.596  42.016   3.548
 4358W        W72752  11.145   0.743   4.145
 4359W        W72753   8.581  22.237   2.446
 4360W        W72754   9.413  32.815  12.914
 4361W        W72755  33.892  38.414   2.619
 4362W        W72756   7.874  23.128  14.411
 4363W        W72757  23.956  19.282  11.063
 4364W        W72758   1.040   0.762  12.775
 4365W        W72759  37.582  24.483  13.975
 4366W        W72760  21.557  32.524   4.680
 4367W        W72761  29.964  19.306  11.980
 4368W        W72762  22.719  25.713  13.505
 4369W        W72763  19.513  35.141  11.669
 4370W        W72764   3.910   8.357   4.920
 4371W        W72765  37.813  31.698  12.407
 4372W        W72766  29.053  23.154  14.625
 4373W        W72767   1.798  25.998  11.731
 4374W        W72768  40.859  21.137   5.147
 4375W        W72769   1.968  43.269  14.907
 4376W        W72770   2.367  27.146   0.942
 4377W        W72771   6.805  34.473   0.250
 4378W        W72772  40.523  42.566  13.785
 4379W        W72773  15.250   5.189  12.483
 4380W        W72774  30.549  22.513   1.433
 4381W        W72775  35.884  14.769   4.250
 4382W        W72776  19.353  39.066  11.105
 4383W        W72777  20.962   7.464  11.561
 4384W        W72778   6.498  39.025  14.523
 4385W        W72779   8.115  30.735   2.597
 4386W        W72780   8.385  25.607   1.410
 4387W        W72781  24.516  20.773   4.178
 4388W        W72782  32.404   2.042   0.811
 4389W        W72783  15.841  23.193  14.100
 4390W        W72784  22.452  24.377   4.511
 4391W        W72785  28.891   5.854  12.424
 4392W        W72786   8.631  29.876   1.943
 4393W        W72787   9.955  24.067  12.794
 4394W        W72788  18.188  32.507   1.929
 4395W        W72789   3.261  25.737  11.522
 4396W        W72790   2.776  16.685  14.539
 4397W        W72791  19.092  37.516  14.060
 4398W        W72792  22.061  36.243  13.072
 4399W        W72793  27.688  13.281   3.346
 4400W        W72794  32.662   5.933   2.310
 4401W        W72795  17.014  13.738   4.028
 4402W        W72796  20.994  33.905  14.076
 4403W        W72797  20.237  12.333   4.193
 4404W        W72798   7.592  34.551  14.949
 4405W        W72799  35.282  33.207  10.480
 4406W        W72800  17.073  11.406   4.843
 4407W        W72801  27.251  19.222   1.860
 4408W        W72802   6.878   8.885  10.655
 4409W        W72803  36.483  35.940   4.461
 4410W        W72804  29.230  21.982   0.837
 4411W        W72805  42.232  20.802   1.754
 4412W        W72806   6.740  15.596  14.829
 4413W        W72807   8.332   7.111   3.315
 4414W        W72808  16.636   7.396   3.666
 4415W        W72809  41.006  11.822   2.261
 4416W        W72810  19.053  28.217   1.695
 4417W        W72811  11.377  13.135  12.551
 4418W        W72812  41.778  41.836   3.102
 4419W        W72813  43.291  19.167   0.797
 4420W        W72814  43.480  23.743   3.754
 4421W        W72815  11.242  12.222   4.507
 4422W        W72816  24.518   5.479  13.959
 4423W        W72817   6.997  23.554   4.101
 4424W        W72818  43.465   3.416   2.296
 4425W        W72819   0.303  26.223  12.982
 4426W        W72820  18.268  28.151   0.358
 4427W        W72821  10.854  44.861   0.029
 4428W        W72822  23.583  17.993  14.375
 4429W        W72823  39.322   4.692  12.496
 4430W        W72824  25.318  16.530   3.419
 4431W        W72825   2.079  28.049  12.508
 4432W        W72826   6.871  22.182  13.910
 4433W        W72827   3.829  33.404  13.464
 4434W        W72828  27.584  32.816   3.244
 4435W        W72829   0.958  44.562  10.844
 4436W        W72830  28.466  23.042   1.029
 4437W        W72831  36.157  18.106   3.416
 4438W        W72832  40.914  39.346   2.344
 4439W        W72833  31.017  25.067   2.326
 4440W        W72834   6.168  13.397   0.337
 4441W        W72835   7.946   1.334  12.959
 4442W        W72836  40.451  15.335   1.277
 4443W        W72837  28.026  41.592  10.225
 4444W        W72838  20.295   8.371  14.768
 4445W        W72839  19.581  14.845   0.877
 4446W        W72840  18.903  13.306  11.139
 4447W        W72841  12.586  25.774   0.342
 4448W        W72842   0.945  40.404  14.404
 4449W        W72843  30.817  44.364   1.012
 4450W        W72844  19.725   5.222  12.056
 4451W        W72845  22.042   5.015  11.933
 4452W        W72846  12.961  14.701   4.183
 4453W        W72847  24.704  26.461  12.861
 4454W        W72848  36.289  18.898  14.244
 4455W        W72849  25.549  25.159   2.100
 4456W        W72850  39.196   2.742  10.869
 4457W        W72851  28.662  22.067   2.610
 4458W        W72852  28.757  43.312  11.094
 4459W        W72853  13.184  40.645   4.326
 4460W        W72854  41.886  14.128  13.702
 4461W        W72855   7.112  28.577   0.442
 4462W        W72856  42.499  42.331   0.703
 4463W        W72857  36.948  39.221   1.334
 4464W        W72858  15.618  23.630  11.954
 4465W        W72859  40.878  44.894  13.699
 4466W        W72860  40.790  40.248   3.198
 4467W        W72861  19.903   4.416   3.252
 4468W        W72862  16.714  31.410   0.817
 4469W        W72863  13.636  44.221   4.243
 4470W        W72864  43.624  28.075   1.000
 4471W        W72865   5.758  12.247   2.778
 4472W        W72866   8.345   3.947  13.891
 4473W        W72867  32.665  30.585   0.301
 4474W        W72868  10.719  40.478  13.814
 4475W        W72869  17.733  33.045   4.607
 4476W        W72870   9.743  29.879  12.141
 4477W        W72871  24.004  26.978  14.262
 4478W        W72872  23.148  25.469   0.412
 4479W        W72873  38.342  41.544  13.891
 4480W        W72874  20.348  38.855  10.893
 4481W        W72875  12.066  10.301  13.161
 4482W        W72876  20.838   2.582   2.437
 4483W        W72877  35.141  33.991  10.942
 4484W        W72878  21.314  23.057   0.326
 4485W        W72879   0.097  11.111   0.809
 4486W        W72880  42.729  10.356  11.178
 4487W        W72881   6.744  21.027  11.534
 4488W        W72882   0.416  20.192  13.042
 4489W        W72883  18.519  22.451  13.721
 4490W        W72884   1.247   0.088   1.646
 4491W        W72885  39.817  43.091   0.402
 4492W        W72886   1.969   5.786   3.750
 4493W        W72887  35.644  17.145  11.527
 4494W        W72888  44.554  11.192   3.243
 4495W        W72889  32.604   9.891  11.440
 4496W        W72890   0.223  33.878  12.149
 4497W        W72891  22.948  12.687  11.496
 4498W        W72892  10.615  25.227  13.307
 4499W        W72893  24.896   8.185  10.601
 4500W        W72894   1.317  13.541   5.389
 4501W        W72895  36.148  12.028  14.265
 4502W        W72896  44.692  32.701   0.223
 4503W        W72897  35.351  29.481   0.755
 4504W        W72898  34.165  19.467   2.851
 4505W        W72899  21.042  38.990   4.690
 4506W        W72900  20.759  40.746   3.888
 4507W        W72901  16.389  27.431  12.993
 4508W        W72902   9.345  38.786  12.894
 4509W        W72903  15.370   6.285   2.814
 4510W        W72904  10.630   2.882  12.467
 4511W        W72905  15.148  22.734  11.514
 4512W        W72906  11.879   5.163  11.813
 4513W        W72907   8.614  22.945  12.952
 4514W        W72908  41.289   2.766   4.099
 4515W        W72909   2.085  31.606  14.868
 4516W        W72910  24.468  27.379   3.263
 4517W        W72911  31.659  36.181   2.248
 4518W        W72912  17.760  41.688  11.065
 4519W        W72913   1.457  42.522  14.976
 4520W        W72914  34.340  44.985   3.700
 4521W        W72915  15.838  23.717  10.412
 4522W        W72916  15.584  15.771   3.691
 4523W        W72917  11.589  18.983  13.825
 4524W        W72918  42.846  17.864  11.675
 4525W        W72919  38.096   8.001   0.866
 4526W        W72920  42.945  18.635   4.268
 4527W        W72921  19.217  38.052  13.344
 4528W        W72922  18.521   4.274   2.803
 4529W        W72923  40.358  33.522   3.100
 4530W        W72924  36.439  31.645  12.454
 4531W        W72925   4.779   6.380  11.500
 4532W        W72926   9.160   0.837  10.561
 4533W        W72927   9.813  42.237  12.504
 4534W        W72928  42.744  22.100   3.221
 4535W        W72929  43.869  14.175  12.465
 4536W        W72930  35.599  21.499   2.718
 4537W        W72931  33.632  30.390  13.149
 4538W        W72932   0.349   3.508  13.033
 4539W        W72933  18.816  39.461  13.119
 4540W        W72934  35.559   2.785  14.942
 4541W        W72935  28.490  24.682  11.945
 4542W        W72936  29.031   0.415  11.722
 4543W        W72937  38.012  40.873  13.492
 4544W        W72938  13.625   1.395   1.074
 4545W        W72939   2.170  34.422   0.748
 4546W        W72940  10.609  18.173  10.764
 4547W        W72941  34.168  17.357   0.465
 4548W        W72942  17.170  24.580  14.220
 4549W        W72943  13.238   6.014  14.076
 4550W        W72944  27.424  23.749  14.694
 4551W        W72945  16.756  22.254  13.739
 4552W        W72946  14.534  16.975  11.156
 4553W        W72947  15.299  41.059   0.831
 4554W        W72948  30.855  44.408  10.686
 4555W        W72949   3.451  24.128   0.722
 4556W        W72950  25.515  15.245  14.724
 4557W        W72951  21.816  20.148  11.873
 4558W        W72952  32.426  13.863  10.884
 4559W        W72953  10.327   6.999   4.418
 4560W        W72954   3.090  21.287   2.821
 4561W        W72955  33.395  30.407   1.003
 4562W        W72956   9.764   5.366   0.245
 4563W        W72957  41.513  23.626   3.620
 4564W        W72958   0.847   9.941   1.461
 4565W        W72959  12.855  32.446  12.105
 4566W        W72960  28.703  29.224  13.980
 4567W        W72961   9.479  13.593   2.457
 4568W        W72962  22.714   1.542   3.770
 4569W        W72963   6.360  28.708  14.826
 4570W        W72964  20.199  37.380   3.648
 4571W        W72965  44.512  18.271   1.756
 4572W        W72966   3.229  36.860  14.873
 4573W        W72967   8.807   6.770  12.145
 4574W        W72968  10.300  35.874  11.212
 4575W        W72969   7.350  13.503   3.613
 4576W        W72970  34.614  29.163  12.978
 4577W        W72971  18.062  31.953   1.682
 4578W        W72972   0.945  29.274  12.569
 4579W        W72973  14.718  24.214   3.776
 4580W        W72974   5.180  31.527  10.928
 4581W        W72975  27.893   2.439  10.922
 4582W        W72976  28.683  34.843  12.207
 4583W        W72977  37.956  28.455   2.125
 4584W        W72978  21.561  29.699   2.906
 4585W        W72979  34.416  19.001  14.270
 4586W        W72980   7.043  29.972   0.453
 4587W        W72981  25.142  23.936   3.445
 4588W        W72982   7.169  20.318  13.991
 4589W        W72983  13.949  34.943   1.853
 4590W        W72984  12.915  21.114   3.364
 4591W        W72985  16.777  23.758   2.670
 4592W        W72986  10.632  44.360  12.038
 4593W        W72987  44.380  39.383  14.886
 4594W        W72988  22.501   3.885  10.679
 4595W        W72989  20.486  13.872   0.926
 4596W        W72990   1.275  13.788   2.792
 4597W        W72991  15.491  34.032   4.009
 4598W        W72992  26.891  28.888  11.208
 4599W        W72993  29.629  33.399   1.134
 4600W        W72994  40.462  15.864   1.243
 4601W        W72995  39.056  19.642   2.875
 4602W        W72996   1.991   4.723   1.502
 4603W        W72997   6.698  24.786  11.113
 4604W        W72998  42.102  41.028   0.519
 4605W        W72999  14.775  42.766   2.770
 4606W        W73000  14.894  33.413  11.449
 4607W        W73001   2.844  21.070  13.038
 4608W        W73002   0.850  24.822   3.991
 4609W        W73003  23.980  33.909  14.085
 4610W        W73004   8.169   5.741  11.096
 4611W        W73005  44.086   6.788  12.582
 4612W        W73006  38.938  22.604  11.153
 4613W        W73007   3.388   0.834  12.806
 4614W        W73008  29.661  13.563  12.840
 4615W        W73009  19.986  35.432   3.583
 4616W        W73010  17.556   4.377   3.928
 4617W        W73011  11.135  27.628   0.323
 4618W        W73012   5.307  20.965   2.647
 4619W        W73013  36.326  11.416   4.981
 4620W        W73014  13.483  35.474  13.466
 4621W        W73015  19.622  34.493  13.450
 4622W        W73016  39.284   9.657   2.324
 4623W        W73017   2.069  28.152   2.888
 4624W        W73018  27.166  18.291   3.818
 4625W        W73019  17.655   0.713   2.103
 4626W        W73020  38.361  41.014  11.382
 4627W        W73021  12.604  23.784   3.757
 4628W        W73022  30.991   0.363  12.839
 4629W        W73023  31.238  39.017   1.015
 4630W        W73024   1.788  12.386   1.805
 4631W        W73025  20.823  24.048   0.426
 4632W        W73026  24.308  39.311  12.664
 4633W        W73027  13.294  23.082   2.547
 4634W        W73028  33.246   0.354  11.068
 4635W        W73029  18.290  15.857   4.521
 4636W        W73030  32.324   0.833  13.667
 4637W        W73031  10.834  11.751  14.061
 4638W        W73032  20.513  39.812  10.509
 4639W        W73033  10.869   1.850   0.339
 4640W        W73034  21.905  43.994  12.921
 4641W        W73035  39.573  19.095  14.923
 4642W        W73036  19.827   0.274  14.368
 4643W        W73037  12.418   1.389   0.749
 4644W        W73038  43.576  11.076   0.122
 4645W        W73039  11.200  39.736  13.919
 4646W        W73040  21.768  33.989   3.286
 4647W        W73041   9.261  20.665  14.939
 4648W        W73042  36.336  11.532  14.309
 4649W        W73043  37.544  30.484   1.389
 4650W        W73044  11.500  12.082  13.032
 4651W        W73045  20.565  16.433   2.773
 4652W        W73046  12.264  20.215  10.664
 4653W        W73047  16.550  34.087  11.839
 4654W        W73048  34.409   8.233  14.833
 4655W        W73049  17.871  11.300   2.839
 4656W        W73050   6.417  31.130   1.148
 4657W        W73051   2.952   1.806  11.947
 4658W        W73052  10.063  40.168  14.479
 4659W        W73053   3.016   5.860   3.814
 4660W        W73054  31.163  11.283  14.361
 4661W        W73055   3.190  12.515   1.293
 4662W        W73056   4.174  23.349  12.974
 4663W        W73057  29.182   0.068  14.351
 4664W        W73058   6.678  25.073  14.496
 4665W        W73059  44.320  27.342   4.544
 4666W        W73060  18.290  41.307  14.393
 4667W        W73061   2.272  38.083   2.839
 4668W        W73062  24.239   3.973   0.247
 4669W        W73063  19.247  30.010  14.076
 4670W        W73064   3.385   4.668   0.041
 4671W        W73065  30.532   7.276  13.078
 4672W        W73066   0.080  17.699   2.656
 4673W        W73067  24.252  19.271  13.938
 4674W        W73068   6.221  38.368  14.808
 4675W        W73069  28.941   8.369   2.697
 4676W        W73070  31.792   0.148   4.429
 4677W        W73071   4.040  31.628   4.617
 4678W        W73072   9.262  30.404   3.135
 4679W        W73073  24.083  42.369  11.920
 4680W        W73074  13.119  26.965  13.343
 4681W        W73075  26.984  25.081  12.887
 4682W        W73076   8.813  17.089   3.461
 4683W        W73077   8.095  18.710   1.701
 4684W        W73078  13.558  13.888   4.173
 4685W        W73079  18.553  24.307  11.113
 4686W        W73080   7.368  26.694  11.546
 4687W        W73081  10.407  14.098   0.301
 4688W        W73082  26.004  25.075   3.144
 4689W        W73083   4.933   8.426  13.507
 4690W        W73084  12.298  13.804  14.407
 4691W        W73085  20.462  11.575  14.092
 4692W        W73086  43.066  40.387  10.849
 4693W        W73087  40.248   8.903   2.653
 4694W        W73088  34.415   6.151   1.083
 4695W        W73089  18.678  28.840  10.311
 4696W        W73090  29.374  34.447   2.243
 4697W        W73091  26.940  11.130   1.791
 4698W        W73092  27.033  32.021   2.304
 4699W        W73093  24.952   2.943   3.137
 4700W        W73094  21.969  31.245   4.249
 4701W        W73095  12.134  37.634  13.032
 4702W        W73096  17.586   8.105  13.418
 4703W        W73097  26.098  34.994   2.831
 4704W        W73098  37.827  37.541  10.333
 4705W        W73099  44.814  40.941  13.339
 4706W        W73100  40.300  15.683  12.442
 4707W        W73101  15.169   7.582  13.860
 4708W        W73102   6.884  18.240  12.447
 4709W        W73103  36.080   5.658  13.727
 4710W        W73104   2.803   1.464  13.885
 4711W        W73105  32.513  19.097   2.518
 4712W        W73106  44.016   3.092  14.079
 4713W        W73107  21.765  33.164   1.306
 4714W        W73108  43.141   1.778   1.340
 4715W        W73109  12.105  41.303  10.706
 4716W        W73110   9.120   6.436   4.122
 4717W        W73111  35.522  23.697   4.636
 4718W        W73112   3.375  21.291  11.160
 4719W        W73113   1.934  34.458  14.467
 4720W        W73114  19.880  25.267   3.590
 4721W        W73115  28.106  13.132   4.892
 4722W        W73116  43.921  24.926   0.670
 4723W        W73117  24.638  32.468   2.853
 4724W        W73118  39.101  34.202  13.458
 4725W        W73119   8.196  42.370  12.030
 4726W        W73120  12.034  14.944   1.347
 4727W        W73121  19.184  32.827  12.630
 4728W        W73122  22.326  30.890  12.503
 4729W        W73123  39.944  31.216   4.665
 4730W        W73124  35.924  19.652  10.773
 4731W        W73125  16.472   4.638   0.845
 4732W        W73126   4.383  41.300  14.373
 4733W        W73127  19.862  40.962   1.008
 4734W        W73128  38.161  35.539   3.309
 4735W        W73129   8.666  12.904   1.954
 4736W        W73130   2.418  11.377   3.612
 4737W        W73131  16.351  44.832  14.467
 4738W        W73132  15.638  42.782   2.261
 4739W        W73133  25.677  15.678  10.520
 4740W        W73134  23.269  30.140   3.861
 4741W        W73135  42.497  28.200   3.879
 4742W        W73136  32.939  16.398   1.705
 4743W        W73137  26.482  36.467   3.279
 4744W        W73138  26.972  11.900  14.536
 4745W        W73139  23.865  16.686   2.102
 4746W        W73140  38.327  28.418  12.481
 4747W        W73141  25.552  44.954   4.056
 4748W        W73142  12.721  42.809   4.650
 4749W        W73143  20.458  11.720   1.695
 4750W        W73144  33.362  29.067   2.835
 4751W        W73145  40.920   1.384  14.444
 4752W        W73146  42.886  18.152  14.258
 4753W        W73147  26.150   2.790  10.694
 4754W        W73148  11.388  39.322  12.050
 4755W        W73149  38.377   4.421   0.537
 4756W        W73150   2.486  42.278   3.869
 4757W        W73151   5.907  13.773   1.490
 4758W        W73152  43.064  14.890   3.306
 4759W        W73153  26.010  35.103   1.361
 4760W        W73154  30.210  17.786  10.669
 4761W        W73155   7.136  23.383   4.808
 4762W        W73156  36.645  36.844   3.575
 4763W        W73157  33.039  39.813   2.562
 4764W        W73158  12.691  16.765  13.855
 4765W        W73159  36.597  31.078   2.390
 4766W        W73160  31.386  22.409  13.235
 4767W        W73161  26.689  21.986  13.494
 4768W        W73162   7.348  24.556   0.689
 4769W        W73163   7.886   3.460  13.991
 4770W        W73164  13.930  37.258  12.048
 4771W        W73165   0.825  25.995   3.762
 4772W        W73166  15.232  11.123   4.103
 4773W        W73167  24.281  29.077   4.884
 4774W        W73168  12.158  37.214   0.166
 4775W        W73169  41.813  10.895   3.326
 4776W        W73170  27.156  17.031  13.080
 4777W        W73171  31.026  39.026   0.488
 4778W        W73172  37.831  17.831  10.591
 4779W        W73173  40.326  12.732  14.810
 4780W        W73174   0.388  15.720   2.274
 4781W        W73175  38.717  44.364  12.631
 4782W        W73176   6.192  38.516   2.734
 4783W        W73177  34.912  19.104  13.048
 4784W        W73178   4.785  31.442  11.247
 4785W        W73179   4.036  24.320  10.789
 4786W        W73180  12.189  26.975  12.118
 4787W        W73181   8.973  14.751  13.386
 4788W        W73182  32.681  23.176  14.574
 4789W        W73183   5.757  34.587  12.906
 4790W        W73184  39.906   9.787  13.426
 4791W        W73185  34.054   6.211   2.169
 4792W        W73186   5.912  22.045  11.153
 4793W        W73187  35.430  19.160   2.576
 4794W        W73188  25.877  27.133   2.890
 4795W        W73189  25.642   0.327  11.168
 4796W        W73190  32.465  20.279   1.844
 4797W        W73191  16.620  11.742   0.315
 4798W        W73192  10.028  32.936   3.579
 4799W        W73193  38.781   1.876  14.860
 4800W        W73194  20.831  28.145  13.803
 4801W        W73195   4.481  32.474   2.986
 4802W        W73196   6.468  34.135   0.469
 4803W        W73197   6.996  38.326   0.765
 4804W        W73198   6.184   3.810  12.401
 4805W        W73199  34.907  23.677   0.924
 4806W        W73200  34.699  39.050   2.420
 4807W        W73201  25.694   8.414  13.377
 4808W        W73202   2.346  24.951   4.405
 4809W        W73203  27.739   0.204   1.435
 4810W        W73204  16.299   5.379   4.965
 4811W        W73205   9.012  41.794  14.409
 4812W        W73206  29.916  39.087   1.272
 4813W        W73207  37.582   3.868   0.338
 4814W        W73208  40.210  41.748   3.659
 4815W        W73209  12.844  19.222   0.235
 4816W        W73210  41.016  30.557   0.443
 4817W        W73211  36.679  42.092  13.427
 4818W        W73212   1.785  19.176  13.564
 4819W        W73213  18.750  16.812   0.325
 4820W        W73214   7.927  41.335   2.347
 4821W        W73215  31.637  27.283  13.124
 4822W        W73216   5.655  44.507  11.488
 4823W        W73217  32.490  30.850  12.051
 4824W        W73218  44.507  11.864  11.223
 4825W        W73219  42.301   1.850   0.794
 4826W        W73220  25.872   4.301  12.471
 4827W        W73221   3.724  44.241   3.805
 4828W        W73222  44.002  14.163  14.507
 4829W        W73223  42.102  12.142   4.509
 4830W        W73224  18.200  26.474   5.248
 4831W        W73225  39.473  22.107  10.654
 4832W        W73226  26.585  12.137   2.238
 4833W        W73227  33.130   5.849  10.559
 4834W        W73228  36.061  29.638  13.625
 4835W        W73229  28.492  36.412  11.609
 4836W        W73230  41.043   4.308   3.262
 4837W        W73231  17.801  14.617  11.826
 4838W        W73232   9.516   2.009  13.453
 4839W        W73233  29.415  14.395   4.308
 4840W        W73234   3.700  10.958  10.415
 4841W        W73235  42.773  35.856  10.757
 4842W        W73236  18.748  19.775  10.925
 4843W        W73237  34.407  36.906   4.123
 4844W        W73238   7.431  40.991  11.644
 4845W        W73239  11.344  42.442  12.099
 4846W        W73240  25.565  21.282  12.936
 4847W        W73241  33.388  44.289   4.126
 4848W        W73242  43.062   8.155   3.656
 4849W        W73243  37.521  18.119   2.220
 4850W        W73244   7.055  39.704  12.029
 4851W        W73245   4.212  25.932   0.061
 4852W        W73246   1.873  30.395  14.003
 4853W        W73247  14.241  25.254   3.525
 4854W        W73248  27.673  18.981   4.442
 4855W        W73249  41.566  44.473  12.886
 4856W        W73250  19.705  28.842   3.558
 4857W        W73251  30.691  22.637   2.831
 4858W        W73252   0.461  18.353  14.637
 4859W        W73253  40.329  30.481  12.827
 4860W        W73254   9.171  17.504  13.332
 4861W        W73255   3.144  11.713  12.537
 4862W        W73256  22.620  31.507   3.420
 4863W        W73257  30.018  34.926  10.940
 4864W        W73258  24.490  30.093  13.107
 4865W        W73259   5.759  39.604  10.646
 4866W        W73260  30.636  32.375  11.606
 4867W        W73261  22.032  13.633   4.751
 4868W        W73262  18.228  22.239  10.560
 4869W        W73263  18.287  33.300   4.116
 4870W        W73264  12.758   9.592   3.423
 4871W        W73265  24.956  13.641  14.527
 4872W        W73266  12.201  17.271   4.502
 4873W        W73267  12.656  25.292   2.629
 4874W        W73268  43.801  22.918  11.037
 4875W        W73269  12.126  21.173  10.708
 4876W        W73270  29.669  14.726   2.703
 4877W        W73271  32.204  28.125   0.674
 4878W        W73272  17.830  25.013  13.737
 4879W        W73273  22.965   0.856   0.703
 4880W        W73274  34.352  26.026   1.328
 4881W        W73275   0.428  20.933   0.876
 4882W        W73276  11.422   1.669   1.686
 4883W        W73277  42.259  43.590   2.609
 4884W        W73278  42.492   8.416  12.790
 4885W        W73279  21.173  13.865  13.466
 4886W        W73280  43.226   3.260   3.301
 4887W        W73281  23.604  36.031  14.307
 4888W        W73282   2.962  33.463  12.602
 4889W        W73283  25.182  14.765  12.120
 4890W        W73284  42.972   7.737  12.512
 4891W        W73285  44.656   4.392   1.826
 4892W        W73286  43.057  39.083  12.023
 4893W        W73287  41.753  16.614  13.865
 4894W        W73288  40.587  29.694   4.918
 4895W        W73289   4.154  42.448   1.136
 4896W        W73290   6.162  26.129   1.432
 4897W        W73291  16.857  19.804   0.856
 4898W        W73292  11.239  18.955   0.523
 4899W        W73293  43.923  24.092   2.396
 4900W        W73294   5.203  30.167   0.724
 4901W        W73295  10.351   0.440  11.420
 4902W        W73296  31.987  34.095   0.839
 4903W        W73297   8.758  13.402   2.145
 4904W        W73298  36.932   5.319   4.831
 4905W        W73299  33.944   5.043  11.189
 4906W        W73300  39.691  16.771  11.115
 4907W        W73301  36.419  22.555  12.024
 4908W        W73302   2.320  36.062   2.494
 4909W        W73303  35.318  41.349  12.085
 4910W        W73304  32.833  39.347   2.779
 4911W        W73305  41.503  40.374  12.087
 4912W        W73306  28.553  34.305   1.985
 4913W        W73307  28.934  41.913   3.162
 4914W        W73308  24.004  40.810   4.061
 4915W        W73309   4.883   1.522  12.466
 4916W        W73310  25.574  34.041   2.075
 4917W        W73311  24.906  21.072   3.592
 4918W        W73312  13.855  40.481  12.763
 4919W        W73313  40.842  38.349  12.539
 4920W        W73314   3.728  10.382   0.908
 4921W        W73315  36.850  25.800   1.862
 4922W        W73316   7.141  44.244  14.932
 4923W        W73317  28.622  16.710   0.521
 4924W        W73318  38.934  32.650  12.798
 4925W        W73319  41.615   2.508  14.526
 4926W        W73320  13.341  20.775  13.553
 4927W        W73321  37.010  16.474  12.428
 4928W        W73322  41.606  33.121  13.570
 4929W        W73323   1.231  18.383   3.365
 4930W        W73324  42.350   1.823  14.290
 4931W        W73325   1.322   2.575  11.891
 4932W        W73326  30.953  27.667  12.114
 4933W        W73327  33.060  25.503   2.288
 4934W        W73328  31.209   8.504   1.682
 4935W        W73329   7.803  16.115  10.773
 4936W        W73330  16.242   3.426   0.448
 4937W        W73331  17.676  12.514   4.511
 4938W        W73332  38.519  28.056   1.741
 4939W        W73333  27.273  37.782   2.690
 4940W        W73334   2.947  34.168  12.086
 4941W        W73335  30.504  29.978   3.095
 4942W        W73336  29.461  39.376  10.840
 4943W        W73337  32.550  19.269  13.910
 4944W        W73338  27.638  41.736   4.592
 4945W        W73339  34.323  41.034  11.680
 4946W        W73340  19.893  36.828   0.905
 4947W        W73341  37.480  32.989  13.991
 4948W        W73342  10.694  30.012  11.608
 4949W        W73343  13.798  31.383   0.376
 4950W        W73344  18.686  17.952  11.529
 4951W        W73345  10.769  25.962  10.391
 4952W        W73346  40.270  19.610   0.177
 4953W        W73347  42.288  19.758  10.534
 4954W        W73348  43.331   6.286  12.528
 4955W        W73349  21.505  39.057   3.363
 4956W        W73350  17.500   3.219  10.741
 4957W        W73351   7.820   0.687  11.160
 4958W        W73352  33.346  35.350   3.783
 4959W        W73353  23.701   1.915  13.166
 4960W        W73354  41.085  18.241  14.374
 4961W        W73355  21.455  33.873   2.864
 4962W        W73356   2.003  29.424  12.470
 4963W        W73357  26.501   6.245  10.686
 4964W        W73358   6.273  41.004   0.871
 4965W        W73359  15.271  22.480  11.099
 4966W        W73360  16.081  11.610  11.995
 4967W        W73361  15.539  39.655  12.926
 4968W        W73362  40.348  38.612   4.161
 4969W        W73363  25.774   8.829   2.290
 4970W        W73364  39.482  12.389  14.324
 4971W        W73365  13.201  36.477  14.388
 4972W        W73366  41.875  15.740  10.071
 4973W        W73367   0.005  35.935   0.875
 4974W        W73368   1.352   6.199   1.303
 4975W        W73369   9.691  44.390  14.784
 4976W        W73370  43.842   2.735   4.056
 4977W        W73371  37.722  22.970  13.550
 4978W        W73372  18.509   4.376  14.365
 4979W        W73373  13.389  16.908  14.747
 4980W        W73374  30.347  12.645  14.470
 4981W        W73375  25.946  27.931  14.954
 4982W        W73376   6.826   7.965   1.727
 4983W        W73377  15.758   5.407  12.480
 4984W        W73378  20.533  20.874   4.807
 4985W        W73379   8.532  41.680   4.048
 4986W        W73380  13.809  43.943   2.708
 4987W        W73381  11.761  31.937   0.442
 4988W        W73382  27.781  19.831  13.010
 4989W        W73383  28.175  11.141   1.196
 4990W        W73384  31.378  29.944  10.361
 4991W        W73385  43.500  16.855  13.579
 4992W        W73386  40.862  18.606   4.284
 4993W        W73387  38.562  31.092  12.413
 4994W        W73388   5.717  41.026  13.009
 4995W        W73389  39.606  12.813  11.406
 4996W        W73390  12.130  25.591   3.127
 4997W        W73391  24.694  25.893   1.253
 4998W        W73392  43.195   2.279  11.534
 4999W        W73393  39.003   6.184   4.451
 5000W        W73394  26.697  43.470   3.180
 5001W        W73395  29.611   8.218  12.570
 5002W        W73396  16.235  41.865   3.159
 5003W        W73397   6.632  21.001  12.051
 5004W        W73398  32.736  37.009  11.579
 5005W        W73399   4.820  26.688  12.622
 5006W        W73400   1.953  20.195   2.247
 5007W        W73401  13.241  29.053  14.321
 5008W        W73402  19.091  19.483   1.679
 5009W        W73403  20.012  33.391   1.812
 5010W        W73404  24.038  42.182  13.538
 5011W        W73405   0.728  30.113  13.421
 5012W        W73406   5.317  36.725   0.835
 5013W        W73407  42.449  41.410   1.260
 5014W        W73408  20.708  27.409   3.277
 5015W        W73409  31.934  41.977   4.506
 5016W        W73410  29.600  20.839   3.344
 5017W        W73411  25.686  12.233   1.220
 5018W        W73412  17.266  44.121   3.695
 5019W        W73413   7.190  23.911   3.191
 5020W        W73414   7.899   7.226   4.119
 5021W        W73415  31.171  16.889  11.612
 5022W        W73416  10.659  25.172  11.500
 5023W        W73417  38.057   1.524   1.395
 5024W        W73418  42.900  33.911  12.485
 5025W        W73419  17.104  19.497  12.721
 5026W        W73420  18.111   4.239  11.523
 5027W        W73421   8.226   8.608   3.170
 5028W        W73422  25.571   5.167  10.373
 5029W        W73423   1.925  15.008  12.156
 5030W        W73424  21.314  20.062  13.493
 5031W        W73425  31.176  33.537  12.396
 5032W        W73426   4.982  10.666  13.783
 5033W        W73427  12.897   5.878   3.344
 5034W        W73428  13.436   3.371  13.189
 5035W        W73429  19.599   9.419   1.262
 5036W        W73430  29.992   6.459   0.264
 5037W        W73431  33.716  28.231  14.456
 5038W        W73432  34.046  23.938   1.420
 5039W        W73433   4.957   8.969   1.933
 5040W        W73434  24.752  27.568   1.784
 5041W        W73435  21.036  42.062   1.066
 5042W        W73436  43.314   8.925  11.053
 5043W        W73437  10.850   8.139  14.314
 5044W        W73438  43.862  39.023   3.370
 5045W        W73439  15.268  37.910   0.890
 5046W        W73440   9.716  36.424   3.621
 5047W        W73441  43.762  11.157   2.178
 5048W        W73442  40.985  28.091  13.246
 5049W        W73443  39.518  43.031   3.103
 5050W        W73444   9.211  15.318   3.725
 5051W        W73445  12.456  42.451   2.337
 5052W        W73446  35.407  18.500  12.044
 5053W        W73447  15.617   8.250  13.440
 5054W        W73448  14.356   1.540   4.997
 5055W        W73449   6.387  13.111  12.169
 5056W        W73450  37.585  35.314  14.050
 5057W        W73451  41.804  42.247  14.938
 5058W        W73452  17.539   3.331  11.549
 5059W        W73453   6.414  32.190  12.387
 5060W        W73454  24.226   7.747   2.049
 5061W        W73455  33.693  24.603   2.660
 5062W        W73456  26.627   5.307   4.776
 5063W        W73457  11.776   1.291  10.454
 5064W        W73458  34.133  31.105  14.220
 5065W        W73459  17.564   2.399   2.676
 5066W        W73460  27.890   1.215   4.200
 5067W        W73461   5.350  17.418   4.559
 5068W        W73462   4.110  38.828   4.914
 5069W        W73463  36.981  10.190  14.441
 5070W        W73464  28.614  13.180   2.275
 5071W        W73465   1.019   5.428   3.628
 5072W        W73466  23.559  16.087  10.696
 5073W        W73467  13.660   1.307  13.957
 5074W        W73468  24.580  23.119  14.334
 5075W        W73469  27.425  30.296   1.897
 5076W        W73470  43.886  21.646  11.625
 5077W        W73471  21.868  21.482  11.070
 5078W        W73472  28.725  33.889   1.714
 5079W        W73473  40.065  38.335  10.704
 5080W        W73474   0.144  20.022  14.934
 5081W        W73475  17.160  31.588   3.764
 5082W        W73476  31.973  28.462  12.045
 5083W        W73477  38.111  38.782   2.304
 5084W        W73478   0.968  29.706   5.070
 5085W        W73479  36.630  14.325  11.402
 5086W        W73480   0.806   1.427  13.907
 5087W        W73481  33.236  16.599   3.087
 5088W        W73482  43.698  23.575   1.857
 5089W        W73483  38.614  24.033   4.130
 5090W        W73484  38.470  24.672   4.886
 5091W        W73485  20.552  30.248   3.898
 5092W        W73486  34.392  25.130   1.533
 5093W        W73487  22.009  28.796   0.981
 5094W        W73488   0.754  12.389  11.455
 5095W        W73489  26.747   7.367  13.410
 5096W        W73490   7.861  24.231   3.701
 5097W        W73491  20.174  36.771  12.826
 5098W        W73492  36.958  23.228   1.659
 5099W        W73493  32.481   2.972  13.097
 5100W        W73494  28.567  33.192  14.136
 5101W        W73495  15.644  38.525  11.150
 5102W        W73496   9.009  42.520   2.757
 5103W        W73497  12.479  42.396  11.897
 5104W        W73498  12.603  31.584  11.182
 5105W        W73499  22.657  44.296  11.451
 5106W        W73500   6.532   2.629   0.177
 5107W        W73501  10.504  40.288  11.067
 5108W        W73502   1.472  25.968  14.358
 5109W        W73503  17.607  39.074   3.985
 5110W        W73504   6.701   2.629   4.501
 5111W        W73505  30.761  13.026   4.525
 5112W        W73506  19.658   3.010  13.082
 5113W        W73507   8.454  22.761   0.962
 5114W        W73508   6.187  43.979  12.923
 5115W        W73509  25.323   5.901  11.939
 5116W        W73510  28.087  16.614  11.146
 5117W        W73511  39.053  35.391  10.708
 5118W        W73512  35.000  15.885   1.156
 5119W        W73513   0.858  31.138   0.528
 5120W        W73514  20.302  33.993  12.399
 5121W        W73515   9.147  24.231   2.348
 5122W        W73516   2.868  29.705   3.012
 5123W        W73517  37.113   9.277   4.846
 5124W        W73518  25.976  31.284  12.907
 5125W        W73519   1.412  23.086   0.254
 5126W        W73520  10.836  36.795  12.823
 5127W        W73521  44.967   9.789  12.934
 5128W        W73522  12.069  42.857   3.867
 5129W        W73523  44.613  17.709   2.962
 5130W        W73524   6.740  30.191  13.793
 5131W        W73525   5.757  22.336   0.285
 5132W        W73526  30.161   2.281   4.498
 5133W        W73527  19.698  33.819   4.379
 5134W        W73528   8.598  16.399  13.962
 5135W        W73529  11.263  30.651   3.975
 5136W        W73530  36.151  17.279  14.470
 5137W        W73531  39.754   2.437  13.675
 5138W        W73532  23.982  20.751  13.492
 5139W        W73533  13.762  29.632   3.244
 5140W        W73534  10.626  40.887  13.066
 5141W        W73535  25.037  33.605   3.466
 5142W        W73536  24.629  12.004   2.332
 5143W        W73537  18.905  38.288   0.995
 5144W        W73538  44.644  42.123   3.344
 5145W        W73539  42.429  31.993   0.436
 5146W        W73540  18.717   5.456   2.375
 5147W        W73541  30.357  17.739   0.308
 5148W        W73542  20.616  12.619   0.200
 5149W        W73543  30.309  20.144   2.385
 5150W        W73544  20.822  22.627   0.550
 5151W        W73545  12.754  22.950  13.307
 5152W        W73546  28.984   7.164  12.734
 5153W        W73547  18.214  31.374  11.482
 5154W        W73548  23.316  41.597  12.428
 5155W        W73549  32.351  23.833  10.628
 5156W        W73550   9.359   1.245  14.714
 5157W        W73551  31.608  28.510  13.762
 5158W        W73552  23.502  14.327   3.165
 5159W        W73553   6.866  24.271   3.549
 5160W        W73554  39.833  13.862  12.160
 5161W        W73555  39.781  11.310  11.124
 5162W        W73556  16.658   9.139  12.456
 5163W        W73557  10.046  21.343  11.031
 5164W        W73558  20.742   4.919  10.153
 5165W        W73559  30.678  20.547   2.426
 5166W        W73560   2.987  43.626   2.805
 5167W        W73561  39.054  36.393  12.869
 5168W        W73562  18.552  12.595  11.609
 5169W        W73563  11.456  27.485  14.226
 5170W        W73564  38.909  12.309   4.500
 5171W        W73565  41.909  37.499   2.590
 5172W        W73566   2.730  29.598  12.031
 5173W        W73567  18.642  17.940  12.498
 5174W        W73568  18.067  42.472   2.278
 5175W        W73569  11.134  29.099   2.854
 5176W        W73570  14.800   0.740  11.696
 5177W        W73571  23.208  12.790   4.688
 5178W        W73572   3.019   3.886  11.477
 5179W        W73573   0.302  33.057   2.623
 5180W        W73574  18.346   2.946  10.776
 5181W        W73575  38.732  17.797  10.761
 5182W        W73576  19.731  41.075   1.785
 5183W        W73577  36.617  24.448   1.599
 5184W        W73578   8.360  36.375  13.849
 5185W        W73579  10.181  24.126  10.560
 5186W        W73580  24.778  36.236   4.961
 5187W        W73581  36.628   0.369   2.728
 5188W        W73582   9.227  29.552  14.325
 5189W        W73583   5.140   4.364   1.800
 5190W        W73584  37.483  32.029  13.007
 5191W        W73585  32.526  42.478   4.349
 5192W        W73586  12.425   3.228   1.177
 5193W        W73587  41.276  37.999  13.115
 5194W        W73588  13.340   6.660  13.447
 5195W        W73589  24.144  42.566   4.564
 5196W        W73590  42.767  23.513   3.216
 5197W        W73591  28.670  14.143  13.456
 5198W        W73592  32.994  14.348   2.657
 5199W        W73593  32.603  23.623   2.265
 5200W        W73594  37.501   2.218   3.657
 5201W        W73595  41.465   0.435   2.651
 5202W        W73596  10.171  42.250  12.878
 5203W        W73597  26.338   9.762  12.163
 5204W        W73598   6.883  38.923  12.875
 5205W        W73599  14.236  25.202   4.041
 5206W        W73600  13.104   5.975  11.920
 5207W        W73601   7.172  44.296  11.720
 5208W        W73602  14.796  36.464  13.438
 5209W        W73603  26.951   2.839   1.287
 5210W        W73604   7.474   8.379   4.127
 5211W        W73605  38.567  36.981   4.888
 5212W        W73606  21.631  26.907  13.902
 5213W        W73607  19.117  26.708  11.519
 5214W        W73608  30.493  42.331   4.604
 5215W        W73609   2.446  40.093  13.813
 5216W        W73610  33.038  26.062   0.916
 5217W        W73611  44.878  19.028   3.403
 5218W        W73612   0.422  37.003   3.170
 5219W        W73613   0.775   3.405  14.781
 5220W        W73614  39.021   5.459   1.307
 5221W        W73615  39.069  30.119   3.940
 5222W        W73616  29.593  33.125   2.314
 5223W        W73617  11.852  44.334  14.980
 5224W        W73618  44.701  15.716  10.778
 5225W        W73619  39.305  20.689  13.538
 5226W        W73620  28.017  43.741  14.246
 5227W        W73621  41.827  12.692  11.999
 5228W        W73622   8.115   2.968  14.828
 5229W        W73623  43.344  26.802  14.767
 5230W        W73624  26.006  27.316   1.379
 5231W        W73625  36.815   8.271   4.745
 5232W        W73626   6.597  36.626   0.205
 5233W        W73627  39.126   0.723   0.930
 5234W        W73628   6.506   1.193   5.518
 5235W        W73629  12.745   6.604  14.361
 5236W        W73630  18.064   3.943  12.871
 5237W        W73631  21.161  44.120   5.043
 5238W        W73632  20.966  17.293  11.467
 5239W        W73633  18.717  33.617  12.908
 5240W        W73634  37.328  14.495   3.754
 5241W        W73635  33.961   1.630  11.256
 5242W        W73636  13.716  16.681   0.744
 5243W        W73637  22.197  43.943   4.624
 5244W        W73638  10.252  39.347   4.983
 5245W        W73639  26.734   1.461   3.870
 5246W        W73640   3.036  28.219  10.974
 5247W        W73641  36.403   3.602   4.001
 5248W        W73642  32.999  23.211   3.161
 5249W        W73643   5.626  10.314  10.988
 5250W        W73644  33.148  11.215  14.423
 5251W        W73645   5.866  41.915  14.976
 5252W        W73646   1.761   2.774  12.061
 5253W        W73647  32.143   8.711  10.887
 5254W        W73648   6.766  18.807   3.318
 5255W        W73649  24.441  19.225  13.433
 5256W        W73650  44.026   5.050   1.433
 5257W        W73651   6.798  10.883   2.713
 5258W        W73652  40.807  30.664  11.164
 5259W        W73653  41.283  39.442  14.919
 5260W        W73654  30.885   8.699   4.174
 5261W        W73655  21.730  31.301   2.934
 5262W        W73656  41.169  23.381   2.787
 5263W        W73657  41.350  25.236  12.502
 5264W        W73658  38.540   7.838  11.213
 5265W        W73659   5.641   2.285   1.416
 5266W        W73660  18.119  35.925   3.200
 5267W        W73661  38.869  35.183  14.557
 5268W        W73662   2.288  28.735  11.687
 5269W        W73663  40.515  18.723   0.710
 5270W        W73664   3.836  41.367  12.908
 5271W        W73665  27.204  37.815  11.152
 5272W        W73666   4.703  23.183   3.024
 5273W        W73667  32.542  44.304   2.596
 5274W        W73668  32.894  33.982  11.198
 5275W        W73669  15.120  38.873   0.891
 5276W        W73670   9.055  34.644  14.565
 5277W        W73671   9.154  32.955  13.769
 5278W        W73672  40.391  42.386   2.795
 5279W        W73673   3.367  19.033  12.950
 5280W        W73674   7.485  19.928   3.526
 5281W        W73675  12.699   1.811   2.418
 5282W        W73676   7.133   7.581  13.153
 5283W        W73677   1.884  28.650  12.000
 5284W        W73678  26.553  36.779   0.973
 5285W        W73679  42.391  36.580   4.643
 5286W        W73680   4.470   6.434   0.956
 5287W        W73681  23.212  32.717  13.651
 5288W        W73682  35.692  21.251   0.034
 5289W        W73683   0.255  16.483  14.087
 5290W        W73684  42.036  23.760   1.343
 5291W        W73685  11.807  10.803  13.506
 5292W        W73686  35.360  41.989   3.642
 5293W        W73687  40.750  36.330  10.182
 5294W        W73688  19.321  13.526  12.599
 5295W        W73689  40.103  35.667   3.201
 5296W        W73690   5.697  36.354   0.331
 5297W        W73691  32.049  42.109  12.018
 5298W        W73692  10.147   1.723   4.964
 5299W        W73693  26.122  23.110  13.306
 5300W        W73694  24.267  40.821   0.929
 5301W        W73695   5.902  19.572  14.556
 5302W        W73696  44.338  13.582   2.374
 5303W        W73697  17.802  43.499   4.163
 5304W        W73698  26.467  24.345  13.629
 5305W        W73699   2.429   1.912  11.187
 5306W        W73700  25.445  17.087   4.414
 5307W        W73701  37.118  20.153   3.713
 5308W        W73702  40.103  37.052   0.042
 5309W        W73703  34.953  34.425  11.720
 5310W        W73704  10.889  20.669   1.970
 5311W        W73705  24.252  11.586   2.262
 5312W        W73706   1.305  41.454   3.323
 5313W        W73707   5.054  25.601  10.287
 5314W        W73708  42.973   2.390  11.074
 5315W        W73709  37.041  16.362  13.939
 5316W        W73710   3.762  11.869  13.341
 5317W        W73711  40.369  39.337   0.292
 5318W        W73712  13.418   8.825   1.327
 5319W        W73713  25.310  42.435  13.845
 5320W        W73714  10.868  22.669   4.064
 5321W        W73715   8.245  44.618  12.596
 5322W        W73716   6.115  35.158   3.650
 5323W        W73717  17.945  15.726   4.905
 5324W        W73718  36.318  33.244  14.926
 5325W        W73719  18.054   5.846   0.813
 5326W        W73720  27.388  16.823  13.489
 5327W        W73721  34.011  34.753   2.206
 5328W        W73722  14.079  21.932   0.125
 5329W        W73723  13.454  15.306  12.414
 5330W        W73724  18.841  39.452   0.818
 5331W        W73725  12.844  33.049  13.388
 5332W        W73726  21.993   8.056  14.410
 5333W        W73727  35.346  23.030   3.583
 5334W        W73728  14.592   9.977   2.968
 5335W        W73729   8.262  36.021  14.564
 5336W        W73730  19.137  36.831   4.288
 5337W        W73731  34.043  29.818  13.730
 5338W        W73732  22.675  16.151  12.747
 5339W        W73733  34.521  13.155   3.111
 5340W        W73734  22.077  17.089  14.752
 5341W        W73735   3.487  13.345  11.128
 5342W        W73736  29.202  19.535  14.107
 5343W        W73737  36.255  20.325  11.694
 5344W        W73738  10.819  36.664   2.515
 5345W        W73739  33.707  23.909   1.005
 5346W        W73740  41.917  36.598  11.598
 5347W        W73741  42.137  14.922  13.286
 5348W        W73742  21.812  27.637  12.354
 5349W        W73743  27.966  34.553   4.141
 5350W        W73744  27.913  12.848  14.199
 5351W        W73745  42.290   7.104   4.668
 5352W        W73746   7.749  20.090   2.737
 5353W        W73747   6.630  38.792   4.349
 5354W        W73748  22.193  35.147  12.567
 5355W        W73749  30.083  18.579  14.460
 5356W        W73750  42.924   4.495   4.170
 5357W        W73751  38.312  18.304   0.276
 5358W        W73752  20.700   9.305  12.559
 5359W        W73753  28.001  35.895   3.396
 5360W        W73754   4.399  27.515   0.292
 5361W        W73755  17.720  44.001  11.381
 5362W        W73756  16.003  19.218  11.550
 5363W        W73757  36.422  16.799  14.649
 5364W        W73758   3.679  40.086   2.491
 5365W        W73759   1.461   9.918  12.599
 5366W        W73760  40.525   5.912   3.734
 5367W        W73761   8.951  23.897   9.886
 5368W        W73762   9.907   9.374   1.438
 5369W        W73763   7.262  34.460   4.089
 5370W        W73764  18.833  13.917  14.998
 5371W        W73765  15.206  39.157  12.957
 5372W        W73766   4.374  43.387   2.467
 5373W        W73767  35.784  25.539  10.576
 5374W        W73768  38.911  15.803  10.543
 5375W        W73769   2.662  24.024   1.198
 5376W        W73770  24.455  19.549  14.410
 5377W        W73771  41.346   8.809  10.522
 5378W        W73772  24.709  15.847  14.368
 5379W        W73773  22.006   9.418   2.108
 5380W        W73774  35.645  40.867  10.808
 5381W        W73775  24.124  39.769   5.097
 5382W        W73776  16.525  25.493  13.860
 5383W        W73777  13.255  37.794  12.292
 5384W        W73778  44.939  36.606  12.989
 5385W        W73779   3.374  33.409   0.220
 5386W        W73780  10.376  41.364   1.703
 5387W        W73781  24.898  27.236   0.995
 5388W        W73782   0.072  22.079  11.983
 5389W        W73783   3.345   9.103  13.615
 5390W        W73784   0.197  42.482  14.346
 5391W        W73785  30.093  19.063  14.223
 5392W        W73786   3.924  27.212  10.637
 5393W        W73787  41.632  12.107  14.355
 5394W        W73788  14.235  31.468  12.063
 5395W        W73789  32.727   3.493   3.246
 5396W        W73790   1.054  14.965  11.465
 5397W        W73791  37.034  39.862  14.537
 5398W        W73792  24.027  10.264   1.432
 5399W        W73793  18.321  22.228   2.574
 5400W        W73794  12.700  26.687  14.315
 5401W        W73795   8.919  41.974   4.261
 5402W        W73796  32.076  31.886   3.160
 5403W        W73797  38.781   9.156   1.318
 5404W        W73798  37.469  41.522   4.120
 5405W        W73799  29.544  36.118  12.885
 5406W        W73800   8.291  18.010  13.522
 5407W        W73801  14.547  42.064  12.405
 5408W        W73802  39.042  12.144   0.333
 5409W        W73803  43.849  26.164  11.533
 5410W        W73804  26.092   2.553  11.185
 5411W        W73805  22.147  17.197  14.219
 5412W        W73806  20.344  36.935   4.941
 5413W        W73807  35.490  14.822  13.847
 5414W        W73808  12.833   5.162   0.539
 5415W        W73809  44.379  32.039   2.756
 5416W        W73810  41.886  18.478  12.157
 5417W        W73811  26.894  27.034   2.794
 5418W        W73812  15.747   1.161   5.085
 5419W        W73813   1.321  11.790   4.697
 5420W        W73814  20.965  31.628   4.182
 5421W        W73815   7.651   7.623   0.279
 5422W        W73816  14.624  10.773   1.288
 5423W        W73817  39.310  14.586   0.811
 5424W        W73818   1.446  31.903   2.620
 5425W        W73819  28.016   2.356  11.904
 5426W        W73820   4.853   4.607  12.859
 5427W        W73821  43.224  39.456   5.550
 5428W        W73822  33.893  13.689   1.882
 5429W        W73823  37.799  20.604   1.430
 5430W        W73824  14.386  24.755  11.513
 5431W        W73825   1.850   0.303   2.994
 5432W        W73826   8.381  26.225  13.015
 5433W        W73827  29.283  34.752  12.371
 5434W        W73828  40.615  26.488  10.851
 5435W        W73829  44.951  29.206  11.991
 5436W        W73830  42.405  41.527   2.256
 5437W        W73831  29.143   0.830   4.208
 5438W        W73832  18.013  36.967  12.409
 5439W        W73833  38.864  33.223   2.267
 5440W        W73834  33.336  27.602  11.097
 5441W        W73835  21.920   5.255  10.416
 5442W        W73836   1.231  29.665  11.158
 5443W        W73837  11.433  27.597  12.111
 5444W        W73838  41.964  23.637  12.540
 5445W        W73839   0.765  19.167  11.625
 5446W        W73840  26.384  18.598  12.510
 5447W        W73841   9.235  29.359   2.869
 5448W        W73842  22.538   1.950  10.697
 5449W        W73843  37.462  44.283   4.695
 5450W        W73844  37.925  12.684   4.086
 5451W        W73845  44.358  11.304   3.722
 5452W        W73846   3.225   2.775   1.201
 5453W        W73847  42.267   8.230  14.264
 5454W        W73848  31.444  30.512  14.752
 5455W        W73849   6.265  41.494   4.120
 5456W        W73850   5.942  20.159   1.857
 5457W        W73851  25.763   2.018   4.590
 5458W        W73852  39.314  33.131  11.155
 5459W        W73853   3.398   9.228   4.653
 5460W        W73854  26.640  23.971   1.339
 5461W        W73855   1.485   4.674  14.418
 5462W        W73856  15.612   2.845  14.672
 5463W        W73857  39.984  37.787  13.428
 5464W        W73858  13.302   8.863   3.586
 5465W        W73859  14.467  41.537   5.302
 5466W        W73860  12.777  37.593   1.312
 5467W        W73861  40.857  26.822  13.889
 5468W        W73862   2.777  32.161   1.157
 5469W        W73863  29.284  27.159  12.872
 5470W        W73864  14.749   6.689   1.123
 5471W        W73865  14.500  37.754  11.067
 5472W        W73866   8.466  42.242  13.544
 5473W        W73867   7.266  17.004   2.310
 5474W        W73868  10.339   0.626   3.776
 5475W        W73869  26.465  37.470  14.514
 5476W        W73870   9.924  44.889   4.054
 5477W        W73871  16.673  26.024   2.729
 5478W        W73872   5.275  44.008   3.336
 5479W        W73873   1.750  30.986  11.575
 5480W        W73874  36.532  29.109   0.756
 5481W        W73875  40.839   9.348  11.593
 5482W        W73876  30.115  16.833  11.710
 5483W        W73877  14.637  28.946  11.546
 5484W        W73878  39.401  25.811  11.653
 5485W        W73879  24.874  30.924  11.139
 5486W        W73880  10.221  33.853   4.972
 5487W        W73881  17.813   2.527  12.178
 5488W        W73882  30.131  14.107  13.430
 5489W        W73883   7.082  12.209  10.677
 5490W        W73884  13.095  27.725   1.339
 5491W        W73885  28.881  13.066   4.180
 5492W        W73886  37.447  33.399  13.396
 5493W        W73887  44.967  23.565  11.634
 5494W        W73888  36.313  34.869   4.135
 5495W        W73889  17.621   8.329   1.363
 5496W        W73890  15.748  34.533   2.843
 5497W        W73891   1.737  22.595  13.367
 5498W        W73892  36.061  31.162  13.499
 5499W        W73893  14.985   3.441  11.661
 5500W        W73894  28.142  44.424  14.710
 5501W        W73895  10.078  35.102  11.589
 5502W        W73896   2.256   5.935   3.335
 5503W        W73897  28.065  24.029  14.370
 5504W        W73898  29.036   4.704   2.203
 5505W        W73899  28.694  17.820   3.175
 5506W        W73900   0.821  24.580  11.107
 5507W        W73901  38.066   7.293   1.494
 5508W        W73902   9.204  37.991   3.329
 5509W        W73903  16.440  28.551  12.993
 5510W        W73904  27.565   0.831  14.450
 5511W        W73905   6.846  38.925   2.940
 5512W        W73906  20.745   8.368  13.811
 5513W        W73907  38.065  43.532  10.388
 5514W        W73908   0.677  40.566  12.420
 5515W        W73909  17.623  11.618  13.529
 5516W        W73910  39.254  25.612  10.750
 5517W        W73911  35.147   9.132  12.956
 5518W        W73912  28.962  39.846   0.077
 5519W        W73913   6.953  38.967  11.137
 5520W        W73914  17.045   7.124  12.955
 5521W        W73915  17.680   7.547  14.873
 5522W        W73916  13.188  26.746  11.092
 5523W        W73917   2.720   6.339  13.599
 5524W        W73918   7.307  26.886  14.746
 5525W        W73919  42.545  32.928   2.235
 5526W        W73920   7.479  32.418  10.400
 5527W        W73921  19.962  29.250  10.068
 5528W        W73922  42.859   3.384  10.602
 5529W        W73923  41.843  43.400   2.277
 5530W        W73924  19.802  25.043   5.459
 5531W        W73925  12.637  20.121  14.684
 5532W        W73926  14.321  44.825   0.226
 5533W        W73927  29.951  24.258   1.855
 5534W        W73928  30.270  17.584  11.225
 5535W        W73929  15.761  33.996  11.518
 5536W        W73930   4.436  34.572  10.599
 5537W        W73931  18.813   3.892   3.725
 5538W        W73932   4.200  26.684   2.007
 5539W        W73933  42.498  38.988   0.750
 5540W        W73934  19.575  43.962  12.363
 5541W        W73935   1.605  34.316   0.971
 5542W        W73936  14.870  44.876  14.359
 5543W        W73937  18.114   3.004  13.458
 5544W        W73938   9.170  33.063   4.490
 5545W        W73939  21.229  32.396   9.919
 5546W        W73940   5.826  19.678   4.661
 5547W        W73941  11.389   7.358   0.437
 5548W        W73942  11.804  22.984  14.254
 5549W        W73943  13.247  21.690  12.480
 5550W        W73944  42.488  29.136  13.681
 5551W        W73945   2.861   0.718  12.893
 5552W        W73946  14.818  24.516  12.268
 5553W        W73947   1.248  29.346  12.954
 5554W        W73948  31.425  17.183  13.313
 5555W        W73949   6.933  22.744  10.087
 5556W        W73950  21.724  27.516   9.780
 5557W        W73951  23.730  43.859   4.307
 5558W        W73952  36.274   2.352  11.211
 5559W        W73953  33.493  12.301  10.150
 5560W        W73954  38.881   2.358   4.301
 5561W        W73955  23.347  40.779  12.090
 5562W        W73956  20.116  26.890   4.096
 5563W        W73957   9.488   9.810  10.705
 5564W        W73958  31.331  14.271  11.578
 5565W        W73959  16.564   7.129  13.492
 5566W        W73960  26.686  41.631  10.722
 5567W        W73961   9.128  25.123   4.963
 5568W        W73962  23.459   1.186  12.818
 5569W        W73963  30.612   8.499  12.521
 5570W        W73964  30.882  14.239   2.739
 5571W        W73965   2.749  22.319  13.583
 5572W        W73966  29.966  23.768   0.460
 5573W        W73967  35.328   0.432   0.310
 5574W        W73968  25.731  19.055   0.259
 5575W        W73969  15.066  35.467  13.548
 5576W        W73970   4.209  30.421   4.117
 5577W        W73971   7.175  22.032  14.309
 5578W        W73972   3.970  17.874  10.766
 5579W        W73973  21.042   6.106   4.603
 5580W        W73974  19.939  41.899   2.423
 5581W        W73975  18.649  27.947   1.815
 5582W        W73976   7.162  17.194   1.291
 5583W        W73977  31.083  18.872  11.137
 5584W        W73978   7.790  20.647   2.660
 5585W        W73979  38.087   6.111  14.720
 5586W        W73980  19.917  10.916   4.050
 5587W        W73981   9.421  40.770   3.115
 5588W        W73982  44.428  13.796   1.055
 5589W        W73983  38.904   3.791  11.302
 5590W        W73984  29.222   3.266   1.438
 5591W        W73985  34.902   1.623  11.948
 5592W        W73986  29.708   6.352  13.503
 5593W        W73987  11.073  16.692   3.193
 5594W        W73988  35.814   9.784  13.728
 5595W        W73989  20.175  34.117   3.324
 5596W        W73990  27.205  36.182   2.429
 5597W        W73991  20.365  23.221   3.209
 5598W        W73992  19.905  29.072   2.636
 5599W        W73993  17.807  13.964   3.753
 5600W        W73994   3.124  26.144   4.702
 5601W        W73995  30.824   3.870   4.293
 5602W        W73996  16.976  14.368  11.574
 5603W        W73997  36.035  32.021   0.045
 5604W        W73998  12.105   4.782  12.519
 5605W        W73999  25.825  17.524   4.137
 5606W        W74000  12.770  23.712  12.602
 5607W        W74001  17.326  11.729   2.175
 5608W        W74002  19.586  26.148  14.798
 5609W        W74003  42.895  33.583  14.712
 5610W        W74004  35.391  32.691  10.604
 5611W        W74005  35.303  19.969   2.883
 5612W        W74006  42.554  22.924   5.061
 5613W        W74007  35.515  42.899  13.103
 5614W        W74008  36.150  17.650   0.643
 5615W        W74009   3.351  44.495   1.809
 5616W        W74010  29.636   1.360   3.292
 5617W        W74011  42.400   2.944   0.997
 5618W        W74012  10.099  42.796  14.852
 5619W        W74013  12.482  27.409  12.173
 5620W        W74014  15.679  30.584  12.510
 5621W        W74015  13.670  31.933   4.715
 5622W        W74016  26.445   4.819  14.389
 5623W        W74017  43.818  20.012   0.690
 5624W        W74018  36.712  39.978  10.020
 5625W        W74019  18.712  34.478  13.881
 5626W        W74020  31.932   4.973   2.860
 5627W        W74021  34.190  35.971  10.611
 5628W        W74022  11.828  24.697   3.332
 5629W        W74023  38.756  10.646   4.578
 5630W        W74024  33.678  36.070   2.283
 5631W        W74025  24.842  33.131   3.328
 5632W        W74026  15.714  15.236  12.666
 5633W        W74027  15.700  42.472   1.744
 5634W        W74028  44.890  19.572   2.668
 5635W        W74029  21.738  37.547   2.401
 5636W        W74030  39.327  35.738  14.902
 5637W        W74031  38.700  25.032  12.838
 5638W        W74032  31.674  16.826  13.001
 5639W        W74033  43.676  40.448   2.152
 5640W        W74034  24.864  40.057  13.361
 5641W        W74035   5.499  16.737   0.661
 5642W        W74036  20.036  19.758   3.663
 5643W        W74037  16.242  18.108  13.307
 5644W        W74038  44.452  40.014  13.423
 5645W        W74039  16.661  18.437  13.289
 5646W        W74040  31.312  23.099  14.835
 5647W        W74041  18.072   9.236  12.682
 5648W        W74042  27.130  23.173   1.373
 5649W        W74043   3.406  30.307  14.405
 5650W        W74044  11.191  27.207   4.100
 5651W        W74045   5.718   8.201   4.647
 5652W        W74046   8.852  29.183  12.348
 5653W        W74047   8.422   8.850  13.637
 5654W        W74048   2.202   2.413   0.842
 5655W        W74049  12.303  35.940  10.678
 5656W        W74050  39.050  37.118   3.085
 5657W        W74051  12.971  33.366   0.955
 5658W        W74052  27.526  39.419  12.958
 5659W        W74053  15.847  36.373   0.911
 5660W        W74054   9.588  22.600   1.794
 5661W        W74055   1.416  13.195   1.855
 5662W        W74056   9.808  39.433   4.676
 5663W        W74057  22.592  23.385  10.325
 5664W        W74058   7.681  25.047   3.287
 5665W        W74059  11.920  27.725  14.257
 5666W        W74060  38.887  41.537   2.280
 5667W        W74061  43.706  42.880   2.822
 5668W        W74062  39.351  43.960   3.167
 5669W        W74063  25.091  40.057   2.767
 5670W        W74064  28.718   2.826   3.639
 5671W        W74065  22.173  26.683   3.225
 5672W        W74066  31.161  22.081   1.176
 5673W        W74067  20.186   4.311  11.541
 5674W        W74068  21.093  20.544  13.407
 5675W        W74069   5.174  18.845   1.827
 5676W        W74070  41.450  15.499   4.207
 5677W        W74071  33.384   0.221   4.887
 5678W        W74072  36.794  39.839   0.039
 5679W        W74073  30.628  22.726  13.419
 5680W        W74074  35.609  41.981   4.135
 5681W        W74075   8.846  20.878   1.355
 5682W        W74076   0.881  28.512   2.737
 5683W        W74077   9.043  40.507   0.501
 5684W        W74078   5.212   7.530  14.028
 5685W        W74079  20.584  22.189   1.192
 5686W        W74080  18.798   1.299  10.508
 5687W        W74081  42.042  43.267   3.610
 5688W        W74082  35.886  39.582  11.104
 5689W        W74083  42.435   6.567  11.592
 5690W        W74084  28.785  44.616  11.106
 5691W        W74085  44.352  16.794  12.118
 5692W        W74086   1.874  18.278   0.487
 5693W        W74087   9.442  38.959  10.021
 5694W        W74088  40.045  14.375   4.717
 5695W        W74089  15.780  35.926  13.777
 5696W        W74090  27.622  21.347   2.241
 5697W        W74091  38.290  24.177   4.628
 5698W        W74092  43.263  34.945   2.376
 5699W        W74093   5.225  44.224  10.676
 5700W        W74094  36.090  34.291   1.951
 5701W        W74095  27.504  41.456   0.293
 5702W        W74096  19.395  33.440  11.508
 5703W        W74097  12.780  10.416   3.290
 5704W        W74098   8.827  35.122  10.673
 5705W        W74099  37.126  34.554  11.645
 5706W        W74100  33.687  20.076   0.645
 5707W        W74101  29.039  24.518  13.384
 5708W        W74102   0.512  22.214   0.410
 5709W        W74103  41.295  17.266   1.939
 5710W        W74104   7.924   5.757  12.556
 5711W        W74105  19.973  37.644   5.071
 5712W        W74106  38.469  43.472   4.305
 5713W        W74107  15.648  17.581  12.270
 5714W        W74108  24.551  11.337  14.526
 5715W        W74109   3.289  28.316  11.742
 5716W        W74110  15.622  25.158   2.662
 5717W        W74111  40.720  33.558   3.657
 5718W        W74112  44.649  28.940  11.583
 5719W        W74113  30.594  34.538   1.997
 5720W        W74114  28.618  28.434  10.965
 5721W        W74115  40.464  24.700   2.800
 5722W        W74116   3.462  25.153  10.830
 5723W        W74117  25.995  24.164  13.463
 5724W        W74118  44.940  33.584  14.836
 5725W        W74119  27.572  20.904   1.329
 5726W        W74120  11.305  11.165   2.029
 5727W        W74121   4.935  27.554  11.458
 5728W        W74122  39.922  17.775   3.593
 5729W        W74123  31.690  44.201  12.416
 5730W        W74124  34.572  39.898  14.449
 5731W        W74125  20.469  38.813  14.795
 5732W        W74126  33.173  42.940   4.230
 5733W        W74127  36.872  40.998  11.426
 5734W        W74128  20.297  29.080  12.913
 5735W        W74129  19.622  24.067  13.681
 5736W        W74130   6.144  18.144  14.938
 5737W        W74131  24.647  21.001  10.574
 5738W        W74132  19.762  27.139  12.658
 5739W        W74133  43.417  16.042  12.450
 5740W        W74134  19.922  36.387  11.156
 5741W        W74135  28.041  31.947  12.328
 5742W        W74136   9.900   2.218   2.428
 5743W        W74137  31.706  15.935   1.371
 5744W        W74138  12.363  35.077  14.097
 5745W        W74139  33.475  30.934   4.349
 5746W        W74140   2.536  36.242   5.167
 5747W        W74141   7.345  43.238  11.058
 5748W        W74142  30.517   4.324   2.697
 5749W        W74143  27.796  26.413   4.621
 5750W        W74144  42.347  14.641   1.301
 5751W        W74145  40.454  35.897   1.375
 5752W        W74146  38.581  20.610  11.492
 5753W        W74147  14.807  37.430  13.614
 5754W        W74148  15.691  23.865  12.958
 5755W        W74149  23.258  38.945  13.658
 5756W        W74150  19.537   9.839   1.570
 5757W        W74151  12.804  36.342  11.691
 5758W        W74152   2.451  24.941   0.381
 5759W        W74153   3.742  32.472  12.088
 5760W        W74154   4.928  32.687   2.820
 5761W        W74155   4.277  20.508   1.394
 5762W        W74156   7.885  43.397   4.885
 5763W        W74157   4.830  41.198  10.228
 5764W        W74158  20.247  41.474   3.323
 5765W        W74159  27.341   9.030  11.653
 5766W        W74160  29.806   4.856  13.455
 5767W        W74161  21.273  29.899  11.654
 5768W        W74162   1.500  25.567  14.730
 5769W        W74163   9.899  24.066   4.108
 5770W        W74164  30.250  18.915  13.710
 5771W        W74165  42.233  42.577   2.384
 5772W        W74166  24.907  10.316   3.277
 5773W        W74167  26.979  13.723  14.458
 5774W        W74168  23.697  17.256  12.074
 5775W        W74169  35.706  21.545   2.217
 5776W        W74170   8.220  22.049  14.956
 5777W        W74171  40.486   7.422   1.460
 5778W        W74172  17.994  38.308  12.883
 5779W        W74173  20.844  36.963   0.863
 5780W        W74174  27.620  10.618   4.860
 5781W        W74175  17.163  17.121  11.160
 5782W        W74176   5.179  25.013   3.119
 5783W        W74177  30.157  43.214   0.362
 5784W        W74178  32.944  21.571   0.774
 5785W        W74179   5.209  36.578  13.025
 5786W        W74180  26.085  33.165   1.239
 5787W        W74181  29.128  34.226   4.779
 5788W        W74182  33.067   3.821  14.197
 5789W        W74183  36.647  43.702  13.032
 5790W        W74184  15.780  12.608  12.502
 5791W        W74185  19.956  20.915  10.239
 5792W        W74186  23.773  44.504  14.877
 5793W        W74187  13.920   3.599   2.876
 5794W        W74188  20.583  10.903  13.499
 5795W        W74189  35.489   2.988   2.220
 5796W        W74190  14.434   0.735   4.061
 5797W        W74191   0.986   1.462   3.219
 5798W        W74192   6.878  40.333   2.179
 5799W        W74193   5.019  22.229  12.983
 5800W        W74194   9.585  29.656  10.453
 5801W        W74195   3.246  36.172   4.925
 5802W        W74196  36.862  36.276  12.068
 5803W        W74197   8.281  42.328  14.340
 5804W        W74198   1.803   5.102  12.594
 5805W        W74199  13.796  23.680  13.925
 5806W        W74200  40.442  38.825  13.927
 5807W        W74201  12.510  18.579  12.993
 5808W        W74202   1.042  13.209  13.905
 5809W        W74203  26.482  26.508   4.039
 5810W        W74204  23.564  24.696  14.532
 5811W        W74205  10.766   5.350   0.391
 5812W        W74206   7.165  10.270  14.764
 5813W        W74207  28.735   3.918   4.271
 5814W        W74208  19.186  25.198   2.781
 5815W        W74209  13.322  16.578  10.680
 5816W        W74210  39.554   8.669   3.540
 5817W        W74211  41.648  24.897  12.908
 5818W        W74212  35.007  27.596  14.473
 5819W        W74213  14.880   0.451   3.250
 5820W        W74214  44.280   4.895  12.539
 5821W        W74215  39.120  39.552  12.164
 5822W        W74216   8.708  40.467   0.896
 5823W        W74217  11.478  21.117   2.729
 5824W        W74218  13.747   7.021  13.449
 5825W        W74219  25.546  16.566   2.707
 5826W        W74220  44.401   0.882   4.994
 5827W        W74221  31.703   1.183   4.982
 5828W        W74222   4.466  11.159   4.426
 5829W        W74223  11.608   9.634  13.376
 5830W        W74224  32.290  30.426   4.129
 5831W        W74225  10.114   2.049  14.812
 5832W        W74226  42.370  35.489   2.374
 5833W        W74227  38.062  36.303  11.994
 5834W        W74228  29.453  43.701   3.758
 5835W        W74229  10.690  12.165  13.721
 5836W        W74230  23.593  27.947  14.291
 5837W        W74231   4.304  26.290   4.289
 5838W        W74232  43.214  25.978  14.461
 5839W        W74233   5.946  38.341   0.855
 5840W        W74234  23.510   3.277  13.280
 5841W        W74235   5.302   0.715   0.870
 5842W        W74236  26.716  21.093  13.487
 5843W        W74237  21.720  43.264   2.693
 5844W        W74238  33.564   8.851  14.864
 5845W        W74239  34.931   2.426  14.062
 5846W        W74240  15.410  16.169  11.933
 5847W        W74241   6.470  27.934  12.537
 5848W        W74242  37.319  12.280   2.573
 5849W        W74243  35.327  18.195   3.654
 5850W        W74244  30.153  41.472   4.568
 5851W        W74245  38.966  40.275  10.760
 5852W        W74246  43.505  40.736   4.981
 5853W        W74247  26.477   2.889  14.485
 5854W        W74248  30.125  30.722  14.468
 5855W        W74249  44.373  35.428  12.967
 5856W        W74250  16.312  38.657   0.766
 5857W        W74251   7.671   8.607  11.855
 5858W        W74252  35.448   4.807  10.395
 5859W        W74253  39.693  11.377   0.254
 5860W        W74254   5.705  23.668  10.285
 5861W        W74255  27.542  42.068   1.783
 5862W        W74256  17.046  38.479  12.125
 5863W        W74257  26.610   6.920   2.773
 5864W        W74258  19.613  24.179   2.130
 5865W        W74259  12.634  11.410  12.484
 5866W        W74260  13.539  14.287  12.022
 5867W        W74261  14.278  30.851   3.365
 5868W        W74262   5.215  16.416  12.981
 5869W        W74263   2.457   5.840   0.350
 5870W        W74264   5.651   9.649   4.506
 5871W        W74265  17.608   5.120  11.608
 5872W        W74266   6.533  20.651   3.249
 5873W        W74267   2.292  24.776  10.832
 5874W        W74268  39.479   5.192   2.442
 5875W        W74269  18.076  43.799  14.595
 5876W        W74270  23.264  21.685  14.412
 5877W        W74271  11.750  33.483   3.591
 5878W        W74272  12.604   5.723   3.760
 5879W        W74273  18.375   2.385   4.696
 5880W        W74274  28.602  42.683  13.870
 5881W        W74275  11.564  16.829  11.115
 5882W        W74276  31.095  38.729   4.157
 5883W        W74277  36.417  12.560   0.075
 5884W        W74278   8.424  15.644   1.422
 5885W        W74279  13.333  21.526  10.792
 5886W        W74280   0.663  16.294  12.883
 5887W        W74281  30.948  32.234   3.641
 5888W        W74282  23.089  28.968  13.965
 5889W        W74283   7.278   8.861  12.090
 5890W        W74284  27.951  44.926  10.871
 5891W        W74285  26.456   4.965   1.380
 5892W        W74286   5.792  11.483  14.235
 5893W        W74287  20.267  22.711  13.395
 5894W        W74288  16.375  33.566  12.758
 5895W        W74289  16.150  36.857   3.418
 5896W        W74290  34.023  34.768   1.702
 5897W        W74291  26.828  16.374   2.479
 5898W        W74292  14.190  37.085  13.896
 5899W        W74293   4.006  12.246   0.630
 5900W        W74294   3.441   1.710   0.001
 5901W        W74295  16.719  23.205  13.257
 5902W        W74296  41.702   4.850   3.676
 5903W        W74297  25.494  29.086   3.242
 5904W        W74298  26.380  34.778  13.515
 5905W        W74299  34.517  35.637  12.375
 5906W        W74300  32.130  31.211  13.949
 5907W        W74301  22.993  43.658   1.846
 5908W        W74302  23.732  20.333  13.270
 5909W        W74303   8.937  16.064  12.621
 5910W        W74304  26.471   2.897  11.235
 5911W        W74305  17.258  12.488   0.612
 5912W        W74306  19.107  14.343  11.364
 5913W        W74307  19.618  31.490   3.135
 5914W        W74308  28.673  11.874  13.845
 5915W        W74309  14.394  18.730   4.264
 5916W        W74310   9.528   3.840   0.345
 5917W        W74311  41.617   3.463  11.921
 5918W        W74312  11.825  10.287  13.636
 5919W        W74313  16.500  13.643   4.652
 5920W        W74314  17.115  43.898  13.442
 5921W        W74315  20.590  19.601  13.502
 5922W        W74316  15.094   2.649  12.602
 5923W        W74317   5.118   2.707  10.247
 5924W        W74318  30.632   2.082   2.792
 5925W        W74319  33.701   1.190   0.773
 5926W        W74320  36.958  22.215  13.642
 5927W        W74321  32.945  28.229   1.217
 5928W        W74322  42.577   1.436   3.479
 5929W        W74323   0.741  35.030   0.912
 5930W        W74324  44.981  40.483   1.844
 5931W        W74325  35.119  21.765  12.118
 5932W        W74326  36.097  29.528   2.161
 5933W        W74327  31.909  38.805   0.236
 5934W        W74328  15.618  25.031   0.643
 5935W        W74329  18.618  17.615   3.201
 5936W        W74330  13.139  24.691   4.672
 5937W        W74331  36.865  33.751   3.625
 5938W        W74332  29.057   8.287  13.490
 5939W        W74333   8.396  11.442  12.353
 5940W        W74334  34.074   3.455   3.113
 5941W        W74335   4.295  25.516  14.392
 5942W        W74336  32.373  26.175  13.572
 5943W        W74337  44.038  24.645  10.626
 5944W        W74338  37.840  21.373   0.911
 5945W        W74339   9.347  12.165   1.278
 5946W        W74340  36.439  15.607   4.296
 5947W        W74341  19.745  18.238  11.186
 5948W        W74342  10.356  41.854  11.492
 5949W        W74343   9.259  25.227  13.801
 5950W        W74344  17.860  14.858   0.410
 5951W        W74345   5.873  22.671   0.745
 5952W        W74346  13.867  31.458  14.392
 5953W        W74347  26.002   4.357   3.303
 5954W        W74348  34.881  44.140  10.790
 5955W        W74349  34.068  29.602  13.246
 5956W        W74350  35.300  15.109   0.847
 5957W        W74351  37.047  13.242   4.559
 5958W        W74352   2.104  31.759  11.611
 5959W        W74353  26.272   8.596  13.559
 5960W        W74354  44.163  40.904   1.745
 5961W        W74355  12.882  34.863   3.807
 5962W        W74356  37.066  43.080  12.544
 5963W        W74357  12.307   1.713   3.616
 5964W        W74358  20.576  15.714   5.348
 5965W        W74359  36.867  27.671   1.680
 5966W        W74360   3.599  29.285  14.515
 5967W        W74361   7.259   9.605  12.980
 5968W        W74362  30.793   2.916  13.899
 5969W        W74363  12.199  10.183   1.384
 5970W        W74364  37.454   9.287   1.169
 5971W        W74365   7.907  33.575   3.360
 5972W        W74366   2.016   7.768   3.035
 5973W        W74367   4.394  17.777   3.410
 5974W        W74368  16.037  33.328   0.307
 5975W        W74369  26.953  16.836   2.269
 5976W        W74370  22.018  12.822   3.842
 5977W        W74371  31.059  38.890  12.742
 5978W        W74372  44.494   4.405  12.451
 5979W        W74373  43.928  26.524  10.582
 5980W        W74374  11.323  28.881   3.279
 5981W        W74375   4.365  23.797  10.289
 5982W        W74376   3.313  25.914   4.276
 5983W        W74377  25.140   8.491   0.350
 5984W        W74378  28.279   0.987   4.955
 5985W        W74379  40.114  41.881  11.182
 5986W        W74380  15.066  32.841  10.804
 5987W        W74381  11.105  25.761   3.179
 5988W        W74382  24.884   4.198  12.215
 5989W        W74383  10.641  28.056  10.151
 5990W        W74384  31.441  25.012   0.692
 5991W        W74385  22.771  28.895  11.433
 5992W        W74386  27.847  38.413  11.700
 5993W        W74387  14.111   4.161  14.455
 5994W        W74388  12.777   3.348  13.923
 5995W        W74389  38.207   6.316   4.111
 5996W        W74390  35.442   1.519   4.664
 5997W        W74391  35.891  30.104  11.584
 5998W        W74392  23.430  25.445   4.107
 5999W        W74393  27.128  26.054  12.736
 6000W        W74394  29.149  22.418  10.983
 6001W        W74395  32.291   2.527  11.136
 6002W        W74396  44.038  11.220   4.203
 6003W        W74397  40.626  25.082   0.389
 6004W        W74398  24.503  20.689   0.939
 6005W        W74399  42.744   8.480   4.472
 6006W        W74400  13.726  20.105  10.665
 6007W        W74401  18.389  43.873   0.013
 6008W        W74402  33.649   9.958   3.198
 6009W        W74403  33.652  16.290  14.043
 6010W        W74404  18.809  22.316  12.427
 6011W        W74405  10.839   7.304  14.757
 6012W        W74406  20.876  17.271   2.366
 6013W        W74407   6.074  31.347   3.481
 6014W        W74408  42.709  11.518   5.038
 6015W        W74409  16.764  40.312   2.590
 6016W        W74410  21.720  26.978  11.646
 6017W        W74411  39.184  43.990   2.311
 6018W        W74412   8.651  37.630  10.361
 6019W        W74413  43.764  22.266   2.297
 6020W        W74414  27.032  10.954   3.250
 6021W        W74415  34.509  43.716  11.092
 6022W        W74416  18.126   9.356   3.864
 6023W        W74417  29.460  31.225  14.434
 6024W        W74418  38.313  41.923  11.247
 6025W        W74419  26.865   8.181   1.750
 6026W        W74420  10.741   5.852  14.059
 6027W        W74421  13.438  31.118   1.270
 6028W        W74422  25.705  37.771  10.323
 6029W        W74423  10.746  44.542  10.506
 6030W        W74424  26.068   4.427  11.554
 6031W        W74425   9.684   3.841  10.984
 6032W        W74426  37.344   1.153  11.182
 6033W        W74427  41.415  10.652   2.744
 6034W        W74428  19.508  26.566   0.832
 6035W        W74429   1.558  15.198   1.254
 6036W        W74430   5.295   1.897  12.930
 6037W        W74431   2.136   1.336  13.427
 6038W        W74432   4.706  12.201  13.917
 6039W        W74433  28.698  32.410   4.630
 6040W        W74434  12.616  28.052  13.959
 6041W        W74435   1.793  40.303  14.862
 6042W        W74436  27.708  34.900  12.914
 6043W        W74437   4.596  44.477   3.635
 6044W        W74438  21.697   8.367  11.236
 6045W        W74439   6.614  17.553  13.848
 6046W        W74440  42.026  26.777   0.322
 6047W        W74441   2.072  43.884  12.187
 6048W        W74442   6.692   7.736  13.894
 6049W        W74443  16.468   5.596  11.768
 6050W        W74444  43.393  11.709  11.222
 6051W        W74445  10.588  28.810   4.115
 6052W        W74446  16.177  18.212  10.265
 6053W        W74447   2.332   8.787   2.711
 6054W        W74448  19.447   7.312   3.814
 6055W        W74449  34.469  39.043   1.966
 6056W        W74450  31.595  20.820   1.514
 6057W        W74451   4.151  26.210  12.263
 6058W        W74452  13.734  29.395   4.262
 6059W        W74453  12.328  25.106   4.965
 6060W        W74454  14.711  28.839   2.176
 6061W        W74455  37.538  28.505  12.058
 6062W        W74456  18.877  14.728   9.984
 6063W        W74457  13.361  15.971   3.273
 6064W        W74458  24.208  27.472  14.238
 6065W        W74459  22.121  25.162  12.436
 6066W        W74460  27.505  25.112  11.948
 6067W        W74461  20.341   6.812   0.662
 6068W        W74462   8.791  20.532   4.528
 6069W        W74463  35.369   0.026  12.502
 6070W        W74464   7.778  29.014  14.376
 6071W        W74465  10.608   9.168   2.718
 6072W        W74466  43.834   3.932  14.522
 6073W        W74467  40.232  29.623  12.753
 6074W        W74468  14.510  14.168  14.794
 6075W        W74469   0.754  23.670   0.454
 6076W        W74470   0.723  32.946   1.287
 6077W        W74471  17.674   7.057  11.838
 6078W        W74472  28.665  43.397   1.798
 6079W        W74473  21.625  39.055   3.858
 6080W        W74474  30.998  42.731   2.346
 6081W        W74475  27.918   0.015   4.525
 6082W        W74476   5.813  10.305  13.289
 6083W        W74477  18.149  11.831   4.078
 6084W        W74478  28.916  16.669  13.374
 6085W        W74479   9.727  11.300  12.577
 6086W        W74480  36.871  21.468   1.285
 6087W        W74481  43.571  10.053  11.546
 6088W        W74482  33.903   2.899   1.291
 6089W        W74483  11.384  11.290   4.867
 6090W        W74484   2.873  33.880   3.828
 6091W        W74485  29.002  36.803  13.864
 6092W        W74486  14.590  17.296   2.712
 6093W        W74487   4.397  16.439   1.932
 6094W        W74488   6.934  40.542   1.388
 6095W        W74489  15.044  15.531  13.384
 6096W        W74490   8.905  15.792   2.133
 6097W        W74491  15.728  19.600  10.019
 6098W        W74492  42.312   2.788   4.274
 6099W        W74493  40.230  25.587   4.200
 6100W        W74494   7.350  40.809  11.185
 6101W        W74495  21.717  24.808   1.910
 6102W        W74496  37.408   7.288   0.821
 6103W        W74497  29.014  12.874  11.299
 6104W        W74498  43.578  39.313  13.053
 6105W        W74499  11.782  32.088  12.673
 6106W        W74500  30.663   9.253  12.912
 6107W        W74501  33.473  15.446   0.501
 6108W        W74502  27.717  20.606   4.586
 6109W        W74503   3.447  24.738   2.314
 6110W        W74504  36.434   0.803  11.676
 6111W        W74505  17.175  12.620   1.544
 6112W        W74506   3.507  39.114   2.785
 6113W        W74507  39.256  29.115  14.320
 6114W        W74508  40.237  17.103   0.377
 6115W        W74509  28.497  26.400   2.299
 6116W        W74510  38.880  28.237   4.190
 6117W        W74511  32.738   6.689  13.249
 6118W        W74512  37.557  21.436  11.962
 6119W        W74513  37.076  31.923   0.060
 6120W        W74514  11.208  10.456   0.772
 6121W        W74515  26.180  35.870  11.593
 6122W        W74516  32.318  11.719  14.276
 6123W        W74517   1.389  25.207   1.346
 6124W        W74518  11.459  18.671   3.181
 6125W        W74519  10.543   1.358   4.873
 6126W        W74520  21.621  10.240   5.187
 6127W        W74521  23.427  17.639  14.746
 6128W        W74522  25.849  26.707   3.197
 6129W        W74523  19.813  11.129   0.900
 6130W        W74524  35.232   5.125   1.599
 6131W        W74525  12.206  18.738   0.847
 6132W        W74526   7.933  15.707  14.037
 6133W        W74527  13.841  16.649  11.928
 6134W        W74528  41.479  37.135   4.037
 6135W        W74529  34.579   8.478   2.220
 6136W        W74530  28.109  35.337  10.659
 6137W        W74531  44.492  16.185  11.572
 6138W        W74532   6.934   0.288   2.861
 6139W        W74533   7.336  33.833  11.628
 6140W        W74534  43.269  35.428  11.920
 6141W        W74535  37.303  41.053   3.217
 6142W        W74536  35.424  16.123  14.384
 6143W        W74537  31.995  37.119  12.514
 6144W        W74538   4.545  14.517   3.538
 6145W        W74539  27.071  20.723  13.399
 6146W        W74540  28.058  29.856   4.191
 6147W        W74541  18.581  29.689  11.121
 6148W        W74542  32.417  30.118   0.305
 6149W        W74543   0.170  17.746  10.882
 6150W        W74544  38.036  29.152  11.231
 6151W        W74545  31.083   4.869   0.325
 6152W        W74546   0.201  40.351  14.998
 6153W        W74547   0.049   9.308   0.333
 6154W        W74548  37.333  33.972  12.199
 6155W        W74549  31.588  36.012  13.732
 6156W        W74550   0.894  44.834   4.462
 6157W        W74551  27.702  26.609   3.730
 6158W        W74552  37.483  39.071   0.921
 6159W        W74553   2.989  44.332   0.774
 6160W        W74554   5.452  34.552   4.739
 6161W        W74555  18.187  12.219  11.978
 6162W        W74556  32.521  30.149  14.410
 6163W        W74557  24.486  13.731  14.328
 6164W        W74558  27.182   0.456   5.061
 6165W        W74559  18.699  25.684   9.876
 6166W        W74560  20.493  25.108   2.754
 6167W        W74561  41.509  36.389  14.320
 6168W        W74562  32.075  18.836   3.738
 6169W        W74563  15.458   3.590  12.019
 6170W        W74564  42.264  11.204   2.364
 6171W        W74565  33.170  24.526   0.085
 6172W        W74566  15.211  16.283   2.228
 6173W        W74567  29.521  21.695  12.627
 6174W        W74568  16.041   3.020  10.759
 6175W        W74569  23.999  44.376   4.229
 6176W        W74570  23.585  17.212  14.989
 6177W        W74571  35.526  15.619   3.846
 6178W        W74572  12.099  10.690   1.285
 6179W        W74573  15.873  16.789   1.334
 6180W        W74574  42.215  22.469  12.100
 6181W        W74575  19.548  33.091   2.663
 6182W        W74576  11.536  28.593   1.384
 6183W        W74577  32.044   7.319   0.396
 6184W        W74578   2.471  34.649  13.790
 6185W        W74579  44.397  14.780  10.345
 6186W        W74580   7.794  22.680   3.364
 6187W        W74581  41.436  19.768   1.613
 6188W        W74582  27.342   1.007  14.887
 6189W        W74583   4.638   3.868  14.719
 6190W        W74584  32.133   8.800  10.371
 6191W        W74585  17.513  18.823  10.774
 6192W        W74586   4.394  38.385  12.127
 6193W        W74587  12.465  14.695  12.999
 6194W        W74588  43.892  18.766   4.670
 6195W        W74589   3.294  15.433  14.985
 6196W        W74590  35.487  25.745  12.076
 6197W        W74591  23.769  32.298  11.044
 6198W        W74592  26.887  23.305  10.973
 6199W        W74593   8.104  23.950  14.821
 6200W        W74594  15.652   6.758  13.155
 6201W        W74595  28.490  23.387  12.924
 6202W        W74596   9.389  44.273   4.581
 6203W        W74597  24.420  10.137   3.238
 6204W        W74598  22.502  31.632   0.764
 6205W        W74599  25.891   8.727   3.187
 6206W        W74600  16.999  19.783  14.601
 6207W        W74601  43.361  17.364   0.261
 6208W        W74602  40.801   6.388  14.429
 6209W        W74603  43.769  38.053  12.518
 6210W        W74604  29.067   6.164   3.213
 6211W        W74605  36.557  36.296  11.197
 6212W        W74606   9.163  17.259   2.162
 6213W        W74607   6.468  25.333   1.412
 6214W        W74608  36.329  10.100  13.818
 6215W        W74609  28.628  44.872  14.085
 6216W        W74610   3.803  15.748   4.515
 6217W        W74611  32.171  27.199  14.487
 6218W        W74612  23.569  33.729   0.414
 6219W        W74613  28.530  26.202  11.653
 6220W        W74614  18.068  43.438   1.224
 6221W        W74615   2.311  35.996   4.645
 6222W        W74616  40.200   1.004   1.152
 6223W        W74617  31.396  37.603  12.780
 6224W        W74618   0.726  19.624   1.144
 6225W        W74619  17.267  38.815   3.597
 6226W        W74620   1.943  21.976  12.101
 6227W        W74621  32.793  44.198   3.443
 6228W        W74622  14.727  10.769  11.072
 6229W        W74623  27.952  26.493  10.283
 6230W        W74624  18.916   3.641   4.575
 6231W        W74625   6.762   2.663  10.924
 6232W        W74626  17.620  12.376   3.662
 6233W        W74627  26.972  25.131   2.679
 6234W        W74628  13.757  42.451   0.972
 6235W        W74629  24.563   5.137   5.036
 6236W        W74630  11.512  29.915  12.493
 6237W        W74631  28.419  31.573  14.956
 6238W        W74632  39.446  12.711   3.230
 6239W        W74633  11.459  14.759  13.081
 6240W        W74634  24.224  39.878   2.501
 6241W        W74635   6.167  44.283  13.360
 6242W        W74636  44.740  12.677  12.215
 6243W        W74637  13.789  22.722   1.781
 6244W        W74638  30.909  33.613  10.764
 6245W        W74639  31.254  26.997   3.374
 6246W        W74640  16.334  13.637  12.067
 6247W        W74641  41.997  14.979   0.066
 6248W        W74642  23.962  18.504   3.184
 6249W        W74643  31.027  41.841  14.604
 6250W        W74644  19.981  18.128  10.726
 6251W        W74645  25.509  44.470   2.871
 6252W        W74646  43.617  33.428  11.973
 6253W        W74647  17.802  29.814  14.101
 6254W        W74648  40.357  42.771   4.163
 6255W        W74649  42.049  11.139  12.172
 6256W        W74650  32.567  13.911   3.780
 6257W        W74651  35.625  10.572  12.080
 6258W        W74652  22.084  20.476   1.965
 6259W        W74653  32.561  37.076   2.815
 6260W        W74654  34.088  17.507   1.736
 6261W        W74655  16.664   3.016  14.373
 6262W        W74656  41.051  17.707  14.428
 6263W        W74657  44.269  25.071   1.829
 6264W        W74658  32.914  42.264  10.733
 6265W        W74659  44.186  12.614  12.232
 6266W        W74660  31.550  14.285  10.523
 6267W        W74661  26.162  37.333   2.244
 6268W        W74662  13.829  37.427  10.499
 6269W        W74663  17.593  38.790   2.586
 6270W        W74664  31.871  38.348  12.868
 6271W        W74665  14.286  14.337  12.432
 6272W        W74666  40.609  11.399  10.683
 6273W        W74667  20.864  30.829  12.565
 6274W        W74668  25.022  43.268   0.684
 6275W        W74669  20.258  27.605   3.084
 6276W        W74670   9.334  26.496  11.631
 6277W        W74671  44.112   3.492   1.982
 6278W        W74672  34.112  27.045  12.746
 6279W        W74673  26.623  25.604  13.687
 6280W        W74674  38.039  24.220  13.924
 6281W        W74675  43.582  39.919  12.311
 6282W        W74676  27.424  17.870   2.428
 6283W        W74677  20.655  29.838   0.557
 6284W        W74678  29.046  18.076  13.206
 6285W        W74679  12.636  34.670  14.996
 6286W        W74680   5.698  40.444  10.766
 6287W        W74681  41.267   6.199  13.461
 6288W        W74682  39.428  36.828  13.531
 6289W        W74683   2.466   1.968   0.954
 6290W        W74684  20.590  15.985  10.264
 6291W        W74685   0.012  20.676  13.477
 6292W        W74686   3.799  14.301   3.525
 6293W        W74687  29.168   4.171   1.347
 6294W        W74688  13.798  10.183   2.225
 6295W        W74689  23.938  34.399  10.972
 6296W        W74690  23.850  21.996   2.890
 6297W        W74691  42.061  30.495  14.719
 6298W        W74692  23.533  10.903  12.354
 6299W        W74693  11.244  13.929  11.064
 6300W        W74694  30.851  40.579  11.129
 6301W        W74695  20.538  22.678  12.187
 6302W        W74696  14.733  20.002   2.212
 6303W        W74697  27.786  26.922  14.126
 6304W        W74698  41.911  30.158  13.541
 6305W        W74699  41.970   2.111  11.089
 6306W        W74700   9.265  44.754  11.212
 6307W        W74701  32.148  27.636  13.174
 6308W        W74702   2.997  16.811   1.905
 6309W        W74703  34.367  43.269   0.624
 6310W        W74704  35.023  25.569   3.362
 6311W        W74705   9.844  43.405  12.081
 6312W        W74706  16.165   1.385   4.852
 6313W        W74707  13.447  28.131   3.270
 6314W        W74708  12.211  40.553  11.991
 6315W        W74709   9.571  12.777   0.366
 6316W        W74710  30.647   9.809   1.864
 6317W        W74711  42.261   4.149  14.914
 6318W        W74712   7.958  27.628  11.594
 6319W        W74713  16.630   8.385  13.308
 6320W        W74714   1.820  14.702  13.609
 6321W        W74715   7.046   2.361   4.855
 6322W        W74716   6.741  31.030   4.282
 6323W        W74717  41.375  14.842  11.651
 6324W        W74718   9.151  10.664  11.950
 6325W        W74719   4.925  33.399   0.832
 6326W        W74720  22.054  34.606   4.556
 6327W        W74721  17.995  12.546   2.524
 6328W        W74722   0.241  40.388  14.066
 6329W        W74723  14.131  15.512   9.940
 6330W        W74724  30.930  16.609   0.335
 6331W        W74725  20.592  30.484   4.505
 6332W        W74726  25.111  21.316   2.135
 6333W        W74727  38.975   8.939   0.293
 6334W        W74728   0.571  40.283  10.170
 6335W        W74729   9.117   5.764   1.753
 6336W        W74730   9.765  15.588   2.481
 6337W        W74731  44.780  19.720  11.973
 6338W        W74732  39.868  24.980  11.573
 6339W        W74733  22.085  31.292  12.051
 6340W        W74734  14.418   6.624   2.787
 6341W        W74735  39.881  16.563   3.229
 6342W        W74736  40.565  11.339  11.533
 6343W        W74737  43.892   0.729   0.375
 6344W        W74738  18.395  29.224   4.120
 6345W        W74739  19.528  43.750  13.336
 6346W        W74740   6.145  41.081  14.495
 6347W        W74741  29.899  43.032  12.238
 6348W        W74742   3.826  31.651   3.783
 6349W        W74743  15.016   8.212  10.451
 6350W        W74744  24.056  32.465   4.991
 6351W        W74745  44.411  20.848   2.639
 6352W        W74746  29.468  24.418  12.108
 6353W        W74747   7.416   0.320   1.692
 6354W        W74748  30.555  26.038  13.405
 6355W        W74749   4.633   3.400  10.511
 6356W        W74750  11.984  34.935  10.709
 6357W        W74751  16.604  26.962   0.660
 6358W        W74752  36.287  33.851  13.778
 6359W        W74753  22.279  34.246   4.152
 6360W        W74754  30.896  21.652   1.351
 6361W        W74755  28.387  37.083  12.065
 6362W        W74756  27.368   4.134  14.888
 6363W        W74757  27.455  35.638   0.474
 6364W        W74758  37.029  18.210   1.471
 6365W        W74759  42.817  39.628   0.715
 6366W        W74760  28.076  31.523   3.148
 6367W        W74761  27.154  15.336  12.576
 6368W        W74762   5.361  19.814  13.812
 6369W        W74763  37.341  28.786  12.441
 6370W        W74764  31.391  30.454  11.579
 6371W        W74765  22.767   1.442   1.736
 6372W        W74766  15.743  29.873  12.842
 6373W        W74767  16.085  24.532  13.936
 6374W        W74768  41.740  22.639  10.355
 6375W        W74769  36.924  17.229  10.598
 6376W        W74770  41.793  21.286  11.520
 6377W        W74771  40.074  15.217  12.435
 6378W        W74772  27.648  31.027   4.534
 6379W        W74773  33.301   9.120  12.512
 6380W        W74774  17.200  10.929  12.627
 6381W        W74775  33.856  12.213  11.868
 6382W        W74776   5.014   5.293  14.783
 6383W        W74777   2.775  10.694  14.960
 6384W        W74778  15.715  37.417  11.952
 6385W        W74779   0.328  12.903   0.641
 6386W        W74780  13.584   0.315  13.992
 6387W        W74781   6.318  32.460  10.640
 6388W        W74782  18.771  24.973   5.080
 6389W        W74783   8.316  26.172   0.296
 6390W        W74784  39.929  23.175   4.616
 6391W        W74785   2.769  26.800  13.405
 6392W        W74786   3.932  24.985   1.758
 6393W        W74787   2.816  10.617  13.797
 6394W        W74788   7.074  25.854   9.826
 6395W        W74789  11.985  12.735  14.073
 6396W        W74790  13.657   3.277  11.455
 6397W        W74791  39.116   3.334  11.560
 6398W        W74792  10.389  10.930   1.825
 6399W        W74793  12.167   4.606   1.107
 6400W        W74794  40.425  33.449   0.580
 6401W        W74795  28.382  27.971   1.291
 6402W        W74796  41.360  35.851  13.117
 6403W        W74797   3.773  14.500   2.305
 6404W        W74798  11.851  30.468  11.407
 6405W        W74799  39.911  36.491  13.868
 6406W        W74800  10.224   0.425   1.738
 6407W        W74801   8.369  26.655  11.493
 6408W        W74802   5.326   6.844   0.187
 6409W        W74803  17.235   6.424   4.139
 6410W        W74804  43.395  30.409   4.605
 6411W        W74805  40.118  40.533   2.772
 6412W        W74806  26.043   2.550   3.651
 6413W        W74807  24.306  12.399   5.208
 6414W        W74808  16.221  16.179  12.667
 6415W        W74809  31.814  41.343  14.747
 6416W        W74810   7.276  24.811  12.452
 6417W        W74811  15.788   9.157  10.620
 6418W        W74812  44.857   4.444   2.283
 6419W        W74813  27.634  28.982  12.486
 6420W        W74814   0.119  23.095   1.628
 6421W        W74815  14.636  33.040  10.606
 6422W        W74816  42.883  24.512  12.051
 6423W        W74817  44.972   1.716   2.773
 6424W        W74818  36.109  37.576   1.406
 6425W        W74819  34.028  34.639   0.507
 6426W        W74820  30.509  39.500  13.001
 6427W        W74821  13.772  29.100   0.881
 6428W        W74822   0.709  44.434  12.157
 6429W        W74823   2.041  13.504  10.798
 6430W        W74824   8.642  16.249   2.126
 6431W        W74825   7.227  11.320   3.759
 6432W        W74826  30.857  39.103   1.380
 6433W        W74827  37.623  34.575   4.226
 6434W        W74828  42.466  11.240  10.824
 6435W        W74829   8.689  23.637  12.532
 6436W        W74830  34.126   6.399  13.368
 6437W        W74831  12.334  35.685  11.120
 6438W        W74832  17.623   2.632  13.534
 6439W        W74833   0.570  42.749   0.704
 6440W        W74834  21.518   0.420  11.628
 6441W        W74835  20.324  33.549  12.648
 6442W        W74836  31.087  12.869  14.748
 6443W        W74837  37.885   2.763  10.563
 6444W        W74838  13.643  42.006  14.910
 6445W        W74839  30.502  21.447  12.410
 6446W        W74840  13.116  31.993  13.003
 6447W        W74841   1.649  11.204  12.518
 6448W        W74842  22.731   5.390  14.539
 6449W        W74843  22.774  15.158  14.699
 6450W        W74844  29.294   8.498  12.260
 6451W        W74845  25.527   3.255   3.822
 6452W        W74846  29.846  17.098   2.351
 6453W        W74847  40.972   8.455  11.148
 6454W        W74848  24.186  29.945  14.248
 6455W        W74849  25.160  31.765  10.307
 6456W        W74850  18.950  42.883   3.749
 6457W        W74851  39.554  20.835  11.724
 6458W        W74852   7.002  22.638  10.629
 6459W        W74853  35.533   5.178   4.246
 6460W        W74854  42.821  41.599   1.925
 6461W        W74855   2.338   8.940   0.299
 6462W        W74856   4.484  23.919   0.795
 6463W        W74857  18.153  34.814  11.452
 6464W        W74858   6.406  35.341  11.629
 6465W        W74859  44.852   9.109   1.348
 6466W        W74860   7.321  33.577   4.161
 6467W        W74861  25.452  44.596  12.470
 6468W        W74862  25.292  33.308  11.455
 6469W        W74863  30.932  41.859  11.620
 6470W        W74864   4.299  12.422  12.966
 6471W        W74865   3.931   0.316  11.134
 6472W        W74866  11.114  12.395  13.950
 6473W        W74867  32.486  40.645  12.913
 6474W        W74868   8.203  41.743   2.144
 6475W        W74869   5.742  33.382   0.384
 6476W        W74870   0.478   5.696   4.731
 6477W        W74871  24.165  31.682   1.807
 6478W        W74872  18.722  42.727  14.303
 6479W        W74873  41.770  12.495   0.213
 6480W        W74874  42.614  44.314  10.612
 6481W        W74875  27.138   5.407  10.718
 6482W        W74876  25.672  31.045  14.745
 6483W        W74877  35.311  28.434  12.531
 6484W        W74878   5.845  21.522   2.451
 6485W        W74879  26.503  43.975   3.237
 6486W        W74880  18.209  33.535  13.104
 6487W        W74881   6.018  30.728   2.373
 6488W        W74882  22.067  39.905  11.485
 6489W        W74883  13.880  16.161   1.857
 6490W        W74884  44.759  32.497  10.908
 6491W        W74885  30.266  43.524  10.813
 6492W        W74886  28.180  24.580  14.420
 6493W        W74887   9.704  21.272   0.000
 6494W        W74888  25.359   1.344   2.376
 6495W        W74889  32.988  43.877  12.567
 6496W        W74890  33.112  24.970  14.819
 6497W        W74891   0.706  17.207  13.040
 6498W        W74892   9.362  36.477   4.130
 6499W        W74893   9.072  10.837  12.432
 6500W        W74894  15.650  26.565  10.117
 6501W        W74895   0.037  29.062  13.342
 6502W        W74896  19.495   6.474  12.830
 6503W        W74897  20.301  19.836   5.166
 6504W        W74898  26.645  10.683   3.488
 6505W        W74899  32.760  24.778   0.259
 6506W        W74900  30.582  21.900   2.824
 6507W        W74901  25.116  34.407  10.457
 6508W        W74902  39.119  16.668  12.456
 6509W        W74903  39.049  37.296  12.103
 6510W        W74904  40.383  34.369  14.063
 6511W        W74905  27.137  21.642  10.811
 6512W        W74906  39.426  19.760  14.106
 6513W        W74907   6.598  32.590   4.608
 6514W        W74908  30.714  19.638  11.939
 6515W        W74909   4.455  44.571   0.839
 6516W        W74910   1.141  32.070  13.931
 6517W        W74911  26.037  12.058  10.597
 6518W        W74912  11.666  26.463   2.417
 6519W        W74913   2.410  38.670  13.271
 6520W        W74914   8.367  42.308   0.266
 6521W        W74915  33.046  17.067  13.592
 6522W        W74916   7.837  34.010  14.784
 6523W        W74917  14.816  22.236  11.101
 6524W        W74918  44.435  38.488   1.786
 6525W        W74919  43.282   4.631   0.360
 6526W        W74920   7.419  22.630   4.523
 6527W        W74921  15.534  25.715  13.893
 6528W        W74922  40.430  21.162  12.797
 6529W        W74923  20.959  43.653   4.899
 6530W        W74924  28.619  39.540  12.852
 6531W        W74925  40.383  35.627   4.119
 6532W        W74926  41.322   5.826   3.073
 6533W        W74927  28.020  35.075   0.502
 6534W        W74928   3.658   3.729   2.092
 6535W        W74929   2.819  15.099   0.677
 6536W        W74930  20.148  12.732  11.130
 6537W        W74931   9.271  26.194   2.188
 6538W        W74932   1.425  44.422   4.330
 6539W        W74933  41.447  12.384  12.140
 6540W        W74934   6.731  39.019   0.309
 6541W        W74935  39.390  10.387  11.056
 6542W        W74936   6.665  36.932  11.113
 6543W        W74937  40.241   3.197  14.764
 6544W        W74938   0.694   8.960   4.743
 6545W        W74939  35.092  11.892  10.845
 6546W        W74940  26.535  34.056   2.224
 6547W        W74941  24.112  33.338  12.013
 6548W        W74942  13.135  18.322  13.971
 6549W        W74943  20.226  44.869   3.477
 6550W        W74944  25.487  23.197  12.064
 6551W        W74945   6.603  12.783  13.229
 6552W        W74946  22.657  39.947  12.688
 6553W        W74947  42.471  28.117  12.595
 6554W        W74948  25.756  26.087   3.549
 6555W        W74949  31.582  34.629   4.594
 6556W        W74950   7.371  41.770  12.033
 6557W        W74951   6.346  23.869  10.888
 6558W        W74952   5.763  21.088   1.182
 6559W        W74953  44.791  10.516   4.448
 6560W        W74954   3.238   8.554   5.410
 6561W        W74955  39.785  13.316   0.303
 6562W        W74956  26.725  25.644  12.812
 6563W        W74957  10.207  22.197  13.016
 6564W        W74958  13.695  24.060   1.515
 6565W        W74959  42.447  30.102  10.772
 6566W        W74960   3.321   6.754  13.933
 6567W        W74961   9.656  44.949  12.836
 6568W        W74962  11.893  11.181  13.878
 6569W        W74963  34.436  32.010  13.594
 6570W        W74964  40.113   1.581  12.701
 6571W        W74965  42.714  14.779   2.946
 6572W        W74966   2.560  34.964  12.613
 6573W        W74967  13.312  36.903   4.424
 6574W        W74968  21.391   3.449  13.158
 6575W        W74969  11.716  12.554  14.467
 6576W        W74970  18.787  39.955   3.721
 6577W        W74971  25.184  24.655  12.936
 6578W        W74972  40.186  34.997   2.055
 6579W        W74973  32.241   6.588   0.045
 6580W        W74974  18.833  25.225   3.563
 6581W        W74975  15.200  24.459   4.538
 6582W        W74976  26.095  27.154  11.488
 6583W        W74977  25.688   1.882  10.594
 6584W        W74978  21.630   9.511   0.869
 6585W        W74979  12.656  29.167  13.392
 6586W        W74980  44.681  28.492   3.574
 6587W        W74981  16.473  30.950   0.903
 6588W        W74982  13.832   7.880   1.815
 6589W        W74983  22.779   6.472   4.245
 6590W        W74984   3.856  42.231   4.927
 6591W        W74985  29.348  12.246  12.434
 6592W        W74986  42.505  14.076  12.869
 6593W        W74987  17.878  20.185  13.714
 6594W        W74988   2.176   2.438  12.820
 6595W        W74989   2.754  30.567  11.144
 6596W        W74990  30.030   4.184   0.929
 6597W        W74991  18.810  32.070   4.379
 6598W        W74992  42.721   5.386   0.001
 6599W        W74993  23.701  13.881   3.342
 6600W        W74994  29.592  43.358   1.878
 6601W        W74995  35.350  19.211   4.084
 6602W        W74996  11.756  26.166  14.438
 6603W        W74997  27.706   4.314  14.401
 6604W        W74998  12.903  16.668  11.690
 6605W        W74999  17.162  42.531  14.826
 6606W        W75000  32.453   7.802   3.338
 6607W        W75001  11.530  34.139  13.070
 6608W        W75002  38.633  38.903  11.671
 6609W        W75003  17.467   4.914   2.314
 6610W        W75004  31.719   9.811  14.716
 6611W        W75005  39.349  16.633  11.969
 6612W        W75006   4.503  24.418  10.951
 6613W        W75007  28.985  18.857   3.835
 6614W        W75008  38.720  37.129   1.821
 6615W        W75009  23.558  34.112   4.514
 6616W        W75010   8.977  32.529  11.611
 6617W        W75011  34.800  17.634  12.946
 6618W        W75012  18.796  17.498   2.718
 6619W        W75013   2.927  28.963  14.670
 6620W        W75014  41.653  28.257   4.193
 6621W        W75015  14.771  33.531  10.515
 6622W        W75016   1.013  15.809  13.949
 6623W        W75017  15.323  42.421   3.870
 6624W        W75018  35.884  40.274   1.537
 6625W        W75019  33.353  17.306  11.197
 6626W        W75020  17.618   1.225   4.079
 6627W        W75021  40.963   8.100  13.580
 6628W        W75022  23.778  10.402   4.460
 6629W        W75023  32.868   7.728   0.499
 6630W        W75024  22.414  36.832   1.426
 6631W        W75025  44.444  40.254  11.519
 6632W        W75026   9.886  19.205  14.279
 6633W        W75027  35.074  35.875   3.631
 6634W        W75028  30.376  31.547   3.284
 6635W        W75029  44.513  40.755  11.595
 6636W        W75030  31.657  23.578  12.242
 6637W        W75031  21.155  20.804  10.092
 6638W        W75032  42.699   9.167  14.443
 6639W        W75033  38.144  26.457  12.740
 6640W        W75034  27.654  40.585   3.092
 6641W        W75035  25.364  25.558  10.716
 6642W        W75036  15.505  21.675  14.207
 6643W        W75037  34.478   8.798   3.966
 6644W        W75038   3.705  26.776  10.745
 6645W        W75039  23.719  29.650  12.886
 6646W        W75040  19.974   0.258   0.695
 6647W        W75041  12.817  27.877   3.728
 6648W        W75042  36.355   4.832  14.308
 6649W        W75043  19.015  20.196  11.023
 6650W        W75044  22.000  21.469   3.705
 6651W        W75045  28.565   8.676   0.472
 6652W        W75046   0.889  14.288   3.302
 6653W        W75047  39.144  42.820  11.587
 6654W        W75048   1.908  16.871   1.226
 6655W        W75049  26.672  16.796   1.821
 6656W        W75050  36.449  13.148  12.941
 6657W        W75051  42.525  33.370   1.332
 6658W        W75052  30.361  22.455  11.964
 6659W        W75053  11.562  29.608   2.447
 6660W        W75054   4.545  34.781   4.477
 6661W        W75055  10.603   1.730   1.154
 6662W        W75056  36.557   0.041   1.297
 6663W        W75057  44.990  10.444  14.571
 6664W        W75058   9.399  29.245   3.350
 6665W        W75059  16.101  37.030   4.771
 6666W        W75060  37.928  13.436   2.890
 6667W        W75061  38.532  34.842  12.461
 6668W        W75062  20.554  17.698   2.281
 6669W        W75063   4.220  16.282  12.397
 6670W        W75064  13.731  29.737  14.047
 6671W        W75065   5.298  30.139  11.376
 6672W        W75066  27.140  44.492  13.273
 6673W        W75067  33.163  43.387   3.620
 6674W        W75068  20.502  42.821   2.278
 6675W        W75069  21.753  37.593   0.294
 6676W        W75070  25.573   8.238   0.521
 6677W        W75071  42.994  19.499  11.081
 6678W        W75072  25.458  11.848   4.083
 6679W        W75073  30.948   1.918   3.698
 6680W        W75074  31.493  35.046   2.624
 6681W        W75075  24.444  36.969  14.808
 6682W        W75076   6.867  39.260   0.775
 6683W        W75077  11.869  15.104   3.632
 6684W        W75078   6.828  38.810  14.845
 6685W        W75079   4.340  30.447  14.319
 6686W        W75080  32.121  14.850   2.828
 6687W        W75081  40.053   9.154  11.051
 6688W        W75082  21.898  33.018  14.352
 6689W        W75083   9.593  34.760   2.596
 6690W        W75084  15.128  21.353  14.313
 6691W        W75085  12.831  11.271  12.034
 6692W        W75086  41.776   8.803   0.543
 6693W        W75087  26.595  28.301   4.132
 6694W        W75088  28.218  28.600   2.843
 6695W        W75089  13.833  22.573  13.459
 6696W        W75090  11.310  28.894  12.571
 6697W        W75091  24.638  12.382  10.724
 6698W        W75092  28.208   6.360  12.587
 6699W        W75093  11.227  16.708  11.888
 6700W        W75094  15.675  29.677   0.977
 6701W        W75095   3.677  37.970  13.349
 6702W        W75096  33.085  11.741   4.172
 6703W        W75097  23.884  20.387  13.826
 6704W        W75098  19.740  30.688  11.116
 6705W        W75099  13.243   9.165   1.694
 6706W        W75100   0.796  20.612  10.968
 6707W        W75101  43.677  18.717  11.053
 6708W        W75102  13.269  38.978   2.901
 6709W        W75103  10.403   9.698  12.042
 6710W        W75104  17.829  32.209   2.157
 6711W        W75105  39.870   2.383   1.601
 6712W        W75106  38.457  18.952  14.759
 6713W        W75107  25.394  42.047   3.944
 6714W        W75108  30.437  38.907  10.490
 6715W        W75109  28.225  29.902   0.632
 6716W        W75110  20.737  28.755  12.409
 6717W        W75111  40.708  27.118  12.914
 6718W        W75112  32.613   4.141   1.853
 6719W        W75113   1.576  22.275  12.981
 6720W        W75114  20.836  16.330   0.451
 6721W        W75115   1.102  28.677   2.298
 6722W        W75116   3.950  40.068  14.287
 6723W        W75117   1.606  29.235   0.420
 6724W        W75118  14.707   6.376   1.538
 6725W        W75119  26.107  26.741  13.099
 6726W        W75120   0.210  38.020  11.211
 6727W        W75121  24.203  10.604  12.931
 6728W        W75122  32.160  25.025   1.358
 6729W        W75123  40.679  37.699  14.313
 6730W        W75124   4.279  16.596  11.000
 6731W        W75125  39.050  33.556   4.610
 6732W        W75126  36.122  16.211   4.063
 6733W        W75127  30.519  11.143  10.665
 6734W        W75128  33.166  19.018   1.937
 6735W        W75129  12.503  12.441   0.680
 6736W        W75130  17.882  15.864  11.259
 6737W        W75131  23.879  39.701   3.280
 6738W        W75132  26.157  40.297  12.101
 6739W        W75133   6.602  36.586   2.842
 6740W        W75134   0.468  43.834  14.348
 6741W        W75135  25.379  26.265  11.160
 6742W        W75136  30.178  30.996   3.398
 6743W        W75137  44.217  13.672  13.949
 6744W        W75138  43.702  20.633   4.140
 6745W        W75139  32.727  20.884   3.682
 6746W        W75140  36.814   1.478  12.003
 6747W        W75141  38.430  15.047  12.991
 6748W        W75142  22.458  32.116  11.103
 6749W        W75143  18.872  38.611   1.419
 6750W        W75144   3.989  29.670  10.779
 6751W        W75145  39.166  16.060  13.200
 6752W        W75146  34.605  44.205   3.695
 6753W        W75147  21.486  18.171  10.479
 6754W        W75148   8.853  25.091  11.473
 6755W        W75149   1.274   1.010  13.403
 6756W        W75150  39.768  44.486  11.559
 6757W        W75151   8.282  32.177  12.564
 6758W        W75152  22.618   5.744   2.326
 6759W        W75153   7.413  34.276   3.206
 6760W        W75154  23.484  39.036  14.391
 6761W        W75155  39.991  28.771  10.807
 6762W        W75156  12.300  25.126   3.918
 6763W        W75157  33.086  13.678   4.258
 6764W        W75158  43.328   7.859  11.833
 6765W        W75159  13.602  19.924  14.726
 6766W        W75160  26.546  16.510  13.319
 6767W        W75161  36.663   5.376  12.969
 6768W        W75162  44.759  40.093  13.915
 6769W        W75163  10.826  29.368  14.826
 6770W        W75164   6.088   1.253   9.894
 6771W        W75165  40.956  23.824  14.241
 6772W        W75166   2.913  31.342  10.738
 6773W        W75167  38.420  33.501   2.185
 6774W        W75168  16.565  33.224   0.334
 6775W        W75169  13.274  33.577   1.330
 6776W        W75170  43.543  29.465  10.968
 6777W        W75171  42.977  31.657  13.423
 6778W        W75172  21.513  23.278  10.578
 6779W        W75173   4.120  38.505  13.957
 6780W        W75174   9.895  21.324   4.989
 6781W        W75175  33.865  19.163  12.037
 6782W        W75176   0.059  10.175  10.720
 6783W        W75177  33.273  11.276  12.967
 6784W        W75178  18.760   2.273   0.240
 6785W        W75179  20.710  22.949  11.800
 6786W        W75180   6.753  43.841   1.228
 6787W        W75181   5.483  32.697   1.563
 6788W        W75182  13.270  36.607   3.123
 6789W        W75183  15.005   6.869  14.929
 6790W        W75184  17.809  12.375   1.913
 6791W        W75185  35.857  41.471  13.970
 6792W        W75186  29.483  37.490   1.796
 6793W        W75187  21.008  10.352  12.424
 6794W        W75188  24.896  42.077  10.623
 6795W        W75189  22.278   1.749  14.048
 6796W        W75190  41.454  21.190   2.763
 6797W        W75191  11.674  15.049   4.099
 6798W        W75192   9.374  24.690  13.070
 6799W        W75193  42.203  37.123  11.014
 6800W        W75194  43.930  21.628   1.013
 6801W        W75195  34.184  15.644   1.410
 6802W        W75196  12.630  16.237   0.338
 6803W        W75197  42.592  12.968  14.466
 6804W        W75198  10.519  34.967  12.495
 6805W        W75199  15.760   7.307  12.426
 6806W        W75200  13.729  35.219   2.779
 6807W        W75201  18.451  35.207  14.930
 6808W        W75202  12.006  44.480  14.015
 6809W        W75203   4.299   3.246   0.983
 6810W        W75204  28.396  27.740  13.548
 6811W        W75205  20.208  10.093   5.088
 6812W        W75206  15.835   2.216   1.136
 6813W        W75207  12.915  44.446   0.668
 6814W        W75208  17.789   8.401   3.683
 6815W        W75209   3.221   9.699   4.467
 6816W        W75210  20.318  40.965   4.133
 6817W        W75211  38.316  37.072  11.660
 6818W        W75212  29.575  41.726  13.907
 6819W        W75213   3.431  43.867   2.968
 6820W        W75214  13.685  28.890  13.058
 6821W        W75215  15.146  13.211   1.259
 6822W        W75216  40.772  44.214   1.901
 6823W        W75217  30.144   5.914   1.663
 6824W        W75218  11.905  28.229  14.429
 6825W        W75219  18.254   6.176  14.850
 6826W        W75220  33.719  31.222   1.413
 6827W        W75221  39.547  15.360   1.226
 6828W        W75222  29.167  41.395  14.007
 6829W        W75223   8.642  17.330   2.162
 6830W        W75224  19.681  11.302   2.377
 6831W        W75225  22.343   3.029   2.405
 6832W        W75226  12.271   9.582   3.697
 6833W        W75227   8.531  36.516  14.401
 6834W        W75228   8.100   3.970   2.826
 6835W        W75229  36.168  23.136   3.377
 6836W        W75230  38.336  34.892  11.967
 6837W        W75231  20.025  14.083  12.831
 6838W        W75232  14.336   5.494  14.044
 6839W        W75233  38.683   2.045   3.159
 6840W        W75234  21.246  32.016  13.965
 6841W        W75235  34.302   4.928   1.212
 6842W        W75236  24.059  43.318  10.727
 6843W        W75237  41.729  25.133  13.426
 6844W        W75238  36.383  33.872   3.592
 6845W        W75239   9.873  36.437   4.139
 6846W        W75240  19.539  22.567  10.645
 6847W        W75241  16.213  24.722  14.488
 6848W        W75242  38.259  13.281   0.129
 6849W        W75243   4.631  18.195  12.047
 6850W        W75244  39.237  38.296  14.857
 6851W        W75245  27.565   1.570  11.536
 6852W        W75246   9.460   6.600   0.814
 6853W        W75247   8.947  16.786  10.336
 6854W        W75248   1.318  12.796  13.693
 6855W        W75249  19.147  42.670  10.643
 6856W        W75250  20.784  17.530  12.875
 6857W        W75251  25.422  18.594   4.647
 6858W        W75252  41.837  35.395   4.582
 6859W        W75253  28.482  10.105  12.361
 6860W        W75254  44.383  31.229   3.155
 6861W        W75255  40.414  18.115   3.598
 6862W        W75256  18.222  11.676   2.123
 6863W        W75257  10.465  24.196  12.543
 6864W        W75258  20.960   9.140   1.395
 6865W        W75259   6.349  22.938   4.426
 6866W        W75260  29.537   1.865  11.817
 6867W        W75261  16.596  41.960   3.643
 6868W        W75262   1.289  28.687   4.185
 6869W        W75263  43.815  40.001   1.930
 6870W        W75264   8.233  17.839   4.460
 6871W        W75265  18.277  21.970  14.506
 6872W        W75266   2.490  22.260  10.684
 6873W        W75267  23.318  23.245   3.996
 6874W        W75268   6.719   4.422   2.000
 6875W        W75269   2.977  32.900   2.895
 6876W        W75270   0.535   1.995  11.604
 6877W        W75271   2.828   9.591  13.949
 6878W        W75272  10.943  18.665  13.235
 6879W        W75273  15.967  12.137   2.930
 6880W        W75274  41.398  19.378  10.765
 6881W        W75275  32.737  23.119   1.731
 6882W        W75276  10.856  24.595   1.499
 6883W        W75277  12.071  16.154  11.948
 6884W        W75278  10.777   8.809   2.357
 6885W        W75279  23.743  16.061   2.864
 6886W        W75280  11.309   0.962   4.582
 6887W        W75281  16.364   3.989   5.653
 6888W        W75282  42.983  44.574  13.851
 6889W        W75283  33.788  21.737  10.802
 6890W        W75284  22.195  14.376  11.889
 6891W        W75285  29.611  18.161  11.520
 6892W        W75286  11.563   3.899  12.507
 6893W        W75287  38.059  38.741   4.017
 6894W        W75288  34.992  23.982  14.536
 6895W        W75289   9.159   2.722   2.405
 6896W        W75290   3.255  16.636  11.941
 6897W        W75291   0.750  34.228   5.052
 6898W        W75292  13.154  19.474  11.907
 6899W        W75293  24.586  15.062   2.824
 6900W        W75294   6.893   6.206   0.283
 6901W        W75295  26.116   7.345  14.587
 6902W        W75296  28.535  25.617  14.297
 6903W        W75297  13.600  20.633  10.428
 6904W        W75298  41.897  26.492  14.884
 6905W        W75299  37.769  18.061  11.052
 6906W        W75300   3.925  38.356  13.031
 6907W        W75301  25.347   4.183   2.671
 6908W        W75302  16.296   0.736   2.116
 6909W        W75303   6.830   6.685  10.895
 6910W        W75304  43.754  25.218  13.426
 6911W        W75305   7.711  31.502   1.365
 6912W        W75306  31.621  13.882   2.369
 6913W        W75307  38.319  17.065   1.328
 6914W        W75308   2.534   8.418  10.962
 6915W        W75309  24.156  18.791   5.039
 6916W        W75310  10.401  30.618   4.150
 6917W        W75311  18.840  27.571   0.764
 6918W        W75312  25.042  17.203  12.522
 6919W        W75313  38.659  24.563  12.567
 6920W        W75314  43.304  13.814  12.867
 6921W        W75315  31.312  42.817   4.518
 6922W        W75316  13.132   9.149  14.811
 6923W        W75317  11.055  31.556   4.131
 6924W        W75318  11.827  19.475   3.262
 6925W        W75319  21.993  19.756  11.425
 6926W        W75320  15.558   3.838   2.461
 6927W        W75321   6.001   3.519  11.552
 6928W        W75322  22.306  21.925  12.471
 6929W        W75323   8.784  35.527  11.358
 6930W        W75324  42.966   1.290   1.209
 6931W        W75325   3.655   5.850   4.114
 6932W        W75326  15.654   6.078   4.207
 6933W        W75327  44.273   4.413  10.085
 6934W        W75328   8.722  18.806   3.919
 6935W        W75329  24.078   4.658  13.393
 6936W        W75330   2.577   3.532   2.883
 6937W        W75331  26.607  19.983   4.330
 6938W        W75332   1.458  40.385   0.260
 6939W        W75333   0.317  13.365  11.268
 6940W        W75334  32.136  15.667  10.914
 6941W        W75335   8.265   1.329  10.621
 6942W        W75336  27.815   1.972   2.921
 6943W        W75337  44.127  13.725   1.468
 6944W        W75338  32.022  19.068   4.206
 6945W        W75339  18.322  35.805  11.085
 6946W        W75340  40.430  37.002   5.119
 6947W        W75341  15.851  42.272  12.567
 6948W        W75342  37.669  16.632   0.965
 6949W        W75343  15.696  14.268   2.836
 6950W        W75344   5.400  23.580   4.128
 6951W        W75345   0.227  12.797   4.858
 6952W        W75346  36.595  19.004  13.832
 6953W        W75347  33.381  18.107   3.747
 6954W        W75348  12.237  44.466   0.816
 6955W        W75349   1.795  37.139   0.759
 6956W        W75350  17.742  26.035   3.086
 6957W        W75351   9.339  17.669   1.505
 6958W        W75352   1.483  10.090  13.865
 6959W        W75353  27.441  20.046   1.410
 6960W        W75354  37.737  32.351  13.326
 6961W        W75355  40.818  14.114  12.072
 6962W        W75356   6.648  44.283  13.545
 6963W        W75357  17.090  25.841  10.798
 6964W        W75358  20.023  43.922   1.372
 6965W        W75359  40.647   4.331  13.939
 6966W        W75360  40.737  21.555   2.488
 6967W        W75361   5.309  12.179   1.890
 6968W        W75362  39.827  36.137  10.994
 6969W        W75363   2.285  28.673  10.699
 6970W        W75364  17.851  15.175   2.963
 6971W        W75365  32.611  40.089   3.913
 6972W        W75366  41.791  40.782   3.294
 6973W        W75367  31.723   5.368   1.280
 6974W        W75368  33.030  33.432  14.574
 6975W        W75369   0.242  24.074  11.452
 6976W        W75370  20.733  40.028  11.354
 6977W        W75371   1.826  44.884  12.393
 6978W        W75372  21.600  11.392   2.846
 6979W        W75373  24.097  16.653  10.341
 6980W        W75374  37.387   5.914   4.695
 6981W        W75375  17.114  18.315   3.989
 6982W        W75376   7.999  30.843  13.601
 6983W        W75377  17.515  11.675   4.057
 6984W        W75378   3.861  19.301  12.132
 6985W        W75379  44.764  27.843   1.297
 6986W        W75380  28.607  14.304   3.872
 6987W        W75381  18.659   5.177   1.912
 6988W        W75382  12.595  13.548   4.167
 6989W        W75383  12.773  31.179   2.801
 6990W        W75384  29.258   5.631   0.970
 6991W        W75385  32.072   5.240  10.454
 6992W        W75386  20.412  40.458   4.120
 6993W        W75387  24.698   9.541  14.709
 6994W        W75388  39.409  33.589  14.781
 6995W        W75389  19.539  22.020  10.966
 6996W        W75390  43.249  18.032   3.111
 6997W        W75391   7.423  12.179   2.640
 6998W        W75392  16.551  30.001  12.969
 6999W        W75393  42.083  31.926  10.706
 7000W        W75394  32.586  34.607  12.806
 7001W        W75395  23.762   4.943   2.345
 7002W        W75396  26.187  43.041   3.791
 7003W        W75397  18.600  41.536   1.275
 7004W        W75398  44.893   6.647   1.732
 7005W        W75399  20.615   4.909   3.241
 7006W        W75400  39.296  22.817   1.774
 7007W        W75401   7.367  19.453  14.510
 7008W        W75402  20.108  19.969   1.267
 7009W        W75403   3.281  10.945  11.123
 7010W        W75404  30.490  38.885   0.402
 7011W        W75405  37.149  16.784   2.863
 7012W        W75406  26.547  17.101   3.238
 7013W        W75407  30.106  10.877   3.225
 7014W        W75408  41.730  19.480  14.014
 7015W        W75409   6.769  37.970   2.684
 7016W        W75410  26.475  25.801   0.430
 7017W        W75411   0.780   1.603   3.680
 7018W        W75412  34.568  41.520  12.793
 7019W        W75413  14.447  32.422   0.754
 7020W        W75414  24.949   9.284   2.351
 7021W        W75415  17.818  42.496  11.443
 7022W        W75416  35.037  41.966   0.301
 7023W        W75417  37.400  19.416  13.719
 7024W        W75418  18.881  12.745   2.786
 7025W        W75419  27.244  30.922   2.243
 7026W        W75420   4.811   6.198  14.342
 7027W        W75421  29.672  29.656  14.247
 7028W        W75422  12.789  18.150   0.812
 7029W        W75423  34.616  36.975   2.782
 7030W        W75424   3.452  44.659  11.486
 7031W        W75425  39.419  32.533  12.657
 7032W        W75426   8.214  20.708  11.222
 7033W        W75427  13.620  38.949   4.593
 7034W        W75428   0.407   2.965  13.905
 7035W        W75429  10.760  15.221   0.913
 7036W        W75430  10.156  18.800  11.671
 7037W        W75431  41.993  34.386  10.073
 7038W        W75432  39.471  40.532  10.741
 7039W        W75433  11.361  39.376   1.741
 7040W        W75434   3.516  27.501   4.487
 7041W        W75435  24.395   4.776   4.174
 7042W        W75436  11.215   1.273   1.940
 7043W        W75437   7.143  25.170  14.875
 7044W        W75438  11.560   3.170   2.750
 7045W        W75439  22.590  10.645  13.967
 7046W        W75440   6.171  20.706   2.740
 7047W        W75441  18.177  36.267  11.220
 7048W        W75442  10.583  19.628   2.849
 7049W        W75443  20.710  16.231   3.729
 7050W        W75444  31.869  25.132  12.504
 7051W        W75445   8.506  37.843  11.210
 7052W        W75446  44.717  31.740   4.521
 7053W        W75447   8.387  30.221   2.634
 7054W        W75448  20.081  24.585   3.261
 7055W        W75449  13.645  44.447  13.372
 7056W        W75450  27.035   8.214  12.441
 7057W        W75451   5.066  39.432   2.747
 7058W        W75452  10.136  11.096  11.171
 7059W        W75453  17.331  43.804  12.989
 7060W        W75454   8.273  13.949  12.488
 7061W        W75455  41.673  25.453   3.331
 7062W        W75456  11.834  32.498  11.142
 7063W        W75457  24.955  21.027   4.961
 7064W        W75458  20.122   9.844   2.300
 7065W        W75459   4.222  38.769   0.791
 7066W        W75460  10.240  14.075  14.355
 7067W        W75461  17.700  32.011  10.282
 7068W        W75462  31.037  26.815   1.874
 7069W        W75463   9.608   7.831   0.718
 7070W        W75464  37.569  12.092  14.445
 7071W        W75465  15.803  37.594   1.777
 7072W        W75466   3.082  25.995   1.737
 7073W        W75467   2.987  31.456  14.733
 7074W        W75468  42.403  35.553   4.594
 7075W        W75469   8.269  43.917   4.043
 7076W        W75470  40.935  23.440  11.461
 7077W        W75471  42.658   4.300  12.867
 7078W        W75472  29.870   6.478  11.171
 7079W        W75473  26.935  25.090   2.135
 7080W        W75474  24.475   2.758   1.944
 7081W        W75475  44.302  40.861  10.553
 7082W        W75476  29.519  14.620  10.478
 7083W        W75477   2.259   3.490  12.859
 7084W        W75478   1.349   1.239  14.883
 7085W        W75479  33.629   1.713  14.481
 7086W        W75480  23.629  32.411  13.375
 7087W        W75481  38.794  19.017   0.330
 7088W        W75482   3.200  13.814   3.203
 7089W        W75483  26.388  27.093   2.861
 7090W        W75484  35.543  14.709   3.830
 7091W        W75485  14.946   9.864  14.012
 7092W        W75486  30.619  41.258  10.815
 7093W        W75487   4.285  15.820  12.603
 7094W        W75488  22.007  15.696   3.632
 7095W        W75489  38.941  22.029  11.840
 7096W        W75490  16.277  26.064   0.352
 7097W        W75491  40.524  43.014  11.916
 7098W        W75492   4.393  35.352   0.201
 7099W        W75493  33.514  38.559  11.128
 7100W        W75494   4.468  24.273  13.698
 7101W        W75495  38.530  15.138  10.537
 7102W        W75496  11.908  28.632  12.994
 7103W        W75497  24.203   9.722  12.881
 7104W        W75498  23.033   1.067  12.527
 7105W        W75499  28.438  25.794   1.477
 7106W        W75500   1.726  26.299   4.947
 7107W        W75501   8.244  17.285   0.694
 7108W        W75502   9.010  30.846  11.358
 7109W        W75503  26.695  11.326  11.197
 7110W        W75504  43.412  40.338   3.241
 7111W        W75505  42.699   4.662  14.078
 7112W        W75506  37.406   8.889   1.539
 7113W        W75507   1.860  25.828   2.278
 7114W        W75508  42.266  40.824  10.430
 7115W        W75509   1.846   2.728  12.569
 7116W        W75510   4.154   7.209  13.094
 7117W        W75511  14.860   1.432   0.745
 7118W        W75512  29.288  34.282  11.634
 7119W        W75513   4.982  15.449  14.869
 7120W        W75514   6.278  10.811  10.705
 7121W        W75515   7.334  28.215   1.343
 7122W        W75516   2.879  17.048   1.454
 7123W        W75517  30.212  20.462  10.757
 7124W        W75518  16.231   9.744  13.536
 7125W        W75519  22.664  35.077   0.826
 7126W        W75520  38.394  43.545  12.889
 7127W        W75521  18.843  19.573   1.016
 7128W        W75522  37.040  41.671  14.104
 7129W        W75523   7.691  21.048   4.224
 7130W        W75524   3.999   4.908   4.881
 7131W        W75525   5.217   9.726  14.268
 7132W        W75526   1.820  31.909  10.654
 7133W        W75527  12.699  17.805   0.210
 7134W        W75528   8.939  15.507   1.692
 7135W        W75529   7.722  36.333  12.563
 7136W        W75530  39.580  24.210   0.501
 7137W        W75531   1.547  14.896  11.850
 7138W        W75532  19.201  44.826   4.603
 7139W        W75533  42.795  29.522  13.799
 7140W        W75534  28.189  34.837  10.558
 7141W        W75535  25.423   5.890  13.294
 7142W        W75536  13.997  19.965   4.966
 7143W        W75537   8.608   1.700  10.773
 7144W        W75538  41.052  37.036   2.852
 7145W        W75539  35.734  32.551  13.301
 7146W        W75540  23.637  26.158   3.169
 7147W        W75541   4.380   6.732  13.233
 7148W        W75542  16.741  40.885  12.123
 7149W        W75543  34.140   6.934  13.467
 7150W        W75544  19.987   9.750   1.280
 7151W        W75545  23.100  40.812  11.220
 7152W        W75546  10.934  14.222  14.937
 7153W        W75547  25.210  43.309  12.597
 7154W        W75548  21.200  18.114   1.801
 7155W        W75549  34.456  30.029   0.503
 7156W        W75550  14.582  32.539   3.956
 7157W        W75551  36.111  23.622   3.993
 7158W        W75552  23.636  28.687  14.438
 7159W        W75553  15.454  32.017  10.672
 7160W        W75554  13.107  38.875  10.689
 7161W        W75555   5.625  16.731   5.111
 7162W        W75556  22.472  26.758   0.336
 7163W        W75557  18.397  43.089   1.451
 7164W        W75558  31.160  41.825   3.252
 7165W        W75559   4.774  21.790   0.320
 7166W        W75560  31.625  38.826   0.703
 7167W        W75561   7.497   9.668  13.438
 7168W        W75562  43.877  35.361   4.536
 7169W        W75563  26.966   5.679   2.970
 7170W        W75564  13.648   9.091  14.035
 7171W        W75565   6.909   9.818  14.758
 7172W        W75566   1.827  43.830  11.698
 7173W        W75567  19.317  39.497   5.014
 7174W        W75568  18.716  18.125   0.191
 7175W        W75569  22.457   1.764   1.992
 7176W        W75570   7.985  24.177  12.982
 7177W        W75571   5.013  29.693  11.270
 7178W        W75572  32.457   8.954  14.882
 7179W        W75573  12.914  43.877   2.239
 7180W        W75574  43.405  16.753  14.854
 7181W        W75575  24.787  17.747   1.953
 7182W        W75576  40.786  22.493  11.023
 7183W        W75577  29.101  22.705  13.816
 7184W        W75578  44.719  24.196  12.692
 7185W        W75579  42.081   5.907  14.433
 7186W        W75580  42.016  24.955  13.892
 7187W        W75581  34.394  10.674  10.743
 7188W        W75582  24.996  18.617  10.688
 7189W        W75583  13.004  14.544   0.460
 7190W        W75584  11.112  22.976   0.281
 7191W        W75585  32.192  13.638  12.971
 7192W        W75586  17.650  19.228  11.083
 7193W        W75587  33.345  43.077  10.844
 7194W        W75588  25.466   8.384   3.701
 7195W        W75589  36.784  25.298   1.799
 7196W        W75590  27.205  24.187   2.191
 7197W        W75591   9.313  24.302   2.828
 7198W        W75592   8.912   0.078  14.379
 7199W        W75593   5.404  38.624  10.567
 7200W        W75594   3.376  28.223   1.760
 7201W        W75595  24.523  12.729   5.534
 7202W        W75596  32.403   8.171   4.101
 7203W        W75597  33.014   7.654   2.594
 7204W        W75598  38.538  24.401  13.948
 7205W        W75599  33.071  36.619   3.388
 7206W        W75600  34.048  10.542  11.119
 7207W        W75601  36.834  33.046   1.911
 7208W        W75602  42.303   3.012  11.147
 7209W        W75603  36.110   3.346  13.514
 7210W        W75604  42.373   0.797  11.305
 7211W        W75605  11.532  10.180   3.632
 7212W        W75606  37.888  32.951   2.539
 7213W        W75607  44.061   5.905   1.127
 7214W        W75608   0.806  14.682   3.610
 7215W        W75609  23.997  16.319  14.037
 7216W        W75610  16.966  10.891   3.667
 7217W        W75611  12.683  29.737  14.554
 7218W        W75612  30.453   9.765   4.851
 7219W        W75613  33.923  42.504  11.561
 7220W        W75614  18.332  14.984   3.325
 7221W        W75615  15.248  32.943   0.871
 7222W        W75616  43.754  38.934  12.743
 7223W        W75617  42.753  26.026   2.399
 7224W        W75618  10.396  21.750   0.950
 7225W        W75619  22.756   3.435  10.566
 7226W        W75620   2.421  11.926  10.146
 7227W        W75621  19.804  40.813   0.529
 7228W        W75622  17.066  24.110  14.418
 7229W        W75623  31.612  29.024   0.751
 7230W        W75624  22.678  38.244   3.745
 7231W        W75625  17.206  24.640   3.712
 7232W        W75626  38.458  23.481   3.773
 7233W        W75627  40.560   1.964  12.125
 7234W        W75628  29.195  24.679   1.665
 7235W        W75629  44.318  38.455  13.355
 7236W        W75630  23.249  23.640  13.202
 7237W        W75631   9.916   0.198   3.621
 7238W        W75632  10.704   0.048  10.296
 7239W        W75633  16.379  42.677   0.696
 7240W        W75634  36.125  31.367  10.790
 7241W        W75635  32.846  42.754  13.120
 7242W        W75636  32.291  42.643  13.812
 7243W        W75637  15.545  11.669  10.762
 7244W        W75638  34.457  18.708   2.177
 7245W        W75639  12.025  16.691   1.969
 7246W        W75640  23.075   2.207   3.372
 7247W        W75641  35.815  33.143   2.005
 7248W        W75642  30.410  22.129  14.482
 7249W        W75643  36.002  37.594   3.278
 7250W        W75644  30.979  35.661   1.119
 7251W        W75645  10.214  40.836  11.590
 7252W        W75646  16.590  11.383  14.553
 7253W        W75647  24.966  26.271  12.448
 7254W        W75648   6.242  21.565   1.408
 7255W        W75649  39.791  35.067  14.295
 7256W        W75650  21.521  31.876   1.218
 7257W        W75651  44.291  28.537  14.865
 7258W        W75652   8.091  13.294  11.979
 7259W        W75653  32.063  30.897  11.467
 7260W        W75654   1.283  31.946  13.436
 7261W        W75655  25.961  35.140  14.481
 7262W        W75656  30.401  32.975   0.394
 7263W        W75657  28.346   0.957   4.453
 7264W        W75658  26.513  39.856  11.507
 7265W        W75659  13.787   4.176  13.746
 7266W        W75660  35.012  23.729   2.839
 7267W        W75661  16.968  34.020   0.078
 7268W        W75662   8.692  44.860   4.632
 7269W        W75663  37.948  30.808  12.872
 7270W        W75664  32.686   3.165  12.304
 7271W        W75665  38.318  42.400   2.844
 7272W        W75666  43.334   5.289   3.938
 7273W        W75667  22.461  28.573   0.881
 7274W        W75668  26.808  44.865   1.200
 7275W        W75669   0.333  41.417   1.510
 7276W        W75670  29.025  44.533   3.652
 7277W        W75671  15.095  42.079   0.974
 7278W        W75672  43.924  26.725   0.499
 7279W        W75673  13.126  20.481   0.843
 7280W        W75674   3.649  17.674  11.964
 7281W        W75675  18.243   9.399  11.236
 7282W        W75676  32.225  35.929  10.567
 7283W        W75677  41.523  30.689  13.064
 7284W        W75678  39.547  17.710  12.900
 7285W        W75679  40.620  19.271  14.821
 7286W        W75680  33.085  17.977  14.854
 7287W        W75681  18.280   4.217   2.352
 7288W        W75682  41.888  32.678  14.735
 7289W        W75683  20.832  29.100  12.816
 7290W        W75684  40.054  24.730   1.860
 7291W        W75685  43.602  11.840  13.026
 7292W        W75686  26.503  16.937   0.625
 7293W        W75687  16.746   2.653  11.061
 7294W        W75688   5.402   4.461   2.243
 7295W        W75689  19.629  20.334  12.655
 7296W        W75690  44.836  18.247  10.678
 7297W        W75691  24.093  12.459   5.690
 7298W        W75692  16.663  24.602  11.580
 7299W        W75693  40.930  13.287  13.347
 7300W        W75694  35.863   4.986   4.644
 7301W        W75695  35.564  30.908  11.621
 7302W        W75696  29.636  22.651   0.462
 7303W        W75697  24.602  27.992  13.059
 7304W        W75698  28.023  30.544   3.545
 7305W        W75699   2.317  30.123  14.868
 7306W        W75700  34.406  23.451  13.872
 7307W        W75701   6.156  32.363   4.739
 7308W        W75702  33.475   7.407   2.556
 7309W        W75703  12.295  21.832   4.028
 7310W        W75704  28.167  16.228  11.932
 7311W        W75705   3.900  33.959   3.647
 7312W        W75706  24.671  15.658   1.471
 7313W        W75707  36.484  29.485   3.349
 7314W        W75708  36.496  23.196  11.993
 7315W        W75709  37.120  39.944   2.644
 7316W        W75710  40.247  18.308   4.476
 7317W        W75711  35.463  31.300   2.810
 7318W        W75712   3.035  41.728  14.966
 7319W        W75713  32.049   9.073   1.240
 7320W        W75714  30.208  26.536   3.633
 7321W        W75715  18.697  10.113   0.843
 7322W        W75716  40.455  23.075  11.795
 7323W        W75717   9.431  17.213   2.639
 7324W        W75718  38.079   4.889   9.803
 7325W        W75719   1.062  42.319   3.922
 7326W        W75720  17.086  40.416  14.806
 7327W        W75721   2.244   8.250   2.917
 7328W        W75722   5.450  12.580  13.985
 7329W        W75723  36.949  16.068   2.449
 7330W        W75724  17.926  22.510   2.357
 7331W        W75725  18.201  40.052   4.531
 7332W        W75726   9.840  38.742   3.800
 7333W        W75727   5.315  37.149   2.178
 7334W        W75728  36.494  16.172  10.491
 7335W        W75729  23.267  16.141  13.533
 7336W        W75730  39.120  30.593   0.310
 7337W        W75731   5.746  40.062   2.898
 7338W        W75732   9.125   5.325  11.931
 7339W        W75733  25.637   6.954   1.690
 7340W        W75734   5.332  14.090  14.879
 7341W        W75735  22.931  40.788  12.906
 7342W        W75736   6.141  28.127   1.916
 7343W        W75737   4.830   6.420   2.367
 7344W        W75738   1.966  42.806   0.822
 7345W        W75739   5.429  37.345  14.328
 7346W        W75740  26.304  39.662   1.300
 7347W        W75741  17.279  19.273   3.652
 7348W        W75742  39.179  24.782  13.537
 7349W        W75743  43.123  42.010   3.692
 7350W        W75744  20.088  36.436  10.658
 7351W        W75745  38.252  24.253   2.697
 7352W        W75746  18.377  41.221   1.906
 7353W        W75747   9.188  26.582  14.343
 7354W        W75748  38.879  42.740   4.300
 7355W        W75749  33.635  18.583   4.519
 7356W        W75750  36.339  41.860   4.716
 7357W        W75751  17.385  12.705  14.228
 7358W        W75752  30.113  26.044  14.512
 7359W        W75753  23.643  34.373  11.594
 7360W        W75754  13.420  35.318   3.242
 7361W        W75755  43.259  36.036  12.567
 7362W        W75756   4.914  23.472   3.406
 7363W        W75757  42.322  23.335   1.805
 7364W        W75758  32.988   7.966  11.830
 7365W        W75759   7.713   1.444  11.617
 7366W        W75760  20.774  23.067  11.305
 7367W        W75761  43.956  10.789  14.854
 7368W        W75762  19.548  36.390   2.941
 7369W        W75763  18.656  14.482  10.420
 7370W        W75764  12.421   0.906  12.487
 7371W        W75765   6.021  10.416  12.829
 7372W        W75766  20.031   5.960   1.454
 7373W        W75767   2.024  30.403   4.936
 7374W        W75768  39.362  42.474   0.942
 7375W        W75769  37.899   2.636   3.391
 7376W        W75770  26.429  29.105   0.360
 7377W        W75771  43.277  16.427   1.176
 7378W        W75772  13.265  40.061  14.365
 7379W        W75773   3.281   7.159  12.888
 7380W        W75774   6.890  27.809   1.128
 7381W        W75775  33.425  40.993   4.375
 7382W        W75776  32.921  15.614  10.853
 7383W        W75777  42.768  43.573  14.300
 7384W        W75778  26.420  40.932   0.068
 7385W        W75779  38.853  19.225   0.797
 7386W        W75780  15.689   0.057   2.643
 7387W        W75781  33.456  43.263   4.959
 7388W        W75782  41.456  20.779  13.906
 7389W        W75783  35.360  39.329  11.561
 7390W        W75784  24.224   0.119  13.909
 7391W        W75785  29.534  10.243   2.482
 7392W        W75786  17.170  38.354   2.083
 7393W        W75787  40.085   8.229   3.646
 7394W        W75788   7.407  28.578   3.455
 7395W        W75789  28.721  40.829   4.420
 7396W        W75790  25.434  10.298   1.218
 7397W        W75791  11.184  17.182  11.132
 7398W        W75792   7.349  20.469   3.503
 7399W        W75793  34.972  37.648  10.758
 7400W        W75794  41.902  34.122   4.208
 7401W        W75795  11.192  19.246   4.071
 7402W        W75796   3.351  41.876  12.525
 7403W        W75797  40.531  41.023   4.216
 7404W        W75798  13.045  42.321  11.967
 7405W        W75799   2.482  19.296  14.441
 7406W        W75800   7.293   3.442  13.080
 7407W        W75801   0.142  35.691  11.326
 7408W        W75802  33.205  39.083   5.087
 7409W        W75803  25.787   2.972  14.714
 7410W        W75804   1.369  43.300   2.155
 7411W        W75805  23.105  11.184  12.562
 7412W        W75806  28.873  16.296   0.740
 7413W        W75807  31.571  19.547   0.648
 7414W        W75808   6.290  29.646  11.565
 7415W        W75809  11.730   1.200  12.400
 7416W        W75810  19.325  17.356   0.159
 7417W        W75811  30.627  23.996  12.952
 7418W        W75812  38.585  23.978   2.416
 7419W        W75813  10.266  25.582   3.724
 7420W        W75814  10.427  19.027  13.436
 7421W        W75815   5.603   5.578   4.393
 7422W        W75816   5.461  16.268  13.407
 7423W        W75817  37.513  40.563   5.069
 7424W        W75818  31.007   0.836  13.879
 7425W        W75819  37.662   0.608  11.977
 7426W        W75820  37.893  15.707   4.813
 7427W        W75821  15.200  20.048   4.875
 7428W        W75822  44.957  31.515   1.314
 7429W        W75823  44.466  44.271   2.200
 7430W        W75824  10.143  14.576   0.412
 7431W        W75825   2.954  27.116   2.124
 7432W        W75826   1.842  20.840   3.161
 7433W        W75827  35.587  10.919   1.454
 7434W        W75828   3.013   1.085  10.948
 7435W        W75829  26.286  25.750   1.241
 7436W        W75830  44.203  27.403  10.573
 7437W        W75831  23.988  40.927   1.895
 7438W        W75832   7.491  11.463   1.840
 7439W        W75833  42.968  25.741   1.388
 7440W        W75834  31.972  18.275  11.516
 7441W        W75835  12.008  17.086  11.049
 7442W        W75836  41.457  42.241   4.846
 7443W        W75837  42.872  38.300   1.372
 7444W        W75838  40.374  16.868   1.244
 7445W        W75839   5.581  13.105   4.543
 7446W        W75840  11.021  24.696  10.642
 7447W        W75841  19.600  35.865  14.375
 7448W        W75842  21.183  10.858  12.525
 7449W        W75843  43.942  20.652  11.755
 7450W        W75844  16.621   6.403   1.084
 7451W        W75845   2.001   4.624  12.524
 7452W        W75846  38.563  44.300  14.754
 7453W        W75847  32.875  31.851  12.426
 7454W        W75848  14.904  16.094  13.328
 7455W        W75849   8.604   3.271   2.391
 7456W        W75850  13.259   9.156  10.533
 7457W        W75851  40.238  35.131   4.297
 7458W        W75852  34.688  39.478   1.710
 7459W        W75853  31.431  19.627   3.972
 7460W        W75854  32.352  27.585   4.257
 7461W        W75855  27.496  40.355   2.496
 7462W        W75856   0.811  38.251   0.465
 7463W        W75857   1.417   0.233   3.324
 7464W        W75858  11.915  25.198   0.972
 7465W        W75859  34.280   2.817   1.859
 7466W        W75860  22.811   7.838   1.410
 7467W        W75861  37.351  19.790   2.115
 7468W        W75862  42.033  23.385   2.712
 7469W        W75863  22.906  34.084   2.923
 7470W        W75864  42.753  30.754  13.335
 7471W        W75865  39.351   1.179   4.579
 7472W        W75866  42.131  39.028   0.097
 7473W        W75867  13.140   8.013  13.552
 7474W        W75868  39.137  35.056   2.195
 7475W        W75869  23.815  24.561   2.654
 7476W        W75870  10.512  35.555   3.374
 7477W        W75871  22.677  24.348  14.751
 7478W        W75872  34.408  10.194  13.864
 7479W        W75873  25.703   9.758  13.884
 7480W        W75874  16.829  42.780   1.802
 7481W        W75875   6.443  13.075   2.780
 7482W        W75876  10.967  16.005   2.412
 7483W        W75877  15.008  38.967   5.075
 7484W        W75878  43.391  40.510   0.993
 7485W        W75879  29.151  24.058   2.243
 7486W        W75880  42.392  21.744   3.024
 7487W        W75881  12.814  24.874  11.564
 7488W        W75882  23.618  13.170   0.718
 7489W        W75883  15.573  35.203  13.114
 7490W        W75884  14.289  42.629   4.086
 7491W        W75885  44.265  36.630  11.128
 7492W        W75886  32.984  27.519   0.933
 7493W        W75887  37.402  24.580  11.509
 7494W        W75888  27.565   3.358   2.425
 7495W        W75889  14.758   4.799   2.258
 7496W        W75890   7.342  39.088   4.631
 7497W        W75891  22.423  31.624  14.749
 7498W        W75892  27.091  22.295   4.828
 7499W        W75893   1.884  31.579   2.427
 7500W        W75894  40.031  20.148   4.239
 7501W        W75895   7.372  25.437   1.530
 7502W        W75896  28.221  34.636  12.028
 7503W        W75897  26.867  43.353  10.415
 7504W        W75898  20.596  43.227  14.843
 7505W        W75899  33.711   5.139  11.652
 7506W        W75900  39.525  16.035   2.271
 7507W        W75901  21.488  44.027   1.207
 7508W        W75902  16.083  19.043   4.239
 7509W        W75903   7.404  10.617  14.448
 7510W        W75904   7.844  20.671   1.775
 7511W        W75905  29.881  14.384   1.424
 7512W        W75906   5.683  34.977  12.071
 7513W        W75907  19.169  44.434  10.692
 7514W        W75908  44.449  19.958  14.154
 7515W        W75909  16.367  11.652  13.367
 7516W        W75910  14.724  19.704   0.812
 7517W        W75911  27.077  23.283   0.461
 7518W        W75912  34.426  15.829  12.050
 7519W        W75913  22.098   8.672   1.601
 7520W        W75914   3.237   9.902   0.939
 7521W        W75915  34.074  17.148  12.581
 7522W        W75916  30.389  35.471  13.037
 7523W        W75917  39.734  43.856   4.590
 7524W        W75918   9.982  12.118   1.273
 7525W        W75919  11.118  16.750  10.859
 7526W        W75920  11.292  37.503   4.814
 7527W        W75921  43.214   4.442   5.051
 7528W        W75922  40.853  34.129   0.454
 7529W        W75923  41.822  44.511  14.392
 7530W        W75924  13.373   4.216  14.587
 7531W        W75925  29.558   4.187   1.690
 7532W        W75926  44.210  22.532   4.026
 7533W        W75927  21.061  11.236   2.847
 7534W        W75928  23.480  43.762  14.982
 7535W        W75929  11.403  32.839   4.648
 7536W        W75930  14.906  18.712   4.243
 7537W        W75931  38.920   7.833   3.385
 7538W        W75932   0.470  12.372   4.664
 7539W        W75933   8.337  38.621  12.013
 7540W        W75934   6.832   5.915   4.604
 7541W        W75935  26.087  19.412  12.860
 7542W        W75936  34.409  10.200  13.317
 7543W        W75937  34.023  25.262  12.410
 7544W        W75938   6.811  34.140  10.704
 7545W        W75939  17.724  17.242   0.906
 7546W        W75940   3.239  30.674   2.616
 7547W        W75941  24.970  10.816   0.208
 7548W        W75942  34.910  13.040  11.622
 7549W        W75943  43.250  21.116   2.391
 7550W        W75944  31.721  12.821  11.135
 7551W        W75945  15.045  17.043   3.670
 7552W        W75946  20.351  24.756   4.085
 7553W        W75947  27.950  15.283  14.012
 7554W        W75948  17.042  26.448  14.458
 7555W        W75949  19.558  32.025  14.848
 7556W        W75950  12.985  35.836   2.199
 7557W        W75951  36.619   7.945  11.542
 7558W        W75952  18.377  22.620  14.632
 7559W        W75953  40.164  43.750   1.924
 7560W        W75954   0.250   8.105  10.481
 7561W        W75955  35.791  36.521  12.051
 7562W        W75956  33.051  21.755  14.981
 7563W        W75957  10.902  35.826   3.126
 7564W        W75958   7.024   8.270   1.338
 7565W        W75959  14.371  32.649  13.970
 7566W        W75960  21.123   6.620   4.617
 7567W        W75961  23.936  19.182  13.551
 7568W        W75962  14.313  14.155  10.678
 7569W        W75963  41.009  19.337   3.663
 7570W        W75964  29.633   0.714   4.095
 7571W        W75965   0.456  39.345   4.707
 7572W        W75966  37.584  20.124   4.614
 7573W        W75967  22.512  15.201  11.169
 7574W        W75968  37.451   0.861   1.554
 7575W        W75969   2.897  25.070   1.805
 7576W        W75970  43.001   0.448  10.881
 7577W        W75971  29.036  32.109  10.629
 7578W        W75972  38.810  41.267   1.849
 7579W        W75973   3.217   9.657  11.483
 7580W        W75974  21.334  38.639   3.135
 7581W        W75975  18.787   6.949   2.862
 7582W        W75976  25.999   3.727  14.308
 7583W        W75977  13.782  17.812   3.240
 7584W        W75978  23.938  38.474   4.179
 7585W        W75979  37.736  41.582   1.895
 7586W        W75980   9.855  36.952   2.872
 7587W        W75981  18.804  38.300   3.534
 7588W        W75982  44.726  38.635   2.221
 7589W        W75983  19.188  12.556   0.917
 7590W        W75984  21.212  16.227  12.877
 7591W        W75985   6.748  34.893  14.411
 7592W        W75986  29.443  24.267   1.866
 7593W        W75987   7.129  26.094   4.754
 7594W        W75988  26.809   5.201  13.599
 7595W        W75989  28.575  29.996   2.800
 7596W        W75990   4.668  23.764  11.688
 7597W        W75991  42.461   0.973  13.238
 7598W        W75992  38.626  29.981  12.116
 7599W        W75993  11.848  25.157   3.662
 7600W        W75994  38.182  12.865   1.565
 7601W        W75995  43.274  38.275  11.825
 7602W        W75996  16.424  31.596  13.906
 7603W        W75997  16.612  43.728   4.823
 7604W        W75998  19.192  38.035  11.655
 7605W        W75999  27.161  42.184  11.120
 7606W        W76000  23.856  18.884   1.765
 7607W        W76001  17.814   5.827   1.311
 7608W        W76002   7.159  26.155  10.239
 7609W        W76003  13.720  32.844  12.026
 7610W        W76004   6.148   0.136   4.633
 7611W        W76005  12.783   1.754   2.923
 7612W        W76006  24.444  44.890   2.196
 7613W        W76007  10.709  29.507   3.678
 7614W        W76008   6.703  39.492  14.442
 7615W        W76009  28.469  15.079  12.600
 7616W        W76010  36.986   3.700  13.265
 7617W        W76011  17.309  42.472  13.285
 7618W        W76012  36.008   0.015   0.054
 7619W        W76013  36.907  30.460  14.975
 7620W        W76014  13.110  32.353  12.566
 7621W        W76015  17.139  25.752  12.036
 7622W        W76016  33.884   6.984   1.903
 7623W        W76017  40.413  31.482   2.115
 7624W        W76018  18.916  14.948  12.563
 7625W        W76019   8.812  37.051   0.230
 7626W        W76020  18.218   3.419  10.136
 7627W        W76021  16.777  17.268   4.121
 7628W        W76022  19.312  27.149   3.623
 7629W        W76023  17.020  16.678   2.328
 7630W        W76024  41.993   2.974   4.686
 7631W        W76025   9.125   9.979  11.474
 7632W        W76026  35.630  30.412  12.453
 7633W        W76027  12.081  39.915   3.655
 7634W        W76028   6.214  10.575   1.925
 7635W        W76029  17.608  26.530  14.483
 7636W        W76030  25.532  31.548  13.051
 7637W        W76031  35.555  43.374   4.651
 7638W        W76032  16.274   6.805  14.368
 7639W        W76033  35.972  39.919   2.648
 7640W        W76034  13.084   1.738   3.605
 7641W        W76035   2.864  17.156   3.350
 7642W        W76036   4.551  18.132   4.532
 7643W        W76037  25.134  25.064   1.469
 7644W        W76038  40.934  19.629   0.893
 7645W        W76039  26.565  40.851   0.942
 7646W        W76040  44.627  33.926  13.966
 7647W        W76041  40.475  29.486  11.707
 7648W        W76042   6.830  40.770   1.874
 7649W        W76043  41.596  24.141   0.007
 7650W        W76044  41.012  44.569   4.293
 7651W        W76045   9.326  36.927   0.263
 7652W        W76046   9.218  13.826   3.409
 7653W        W76047   0.800  38.337  13.892
 7654W        W76048  11.521  23.089  14.986
 7655W        W76049  20.153  23.102  14.480
 7656W        W76050  37.138  22.089  10.780
 7657W        W76051  19.785  34.633  14.787
 7658W        W76052  23.401  28.980   3.260
 7659W        W76053  16.317  12.648  13.046
 7660W        W76054  11.943  23.454  11.218
 7661W        W76055   0.182  12.391   3.819
 7662W        W76056   8.300  36.322  10.933
 7663W        W76057  25.193  34.324   2.370
 7664W        W76058  17.581  35.572  14.973
 7665W        W76059  18.067  30.078  14.448
 7666W        W76060  34.758   3.958   3.166
 7667W        W76061  17.198  35.610   4.746
 7668W        W76062  26.275  41.424   2.844
 7669W        W76063  36.543  23.034   2.479
 7670W        W76064  13.020   6.344  11.584
 7671W        W76065  25.842   5.839  11.968
 7672W        W76066   5.829  17.805   3.322
 7673W        W76067  21.979  33.143  13.843
 7674W        W76068  21.081  32.587   3.761
 7675W        W76069  17.530  44.754  10.742
 7676W        W76070   1.953  33.415   1.571
 7677W        W76071  20.071  23.644  13.010
 7678W        W76072  12.261  41.516   0.945
 7679W        W76073  24.010   7.598  13.945
 7680W        W76074  14.026  27.957  11.467
 7681W        W76075  18.034  18.220   4.315
 7682W        W76076  15.864   7.348   0.449
 7683W        W76077  40.300  43.814   0.012
 7684W        W76078  14.697  23.429  11.827
 7685W        W76079  44.457  36.149   1.732
 7686W        W76080  42.405   6.602   4.789
 7687W        W76081  39.751  14.792   4.634
 7688W        W76082   2.309  37.679   4.111
 7689W        W76083  20.046   7.275  14.793
 7690W        W76084  41.997  18.315  12.647
 7691W        W76085  41.871  31.986   0.281
 7692W        W76086   6.659  44.310   4.347
 7693W        W76087  30.790  30.693  13.959
 7694W        W76088   4.877  36.960   2.379
 7695W        W76089  31.358  24.031  10.757
 7696W        W76090  20.551  32.788  13.284
 7697W        W76091  42.744  22.162   4.202
 7698W        W76092  13.705  15.399  13.071
 7699W        W76093   2.282   4.832   0.669
 7700W        W76094   0.771   3.247   0.408
 7701W        W76095  32.076   3.182   3.687
 7702W        W76096  24.262  13.266   3.362
 7703W        W76097  10.785  34.158  11.358
 7704W        W76098  26.827   0.580  10.350
 7705W        W76099  20.174  38.098   1.412
 7706W        W76100   3.725  12.199   3.609
 7707W        W76101  24.417  29.648  13.430
 7708W        W76102  41.835  21.740  10.800
 7709W        W76103  12.339  40.892   2.781
 7710W        W76104   9.084  18.301  10.750
 7711W        W76105  35.123  21.945   1.307
 7712W        W76106  35.359   6.835   2.365
 7713W        W76107   0.334  43.571  13.012
 7714W        W76108   7.353  42.997  14.275
 7715W        W76109  12.988  42.418   2.339
 7716W        W76110  17.598  26.847   5.269
 7717W        W76111  41.594  12.638  14.438
 7718W        W76112  21.079  19.835   4.720
 7719W        W76113  13.154  12.110   2.729
 7720W        W76114  37.993  30.873   2.170
 7721W        W76115  35.863   3.849  12.509
 7722W        W76116  41.925  20.544  13.883
 7723W        W76117   9.673  33.851  11.250
 7724W        W76118  32.081  10.828  13.903
 7725W        W76119  22.513  16.245  13.901
 7726W        W76120  15.566  29.922   3.473
 7727W        W76121  37.375  20.772   0.258
 7728W        W76122  16.105  17.028   4.645
 7729W        W76123   9.653  40.253  11.194
 7730W        W76124  14.632   8.337   0.326
 7731W        W76125   7.391  38.193  13.842
 7732W        W76126  42.016   6.468   0.869
 7733W        W76127  21.291  38.539  10.913
 7734W        W76128  22.302  21.361  14.314
 7735W        W76129   7.139   0.905  10.597
 7736W        W76130   5.235  31.645   3.388
 7737W        W76131  15.207  31.703  11.602
 7738W        W76132  13.363   5.527  13.986
 7739W        W76133  31.394  12.821  12.532
 7740W        W76134  18.459  39.464   0.353
 7741W        W76135  10.370  11.773  13.849
 7742W        W76136   2.995  34.393  11.624
 7743W        W76137  38.789  20.432  11.927
 7744W        W76138  35.065   0.993   4.113
 7745W        W76139   3.952  32.081  14.574
 7746W        W76140  19.605  38.812  12.565
 7747W        W76141   4.281   7.908   2.916
 7748W        W76142  27.622  28.396   0.962
 7749W        W76143  18.555  19.745   0.185
 7750W        W76144  39.614  36.518  14.362
 7751W        W76145  31.064   1.316  10.514
 7752W        W76146   1.082  21.998   3.533
 7753W        W76147  34.971  32.121   4.878
 7754W        W76148  21.063  25.265  11.579
 7755W        W76149  28.961  43.672   0.887
 7756W        W76150  41.283   8.610  11.529
 7757W        W76151  21.256  28.733  14.927
 7758W        W76152  20.154  14.121  12.332
 7759W        W76153  14.937   7.764  10.212
 7760W        W76154  33.606   6.810   3.783
 7761W        W76155   4.746  40.487  13.831
 7762W        W76156  19.061  21.496   2.721
 7763W        W76157  42.784  38.973  11.160
 7764W        W76158  38.420  43.433   4.824
 7765W        W76159  24.554  24.352   3.660
 7766W        W76160  10.342  43.354  11.970
 7767W        W76161  34.364  36.563   0.727
 7768W        W76162   8.674  15.172   2.400
 7769W        W76163  27.497   0.974  13.641
 7770W        W76164   8.194  33.327  10.545
 7771W        W76165   3.466  15.727  14.019
 7772W        W76166  36.838  32.143   0.528
 7773W        W76167  24.537   0.346   3.573
 7774W        W76168  10.402  37.423  11.237
 7775W        W76169  10.140  10.340  13.425
 7776W        W76170  39.070   6.404   4.999
 7777W        W76171  42.081  42.302  12.097
 7778W        W76172  37.373  43.268   1.406
 7779W        W76173  21.164   4.419  14.048
 7780W        W76174  20.490   9.120   1.170
 7781W        W76175   8.526   2.684   3.774
 7782W        W76176  17.172  24.106   3.750
 7783W        W76177  23.875  35.761  11.192
 7784W        W76178  15.818  32.385  10.669
 7785W        W76179  41.382  43.650   2.427
 7786W        W76180  21.549  10.372  10.277
 7787W        W76181  22.834   1.490  10.550
 7788W        W76182  15.588  31.573   0.474
 7789W        W76183   6.189  43.626   0.772
 7790W        W76184  12.310   7.024  11.391
 7791W        W76185  38.273  14.391   2.127
 7792W        W76186   4.699   9.455  11.522
 7793W        W76187  38.862  12.254  12.505
 7794W        W76188  27.122  42.801   0.078
 7795W        W76189  44.883  23.008  11.543
 7796W        W76190  40.495   7.870  11.604
 7797W        W76191  30.903  39.240   4.217
 7798W        W76192   7.895  33.871  12.591
 7799W        W76193  32.143  29.168   1.860
 7800W        W76194  22.412  44.341  14.045
 7801W        W76195  29.952  27.588  12.069
 7802W        W76196  22.836  38.906   0.743
 7803W        W76197   2.055  17.128  14.978
 7804W        W76198  31.847  40.520  11.220
 7805W        W76199   2.842  40.762   2.297
 7806W        W76200  36.467   3.819   1.277
 7807W        W76201   0.518  28.001  12.487
 7808W        W76202  29.513  41.906  14.380
 7809W        W76203   7.860  44.874   4.160
 7810W        W76204  26.097  16.684  13.513
 7811W        W76205  31.218  22.982  11.513
 7812W        W76206  10.937  18.909   2.254
 7813W        W76207   5.299  25.928   0.022
 7814W        W76208  42.847  23.488   4.876
 7815W        W76209   7.468  40.002   2.286
 7816W        W76210  37.908  22.117  12.624
 7817W        W76211  25.777   7.162  11.929
 7818W        W76212  22.057  32.538   4.766
 7819W        W76213  36.906   9.132  14.388
 7820W        W76214  29.047  13.537   1.806
 7821W        W76215  31.735  11.335  12.944
 7822W        W76216  13.709  21.848   4.131
 7823W        W76217  39.407  27.532   2.673
 7824W        W76218   7.178  25.487  14.447
 7825W        W76219   8.671   1.116  11.583
 7826W        W76220   6.271  24.758  12.573
 7827W        W76221   1.821   0.904  12.108
 7828W        W76222   0.424  41.289   0.504
 7829W        W76223  27.135  38.052   0.894
 7830W        W76224  16.622  25.819  12.130
 7831W        W76225  33.123  16.587   1.259
 7832W        W76226  24.923  17.672   4.322
 7833W        W76227  11.747  38.525  10.256
 7834W        W76228  18.423  36.495  14.026
 7835W        W76229  38.800  17.605   0.022
 7836W        W76230  42.109   2.341   0.801
 7837W        W76231  36.314   2.304  14.066
 7838W        W76232  23.614  25.963   4.613
 7839W        W76233  37.993  27.140   1.666
 7840W        W76234  13.358  21.772  11.240
 7841W        W76235  33.606   0.480   3.025
 7842W        W76236  30.081   6.615  11.755
 7843W        W76237  19.123  17.193   0.798
 7844W        W76238  35.691  32.588   1.062
 7845W        W76239  29.191  11.117  12.101
 7846W        W76240  39.434  23.253   4.752
 7847W        W76241  23.608  22.107   1.888
 7848W        W76242  10.562   9.726   2.365
 7849W        W76243  23.700   4.968   4.545
 7850W        W76244  32.922  23.149   3.669
 7851W        W76245   0.810  35.172   3.860
 7852W        W76246  44.711   9.183   3.870
 7853W        W76247  10.505   9.256  12.283
 7854W        W76248  18.173  15.463   3.235
 7855W        W76249  40.970   3.764  11.951
 7856W        W76250   4.498  16.819   4.949
 7857W        W76251  44.692   5.341   4.938
 7858W        W76252  11.552  43.752   0.855
 7859W        W76253  39.058  39.521   4.222
 7860W        W76254  25.979   4.461  14.837
 7861W        W76255  38.990   5.601   3.675
 7862W        W76256  43.312  21.588   2.630
 7863W        W76257  37.853  34.057   0.308
 7864W        W76258   8.717  38.451   4.276
 7865W        W76259  34.910   2.342   2.492
 7866W        W76260  10.218  18.596  14.446
 7867W        W76261  10.777   3.725  13.449
 7868W        W76262  43.464  13.694   4.201
 7869W        W76263  37.603  37.934  12.549
 7870W        W76264  21.020  32.969  13.040
 7871W        W76265  41.889  26.576   1.802
 7872W        W76266  31.646  44.680   0.794
 7873W        W76267  18.297  10.181   1.836
 7874W        W76268  13.413  23.044   4.634
 7875W        W76269  11.663  29.749   3.152
 7876W        W76270  11.016  22.519   0.896
 7877W        W76271  42.927  39.380   0.281
 7878W        W76272  32.396  27.020   4.199
 7879W        W76273  39.807  34.865  13.351
 7880W        W76274  30.341  11.184   1.820
 7881W        W76275   5.497  17.731  13.395
 7882W        W76276  18.034  26.976  11.666
 7883W        W76277   6.147  14.787  10.768
 7884W        W76278  10.308  15.231   2.438
 7885W        W76279   1.470  16.934  14.743
 7886W        W76280   4.191   2.441  10.582
 7887W        W76281  11.320  26.425  13.123
 7888W        W76282  11.105   8.932  11.160
 7889W        W76283  16.810   3.377   0.408
 7890W        W76284  42.497   8.820   2.331
 7891W        W76285   1.214  29.404  14.459
 7892W        W76286  19.210  37.990   2.306
 7893W        W76287  21.308  28.858  11.578
 7894W        W76288  21.208  31.590  14.831
 7895W        W76289  30.922  40.534   1.274
 7896W        W76290  19.737  36.648  13.519
 7897W        W76291  23.224  44.034  12.583
 7898W        W76292  27.596  24.378  12.440
 7899W        W76293  18.453   6.400  14.415
 7900W        W76294  32.523  18.335  11.624
 7901W        W76295   7.176  23.135   4.350
 7902W        W76296  42.292   6.679   3.304
 7903W        W76297  20.069  34.402  12.591
 7904W        W76298  32.057  41.576  12.936
 7905W        W76299  20.004   2.139   1.092
 7906W        W76300   8.927  22.988   0.479
 7907W        W76301  42.976  21.903  11.216
 7908W        W76302   7.671  22.003  11.622
 7909W        W76303  28.826  10.550  11.576
 7910W        W76304  38.495  17.335   3.725
 7911W        W76305  15.504  33.444   0.178
 7912W        W76306  20.977  32.168  14.450
 7913W        W76307   2.885  10.057   2.685
 7914W        W76308   8.680  28.867   1.742
 7915W        W76309  41.362   1.465  12.020
 7916W        W76310  10.848   0.878   3.719
 7917W        W76311   6.055  17.212  12.579
 7918W        W76312  34.383  12.249  11.194
 7919W        W76313   4.343  12.292  12.477
 7920W        W76314  34.512  29.387  13.439
 7921W        W76315  35.485  22.286   1.604
 7922W        W76316  40.542   4.326   0.170
 7923W        W76317   7.432  42.989   3.188
 7924W        W76318   5.402  29.025   4.512
 7925W        W76319   4.482  39.700   4.613
 7926W        W76320  12.059   1.291   3.795
 7927W        W76321  34.051   8.787  13.996
 7928W        W76322   6.720   0.724  13.043
 7929W        W76323  42.763   0.278   4.570
 7930W        W76324  41.615  43.847  13.591
 7931W        W76325   3.561   7.574   3.964
 7932W        W76326   5.951  16.482   4.644
 7933W        W76327  31.860   3.158  11.189
 7934W        W76328   7.386  11.754   0.178
 7935W        W76329  41.845  23.810  11.541
 7936W        W76330  41.816  11.408   3.211
 7937W        W76331  31.315  24.097   3.207
 7938W        W76332  17.300  33.404  12.339
 7939W        W76333  17.670   9.271   3.605
 7940W        W76334  12.111  40.824  10.921
 7941W        W76335  11.257  28.073   3.167
 7942W        W76336  38.706  12.889   0.842
 7943W        W76337  31.168  41.766   2.281
 7944W        W76338  23.574  25.442  13.029
 7945W        W76339  30.238  43.251   2.805
 7946W        W76340  34.661  43.702  10.587
 7947W        W76341  28.445  11.851   3.189
 7948W        W76342  17.393  38.093  13.431
 7949W        W76343  23.968  11.886   4.177
 7950W        W76344   7.603   7.416  13.295
 7951W        W76345  15.900  40.021  11.027
 7952W        W76346  33.836  11.750   4.810
 7953W        W76347   4.835  13.341  12.025
 7954W        W76348  14.048   0.822  12.115
 7955W        W76349  40.852  40.743  13.890
 7956W        W76350  38.965  11.380   3.266
 7957W        W76351  15.083   6.727  12.477
 7958W        W76352  29.642  19.640  12.677
 7959W        W76353  24.886  11.447  12.610
 7960W        W76354  22.763   9.189   4.126
 7961W        W76355  32.972   8.884   1.925
 7962W        W76356  33.735  29.974   3.754
 7963W        W76357  27.811  27.876   4.970
 7964W        W76358  12.353   0.799   2.815
 7965W        W76359  28.523  43.477   9.383
 7966W        W76360  29.832   5.426   3.842
 7967W        W76361  39.995  15.634   1.250
 7968W        W76362  29.128  15.992   0.198
 7969W        W76363   4.563   3.578  11.556
 7970W        W76364  44.962   3.212  13.250
 7971W        W76365  11.884  40.453  14.269
 7972W        W76366  22.658  42.283   0.720
 7973W        W76367  36.086  38.014   5.093
 7974W        W76368  29.965   0.317   4.083
 7975W        W76369  13.437  24.344  11.507
 7976W        W76370  19.105  25.407  12.091
 7977W        W76371  38.076  28.515   0.301
 7978W        W76372  19.197  38.524  12.403
 7979W        W76373  29.020  33.884  12.553
 7980W        W76374  40.773  16.344   4.161
 7981W        W76375  15.039  18.783   3.751
 7982W        W76376  23.625   5.122  11.121
 7983W        W76377  26.594  41.554  12.099
 7984W        W76378  28.652  39.195   1.719
 7985W        W76379  42.759   3.337  14.418
 7986W        W76380  21.999   6.838   4.713
 7987W        W76381  22.715  38.968   4.596
 7988W        W76382   6.242  20.659   3.672
 7989W        W76383  28.014  44.270  14.238
 7990W        W76384  22.119   6.745   0.925
 7991W        W76385  25.258  21.036  12.010
 7992W        W76386  31.223  34.486   2.555
 7993W        W76387  38.668   5.932   4.102
 7994W        W76388  24.651  21.090   2.302
 7995W        W76389   8.415  41.301   1.420
 7996W        W76390  21.493   0.381  10.684
 7997W        W76391  37.437   2.934  12.501
 7998W        W76392  17.180   8.405  14.372
 7999W        W76393   0.495   1.870  13.015
 8000W        W76394  35.838  21.484  11.740
 8001W        W76395  13.602  42.424  10.421
 8002W        W76396  15.094  21.737  12.834
 8003W        W76397  34.349   8.320  11.357
 8004W        W76398  33.559  14.601   4.632
 8005W        W76399  34.394  26.700  10.839
 8006W        W76400  10.384  39.995   2.893
 8007W        W76401  32.647  16.121   2.904
 8008W        W76402  23.840  13.286   5.218
 8009W        W76403  12.219  39.516   0.662
 8010W        W76404  26.071  36.903  11.287
 8011W        W76405  13.437   0.915  11.008
 8012W        W76406  32.079   9.820  11.423
 8013W        W76407  40.531  35.389  12.413
 8014W        W76408  24.957  23.502  13.368
 8015W        W76409   3.731  20.560   2.703
 8016W        W76410  26.788  34.066   1.771
 8017W        W76411  17.323  33.877  10.787
 8018W        W76412  36.634  40.714   1.824
 8019W        W76413  29.378   6.160   2.772
 8020W        W76414   0.601  15.624   4.965
 8021W        W76415  12.764   8.240  11.484
 8022W        W76416  41.549   3.860   2.819
 8023W        W76417   9.479   3.278   4.616
 8024W        W76418  12.665  18.633   4.689
 8025W        W76419  33.521  12.574  13.532
 8026W        W76420  30.593   6.169   1.790
 8027W        W76421  10.218  25.922   0.453
 8028W        W76422  30.072   9.380  14.506
 8029W        W76423  39.889   9.079  11.549
 8030W        W76424  27.135  15.888  11.788
 8031W        W76425  36.561  28.085   1.672
 8032W        W76426  41.591  20.753   0.676
 8033W        W76427  35.898   3.409   3.927
 8034W        W76428  17.281  15.771   0.086
 8035W        W76429  33.790  17.276  13.005
 8036W        W76430  22.042   5.738  11.479
 8037W        W76431  28.411  32.963   0.149
 8038W        W76432   0.845  42.713  11.684
 8039W        W76433  39.011  26.403   1.338
 8040W        W76434  41.071  44.015  11.952
 8041W        W76435  18.652   5.932  10.321
 8042W        W76436  17.219  37.354   5.116
 8043W        W76437  33.540   5.298  12.491
 8044W        W76438  29.589   0.840  10.239
 8045W        W76439  43.787  28.078   1.486
 8046W        W76440  11.799  13.667   1.044
 8047W        W76441  32.165  39.743  11.112
 8048W        W76442   5.273  11.922   1.433
 8049W        W76443  15.722  11.811  12.874
 8050W        W76444  19.585  34.474   3.796
 8051W        W76445  34.275  21.215  11.905
 8052W        W76446  44.528  31.373   1.848
 8053W        W76447   2.908  18.598  12.573
 8054W        W76448   0.885   3.228  12.241
 8055W        W76449  24.147   3.158  13.978
 8056W        W76450  38.271   8.582  12.229
 8057W        W76451   3.342   1.204   4.213
 8058W        W76452  13.669  43.572   1.903
 8059W        W76453  28.047  21.735   3.511
 8060W        W76454  26.418  26.431  11.243
 8061W        W76455  10.845   8.790  12.915
 8062W        W76456  22.809  42.661   5.157
 8063W        W76457  23.084  28.156  12.620
 8064W        W76458  23.336  43.348   2.729
 8065W        W76459  20.199  20.128  12.455
 8066W        W76460  20.332  22.404  11.052
 8067W        W76461  16.685  44.941  14.884
 8068W        W76462  38.234  18.299  11.188
 8069W        W76463   4.205  11.580  13.378
 8070W        W76464  24.257  38.484  12.695
 8071W        W76465   5.213  40.508  12.991
 8072W        W76466  18.294  13.620  13.871
 8073W        W76467  25.663  32.711  11.025
 8074W        W76468   4.774   0.495  12.187
 8075W        W76469  20.232  19.129  12.768
 8076W        W76470  36.172  35.317  10.395
 8077W        W76471  22.648   7.356  11.406
 8078W        W76472  36.344  26.152  11.148
 8079W        W76473  34.605  44.899   0.409
 8080W        W76474  34.003   7.168   3.679
 8081W        W76475  26.812   2.029   2.706
 8082W        W76476  31.066  17.544   3.103
 8083W        W76477  37.173   2.037   0.431
 8084W        W76478  19.994   1.232  11.854
 8085W        W76479  16.020   9.720  13.032
 8086W        W76480  39.759   7.789   0.218
 8087W        W76481  36.156  44.019   3.268
 8088W        W76482  30.159   3.963  12.555
 8089W        W76483  21.180  26.697   5.097
 8090W        W76484  38.260  27.278   2.157
 8091W        W76485  34.425   3.790  14.939
 8092W        W76486   7.154  34.293  14.795
 8093W        W76487  40.753  16.325  11.852
 8094W        W76488  31.621  15.690   3.111
 8095W        W76489  27.955   1.378  12.627
 8096W        W76490  19.280  24.013   3.428
 8097W        W76491  38.958  12.355  14.347
 8098W        W76492  38.745  32.471  11.512
 8099W        W76493   5.810   2.964   4.712
 8100W        W76494  14.747  39.579   0.398
 8101W        W76495  30.988  20.971   2.669
 8102W        W76496  25.668  38.265  11.453
 8103W        W76497  16.799   8.289   3.996
 8104W        W76498   1.554  32.114   3.577
 8105W        W76499  37.986  26.903  13.144
 8106W        W76500   1.449  32.556   4.810
 8107W        W76501  19.587   6.696  13.886
 8108W        W76502  20.617  36.392   4.259
 8109W        W76503  21.482  10.243  14.690
 8110W        W76504  40.051  27.108  12.074
 8111W        W76505  20.074   8.267   3.040
 8112W        W76506  42.479  10.094  11.563
 8113W        W76507  29.542   8.837  11.941
 8114W        W76508   6.633  33.631   0.414
 8115W        W76509   0.280  20.000   4.830
 8116W        W76510  32.598  14.005  13.028
 8117W        W76511   4.606  24.245  14.248
 8118W        W76512  18.340  32.741  14.704
 8119W        W76513  28.384  22.892   2.898
 8120W        W76514   1.510   7.703  11.530
 8121W        W76515  31.001   4.284   0.968
 8122W        W76516   6.346  21.786   1.837
 8123W        W76517  16.681  19.558   0.441
 8124W        W76518  36.995  30.006  12.810
 8125W        W76519  44.154  30.483   4.091
 8126W        W76520  35.588  42.368   2.754
 8127W        W76521  14.218  38.112   3.677
 8128W        W76522  27.691  13.554   1.973
 8129W        W76523  28.120  35.366  11.551
 8130W        W76524  19.316  25.432   3.236
 8131W        W76525  15.084  43.117  11.218
 8132W        W76526   1.407  36.084   1.781
 8133W        W76527  11.417  18.096  12.483
 8134W        W76528  18.414  31.148  10.696
 8135W        W76529  41.232  34.124  11.486
 8136W        W76530  17.226  37.102   4.069
 8137W        W76531   4.748   6.770   1.910
 8138W        W76532  11.363  13.346   3.854
 8139W        W76533  15.155   2.840   3.862
 8140W        W76534  41.807  39.029  13.850
 8141W        W76535  12.657  28.079  14.853
 8142W        W76536  16.679  43.283  14.695
 8143W        W76537  22.469  19.249  14.970
 8144W        W76538  31.815  12.821   2.001
 8145W        W76539   9.312  20.547   0.473
 8146W        W76540   6.215   7.449   0.408
 8147W        W76541  37.486  39.895   1.336
 8148W        W76542  44.115   2.787  10.744
 8149W        W76543  28.377  20.048  12.445
 8150W        W76544  32.722  17.459  11.124
 8151W        W76545  35.215  17.578  12.153
 8152W        W76546   7.718  41.651   0.075
 8153W        W76547  22.555  20.678  13.717
 8154W        W76548  44.968  24.647  10.911
 8155W        W76549   7.669   4.425  14.361
 8156W        W76550   6.919  13.281  12.535
 8157W        W76551  11.297  32.574  11.096
 8158W        W76552  31.422  28.218   3.169
 8159W        W76553  11.607  36.270   3.697
 8160W        W76554  21.145  13.766   0.368
 8161W        W76555  27.099  42.729   9.738
 8162W        W76556  24.586  42.155  11.239
 8163W        W76557   7.108  42.578  11.556
 8164W        W76558  16.989   6.396   2.283
 8165W        W76559  27.425  20.275  12.444
 8166W        W76560  15.029  26.637   4.608
 8167W        W76561  20.362  25.212   0.424
 8168W        W76562  12.865   1.682   4.258
 8169W        W76563  40.915  19.757   3.393
 8170W        W76564  17.677  16.045  10.535
 8171W        W76565   7.265  42.254  14.110
 8172W        W76566   7.642   1.405  12.524
 8173W        W76567  18.774   6.040   3.221
 8174W        W76568   6.831  28.762  13.770
 8175W        W76569  21.742  21.156   0.915
 8176W        W76570   1.014  36.871   1.750
 8177W        W76571  20.150  21.032  11.624
 8178W        W76572  24.206  12.793   4.354
 8179W        W76573  27.472   1.746   3.227
 8180W        W76574  39.962  18.477   0.721
 8181W        W76575  35.306  20.685  12.636
 8182W        W76576  20.642  37.902   4.607
 8183W        W76577   3.439  34.391  12.118
 8184W        W76578  23.527  22.749   3.192
 8185W        W76579  37.416   1.935  10.731
 8186W        W76580  30.695  16.865  11.856
 8187W        W76581  44.284  32.036   4.521
 8188W        W76582   9.053  12.656   2.768
 8189W        W76583  40.421  15.560  11.953
 8190W        W76584  32.407  16.089  10.982
 8191W        W76585  28.026  21.009  11.535
 8192W        W76586   9.210  12.008   0.796
 8193W        W76587  23.877  10.787   3.596
 8194W        W76588   8.234  29.916   1.330
 8195W        W76589  11.262  21.651  13.367
 8196W        W76590  11.805   2.463   0.869
 8197W        W76591  11.103  42.485  10.637
 8198W        W76592  15.283  37.654   1.727
 8199W        W76593  11.601   8.868   1.885
 8200W        W76594  11.069  21.306   1.374
 8201W        W76595  36.757  18.776  11.956
 8202W        W76596   2.488  13.965   2.501
 8203W        W76597   3.404  22.078   1.252
 8204W        W76598   6.721  19.563  10.645
 8205W        W76599  18.042  15.747  13.314
 8206W        W76600  17.358  20.662   4.223
 8207W        W76601  12.738  35.986   4.635
 8208W        W76602  41.927  21.087   3.068
 8209W        W76603   7.655  32.089  13.359
 8210W        W76604  41.507  24.241  12.498
 8211W        W76605  33.320   6.343   4.655
 8212W        W76606  13.271  37.271   4.035
 8213W        W76607  26.802  28.112   3.336
 8214W        W76608   6.298  31.144   0.268
 8215W        W76609  13.826  42.489   2.463
 8216W        W76610  14.064  33.791  14.529
 8217W        W76611   3.742  41.409   4.674
 8218W        W76612  34.385  18.339   1.768
 8219W        W76613  17.144  30.212  13.407
 8220W        W76614  18.362  44.665  12.574
 8221W        W76615  19.611  42.503   3.753
 8222W        W76616  34.217  16.158  13.988
 8223W        W76617  12.245   6.108  13.163
 8224W        W76618  24.240   1.338   3.144
 8225W        W76619  35.215  40.477   2.215
 8226W        W76620  39.891  34.600   2.338
 8227W        W76621  16.331  27.916   4.537
 8228W        W76622   4.219   3.102   4.120
 8229W        W76623  17.893  30.219   1.311
 8230W        W76624  37.076  43.792   3.104
 8231W        W76625  22.231  25.928  11.844
 8232W        W76626  39.364  42.057  13.647
 8233W        W76627  42.929  18.194   0.293
 8234W        W76628  36.469  17.545  13.408
 8235W        W76629   6.606   9.728  12.434
 8236W        W76630   8.902  24.412  10.746
 8237W        W76631  40.538   5.924  10.791
 8238W        W76632  42.268  36.538   0.407
 8239W        W76633   0.921   2.920   0.782
 8240W        W76634  42.975  26.253   1.458
 8241W        W76635  27.944  43.021  13.632
 8242W        W76636  35.673  24.647  13.806
 8243W        W76637  15.543  40.607   0.209
 8244W        W76638  33.411  24.915   0.943
 8245W        W76639  44.225  40.821  12.847
 8246W        W76640  19.742   2.502  13.016
 8247W        W76641  36.965   4.022   1.923
 8248W        W76642  42.769  41.812   1.398
 8249W        W76643   6.994   4.747   1.217
 8250W        W76644  34.005  12.558  13.345
 8251W        W76645  18.220   5.331  12.561
 8252W        W76646  16.074  33.486  12.353
 8253W        W76647  36.635  34.598  11.507
 8254W        W76648  16.491  40.222   1.267
 8255W        W76649  31.012  19.491   1.355
 8256W        W76650  27.513  21.901   3.237
 8257W        W76651  11.845   7.448  10.142
 8258W        W76652  36.866  23.720   0.772
 8259W        W76653  38.195  26.488   2.553
 8260W        W76654  17.175  15.706   3.355
 8261W        W76655  41.439   4.885   5.031
 8262W        W76656  39.310  38.657   3.390
 8263W        W76657  33.501  42.854   4.626
 8264W        W76658  25.770  34.632   1.328
 8265W        W76659   0.225  41.726  13.424
 8266W        W76660  12.181  12.875   1.993
 8267W        W76661   4.861  42.193   0.781
 8268W        W76662  26.062  44.406  12.991
 8269W        W76663  16.650  16.386   5.057
 8270W        W76664  22.725   3.897  11.141
 8271W        W76665  16.093   0.346   2.474
 8272W        W76666  34.875  28.053   2.622
 8273W        W76667  13.183  17.863  11.696
 8274W        W76668  21.973  17.054  12.402
 8275W        W76669  17.145  32.378   4.264
 8276W        W76670   4.345   0.457  11.903
 8277W        W76671  12.129   3.310   1.961
 8278W        W76672   3.154  27.597   3.627
 8279W        W76673  29.693  26.294  12.324
 8280W        W76674  31.558  13.254  10.683
 8281W        W76675  36.372  16.339  11.120
 8282W        W76676   5.823  42.826  14.810
 8283W        W76677  32.096  32.621  11.950
 8284W        W76678  33.313  40.432   0.643
 8285W        W76679  19.543  44.966   0.765
 8286W        W76680  30.651  31.372   2.714
 8287W        W76681  33.351  44.453  11.557
 8288W        W76682  44.243  42.315   0.471
 8289W        W76683  11.828  33.890  12.093
 8290W        W76684  12.115   9.240   1.183
 8291W        W76685  11.575   9.222  14.740
 8292W        W76686  13.377  20.489  13.065
 8293W        W76687   0.437   8.771   0.020
 8294W        W76688   9.259   7.899  11.485
 8295W        W76689   7.575  19.131   4.183
 8296W        W76690  26.364  43.075   0.689
 8297W        W76691   9.169  19.391  14.987
 8298W        W76692  41.983  36.022   1.278
 8299W        W76693  33.453   8.274   2.093
 8300W        W76694   2.200  31.863  11.114
 8301W        W76695   1.999  44.884  13.379
 8302W        W76696  37.286  12.204  12.529
 8303W        W76697  31.624  16.245  11.982
 8304W        W76698  15.675  15.609   0.699
 8305W        W76699   9.367  10.566  13.375
 8306W        W76700   2.474  10.596  14.468
 8307W        W76701  23.129  33.582  13.001
 8308W        W76702  43.347   7.276   1.029
 8309W        W76703   2.294  31.854  14.433
 8310W        W76704  13.698  19.408   0.964
 8311W        W76705  16.320  40.774  11.453
 8312W        W76706  40.702  27.317   4.176
 8313W        W76707  18.625  10.567  10.660
 8314W        W76708  42.965   8.234   1.486
 8315W        W76709  12.081  15.281  14.731
 8316W        W76710   9.628  14.103  13.088
 8317W        W76711  23.805  11.093  13.864
 8318W        W76712  35.901  17.106   1.913
 8319W        W76713  30.464  40.551   3.317
 8320W        W76714  22.550   9.373  12.557
 8321W        W76715  39.005  18.973  11.607
 8322W        W76716   5.883  23.995   0.959
 8323W        W76717   5.630   4.996   2.291
 8324W        W76718   9.321  25.637   0.949
 8325W        W76719   0.326  31.644   3.145
 8326W        W76720  19.551  37.345   4.188
 8327W        W76721  40.743  42.116   1.423
 8328W        W76722   2.231  19.111   1.733
 8329W        W76723  32.864  28.918  13.887
 8330W        W76724  15.240  38.361  12.475
 8331W        W76725  13.750  25.480   0.445
 8332W        W76726  39.639  18.186   4.230
 8333W        W76727  43.020  18.742   4.787
 8334W        W76728  44.302  16.258   0.857
 8335W        W76729  44.951  37.607  11.080
 8336W        W76730  24.624  26.120   1.721
 8337W        W76731  35.363  11.857   3.660
 8338W        W76732   5.406   1.796   4.779
 8339W        W76733  43.455   0.336  14.437
 8340W        W76734   4.321  42.238   4.652
 8341W        W76735  16.279  36.586  14.118
 8342W        W76736  18.433  15.688   5.058
 8343W        W76737  12.146  28.116  14.882
 8344W        W76738  11.969   7.425   4.210
 8345W        W76739  20.792  35.955   2.750
 8346W        W76740  20.531  11.421  13.582
 8347W        W76741  38.878  21.003  12.077
 8348W        W76742  36.960  18.300  13.220
 8349W        W76743  31.474  12.354   2.568
 8350W        W76744  12.448  42.923   1.955
 8351W        W76745  30.556   2.106   5.106
 8352W        W76746   9.064   4.199   1.075
 8353W        W76747  12.812  19.185   2.902
 8354W        W76748  14.343  33.485  14.238
 8355W        W76749  18.770  10.454  12.021
 8356W        W76750  21.733  18.351  10.054
 8357W        W76751   8.162  27.151   3.321
 8358W        W76752  13.851  12.731   2.296
 8359W        W76753  34.580   1.997  11.212
 8360W        W76754  20.099  26.302   1.942
 8361W        W76755  19.195  29.723   1.793
 8362W        W76756  34.126  31.662   4.193
 8363W        W76757  20.015  33.963  10.486
 8364W        W76758  44.354  27.048  10.141
 8365W        W76759  30.544  23.799   0.751
 8366W        W76760  15.633  10.532  13.308
 8367W        W76761  18.800  23.216   2.424
 8368W        W76762  21.295   6.816  12.558
 8369W        W76763  27.574  35.372   4.220
 8370W        W76764  20.100  22.093   1.951
 8371W        W76765   6.469   1.805  10.739
 8372W        W76766  22.278  29.531   1.670
 8373W        W76767  24.229  25.114   2.419
 8374W        W76768   4.404   8.447   4.111
 8375W        W76769   7.416  43.776   1.689
 8376W        W76770  20.998   3.153  12.293
 8377W        W76771  33.181  37.983   0.414
 8378W        W76772  24.600  23.215   3.378
 8379W        W76773  19.870   8.426   1.233
 8380W        W76774   6.501  19.255  14.421
 8381W        W76775   6.362   2.665   2.100
 8382W        W76776   1.576  44.364   3.294
 8383W        W76777   0.703  40.827  10.547
 8384W        W76778  10.780  10.450   1.363
 8385W        W76779  32.743  16.974   0.519
 8386W        W76780   3.234   1.735  14.027
 8387W        W76781  41.758   1.121   2.339
 8388W        W76782  38.791  16.061   3.497
 8389W        W76783   0.345  28.194  10.805
 8390W        W76784  35.866  39.090  12.040
 8391W        W76785  15.324  18.488  11.365
 8392W        W76786   9.624  17.646  13.578
 8393W        W76787  28.249  31.408  13.392
 8394W        W76788  34.356  17.055   4.868
 8395W        W76789  17.300  12.163  11.132
 8396W        W76790  10.724  39.749   1.228
 8397W        W76791  38.001  32.838   1.177
 8398W        W76792  22.550  14.631  10.612
 8399W        W76793   5.668  19.192  13.813
 8400W        W76794  41.245  27.565  12.438
 8401W        W76795  35.686  33.970   1.965
 8402W        W76796  32.790  24.239  14.860
 8403W        W76797  19.680  21.095   0.689
 8404W        W76798  35.359  10.123   4.722
 8405W        W76799  10.147  38.323   3.755
 8406W        W76800   5.188  23.152  12.989
 8407W        W76801  15.848  35.234   0.310
 8408W        W76802  41.272   8.015   3.754
 8409W        W76803  38.701   2.797  11.003
 8410W        W76804   0.460  41.769   0.313
 8411W        W76805   2.024  12.237  14.391
 8412W        W76806  34.057  11.603  13.158
 8413W        W76807   9.589  11.605  10.558
 8414W        W76808  38.878  24.173  11.307
 8415W        W76809  43.759  11.683   2.247
 8416W        W76810  31.922  25.618   4.455
 8417W        W76811  15.757  44.364   4.212
 8418W        W76812  14.772   3.161  11.049
 8419W        W76813  28.445   6.413  14.727
 8420W        W76814  25.103  23.005  13.430
 8421W        W76815   9.674  27.024  13.378
 8422W        W76816  41.117   4.534  14.091
 8423W        W76817   7.703  36.628   1.853
 8424W        W76818  27.410   2.328   0.863
 8425W        W76819   0.230  16.815   0.532
 8426W        W76820   7.244  40.613  12.645
 8427W        W76821  25.073  36.866   3.941
 8428W        W76822  43.285  28.085   1.642
 8429W        W76823  38.811  13.260   3.350
 8430W        W76824  14.336   8.746   3.706
 8431W        W76825  16.326  18.590   1.365
 8432W        W76826  37.050  42.346   2.071
 8433W        W76827  32.065  14.990   3.684
 8434W        W76828  30.408   8.996   4.279
 8435W        W76829  41.039  29.928   4.382
 8436W        W76830  23.184  24.255   4.056
 8437W        W76831  33.854   0.969  12.984
 8438W        W76832  44.907  30.170  12.091
 8439W        W76833   4.631   3.498  13.980
 8440W        W76834  35.171  35.958  14.240
 8441W        W76835  17.585   9.231   2.594
 8442W        W76836  44.488  37.813   2.749
 8443W        W76837  28.174  17.133  11.861
 8444W        W76838   6.364  29.956   1.269
 8445W        W76839   6.282   2.567   4.080
 8446W        W76840  16.706   1.639  11.048
 8447W        W76841   6.274  40.032   4.335
 8448W        W76842  36.896   4.256   2.374
 8449W        W76843  25.710  16.377   4.906
 8450W        W76844   5.427  17.217   3.718
 8451W        W76845  11.572  26.122   0.547
 8452W        W76846   7.427  42.520   0.990
 8453W        W76847  36.315  26.768  14.461
 8454W        W76848  20.376   5.679   1.745
 8455W        W76849   8.705   5.321   2.930
 8456W        W76850   5.425  31.388  14.376
 8457W        W76851  23.671  32.136   4.133
 8458W        W76852  26.498  25.133   2.424
 8459W        W76853  31.911  41.334  13.808
 8460W        W76854  34.098  11.994  13.981
 8461W        W76855  25.954  26.143  11.171
 8462W        W76856   8.692  24.458   2.586
 8463W        W76857  41.632   7.374  14.389
 8464W        W76858   8.270   9.315   4.559
 8465W        W76859   6.912  35.044   2.392
 8466W        W76860   1.980  17.832  12.963
 8467W        W76861  15.625  18.328   4.748
 8468W        W76862   3.713  23.037   3.788
 8469W        W76863  13.516  26.502   4.892
 8470W        W76864   1.763  20.520   2.701
 8471W        W76865  39.044  26.752  13.960
 8472W        W76866  11.494  24.496  13.950
 8473W        W76867  32.005   9.184  11.094
 8474W        W76868   1.921  28.780  14.446
 8475W        W76869  25.672   9.929   3.682
 8476W        W76870  24.145  18.158  10.668
 8477W        W76871  42.011  24.696  13.302
 8478W        W76872  33.856   7.588  10.840
 8479W        W76873  42.966  11.052  13.061
 8480W        W76874  34.333  14.406   2.428
 8481W        W76875   0.377  27.989  11.807
 8482W        W76876   8.645  24.556  11.245
 8483W        W76877  23.235  27.154   3.500
 8484W        W76878  44.398  14.264   0.238
 8485W        W76879  15.372  12.160   0.518
 8486W        W76880  36.411  22.544  13.072
 8487W        W76881  12.166  33.918  12.487
 8488W        W76882  18.378   8.915  10.477
 8489W        W76883   1.314  14.693  13.525
 8490W        W76884   9.692  26.611   2.879
 8491W        W76885   2.238  23.175   0.751
 8492W        W76886  42.275  42.307   2.824
 8493W        W76887  15.107  21.719   3.082
 8494W        W76888  12.333  41.014  12.321
 8495W        W76889   7.923   0.415  12.162
 8496W        W76890   5.076  17.527  12.479
 8497W        W76891  17.608  38.865  12.349
 8498W        W76892   6.712  21.506  14.044
 8499W        W76893  22.133  25.963  13.088
 8500W        W76894   9.894  33.203   3.173
 8501W        W76895  11.669  31.224  10.811
 8502W        W76896   1.585   8.412   2.364
 8503W        W76897   0.956  38.739  10.669
 8504W        W76898  30.542  44.898  12.092
 8505W        W76899  28.585  22.086   1.828
 8506W        W76900  29.146  20.030  12.977
 8507W        W76901   1.207   4.245  10.733
 8508W        W76902  44.339  43.570  14.352
 8509W        W76903  31.041  21.606  13.416
 8510W        W76904  22.217  27.654  10.245
 8511W        W76905   7.126   6.165   1.224
 8512W        W76906  35.973  35.776  10.561
 8513W        W76907  24.221  18.511   1.836
 8514W        W76908   2.457   2.557   3.058
 8515W        W76909  42.765  33.421   5.070
 8516W        W76910  11.278   1.161  10.641
 8517W        W76911  23.180  36.171  14.039
 8518W        W76912  40.153  42.331   2.327
 8519W        W76913  41.867  20.468   2.946
 8520W        W76914  11.433  32.641  13.302
 8521W        W76915  43.675  31.924   1.338
 8522W        W76916  40.647   0.823  13.804
 8523W        W76917  42.846  39.931   2.678
 8524W        W76918   1.415   8.677  12.928
 8525W        W76919   0.721   9.229  14.753
 8526W        W76920  40.914  22.636   1.844
 8527W        W76921  41.550  34.179   2.703
 8528W        W76922  15.875  32.625   3.714
 8529W        W76923  42.396   6.620  13.123
 8530W        W76924  43.829   4.160   4.348
 8531W        W76925   4.792  32.093  14.009
 8532W        W76926  21.560  40.810   2.160
 8533W        W76927  32.562  42.421   1.532
 8534W        W76928  33.104   9.615   2.443
 8535W        W76929  14.823  32.629  12.492
 8536W        W76930  29.714  16.591   0.775
 8537W        W76931  25.267   8.130   3.009
 8538W        W76932  35.729  20.773   3.819
 8539W        W76933  16.128  38.530   1.239
 8540W        W76934  33.873  42.443  12.486
 8541W        W76935  44.746  10.139  10.210
 8542W        W76936  19.101  39.188   1.605
 8543W        W76937  17.214  29.995  11.946
 8544W        W76938  18.289   3.652   1.927
 8545W        W76939  44.828   8.269  13.035
 8546W        W76940  41.840  17.612   2.312
 8547W        W76941  32.906  17.589  13.522
 8548W        W76942  14.741  25.030   3.973
 8549W        W76943  35.468   5.933   4.777
 8550W        W76944  36.435  39.082   1.218
 8551W        W76945  31.679   9.926   2.882
 8552W        W76946  19.819  44.270   1.797
 8553W        W76947  30.101  36.491   0.642
 8554W        W76948  21.049  14.515   3.209
 8555W        W76949   7.466  43.935  13.368
 8556W        W76950  10.841   3.777   2.846
 8557W        W76951   3.320   3.865   5.120
 8558W        W76952  41.222  12.433  10.789
 8559W        W76953  10.405  31.869  13.105
 8560W        W76954   8.350  19.626  12.035
 8561W        W76955  22.380  27.006   3.847
 8562W        W76956   5.754   6.441  12.126
 8563W        W76957  31.883  38.887   4.662
 8564W        W76958  38.284  29.162  14.099
 8565W        W76959  43.316  44.918  12.145
 8566W        W76960  35.014  19.131  10.710
 8567W        W76961  25.668   2.025   0.896
 8568W        W76962   0.033  32.723  12.264
 8569W        W76963  14.662  18.764  14.003
 8570W        W76964  43.880  11.853  13.913
 8571W        W76965  41.737  28.182   1.226
 8572W        W76966  23.966  43.381   3.364
 8573W        W76967  26.473  18.575   2.292
 8574W        W76968  10.289  20.914  13.946
 8575W        W76969  14.611   9.385   1.693
 8576W        W76970  38.743  13.174   0.398
 8577W        W76971  14.536   9.753   2.057
 8578W        W76972   4.586   2.258   3.662
 8579W        W76973  25.389  40.944   3.691
 8580W        W76974  28.599  32.012   3.372
 8581W        W76975  28.642  17.672  10.660
 8582W        W76976  31.051  44.735   2.251
 8583W        W76977  41.032   7.170   3.620
 8584W        W76978  16.050  10.269  12.031
 8585W        W76979   4.858  17.990  12.523
 8586W        W76980  16.797  15.818   0.250
 8587W        W76981  36.154   5.675  12.020
 8588W        W76982   4.638  14.624   2.547
 8589W        W76983  37.454  26.892  12.111
 8590W        W76984  39.016  43.222   2.090
 8591W        W76985  36.014   3.928   3.844
 8592W        W76986  10.132  43.229   3.754
 8593W        W76987  17.153   6.550   2.734
 8594W        W76988  33.519  38.518   2.268
 8595W        W76989  30.649   7.888  11.628
 8596W        W76990  33.074  27.598   3.710
 8597W        W76991  23.565  37.949  14.510
 8598W        W76992  16.340  42.243  11.690
 8599W        W76993  23.187  26.390   0.905
 8600W        W76994  37.303  24.643   0.378
 8601W        W76995  24.595  35.044  13.833
 8602W        W76996   1.887  15.072   0.815
 8603W        W76997  35.990  35.368  10.875
 8604W        W76998  39.313  23.757   1.829
 8605W        W76999  12.780  20.950  14.331
 8606W        W77000  22.979  39.762  13.819
 8607W        W77001  29.076  23.220   1.605
 8608W        W77002   0.172   2.332  12.858
 8609W        W77003   3.733  33.682   1.411
 8610W        W77004  27.501   4.624   1.326
 8611W        W77005  44.707  14.894  14.245
 8612W        W77006  40.061  44.501   2.210
 8613W        W77007  36.220  43.927  13.265
 8614W        W77008   7.715  41.972  14.167
 8615W        W77009  44.810  23.953  14.327
 8616W        W77010  13.912  34.577  13.989
 8617W        W77011  44.415  13.169  13.375
 8618W        W77012  18.465  34.916  14.026
 8619W        W77013   4.930  38.493  11.691
 8620W        W77014   6.963  12.574   3.550
 8621W        W77015  16.824  42.108  11.862
 8622W        W77016  30.780  25.406   1.256
 8623W        W77017   7.788  31.143  11.482
 8624W        W77018  26.475  11.747   3.949
 8625W        W77019  31.198  41.529   4.738
 8626W        W77020  13.281  29.173  12.317
 8627W        W77021  43.479  31.005  11.646
 8628W        W77022  23.046   4.177   3.982
 8629W        W77023  11.220  39.227  13.900
 8630W        W77024  40.713   0.710   5.145
 8631W        W77025   9.025   2.701  10.195
 8632W        W77026   1.635   5.777   1.817
 8633W        W77027  19.008  35.602  12.333
 8634W        W77028  11.164  40.294   1.421
 8635W        W77029  22.604  40.253  11.640
 8636W        W77030  32.447  19.150  12.057
 8637W        W77031  18.149  22.433  11.044
 8638W        W77032  28.212  28.754  12.914
 8639W        W77033  11.799  34.496   4.352
 8640W        W77034  31.671  26.952   4.369
 8641W        W77035  22.334  11.756  11.577
 8642W        W77036  44.933  43.920  13.039
 8643W        W77037   7.428  25.025  13.895
 8644W        W77038  28.171   9.187   1.364
 8645W        W77039  22.747  10.413   1.790
 8646W        W77040  22.259   6.751  10.715
 8647W        W77041  11.709  37.007  13.459
 8648W        W77042  17.099  10.599  14.904
 8649W        W77043  37.843  16.216  13.294
 8650W        W77044   4.640  20.177   1.543
 8651W        W77045  41.025  21.167   4.132
 8652W        W77046  30.143  36.283  12.993
 8653W        W77047  19.200   3.688  10.173
 8654W        W77048  43.931  23.213  13.883
 8655W        W77049  25.224  22.433   3.594
 8656W        W77050  28.392   2.420   3.709
 8657W        W77051   2.516   2.936   3.415
 8658W        W77052  29.968  24.567  10.982
 8659W        W77053  13.018   8.519  14.136
 8660W        W77054   0.102  25.062  14.924
 8661W        W77055  33.115   0.437   1.882
 8662W        W77056  10.084  34.042  14.088
 8663W        W77057   8.573  19.173  11.879
 8664W        W77058  24.494  13.550   0.715
 8665W        W77059  15.221  21.407   1.210
 8666W        W77060  26.885  39.924  13.544
 8667W        W77061   2.411  18.763   2.734
 8668W        W77062   3.269   8.230  11.534
 8669W        W77063   2.290  26.556   1.188
 8670W        W77064   7.943  41.587   3.230
 8671W        W77065  33.535   9.388   2.669
 8672W        W77066  13.912  43.688  13.639
 8673W        W77067   8.698  26.452   2.761
 8674W        W77068  21.052  37.346  12.121
 8675W        W77069  22.404   9.201   2.373
 8676W        W77070  44.915  14.685   1.774
 8677W        W77071  11.400  43.196  13.487
 8678W        W77072  12.394  38.820   0.855
 8679W        W77073  35.420  30.047  14.855
 8680W        W77074  33.010  14.752   0.582
 8681W        W77075  27.024  30.664   1.736
 8682W        W77076  16.637  12.176   4.675
 8683W        W77077  13.541  30.417   4.166
 8684W        W77078  23.840  38.392  11.263
 8685W        W77079   4.492  14.126   4.703
 8686W        W77080   8.450  39.849  11.499
 8687W        W77081  17.424   5.192   2.758
 8688W        W77082   4.875  33.195  11.548
 8689W        W77083  24.609  22.015  14.581
 8690W        W77084  44.242   0.909   3.633
 8691W        W77085  13.817  19.185  13.978
 8692W        W77086  19.190   7.613   2.737
 8693W        W77087  22.002  40.306   1.318
 8694W        W77088  37.488  20.316   1.855
 8695W        W77089  44.404  36.667   4.700
 8696W        W77090  43.995  36.370  12.923
 8697W        W77091  19.718  19.542  14.266
 8698W        W77092  28.460  43.684   1.404
 8699W        W77093   6.847  30.174  14.294
 8700W        W77094   8.645  33.168  11.763
 8701W        W77095  17.237  20.735  10.614
 8702W        W77096  20.445  15.754  14.273
 8703W        W77097  12.907  27.410   0.983
 8704W        W77098   2.246  44.135   1.024
 8705W        W77099  16.061  31.180  13.931
 8706W        W77100  11.248   5.456  13.141
 8707W        W77101  33.995  19.026   1.968
 8708W        W77102  34.527  14.104   1.457
 8709W        W77103  32.389  12.786  10.298
 8710W        W77104  10.199   9.391   1.876
 8711W        W77105  15.786  34.144   3.233
 8712W        W77106  18.939  24.951  12.228
 8713W        W77107  36.874   9.199  13.040
 8714W        W77108   7.910  34.100  11.588
 8715W        W77109  27.261  13.011  12.427
 8716W        W77110  36.968  23.459   3.845
 8717W        W77111  11.024  19.649  10.894
 8718W        W77112  20.756  35.808  11.189
 8719W        W77113  42.729  37.420   0.454
 8720W        W77114  40.752  21.757  14.536
 8721W        W77115   5.693  37.027   4.133
 8722W        W77116  32.385  34.149  13.548
 8723W        W77117   3.005  22.459  11.794
 8724W        W77118   9.349  44.805  14.464
 8725W        W77119  42.024  41.021   2.864
 8726W        W77120  28.680   6.740   0.580
 8727W        W77121  34.922   0.301  12.372
 8728W        W77122  41.869   7.220   1.513
 8729W        W77123   9.581   0.986  11.662
 8730W        W77124  37.868  18.083   0.403
 8731W        W77125  33.665  21.970   2.171
 8732W        W77126  11.699  37.118  11.333
 8733W        W77127  42.618   9.743  13.363
 8734W        W77128   2.907  21.624  13.016
 8735W        W77129   4.479   6.548  14.559
 8736W        W77130  39.335  21.681  12.079
 8737W        W77131   6.274  14.108   2.572
 8738W        W77132   1.376  14.196  13.388
 8739W        W77133  33.116  23.605  13.614
 8740W        W77134   2.547  40.814  11.343
 8741W        W77135  32.726   5.716  10.953
 8742W        W77136  14.419   5.682   1.401
 8743W        W77137   8.711  34.268  12.984
 8744W        W77138  29.532  31.076   3.103
 8745W        W77139   0.518   4.362   1.372
 8746W        W77140   0.785   9.659   4.362
 8747W        W77141   3.999  39.600  11.852
 8748W        W77142  44.931  18.169  14.685
 8749W        W77143  16.536  10.071   2.122
 8750W        W77144  41.378  25.884  11.000
 8751W        W77145  20.140  19.470   1.318
 8752W        W77146  28.300  32.574   1.456
 8753W        W77147  28.884  33.460  14.490
 8754W        W77148  41.816  40.937   4.718
 8755W        W77149  10.518  15.639  14.982
 8756W        W77150  35.378  26.551  10.448
 8757W        W77151  10.811  38.436  10.641
 8758W        W77152  28.581   0.416  13.962
 8759W        W77153   3.338  18.041   2.341
 8760W        W77154  30.591  11.456   4.315
 8761W        W77155  12.397  35.624   0.847
 8762W        W77156  25.552  23.231   4.612
 8763W        W77157  34.926  37.098   0.363
 8764W        W77158  23.438  38.052  11.155
 8765W        W77159  16.557  41.487   0.292
 8766W        W77160   5.904   3.618  14.495
 8767W        W77161  43.014  20.997  10.728
 8768W        W77162  18.559  42.554  13.218
 8769W        W77163  13.981  30.161  14.281
 8770W        W77164  13.752  40.422  14.870
 8771W        W77165  22.509   9.144  13.013
 8772W        W77166  13.665   6.700  13.873
 8773W        W77167  31.680  43.464   0.373
 8774W        W77168  37.639   3.490  11.603
 8775W        W77169  16.022  14.389  12.787
 8776W        W77170  36.995  19.591  13.989
 8777W        W77171   0.423  16.729   0.063
 8778W        W77172  42.439   0.028  13.405
 8779W        W77173   1.331  24.412   0.899
 8780W        W77174  19.506  28.689  12.035
 8781W        W77175  30.129  30.260   4.890
 8782W        W77176  27.576  23.828   2.265
 8783W        W77177  19.737  32.526  14.937
 8784W        W77178   8.244   6.065   1.730
 8785W        W77179   8.154  37.811  13.823
 8786W        W77180  16.757  34.857  14.256
 8787W        W77181  13.238  14.283  12.459
 8788W        W77182  20.553  25.779  12.023
 8789W        W77183  10.310  33.171   1.841
 8790W        W77184  21.210  17.148   4.132
 8791W        W77185  35.446  26.421  13.882
 8792W        W77186   5.461   3.417  12.135
 8793W        W77187  24.456  31.272  11.142
 8794W        W77188   2.407   2.191  14.096
 8795W        W77189  37.839  31.111  10.741
 8796W        W77190  14.141  25.542   2.139
 8797W        W77191   2.260  34.028  12.620
 8798W        W77192   2.429  43.036  11.416
 8799W        W77193  43.338  24.109  10.743
 8800W        W77194  43.585  20.599  11.384
 8801W        W77195  28.637  10.814   4.135
 8802W        W77196  43.996  11.282   3.243
 8803W        W77197  20.659   7.898  10.625
 8804W        W77198   4.122  10.112   3.574
 8805W        W77199  38.819  16.625  12.915
 8806W        W77200  37.078   3.798  14.540
 8807W        W77201  30.810   6.353   3.185
 8808W        W77202  12.142  39.872   0.276
 8809W        W77203   6.622  27.924  13.405
 8810W        W77204  23.645  17.124   1.915
 8811W        W77205  10.578  24.450  10.711
 8812W        W77206   9.146  40.593   1.763
 8813W        W77207  10.233  22.055   4.609
 8814W        W77208   6.945  17.091   3.290
 8815W        W77209  19.680  31.043   2.827
 8816W        W77210  31.703  37.193  14.371
 8817W        W77211  19.559  31.160   4.155
 8818W        W77212  18.852  18.596  13.900
 8819W        W77213  40.282  10.190   2.130
 8820W        W77214  26.795  21.717   2.035
 8821W        W77215  17.299  40.018   9.870
 8822W        W77216   0.378  10.606  14.912
 8823W        W77217  24.085   5.438  12.886
 8824W        W77218   4.238  21.754   3.230
 8825W        W77219  22.107  21.224   4.143
 8826W        W77220  23.932  12.259  11.312
 8827W        W77221   1.042  44.182  14.195
 8828W        W77222   3.849  26.254   3.217
 8829W        W77223  22.710  18.950   3.684
 8830W        W77224  18.673  13.292   2.193
 8831W        W77225  10.309  42.981   0.860
 8832W        W77226  15.672  24.736  13.348
 8833W        W77227   3.933   5.211   9.827
 8834W        W77228  42.306  11.641  11.653
 8835W        W77229   0.004  11.560  11.208
 8836W        W77230  26.312   9.477   4.588
 8837W        W77231  21.017  19.353   3.653
 8838W        W77232   6.303  20.748  14.053
 8839W        W77233  44.104  25.635   4.097
 8840W        W77234   7.373  40.809   1.407
 8841W        W77235  20.976   0.461   3.231
 8842W        W77236  21.799  43.246   0.486
 8843W        W77237   1.434  37.411   0.481
 8844W        W77238  41.788   0.291  11.592
 8845W        W77239  43.314  24.146   3.035
 8846W        W77240   2.298  28.980  12.713
 8847W        W77241   0.397  42.545  11.548
 8848W        W77242  40.073  23.934   2.729
 8849W        W77243  29.648  38.777   3.745
 8850W        W77244  43.504   6.772   0.799
 8851W        W77245  23.716  27.703  13.498
 8852W        W77246  29.153  30.942   1.814
 8853W        W77247  44.486   4.229   0.471
 8854W        W77248  36.299   0.193  14.019
 8855W        W77249  18.689  42.721  11.909
 8856W        W77250  18.304   2.280   3.395
 8857W        W77251  13.802  20.571  11.453
 8858W        W77252  20.514  22.187   2.663
 8859W        W77253  32.672  33.425  12.412
 8860W        W77254  28.324  41.495  11.088
 8861W        W77255  25.254  14.041   0.318
 8862W        W77256  11.793  20.313   1.513
 8863W        W77257  18.152  13.850  13.435
 8864W        W77258  19.543   8.303   3.220
 8865W        W77259  30.851  18.678   2.631
 8866W        W77260  11.822   3.110  14.773
 8867W        W77261  27.643  19.273   2.207
 8868W        W77262  28.177  44.617   0.723
 8869W        W77263   2.701  17.520   2.635
 8870W        W77264  42.445   4.836  13.120
 8871W        W77265  12.600  19.153   1.979
 8872W        W77266  15.795  35.549  14.883
 8873W        W77267  13.227   5.469   0.331
 8874W        W77268  40.856  13.767   1.767
 8875W        W77269   7.208  33.945  13.581
 8876W        W77270  41.744  35.848  13.496
 8877W        W77271   2.242  43.493  13.785
 8878W        W77272  33.932  26.556  14.536
 8879W        W77273   6.985  28.519  14.281
 8880W        W77274  11.276  38.019   3.216
 8881W        W77275   7.380  39.909   0.944
 8882W        W77276  29.355  30.650  14.897
 8883W        W77277  39.577  24.522  12.567
 8884W        W77278  16.302   8.020  13.932
 8885W        W77279  34.870   4.286   0.730
 8886W        W77280  13.128   4.343  11.638
 8887W        W77281  43.323  22.770  10.851
 8888W        W77282  32.902  22.299   3.778
 8889W        W77283  37.914  42.725   2.895
 8890W        W77284  44.477  36.554   1.401
 8891W        W77285   6.641  33.095   2.430
 8892W        W77286  31.360  22.200  11.134
 8893W        W77287  10.325  43.769   1.290
 8894W        W77288  38.564  29.907  14.779
 8895W        W77289  25.471   8.759  13.826
 8896W        W77290   5.961  42.708  11.218
 8897W        W77291   4.325   4.863   9.977
 8898W        W77292   2.957  22.202  10.423
 8899W        W77293  43.089  34.123  13.854
 8900W        W77294  29.670  10.245  13.044
 8901W        W77295  37.519  41.805  13.309
 8902W        W77296  19.653  16.142   4.540
 8903W        W77297   6.733  11.833  12.669
 8904W        W77298   8.273  17.525  13.325
 8905W        W77299   7.578  15.584  14.576
 8906W        W77300  44.806  32.437  13.294
 8907W        W77301  18.924  42.649   0.355
 8908W        W77302  26.686  23.501  11.428
 8909W        W77303   1.024  23.915  11.656
 8910W        W77304  15.653  36.350  11.422
 8911W        W77305   7.464  42.045   0.790
 8912W        W77306  12.027   5.383  12.287
 8913W        W77307  28.607  35.247   2.499
 8914W        W77308   4.729   6.281   1.401
 8915W        W77309  33.552  34.906   2.406
 8916W        W77310  31.526  39.063   2.800
 8917W        W77311  32.296  24.628  11.736
 8918W        W77312  24.517  30.497   3.637
 8919W        W77313   6.565   4.027  14.964
 8920W        W77314  44.056   3.446  13.157
 8921W        W77315  12.610   6.652  10.074
 8922W        W77316  27.152   7.721  13.759
 8923W        W77317  20.115  43.873  14.986
 8924W        W77318  13.175   0.218  13.696
 8925W        W77319   6.812  14.818   3.711
 8926W        W77320   1.700  15.898  11.093
 8927W        W77321  33.583  39.806   3.735
 8928W        W77322  28.398  14.593  13.578
 8929W        W77323  20.140  12.198  13.189
 8930W        W77324   6.627  42.028   1.482
 8931W        W77325  43.596  30.591   0.538
 8932W        W77326  22.202  42.580   2.684
 8933W        W77327  39.639  12.175  13.867
 8934W        W77328  41.941   0.762   5.048
 8935W        W77329  30.799  22.722  11.643
 8936W        W77330  38.530  14.994   0.605
 8937W        W77331   8.015  30.107  12.046
 8938W        W77332  30.125  36.424  13.874
 8939W        W77333   4.000  32.852  12.585
 8940W        W77334  38.744  28.050  14.287
 8941W        W77335  27.178  16.192  10.803
 8942W        W77336  25.668   0.380   2.830
 8943W        W77337   9.914  28.914  13.338
 8944W        W77338   9.762   4.260  10.711
 8945W        W77339   1.284  14.460   4.549
 8946W        W77340   8.272  33.891   5.091
 8947W        W77341   3.316  32.489  11.719
 8948W        W77342  20.722  17.773  13.784
 8949W        W77343  20.298  35.833   2.663
 8950W        W77344  24.898   7.456  12.892
 8951W        W77345  14.120  35.001   0.808
 8952W        W77346   0.541   4.946   0.625
 8953W        W77347  26.166  31.531   2.725
 8954W        W77348  22.029  21.467   1.310
 8955W        W77349  38.440  28.900  12.689
 8956W        W77350  42.974  24.992  12.988
 8957W        W77351  37.636  32.048  14.439
 8958W        W77352  35.432  10.130  14.298
 8959W        W77353   0.199  32.901  14.851
 8960W        W77354  16.660  28.034  14.270
 8961W        W77355  28.991  25.265  12.927
 8962W        W77356  38.387  32.313   4.226
 8963W        W77357  20.094  27.701   0.310
 8964W        W77358   3.330  43.981  13.588
 8965W        W77359  23.601  33.882  10.409
 8966W        W77360   3.664  33.484   4.627
 8967W        W77361  44.398  16.765   3.863
 8968W        W77362  35.950  29.678   4.779
 8969W        W77363  41.317  30.939   3.817
 8970W        W77364  43.784  24.725  14.903
 8971W        W77365  37.055  31.878   0.929
 8972W        W77366  31.538  13.534   2.749
 8973W        W77367   2.482  43.328   3.286
 8974W        W77368   2.349  42.018  11.526
 8975W        W77369  43.336  20.262  13.491
 8976W        W77370  38.063   7.156  11.952
 8977W        W77371  41.411  20.209  11.757
 8978W        W77372  41.797   1.753  10.748
 8979W        W77373  15.855  24.006  11.642
 8980W        W77374  23.646  20.152  11.983
 8981W        W77375  22.491   0.927   3.905
 8982W        W77376  36.906  29.872  10.657
 8983W        W77377  37.265   8.213  10.772
 8984W        W77378  16.835   0.024   4.083
 8985W        W77379  30.706  24.096  13.463
 8986W        W77380  44.933  15.256  14.733
 8987W        W77381  16.211  11.131   0.321
 8988W        W77382  10.176  24.545   2.512
 8989W        W77383  15.197   4.892   1.656
 8990W        W77384  16.030   7.798   2.038
 8991W        W77385  34.574  11.566  13.462
 8992W        W77386  36.891   9.851  10.727
 8993W        W77387  28.440  32.169   4.207
 8994W        W77388  44.220   9.200   3.690
 8995W        W77389  35.452  41.843  11.999
 8996W        W77390  37.918  39.387  14.803
 8997W        W77391   7.446  14.024   1.806
 8998W        W77392  21.121  14.164  13.929
 8999W        W77393  21.050   3.432  11.049
 9000W        W77394  44.221  41.693   1.220
 9001W        W77395  38.569  29.569   4.722
 9002W        W77396  17.911  19.698   0.806
 9003W        W77397  36.123   2.461   1.907
 9004W        W77398  32.232  35.452  13.475
 9005W        W77399  39.994  42.074   1.389
 9006W        W77400  26.433   5.866  12.455
 9007W        W77401  44.729   8.774  12.975
 9008W        W77402  17.224  35.285   2.182
 9009W        W77403  27.946   1.754   0.588
 9010W        W77404  41.894  14.687  10.892
 9011W        W77405  20.088  28.919   4.660
 9012W        W77406  11.464  26.974  11.605
 9013W        W77407  31.078  38.031   2.194
 9014W        W77408  44.708  38.021   3.390
 9015W        W77409   1.047  40.823   4.321
 9016W        W77410  14.605  19.627  13.450
 9017W        W77411  15.535  41.257   2.712
 9018W        W77412  23.591  31.489   3.700
 9019W        W77413  44.774  23.011   4.751
 9020W        W77414  15.968   7.793  12.517
 9021W        W77415  41.535   6.337  12.973
 9022W        W77416  14.576  16.751   3.350
 9023W        W77417  36.839  38.313   3.247
 9024W        W77418  38.528   3.675   2.340
 9025W        W77419  26.880  21.665   1.523
 9026W        W77420  22.178   9.773   0.203
 9027W        W77421  36.476  17.058  12.361
 9028W        W77422  14.176  16.650   4.045
 9029W        W77423  30.023  22.748   1.364
 9030W        W77424  36.861  32.011  13.561
 9031W        W77425  13.206  19.753   2.296
 9032W        W77426   6.322   6.661  10.973
 9033W        W77427  14.202  16.844  14.361
 9034W        W77428  17.199  20.245  14.479
 9035W        W77429   8.770  35.066   2.392
 9036W        W77430  24.862  41.481  12.528
 9037W        W77431  11.899  27.888   2.725
 9038W        W77432   1.935  42.204  13.932
 9039W        W77433  29.582  24.766   0.778
 9040W        W77434  31.861  29.567   2.664
 9041W        W77435  25.151  44.908  11.142
 9042W        W77436  34.810  13.627   1.358
 9043W        W77437  28.228  36.723   4.146
 9044W        W77438  30.492  30.851  13.574
 9045W        W77439  11.872  13.521   2.808
 9046W        W77440  22.691  16.101   4.341
 9047W        W77441  22.283   3.440  11.531
 9048W        W77442  24.194  25.931  14.387
 9049W        W77443  10.496  31.751   5.031
 9050W        W77444  35.556  17.588   2.703
 9051W        W77445  40.074   4.214  12.129
 9052W        W77446  15.273  18.781  12.336
 9053W        W77447  39.913  22.690  12.436
 9054W        W77448  42.506  34.062   2.797
 9055W        W77449  24.117  18.380  13.314
 9056W        W77450  34.339  14.957   3.170
 9057W        W77451  32.878  36.981  12.071
 9058W        W77452  40.469  20.038  14.355
 9059W        W77453  33.720   3.445  10.215
 9060W        W77454   2.213  28.399   0.458
 9061W        W77455  30.152  25.600   1.903
 9062W        W77456   1.256  13.303   3.729
 9063W        W77457  23.674  10.543  12.001
 9064W        W77458  40.667   5.344  12.956
 9065W        W77459  20.203  42.536   0.819
 9066W        W77460  39.795  10.066  11.169
 9067W        W77461   7.858  35.575  11.345
 9068W        W77462  30.558  39.584  12.489
 9069W        W77463   1.797   3.662  14.529
 9070W        W77464   2.005   0.508  14.384
 9071W        W77465  40.525   5.311  13.819
 9072W        W77466  11.596  10.653   0.495
 9073W        W77467   0.597  22.144  12.852
 9074W        W77468  26.000  14.992   4.094
 9075W        W77469  37.195  36.599   4.165
 9076W        W77470  41.028   3.230   4.144
 9077W        W77471   4.658  43.910   2.145
 9078W        W77472  40.045  29.849   4.392
 9079W        W77473  16.304  15.908   1.307
 9080W        W77474  36.367  29.575   1.712
 9081W        W77475  39.238  14.265   2.166
 9082W        W77476   5.962  44.647   4.769
 9083W        W77477  21.619   6.147   0.904
 9084W        W77478  13.316   9.361   4.144
 9085W        W77479  11.098  43.881  14.968
 9086W        W77480  27.899  34.006  12.920
 9087W        W77481  43.414  35.196   0.467
 9088W        W77482  40.277  19.062  14.441
 9089W        W77483   4.860  10.221  13.032
 9090W        W77484  26.734   4.784   2.400
 9091W        W77485  30.424  14.779  14.729
 9092W        W77486  43.340  11.830   1.886
 9093W        W77487   3.776  30.577   0.749
 9094W        W77488  39.501   1.829  10.692
 9095W        W77489  16.532   2.952   3.208
 9096W        W77490  21.801  24.997   1.351
 9097W        W77491  41.944  22.267  11.696
 9098W        W77492  15.142   2.328  12.201
 9099W        W77493  29.112  38.387   1.942
 9100W        W77494  12.455  13.134  10.954
 9101W        W77495  13.803  25.566  13.585
 9102W        W77496  33.503  11.250   2.708
 9103W        W77497  36.645  18.504  13.909
 9104W        W77498  19.642  34.087   3.060
 9105W        W77499   7.414   8.287   1.700
 9106W        W77500  41.546   5.751  10.844
 9107W        W77501  30.914  32.972   4.218
 9108W        W77502  36.095  30.058   0.925
 9109W        W77503   4.419  17.731  13.421
 9110W        W77504  40.951  20.515   1.871
 9111W        W77505  19.777  20.742   1.510
 9112W        W77506  22.375  27.497   3.987
 9113W        W77507   6.955  24.775  13.854
 9114W        W77508  38.479  41.794  11.742
 9115W        W77509   0.490  17.149   1.374
 9116W        W77510  26.943  25.458  14.924
 9117W        W77511   2.322  42.854  14.431
 9118W        W77512  20.869  29.672   5.639
 9119W        W77513   2.377  13.023   2.827
 9120W        W77514  32.983  41.837  13.925
 9121W        W77515  35.845  29.446   2.601
 9122W        W77516  22.328   7.843  12.352
 9123W        W77517  16.375   9.074   0.782
 9124W        W77518  30.895  14.239  11.311
 9125W        W77519  25.123  39.051  12.093
 9126W        W77520   9.808  18.593   2.192
 9127W        W77521  12.866  20.563   0.387
 9128W        W77522   1.091  31.577   4.168
 9129W        W77523   0.561  32.315   3.515
 9130W        W77524   4.882   4.831   1.835
 9131W        W77525  40.966   6.936  11.097
 9132W        W77526  34.323  34.542  12.263
 9133W        W77527  44.521  11.687   1.433
 9134W        W77528   4.276  10.593   1.767
 9135W        W77529   1.181   1.366   2.751
 9136W        W77530  11.108   4.151   2.574
 9137W        W77531  35.102  31.312   3.202
 9138W        W77532   3.883  33.864  10.249
 9139W        W77533  24.649  23.908   3.861
 9140W        W77534  13.919  38.013   0.881
 9141W        W77535   1.888  37.002   2.196
 9142W        W77536  30.208  13.719   2.975
 9143W        W77537  10.781  21.009  10.339
 9144W        W77538  23.104  41.173   0.293
 9145W        W77539  23.346  31.461   4.157
 9146W        W77540  28.965  38.610   4.110
 9147W        W77541  20.229   3.316  10.599
 9148W        W77542  12.436  18.174   0.448
 9149W        W77543   8.207  11.788   4.146
 9150W        W77544   6.805   7.818  12.366
 9151W        W77545   7.177  12.680   2.383
 9152W        W77546  10.926  39.297   1.401
 9153W        W77547  40.110  22.181   1.422
 9154W        W77548  33.399  12.237   2.741
 9155W        W77549  26.196  27.634  11.657
 9156W        W77550   7.909   9.809  10.655
 9157W        W77551  18.619   7.454   4.437
 9158W        W77552   5.449  18.366  14.003
 9159W        W77553  16.603  25.042   3.483
 9160W        W77554  44.486  26.021  14.427
 9161W        W77555  15.542  41.963   3.710
 9162W        W77556  44.193  44.809  11.764
 9163W        W77557  10.764   2.222   2.869
 9164W        W77558   7.086  37.242  11.029
 9165W        W77559   5.702  13.741   2.849
 9166W        W77560  22.078  33.856   2.400
 9167W        W77561  27.843  22.848  13.436
 9168W        W77562  16.251  44.874   2.285
 9169W        W77563   2.297  10.882  10.739
 9170W        W77564  36.631  19.255   0.672
 9171W        W77565  28.718  20.139   0.182
 9172W        W77566  18.604   7.326  14.329
 9173W        W77567  10.876  35.401  12.597
 9174W        W77568  25.429  43.131   3.662
 9175W        W77569  33.152   7.534   1.408
 9176W        W77570  27.499  41.991  12.013
 9177W        W77571  35.039   0.989  12.987
 9178W        W77572   2.879  43.245   0.056
 9179W        W77573  17.195  35.112   4.758
 9180W        W77574  25.133  38.067   1.945
 9181W        W77575  25.538   3.092  14.260
 9182W        W77576  35.457  19.257  14.865
 9183W        W77577  14.086  20.597   4.287
 9184W        W77578  22.681  30.229   0.892
 9185W        W77579  41.429  14.137   3.432
 9186W        W77580  13.215  34.619  10.758
 9187W        W77581  40.781   0.604  10.793
 9188W        W77582  28.304  18.260  13.688
 9189W        W77583  33.074   5.951  14.092
 9190W        W77584  43.437  19.176  11.106
 9191W        W77585  32.712  44.184  10.808
 9192W        W77586  21.569  29.604  14.422
 9193W        W77587   0.466   3.293  12.557
 9194W        W77588  19.724  39.643   2.597
 9195W        W77589  41.256  11.684   4.487
 9196W        W77590  44.430  11.957   0.916
 9197W        W77591  35.343   4.725   0.225
 9198W        W77592  24.501  31.043  13.455
 9199W        W77593  44.750  40.368  12.644
 9200W        W77594  31.714   0.362  12.003
 9201W        W77595   6.639  13.027  14.691
 9202W        W77596   6.399  37.467  10.730
 9203W        W77597  17.738   8.832   0.022
 9204W        W77598  15.819  29.959  10.942
 9205W        W77599  24.484  18.018   2.329
 9206W        W77600  23.672  14.541  12.693
 9207W        W77601  10.759  17.449  11.153
 9208W        W77602  44.066  31.456  13.879
 9209W        W77603  16.705  43.846   0.921
 9210W        W77604  35.435  40.225   3.812
 9211W        W77605   5.190   1.939  14.297
 9212W        W77606  25.922  22.608   2.123
 9213W        W77607  37.119  42.576   0.308
 9214W        W77608  11.379  29.107   2.400
 9215W        W77609  25.672  28.919  12.127
 9216W        W77610  19.596  37.557  11.082
 9217W        W77611  39.532  15.299   3.777
 9218W        W77612   3.254   0.904   0.369
 9219W        W77613  35.393  26.602  12.372
 9220W        W77614   9.211  25.103  14.368
 9221W        W77615  15.858  12.764   1.698
 9222W        W77616  43.401   3.734  14.294
 9223W        W77617   9.875  38.349   1.867
 9224W        W77618  12.729  15.594  14.725
 9225W        W77619  32.222   3.409   3.251
 9226W        W77620  20.243  23.725   1.819
 9227W        W77621  18.124  31.082   1.470
 9228W        W77622  42.705  39.451   4.446
 9229W        W77623  27.712  32.825  11.120
 9230W        W77624  27.194  15.521   3.750
 9231W        W77625  16.156  43.770   3.579
 9232W        W77626   7.145   5.945  11.094
 9233W        W77627  15.719  16.005   3.232
 9234W        W77628  20.207  20.343   3.900
 9235W        W77629  36.426  34.384   3.742
 9236W        W77630   4.792  18.750  13.350
 9237W        W77631  28.420  23.813   2.574
 9238W        W77632   5.031  34.697  13.730
 9239W        W77633  13.865  37.662  12.436
 9240W        W77634  24.391  30.769  11.204
 9241W        W77635  13.880  21.813  13.863
 9242W        W77636  14.129   3.683  13.503
 9243W        W77637  23.732   3.372   2.790
 9244W        W77638  32.808  44.773   4.573
 9245W        W77639   6.662   6.398  14.285
 9246W        W77640  21.011  23.426   3.258
 9247W        W77641  20.144  25.697   2.666
 9248W        W77642   7.744  23.608  12.373
 9249W        W77643  13.473   4.216   1.386
 9250W        W77644   4.976  21.235  12.586
 9251W        W77645  43.375  31.688  12.694
 9252W        W77646  40.987   1.805  11.386
 9253W        W77647  20.272  40.507   2.469
 9254W        W77648  33.686  15.610  11.543
 9255W        W77649  10.003  42.142   4.469
 9256W        W77650  29.452  16.338   3.642
 9257W        W77651  28.089   6.255  10.135
 9258W        W77652  30.097   3.335  13.154
 9259W        W77653   2.797  43.532  14.602
 9260W        W77654   3.407   5.985   0.198
 9261W        W77655  10.778  31.112   3.467
 9262W        W77656  33.422  28.556   4.536
 9263W        W77657   5.807  16.904  13.913
 9264W        W77658   8.004  16.656   3.176
 9265W        W77659  21.022   0.809   2.714
 9266W        W77660   8.055  18.646   0.630
 9267W        W77661  40.876  34.060  12.939
 9268W        W77662  24.919  37.238  10.931
 9269W        W77663  42.520  43.274   3.384
 9270W        W77664  36.340  20.483  14.265
 9271W        W77665   5.234  12.886  12.930
 9272W        W77666  28.421  29.918   2.306
 9273W        W77667  24.617  12.507  12.452
 9274W        W77668  12.722  11.067  13.299
 9275W        W77669  30.260  43.763   0.349
 9276W        W77670  15.691  40.519  14.716
 9277W        W77671  20.529  20.705   3.691
 9278W        W77672  42.901  39.194   0.983
 9279W        W77673   8.503  37.364   3.676
 9280W        W77674  11.115  43.014   1.910
 9281W        W77675  21.202  21.100  12.088
 9282W        W77676  42.065   0.845   4.105
 9283W        W77677   0.393  33.794  13.432
 9284W        W77678  11.789  26.478   3.951
 9285W        W77679  29.613   9.273   1.213
 9286W        W77680  39.512  35.256  14.874
 9287W        W77681   9.031  38.326  10.366
 9288W        W77682  36.139  35.597   1.513
 9289W        W77683  35.122  12.768   4.328
 9290W        W77684  17.062  37.096  10.266
 9291W        W77685  13.649  39.283   2.693
 9292W        W77686  16.585  27.177   5.466
 9293W        W77687  25.572  28.914   0.846
 9294W        W77688  41.032   8.561  11.981
 9295W        W77689  34.603  11.937   0.035
 9296W        W77690  31.885   5.646  10.725
 9297W        W77691  25.549  42.831   1.165
 9298W        W77692  33.431  39.968   2.864
 9299W        W77693  12.321  10.923   4.323
 9300W        W77694  18.027  16.724   3.143
 9301W        W77695   3.345  18.785   2.815
 9302W        W77696  38.463  41.438  12.158
 9303W        W77697  15.188  11.706   0.285
 9304W        W77698  21.715   3.791  11.130
 9305W        W77699  20.599  30.184  10.514
 9306W        W77700   6.653  28.443  13.372
 9307W        W77701  40.077  24.052  14.250
 9308W        W77702  24.136  19.367   2.184
 9309W        W77703  40.554  22.782   3.808
 9310W        W77704  36.896  26.668   3.414
 9311W        W77705  40.523  41.167   2.816
 9312W        W77706   3.809  10.583  12.813
 9313W        W77707  13.919   5.346  13.291
 9314W        W77708   3.701  15.856   3.077
 9315W        W77709  19.556  32.803   3.910
 9316W        W77710  41.934  25.873   3.564
 9317W        W77711   2.483   4.844  12.810
 9318W        W77712  17.025  42.407   2.169
 9319W        W77713  24.680  27.522   2.809
 9320W        W77714  38.899   7.290   0.818
 9321W        W77715  37.992  40.772  14.889
 9322W        W77716  25.383   4.295  10.509
 9323W        W77717  26.707  42.369   9.779
 9324W        W77718  42.569  33.572  11.498
 9325W        W77719  35.559  15.796  10.780
 9326W        W77720  34.894  32.174   2.805
 9327W        W77721  33.140  12.718  11.145
 9328W        W77722  26.378  20.680  14.838
 9329W        W77723  12.516   6.722  14.813
 9330W        W77724  26.099  35.986   3.109
 9331W        W77725  16.538  37.658   3.108
 9332W        W77726  14.792  17.760  11.176
 9333W        W77727  42.617  26.467  11.965
 9334W        W77728  33.311  26.236  14.929
 9335W        W77729  37.093  31.118   3.714
 9336W        W77730  15.521  34.109  12.966
 9337W        W77731   0.874   0.413  11.339
 9338W        W77732   1.776  12.688  13.885
 9339W        W77733  11.587  27.002  14.924
 9340W        W77734  37.426  41.246  11.019
 9341W        W77735   8.099  25.086  13.556
 9342W        W77736  41.496  42.566  12.643
 9343W        W77737  39.018   8.014   3.859
 9344W        W77738  10.263  39.581   1.461
 9345W        W77739  22.623   6.867  13.347
 9346W        W77740  18.686  12.341  12.059
 9347W        W77741  28.164   8.287   1.363
 9348W        W77742  44.683  35.638  10.610
 9349W        W77743  37.016  14.342   0.761
 9350W        W77744  17.192   6.587  13.842
 9351W        W77745  23.308  31.062   3.738
 9352W        W77746   3.548  16.642  13.947
 9353W        W77747   0.493  23.578   3.289
 9354W        W77748  26.910  37.620   4.828
 9355W        W77749   7.680  27.517   1.888
 9356W        W77750  22.407   8.011   2.766
 9357W        W77751  33.076   8.587   5.020
 9358W        W77752   7.293  25.970  11.154
 9359W        W77753  32.906  26.132  12.054
 9360W        W77754  16.654  43.333  13.161
 9361W        W77755  15.195  16.119   4.579
 9362W        W77756  39.301   9.422  11.146
 9363W        W77757  32.657  43.861   4.254
 9364W        W77758  38.195  16.323  12.913
 9365W        W77759  31.342  41.417  14.544
 9366W        W77760  20.742   8.895   2.662
 9367W        W77761  36.599  35.311  12.090
 9368W        W77762   5.456  37.639  11.570
 9369W        W77763  43.034  18.123   3.570
 9370W        W77764   2.636  22.616  10.333
 9371W        W77765  24.374   6.903  14.957
 9372W        W77766  28.971   7.690  12.888
 9373W        W77767  24.278  24.567   4.849
 9374W        W77768  14.757  25.456   1.487
 9375W        W77769  34.636   4.187   3.598
 9376W        W77770   8.285  25.924   3.269
 9377W        W77771   4.637  29.286   4.024
 9378W        W77772  40.453  16.389  11.417
 9379W        W77773  40.523  10.349  11.685
 9380W        W77774  38.839   4.304  13.635
 9381W        W77775  19.054  24.615  10.401
 9382W        W77776   2.506   9.603  11.080
 9383W        W77777  34.050  26.736   1.842
 9384W        W77778  22.506  40.053   3.576
 9385W        W77779  37.752  16.318   1.390
 9386W        W77780  42.485   5.651   4.319
 9387W        W77781  21.023  25.473   2.209
 9388W        W77782  39.120  38.415   1.516
 9389W        W77783  25.894  43.787  13.313
 9390W        W77784  34.226   3.942   2.286
 9391W        W77785  42.286  30.589  10.596
 9392W        W77786  32.169  31.344   1.657
 9393W        W77787  12.323  40.039  12.871
 9394W        W77788  34.139   1.731   1.348
 9395W        W77789  37.771  31.155  11.246
 9396W        W77790  34.521  23.525  13.232
 9397W        W77791  39.327  27.949   0.908
 9398W        W77792  29.654   3.967   2.943
 9399W        W77793  28.014   4.803  14.183
 9400W        W77794  38.650  21.887  10.704
 9401W        W77795  44.894  35.148   2.369
 9402W        W77796  25.540   8.898  14.730
 9403W        W77797  40.192   5.354   4.498
 9404W        W77798  18.817  26.461   0.066
 9405W        W77799   7.725  39.527   4.229
 9406W        W77800   0.232  35.669   3.015
 9407W        W77801  20.236  13.615  10.688
 9408W        W77802   8.690  12.283   4.612
 9409W        W77803   8.156   9.139   4.095
 9410W        W77804   9.875  44.862   3.210
 9411W        W77805  28.540  34.391  14.878
 9412W        W77806   2.654  24.412   4.955
 9413W        W77807   4.376  40.924   4.267
 9414W        W77808   8.803  41.551   3.630
 9415W        W77809   5.489  41.935   2.242
 9416W        W77810  39.673   0.909  13.956
 9417W        W77811  27.226  12.193  10.966
 9418W        W77812  38.366  10.317  14.431
 9419W        W77813  37.760  30.488   3.209
 9420W        W77814  31.442  15.109  11.157
 9421W        W77815   6.155  37.337   1.013
 9422W        W77816  16.040   3.758  14.313
 9423W        W77817   5.867  19.245   0.918
 9424W        W77818   5.732  29.526   3.266
 9425W        W77819  24.054  32.654  13.107
 9426W        W77820  11.815  10.235   4.938
 9427W        W77821  19.564  21.136  10.474
 9428W        W77822  10.353  30.522  11.657
 9429W        W77823   1.907  19.695  10.599
 9430W        W77824  19.673  33.226   0.774
 9431W        W77825  34.138  44.347   3.935
 9432W        W77826  18.796  33.162  12.636
 9433W        W77827  26.163  25.074  14.817
 9434W        W77828  10.145  42.302  13.900
 9435W        W77829  30.669  11.195  14.463
 9436W        W77830  31.463  15.859   2.188
 9437W        W77831   9.881  41.943  13.625
 9438W        W77832  28.984  37.968   4.185
 9439W        W77833  23.475  12.833  11.657
 9440W        W77834  29.839  42.498  14.903
 9441W        W77835  36.808  12.121   0.097
 9442W        W77836  11.555  41.741   2.707
 9443W        W77837  41.558  44.584  13.901
 9444W        W77838   5.031   0.463   2.484
 9445W        W77839   9.060  31.472  14.861
 9446W        W77840  33.279  25.775  12.540
 9447W        W77841   3.671  26.686   2.099
 9448W        W77842   7.144  34.956   4.193
 9449W        W77843   4.294  24.154  14.959
 9450W        W77844   7.423  18.875  11.050
 9451W        W77845  19.752  17.312  12.327
 9452W        W77846  23.964  20.668   1.810
 9453W        W77847   6.693  24.712   1.273
 9454W        W77848  44.665  31.211   4.447
 9455W        W77849  44.912  14.593   3.343
 9456W        W77850   4.699  39.023   3.609
 9457W        W77851  29.553  10.214   3.509
 9458W        W77852  22.281   0.078  14.956
 9459W        W77853  35.165  34.146   4.155
 9460W        W77854  21.735  17.827  14.085
 9461W        W77855  28.537  33.055   1.380
 9462W        W77856   7.089  29.771   4.637
 9463W        W77857   5.024   8.436  14.910
 9464W        W77858  43.474  21.001  12.099
 9465W        W77859   3.022  43.561  12.095
 9466W        W77860   4.401   5.771   0.479
 9467W        W77861   3.332   1.434   2.873
 9468W        W77862   6.969  41.431  14.455
 9469W        W77863  18.566  14.925  14.851
 9470W        W77864  38.316  37.599  11.603
 9471W        W77865  40.454  26.099   1.736
 9472W        W77866   4.255   0.938  13.963
 9473W        W77867  41.584  13.176   1.849
 9474W        W77868  16.211   7.430   2.370
 9475W        W77869   5.867   6.346   4.912
 9476W        W77870  29.201  39.474   3.596
 9477W        W77871  28.349  33.876   0.691
 9478W        W77872  28.991  22.271   0.489
 9479W        W77873  30.605  22.948   0.257
 9480W        W77874  13.711  14.812   1.545
 9481W        W77875  16.128  24.690   2.386
 9482W        W77876   2.682  14.155  11.244
 9483W        W77877  16.665  39.583  14.983
 9484W        W77878  31.074  24.095  12.188
 9485W        W77879  40.793  22.992  11.208
 9486W        W77880   3.734  30.174   4.913
 9487W        W77881   1.855  39.411   1.817
 9488W        W77882   5.852  39.461  11.595
 9489W        W77883  35.799  24.047   3.879
 9490W        W77884  33.342   2.891   1.279
 9491W        W77885  22.849   9.667  10.429
 9492W        W77886   3.678  31.973  10.510
 9493W        W77887  14.828  22.236   2.740
 9494W        W77888   8.169  38.848   2.077
 9495W        W77889   2.114  13.240   5.009
 9496W        W77890  14.037   2.270   1.442
 9497W        W77891   1.815  15.192   0.315
 9498W        W77892  31.511   1.018   3.301
 9499W        W77893  25.577  30.981  11.797
 9500W        W77894   9.870  44.042  14.370
 9501W        W77895  31.967  41.224   0.271
 9502W        W77896   9.421  34.302  11.274
 9503W        W77897  18.511   6.661  11.454
 9504W        W77898  13.062  35.070  10.574
 9505W        W77899  30.418  30.992   0.414
 9506W        W77900  13.861  31.283   4.313
 9507W        W77901  14.854  15.481   2.146
 9508W        W77902  39.796  33.026  13.024
 9509W        W77903  17.494  22.985  14.972
 9510W        W77904  20.999  35.601  14.273
 9511W        W77905  37.125  40.557  12.759
 9512W        W77906  21.573  34.835  11.993
 9513W        W77907  11.351  27.478  14.799
 9514W        W77908  17.610  25.641   4.548
 9515W        W77909  25.003  34.767  13.639
 9516W        W77910  18.276   7.710   1.171
 9517W        W77911   1.792  23.556   3.685
 9518W        W77912  39.061  16.540  13.401
 9519W        W77913  12.213   5.884   5.219
 9520W        W77914  40.473  17.788   0.738
 9521W        W77915  16.805  19.640  11.968
 9522W        W77916  13.167  17.496   1.830
 9523W        W77917  31.932  19.134   3.333
 9524W        W77918  17.072  20.160   3.704
 9525W        W77919  21.491  22.270   2.733
 9526W        W77920  25.107  15.230   3.423
 9527W        W77921  10.759  23.540  11.558
 9528W        W77922  21.046  27.655  14.358
 9529W        W77923   7.573  29.636  11.564
 9530W        W77924   6.649  34.438  14.747
 9531W        W77925  40.794  32.956   3.626
 9532W        W77926  39.831   8.660   1.686
 9533W        W77927  33.351  40.464   2.126
 9534W        W77928  20.067  37.995  10.605
 9535W        W77929  32.561  27.943  13.748
 9536W        W77930  37.490  38.624  14.356
 9537W        W77931   0.942  19.345  14.979
 9538W        W77932   1.712  37.177  10.764
 9539W        W77933   6.349  28.241   0.579
 9540W        W77934  10.312   2.296   1.687
 9541W        W77935  30.970   7.767   2.201
 9542W        W77936   9.297  26.228  13.064
 9543W        W77937   6.209  31.908  13.794
 9544W        W77938  12.811   5.087   5.434
 9545W        W77939  26.005   9.914  13.486
 9546W        W77940  10.383   5.392   2.070
 9547W        W77941  28.611  44.589  12.531
 9548W        W77942  33.162  11.238  13.485
 9549W        W77943  40.335  13.557  13.026
 9550W        W77944  21.125  26.873  13.867
 9551W        W77945   7.282  23.165  11.392
 9552W        W77946  17.746   3.498  11.100
 9553W        W77947  42.012  12.867  13.353
 9554W        W77948  28.566  35.596  10.628
 9555W        W77949  43.930  13.183  13.549
 9556W        W77950  25.688  41.783  12.467
 9557W        W77951   7.049  42.865   1.866
 9558W        W77952  18.770   5.169   4.436
 9559W        W77953   8.655  14.266   2.402
 9560W        W77954  26.075  18.544   4.203
 9561W        W77955  38.933   5.673  10.537
 9562W        W77956  17.088  13.829  13.405
 9563W        W77957  38.403  42.811  13.555
 9564W        W77958  19.153   8.346  13.736
 9565W        W77959   3.429  37.839  12.893
 9566W        W77960  25.066  39.020   3.694
 9567W        W77961  43.450  33.938   2.206
 9568W        W77962   9.740  24.950  12.790
 9569W        W77963  44.170  38.279   1.395
 9570W        W77964  20.769  10.162  13.010
 9571W        W77965  18.556  12.354   2.749
 9572W        W77966  25.059  24.455   1.737
 9573W        W77967  40.778  44.993  12.881
 9574W        W77968  37.636  10.994   3.812
 9575W        W77969   4.934  33.138   4.656
 9576W        W77970  26.957  37.037  13.828
 9577W        W77971  39.948  35.248  10.840
 9578W        W77972  34.959  24.369  10.158
 9579W        W77973  11.041  26.742   4.263
 9580W        W77974  18.331  33.578  14.397
 9581W        W77975  43.319  31.395   4.872
 9582W        W77976  20.252  14.291   1.352
 9583W        W77977  19.670  15.196   0.527
 9584W        W77978  29.905  39.020   4.176
 9585W        W77979  24.200  28.954   0.428
 9586W        W77980   9.817  32.123  11.627
 9587W        W77981  32.846  39.007   3.190
 9588W        W77982  37.999  40.835  12.597
 9589W        W77983   8.824  38.787  11.236
 9590W        W77984  32.076  32.858  11.491
 9591W        W77985  22.546  25.967  10.607
 9592W        W77986  12.647  25.957   4.807
 9593W        W77987  36.534  25.275   2.250
 9594W        W77988   2.741  21.517  11.154
 9595W        W77989   2.319   3.751  11.461
 9596W        W77990  13.150  15.556   4.483
 9597W        W77991  44.705  29.033  10.693
 9598W        W77992  43.600  40.570  10.060
 9599W        W77993  12.381  26.506  10.740
 9600W        W77994  14.720  40.472   4.551
 9601W        W77995  11.605  36.320   0.353
 9602W        W77996  14.579  41.015  13.484
 9603W        W77997   1.655  20.984  13.883
 9604W        W77998  44.417  10.540  14.933
 9605W        W77999   5.193  30.636  14.795
 9606W        W78000  30.186  10.213   4.642
 9607W        W78001  42.549  12.836  11.476
 9608W        W78002  36.197  34.232   3.296
 9609W        W78003  39.903   2.369  13.186
 9610W        W78004  26.374   8.193  13.876
 9611W        W78005  41.276   0.940   3.741
 9612W        W78006  29.288   0.939   1.386
 9613W        W78007  40.214   6.886   2.614
 9614W        W78008   1.312  20.180   3.718
 9615W        W78009  15.066  38.127  12.905
 9616W        W78010  20.826   5.478  14.986
 9617W        W78011  20.215  43.009   1.018
 9618W        W78012  30.686  11.293  11.987
 9619W        W78013  31.898   6.589   4.569
 9620W        W78014  27.975  20.118   0.812
 9621W        W78015   9.793  21.638  14.027
 9622W        W78016  30.716  41.052   4.176
 9623W        W78017  39.434  13.604  14.048
 9624W        W78018  21.481  21.595  14.562
 9625W        W78019  19.777  19.984   3.230
 9626W        W78020  17.288  14.616  11.921
 9627W        W78021   8.906  14.214  13.595
 9628W        W78022  38.927  33.500  12.395
 9629W        W78023  40.866  42.008   2.756
 9630W        W78024  18.668  41.697  11.916
 9631W        W78025  17.661   5.595   1.835
 9632W        W78026   2.311  37.278   3.221
 9633W        W78027  28.500  12.096   0.016
 9634W        W78028  32.068  20.359   2.176
 9635W        W78029  32.933  11.685  13.433
 9636W        W78030  35.988  29.867  12.959
 9637W        W78031  31.862   4.934   3.662
 9638W        W78032  33.326  37.496   0.261
 9639W        W78033  26.957  44.973  13.355
 9640W        W78034   8.881   9.801   3.882
 9641W        W78035  44.097  41.889   0.172
 9642W        W78036  43.465   8.791   4.063
 9643W        W78037  22.059   7.822  10.609
 9644W        W78038  34.354  42.426   0.880
 9645W        W78039  39.929  38.745  12.294
 9646W        W78040  21.167  36.828   1.243
 9647W        W78041  13.157   0.455  11.194
 9648W        W78042  14.107  32.092   3.932
 9649W        W78043  35.902   0.924  11.618
 9650W        W78044  21.756  25.618   0.357
 9651W        W78045  38.016  10.689  14.360
 9652W        W78046   4.456  37.396   1.723
 9653W        W78047  32.621   1.250   0.897
 9654W        W78048  13.211  15.714  12.674
 9655W        W78049  12.665   0.863   3.259
 9656W        W78050  32.115  19.087  14.820
 9657W        W78051   7.789  10.037  12.445
 9658W        W78052   5.898  27.060  11.116
 9659W        W78053  25.533  26.520  12.078
 9660W        W78054  12.266  35.639   3.612
 9661W        W78055  12.303  12.331  14.335
 9662W        W78056  23.886  18.568   4.374
 9663W        W78057  42.959  27.719  12.037
 9664W        W78058   0.570  36.931   3.640
 9665W        W78059  39.386  40.701   2.848
 9666W        W78060  36.430  19.695  14.754
 9667W        W78061  15.381  19.433  12.252
 9668W        W78062  17.054  18.359   3.478
 9669W        W78063   8.165  25.730   2.812
 9670W        W78064  10.816  37.715  11.407
 9671W        W78065  37.981  25.658  14.788
 9672W        W78066  33.043  14.051  13.338
 9673W        W78067  36.765  23.614   4.665
 9674W        W78068  19.839  35.523   1.674
 9675W        W78069  22.708  18.567  10.724
 9676W        W78070  36.113  14.740  13.353
 9677W        W78071  36.031  18.993  12.501
 9678W        W78072   9.512  34.627  12.453
 9679W        W78073  12.113  43.958  13.009
 9680W        W78074   6.887  21.095  14.354
 9681W        W78075  43.901  12.110   0.270
 9682W        W78076  23.311  44.259   0.027
 9683W        W78077  41.487  27.582   1.609
 9684W        W78078  15.855   3.498   3.843
 9685W        W78079  21.755  33.492   3.083
 9686W        W78080  21.068  24.298  11.097
 9687W        W78081  42.429  34.016  12.186
 9688W        W78082  35.121   5.846  11.171
 9689W        W78083  14.146  43.567  11.062
 9690W        W78084  27.166   0.402  10.718
 9691W        W78085  33.848  36.973   1.452
 9692W        W78086  43.470   9.659   4.869
 9693W        W78087  25.713  31.685   0.821
 9694W        W78088  14.343  11.285   4.468
 9695W        W78089  35.384   8.268   1.002
 9696W        W78090  21.103  36.003  14.942
 9697W        W78091   3.424  38.055   3.373
 9698W        W78092   9.889  25.801  12.361
 9699W        W78093  40.305  44.939   4.791
 9700W        W78094  18.907  24.826  11.731
 9701W        W78095  37.105   3.296   0.882
 9702W        W78096   7.367  17.367  13.527
 9703W        W78097  23.181  23.659  12.042
 9704W        W78098  33.051  17.626   0.419
 9705W        W78099   8.402  21.541   3.205
 9706W        W78100  36.509  43.069   3.294
 9707W        W78101   6.786  28.246  13.847
 9708W        W78102  13.756   4.671  11.970
 9709W        W78103   3.357  18.297  12.509
 9710W        W78104  30.171  28.438  14.480
 9711W        W78105  39.328  17.360   1.322
 9712W        W78106   1.384   2.276  13.890
 9713W        W78107  37.320  33.964  11.181
 9714W        W78108  31.400  25.185  14.000
 9715W        W78109  19.614  21.223   2.286
 9716W        W78110  16.665   9.385   0.258
 9717W        W78111  19.620  19.537   3.435
 9718W        W78112  32.850  23.606  10.567
 9719W        W78113  39.852  11.189   1.099
 9720W        W78114  26.997  25.695  12.374
 9721W        W78115  35.697  17.750  13.813
 9722W        W78116  36.565  23.494  10.709
 9723W        W78117  37.559  40.636   1.692
 9724W        W78118   3.750   1.793   1.356
 9725W        W78119  30.584  39.533   2.603
 9726W        W78120   6.346  31.049  14.389
 9727W        W78121  15.748   6.912   3.705
 9728W        W78122   3.175  44.718   3.386
 9729W        W78123  36.090   0.954   1.454
 9730W        W78124  33.881   0.344  13.365
 9731W        W78125  13.720  18.012   4.560
 9732W        W78126  26.085  19.294   2.849
 9733W        W78127  42.610  44.841   2.467
 9734W        W78128  21.463  29.351   2.076
 9735W        W78129  35.681   1.966  10.517
 9736W        W78130  26.902  44.934  14.168
 9737W        W78131  18.560  11.689  13.431
 9738W        W78132  29.149  22.701  14.352
 9739W        W78133  32.942   0.019   0.913
 9740W        W78134  42.889   8.343  14.570
 9741W        W78135  19.141  41.806   4.657
 9742W        W78136  18.999  34.082  12.993
 9743W        W78137  38.307  23.288   0.501
 9744W        W78138  44.432  14.818   1.990
 9745W        W78139   0.544  32.004  10.475
 9746W        W78140  32.971  12.302  11.425
 9747W        W78141  34.438  34.346   0.390
 9748W        W78142  10.105  12.163  12.493
 9749W        W78143  24.820  25.300  12.025
 9750W        W78144  26.027   2.601   1.274
 9751W        W78145  26.020  23.000  12.668
 9752W        W78146  41.200  26.369   4.416
 9753W        W78147  19.796  30.440   2.784
 9754W        W78148   9.632  33.180   2.728
 9755W        W78149  16.897  42.868  13.412
 9756W        W78150  26.982  24.063  10.669
 9757W        W78151  37.966  22.455  14.420
 9758W        W78152  26.600  11.425   4.680
 9759W        W78153  14.314  35.383   5.260
 9760W        W78154  23.508  22.769  13.379
 9761W        W78155  35.929  44.674  11.957
 9762W        W78156  12.216   6.248   0.525
 9763W        W78157  28.289  13.150  14.430
 9764W        W78158   7.702  44.424  11.753
 9765W        W78159   7.040  17.731  14.769
 9766W        W78160  23.737  27.780   3.593
 9767W        W78161   3.894  32.896  13.481
 9768W        W78162   1.319  26.025  11.897
 9769W        W78163  44.424  34.446   1.354
 9770W        W78164  24.733  36.892   4.329
 9771W        W78165   1.417   1.411  11.587
 9772W        W78166   4.279  41.780   0.203
 9773W        W78167  12.348  29.976   5.069
 9774W        W78168  30.039  33.322   2.064
 9775W        W78169  21.721  36.025  14.202
 9776W        W78170  14.875  11.769  12.412
 9777W        W78171  16.049  38.485   4.135
 9778W        W78172  30.487  44.311   3.863
 9779W        W78173  18.109  33.648   0.795
 9780W        W78174  26.868  13.888  10.655
 9781W        W78175  37.980  35.038  10.686
 9782W        W78176  27.584  33.588   1.951
 9783W        W78177  29.148  21.666   4.355
 9784W        W78178  10.086  41.461   0.214
 9785W        W78179  28.601  43.114   2.237
 9786W        W78180  34.082   9.297  13.818
 9787W        W78181  41.863  35.618  14.645
 9788W        W78182  41.031   7.764  12.250
 9789W        W78183   9.642  27.827   0.829
 9790W        W78184  11.665  28.011  11.921
 9791W        W78185  40.142  43.006   4.928
 9792W        W78186  21.736   8.305   1.636
 9793W        W78187  22.039  15.263   3.963
 9794W        W78188  21.075  16.696   3.905
 9795W        W78189   8.433  21.670   0.789
 9796W        W78190  33.947  40.395  12.570
 9797W        W78191  12.352  39.892  13.934
 9798W        W78192   0.913  25.080  10.008
 9799W        W78193  19.577  14.068   0.430
 9800W        W78194   6.495  11.265   3.302
 9801W        W78195  39.445  29.230  12.549
 9802W        W78196   5.410  34.974  13.077
 9803W        W78197  36.459  19.750   4.087
 9804W        W78198  43.980  44.381  10.606
 9805W        W78199   6.432  23.496  11.252
 9806W        W78200  42.797  27.995  13.375
 9807W        W78201  32.816   7.334  13.766
 9808W        W78202  15.180  14.383   4.631
 9809W        W78203  11.180  20.560  11.394
 9810W        W78204  27.549  12.345   1.677
 9811W        W78205   3.023  25.369  11.240
 9812W        W78206   0.819  42.766   1.594
 9813W        W78207  29.413  44.333  12.316
 9814W        W78208  19.995   0.256  10.986
 9815W        W78209  37.434   8.711   0.529
 9816W        W78210  20.982  20.342   2.853
 9817W        W78211  19.587  42.500  12.463
 9818W        W78212  21.854   4.680  12.907
 9819W        W78213  25.361  36.459  12.011
 9820W        W78214   9.948   8.200  11.086
 9821W        W78215  30.959  30.113   2.848
 9822W        W78216   4.946  36.066  12.489
 9823W        W78217  40.567   0.997  14.326
 9824W        W78218  26.986  43.631  11.423
 9825W        W78219  37.649  23.550  10.627
 9826W        W78220  41.802   9.441  14.487
 9827W        W78221  34.439  36.065  13.923
 9828W        W78222  41.951  40.741   2.427
 9829W        W78223   2.974   3.874   0.168
 9830W        W78224   9.237   8.623   4.157
 9831W        W78225  25.218  24.132  13.094
 9832W        W78226  20.096  43.238  11.554
 9833W        W78227  29.058   1.913   1.274
 9834W        W78228  35.112  20.302   4.053
 9835W        W78229   7.785  42.283   1.978
 9836W        W78230  33.985  18.019  13.428
 9837W        W78231  36.626  10.850   0.819
 9838W        W78232  23.244  33.718   0.986
 9839W        W78233  36.615  14.188  12.408
 9840W        W78234  37.539  13.176   4.729
 9841W        W78235   4.352  11.218   4.990
 9842W        W78236  39.112  26.335   2.681
 9843W        W78237  12.712   6.837   1.670
 9844W        W78238  20.324  26.216   0.384
 9845W        W78239  32.442   2.178   1.850
 9846W        W78240   9.966   0.429   4.637
 9847W        W78241  23.130  21.739  13.473
 9848W        W78242  26.481   5.821   4.683
 9849W        W78243  26.189  26.582   4.859
 9850W        W78244  42.811  35.809  14.984
 9851W        W78245  31.920   4.449   0.405
 9852W        W78246   1.667   5.929   4.143
 9853W        W78247   0.471  42.181  13.400
 9854W        W78248  23.687  37.912  14.011
 9855W        W78249   8.385   8.918   0.578
 9856W        W78250  10.687   5.480   3.425
 9857W        W78251  38.830  26.635   2.219
 9858W        W78252  34.467   9.744   3.636
 9859W        W78253  28.496   5.101  10.582
 9860W        W78254   5.877  15.609  12.981
 9861W        W78255  10.209   8.609  10.706
 9862W        W78256   8.846   2.567  11.095
 9863W        W78257  22.196   9.731   0.704
 9864W        W78258   6.376  13.769   3.676
 9865W        W78259  10.162  28.064   2.260
 9866W        W78260   8.174  39.531  12.162
 9867W        W78261  24.059  34.628  10.526
 9868W        W78262  27.246   0.387   1.866
 9869W        W78263  11.850  39.458   1.520
 9870W        W78264   8.230  16.014  14.879
 9871W        W78265   5.276  37.759  12.068
 9872W        W78266  30.700   5.406  12.178
 9873W        W78267  41.720  17.787  11.458
 9874W        W78268  35.767  14.052  13.864
 9875W        W78269  26.208  23.939  12.974
 9876W        W78270  35.280  35.043   2.579
 9877W        W78271  25.732  15.641  14.332
 9878W        W78272  44.546  41.046   4.042
 9879W        W78273  15.666   8.290   9.916
 9880W        W78274  14.859  18.179   5.246
 9881W        W78275  19.795  21.574  12.686
 9882W        W78276  11.164  44.352   2.270
 9883W        W78277  40.481  42.752  14.277
 9884W        W78278  11.183  21.803   1.464
 9885W        W78279  15.289  21.454  11.106
 9886W        W78280   0.874   1.098   4.787
 9887W        W78281   4.513  20.623  12.126
 9888W        W78282  12.893   9.345  14.419
 9889W        W78283  39.321   7.749   0.502
 9890W        W78284   4.282  38.629   1.302
 9891W        W78285  17.451  20.555   3.739
 9892W        W78286  11.641  17.573  13.624
 9893W        W78287  31.400  35.825  10.932
 9894W        W78288   4.206  11.124  14.927
 9895W        W78289  12.691  17.967   2.216
 9896W        W78290  35.149  38.010  14.260
 9897W        W78291  42.426  22.904  10.596
 9898W        W78292  42.367  18.681  14.865
 9899W        W78293  31.812  31.400  14.556
 9900W        W78294   2.407  33.990   4.117
 9901W        W78295  34.989  14.202   3.181
 9902W        W78296  12.892   4.304  12.466
 9903W        W78297  11.704  16.364  14.438
 9904W        W78298  26.713  36.401  14.835
 9905W        W78299  42.870  39.277  13.745
 9906W        W78300   0.233  44.600  12.905
 9907W        W78301   9.098  16.500  13.376
 9908W        W78302  16.196  22.038   2.966
 9909W        W78303  27.415   7.665   1.131
 9910W        W78304  29.724  14.274  10.785
 9911W        W78305  15.790  42.173   3.224
 9912W        W78306  19.011  20.248   1.287
 9913W        W78307  13.419  29.679   2.855
 9914W        W78308   1.677  21.329   3.126
 9915W        W78309  29.707  19.317   1.313
 9916W        W78310   0.469  15.330   3.685
 9917W        W78311   4.369   2.942  10.633
 9918W        W78312  13.781  36.106  10.660
 9919W        W78313  39.877  20.241   3.175
 9920W        W78314  25.184  25.480   1.877
 9921W        W78315  14.513   3.958  14.717
 9922W        W78316   5.333  19.332   0.236
 9923W        W78317  30.102  10.159  14.775
 9924W        W78318  39.663  10.195   4.655
 9925W        W78319  37.512  24.839  11.087
 9926W        W78320   0.562  35.676   2.614
 9927W        W78321   0.439  35.528   0.075
 9928W        W78322  34.955  31.945  13.092
 9929W        W78323   2.166   3.443   0.987
 9930W        W78324  12.348  31.060   0.520
 9931W        W78325  21.746  28.143  10.631
 9932W        W78326   5.228  39.521  10.493
 9933W        W78327  37.468  26.965   2.199
 9934W        W78328  14.005   1.095   0.683
 9935W        W78329  37.769  42.717  10.990
 9936W        W78330  41.803   5.284  12.081
 9937W        W78331  24.799  14.681  13.868
 9938W        W78332   5.827  20.630   1.395
 9939W        W78333  33.925  12.469  13.881
 9940W        W78334   2.267  12.554   1.697
 9941W        W78335   6.277  24.548   2.581
 9942W        W78336  36.585  27.686   2.889
 9943W        W78337   6.446  29.308  14.511
 9944W        W78338  17.717  10.947   4.648
 9945W        W78339  32.827  31.413   3.282
 9946W        W78340  25.323  18.760  12.523
 9947W        W78341  18.116  11.209   1.912
 9948W        W78342  28.208  24.131   4.124
 9949W        W78343   2.959  16.344  11.094
 9950W        W78344   0.500  43.340   2.768
 9951W        W78345  41.895  32.730   3.694
 9952W        W78346  18.554  20.917  12.277
 9953W        W78347  10.920  30.230   1.197
 9954W        W78348  19.689  27.592   1.968
 9955W        W78349  17.303  43.422  10.950
 9956W        W78350   1.944  23.750  12.084
 9957W        W78351  28.464  27.910   2.409
 9958W        W78352  27.033  43.993  13.268
 9959W        W78353  35.950   7.818   3.147
 9960W        W78354  20.163   5.488   1.294
 9961W        W78355  35.151  38.140  13.461
 9962W        W78356  35.295  16.347   3.829
 9963W        W78357   4.965  20.667  11.252
 9964W        W78358   5.736   5.468   3.610
 9965W        W78359  31.530  24.656   4.884
 9966W        W78360  26.900  11.141  14.783
 9967W        W78361   6.972  14.253  14.791
 9968W        W78362  38.781  41.053   4.963
 9969W        W78363  27.678   1.922   3.685
 9970W        W78364  10.903  25.649  11.553
 9971W        W78365   0.307  40.822   1.312
 9972W        W78366  20.591  20.739  13.393
 9973W        W78367  28.425  14.567  12.537
 9974W        W78368  14.651  44.790  10.769
 9975W        W78369  43.192   4.675   1.696
 9976W        W78370  13.521  10.056   2.658
 9977W        W78371  21.581   9.939   3.871
 9978W        W78372  40.664  29.010  13.968
 9979W        W78373   5.553  44.311   3.033
 9980W        W78374  29.598   5.151  12.577
 9981W        W78375  10.212  21.589   0.375
 9982W        W78376  18.562   3.774   2.377
 9983W        W78377  26.008  31.101  11.545
 9984W        W78378  16.776  16.115  13.399
 9985W        W78379  29.717  28.579   2.602
 9986W        W78380  38.722  16.131   4.541
 9987W        W78381  31.456  32.837   3.644
 9988W        W78382  14.746   0.459  14.613
 9989W        W78383   4.380  13.265   0.814
 9990W        W78384  23.665   7.488  14.337
 9991W        W78385   1.931   6.793  10.812
 9992W        W78386   6.427  40.783  11.440
 9993W        W78387  17.038  42.890   3.160
 9994W        W78388  30.263  37.406  13.766
 9995W        W78389  31.890  36.712  14.380
 9996W        W78390  16.617  21.732  11.119
 9997W        W78391   6.262   2.199   2.371
 9998W        W78392  14.022  16.597  10.939
 9999W        W78393  29.958   1.343   1.941
10000W        W78394   8.451   8.127   3.170
10001W        W78395  35.369  33.735  12.021
10002W        W78396  36.197  12.230  13.374
10003W        W78397  33.858   8.899  12.024
10004W        W78398   5.262   8.153   3.784
10005W        W78399   1.949  31.073  14.804
10006W        W78400  19.760  23.499   4.580
10007W        W78401  22.255   3.603  14.228
10008W        W78402  34.540   9.614  12.526
10009W        W78403  20.665  42.762   3.246
10010W        W78404   8.919   4.451   9.699
10011W        W78405  38.802  17.421   4.157
10012W        W78406   1.568  17.287   1.873
10013W        W78407  29.901   4.741   2.796
10014W        W78408  36.599  36.003  14.639
10015W        W78409  14.219  20.340   1.458
10016W        W78410  17.279  30.474  11.740
10017W        W78411  36.921   9.334   2.436
10018W        W78412   6.820  43.351   2.401
10019W        W78413  43.001   9.883   4.859
10020W        W78414  29.018   8.832  12.001
10021W        W78415   1.228  13.650  13.130
10022W        W78416  38.435  36.534   4.031
10023W        W78417  41.953  33.625  10.655
10024W        W78418  12.657   1.308  12.987
10025W        W78419  14.719  35.530  10.630
10026W        W78420  31.189   3.430   3.207
10027W        W78421  44.952  44.208   4.932
10028W        W78422  40.058  43.942   4.183
10029W        W78423  25.108  17.796  13.224
10030W        W78424   9.211   5.050  12.352
10031W        W78425  37.527  13.891  14.871
10032W        W78426   1.291  31.185  11.412
10033W        W78427  39.701  12.235   3.310
10034W        W78428  17.778  40.977   1.114
10035W        W78429  32.414  16.645  13.952
10036W        W78430  39.101  10.632  11.544
10037W        W78431   8.834  17.553  14.622
10038W        W78432   8.362  22.896   4.738
10039W        W78433   9.893  23.185  11.125
10040W        W78434  34.604   0.434   0.709
10041W        W78435  35.605  44.358  12.945
10042W        W78436  34.406  34.527  12.892
10043W        W78437  34.362  27.292   0.784
10044W        W78438   8.765  32.497  10.871
10045W        W78439  39.472  12.196  10.817
10046W        W78440  33.657   8.880   1.321
10047W        W78441  24.847  40.860   2.826
10048W        W78442  43.259  28.121  13.576
10049W        W78443  36.633  17.569   0.825
10050W        W78444  30.613  26.130   3.120
10051W        W78445  17.252  41.467   3.966
10052W        W78446   3.837  25.058  10.461
10053W        W78447  33.766  22.381   0.224
10054W        W78448  26.469  42.344   0.459
10055W        W78449   4.988  18.107  11.672
10056W        W78450   9.013  17.344  11.617
10057W        W78451  36.474  17.043  13.513
10058W        W78452  11.217  31.857   1.384
10059W        W78453   3.303  10.477   3.826
10060W        W78454  27.953  29.957  13.805
10061W        W78455  20.214  36.517  13.286
10062W        W78456  22.228  13.098  11.339
10063W        W78457  40.799  18.821  12.810
10064W        W78458  12.603  41.444   0.382
10065W        W78459   2.793  31.092  11.175
10066W        W78460  17.131  11.400   0.311
10067W        W78461  32.805  38.783  11.669
10068W        W78462  16.067  36.902  12.401
10069W        W78463   4.168  24.236  11.288
10070W        W78464  21.211  28.564   1.709
10071W        W78465   8.792  24.073  10.352
10072W        W78466   8.862  11.789   4.629
10073W        W78467  41.023  19.608  12.122
10074W        W78468  21.901   1.477  11.551
10075W        W78469  13.825  24.705  11.706
10076W        W78470  31.040  29.445  11.528
10077W        W78471  39.071  17.936   4.975
10078W        W78472  29.134  35.565   3.173
10079W        W78473  28.145  27.544   4.645
10080W        W78474  10.452  38.858   5.008
10081W        W78475  14.106  30.025   3.344
10082W        W78476  38.856   4.209  14.772
10083W        W78477   0.812  40.556  10.980
10084W        W78478  41.087   4.274  13.628
10085W        W78479  12.303   9.624  11.858
10086W        W78480   6.740  14.019  12.097
10087W        W78481  16.151   2.199   0.032
10088W        W78482   1.236  38.801   4.671
10089W        W78483  29.749   4.321  13.424
10090W        W78484  38.403   2.844  14.516
10091W        W78485  13.643   2.510  13.693
10092W        W78486  16.899  32.645  12.958
10093W        W78487  12.871   1.473  13.457
10094W        W78488  25.597  34.056  11.617
10095W        W78489  41.517  33.524  12.992
10096W        W78490   1.874  35.358  12.556
10097W        W78491  13.213  35.596   1.799
10098W        W78492   8.118  22.774  12.868
10099W        W78493  38.798  24.982  11.616
10100W        W78494  10.251  29.084   1.818
10101W        W78495   6.452   8.222  14.560
10102W        W78496   8.133  30.350  13.601
10103W        W78497  15.286  19.170   4.875
10104W        W78498   9.552   6.524   2.242
10105W        W78499  32.002  13.410   0.270
10106W        W78500   3.833  40.023   4.741
10107W        W78501  10.645  14.146   2.852
10108W        W78502  21.071  10.766  13.371
10109W        W78503  29.305  41.267  11.053
10110W        W78504  32.515   2.696   1.996
10111W        W78505  25.412   0.467  11.620
10112W        W78506  42.752  18.755  10.641
10113W        W78507  29.017  19.882   2.329
10114W        W78508  12.909  14.288  10.670
10115W        W78509   5.116  33.640  11.656
10116W        W78510  43.212  20.148   3.710
10117W        W78511  21.652  40.090   3.344
10118W        W78512  28.768  42.914  10.209
10119W        W78513  28.153  10.923  14.405
10120W        W78514  36.289  42.276  13.121
10121W        W78515  28.273   1.864   2.696
10122W        W78516   5.471  25.082   1.741
10123W        W78517  33.403  17.388  11.703
10124W        W78518   3.198  27.077   4.460
10125W        W78519  12.833  14.760  11.535
10126W        W78520   4.634  44.411   0.374
10127W        W78521   1.460  31.853   0.845
10128W        W78522   1.280  30.463   2.834
10129W        W78523  23.393  36.201  12.999
10130W        W78524   9.379  33.340   0.933
10131W        W78525  15.092  12.133  14.514
10132W        W78526  19.065  15.975  12.314
10133W        W78527   5.349  34.021   2.637
10134W        W78528  15.774  40.657   1.870
10135W        W78529  11.450   7.213  14.950
10136W        W78530  36.029  43.246   3.827
10137W        W78531  37.024  22.946  14.340
10138W        W78532  10.265  19.016   2.824
10139W        W78533   1.309  22.765  13.003
10140W        W78534   8.647  25.583  10.712
10141W        W78535  29.161   3.665  10.860
10142W        W78536  32.866  13.130  13.800
10143W        W78537   5.714  32.432  14.407
10144W        W78538  11.070  31.037  11.628
10145W        W78539  14.864  16.359  12.365
10146W        W78540  14.590  15.729  13.570
10147W        W78541  29.120  15.258   1.730
10148W        W78542  10.731  12.295   2.386
10149W        W78543  44.526  31.031   2.265
10150W        W78544  14.487  36.027   5.009
10151W        W78545  15.355  13.809  12.161
10152W        W78546  12.852  31.505  12.458
10153W        W78547  17.082   1.160   4.096
10154W        W78548  37.037   7.266  11.935
10155W        W78549  38.804  23.571   2.710
10156W        W78550  34.701   8.174  13.806
10157W        W78551   7.322  13.284   2.606
10158W        W78552  35.887  23.585  13.459
10159W        W78553  32.895  26.518   1.763
10160W        W78554   1.486  31.134  13.871
10161W        W78555   2.976  30.049  12.061
10162W        W78556  16.019  34.519  12.663
10163W        W78557  34.961  19.501  14.008
10164W        W78558  28.561   1.300  14.030
10165W        W78559  11.412  40.385   4.153
10166W        W78560  13.745  41.699   0.382
10167W        W78561  27.879  36.580   4.572
10168W        W78562   7.442  26.462  12.006
10169W        W78563  39.491  17.687   2.011
10170W        W78564  26.476   6.765  10.659
10171W        W78565  26.007  21.810   1.629
10172W        W78566   9.684  44.469  11.901
10173W        W78567  37.333  32.866   0.804
10174W        W78568  25.540  24.430  13.424
10175W        W78569   5.659  26.572  12.363
10176W        W78570  29.143  41.767   3.620
10177W        W78571   4.809  34.367   0.957
10178W        W78572  37.838  43.905  12.305
10179W        W78573   2.925   6.906   1.904
10180W        W78574  42.525  14.374   1.722
10181W        W78575   2.383  42.814  11.954
10182W        W78576  38.502  36.544  10.957
10183W        W78577  20.599   1.854   0.595
10184W        W78578  29.158  30.055   4.599
10185W        W78579  37.417  42.509  10.665
10186W        W78580  20.184  27.553  13.486
10187W        W78581  14.307  42.530  11.523
10188W        W78582  14.287   4.404  14.863
10189W        W78583  40.262  28.124   3.429
10190W        W78584  27.748   5.344   3.121
10191W        W78585  41.742  15.881   0.849
10192W        W78586   6.902  10.198   2.418
10193W        W78587   9.367  14.345  14.897
10194W        W78588  15.182   0.433   0.469
10195W        W78589  38.965  28.038  12.243
10196W        W78590  14.886  24.618   0.249
10197W        W78591  44.918  23.343  13.962
10198W        W78592  26.914   5.652  11.114
10199W        W78593  27.128   5.467   4.581
10200W        W78594  21.572  26.456   4.861
10201W        W78595  35.984  26.710   0.306
10202W        W78596  37.410  10.707  11.580
10203W        W78597  17.246  25.152   1.443
10204W        W78598  25.556  24.268   3.677
10205W        W78599  28.457  18.051   2.782
10206W        W78600  11.674  39.025  12.577
10207W        W78601  40.666   2.462   4.502
10208W        W78602  37.431  23.202   1.922
10209W        W78603  44.472  12.050   4.205
10210W        W78604  24.332  28.505   1.940
10211W        W78605  20.378  10.140   1.334
10212W        W78606  16.684   4.400  13.767
10213W        W78607  39.120   5.142   2.860
10214W        W78608   6.770  29.645  14.265
10215W        W78609  18.360  33.503   3.664
10216W        W78610  44.166  14.930   3.781
10217W        W78611  10.173  35.830   2.400
10218W        W78612  32.388  23.981   1.935
10219W        W78613  39.158  18.424   4.200
10220W        W78614   4.064  43.484  14.776
10221W        W78615  13.655  43.151  10.352
10222W        W78616  18.329   4.406  12.026
10223W        W78617  33.430  21.733   0.891
10224W        W78618  39.027   0.312  11.175
10225W        W78619  17.678  19.091  14.992
10226W        W78620   6.622  20.973   2.823
10227W        W78621  42.840   5.383  14.429
10228W        W78622   0.658  28.894   2.470
10229W        W78623  18.548   7.830  12.331
10230W        W78624  21.290  15.833   1.244
10231W        W78625  42.903  41.297   0.528
10232W        W78626  12.616  30.748   3.711
10233W        W78627  23.165   6.966  10.887
10234W        W78628   9.694  38.536  11.844
10235W        W78629  35.845  26.958  14.462
10236W        W78630  11.046   1.355   0.371
10237W        W78631  35.115  15.672  11.077
10238W        W78632  44.262   9.157  14.803
10239W        W78633  37.702  16.045   0.488
10240W        W78634  33.946   4.943  13.774
10241W        W78635  40.047   0.534   1.338
10242W        W78636  18.851  33.400   3.445
10243W        W78637  27.630  11.903  14.873
10244W        W78638   4.494  18.394   3.641
10245W        W78639  44.719  29.575   4.139
10246W        W78640  38.738  19.614  14.845
10247W        W78641  35.768  37.413  13.923
10248W        W78642  25.462   2.957   3.396
10249W        W78643   2.459  20.626   4.300
10250W        W78644  16.057  12.165  13.091
10251W        W78645   3.318  26.036  14.476
10252W        W78646  15.282   8.922   3.548
10253W        W78647  34.490  12.362   3.679
10254W        W78648  41.345  39.983  13.002
10255W        W78649  27.416  13.690   2.432
10256W        W78650  21.670  11.149  10.926
10257W        W78651  41.420   3.870  13.739
10258W        W78652   4.566  38.417   1.715
10259W        W78653  31.576  15.035   1.288
10260W        W78654  39.783  24.930   0.919
10261W        W78655  31.593  41.950   0.393
10262W        W78656  21.063   3.662   2.155
10263W        W78657  26.645  27.893  14.394
10264W        W78658   9.356  33.153  13.316
10265W        W78659  30.936  31.991  13.402
10266W        W78660  11.110  42.847  12.880
10267W        W78661  12.556  26.784   4.181
10268W        W78662  15.620  11.128   3.766
10269W        W78663   5.230   2.988   4.075
10270W        W78664  14.106  32.193  11.541
10271W        W78665  28.383  38.059  11.110
10272W        W78666   9.424   3.291  12.990
10273W        W78667   0.874  27.217   1.239
10274W        W78668  22.502  22.528   2.916
10275W        W78669  10.226  34.179  11.243
10276W        W78670  38.875  22.635   2.023
10277W        W78671  12.075  29.026   2.755
10278W        W78672  43.107   8.690   3.687
10279W        W78673   2.995   8.665  10.184
10280W        W78674  22.343  40.790  14.831
10281W        W78675   3.666  13.661   1.785
10282W        W78676   8.413  34.551   1.256
10283W        W78677   7.644  36.590   4.925
10284W        W78678  31.061   9.427  14.802
10285W        W78679  34.588  24.993   4.228
10286W        W78680   4.252  11.006   3.863
10287W        W78681  14.792   3.329  13.779
10288W        W78682   9.068  27.789  10.066
10289W        W78683  10.713  35.940  11.515
10290W        W78684  43.210  39.320   4.259
10291W        W78685  16.792  44.836  12.225
10292W        W78686  31.475   7.050  11.579
10293W        W78687   3.718  15.730  11.993
10294W        W78688  34.525  13.235   1.957
10295W        W78689  12.094   0.487   0.916
10296W        W78690  18.193   1.986   4.413
10297W        W78691  12.251   1.304   2.030
10298W        W78692  39.644  22.993   0.884
10299W        W78693  28.415  21.893   3.208
10300W        W78694  39.154   8.969   0.997
10301W        W78695  10.237  23.106  11.851
10302W        W78696  24.764  10.067  14.675
10303W        W78697   0.537  40.298   4.578
10304W        W78698   0.267  25.499  11.254
10305W        W78699   1.975  19.187  14.422
10306W        W78700  21.712  23.903   4.714
10307W        W78701  10.221  38.946  11.750
10308W        W78702  31.132   8.604   1.189
10309W        W78703  11.733  30.823   3.239
10310W        W78704  41.812  44.249  11.187
10311W        W78705   7.859   5.303  12.818
10312W        W78706  24.503   5.183   2.847
10313W        W78707  41.982   5.644   4.241
10314W        W78708   1.492  40.434  11.459
10315W        W78709  32.055  27.503  14.951
10316W        W78710   5.482  12.305  13.491
10317W        W78711  19.740  44.773   2.685
10318W        W78712  16.245  31.517  12.487
10319W        W78713   3.908  16.853   2.817
10320W        W78714   5.144  20.231  12.043
10321W        W78715  41.135  43.844   1.973
10322W        W78716  35.973  44.844  10.955
10323W        W78717   8.386  13.731   3.706
10324W        W78718  13.688  40.900  12.510
10325W        W78719  39.808  38.512   5.413
10326W        W78720  26.679   2.430   3.004
10327W        W78721  22.726  33.068   1.092
10328W        W78722  31.080  20.462   4.141
10329W        W78723  43.308  43.235   1.309
10330W        W78724  24.450  27.007  13.462
10331W        W78725  12.848   1.559   0.493
10332W        W78726  28.678  17.575   2.706
10333W        W78727  13.949  22.270  11.799
10334W        W78728  41.783   2.813   4.243
10335W        W78729  27.024   5.626   1.964
10336W        W78730  34.512   2.541   2.252
10337W        W78731  31.298   3.206   4.127
10338W        W78732   3.189   8.810   4.417
10339W        W78733  42.729   7.776   1.359
10340W        W78734  33.939  15.327  13.453
10341W        W78735   4.000  15.556   0.369
10342W        W78736  28.138  24.287   1.296
10343W        W78737  40.806   2.171   1.414
10344W        W78738   0.903   4.448   5.454
10345W        W78739   7.634  23.720   2.245
10346W        W78740  33.327  40.506  14.593
10347W        W78741   1.711  31.069   3.660
10348W        W78742  16.267  37.799   1.935
10349W        W78743  44.729  41.818   4.720
10350W        W78744  35.656   6.849   1.305
10351W        W78745   1.501  29.407   2.669
10352W        W78746  42.344  36.879   1.514
10353W        W78747   7.692  10.763  12.465
10354W        W78748  39.759  22.211  13.458
10355W        W78749  15.978  26.116  13.515
10356W        W78750  24.821  33.661   1.752
10357W        W78751  18.066  31.155  13.327
10358W        W78752  36.807  28.501   0.175
10359W        W78753  14.626  20.132   1.704
10360W        W78754  10.884  23.016   1.667
10361W        W78755  13.020   4.434  14.917
10362W        W78756  24.920  39.747  11.092
10363W        W78757   3.150  36.352  13.895
10364W        W78758  21.794  32.051  11.961
10365W        W78759  39.315  27.419   0.933
10366W        W78760  30.678   8.413  11.642
10367W        W78761   6.064   3.206   1.287
10368W        W78762  24.962  24.910  11.234
10369W        W78763  18.276  39.983   3.738
10370W        W78764  34.355   6.800  11.704
10371W        W78765  14.396  17.251   3.191
10372W        W78766  23.221  24.032   1.820
10373W        W78767  14.970  32.908  11.573
10374W        W78768  30.453  27.804   0.453
10375W        W78769   6.841  26.986  14.997
10376W        W78770   7.483   9.229   4.865
10377W        W78771   9.873  12.213   2.748
10378W        W78772  39.392  42.390   1.918
10379W        W78773  34.138  24.624  14.945
10380W        W78774   8.360  39.985  12.409
10381W        W78775  35.591   2.198  12.019
10382W        W78776  33.192  15.029  11.129
10383W        W78777  31.469  16.701  13.492
10384W        W78778  39.269  31.458   0.420
10385W        W78779  23.164  30.392  11.103
10386W        W78780   2.367  23.516  14.418
10387W        W78781   1.421  37.474   4.359
10388W        W78782  10.652  39.553   2.783
10389W        W78783   5.670  17.882  13.878
10390W        W78784  24.021  38.940  11.179
10391W        W78785  38.831  11.872   3.301
10392W        W78786   8.682  27.176  14.809
10393W        W78787  19.738  14.785   4.065
10394W        W78788  10.169  14.802   0.909
10395W        W78789  14.115  44.543  11.258
10396W        W78790  22.469   2.256  12.945
10397W        W78791   4.676  21.417  12.027
10398W        W78792   1.680  23.241  11.206
10399W        W78793  12.032   0.758  11.559
10400W        W78794  41.000  44.324   1.033
10401W        W78795  24.086  41.903  12.181
10402W        W78796  10.878   2.383  13.302
10403W        W78797  34.530  10.244  10.489
10404W        W78798  17.996   9.762   1.865
10405W        W78799  14.273  23.744   4.321
10406W        W78800   9.787   5.808  10.674
10407W        W78801  36.120   2.230   3.617
10408W        W78802  33.349  30.505   2.924
10409W        W78803  18.775  25.558   1.892
10410W        W78804  13.645  24.394  12.947
10411W        W78805  10.694  20.596  12.141
10412W        W78806  27.060  30.051   2.169
10413W        W78807   7.379  21.041  11.586
10414W        W78808  19.249  14.775   2.706
10415W        W78809  14.776  17.067  13.415
10416W        W78810   4.982  29.041  13.469
10417W        W78811  17.777  21.603   3.743
10418W        W78812  23.226   2.196   0.797
10419W        W78813   3.932   1.412   0.723
10420W        W78814  25.226   0.976  12.989
10421W        W78815  41.259  16.149  11.097
10422W        W78816  34.761   7.213   3.695
10423W        W78817  20.065  37.580   1.413
10424W        W78818  16.716  13.808  13.945
10425W        W78819  20.156   8.205   1.625
10426W        W78820  41.878  38.439  11.452
10427W        W78821  18.947  27.582  11.273
10428W        W78822   8.396   0.106  12.689
10429W        W78823  44.260   6.457   1.785
10430W        W78824  35.106  29.201   0.174
10431W        W78825  26.009  25.231  11.530
10432W        W78826  31.255  35.486  12.580
10433W        W78827  11.665  44.919   4.213
10434W        W78828  16.302   9.242   2.296
10435W        W78829  16.112  13.901  11.620
10436W        W78830   0.327   5.442   3.712
10437W        W78831   1.369  17.040  13.795
10438W        W78832  17.449  34.911   1.275
10439W        W78833  26.176  14.811  14.089
10440W        W78834  26.385  30.555   4.606
10441W        W78835  13.125  26.042   3.840
10442W        W78836  17.855  42.859  11.827
10443W        W78837  22.525  39.768   4.334
10444W        W78838  24.089  34.565   3.581
10445W        W78839  21.680  25.494  13.071
10446W        W78840  10.158  44.485   0.455
10447W        W78841   4.389  16.355   3.675
10448W        W78842  18.696  42.001  13.805
10449W        W78843  39.249  27.920  10.716
10450W        W78844  10.242   5.954   0.889
10451W        W78845  15.454   2.358  13.586
10452W        W78846   0.407  17.084  13.464
10453W        W78847  28.663  37.204  10.822
10454W        W78848  16.096   9.646   0.092
10455W        W78849  38.013  34.472  14.020
10456W        W78850  27.751  22.812   2.222
10457W        W78851  26.218  33.866  13.460
10458W        W78852  13.087   1.739  10.987
10459W        W78853  22.539  23.288  14.812
10460W        W78854   6.869  34.967   1.036
10461W        W78855  44.716   5.711  13.669
10462W        W78856   4.005  22.135  12.049
10463W        W78857  36.858  10.260   4.521
10464W        W78858  14.652  32.601   4.464
10465W        W78859  33.519   9.863   0.770
10466W        W78860  30.446  14.550  13.399
10467W        W78861  24.740  34.644   1.249
10468W        W78862  32.656  40.313   4.719
10469W        W78863  21.848  37.595   1.864
10470W        W78864   7.494  11.638  14.264
10471W        W78865  33.403  35.332   3.260
10472W        W78866  13.330   8.618   2.730
10473W        W78867  24.037  35.378  13.990
10474W        W78868  25.225  12.755   4.721
10475W        W78869  39.516  21.630   0.417
10476W        W78870  13.141  31.153   1.709
10477W        W78871   7.609  28.996   2.586
10478W        W78872  31.553  10.404  12.322
10479W        W78873   6.807  13.565  14.840
10480W        W78874   4.674  36.043   4.646
10481W        W78875  31.463  44.918  12.020
10482W        W78876  43.077   5.026   1.343
10483W        W78877  42.383  35.631   0.243
10484W        W78878  44.179   7.416   4.188
10485W        W78879  14.618  39.465   1.324
10486W        W78880  13.272  11.278   4.751
10487W        W78881  27.922  37.896  10.424
10488W        W78882  20.548  27.673   4.330
10489W        W78883  16.682  16.332   3.753
10490W        W78884   4.052  11.382   4.167
10491W        W78885  19.149   8.687   3.489
10492W        W78886  32.903  15.301   1.154
10493W        W78887  15.782  24.709   1.771
10494W        W78888  32.385   5.465   0.333
10495W        W78889  27.620  33.117   2.779
10496W        W78890   1.584  15.719   3.931
10497W        W78891  40.040  42.177   0.439
10498W        W78892  19.430  20.500   1.882
10499W        W78893  22.414   2.742  13.699
10500W        W78894  43.991   0.913   4.639
10501W        W78895  21.772  30.715  13.379
10502W        W78896   2.741   9.906   3.212
10503W        W78897  34.539  12.642   3.147
10504W        W78898  12.675   6.307  12.994
10505W        W78899  31.607  39.325   4.634
10506W        W78900  18.777  34.633   0.376
10507W        W78901   7.056  27.169   2.268
10508W        W78902  29.950   8.615   1.872
10509W        W78903  21.378  37.421   1.704
10510W        W78904  44.727  11.528   0.961
10511W        W78905  10.659   7.678  12.942
10512W        W78906  32.956   0.835  11.828
10513W        W78907   3.845  28.866  14.980
10514W        W78908   7.387  21.668  11.898
10515W        W78909   6.380  14.567  12.413
10516W        W78910  40.860  31.234  14.788
10517W        W78911   1.407  26.909  12.144
10518W        W78912  28.943  13.876  10.407
10519W        W78913  25.627  35.701   4.522
10520W        W78914  40.399  12.154  13.433
10521W        W78915  34.530  38.787   4.330
10522W        W78916  37.584   7.407  10.233
10523W        W78917  13.376  13.180   0.785
10524W        W78918   5.562  27.939  11.834
10525W        W78919  19.266  10.282   2.721
10526W        W78920  37.545  32.853  13.428
10527W        W78921  28.106  36.064  13.932
10528W        W78922  29.402  25.249  11.117
10529W        W78923  14.839  10.617  14.365
10530W        W78924   9.682  39.953   4.624
10531W        W78925  37.603   9.714   3.755
10532W        W78926  20.250  11.279   0.666
10533W        W78927   8.367   8.843   3.711
10534W        W78928   4.331  32.273   0.704
10535W        W78929  43.405   7.063   2.960
10536W        W78930   1.938  24.935   0.284
10537W        W78931   4.913  28.158   2.480
10538W        W78932   3.278  41.826  13.857
10539W        W78933   1.819  28.689  13.391
10540W        W78934  27.448  23.606   0.205
10541W        W78935  36.027   7.178  11.007
10542W        W78936  43.041   3.550   4.470
10543W        W78937  16.509  34.155  11.302
10544W        W78938  16.326  10.508  13.986
10545W        W78939  39.579  38.428   0.221
10546W        W78940  32.205  15.672   1.677
10547W        W78941  30.575  15.257   2.407
10548W        W78942  19.976   6.072   2.651
10549W        W78943  20.109   4.904   3.457
10550W        W78944   0.876  43.045  12.085
10551W        W78945  38.940  24.682  11.167
10552W        W78946  19.012  32.076   1.950
10553W        W78947   8.744  24.988  11.999
10554W        W78948  31.604  32.202   2.276
10555W        W78949  28.495  15.916   1.645
10556W        W78950  44.376  28.468  13.024
10557W        W78951  20.190   2.989   4.874
10558W        W78952  25.130   1.508   4.127
10559W        W78953  40.469  17.253   2.356
10560W        W78954  19.023  25.404   4.919
10561W        W78955  30.354   8.841   1.015
10562W        W78956  24.745  13.123  11.711
10563W        W78957  39.861  23.702   4.316
10564W        W78958   5.227  34.551   0.129
10565W        W78959  27.511  36.542   5.017
10566W        W78960  27.830  32.886  11.604
10567W        W78961  32.488  19.602   4.626
10568W        W78962  44.857  25.008   2.599
10569W        W78963  27.197  37.627   1.167
10570W        W78964  44.327  21.068   3.520
10571W        W78965   0.984  14.116  13.083
10572W        W78966   5.708  32.428  12.369
10573W        W78967  16.075  10.389   0.836
10574W        W78968  36.396   1.195  14.829
10575W        W78969  32.210  24.280   0.754
10576W        W78970  13.067  44.925  10.479
10577W        W78971  23.075   0.284   1.484
10578W        W78972   1.341  15.360  11.845
10579W        W78973  23.977  16.050   3.799
10580W        W78974   7.764  15.815  13.043
10581W        W78975  29.699  37.586   2.265
10582W        W78976   8.937  37.114   3.631
10583W        W78977  23.022  35.964  10.844
10584W        W78978  38.062   8.813   2.306
10585W        W78979  21.059  25.532  12.223
10586W        W78980   0.412  14.478   3.357
10587W        W78981  22.448  34.120   2.655
10588W        W78982   1.696   1.863   1.414
10589W        W78983  37.057  11.226  13.243
10590W        W78984  22.780  21.178   2.644
10591W        W78985   4.374   9.080  12.579
10592W        W78986  29.369  20.188  11.023
10593W        W78987  25.353  40.029   1.273
10594W        W78988  31.686  15.324  10.755
10595W        W78989   7.693  24.180  14.509
10596W        W78990   9.408  13.659   4.397
10597W        W78991  17.694  33.409  12.037
10598W        W78992  41.762  40.756  11.878
10599W        W78993   7.811  10.177   1.404
10600W        W78994  17.721  36.970  11.357
10601W        W78995  21.466  39.327  11.119
10602W        W78996  28.197   7.327   2.298
10603W        W78997  29.652  29.893   4.641
10604W        W78998   3.361   7.272   4.917
10605W        W78999   3.732  31.381   2.493
10606W        W79000  28.923  14.270  14.973
10607W        W79001  11.405  28.624   0.004
10608W        W79002  21.998  33.001  12.684
10609W        W79003  34.778  44.767  11.996
10610W        W79004  39.283  25.885  12.473
10611W        W79005  39.452  15.549   3.324
10612W        W79006  32.718  31.024  12.515
10613W        W79007  42.463  17.303  11.685
10614W        W79008  28.202   4.295   2.373
10615W        W79009  36.878  14.268   1.958
10616W        W79010   7.801  10.198  13.392
10617W        W79011   5.216  28.095   1.637
10618W        W79012  28.523  32.909  12.093
10619W        W79013  26.260   4.609   2.576
10620W        W79014  21.013  41.475   2.861
10621W        W79015  41.914   5.001   9.750
10622W        W79016  18.000  26.088   1.682
10623W        W79017  32.605  18.077   4.641
10624W        W79018   2.414   4.857   1.172
10625W        W79019  42.579  42.956  14.958
10626W        W79020  40.327  35.303  12.891
10627W        W79021  28.524  23.233  13.908
10628W        W79022  28.263  39.566  13.530
10629W        W79023  12.527  31.076   0.042
10630W        W79024  12.230  36.437  11.584
10631W        W79025   0.443  12.774   1.685
10632W        W79026  42.238  36.331  12.761
10633W        W79027  29.044   7.332   3.758
10634W        W79028   5.757  39.219   4.000
10635W        W79029  13.324  19.749  11.480
10636W        W79030  15.073  33.892   0.875
10637W        W79031   1.673  32.989   3.225
10638W        W79032  34.688  19.818  11.159
10639W        W79033  38.288  14.651   0.949
10640W        W79034  42.525   6.869   2.890
10641W        W79035   0.332  43.781   1.831
10642W        W79036  35.147  11.893   2.792
10643W        W79037  15.828  27.904   4.720
10644W        W79038  23.736  27.064  14.796
10645W        W79039  12.382  33.557   1.839
10646W        W79040  23.974  39.977  13.881
10647W        W79041   2.242  31.444   0.934
10648W        W79042  12.760  28.880   3.664
10649W        W79043  23.102  42.599  11.669
10650W        W79044   0.059  24.685  12.838
10651W        W79045  38.369   4.215  11.156
10652W        W79046  13.412  30.116   2.564
10653W        W79047  28.395  29.514  11.612
10654W        W79048  35.932  36.310  10.527
10655W        W79049  23.114   0.144  13.389
10656W        W79050  15.672  32.176  11.147
10657W        W79051   6.175  18.327  13.473
10658W        W79052  24.996  42.102  11.535
10659W        W79053  35.933  21.137   1.943
10660W        W79054   7.352   2.894   1.329
10661W        W79055   1.569  35.337   1.303
10662W        W79056  38.131  42.593  10.652
10663W        W79057   5.908  10.824  12.528
10664W        W79058  33.354  44.068   2.844
10665W        W79059  29.209   5.477   1.876
10666W        W79060   0.355  24.357  11.038
10667W        W79061  23.093  12.288   4.657
10668W        W79062  29.207  39.701   0.511
10669W        W79063  14.179  41.096   0.801
10670W        W79064   3.963   9.847  11.969
10671W        W79065   2.706   5.488  10.778
10672W        W79066   5.541  36.828  14.353
10673W        W79067  16.230  40.112   4.124
10674W        W79068  20.733  29.021  14.339
10675W        W79069  42.828  38.605   0.926
10676W        W79070  29.110   4.985  12.702
10677W        W79071   2.344   1.529   0.300
10678W        W79072  18.044  27.121  13.591
10679W        W79073  42.941  14.058  13.135
10680W        W79074  32.482   5.253  14.059
10681W        W79075   3.936  42.750   4.964
10682W        W79076  12.178  10.225  10.553
10683W        W79077  20.245  37.934   2.829
10684W        W79078  33.446  33.925   0.879
10685W        W79079  32.823  36.228  14.363
10686W        W79080  23.289  33.907  12.032
10687W        W79081  23.507  26.076  14.842
10688W        W79082   5.206  30.393   0.263
10689W        W79083  24.346   4.224   2.728
10690W        W79084  24.326  31.831  11.598
10691W        W79085   3.913  26.259   0.867
10692W        W79086  24.426  10.176   2.390
10693W        W79087  14.300  16.060  10.682
10694W        W79088   9.811  23.199  14.760
10695W        W79089  30.182  38.674  13.549
10696W        W79090  13.721   9.781   0.358
10697W        W79091  35.176  35.023  14.359
10698W        W79092   7.732  38.284   1.940
10699W        W79093  18.520   6.377   0.268
10700W        W79094  16.380   2.364  13.692
10701W        W79095  23.708  41.587   2.373
10702W        W79096  12.181  36.995   2.825
10703W        W79097   6.930  25.747   5.068
10704W        W79098  27.531  32.805   4.278
10705W        W79099  23.446  27.539   3.215
10706W        W79100  33.128  37.956   2.880
10707W        W79101   6.270  38.055   2.560
10708W        W79102  40.330  36.517   4.426
10709W        W79103   6.693  38.117  10.430
10710W        W79104  15.501   6.962  12.128
10711W        W79105  27.397  42.275  10.653
10712W        W79106  21.634   1.333  12.522
10713W        W79107  16.782   9.926   4.891
10714W        W79108  29.996  30.908  11.423
10715W        W79109  44.911  42.032  12.177
10716W        W79110  19.037  40.395   1.741
10717W        W79111   7.559   3.226   3.228
10718W        W79112   5.287   2.316   3.346
10719W        W79113  11.357   8.373   1.870
10720W        W79114  15.232   1.291   3.793
10721W        W79115  38.334  30.646   1.807
10722W        W79116  11.649  39.004  14.086
10723W        W79117  10.856   4.826   0.666
10724W        W79118  27.487  15.286   0.473
10725W        W79119  34.811  42.349   3.895
10726W        W79120  16.749  34.499  12.071
10727W        W79121  34.037  32.108  11.864
10728W        W79122  44.297  26.186  12.308
10729W        W79123  38.846  21.289  10.113
10730W        W79124  32.881  17.975   3.747
10731W        W79125  22.632  31.532   4.872
10732W        W79126  43.317  44.542  11.132
10733W        W79127  22.474  30.980   3.402
10734W        W79128   3.310  11.216  14.386
10735W        W79129  22.124  25.116  14.801
10736W        W79130   7.410  27.211  12.419
10737W        W79131  25.111  38.192  11.918
10738W        W79132  32.942  15.134  10.662
10739W        W79133  26.283  20.826   3.701
10740W        W79134  42.954   8.082   0.981
10741W        W79135  37.782  14.058  12.691
10742W        W79136   6.496   5.156  11.156
10743W        W79137  15.013  33.462   3.642
10744W        W79138  19.127  23.496   2.139
10745W        W79139   6.810  22.939   5.627
10746W        W79140  25.757  16.605   3.170
10747W        W79141  26.133  13.258   2.751
10748W        W79142  19.018  12.852  11.579
10749W        W79143  44.338  15.958  12.408
10750W        W79144  12.837  28.273  12.391
10751W        W79145  38.473   5.625  12.515
10752W        W79146   7.442  23.471   2.949
10753W        W79147  29.485  10.729  12.976
10754W        W79148  35.353   0.333   3.072
10755W        W79149  40.966  42.322  12.457
10756W        W79150  21.699  24.133  12.659
10757W        W79151  35.547  37.891   3.127
10758W        W79152  31.719  13.222  12.433
10759W        W79153  26.120  12.087   2.563
10760W        W79154  40.656  36.524   3.525
10761W        W79155   9.307  36.079   1.725
10762W        W79156  17.942  25.714  10.975
10763W        W79157  23.988  39.224  14.430
10764W        W79158  24.943   3.314  11.606
10765W        W79159  43.339  29.493   3.579
10766W        W79160  35.104  14.795   0.009
10767W        W79161   0.012  25.941  11.156
10768W        W79162  44.511   4.727  14.916
10769W        W79163  28.534  27.075  12.225
10770W        W79164  43.531  33.905   0.749
10771W        W79165  13.211  27.272   4.564
10772W        W79166  30.443   8.882   1.869
10773W        W79167   2.291  10.255  12.056
10774W        W79168  42.135  22.752  13.667
10775W        W79169   3.840  11.518   1.803
10776W        W79170  14.042  36.780  14.292
10777W        W79171  28.013  41.752  14.827
10778W        W79172   2.256  17.686   3.846
10779W        W79173   5.167   4.212   0.382
10780W        W79174  20.026  36.828  11.429
10781W        W79175  18.712  14.160  11.115
10782W        W79176  38.284  32.659  11.626
10783W        W79177  24.899  16.216   4.919
10784W        W79178   4.305   1.308  12.982
10785W        W79179  42.958   0.421  14.733
10786W        W79180   3.843  24.782  10.892
10787W        W79181  16.702  36.796  13.846
10788W        W79182  14.964  36.035  14.119
10789W        W79183  20.628   9.751   3.883
10790W        W79184  41.055   1.156  13.574
10791W        W79185   4.348  23.090   0.952
10792W        W79186  15.069  31.603   0.838
10793W        W79187  27.241   4.787   2.560
10794W        W79188   7.286  25.904  12.869
10795W        W79189   6.782  20.347   0.227
10796W        W79190  41.478  21.283   3.849
10797W        W79191  44.507  39.117  11.487
10798W        W79192  24.033  41.752  11.162
10799W        W79193   2.821  26.995   1.102
10800W        W79194  42.364  13.599  14.937
10801W        W79195  27.040  19.205   3.869
10802W        W79196   9.398  31.490   0.744
10803W        W79197  25.511  31.991  12.096
10804W        W79198   4.530  28.698  10.451
10805W        W79199   7.935   7.266   3.601
10806W        W79200   8.012  14.553   2.669
10807W        W79201   8.362  33.879  11.685
10808W        W79202   1.478  20.164  13.587
10809W        W79203  14.742  44.291  11.880
10810W        W79204  23.994  22.742   2.396
10811W        W79205  13.606  29.408  14.450
10812W        W79206  37.013   6.522  11.464
10813W        W79207  14.191  15.351   4.373
10814W        W79208  31.510  36.394   3.168
10815W        W79209   5.100  25.976   3.265
10816W        W79210  11.809  18.992  12.523
10817W        W79211  37.555  23.582  14.194
10818W        W79212  27.980  24.023   1.741
10819W        W79213  32.986  44.428  11.184
10820W        W79214   6.226  11.353   3.731
10821W        W79215  24.058  20.670  11.126
10822W        W79216   1.251  43.243  14.480
10823W        W79217  28.136   4.008   1.765
10824W        W79218  26.876  24.741  13.699
10825W        W79219  27.570   7.673   3.384
10826W        W79220  39.426  28.342  11.003
10827W        W79221  38.326  14.327  11.023
10828W        W79222  14.232  35.409   4.351
10829W        W79223   1.763  13.792   3.105
10830W        W79224  38.387  42.740  12.417
10831W        W79225  27.424  12.121   3.716
10832W        W79226   4.563  37.425   4.621
10833W        W79227   6.085   4.617   4.147
10834W        W79228   3.423  24.994   0.615
10835W        W79229  42.920   8.387   4.950
10836W        W79230  30.179  31.814   3.686
10837W        W79231  28.993   4.654   1.143
10838W        W79232  37.422   3.716  11.195
10839W        W79233   4.850  27.815   1.286
10840W        W79234  41.904  19.946   2.880
10841W        W79235  40.840  39.194   3.291
10842W        W79236  30.514  20.630  12.911
10843W        W79237  27.442  40.547   0.336
10844W        W79238  36.461  31.166  11.128
10845W        W79239  16.326  28.070   4.029
10846W        W79240  29.581  26.602  14.604
10847W        W79241  24.675  29.978   0.920
10848W        W79242  19.254   5.422  11.947
10849W        W79243  11.770  18.038   1.254
10850W        W79244  36.769  13.043  13.409
10851W        W79245  27.982  39.474   2.422
10852W        W79246  35.591  35.119  13.020
10853W        W79247   6.856  30.194   1.089
10854W        W79248  23.678  26.942   4.748
10855W        W79249  39.922  32.369  12.806
10856W        W79250   7.927  22.710  11.349
10857W        W79251  21.563  22.342   1.253
10858W        W79252  17.829  16.729   3.612
10859W        W79253  33.846  36.465  11.962
10860W        W79254  44.897  42.972   3.247
10861W        W79255  15.426   7.298   5.547
10862W        W79256  39.739   4.788   3.533
10863W        W79257  21.794  17.683  11.630
10864W        W79258  17.039   0.738   2.777
10865W        W79259   2.633   3.444  10.672
10866W        W79260  17.102  27.081  11.445
10867W        W79261   7.362  24.179   3.634
10868W        W79262  33.500  38.374  10.644
10869W        W79263   5.167  10.168   0.022
10870W        W79264  16.353   9.852  11.117
10871W        W79265  35.283   2.818   1.770
10872W        W79266  13.810  35.341   4.072
10873W        W79267  27.688  15.204  12.209
10874W        W79268   3.863  17.806  13.776
10875W        W79269  34.350  13.778   0.293
10876W        W79270  22.733  34.373   1.429
10877W        W79271  19.626  18.297  13.507
10878W        W79272  42.843  24.037   3.276
10879W        W79273   4.288  27.540   2.976
10880W        W79274  11.177  10.890  10.662
10881W        W79275  21.349  15.626  12.024
10882W        W79276  32.578  44.751   4.098
10883W        W79277  36.322  32.351   2.242
10884W        W79278   3.752  24.230   3.149
10885W        W79279  14.946  40.923  14.464
10886W        W79280   0.680  36.977   2.718
10887W        W79281  15.110   0.202   2.820
10888W        W79282   5.061  38.517   1.938
10889W        W79283  25.609   5.137   9.858
10890W        W79284  13.513  37.700   2.261
10891W        W79285  13.283  26.069   2.475
10892W        W79286  39.735  18.282   0.294
10893W        W79287  41.536   2.256  12.969
10894W        W79288   4.312  38.391  13.460
10895W        W79289  32.648  12.098  14.439
10896W        W79290  33.929  23.299  14.041
10897W        W79291  41.964  44.902  13.630
10898W        W79292   5.900   8.186  12.832
10899W        W79293  15.214   7.119   4.136
10900W        W79294  41.289  34.021   0.747
10901W        W79295  37.510  18.443   4.497
10902W        W79296  23.469  33.076  10.733
10903W        W79297  27.614   2.723  13.760
10904W        W79298  43.746  20.690   0.077
10905W        W79299  18.713  20.223  10.618
10906W        W79300  40.779  25.810  12.112
10907W        W79301   6.191  43.359   3.591
10908W        W79302  42.184  40.944   0.006
10909W        W79303  23.695  12.443  12.612
10910W        W79304  33.468  25.755   0.516
10911W        W79305  43.986   4.906  11.376
10912W        W79306  29.650  21.499  11.649
10913W        W79307   7.651  30.062  14.144
10914W        W79308  39.630  44.809   3.980
10915W        W79309  23.049  14.837  10.632
10916W        W79310  37.887  36.186   1.431
10917W        W79311   5.730  12.869  14.365
10918W        W79312  11.178  33.383  12.903
10919W        W79313  43.718   0.347   2.459
10920W        W79314  28.520  40.496   1.521
10921W        W79315  13.007  41.585  13.339
10922W        W79316  33.003  31.053   0.786
10923W        W79317  38.875  24.153  10.780
10924W        W79318  31.560  26.751  13.088
10925W        W79319  22.698  30.900   9.681
10926W        W79320  33.129  26.066   1.939
10927W        W79321  23.082   9.913  14.292
10928W        W79322  35.180  21.256  14.874
10929W        W79323  11.342  38.444   0.266
10930W        W79324   5.260  24.610  12.053
10931W        W79325  41.152  28.765   3.010
10932W        W79326  17.069  21.471  11.133
10933W        W79327  14.478  42.296  11.947
10934W        W79328  44.952  42.645  11.719
10935W        W79329  26.818   9.356   1.685
10936W        W79330  40.896   6.348   4.797
10937W        W79331  28.023  21.107  10.619
10938W        W79332  34.968  40.719   1.034
10939W        W79333   3.266   9.414   0.752
10940W        W79334  44.853  16.368  13.233
10941W        W79335  42.333  20.499  11.563
10942W        W79336  36.582  26.944  10.690
10943W        W79337   1.908  21.368  12.987
10944W        W79338  28.059  27.129  11.437
10945W        W79339  29.979  42.357   4.493
10946W        W79340   3.653  18.790   4.594
10947W        W79341  26.603  12.053   2.747
10948W        W79342   8.278  16.557  14.805
10949W        W79343   8.485   6.327  12.399
10950W        W79344   7.310  33.951  10.762
10951W        W79345  23.422  42.849   1.158
10952W        W79346   2.347  14.808   0.899
10953W        W79347  25.136  33.807  11.592
10954W        W79348  14.328  10.199   2.199
10955W        W79349  15.237   2.975  13.551
10956W        W79350  25.751   0.744  10.861
10957W        W79351  38.979  10.110  13.334
10958W        W79352  40.918  44.052  11.267
10959W        W79353  24.978  26.811  12.519
10960W        W79354  29.669   1.401  13.169
10961W        W79355  41.915  24.213  14.326
10962W        W79356  17.712  41.848   0.189
10963W        W79357  10.161  34.021   1.292
10964W        W79358  24.260   8.927   5.560
10965W        W79359  15.820  34.541   4.747
10966W        W79360  22.429  34.479   0.431
10967W        W79361  31.309  15.270   3.131
10968W        W79362   0.037   6.366   3.580
10969W        W79363   9.140   9.509  11.636
10970W        W79364  29.701  29.951  10.764
10971W        W79365  23.952  11.380  13.069
10972W        W79366  37.985   6.296   1.325
10973W        W79367   8.653  29.526  13.006
10974W        W79368  10.767   1.998  12.953
10975W        W79369  39.286  21.025   1.206
10976W        W79370  18.709  33.808   1.845
10977W        W79371   1.200  21.804  14.316
10978W        W79372  44.703  37.387  12.625
10979W        W79373  38.517  18.175  13.264
10980W        W79374  18.396  15.307  13.420
10981W        W79375  24.831  35.911  11.639
10982W        W79376  44.004  19.076   2.577
10983W        W79377   4.917   2.776  12.942
10984W        W79378   1.274  44.801   2.102
10985W        W79379   4.137  35.814  10.905
10986W        W79380   9.477  28.623   0.475
10987W        W79381   2.034  32.654  13.584
10988W        W79382  11.133  22.596   1.807
10989W        W79383  39.453  14.075  13.098
10990W        W79384  28.669  39.122   2.767
10991W        W79385  27.173  31.285  11.637
10992W        W79386  24.732   1.190   3.157
10993W        W79387   5.828  19.505  12.106
10994W        W79388  34.106  26.585  14.017
10995W        W79389  40.463  29.657   0.416
10996W        W79390  12.502  13.004   3.335
10997W        W79391  11.702  13.625  11.213
10998W        W79392   2.893   9.294   4.427
10999W        W79393  20.114   8.575   2.398
11000W        W79394  18.218  32.351   0.895
11001W        W79395  14.553  36.857  14.314
11002W        W79396  18.316  32.625  12.855
11003W        W79397   3.396  22.146  11.179
11004W        W79398  16.900  27.479  13.024
11005W        W79399  34.614  15.158  14.283
11006W        W79400  25.002  39.413  13.158
11007W        W79401   1.562  23.553  14.793
11008W        W79402  41.205  42.605   3.812
11009W        W79403  37.817  12.113   1.744
11010W        W79404  17.029  23.659  11.534
11011W        W79405   7.421  43.807  14.870
11012W        W79406  32.853   2.847   1.093
11013W        W79407  23.937  31.972  12.534
11014W        W79408  35.007  11.080  11.944
11015W        W79409  23.317  20.304   3.108
11016W        W79410  36.461  11.237   4.536
11017W        W79411  43.334  36.468   0.662
11018W        W79412  38.644  27.274  11.626
11019W        W79413   8.423  39.588   0.055
11020W        W79414  39.278  41.945   3.753
11021W        W79415  44.578  40.760  14.528
11022W        W79416  11.444  15.644  10.251
11023W        W79417  37.559  37.421  12.508
11024W        W79418  38.906  12.603  12.106
11025W        W79419  39.741  37.029   1.920
11026W        W79420  11.458   5.863   3.121
11027W        W79421  27.635  15.646  12.469
11028W        W79422  29.477  12.183   4.791
11029W        W79423   6.542  14.548   4.103
11030W        W79424  10.307  43.615   2.458
11031W        W79425  30.936  21.058   3.192
11032W        W79426  25.753  28.098   4.211
11033W        W79427  25.953  33.499  10.630
11034W        W79428  39.535  40.018  11.523
11035W        W79429  32.917   7.330  11.900
11036W        W79430  20.438   1.973  14.354
11037W        W79431  32.889  30.007  10.684
11038W        W79432  26.670  37.864  13.378
11039W        W79433   6.702  14.807  12.734
11040W        W79434   7.169  21.028   3.772
11041W        W79435  30.041  17.483   4.601
11042W        W79436   8.662  21.724  13.336
11043W        W79437  17.389   8.286  12.082
11044W        W79438  19.020   5.161   4.929
11045W        W79439   2.943  23.661   3.522
11046W        W79440  16.837  26.484  13.951
11047W        W79441  28.253  15.626   0.293
11048W        W79442  29.602  17.932   2.308
11049W        W79443   0.959  37.671   2.264
11050W        W79444  24.532  33.074   2.867
11051W        W79445  25.132  31.178  11.662
11052W        W79446  31.017  31.367   0.902
11053W        W79447   4.273  14.375  12.048
11054W        W79448  27.596  41.426   3.860
11055W        W79449  43.428   6.964  13.953
11056W        W79450  22.547   1.752  10.210
11057W        W79451   5.770  33.686  12.901
11058W        W79452  23.160  31.947   4.239
11059W        W79453  23.138  26.435   3.745
11060W        W79454  36.518  18.628  10.364
11061W        W79455  28.704  32.082  12.050
11062W        W79456  43.379   5.155  10.936
11063W        W79457   8.137  43.329  10.642
11064W        W79458  30.617  30.536  11.978
11065W        W79459  44.246   0.632  10.661
11066W        W79460  33.871  42.421  13.467
11067W        W79461  31.588   5.525   4.057
11068W        W79462  33.451  30.149  12.753
11069W        W79463  42.794  21.729  11.651
11070W        W79464  22.077  39.065  11.978
11071W        W79465  17.530  44.241   2.462
11072W        W79466  24.521   8.734   4.285
11073W        W79467  24.584  10.881  10.986
11074W        W79468   0.912  17.218  13.982
11075W        W79469  33.382  21.268  11.608
11076W        W79470  38.802  15.555   2.540
11077W        W79471  27.178  27.531   1.921
11078W        W79472  23.632  16.496  11.124
11079W        W79473  16.898  24.717   0.248
11080W        W79474  36.462  24.045   4.703
11081W        W79475  30.097  29.109  14.914
11082W        W79476  24.770  20.498  10.671
11083W        W79477  16.795  12.120   0.670
11084W        W79478  15.564  30.688   4.602
11085W        W79479   3.246  22.622  10.916
11086W        W79480  38.188  17.602  13.797
11087W        W79481   9.469  20.136  10.021
11088W        W79482   8.104  12.478   0.989
11089W        W79483  41.926  23.113  14.099
11090W        W79484  13.595  34.960  10.572
11091W        W79485  38.546  21.378  10.639
11092W        W79486  19.273  25.712   2.795
11093W        W79487  23.156  41.860  11.211
11094W        W79488  12.854  17.577  12.069
11095W        W79489  41.549  28.000   1.936
11096W        W79490  26.543   3.343   2.290
11097W        W79491  12.438  42.004  10.729
11098W        W79492  44.961  39.800   3.083
11099W        W79493  10.448   3.683   0.482
11100W        W79494   4.867   2.082  10.696
11101W        W79495   4.335  40.183   4.547
11102W        W79496   4.775  33.884  13.420
11103W        W79497  34.995  28.313   1.806
11104W        W79498  41.700  13.156  11.175
11105W        W79499  33.872   7.897   3.282
11106W        W79500  32.203  26.627   1.437
11107W        W79501   4.455  23.636   3.178
11108W        W79502   9.064  22.138   2.303
11109W        W79503  38.159  36.413   4.438
11110W        W79504   8.581   7.297  13.511
11111W        W79505  21.538  21.617   4.146
11112W        W79506  28.491   9.678   2.737
11113W        W79507  18.551  13.752   4.204
11114W        W79508   4.172  25.452   1.762
11115W        W79509  18.720  20.723   5.031
11116W        W79510  14.040  30.381  12.182
11117W        W79511  29.134  42.791   5.203
11118W        W79512  21.041   7.238  12.381
11119W        W79513  31.110   4.937   4.605
11120W        W79514  27.307  30.513   3.390
11121W        W79515   7.178  27.490  10.173
11122W        W79516  35.724   9.412   4.191
11123W        W79517   3.296  34.406  11.168
11124W        W79518  12.627   3.036   3.324
11125W        W79519   8.639  20.762   0.838
11126W        W79520   9.867  44.448   1.729
11127W        W79521  24.805   6.293  11.365
11128W        W79522  39.243  10.394   2.700
11129W        W79523  42.652  13.477  14.532
11130W        W79524  26.154  23.084   0.214
11131W        W79525   7.626   8.139   3.673
11132W        W79526  44.218  28.134   3.251
11133W        W79527  25.477  30.210   1.408
11134W        W79528  28.487  43.637  12.660
11135W        W79529   0.529  33.607  13.885
11136W        W79530   8.744  23.197  11.644
11137W        W79531   0.791   7.595  12.571
11138W        W79532  34.384  30.413   1.051
11139W        W79533  24.155  26.181  13.898
11140W        W79534  41.397  27.332  14.356
11141W        W79535  19.955  18.624  12.423
11142W        W79536  36.588   4.338   0.029
11143W        W79537  12.267  42.557  12.419
11144W        W79538  32.853  32.178  11.002
11145W        W79539  42.954  25.164  14.865
11146W        W79540  41.811   1.131   3.764
11147W        W79541  31.241  10.065   0.718
11148W        W79542  10.223  13.766   0.762
11149W        W79543  22.087  30.968  10.798
11150W        W79544  10.099  25.066   0.583
11151W        W79545   4.270  38.518  10.733
11152W        W79546  43.965  39.325   1.177
11153W        W79547  40.215  30.321   4.224
11154W        W79548  37.521  41.507  14.996
11155W        W79549  34.677  12.661   2.177
11156W        W79550  12.229   2.359  12.096
11157W        W79551  44.903   3.425   5.012
11158W        W79552  44.577   0.746   1.518
11159W        W79553  28.248   7.692  11.548
11160W        W79554  40.152   8.237  11.638
11161W        W79555  27.974  41.032   4.374
11162W        W79556   1.251  33.947   1.464
11163W        W79557  35.773  43.362   0.802
11164W        W79558  44.239  36.620  14.701
11165W        W79559  20.089  21.047   4.595
11166W        W79560  42.034  34.350  12.122
11167W        W79561  20.099   4.345   4.432
11168W        W79562  24.274   5.862   3.716
11169W        W79563  31.660   9.280  12.034
11170W        W79564  36.050  41.028   4.317
11171W        W79565   3.686  26.487  13.412
11172W        W79566  16.184  28.221   1.118
11173W        W79567  38.597  41.349   1.070
11174W        W79568  43.811  13.992  12.940
11175W        W79569  19.620  12.537   1.257
11176W        W79570  27.547  34.652  11.615
11177W        W79571  11.526   9.923  11.953
11178W        W79572  23.660   7.702   0.802
11179W        W79573   5.668  37.570  13.924
11180W        W79574  26.250   6.985   0.796
11181W        W79575  15.644  32.017  13.830
11182W        W79576  37.039  27.571  14.469
11183W        W79577  11.191  41.321   0.790
11184W        W79578  35.185  27.305  11.909
11185W        W79579   5.781  31.874   0.242
11186W        W79580  39.743  27.902  10.916
11187W        W79581  28.555  38.838   1.342
11188W        W79582  30.527  39.780  10.767
11189W        W79583  11.485  12.343   2.005
11190W        W79584  36.291  38.989   0.363
11191W        W79585  23.002  27.032  11.088
11192W        W79586  25.481  31.560  11.030
11193W        W79587  16.443   7.462   4.523
11194W        W79588  37.099  38.014  10.523
11195W        W79589  35.400  30.173  11.173
11196W        W79590  27.600  15.623   1.708
11197W        W79591  12.111  23.632   3.657
11198W        W79592  16.553   5.738   4.512
11199W        W79593   1.764  40.717  13.052
11200W        W79594  12.525   8.663   3.957
11201W        W79595   1.459  25.140  11.628
11202W        W79596  26.585  31.332   0.906
11203W        W79597  38.091  12.696  12.438
11204W        W79598  38.015   8.145  12.114
11205W        W79599  31.593  18.166   1.455
11206W        W79600  29.449  26.001  11.377
11207W        W79601  25.914  40.513  12.956
11208W        W79602   6.932  17.634  13.440
11209W        W79603  40.763  12.724   2.774
11210W        W79604  40.315  37.489   4.986
11211W        W79605  43.788  15.271  12.458
11212W        W79606   6.847  28.761   4.728
11213W        W79607  10.777  40.780   2.306
11214W        W79608  17.680  17.806   1.990
11215W        W79609  39.168   8.049   0.084
11216W        W79610  16.311  29.567  12.173
11217W        W79611   2.059  27.905  14.849
11218W        W79612  17.830  33.033   0.741
11219W        W79613  13.130  43.998   0.778
11220W        W79614  20.696  30.698   4.066
11221W        W79615  18.504  44.755   0.360
11222W        W79616  12.695  15.415   1.787
11223W        W79617  16.673  21.139   0.076
11224W        W79618   8.384   5.701  14.362
11225W        W79619   0.870  31.425   3.171
11226W        W79620   7.681  27.219  14.598
11227W        W79621  26.527  31.997   1.200
11228W        W79622  19.712  15.785  12.883
11229W        W79623  35.108  36.899  12.958
11230W        W79624  31.605   1.404  10.964
11231W        W79625  23.026  40.800  13.841
11232W        W79626  34.818  39.396   2.783
11233W        W79627   7.617  27.159   3.231
11234W        W79628  12.851  14.733   0.024
11235W        W79629  23.230  44.940  11.195
11236W        W79630   9.097   3.269   1.497
11237W        W79631  39.281  14.702  13.440
11238W        W79632  10.782  37.506  10.924
11239W        W79633  11.147  26.659  11.847
11240W        W79634  42.527  42.502  11.961
11241W        W79635  44.806  24.387   0.809
11242W        W79636  27.935  20.483  12.433
11243W        W79637  19.221  35.371   0.214
11244W        W79638   2.190  28.481  13.681
11245W        W79639   8.902   7.304  12.908
11246W        W79640  26.594   3.953  12.109
11247W        W79641  15.251   8.106  13.871
11248W        W79642  20.184  25.562  14.785
11249W        W79643  21.950  28.606   9.847
11250W        W79644   5.356  20.824   4.587
11251W        W79645  41.370  37.261  12.539
11252W        W79646  44.319  17.085  11.455
11253W        W79647  39.751  20.174   2.596
11254W        W79648   5.642  25.196  14.280
11255W        W79649  20.330   1.049  11.029
11256W        W79650  43.017  39.798   4.208
11257W        W79651  39.490   3.719   0.181
11258W        W79652  24.371  12.398   2.557
11259W        W79653  15.923  42.004   1.735
11260W        W79654  21.382  10.351   4.740
11261W        W79655  18.865   1.474   3.821
11262W        W79656  23.712  22.224   1.354
11263W        W79657   3.471  27.085  10.371
11264W        W79658  31.735  18.315  10.762
11265W        W79659  21.681  13.940   0.230
11266W        W79660  32.056  28.708   2.096
11267W        W79661   4.440   7.671  14.567
11268W        W79662  16.034  26.487  11.062
11269W        W79663  21.158   6.736   1.918
11270W        W79664  32.628  10.304  12.828
11271W        W79665   4.644  28.495  11.680
11272W        W79666  37.011  24.723  11.127
11273W        W79667  10.159  37.013   1.923
11274W        W79668  18.981  22.593  13.848
11275W        W79669  19.366  13.046  13.347
11276W        W79670   7.834  23.662  12.887
11277W        W79671  22.549  16.095  10.877
11278W        W79672  41.082  26.430   3.831
11279W        W79673  12.960  41.325  12.058
11280W        W79674  10.345  25.943   2.770
11281W        W79675  41.517  20.816   3.633
11282W        W79676  30.095  11.566   0.036
11283W        W79677  12.720   3.663  12.126
11284W        W79678  27.062  19.725   2.753
11285W        W79679  19.557   7.511  12.789
11286W        W79680  40.492  42.478  12.582
11287W        W79681   3.858  38.779   2.645
11288W        W79682  29.555  13.645  14.157
11289W        W79683  43.448  25.536  13.823
11290W        W79684  12.372  43.117  10.738
11291W        W79685  41.774  20.260   2.462
11292W        W79686  37.380   2.300   4.574
11293W        W79687  23.330  14.823   3.299
11294W        W79688  21.300   5.176   1.413
11295W        W79689  25.940  21.698   0.020
11296W        W79690   4.465   4.407  11.625
11297W        W79691  28.147  44.494  12.351
11298W        W79692  35.369  22.793   3.106
11299W        W79693  42.305  17.547  13.956
11300W        W79694  16.317  22.548  13.756
11301W        W79695   6.091   9.637  11.094
11302W        W79696  26.268  29.354   4.142
11303W        W79697  31.943  29.583   4.021
11304W        W79698  15.645  32.643   2.398
11305W        W79699  26.674  23.431   3.219
11306W        W79700  40.898  16.203  12.338
11307W        W79701  19.948  38.441   4.540
11308W        W79702   4.459  30.458  13.384
11309W        W79703  28.172  12.695  12.401
11310W        W79704  33.444   6.482  12.173
11311W        W79705  34.697  32.972  12.016
11312W        W79706  21.471   7.195   2.826
11313W        W79707  40.961  35.483  12.072
11314W        W79708  31.836   5.798  11.994
11315W        W79709   7.848  36.191   4.260
11316W        W79710  17.289  16.477  12.446
11317W        W79711  21.641  28.360   0.539
11318W        W79712  36.453  26.201   3.850
11319W        W79713  31.878  10.196   0.026
11320W        W79714  19.489  15.815  14.857
11321W        W79715   3.345  42.552   3.046
11322W        W79716  44.843   9.251   4.872
11323W        W79717   2.402   7.732  12.953
11324W        W79718  27.188  24.765   1.514
11325W        W79719  12.116   1.407  11.012
11326W        W79720   0.524  18.189  12.058
11327W        W79721  15.198  10.406  14.890
11328W        W79722  25.096  12.946   2.342
11329W        W79723  30.985   2.971   1.198
11330W        W79724  15.639  11.917   3.322
11331W        W79725  26.692  22.132  12.588
11332W        W79726  43.298  22.181  11.540
11333W        W79727  26.507  13.725  13.450
11334W        W79728   7.843  35.185  13.450
11335W        W79729  44.367  30.942   1.164
11336W        W79730  34.137  32.954   2.259
11337W        W79731  31.363   3.871  10.647
11338W        W79732   6.733   1.332  14.473
11339W        W79733  15.409   1.670  12.561
11340W        W79734  34.645  17.611   1.381
11341W        W79735  34.633   6.579  12.567
11342W        W79736   4.802  43.111   2.585
11343W        W79737  41.483  22.424  14.415
11344W        W79738   3.754  32.533  14.404
11345W        W79739  44.536  30.520   2.332
11346W        W79740  28.074  23.929   2.237
11347W        W79741   7.845  28.059   1.213
11348W        W79742  25.196   7.155  13.183
11349W        W79743  23.783   4.353   3.573
11350W        W79744   9.178  21.532   2.871
11351W        W79745  35.641  21.608  14.212
11352W        W79746  24.779  22.050   4.402
11353W        W79747  10.539  17.251  12.008
11354W        W79748  25.690   9.467   2.771
11355W        W79749  44.241   3.506  12.503
11356W        W79750  12.687   1.184  12.070
11357W        W79751  34.409  24.635  11.252
11358W        W79752   6.160  31.980  14.307
11359W        W79753  26.167   6.187   1.275
11360W        W79754   1.894  23.015   2.848
11361W        W79755  42.419  40.219   1.883
11362W        W79756  23.441  36.089  11.121
11363W        W79757  35.874  19.251   0.411
11364W        W79758  25.323  19.262   0.524
11365W        W79759  39.091  40.055   1.392
11366W        W79760   8.641  18.175   0.342
11367W        W79761  22.563  11.768  12.988
11368W        W79762  36.324  42.002   1.903
11369W        W79763  16.634  26.337  12.169
11370W        W79764  31.714  11.307   3.891
11371W        W79765  37.141  27.982  11.631
11372W        W79766  32.997  35.599   2.360
11373W        W79767  32.884   5.163  14.468
11374W        W79768   5.414  41.561   1.390
11375W        W79769  41.724  19.189   4.219
11376W        W79770  15.540  23.068   3.169
11377W        W79771   9.085  16.152   0.852
11378W        W79772  41.644  43.850   1.993
11379W        W79773  26.804  32.448  12.443
11380W        W79774  37.143  38.462   2.824
11381W        W79775  39.773  12.823   4.510
11382W        W79776  22.875   9.194   0.268
11383W        W79777  16.214  18.119  11.110
11384W        W79778  43.406  11.547  14.963
11385W        W79779  44.386  44.239   2.718
11386W        W79780  33.973   4.815  14.450
11387W        W79781  14.927  28.140   3.483
11388W        W79782  16.310  18.630   3.591
11389W        W79783  20.610  35.623   0.648
11390W        W79784   5.882  12.803  11.495
11391W        W79785  28.593  44.514   2.421
11392W        W79786  34.253  37.596  12.362
11393W        W79787  14.349  43.375  10.633
11394W        W79788  40.102  19.184  14.911
11395W        W79789  20.686  34.685  14.245
11396W        W79790  24.199  23.072   1.595
11397W        W79791   8.847  18.662  13.820
11398W        W79792  15.770  30.534   4.153
11399W        W79793   9.577  26.347   0.802
11400W        W79794  33.876  44.150  12.692
11401W        W79795  34.815  44.391   3.244
11402W        W79796  40.510   6.256  13.048
11403W        W79797  31.597   8.776   1.342
11404W        W79798  43.079  39.399  10.699
11405W        W79799  24.993  23.410   3.082
11406W        W79800  17.012  13.959   2.814
11407W        W79801  20.725  12.223  11.711
11408W        W79802  10.817  44.500  11.564
11409W        W79803  44.205  33.573  14.310
11410W        W79804  12.314  41.016   1.865
11411W        W79805  30.565  28.887  12.412
11412W        W79806  39.530  15.063   0.809
11413W        W79807  40.942  29.505   0.393
11414W        W79808  33.958  34.354  13.156
11415W        W79809  40.634  18.618  14.389
11416W        W79810   4.680   5.530   4.533
11417W        W79811  31.614  18.600   4.644
11418W        W79812  24.743  40.098   4.624
11419W        W79813  12.636  20.668   0.836
11420W        W79814   4.126  12.632  12.134
11421W        W79815  30.867  36.478  12.536
11422W        W79816  35.276  20.971  11.587
11423W        W79817  18.847  10.232  11.117
11424W        W79818  40.782  22.648  13.877
11425W        W79819  31.355  43.795  11.214
11426W        W79820  17.732   3.529   0.297
11427W        W79821   1.638   8.589  12.120
11428W        W79822  44.006  23.181  13.370
11429W        W79823   8.202  41.738   1.631
11430W        W79824   3.877  29.684  11.639
11431W        W79825  17.320  13.379  13.683
11432W        W79826  23.394  28.917   4.223
11433W        W79827   1.567   8.328  13.752
11434W        W79828   8.923  25.696  12.566
11435W        W79829  33.534  20.025   3.872
11436W        W79830   0.515  39.799   9.969
11437W        W79831  41.050  17.088  14.934
11438W        W79832  32.841  26.166   0.444
11439W        W79833  35.771  23.551  14.331
11440W        W79834  40.043  39.317   2.655
11441W        W79835  24.047  42.426  13.086
11442W        W79836  24.171  43.736   4.071
11443W        W79837  20.045  13.182  14.134
11444W        W79838   4.764   6.166  14.871
11445W        W79839  11.655   8.202  11.170
11446W        W79840   2.791  11.684   1.801
11447W        W79841  11.339  20.157   3.612
11448W        W79842  21.187  41.275  14.365
11449W        W79843  13.092  44.719   3.936
11450W        W79844  19.924  25.243  12.053
11451W        W79845  33.196  12.757  12.036
11452W        W79846   7.764  12.136  12.488
11453W        W79847  26.623   6.307   1.024
11454W        W79848  12.015  28.945   5.082
11455W        W79849  14.081  17.486   0.320
11456W        W79850   5.186  43.827   0.964
11457W        W79851  30.043  14.821   1.666
11458W        W79852   0.435  41.415   4.377
11459W        W79853   3.064   6.909   3.353
11460W        W79854  23.446  11.088  12.952
11461W        W79855  29.046   5.577   0.489
11462W        W79856   0.020  14.213   2.000
11463W        W79857  30.020  37.878  13.859
11464W        W79858  13.451  12.466  12.046
11465W        W79859  17.435  43.174  14.052
11466W        W79860  42.998  23.641   1.149
11467W        W79861   7.354  39.622   2.902
11468W        W79862  31.878  22.104  13.952
11469W        W79863  32.330  43.309   2.227
11470W        W79864  23.624  32.919  13.322
11471W        W79865  33.943  22.425   1.210
11472W        W79866  27.575  35.471  10.664
11473W        W79867   5.222  24.988  11.012
11474W        W79868  31.600  22.182  14.905
11475W        W79869   7.884  26.334  12.257
11476W        W79870  44.509  14.317   1.839
11477W        W79871  14.396  41.951  13.114
11478W        W79872  28.122  26.218   1.317
11479W        W79873  18.117   0.798   0.442
11480W        W79874  42.106  29.468  14.527
11481W        W79875  23.087  38.622   4.629
11482W        W79876  25.412   1.852  13.335
11483W        W79877  40.307   2.708  13.322
11484W        W79878  24.842  29.662   4.729
11485W        W79879  21.532  29.606   1.233
11486W        W79880  13.205  35.270   3.703
11487W        W79881  11.725  14.141   4.112
11488W        W79882  41.451  32.982  10.702
11489W        W79883   8.878  38.590  14.264
11490W        W79884  32.317   9.589  11.831
11491W        W79885   8.167  44.283   1.252
11492W        W79886  21.977  30.528   4.696
11493W        W79887  24.219   1.353  10.611
11494W        W79888  25.230   4.793   4.614
11495W        W79889  22.827  22.186   2.674
11496W        W79890   4.177  38.124  14.326
11497W        W79891   2.861  26.320   2.344
11498W        W79892  43.354  26.741  12.456
11499W        W79893  21.957  10.393  11.544
11500W        W79894  10.734  11.933   1.675
11501W        W79895  41.097  33.127   2.002
11502W        W79896  31.977   6.417   1.895
11503W        W79897  40.352  37.790  11.215
11504W        W79898  34.011  36.075   1.369
11505W        W79899  36.370   9.245  13.128
11506W        W79900   5.513  15.994  13.862
11507W        W79901  20.030  40.938  12.086
11508W        W79902  25.879  23.816  11.147
11509W        W79903  37.445  16.347  14.917
11510W        W79904   9.362  21.931   1.900
11511W        W79905  19.972  27.168  14.462
11512W        W79906  23.715  38.411   3.270
11513W        W79907  34.069  15.823  13.354
11514W        W79908   1.884  32.927   4.252
11515W        W79909  34.845  33.027  14.060
11516W        W79910   3.811  37.489   2.273
11517W        W79911  13.371   1.392  10.736
11518W        W79912  31.174  31.209  11.907
11519W        W79913   8.048  23.548  11.561
11520W        W79914  42.246   4.440  11.987
11521W        W79915   2.440  18.166  11.101
11522W        W79916  43.420   9.803  13.752
11523W        W79917   1.688   5.181   1.455
11524W        W79918  31.973   4.913  11.937
11525W        W79919  15.302  20.715  13.458
11526W        W79920  15.491  38.796  14.826
11527W        W79921  36.571  39.585   1.453
11528W        W79922  41.382  36.690   9.748
11529W        W79923  23.682  15.741  13.898
11530W        W79924  11.187  28.559  11.656
11531W        W79925  15.041  35.022   1.885
11532W        W79926   5.731  38.297   2.707
11533W        W79927  29.468  38.341   1.116
11534W        W79928   2.928  40.640   0.320
11535W        W79929  37.390   2.691  11.164
11536W        W79930   8.627  11.693   2.858
11537W        W79931  16.263  34.646   2.797
11538W        W79932  13.448   8.641  14.858
11539W        W79933  26.147  18.779   0.049
11540W        W79934  43.296  20.319  11.074
11541W        W79935   6.295  17.978  11.697
11542W        W79936  34.641  40.882   3.737
11543W        W79937  27.124  26.125   0.698
11544W        W79938  34.347  40.089   4.135
11545W        W79939   0.526   7.719  11.099
11546W        W79940   1.698   9.848   1.313
11547W        W79941  44.468  16.992   9.768
11548W        W79942  26.110  32.157  12.823
11549W        W79943  14.495  41.572  12.354
11550W        W79944  17.749  36.311   2.704
11551W        W79945  13.401   3.928  12.446
11552W        W79946  44.616  42.041   1.382
11553W        W79947  11.591  43.577  13.808
11554W        W79948  38.037  10.249  13.014
11555W        W79949  34.328   9.634  11.208
11556W        W79950  24.239  31.422   0.501
11557W        W79951  14.989   5.874   3.736
11558W        W79952  42.982   5.925   4.207
11559W        W79953  26.103  12.268   4.495
11560W        W79954  40.895  36.840  10.412
11561W        W79955  20.658  42.328   2.962
11562W        W79956  16.664  19.190  13.828
11563W        W79957   1.431   6.976  14.820
11564W        W79958   6.768  27.463   0.220
11565W        W79959  10.849  11.911   2.707
11566W        W79960  17.083  35.079  10.965
11567W        W79961   6.940  27.279  11.083
11568W        W79962  31.499  26.937   3.853
11569W        W79963   6.104  43.837   3.780
11570W        W79964   5.413   4.449   3.106
11571W        W79965  28.689  43.920   1.831
11572W        W79966  37.007  12.095  12.957
11573W        W79967  23.018  34.947   1.185
11574W        W79968  23.051  18.180   2.628
11575W        W79969  35.377  28.817   2.719
11576W        W79970  18.978  28.639  13.901
11577W        W79971  13.746  11.815  11.194
11578W        W79972  33.115  21.268   3.712
11579W        W79973  27.038   6.140   2.734
11580W        W79974  27.410  35.388  11.865
11581W        W79975  32.269  12.865   1.715
11582W        W79976  15.690   9.651  13.441
11583W        W79977  41.536  34.364  11.821
11584W        W79978  14.368  18.600  13.372
11585W        W79979  44.905  21.090   0.917
11586W        W79980   0.745  27.676   2.325
11587W        W79981  34.953   9.584   3.675
11588W        W79982  25.760  30.652  13.609
11589W        W79983  19.623  15.678   2.330
11590W        W79984   7.549  42.585   2.862
11591W        W79985   1.703  31.942  11.172
11592W        W79986  33.985  13.602  12.932
11593W        W79987  39.507  35.365  11.428
11594W        W79988  23.979  11.628   0.426
11595W        W79989   1.684  40.961  10.820
11596W        W79990   9.041  43.403  10.972
11597W        W79991  27.429  11.152  14.821
11598W        W79992  36.790  41.620   2.524
11599W        W79993  34.863   6.209   4.566
11600W        W79994  23.598  13.426   3.116
11601W        W79995   7.886  31.446   3.803
11602W        W79996  36.293  25.145   1.753
11603W        W79997  40.984  34.945   3.194
11604W        W79998  21.270  23.149  13.119
11605W        W79999  42.947  31.631  12.104
11606W        W80000  30.132   5.727  12.905
11607W        W80001  33.425   5.695   1.731
11608W        W80002   0.367   7.830   3.859
11609W        W80003  19.223  35.846  14.949
11610W        W80004  28.036  16.983  10.381
11611W        W80005  19.088  14.409   2.154
11612W        W80006  21.607  27.555   4.568
11613W        W80007  19.558  42.046  12.223
11614W        W80008  34.090  42.287   3.146
11615W        W80009  44.277  25.653   0.636
11616W        W80010   5.308  34.404   0.645
11617W        W80011   0.548  38.369   3.115
11618W        W80012  35.470   8.931   3.269
11619W        W80013  13.879  41.992   1.317
11620W        W80014  33.877  13.254   3.722
11621W        W80015  16.535   8.327   1.803
11622W        W80016  16.173   8.824  10.699
11623W        W80017  26.441  40.066  10.530
11624W        W80018  34.908  30.437   2.768
11625W        W80019   8.215   5.218  13.450
11626W        W80020   3.960  23.233   0.116
11627W        W80021  26.510  19.703   1.478
11628W        W80022  38.875  34.067   4.556
11629W        W80023  10.558  11.785  12.840
11630W        W80024  39.723  30.456   2.726
11631W        W80025  27.422  26.433  12.927
11632W        W80026  39.460  31.854  14.969
11633W        W80027   1.519  10.381  11.574
11634W        W80028  37.076  25.059  10.734
11635W        W80029  11.592  28.904  13.274
11636W        W80030  12.510  17.642   4.190
11637W        W80031  12.150   7.586  13.448
11638W        W80032   6.205   3.472  14.097
11639W        W80033  31.354  20.400  11.148
11640W        W80034  23.607  38.109  12.073
11641W        W80035  41.818  30.255  10.370
11642W        W80036   5.031   6.361  13.355
11643W        W80037   1.779  43.045   0.368
11644W        W80038  42.957  22.982  12.035
11645W        W80039  41.969  17.277   2.723
11646W        W80040  26.645   4.632  13.911
11647W        W80041  16.522  17.590  14.481
11648W        W80042  27.221  24.514  14.655
11649W        W80043   8.210  29.416   3.628
11650W        W80044  20.553  25.734  13.969
11651W        W80045   2.704   2.311   1.760
11652W        W80046  29.397  20.025  14.322
11653W        W80047  23.606  37.872   2.476
11654W        W80048  33.975  41.784  12.928
11655W        W80049  15.743  14.771   5.114
11656W        W80050   8.642  31.782   4.135
11657W        W80051  24.200   6.324   1.398
11658W        W80052  10.807  43.482   1.843
11659W        W80053  15.825  39.986  12.151
11660W        W80054   7.444  44.868  12.490
11661W        W80055  38.445  29.783   0.311
11662W        W80056  40.520  32.053  10.080
11663W        W80057  44.235  26.592   3.807
11664W        W80058  10.371  23.997   5.009
11665W        W80059  40.155   9.285  10.576
11666W        W80060  41.570  17.736   3.556
11667W        W80061  42.760  33.607   2.835
11668W        W80062  11.155  37.928  11.734
11669W        W80063  43.294   5.777   4.622
11670W        W80064  15.669   5.223  11.189
11671W        W80065  11.641  25.478   1.334
11672W        W80066  19.806  44.148   4.533
11673W        W80067  41.332  33.879  11.922
11674W        W80068   2.706  44.710   3.128
11675W        W80069  12.555  44.261   4.107
11676W        W80070  21.961  32.907   0.892
11677W        W80071  19.083  17.375  13.321
11678W        W80072  11.648  40.424   3.638
11679W        W80073  10.165  16.296   0.813
11680W        W80074  20.136  16.469   4.520
11681W        W80075  31.934  39.452  14.550
11682W        W80076  38.290   9.983   3.142
11683W        W80077  19.375  26.082   2.377
11684W        W80078  35.882  30.845  13.118
11685W        W80079  35.042  27.059  10.629
11686W        W80080   1.421   2.734   1.892
11687W        W80081   4.690  22.632   4.155
11688W        W80082  30.368  18.730   4.103
11689W        W80083  24.977  35.926  14.096
11690W        W80084  34.209  12.705  11.895
11691W        W80085  36.680  28.029   0.327
11692W        W80086  15.397  10.749   1.666
11693W        W80087   3.219   0.717  10.625
11694W        W80088  32.872  36.143   3.257
11695W        W80089  26.638  20.181  13.996
11696W        W80090  36.193  39.495  13.547
11697W        W80091  13.620  23.424   2.753
11698W        W80092   3.267   8.843   2.895
11699W        W80093  31.362  15.708   3.593
11700W        W80094  22.594  13.459   2.878
11701W        W80095   3.248   2.424   0.791
11702W        W80096  14.580  43.295  11.114
11703W        W80097   7.170  34.154  12.083
11704W        W80098  23.298  17.099  13.568
11705W        W80099  41.039  37.505   1.287
11706W        W80100  22.323   7.924  11.444
11707W        W80101  38.363  38.835  12.093
11708W        W80102  44.357   8.938   4.145
11709W        W80103   1.067  41.356   5.115
11710W        W80104  32.015  18.434  13.946
11711W        W80105  26.959  36.451   4.203
11712W        W80106  16.116  36.074   2.454
11713W        W80107  31.434  18.624   1.734
11714W        W80108   8.658  38.912  11.696
11715W        W80109  33.370   9.155  14.407
11716W        W80110  43.115  17.293  12.291
11717W        W80111   0.872  33.261   4.296
11718W        W80112  20.320  30.690   3.701
11719W        W80113  17.363  42.247  11.583
11720W        W80114   2.313  35.853   1.621
11721W        W80115  31.875  12.618  14.318
11722W        W80116  31.142  41.829   4.283
11723W        W80117  10.902  13.670  12.044
11724W        W80118  24.653  28.287   3.348
11725W        W80119   9.848  32.156  13.780
11726W        W80120  43.346  23.210   3.305
11727W        W80121  24.615  24.567   1.486
11728W        W80122  26.650  26.086   1.450
11729W        W80123  35.930   1.569   3.989
11730W        W80124  30.635  17.747  11.725
11731W        W80125  33.423  21.548  12.034
11732W        W80126  26.668  39.388  11.010
11733W        W80127  42.542  11.038   0.048
11734W        W80128  28.981  13.098  12.550
11735W        W80129  14.847  38.990   1.340
11736W        W80130  17.453   6.140  14.308
11737W        W80131   9.029  31.459  11.637
11738W        W80132   3.867  19.873  13.023
11739W        W80133  34.858   9.356  14.459
11740W        W80134  23.151   0.528  11.975
11741W        W80135  21.769  44.687  12.370
11742W        W80136   3.488   0.220  11.417
11743W        W80137   6.725  34.908  14.970
11744W        W80138   2.131   3.166   3.190
11745W        W80139   8.676  12.963  13.518
11746W        W80140  41.014  40.962   2.854
11747W        W80141  37.845   5.302   2.822
11748W        W80142  42.266  37.376  12.115
11749W        W80143  18.735  11.658   1.557
11750W        W80144   7.366  26.189   3.793
11751W        W80145  27.100   1.921   5.086
11752W        W80146   0.322  42.077  12.504
11753W        W80147   5.823  24.065  13.105
11754W        W80148  18.165  34.333  11.595
11755W        W80149  14.327  28.604   4.539
11756W        W80150  12.202   3.810   3.276
11757W        W80151  36.858   6.809  13.826
11758W        W80152   5.385  32.379  10.730
11759W        W80153  22.288   4.123  14.372
11760W        W80154   2.806  10.430  12.390
11761W        W80155  19.718  35.978   0.718
11762W        W80156  33.525  24.644  12.877
11763W        W80157   3.419  37.589   1.931
11764W        W80158  35.195  26.103   3.280
11765W        W80159  11.405  40.337  14.442
11766W        W80160  10.399  41.925  10.532
11767W        W80161  39.346   9.707   0.471
11768W        W80162  25.000  33.688   1.251
11769W        W80163  30.852  21.217   3.708
11770W        W80164   1.467   5.646   1.336
11771W        W80165  22.842  16.029  14.460
11772W        W80166   1.433  39.014  10.590
11773W        W80167   7.566  16.032  11.598
11774W        W80168  32.086  27.809  10.385
11775W        W80169  26.451  43.377  12.147
11776W        W80170  14.000  16.381  13.488
11777W        W80171  31.062  42.445  10.456
11778W        W80172  36.919   1.451  11.015
11779W        W80173  10.805   3.266   3.871
11780W        W80174  35.872   7.192  13.719
11781W        W80175  16.219  24.986  14.954
11782W        W80176  10.282  10.915   0.894
11783W        W80177   9.360  31.434  13.902
11784W        W80178  26.293  21.556  10.585
11785W        W80179  40.062   1.817  14.921
11786W        W80180   6.812  39.991  14.298
11787W        W80181   0.194  36.596  14.289
11788W        W80182  14.046  17.117   2.134
11789W        W80183  26.474  13.762  12.024
11790W        W80184   9.563   5.020  10.244
11791W        W80185  42.012  37.878   1.732
11792W        W80186   8.720  21.241  13.560
11793W        W80187  33.491   9.612  12.509
11794W        W80188   5.751  40.087  10.404
11795W        W80189   7.917  11.459   4.417
11796W        W80190  14.008  18.772   0.301
11797W        W80191  20.013  41.709   4.557
11798W        W80192  16.124  20.609  12.913
11799W        W80193  17.154  11.438  12.649
11800W        W80194  20.610  42.199  14.754
11801W        W80195  36.039   6.115   2.242
11802W        W80196  21.188  27.751  14.859
11803W        W80197  10.256  33.019   1.263
11804W        W80198  16.033  28.506   3.603
11805W        W80199  40.975  35.941   4.715
11806W        W80200  34.410   7.656   0.381
11807W        W80201  29.769  35.024   5.030
11808W        W80202  14.336  31.841  11.112
11809W        W80203  18.603   2.719   0.459
11810W        W80204  14.279  30.341  13.016
11811W        W80205   1.793  11.438  14.839
11812W        W80206   9.876   5.289  13.386
11813W        W80207  28.988  33.396   0.917
11814W        W80208  24.690  31.501  12.542
11815W        W80209  18.465  33.905   4.386
11816W        W80210  18.733  44.839  11.689
11817W        W80211  24.105  18.013   1.907
11818W        W80212   5.941  13.750  11.751
11819W        W80213  18.127  22.617   2.845
11820W        W80214  12.736   6.735  13.862
11821W        W80215  13.246  15.871  11.175
11822W        W80216   2.413  32.927   0.480
11823W        W80217   1.200   4.950  11.650
11824W        W80218  15.946  29.952   3.126
11825W        W80219  39.447  35.553   0.885
11826W        W80220   1.014   5.894   2.758
11827W        W80221  25.645  13.090   9.734
11828W        W80222   3.301  10.376  13.965
11829W        W80223  15.822   9.248  14.875
11830W        W80224   0.479  32.185   4.054
11831W        W80225  22.318  40.036  13.045
11832W        W80226  35.406   4.722  11.842
11833W        W80227  30.389   0.868  14.997
11834W        W80228  24.565  35.907   3.054
11835W        W80229  21.549  35.414   2.816
11836W        W80230  36.437  22.442  14.048
11837W        W80231   1.545  27.975   2.548
11838W        W80232   7.750  26.608  11.197
11839W        W80233   6.835  24.095  12.165
11840W        W80234   9.430  25.563  12.545
11841W        W80235  42.468   9.435  12.977
11842W        W80236  23.247  25.446  10.978
11843W        W80237   5.966  39.389   4.460
11844W        W80238  11.675  16.815   4.935
11845W        W80239  26.701   9.833   1.941
11846W        W80240   6.804  31.669   1.652
11847W        W80241  25.571  39.525  12.040
11848W        W80242   2.707   4.519   2.704
11849W        W80243  43.645  39.627   2.652
11850W        W80244  24.212  24.942  10.500
11851W        W80245  25.430  21.506   4.344
11852W        W80246  43.450  42.031  13.970
11853W        W80247  20.119   2.264  13.252
11854W        W80248  39.912  28.632  13.751
11855W        W80249   3.645   4.297  14.019
11856W        W80250  24.591  25.419   0.260
11857W        W80251   7.596  25.191  14.352
11858W        W80252  26.891   8.156  13.764
11859W        W80253  35.152  23.961   4.900
11860W        W80254  19.128  41.209  13.475
11861W        W80255  27.683   3.348   1.271
11862W        W80256   0.615  10.020   4.022
11863W        W80257  28.459  27.590   3.295
11864W        W80258  39.520  22.998   2.303
11865W        W80259  43.278  38.746  14.438
11866W        W80260  20.801  19.114  10.141
11867W        W80261  30.957  19.325   1.859
11868W        W80262  17.823  42.966  13.314
11869W        W80263  40.737  30.159  11.190
11870W        W80264   6.175  29.539  12.081
11871W        W80265   4.613  40.507   3.115
11872W        W80266  25.076  36.278   2.324
11873W        W80267  37.519  43.646  12.752
11874W        W80268  22.836  40.279   5.013
11875W        W80269  10.664  28.888  14.933
11876W        W80270   8.773   9.361   1.253
11877W        W80271  15.863  17.012   3.204
11878W        W80272  20.235  22.622   1.762
11879W        W80273   0.000   6.842   2.686
11880W        W80274  32.332  26.113   0.364
11881W        W80275  33.334  36.011   4.055
11882W        W80276  32.842   6.633  11.146
11883W        W80277  31.628  41.569  12.481
11884W        W80278  36.523  17.761   0.266
11885W        W80279   1.560  34.538  14.051
11886W        W80280   0.776   8.818  13.976
11887W        W80281  21.177  13.473  10.708
11888W        W80282   5.021  27.999  12.129
11889W        W80283   3.665  16.606   2.447
11890W        W80284  23.949  20.735   3.772
11891W        W80285   4.782  14.279   2.147
11892W        W80286  32.559  26.482  11.355
11893W        W80287   2.153  43.802   0.542
11894W        W80288  14.087  31.073   3.834
11895W        W80289  40.510  18.769   2.141
11896W        W80290   9.811  25.067   1.175
11897W        W80291  37.404  26.617   3.624
11898W        W80292  14.682   6.882   3.541
11899W        W80293  25.067  38.743  11.079
11900W        W80294  16.218  42.145  12.968
11901W        W80295   1.348  19.561   1.776
11902W        W80296  16.095  20.748   0.259
11903W        W80297  41.511  37.757  12.415
11904W        W80298  11.825  12.106   2.928
11905W        W80299  17.046  29.710   0.218
11906W        W80300  21.664   8.903   3.947
11907W        W80301  30.166  41.196  13.278
11908W        W80302  24.722  38.035   4.195
11909W        W80303  33.030   2.763  12.394
11910W        W80304  10.328   8.572   2.367
11911W        W80305   9.111  38.627   1.857
11912W        W80306   6.999  37.553  11.611
11913W        W80307  13.356  31.353  12.473
11914W        W80308  29.073  14.426   2.152
11915W        W80309   9.224  39.975   0.395
11916W        W80310  17.761  40.461   1.050
11917W        W80311  23.283   9.925   3.658
11918W        W80312  22.498  22.517   4.291
11919W        W80313   5.266  34.053  13.497
11920W        W80314  15.075  28.161  12.879
11921W        W80315  31.188  16.508   1.265
11922W        W80316  39.057  39.024   4.193
11923W        W80317  26.967  11.636   1.732
11924W        W80318  40.473   3.796   0.185
11925W        W80319   6.112  39.463   3.623
11926W        W80320  29.559  36.956   3.918
11927W        W80321  21.172  41.817  14.395
11928W        W80322  10.638  26.128  13.789
11929W        W80323  38.355  39.918   1.908
11930W        W80324   3.045  31.171   0.589
11931W        W80325   3.905  33.520  10.673
11932W        W80326  31.030   4.759  11.130
11933W        W80327  27.415  36.023  13.337
11934W        W80328  43.259   9.879   3.189
11935W        W80329  25.580  32.966   1.294
11936W        W80330  30.081  30.862   0.809
11937W        W80331  30.249  42.803   4.532
11938W        W80332  35.328  14.347  13.870
11939W        W80333  16.150  25.179  10.732
11940W        W80334  42.964  10.167  14.534
11941W        W80335  24.220  40.043   4.667
11942W        W80336  36.099  35.297  11.968
11943W        W80337  33.173  15.549  11.293
11944W        W80338   9.681  17.681  13.069
11945W        W80339  17.357  28.952   2.374
11946W        W80340  27.905   7.324  11.609
11947W        W80341  21.902  31.653  11.575
11948W        W80342  26.027   3.521   4.525
11949W        W80343   9.667  18.091   0.651
11950W        W80344   6.248   5.613  13.370
11951W        W80345  18.316  37.355   4.488
11952W        W80346  23.272  43.793  13.840
11953W        W80347  12.095  16.348  13.164
11954W        W80348  20.057  30.737  14.827
11955W        W80349   2.185  28.983  13.650
11956W        W80350  39.871   4.614  10.557
11957W        W80351  25.164  34.997  12.619
11958W        W80352  38.314   7.697  14.297
11959W        W80353   4.631  15.733  10.301
11960W        W80354  33.907  28.882  13.907
11961W        W80355  28.668  10.124   1.855
11962W        W80356  40.087  31.009  11.604
11963W        W80357  31.170  32.850  12.060
11964W        W80358  24.464  33.939   3.460
11965W        W80359  20.209  15.609   2.855
11966W        W80360  42.658   4.215  12.190
11967W        W80361  44.300  44.557   3.153
11968W        W80362  34.061  30.232  11.550
11969W        W80363   6.175  30.303  10.815
11970W        W80364   6.518  32.031   1.378
11971W        W80365  41.424  21.394  10.780
11972W        W80366   2.256  11.272   2.600
11973W        W80367  43.446   3.486   0.891
11974W        W80368  42.258  23.563   3.159
11975W        W80369   5.353  12.179   4.181
11976W        W80370  18.625  29.930   0.159
11977W        W80371  22.234   4.454  13.978
11978W        W80372  31.878   6.720   2.433
11979W        W80373   0.850  41.524   3.548
11980W        W80374  33.709  35.528  11.952
11981W        W80375  41.992  23.048  11.342
11982W        W80376  29.929  36.104  14.305
11983W        W80377   0.174  31.261  13.519
11984W        W80378  14.748   5.773   0.493
11985W        W80379  28.108  37.471   3.599
11986W        W80380   6.683   5.403   0.896
11987W        W80381   1.887  41.882  13.446
11988W        W80382  44.364  30.885   1.776
11989W        W80383  39.876  24.519  10.734
11990W        W80384  21.072  43.449   2.765
11991W        W80385  32.450   5.307  12.669
11992W        W80386  43.772  11.797  12.511
11993W        W80387  23.807   4.651  12.953
11994W        W80388  37.593  37.155   3.085
11995W        W80389  43.468  32.336  14.915
11996W        W80390   0.306   6.012   0.928
11997W        W80391  17.298  40.829  13.805
11998W        W80392  21.470   2.917  11.584
11999W        W80393  32.243  22.594  11.143
12000W        W80394  15.320  17.694   2.300
12001W        W80395   5.153   0.188  12.042
12002W        W80396  16.910  14.056   2.302
12003W        W80397   6.877   7.476   1.886
12004W        W80398  42.369  32.603  12.825
12005W        W80399  37.935   3.469   2.310
12006W        W80400  24.658  41.288   1.967
12007W        W80401  43.279  35.053   5.516
12008W        W80402   3.760  19.757   3.179
12009W        W80403  43.522  20.735  12.599
12010W        W80404  19.040  24.487  14.387
12011W        W80405   8.934  14.144  14.530
12012W        W80406  43.104  42.595  13.085
12013W        W80407  37.775  20.792   3.858
12014W        W80408  13.298  16.034  10.683
12015W        W80409  35.538  33.927  14.546
12016W        W80410  25.900  39.543  12.898
12017W        W80411  16.864   1.730  12.570
12018W        W80412  10.879  33.056  13.981
12019W        W80413  27.289  30.149   0.785
12020W        W80414  28.751  14.862  12.201
12021W        W80415  25.763  23.482   0.976
12022W        W80416  44.724  13.802   2.104
12023W        W80417  36.307   3.228  11.198
12024W        W80418  19.108  14.595  10.664
12025W        W80419   0.370  21.248  11.456
12026W        W80420   3.345  34.326  13.839
12027W        W80421  44.989  34.561  14.505
12028W        W80422  25.137  29.693   0.984
12029W        W80423  30.610  37.906   3.815
12030W        W80424  17.038  11.554  11.863
12031W        W80425  22.952  42.867  12.079
12032W        W80426  40.686  30.918   0.726
12033W        W80427  42.791  29.861   4.983
12034W        W80428  17.642  32.504  13.500
12035W        W80429  38.969   6.365  12.197
12036W        W80430  30.128  32.910  12.123
12037W        W80431  10.621  27.635  12.580
12038W        W80432  28.190  27.151   3.112
12039W        W80433  23.799  41.365  13.906
12040W        W80434  13.187  25.281   1.559
12041W        W80435  40.501  35.972   4.495
12042W        W80436  38.404   4.174   3.759
12043W        W80437  24.160  18.373  11.947
12044W        W80438  16.259  33.046   1.084
12045W        W80439   2.223  38.045   4.616
12046W        W80440  24.232  19.650  14.895
12047W        W80441  33.627   2.508  10.705
12048W        W80442  16.211  43.076  14.795
12049W        W80443  24.647  37.390   0.034
12050W        W80444  34.796  30.695  14.319
12051W        W80445  44.799  41.964  13.554
12052W        W80446  24.189   5.897  11.460
12053W        W80447   4.412  36.340   4.282
12054W        W80448  18.348   4.888   3.646
12055W        W80449  17.239   7.596  13.828
12056W        W80450  32.008  24.538   1.342
12057W        W80451  41.310  37.051  11.182
12058W        W80452  18.256   5.283  12.039
12059W        W80453  10.809  22.098  13.795
12060W        W80454  31.387  29.103  10.710
12061W        W80455  35.555   6.140  13.011
12062W        W80456   6.764  35.882   4.191
12063W        W80457  17.576  30.884   0.008
12064W        W80458  15.219  18.006   0.237
12065W        W80459  41.843   8.647  12.569
12066W        W80460  20.063  11.191   2.859
12067W        W80461  15.775  22.459   0.485
12068W        W80462  14.232  27.766  12.440
12069W        W80463  12.084  39.929  10.806
12070W        W80464   5.600  10.483   3.532
12071W        W80465  10.419  41.337  11.545
12072W        W80466  31.097  36.480  11.615
12073W        W80467   3.274  18.081   4.122
12074W        W80468  31.862  21.317  12.550
12075W        W80469   9.715  32.511   0.880
12076W        W80470  35.631  10.853  12.526
12077W        W80471  44.266  34.855   1.029
12078W        W80472  10.864  37.492   0.032
12079W        W80473  16.407  41.993  12.148
12080W        W80474  14.558  22.940   4.186
12081W        W80475  11.207  27.029  11.159
12082W        W80476  27.734  40.775  11.547
12083W        W80477  11.511  12.181  11.627
12084W        W80478  38.267  27.669   4.816
12085W        W80479  38.597  12.643  10.794
12086W        W80480  36.371  23.768  13.560
12087W        W80481  14.627  41.567  11.506
12088W        W80482  24.898   6.828   4.872
12089W        W80483  27.637  41.034   3.524
12090W        W80484  19.653   0.511   2.252
12091W        W80485  18.711  37.136  14.824
12092W        W80486  37.877   5.476  11.675
12093W        W80487  29.908  26.156   3.043
12094W        W80488  35.279  24.880   3.599
12095W        W80489  22.526   1.697   3.318
12096W        W80490  30.470  11.891   4.553
12097W        W80491   4.172  32.340   2.243
12098W        W80492  43.031  36.521  12.579
12099W        W80493  31.049  12.374   1.273
12100W        W80494  21.246  18.782  11.073
12101W        W80495  35.513  30.992   2.318
12102W        W80496  26.862  36.778  12.060
12103W        W80497  42.841  42.139   4.671
12104W        W80498   1.358  13.577   3.314
12105W        W80499  35.001  42.798  10.206
12106W        W80500   5.926  39.325   2.692
12107W        W80501   9.358  30.925   4.286
12108W        W80502   5.219  23.490  13.395
12109W        W80503   9.163   1.871  14.955
12110W        W80504  14.048   9.726   0.792
12111W        W80505  39.685  11.897  11.651
12112W        W80506  23.996   8.756  11.498
12113W        W80507  36.374  19.433   0.204
12114W        W80508   6.698  18.581   1.591
12115W        W80509  27.455  18.587   1.300
12116W        W80510  29.109  32.004   0.941
12117W        W80511   8.244  24.682  13.061
12118W        W80512  21.965  26.227   5.572
12119W        W80513  31.486  19.450   1.156
12120W        W80514  35.662  37.010   0.015
12121W        W80515  26.731  12.970  12.766
12122W        W80516  26.983  33.838   0.466
12123W        W80517  26.623  40.868  11.075
12124W        W80518  12.485   2.311  11.546
12125W        W80519  15.348  37.977   2.137
12126W        W80520  19.383  31.943   1.618
12127W        W80521  25.170  17.964  12.745
12128W        W80522  34.021  30.650  13.316
12129W        W80523  44.824  16.289  13.799
12130W        W80524  36.538   0.865   0.650
12131W        W80525  18.487  17.131  11.490
12132W        W80526  32.358  40.035  12.335
12133W        W80527  39.399  31.132   3.780
12134W        W80528  22.697  18.556   2.641
12135W        W80529   6.342  21.841  12.367
12136W        W80530  15.562   3.755  14.020
12137W        W80531  36.125   3.282   0.600
12138W        W80532  28.578  42.786  12.897
12139W        W80533  32.059  23.764   0.967
12140W        W80534   2.346   5.320   0.872
12141W        W80535   4.121  30.088   2.317
12142W        W80536  11.883   2.273  14.848
12143W        W80537  25.754  41.146  13.491
12144W        W80538  27.591   7.181  11.226
12145W        W80539   5.710  17.343  12.216
12146W        W80540  24.197   7.132   3.346
12147W        W80541  23.178  10.154   0.900
12148W        W80542  42.739  40.021  11.051
12149W        W80543  24.027   5.765   3.273
12150W        W80544  42.228  34.013  13.187
12151W        W80545  41.626  34.611  10.714
12152W        W80546  17.093  34.760  13.884
12153W        W80547  29.063  15.118   2.535
12154W        W80548  39.294  20.947   2.115
12155W        W80549  21.876   3.266  10.240
12156W        W80550  35.791   5.824  12.409
12157W        W80551  27.870  29.614  11.650
12158W        W80552   5.367  42.589   5.002
12159W        W80553  16.024  42.788  12.474
12160W        W80554  18.768   3.506  12.960
12161W        W80555  34.347  40.394  14.425
12162W        W80556  37.431   7.424   1.968
12163W        W80557  29.878  31.869  11.591
12164W        W80558   8.489   1.943   3.625
12165W        W80559  44.099  14.672  14.499
12166W        W80560  22.129   6.292   3.165
12167W        W80561  25.145  42.465   0.088
12168W        W80562  25.123  11.135  13.868
12169W        W80563   9.813  14.608   1.255
12170W        W80564  12.800  29.124   4.679
12171W        W80565  18.518   2.288   2.880
12172W        W80566  21.728  37.088   0.390
12173W        W80567  36.029  37.919   2.760
12174W        W80568  23.305  21.384  13.935
12175W        W80569  34.916  19.024   2.808
12176W        W80570  26.523  19.252   3.853
12177W        W80571   9.174  28.018  13.897
12178W        W80572  17.314   5.873  13.367
12179W        W80573   9.401   6.699  12.659
12180W        W80574  13.977  14.577  12.795
12181W        W80575  27.109  21.996  11.987
12182W        W80576  17.341  26.336  11.413
12183W        W80577  11.717  37.531  13.905
12184W        W80578  42.383  32.866   3.606
12185W        W80579  21.644  10.329   1.749
12186W        W80580  37.963   8.166   3.133
12187W        W80581  16.192  34.534  14.583
12188W        W80582  12.647  14.520   2.622
12189W        W80583   7.766  33.248   4.835
12190W        W80584  35.144   8.776   0.072
12191W        W80585   5.848  30.121   3.645
12192W        W80586   5.152  41.775   3.569
12193W        W80587   6.295  32.700   2.386
12194W        W80588  14.202   7.919  10.213
12195W        W80589  11.352  14.665   4.211
12196W        W80590  44.279  11.062  12.596
12197W        W80591   2.394  22.998   2.497
12198W        W80592  38.615   5.279   3.826
12199W        W80593   3.722  11.663   3.842
12200W        W80594  10.979  10.621  12.705
12201W        W80595  25.419   8.425   4.651
12202W        W80596  13.020  23.991  13.552
12203W        W80597   6.268  31.688  11.531
12204W        W80598   1.190   0.468  13.463
12205W        W80599  14.254  23.932  13.938
12206W        W80600  20.949  44.874  10.497
12207W        W80601  21.238  13.370  14.940
12208W        W80602  32.516  33.070  10.789
12209W        W80603   3.483  23.686   3.644
12210W        W80604  30.389  14.151   0.240
12211W        W80605   4.939   8.876   4.827
12212W        W80606  40.897  38.719  14.416
12213W        W80607   4.306  39.573  13.708
12214W        W80608  42.779  12.384  11.565
12215W        W80609  22.651  40.666   2.252
12216W        W80610  19.318  30.841   3.840
12217W        W80611  29.383  33.010   3.217
12218W        W80612  20.422  11.826   2.602
12219W        W80613  37.712  13.291  10.731
12220W        W80614  43.991   9.502  12.931
12221W        W80615  23.948   2.343   2.612
12222W        W80616  24.136   9.255  11.512
12223W        W80617   3.962   3.691  14.302
12224W        W80618   3.684   8.761   1.431
12225W        W80619   6.910  32.588  11.650
12226W        W80620   2.541  34.221   3.639
12227W        W80621  26.518   4.212  11.659
12228W        W80622   8.561  40.840   3.111
12229W        W80623   0.756  38.262  10.642
12230W        W80624  23.096   1.963   4.784
12231W        W80625  23.866  37.511   1.645
12232W        W80626  28.152  42.410   3.264
12233W        W80627  25.724   1.857  13.778
12234W        W80628  13.953   9.368  12.426
12235W        W80629  18.745  38.889   1.836
12236W        W80630  34.742  29.231   4.578
12237W        W80631   0.562   9.778   1.048
12238W        W80632  27.912  37.974  10.933
12239W        W80633   0.346  16.653   1.349
12240W        W80634  29.565  43.034  11.301
12241W        W80635   6.447   9.931  14.964
12242W        W80636   3.522   3.682   1.486
12243W        W80637   0.838  22.293  13.760
12244W        W80638  34.163   0.470   3.729
12245W        W80639  38.851  28.125   2.370
12246W        W80640   1.739  13.835  12.432
12247W        W80641  14.214  35.284   2.103
12248W        W80642   9.596   1.832   1.423
12249W        W80643   2.990  23.152  10.761
12250W        W80644  36.859  12.839  12.920
12251W        W80645   7.362  27.218  13.349
12252W        W80646  27.274  29.792  10.939
12253W        W80647  13.401  12.002   4.532
12254W        W80648  35.341  15.330  10.725
12255W        W80649  30.611  10.491   0.567
12256W        W80650  43.329   2.909  12.306
12257W        W80651  10.040  15.079  11.489
12258W        W80652  29.217  27.134   3.167
12259W        W80653  18.385   4.906   9.856
12260W        W80654   3.942   6.930  11.240
12261W        W80655  37.596  42.953   4.118
12262W        W80656  20.307   1.364  13.724
12263W        W80657  36.129  43.014   2.950
12264W        W80658  42.442   3.203   1.473
12265W        W80659  10.654   4.969  12.020
12266W        W80660  32.402  38.830  13.927
12267W        W80661   2.248  26.160   0.875
12268W        W80662  20.619  22.511  13.037
12269W        W80663  41.708  18.516   1.452
12270W        W80664   1.218  33.285  11.592
12271W        W80665  25.628  25.575   3.652
12272W        W80666   5.141  15.248   2.278
12273W        W80667  27.541  42.672  12.476
12274W        W80668  14.416  15.328   3.384
12275W        W80669  11.664  30.383  14.979
12276W        W80670  43.285   5.411   2.192
12277W        W80671   1.840  41.002   4.547
12278W        W80672  17.888   1.363  10.917
12279W        W80673   6.368  17.768  12.984
12280W        W80674   4.236  15.363  12.848
12281W        W80675  14.833  10.654   4.799
12282W        W80676   4.726   9.710   4.159
12283W        W80677  37.441  27.151   1.162
12284W        W80678  35.376  16.886   3.903
12285W        W80679  30.742  26.739  11.745
12286W        W80680   8.737  37.548  10.850
12287W        W80681   8.794  12.144  10.630
12288W        W80682  19.027  26.088  12.496
12289W        W80683  26.011  20.754   3.277
12290W        W80684  16.603  21.255  13.595
12291W        W80685  37.612  13.604  11.191
12292W        W80686  13.679  27.253  14.104
12293W        W80687  34.568  26.699   2.182
12294W        W80688  33.572  35.089  11.666
12295W        W80689  21.079  28.214   0.803
12296W        W80690  22.333  10.279   4.568
12297W        W80691  13.862  11.675   3.716
12298W        W80692  25.315  10.131  14.627
12299W        W80693   3.497  38.985   4.193
12300W        W80694  42.986  38.848  10.703
12301W        W80695  24.963  22.009  12.102
12302W        W80696  12.224  33.882   2.692
12303W        W80697  28.666   0.398  13.026
12304W        W80698  32.913  25.169   1.704
12305W        W80699  44.326   5.447   1.200
12306W        W80700  25.917   3.341  10.622
12307W        W80701  29.244  28.870   9.989
12308W        W80702  23.698   6.170  13.923
12309W        W80703  10.997  35.849   2.543
12310W        W80704  28.640  38.545   3.696
12311W        W80705   7.313   8.927   3.581
12312W        W80706   0.114  42.514   0.699
12313W        W80707  13.649  43.023   2.359
12314W        W80708   1.931   1.906  14.141
12315W        W80709  31.314  34.508   1.190
12316W        W80710   4.249  40.924  14.749
12317W        W80711  29.702  11.210  12.969
12318W        W80712  16.035  43.880  10.809
12319W        W80713  24.224  17.339  13.470
12320W        W80714  31.969  34.824   4.878
12321W        W80715  23.105  18.304   0.688
12322W        W80716  14.311  39.528   4.547
12323W        W80717  32.535  33.681  13.384
12324W        W80718  40.089  13.317   1.776
12325W        W80719  13.272  42.780   2.666
12326W        W80720  39.361  35.992  12.155
12327W        W80721   7.079   8.907   2.803
12328W        W80722  21.602  37.325   3.262
12329W        W80723  35.097  34.120  13.468
12330W        W80724   8.360   8.833  13.139
12331W        W80725  39.066  25.584   0.480
12332W        W80726  36.810  15.102  13.903
12333W        W80727  33.713  31.535   3.720
12334W        W80728  31.927  21.016  11.910
12335W        W80729  10.326  33.436   4.115
12336W        W80730  36.548  39.155  13.439
12337W        W80731  14.140  25.714   3.818
12338W        W80732  10.236  20.736   2.767
12339W        W80733  44.918  14.758   1.246
12340W        W80734   2.150   5.863   1.933
12341W        W80735  11.084  16.777   1.937
12342W        W80736  21.234   7.005  13.424
12343W        W80737  29.148   8.266   4.357
12344W        W80738  13.521  41.415  14.954
12345W        W80739  20.573   7.237  12.836
12346W        W80740  32.387  19.264   2.023
12347W        W80741  15.700   8.097  11.490
12348W        W80742  32.531  25.193   0.458
12349W        W80743  30.282  28.009   4.229
12350W        W80744  38.008  38.109   1.342
12351W        W80745  32.918  11.295   1.011
12352W        W80746  44.943  18.661  13.358
12353W        W80747  14.395   3.439  13.052
12354W        W80748  12.375   2.280  14.550
12355W        W80749   7.166   8.832   4.991
12356W        W80750  27.401  24.529  11.633
12357W        W80751   3.566  14.751   0.442
12358W        W80752  24.982  16.383  12.793
12359W        W80753  16.235  35.945  12.378
12360W        W80754   9.752  16.964   3.137
12361W        W80755  10.813  43.065  14.102
12362W        W80756  14.875  11.221   0.370
12363W        W80757   2.285  28.520  13.178
12364W        W80758  30.189   7.637  14.896
12365W        W80759  22.957  43.321  12.948
12366W        W80760  37.094  19.291   4.224
12367W        W80761  19.978  21.672   0.399
12368W        W80762  18.215   0.598   4.263
12369W        W80763  44.488   7.430  13.607
12370W        W80764  31.642  36.771  12.365
12371W        W80765  24.400  16.745  12.861
12372W        W80766  12.558  32.080  11.223
12373W        W80767  10.195   6.047   4.093
12374W        W80768  38.434  25.002  12.396
12375W        W80769   4.705  21.492   2.325
12376W        W80770   6.883   8.882   4.563
12377W        W80771  38.341  43.450   3.784
12378W        W80772  39.137   5.899  12.063
12379W        W80773  10.712  38.470  12.145
12380W        W80774  20.772  38.021   3.742
12381W        W80775  17.207  18.572  13.375
12382W        W80776  13.269  39.509   2.986
12383W        W80777  41.945  38.418   2.631
12384W        W80778  11.102  37.484  10.535
12385W        W80779  43.306  14.189  14.028
12386W        W80780  28.972  40.472  12.139
12387W        W80781  16.056  13.770   3.910
12388W        W80782  14.733  42.035   2.274
12389W        W80783  43.715  39.608  14.454
12390W        W80784  22.098  24.627   2.213
12391W        W80785  11.504  22.481   1.015
12392W        W80786  13.899   7.751  14.505
12393W        W80787  16.386  25.973  11.699
12394W        W80788   5.668  37.882   1.027
12395W        W80789  12.090   8.867  13.843
12396W        W80790   1.547  39.511  13.404
12397W        W80791  20.996  20.803  10.991
12398W        W80792  28.861  30.492  10.963
12399W        W80793   8.246  44.812  13.081
12400W        W80794  15.336  25.678  14.913
12401W        W80795  15.254  28.930   0.439
12402W        W80796  10.902  35.540  14.602
12403W        W80797  39.322  41.608   4.593
12404W        W80798   1.322  14.113  11.444
12405W        W80799  23.134  32.650   1.943
12406W        W80800   3.376  17.661  13.961
12407W        W80801   2.351  24.430   2.047
12408W        W80802   3.659  35.186  14.899
12409W        W80803   2.627  36.421  11.231
12410W        W80804  10.831   6.915   2.674
12411W        W80805  21.756   0.476   0.655
12412W        W80806  17.274   5.721  14.502
12413W        W80807  18.235   9.703  12.533
12414W        W80808  11.601  29.528   0.500
12415W        W80809  31.465  26.641   3.085
12416W        W80810   8.129  34.668   0.844
12417W        W80811  22.002  17.845   3.880
12418W        W80812  10.897  36.315   1.580
12419W        W80813  42.520  22.109   3.718
12420W        W80814   4.356  32.337  13.830
12421W        W80815  23.174  13.364   0.578
12422W        W80816  42.868   6.330  11.236
12423W        W80817  31.379   0.850   2.796
12424W        W80818   5.920  15.605   4.373
12425W        W80819   3.007  37.267   4.097
12426W        W80820  14.169   7.154   0.883
12427W        W80821  10.421  11.798   3.564
12428W        W80822  17.518  31.706   1.223
12429W        W80823  10.119  21.012   4.587
12430W        W80824   0.481  27.413  11.768
12431W        W80825  28.394  28.446   4.223
12432W        W80826  28.653  18.896  14.390
12433W        W80827  28.534   4.098   3.822
12434W        W80828  42.884  27.739  13.854
12435W        W80829  17.278  32.005  12.612
12436W        W80830  21.616  25.201   0.911
12437W        W80831  13.351  44.491  13.787
12438W        W80832  15.697   4.896  12.500
12439W        W80833  20.765   8.817  12.393
12440W        W80834   2.429  23.931  10.323
12441W        W80835  36.178  42.507   1.799
12442W        W80836  39.769   0.983   0.398
12443W        W80837  23.261  10.852   1.404
12444W        W80838  37.248   4.878   1.795
12445W        W80839  11.867  31.355   1.988
12446W        W80840   8.619  18.525   0.708
12447W        W80841  18.142  22.081  11.430
12448W        W80842  40.383  23.096  14.984
12449W        W80843  15.377  39.565   2.573
12450W        W80844  24.037  33.963  10.696
12451W        W80845  44.830  23.349   1.983
12452W        W80846   8.337  12.907   1.157
12453W        W80847  26.002  29.937   0.331
12454W        W80848  23.925   9.536  11.922
12455W        W80849  14.090   8.349   4.575
12456W        W80850  38.955  40.106   0.791
12457W        W80851  29.136  23.110   4.093
12458W        W80852  21.181  10.527   5.191
12459W        W80853   0.380  11.178   1.242
12460W        W80854  35.342  12.065  11.932
12461W        W80855  32.566  42.469  14.248
12462W        W80856  20.242  35.294   1.447
12463W        W80857  31.748  43.703  12.528
12464W        W80858   7.770  21.613   2.681
12465W        W80859  25.182   9.652  13.825
12466W        W80860   8.486  17.158   2.635
12467W        W80861  44.413   7.113  11.594
12468W        W80862   5.206  36.990   3.219
12469W        W80863   9.000  25.981  14.406
12470W        W80864  11.566  15.236  14.893
12471W        W80865  29.042  37.945   2.242
12472W        W80866   0.760  35.083  11.245
12473W        W80867  32.684  11.268   3.374
12474W        W80868  21.500  26.928   1.655
12475W        W80869   8.354   1.024   3.581
12476W        W80870   6.189  16.542  13.884
12477W        W80871  32.123  16.627   0.719
12478W        W80872   6.998  26.792  11.212
12479W        W80873  35.091   3.791  13.925
12480W        W80874  44.252  34.371  13.082
12481W        W80875  39.068  42.053   1.720
12482W        W80876  32.913  44.692   3.288
12483W        W80877  30.795  28.995  14.650
12484W        W80878  36.151  37.643   0.476
12485W        W80879  36.872   7.370   0.854
12486W        W80880  19.775  14.735  14.813
12487W        W80881  15.987   2.503   1.789
12488W        W80882  23.840  10.543  12.557
12489W        W80883  23.550   0.751  10.997
12490W        W80884   1.899   8.845   2.353
12491W        W80885   8.167  35.359   5.010
12492W        W80886  40.366  16.641   3.918
12493W        W80887   3.375  33.619  10.652
12494W        W80888   2.762  31.597   2.375
12495W        W80889  28.436  26.697   3.258
12496W        W80890   2.821  40.625  13.812
12497W        W80891  18.644  15.550   1.482
12498W        W80892   2.784   7.619   0.890
12499W        W80893  33.302  35.774   0.646
12500W        W80894  24.444   8.440   5.581
12501W        W80895  40.555  15.674   4.713
12502W        W80896  41.501  14.355  10.950
12503W        W80897  20.630  36.598  14.041
12504W        W80898   1.863  43.929  14.486
12505W        W80899  13.492  24.414  12.017
12506W        W80900  40.108  16.118   3.466
12507W        W80901  23.448  18.451  12.451
12508W        W80902  31.917  41.074   0.916
12509W        W80903  44.482  23.141  14.813
12510W        W80904   6.289  39.507   2.145
12511W        W80905   9.363   3.932   1.882
12512W        W80906  21.149   3.392   1.719
12513W        W80907  42.962  27.055   2.301
12514W        W80908  42.155  18.304   4.072
12515W        W80909  22.465  24.491   3.664
12516W        W80910  27.648  26.617  10.710
12517W        W80911  31.576   6.094  12.935
12518W        W80912  15.272  38.922   3.754
12519W        W80913  20.530  34.356   1.930
12520W        W80914   2.241  39.073   1.731
12521W        W80915  18.892   0.361   1.751
12522W        W80916   8.158  34.533  13.369
12523W        W80917   1.346  25.228   2.590
12524W        W80918  13.510  21.120  12.573
12525W        W80919   0.838   6.038   3.208
12526W        W80920  39.939   4.444  13.490
12527W        W80921  19.283  19.316   4.344
12528W        W80922  14.241   7.724  11.589
12529W        W80923  38.334  41.441   3.576
12530W        W80924   0.084  35.827   0.371
12531W        W80925  44.055  14.968   1.257
12532W        W80926  15.452  29.057   4.154
12533W        W80927  33.686  20.150   4.354
12534W        W80928  30.441  35.525   4.459
12535W        W80929  13.616  33.594  13.724
12536W        W80930  34.492  11.099   4.409
12537W        W80931  35.406  26.753  14.323
12538W        W80932   0.437  44.613  10.723
12539W        W80933  27.976  43.428   1.177
12540W        W80934  36.642   9.155  11.262
12541W        W80935  38.410  12.220   1.093
12542W        W80936  41.637  22.463   4.727
12543W        W80937  31.079  26.522  13.886
12544W        W80938  10.822   1.089   1.357
12545W        W80939  34.025  35.788  11.100
12546W        W80940  37.099  12.852  12.473
12547W        W80941  13.586  14.115   1.761
12548W        W80942  32.587  16.726   1.012
12549W        W80943  44.242  21.373   2.554
12550W        W80944  29.103  27.338  14.039
12551W        W80945  20.766  22.933  13.956
12552W        W80946  27.657  41.502  11.961
12553W        W80947  11.848   1.351  14.832
12554W        W80948   7.133  17.114   4.593
12555W        W80949  23.586  12.644  13.078
12556W        W80950  33.858  40.940  11.187
12557W        W80951  29.513   7.806  12.886
12558W        W80952  35.442  24.553  10.271
12559W        W80953  12.578  40.959   4.649
12560W        W80954  36.691  17.762  13.810
12561W        W80955  16.831   1.084  13.523
12562W        W80956  41.205  32.946   3.235
12563W        W80957  24.209   1.871  13.112
12564W        W80958   0.821  35.644   3.706
12565W        W80959  19.310  31.566   2.001
12566W        W80960  12.518  23.995  11.325
12567W        W80961  43.955  13.133  14.391
12568W        W80962  39.692  29.501   3.120
12569W        W80963  12.334  37.352   1.213
12570W        W80964  28.397  28.729   0.302
12571W        W80965  38.437  44.384   4.349
12572W        W80966  42.368  20.309  11.016
12573W        W80967  25.559  43.472   1.920
12574W        W80968  37.748   2.709   1.841
12575W        W80969  20.484  23.139  13.571
12576W        W80970  30.403  20.966  13.789
12577W        W80971  31.839   6.848   5.011
12578W        W80972  23.227  26.680   1.340
12579W        W80973  18.582  42.021   2.185
12580W        W80974  26.011  16.320   2.749
12581W        W80975  10.265  32.859  10.583
12582W        W80976  42.999  22.615   4.984
12583W        W80977   9.867  18.178   4.822
12584W        W80978   4.525   5.918  12.580
12585W        W80979  37.043  36.825   3.208
12586W        W80980  14.241  20.551   3.791
12587W        W80981  27.931  44.915  14.707
12588W        W80982  28.462  28.150  13.171
12589W        W80983  11.466   9.382   4.932
12590W        W80984  19.982  39.023   2.251
12591W        W80985   9.295  23.440  10.736
12592W        W80986  10.184  39.115  14.347
12593W        W80987   1.883  27.769  12.914
12594W        W80988  25.163  20.201   3.560
12595W        W80989   4.668  24.974   3.179
12596W        W80990   5.812  17.600   4.788
12597W        W80991  26.966  43.289  13.033
12598W        W80992  16.737   1.365  12.927
12599W        W80993   1.765  14.844   3.171
12600W        W80994  18.432  32.957  13.986
12601W        W80995   2.386  36.003   0.736
12602W        W80996   3.430   3.431  13.456
12603W        W80997  12.082  15.823   2.872
12604W        W80998   7.240  24.297  12.442
12605W        W80999  39.849  24.262   1.781
12606W        W81000  29.479  22.963   0.038
12607W        W81001  26.964  41.855  13.196
12608W        W81002  23.700  24.641  13.983
12609W        W81003   1.910  17.555  10.673
12610W        W81004  39.108  20.039   1.842
12611W        W81005  40.845   5.253   2.628
12612W        W81006  24.695  14.560  11.974
12613W        W81007   0.928  20.996  14.541
12614W        W81008   6.694   0.231   1.327
12615W        W81009  21.510  31.501  12.485
12616W        W81010   0.481   0.738  13.585
12617W        W81011  33.157  26.559  11.920
12618W        W81012  12.162  23.047   4.940
12619W        W81013   9.404  18.182  14.410
12620W        W81014  43.658  15.052   3.961
12621W        W81015  17.664  38.978  11.527
12622W        W81016  15.130  31.980  13.947
12623W        W81017  12.678  31.671  13.063
12624W        W81018  40.301  28.722  11.232
12625W        W81019   1.068  22.820   3.465
12626W        W81020  37.487  23.193  14.532
12627W        W81021  10.128   4.993  10.587
12628W        W81022   4.237  43.038  13.012
12629W        W81023  12.355  10.686  12.305
12630W        W81024  37.281  29.963  11.503
12631W        W81025   1.201  39.531  14.819
12632W        W81026  27.737  28.010   3.091
12633W        W81027   0.041  20.261  11.174
12634W        W81028   4.468  38.017   0.379
12635W        W81029   4.398  24.189  13.183
12636W        W81030  26.958  40.587  11.330
12637W        W81031  22.731   1.867  13.172
12638W        W81032  42.772   2.921  12.109
12639W        W81033  12.552  14.397  11.910
12640W        W81034  19.249  22.493   2.195
12641W        W81035  21.523   5.679  11.514
12642W        W81036   6.835  33.972  14.518
12643W        W81037  39.931  23.444   3.632
12644W        W81038  32.721   7.086   1.435
12645W        W81039   2.339  13.092   4.226
12646W        W81040   4.008   4.205  12.059
12647W        W81041  37.142  22.703  11.543
12648W        W81042   8.160  10.622   1.332
12649W        W81043   7.812   0.351   0.047
12650W        W81044  21.676  33.913   0.741
12651W        W81045  30.069  19.258   2.651
12652W        W81046  29.025  31.127  13.628
12653W        W81047  26.501  10.883  13.476
12654W        W81048  37.998  16.172   0.956
12655W        W81049  17.706   8.953   4.566
12656W        W81050  31.099  15.145   3.588
12657W        W81051  32.554  37.559  12.414
12658W        W81052  17.934  22.797   0.884
12659W        W81053   3.944  33.479   3.270
12660W        W81054   4.255  42.134   3.738
12661W        W81055  24.666  16.852   0.409
12662W        W81056  20.239  15.282   0.362
12663W        W81057   4.369  12.875   3.290
12664W        W81058  41.937  29.377  14.052
12665W        W81059  12.691  10.159  13.297
12666W        W81060  44.013   5.048   1.966
12667W        W81061  13.932  18.764  14.269
12668W        W81062  38.089  28.169  11.375
12669W        W81063  27.206  37.049  14.285
12670W        W81064  14.293  38.099  10.217
12671W        W81065  14.075  24.262   3.624
12672W        W81066   5.147  42.949   1.232
12673W        W81067  35.141   3.951   1.015
12674W        W81068  42.609  38.810  11.619
12675W        W81069  33.821  40.439  14.459
12676W        W81070  14.359  29.534   0.957
12677W        W81071  40.816   4.728   0.384
12678W        W81072   3.642  21.139  13.469
12679W        W81073  32.691  27.780   2.756
12680W        W81074   6.461   9.850   1.291
12681W        W81075  35.077  44.976   2.776
12682W        W81076  11.631  20.008   4.143
12683W        W81077  36.037  19.223  13.931
12684W        W81078  31.165  39.809  10.781
12685W        W81079  12.062   5.912   4.202
12686W        W81080  22.539  41.762   4.232
12687W        W81081   2.276  34.512   1.660
12688W        W81082  31.360  38.801  11.003
12689W        W81083   6.700  24.579  14.311
12690W        W81084   0.030   8.349  11.763
12691W        W81085  19.738  44.686  14.266
12692W        W81086  26.833  23.498   0.966
12693W        W81087  41.605   2.033  13.718
12694W        W81088   3.786  17.135   1.458
12695W        W81089  24.485  15.113  13.793
12696W        W81090   9.846  41.506  14.761
12697W        W81091  41.025   6.320  13.023
12698W        W81092  32.897   6.326  12.906
12699W        W81093   3.847  12.595   9.903
12700W        W81094  28.172  27.121   0.804
12701W        W81095  18.320  15.250  10.686
12702W        W81096  37.465  24.037  10.646
12703W        W81097  33.538  33.633  11.939
12704W        W81098  27.725  43.721   2.727
12705W        W81099  32.207  31.381  11.548
12706W        W81100  29.405   1.517  13.625
12707W        W81101  25.580  27.390   0.767
12708W        W81102   3.405  34.755  10.754
12709W        W81103   7.227   1.948  14.893
12710W        W81104  17.099  40.586  12.954
12711W        W81105  22.719  25.627  10.221
12712W        W81106   7.039   5.072  11.225
12713W        W81107  10.856  21.367   4.101
12714W        W81108  23.678  44.765  12.110
12715W        W81109  32.113  29.302  13.664
12716W        W81110  28.791  18.119   4.511
12717W        W81111  44.038  32.328   1.751
12718W        W81112  37.363  30.179  10.625
12719W        W81113  37.898  19.318  12.391
12720W        W81114   6.661  16.805   2.774
12721W        W81115  39.865   1.440   3.177
12722W        W81116   8.761  40.900  11.419
12723W        W81117  40.315  14.317   1.296
12724W        W81118  34.078  28.538   3.912
12725W        W81119  16.853  22.708   4.297
12726W        W81120  36.276  23.670  11.962
12727W        W81121  16.480  20.668   0.646
12728W        W81122   4.476  21.703   2.745
12729W        W81123  16.544  26.168   4.191
12730W        W81124  33.698  30.365  14.599
12731W        W81125  30.620  28.111   0.841
12732W        W81126  22.995  30.863  12.018
12733W        W81127  36.466   6.337   3.437
12734W        W81128  37.611  23.604  11.540
12735W        W81129  35.976  15.136   4.640
12736W        W81130   4.192  19.256   1.725
12737W        W81131  28.703   8.635   3.445
12738W        W81132   8.747  32.083  10.551
12739W        W81133  28.244  34.342   4.537
12740W        W81134  32.499  18.117   1.288
12741W        W81135  40.648   3.315   0.188
12742W        W81136  38.745  21.664  13.851
12743W        W81137  41.538  42.090  12.853
12744W        W81138  10.820  37.063  14.248
12745W        W81139  27.102  38.569   0.890
12746W        W81140  43.239   5.760   3.098
12747W        W81141  11.242  21.128  13.832
12748W        W81142  19.183  17.176  14.698
12749W        W81143  30.947  25.145   3.944
12750W        W81144  30.729  29.017   2.150
12751W        W81145   5.730  36.951   4.667
12752W        W81146  40.466  30.659   0.347
12753W        W81147  44.385  14.653  11.897
12754W        W81148  10.820  34.487   4.628
12755W        W81149   2.952   3.914  12.833
12756W        W81150   6.837  24.299   3.040
12757W        W81151  16.625  22.350   4.603
12758W        W81152  22.897  38.287   4.246
12759W        W81153  31.998  41.248   3.211
12760W        W81154  26.002   1.199   0.747
12761W        W81155  34.027  40.060   4.607
12762W        W81156  13.114  33.666  11.644
12763W        W81157  25.581  27.059   0.296
12764W        W81158  20.415  30.706   4.924
12765W        W81159  34.467   0.446   2.248
12766W        W81160   4.117   2.207  14.616
12767W        W81161   8.815   1.434  11.169
12768W        W81162   8.645  41.268  12.344
12769W        W81163   0.640  29.060  12.978
12770W        W81164   6.936  36.963   2.711
12771W        W81165  26.588  41.257   4.936
12772W        W81166  36.855   4.820  14.375
12773W        W81167  21.570  40.587  13.048
12774W        W81168  28.523  36.150   2.211
12775W        W81169   5.976  30.218   2.751
12776W        W81170  34.026   4.394  14.769
12777W        W81171  33.274  10.346   4.469
12778W        W81172   5.263  27.790  11.045
12779W        W81173   2.805  10.365  11.133
12780W        W81174  10.731  15.488   4.263
12781W        W81175   4.979  18.604   3.666
12782W        W81176  15.331  44.710  12.838
12783W        W81177  30.768   0.383   4.508
12784W        W81178  28.632  15.311  14.396
12785W        W81179   8.306  10.847   3.401
12786W        W81180  29.926  32.786   0.367
12787W        W81181  28.510   7.881  11.989
12788W        W81182  20.742   6.630  11.731
12789W        W81183  10.164  33.268   0.362
12790W        W81184  43.395  43.420   1.784
12791W        W81185   1.793   4.237   3.694
12792W        W81186   8.751  44.920  10.969
12793W        W81187  26.367  16.310   3.683
12794W        W81188  31.532  33.692  13.180
12795W        W81189  18.350  21.310   0.883
12796W        W81190   9.412  33.848   0.828
12797W        W81191  14.737   7.362  12.583
12798W        W81192  43.566  42.934   3.645
12799W        W81193  22.529  24.001  10.745
12800W        W81194   4.334  12.913  13.075
12801W        W81195  16.717   7.506  12.087
12802W        W81196   3.596  28.080  14.375
12803W        W81197  37.429   9.291   4.016
12804W        W81198  14.970  30.148  11.188
12805W        W81199  19.280  23.723  13.492
12806W        W81200  10.096  30.483   4.544
12807W        W81201  35.901   1.640   0.732
12808W        W81202  25.333   9.025  14.266
12809W        W81203  29.597   3.279  12.990
12810W        W81204  22.511  35.345  12.913
12811W        W81205   3.716  11.744   3.348
12812W        W81206  13.108  42.000   3.635
12813W        W81207   4.017  10.354   1.344
12814W        W81208  16.022   6.846  11.826
12815W        W81209  10.844   3.482   3.402
12816W        W81210   9.195  25.639  11.692
12817W        W81211  11.788  11.270  12.145
12818W        W81212  13.461   9.745   4.808
12819W        W81213  19.056  18.653  12.896
12820W        W81214   7.596  42.753   4.194
12821W        W81215  27.178   9.261  12.170
12822W        W81216  43.081   5.295   4.792
12823W        W81217   0.946  35.652  14.350
12824W        W81218  26.980  27.689   0.987
12825W        W81219  25.052  29.190  14.948
12826W        W81220  19.278  32.135   0.277
12827W        W81221  44.372   8.667   4.580
12828W        W81222  34.361   2.387  11.540
12829W        W81223  32.953  10.309   0.522
12830W        W81224  37.572  43.685   2.343
12831W        W81225  43.860   9.854  11.943
12832W        W81226  24.159  32.419  12.226
12833W        W81227  25.218  38.504  10.644
12834W        W81228  42.490   2.337   4.662
12835W        W81229  29.662  30.475   0.361
12836W        W81230  12.139   5.091   1.303
12837W        W81231  35.025  29.447  12.925
12838W        W81232   4.628  29.964  11.068
12839W        W81233   1.231  43.597   1.712
12840W        W81234  30.676  43.076  12.837
12841W        W81235   2.974   0.763   1.746
12842W        W81236   4.304  35.264   0.705
12843W        W81237  41.264  40.741  11.770
12844W        W81238   2.472  10.318   0.391
12845W        W81239  20.959  14.929  12.554
12846W        W81240   1.074  39.908  11.678
12847W        W81241  33.575  27.387   2.726
12848W        W81242   5.234  25.740   2.329
12849W        W81243  27.533  20.102  13.754
12850W        W81244  28.500   3.439  12.348
12851W        W81245  14.626  16.162   3.838
12852W        W81246  39.082  44.365  12.286
12853W        W81247  39.538  31.404  11.145
12854W        W81248   1.591  31.654   4.301
12855W        W81249  14.036  17.598   1.923
12856W        W81250  11.702   4.019  11.599
12857W        W81251  10.431  30.905   4.607
12858W        W81252   5.714   4.008  10.958
12859W        W81253  44.934  27.648  13.189
12860W        W81254  14.755  40.447   2.215
12861W        W81255  44.708  29.209  12.967
12862W        W81256  20.650  40.172  10.863
12863W        W81257  14.359  15.801   3.130
12864W        W81258  24.973  29.471  12.105
12865W        W81259  30.813   7.142   1.413
12866W        W81260  40.068  16.116   0.352
12867W        W81261  10.434  32.578   4.746
12868W        W81262  43.462  16.196  10.785
12869W        W81263  14.368  26.155   4.291
12870W        W81264  20.451  35.113   2.979
12871W        W81265  40.275  17.371   3.277
12872W        W81266  29.873   8.344   0.604
12873W        W81267  18.074   4.762  14.812
12874W        W81268  11.487  38.719   5.067
12875W        W81269   7.390  39.892  11.108
12876W        W81270  27.719  15.143   1.865
12877W        W81271   6.428   1.266   0.011
12878W        W81272  25.155  39.807   2.278
12879W        W81273  18.839  34.813   2.237
12880W        W81274  30.433  12.333  11.063
12881W        W81275   7.903  31.644  10.240
12882W        W81276  34.674  34.947  13.031
12883W        W81277  42.193  36.099  11.586
12884W        W81278  30.440  11.611   1.162
12885W        W81279  40.887  36.748   9.903
12886W        W81280   7.894  36.640  11.130
12887W        W81281  31.360  18.697   2.650
12888W        W81282  16.923  30.440  12.097
12889W        W81283   6.168  36.879   1.251
12890W        W81284  21.200   0.008   4.392
12891W        W81285   2.958  21.563  14.747
12892W        W81286  18.708  25.402   5.371
12893W        W81287  35.301  34.003  11.603
12894W        W81288  21.497  23.997   4.207
12895W        W81289  18.728   9.086  14.812
12896W        W81290  17.829  15.110   3.459
12897W        W81291  41.313   4.239  12.396
12898W        W81292  14.087   9.676   1.796
12899W        W81293  31.921  19.981  13.913
12900W        W81294  36.647  16.515   0.635
12901W        W81295  28.649  31.666  14.516
12902W        W81296  27.091  33.016   4.503
12903W        W81297  44.845  33.780  13.424
12904W        W81298   4.133  25.992   4.748
12905W        W81299  43.914   9.932   4.699
12906W        W81300  31.098  13.889   2.378
12907W        W81301   6.856  15.090   0.507
12908W        W81302  39.283  15.627  14.404
12909W        W81303   4.257   2.702  10.157
12910W        W81304  26.598  15.972  14.510
12911W        W81305  18.496  31.983   3.860
12912W        W81306  10.769   3.455   4.761
12913W        W81307  10.055  12.611   0.377
12914W        W81308  12.680  18.904  12.274
12915W        W81309  16.502  26.498   3.576
12916W        W81310  35.049  11.266   2.337
12917W        W81311  40.817  33.155   0.792
12918W        W81312  14.652   0.425   2.761
12919W        W81313  34.106  11.066  11.010
12920W        W81314  27.044  25.773  11.870
12921W        W81315  32.025  31.105  12.069
12922W        W81316  11.435  28.063  12.383
12923W        W81317  15.301  16.906  13.509
12924W        W81318  23.457  36.145   2.363
12925W        W81319  29.058  40.791  13.443
12926W        W81320  19.039   5.130  14.481
12927W        W81321  25.969   6.994  10.720
12928W        W81322  40.220  22.760  10.370
12929W        W81323  24.430  40.562  12.794
12930W        W81324   3.790  31.182  14.376
12931W        W81325  18.425   8.254  11.500
12932W        W81326  30.224  24.037  13.323
12933W        W81327  42.237   9.204  14.180
12934W        W81328  19.117  43.816  12.003
12935W        W81329  31.875   0.525  13.501
12936W        W81330  19.600  14.361   1.747
12937W        W81331  10.213  13.335   1.193
12938W        W81332  32.737  19.109  11.189
12939W        W81333  14.123  35.087   1.371
12940W        W81334   7.394  34.454   1.304
12941W        W81335   0.640   8.738  10.442
12942W        W81336  21.023  11.107  14.366
12943W        W81337  39.590  34.403   4.357
12944W        W81338  28.649   8.126   0.563
12945W        W81339  21.046  20.699  11.470
12946W        W81340  33.834  26.006   3.662
12947W        W81341  25.396  10.239   0.522
12948W        W81342  36.320  21.280   3.282
12949W        W81343  25.506  25.654  14.503
12950W        W81344   7.633  35.489  13.075
12951W        W81345  43.305  10.077   0.855
12952W        W81346   4.688  34.692   3.563
12953W        W81347  31.083  24.569  12.430
12954W        W81348  10.083  43.307   1.206
12955W        W81349  37.201  37.302  14.185
12956W        W81350  33.056  22.907   1.393
12957W        W81351  28.175  15.037  12.180
12958W        W81352  25.681  37.022  14.464
12959W        W81353  30.093  11.892  11.574
12960W        W81354   2.258   8.618   4.331
12961W        W81355  40.046   8.374  10.739
12962W        W81356  10.931  39.625  12.167
12963W        W81357  20.801  27.066  11.671
12964W        W81358  41.906  40.921  13.396
12965W        W81359  25.084   6.279  13.347
12966W        W81360  30.509  39.492   0.767
12967W        W81361  38.930  11.265  14.926
12968W        W81362  10.359  38.340  12.513
12969W        W81363   5.369   4.954   0.042
12970W        W81364  39.638  17.570   2.527
12971W        W81365   8.308   7.881   4.189
12972W        W81366  22.229  24.161  12.511
12973W        W81367  28.824   5.435  12.116
12974W        W81368  12.715   1.996   3.875
12975W        W81369  16.708  31.444   2.303
12976W        W81370  28.349  33.033  11.627
12977W        W81371  25.186  10.225   3.692
12978W        W81372  40.048  12.609  11.578
12979W        W81373  14.534   7.861  12.576
12980W        W81374  36.813   9.987  13.973
12981W        W81375  24.568   3.779  14.524
12982W        W81376  25.657  32.806  14.397
12983W        W81377   9.494   0.342  13.642
12984W        W81378  27.234   7.239  13.547
12985W        W81379  22.940  17.388   0.507
12986W        W81380  41.084   9.809  11.602
12987W        W81381  34.640   1.671   4.091
12988W        W81382  22.680  18.910   4.200
12989W        W81383  39.862  19.466   0.856
12990W        W81384  11.882  21.717  12.822
12991W        W81385  19.530  13.523  14.419
12992W        W81386  26.399  39.424   3.526
12993W        W81387   1.328   3.286  10.565
12994W        W81388  28.715   5.262  14.407
12995W        W81389  41.284  20.684  11.865
12996W        W81390  14.853   9.714   5.288
12997W        W81391   1.392  22.446   3.591
12998W        W81392   0.483  34.360  14.543
12999W        W81393  23.050  13.190   2.782
13000W        W81394  15.511  22.020   0.419
13001W        W81395  26.902  31.256  11.195
13002W        W81396  16.096  33.646   2.747
13003W        W81397  21.327  26.436  14.094
13004W        W81398  34.865  13.643  11.009
13005W        W81399  38.006  37.824   0.514
13006W        W81400  30.144  19.063   3.748
13007W        W81401   7.841  36.439  11.596
13008W        W81402  39.446  42.222  12.452
13009W        W81403   7.997   1.929   3.360
13010W        W81404  39.498  27.169   0.526
13011W        W81405  24.446  35.315   3.614
13012W        W81406  14.835  14.368  11.559
13013W        W81407  11.165  33.315   2.175
13014W        W81408  20.266  13.235   2.854
13015W        W81409  37.382  39.889  11.175
13016W        W81410  37.927  41.182  11.132
13017W        W81411  37.908  10.515   0.710
13018W        W81412  36.892  19.560  13.004
13019W        W81413   3.932   0.754  11.980
13020W        W81414  27.129   1.231  12.918
13021W        W81415  37.954  37.990   3.335
13022W        W81416  42.120  41.741   4.201
13023W        W81417  22.792  31.470  14.426
13024W        W81418  39.508  30.365  13.571
13025W        W81419  32.437  41.508   3.121
13026W        W81420  28.514   8.667  14.331
13027W        W81421   2.691  40.653  10.869
13028W        W81422  33.145   0.725   2.315
13029W        W81423  25.080  25.559   1.374
13030W        W81424   1.897  15.777   0.330
13031W        W81425  35.445  28.095  12.936
13032W        W81426   7.024   0.291   4.167
13033W        W81427   1.314  22.390   4.549
13034W        W81428  34.888  41.434   1.183
13035W        W81429  25.594   9.814  11.600
13036W        W81430  37.930  23.572   3.777
13037W        W81431  45.000  42.905  11.105
13038W        W81432  14.274  23.965   3.231
13039W        W81433  29.055   3.992  12.963
13040W        W81434  22.276  38.731  13.331
13041W        W81435   4.685  16.815  11.239
13042W        W81436  39.951  25.932   0.877
13043W        W81437  36.888   1.801   2.143
13044W        W81438   3.251  44.214   1.319
13045W        W81439  42.774  26.148  11.575
13046W        W81440  41.949   1.590  12.763
13047W        W81441  43.777  22.674  14.569
13048W        W81442  31.714  14.655   4.466
13049W        W81443   1.369  36.496   3.700
13050W        W81444   6.493   1.463  12.023
13051W        W81445  20.636  44.444  12.787
13052W        W81446  19.290  44.911  13.426
13053W        W81447  39.621  30.843  13.765
13054W        W81448  36.870  29.650   3.638
13055W        W81449   1.384  26.243   1.409
13056W        W81450  36.290  13.738   2.377
13057W        W81451   7.168  27.375   1.783
13058W        W81452   1.004   0.200   3.696
13059W        W81453  36.242  15.141  12.327
13060W        W81454  40.616   1.467  11.200
13061W        W81455   7.392  38.753   1.476
13062W        W81456  41.371  24.733  12.487
13063W        W81457  34.717  25.519  14.632
13064W        W81458  28.100  31.096   4.296
13065W        W81459  29.017  42.429  14.102
13066W        W81460  14.111  42.727  14.144
13067W        W81461   2.101  41.243  10.654
13068W        W81462  32.518   5.781   0.768
13069W        W81463  32.596  24.632   0.763
13070W        W81464  28.385   5.930   4.595
13071W        W81465  18.211  26.252   3.809
13072W        W81466  21.003  11.537  14.033
13073W        W81467  12.203  22.149  10.651
13074W        W81468  39.038   1.358  11.165
13075W        W81469  31.141  30.125  13.956
13076W        W81470  39.487  27.668  14.600
13077W        W81471   5.336  23.567   2.646
13078W        W81472   4.002  42.748   0.724
13079W        W81473   9.890  19.264  11.613
13080W        W81474  29.878  42.646  12.580
13081W        W81475   4.384   1.242  11.072
13082W        W81476   4.827  42.275   4.200
13083W        W81477  30.476   1.305   1.895
13084W        W81478  33.936  39.937  12.822
13085W        W81479  29.136  33.446  14.040
13086W        W81480   9.165  35.366  12.079
13087W        W81481  44.107   8.389  12.004
13088W        W81482  29.507  41.388  14.429
13089W        W81483  21.815  12.893  12.057
13090W        W81484   8.299   8.300   4.541
13091W        W81485   7.377  31.677  10.673
13092W        W81486  41.770   6.800   1.221
13093W        W81487  36.295  13.264   4.074
13094W        W81488  22.135  29.678  12.129
13095W        W81489   4.666  42.320  12.688
13096W        W81490  34.537  40.304  11.093
13097W        W81491   3.489   2.859   3.585
13098W        W81492   0.034  25.794  11.639
13099W        W81493  35.872   8.854  12.429
13100W        W81494  28.421  25.386   4.115
13101W        W81495  34.896  25.108  13.930
13102W        W81496  18.770   0.854  14.988
13103W        W81497   6.401  33.856  10.568
13104W        W81498  26.162   4.177   1.273
13105W        W81499   4.687  36.201   0.509
13106W        W81500  10.693  30.091   1.668
13107W        W81501  41.811  34.756  12.956
13108W        W81502   9.542  27.945   3.829
13109W        W81503  34.102   2.234   1.488
13110W        W81504  33.376  29.885   4.218
13111W        W81505  18.200   8.451  11.062
13112W        W81506  26.546  25.543  14.204
13113W        W81507  39.912   3.442  13.540
13114W        W81508  39.880  38.563   2.148
13115W        W81509   8.370  18.724  11.073
13116W        W81510   0.146   9.661  14.037
13117W        W81511  35.965  35.820  11.092
13118W        W81512  17.327  13.778   1.965
13119W        W81513  20.189  25.799  10.700
13120W        W81514  12.936   1.751  13.879
13121W        W81515  41.143  19.212  12.791
13122W        W81516  44.845  15.895  13.425
13123W        W81517   2.246  42.402  13.516
13124W        W81518  12.560  10.597  10.714
13125W        W81519  11.331  11.930  13.938
13126W        W81520   7.651  28.167  13.808
13127W        W81521  19.994  44.439  14.657
13128W        W81522   7.454  18.241  13.278
13129W        W81523  41.497  38.416   2.880
13130W        W81524  26.902  11.700  11.952
13131W        W81525  40.526  38.339   3.294
13132W        W81526   9.155  33.968  12.995
13133W        W81527  28.658   1.711   2.366
13134W        W81528   6.198  12.421  13.292
13135W        W81529   2.428  41.301   1.440
13136W        W81530   7.530   5.767   2.351
13137W        W81531  43.038  25.796  12.468
13138W        W81532  15.537  15.450  13.163
13139W        W81533  28.725  26.696  14.606
13140W        W81534  28.665  35.208  11.849
13141W        W81535   3.634  24.601   3.995
13142W        W81536  36.679   3.741  12.852
13143W        W81537   8.938   1.601  12.914
13144W        W81538  39.906  39.835   1.778
13145W        W81539  41.549  27.035  13.531
13146W        W81540   8.556   7.365  11.523
13147W        W81541  23.726  21.857  10.748
13148W        W81542   6.517  32.010   3.993
13149W        W81543   0.953  16.998  14.475
13150W        W81544  23.507  26.921   0.481
13151W        W81545  18.519  16.612  13.013
13152W        W81546  26.023   7.590  13.603
13153W        W81547  24.957  40.827  11.092
13154W        W81548  13.235  17.681   2.307
13155W        W81549   9.749  14.249  11.437
13156W        W81550  36.475   3.222  12.100
13157W        W81551  35.964  44.248   2.247
13158W        W81552   8.258  27.460   4.594
13159W        W81553   8.904   2.336  10.626
13160W        W81554   2.591  40.680   4.102
13161W        W81555   6.680  41.374   0.857
13162W        W81556  43.216  17.046   4.230
13163W        W81557  33.979  28.358  13.946
13164W        W81558  27.323   1.950   2.742
13165W        W81559  38.036  31.027   0.740
13166W        W81560  26.143  28.638  11.685
13167W        W81561  22.111  33.673  12.440
13168W        W81562  26.177   3.165   2.673
13169W        W81563  24.551  42.083   2.382
13170W        W81564  14.390  30.630  14.966
13171W        W81565  17.068   7.534  12.490
13172W        W81566  13.007  36.595   2.687
13173W        W81567   6.021  20.530   3.199
13174W        W81568  34.401  35.055   2.553
13175W        W81569  15.766  13.160  12.566
13176W        W81570   0.629   2.263   4.178
13177W        W81571  32.651  28.068   4.488
13178W        W81572   6.070   9.347  10.668
13179W        W81573   5.303  12.434   1.421
13180W        W81574   0.332  22.663  12.942
13181W        W81575   5.531  21.735  12.120
13182W        W81576  17.804   0.284   1.788
13183W        W81577  17.806   3.577   1.677
13184W        W81578  14.698  36.580   2.170
13185W        W81579  37.795  36.066  10.679
13186W        W81580  32.144   5.396  12.026
13187W        W81581  31.948  20.218  14.422
13188W        W81582  33.014  18.237   1.422
13189W        W81583  19.181  42.176  13.964
13190W        W81584  29.240  10.695   2.833
13191W        W81585  18.248  24.543  12.492
13192W        W81586  40.475  35.008  14.621
13193W        W81587  20.666   4.807  12.127
13194W        W81588  40.065  27.468   1.360
13195W        W81589  15.664  10.050   5.442
13196W        W81590  36.976  13.103  14.848
13197W        W81591  42.270  29.521   4.044
13198W        W81592  21.492  31.350   0.587
13199W        W81593  19.219  28.724  10.306
13200W        W81594  32.660  23.430  12.336
13201W        W81595   7.575  10.992   0.818
13202W        W81596  39.549   9.703   4.059
13203W        W81597  18.706  25.975  14.931
13204W        W81598  14.559  35.280  14.199
13205W        W81599  13.666   1.001  14.713
13206W        W81600  18.095  36.897   4.567
13207W        W81601  18.684  43.206  14.471
13208W        W81602   3.190  14.348  11.239
13209W        W81603  17.414  44.793  14.400
13210W        W81604   3.774  28.132  10.280
13211W        W81605  13.614  30.198   4.682
13212W        W81606   0.859  22.633   1.902
13213W        W81607  37.805  34.023  11.470
13214W        W81608  13.437   7.923   1.350
13215W        W81609  29.667  43.810   4.653
13216W        W81610  29.441  22.033  13.385
13217W        W81611   3.131  36.399  11.153
13218W        W81612  32.673  17.738   4.205
13219W        W81613  38.301   8.682  11.709
13220W        W81614  35.106  18.611  13.109
13221W        W81615  40.127  26.398   0.743
13222W        W81616  31.024  37.835   4.451
13223W        W81617   4.816  43.010   0.382
13224W        W81618  13.199  37.777   4.122
13225W        W81619  43.829   2.692   0.657
13226W        W81620  36.911  26.509  12.750
13227W        W81621   4.728   2.186   2.323
13228W        W81622   5.860  37.099  14.001
13229W        W81623   0.171  32.687   0.438
13230W        W81624  30.334  30.506   4.475
13231W        W81625  44.963  24.238   3.683
13232W        W81626  18.980   8.518  12.893
13233W        W81627   8.835  30.025   2.386
13234W        W81628  26.241  21.281  14.957
13235W        W81629   7.819  28.535   3.788
13236W        W81630  34.006  28.909   1.527
13237W        W81631  13.045  24.617  11.182
13238W        W81632  30.851   1.691   0.748
13239W        W81633  21.737  29.378  11.959
13240W        W81634  12.275   2.243   3.621
13241W        W81635  27.280  34.580   0.027
13242W        W81636  31.784   2.961  10.387
13243W        W81637   7.724  33.940  13.767
13244W        W81638  27.600  30.860   3.629
13245W        W81639   2.014  35.592   1.268
13246W        W81640  35.384  36.576   0.027
13247W        W81641  17.406   5.650   3.701
13248W        W81642  37.853  42.055   3.681
13249W        W81643  14.817  12.215   0.414
13250W        W81644  30.061  12.203  14.387
13251W        W81645  15.351   1.191  12.942
13252W        W81646  43.474  12.758  12.803
13253W        W81647  11.426  26.127  14.846
13254W        W81648  19.043   7.885   2.296
13255W        W81649  29.974   5.966   3.626
13256W        W81650  40.569  29.152   4.809
13257W        W81651  44.730  37.326   0.871
13258W        W81652  12.153  17.546  10.864
13259W        W81653  30.613  12.673   1.285
13260W        W81654   6.316  43.455   2.681
13261W        W81655  44.817  41.983   2.882
13262W        W81656   4.155  32.839  12.058
13263W        W81657   2.937  41.289   2.348
13264W        W81658  26.552  38.832  14.787
13265W        W81659  43.499  21.947  11.121
13266W        W81660   4.639  12.821   5.525
13267W        W81661  17.277  39.487   9.876
13268W        W81662  37.519  20.717   2.592
13269W        W81663   0.361  32.091  11.438
13270W        W81664  34.181  19.062  12.434
13271W        W81665  43.342  26.288  14.844
13272W        W81666   0.840  10.600   2.811
13273W        W81667   9.462  14.975  11.543
13274W        W81668  30.140  15.558  13.487
13275W        W81669  24.214  29.452   0.553
13276W        W81670   5.180  43.309  12.511
13277W        W81671   7.003  22.790   2.297
13278W        W81672  27.389   4.640  14.846
13279W        W81673  19.721   4.196   1.786
13280W        W81674  11.256  28.843  14.087
13281W        W81675  41.546   6.222  13.905
13282W        W81676   0.998  38.486   5.109
13283W        W81677  39.849  28.476   1.375
13284W        W81678  44.755  28.028   3.342
13285W        W81679   8.366  19.822  13.128
13286W        W81680  34.537  13.132   1.415
13287W        W81681  33.408   7.987   1.325
13288W        W81682  39.957  34.156  13.814
13289W        W81683  26.702  21.568  11.187
13290W        W81684  15.279  24.560   2.226
13291W        W81685  36.801  28.538   1.660
13292W        W81686  39.498  36.949  14.046
13293W        W81687  10.884  19.873  14.502
13294W        W81688  44.373   5.657  11.966
13295W        W81689  31.906  31.581  12.901
13296W        W81690  35.999   3.843  13.490
13297W        W81691  23.577   4.858   3.695
13298W        W81692  20.968  36.033   4.100
13299W        W81693  31.696  24.011  12.862
13300W        W81694  17.652  18.527  13.069
13301W        W81695   6.450  38.612  10.403
13302W        W81696  37.928  13.655  11.927
13303W        W81697  44.436   3.718  10.728
13304W        W81698  33.580  14.065   4.717
13305W        W81699  20.715   3.639  14.043
13306W        W81700   1.174  35.012   2.911
13307W        W81701   5.889  14.807   1.374
13308W        W81702  40.531  25.316   3.574
13309W        W81703  28.512  15.735   2.136
13310W        W81704  39.807  32.089  13.277
13311W        W81705  28.047  42.863   4.500
13312W        W81706  33.403  40.461  11.747
13313W        W81707  16.882  41.778  12.267
13314W        W81708  36.875  16.851   1.297
13315W        W81709  18.608  42.184  10.966
13316W        W81710  35.146  27.913  12.544
13317W        W81711  17.053  31.892  13.063
13318W        W81712  34.197  43.482   4.599
13319W        W81713  20.802  13.881   4.034
13320W        W81714  11.378   7.064   2.222
13321W        W81715  36.515  16.647   3.225
13322W        W81716  16.353  29.174   9.721
13323W        W81717  19.252   8.733  14.072
13324W        W81718   3.434  24.631   1.453
13325W        W81719  39.372  43.753  10.728
13326W        W81720   7.375  16.650  14.343
13327W        W81721  30.243   1.219  11.337
13328W        W81722   5.960  27.869  14.354
13329W        W81723  41.569  12.733   3.326
13330W        W81724  24.073  12.685   4.835
13331W        W81725   5.707   4.358  14.103
13332W        W81726  25.560   1.355  10.712
13333W        W81727  21.529  24.557  12.903
13334W        W81728  19.130  38.900   0.206
13335W        W81729  22.075  17.999   2.661
13336W        W81730  32.225  37.738  10.729
13337W        W81731  18.282  28.935   3.681
13338W        W81732  35.781  27.870   3.610
13339W        W81733  24.559   7.421   0.857
13340W        W81734  30.513  38.369   0.290
13341W        W81735  19.054  20.707   2.290
13342W        W81736   1.542  22.137   1.806
13343W        W81737   1.505  35.649  13.434
13344W        W81738  31.478  14.359   2.257
13345W        W81739   8.418   5.814  12.446
13346W        W81740   6.473  33.034  14.383
13347W        W81741  35.623  22.697   1.316
13348W        W81742  28.181  29.971   1.845
13349W        W81743  25.663  41.530   3.298
13350W        W81744  23.492   2.667   1.713
13351W        W81745   1.537  20.124   4.192
13352W        W81746  33.894  20.801   4.066
13353W        W81747  36.597  37.054   3.085
13354W        W81748  20.969  19.716  14.288
13355W        W81749  36.389  18.312  12.923
13356W        W81750  41.677  40.114   4.799
13357W        W81751  25.400  14.240   3.433
13358W        W81752  37.389   0.454   3.219
13359W        W81753  11.480   2.347  14.074
13360W        W81754  28.561  37.347  13.436
13361W        W81755   0.384  29.878  12.029
13362W        W81756  38.855  10.868  11.985
13363W        W81757   8.702  20.237  13.474
13364W        W81758   9.849  15.917  14.427
13365W        W81759   3.825   7.791   0.754
13366W        W81760  13.802  27.913  13.533
13367W        W81761  11.241  32.438  14.240
13368W        W81762  43.471  24.651   2.909
13369W        W81763  21.706  35.801   1.852
13370W        W81764   3.097  39.313   4.113
13371W        W81765  21.654  31.393   0.113
13372W        W81766  44.436   0.145  13.662
13373W        W81767  44.618  10.635  13.239
13374W        W81768  25.161  23.645  11.914
13375W        W81769  39.450  36.200  12.619
13376W        W81770  33.627   6.201   4.224
13377W        W81771  32.564  14.823   3.698
13378W        W81772  32.570  18.117  10.295
13379W        W81773  41.611  40.312  13.303
13380W        W81774  30.068  32.331   0.553
13381W        W81775  25.909  30.152   3.800
13382W        W81776   9.726  34.119   3.597
13383W        W81777  15.770  28.093  14.037
13384W        W81778  10.948  10.779   3.325
13385W        W81779  34.898  40.612   4.584
13386W        W81780  27.070  12.195  11.869
13387W        W81781  17.821  24.199   3.557
13388W        W81782  14.283   4.150  10.732
13389W        W81783  29.415  28.244   2.331
13390W        W81784  17.534  14.667   0.761
13391W        W81785  44.632  27.452   2.237
13392W        W81786  15.159  22.228  10.636
13393W        W81787   2.277  10.868   3.383
13394W        W81788  34.020  31.847  13.865
13395W        W81789   1.485  13.727  13.581
13396W        W81790  29.584  39.919  14.838
13397W        W81791  42.988  41.194   2.302
13398W        W81792  22.019   6.957  13.187
13399W        W81793   4.214  38.605   3.555
13400W        W81794   9.792  43.290  12.647
13401W        W81795  27.936  41.843   1.130
13402W        W81796  12.731  28.716   4.356
13403W        W81797   8.458   9.682  14.614
13404W        W81798  37.392  42.216   4.616
13405W        W81799  19.296  42.145  10.690
13406W        W81800  33.999   0.156  12.553
13407W        W81801  18.279   3.812   2.806
13408W        W81802   0.163  36.840   5.403
13409W        W81803  34.348   8.691  14.431
13410W        W81804  28.350  34.845   4.622
13411W        W81805  33.551  40.330   3.609
13412W        W81806  38.485   6.196   1.374
13413W        W81807  12.039  11.690   4.216
13414W        W81808  30.158  17.151  14.526
13415W        W81809  39.903  42.891   0.953
13416W        W81810  13.400  15.856  13.122
13417W        W81811  28.218  22.985   3.655
13418W        W81812  37.003  18.899   0.794
13419W        W81813  21.982  43.876  11.981
13420W        W81814  34.783  13.609   2.214
13421W        W81815   2.902   4.717  14.382
13422W        W81816  39.939  27.961   1.409
13423W        W81817  10.037  14.678   3.636
13424W        W81818  32.249   0.307  12.053
13425W        W81819  34.951  18.230  14.054
13426W        W81820  24.529  29.168  12.100
13427W        W81821  17.598  36.401  14.466
13428W        W81822  38.283  18.600   1.125
13429W        W81823  39.365   2.363   1.438
13430W        W81824  11.801  40.406   0.862
13431W        W81825   8.509  32.827  14.566
13432W        W81826  26.210   7.459  11.891
13433W        W81827  43.808  20.990   3.350
13434W        W81828   1.803  39.032   3.762
13435W        W81829  38.516   9.751   2.720
13436W        W81830   5.369  10.335  13.027
13437W        W81831   1.034   5.631   0.493
13438W        W81832   2.872  10.118  14.745
13439W        W81833   8.109  42.482   4.787
13440W        W81834  22.789  23.690   3.227
13441W        W81835   1.919  33.437   4.004
13442W        W81836  37.999   1.897   4.809
13443W        W81837  42.014   4.713  12.437
13444W        W81838  43.269  26.033   2.359
13445W        W81839  14.434  37.933  11.544
13446W        W81840   2.754  35.441   0.838
13447W        W81841  37.030  28.674   4.681
13448W        W81842  28.394   1.496   0.460
13449W        W81843  26.586  16.324   0.406
13450W        W81844  24.742  32.042   0.843
13451W        W81845   4.202  43.941   2.340
13452W        W81846  24.216  19.423   2.697
13453W        W81847   0.345  36.398  10.660
13454W        W81848   1.467  37.354   2.918
13455W        W81849   4.435  36.033  14.622
13456W        W81850  30.628   8.443   1.151
13457W        W81851  32.060  14.578  13.160
13458W        W81852  23.564  25.690  12.076
13459W        W81853  23.448  23.458  11.591
13460W        W81854  22.179  38.095   2.857
13461W        W81855  13.185  26.214  13.886
13462W        W81856  28.495  22.494  10.592
13463W        W81857  25.130  26.113  13.460
13464W        W81858  22.547  10.058  14.061
13465W        W81859  20.089   9.221  14.516
13466W        W81860  19.594  16.779   2.348
13467W        W81861   1.925  23.594  12.587
13468W        W81862   1.295  42.285   2.172
13469W        W81863   7.525  33.540  13.495
13470W        W81864  16.153  21.940   2.455
13471W        W81865   1.137  41.806   1.215
13472W        W81866  26.202  44.238   0.419
13473W        W81867  28.410  17.165   2.284
13474W        W81868   7.753  28.857  13.435
13475W        W81869   7.577  21.336   3.688
13476W        W81870  25.607   9.839   0.249
13477W        W81871  11.165  25.606  12.007
13478W        W81872  28.036  24.212   3.281
13479W        W81873   3.811  11.262  11.172
13480W        W81874   0.753  19.139  13.339
13481W        W81875  18.337  27.971  13.985
13482W        W81876   8.829   7.276  12.075
13483W        W81877  18.297  31.475   1.795
13484W        W81878  26.953  19.671  12.504
13485W        W81879   9.899  24.037  11.856
13486W        W81880   0.281  26.436  13.448
13487W        W81881  12.195  13.069   2.866
13488W        W81882  24.620  20.702   1.452
13489W        W81883  42.734  18.053   3.106
13490W        W81884  35.956   6.453   4.577
13491W        W81885  11.167   3.686   2.317
13492W        W81886  36.242  15.079   2.573
13493W        W81887  32.564  27.153  10.768
13494W        W81888  42.451  13.298  10.743
13495W        W81889  21.027  27.266   2.785
13496W        W81890  37.916  22.997   0.703
13497W        W81891  21.533  38.374   1.779
13498W        W81892   3.369  41.430   1.397
13499W        W81893  11.744   3.983  13.450
13500W        W81894  39.306   6.291   2.549
13501W        W81895   1.901  15.796  12.570
13502W        W81896   8.279  23.187   3.329
13503W        W81897  20.160  36.141   4.021
13504W        W81898  27.609  22.197  13.891
13505W        W81899  20.514  17.196   3.394
13506W        W81900  43.850   3.473   1.201
13507W        W81901   5.138  44.001  12.075
13508W        W81902  27.199  43.730  12.867
13509W        W81903  23.982   4.449   1.479
13510W        W81904  36.432  23.542   3.159
13511W        W81905   9.750  34.689  14.245
13512W        W81906  37.853  12.881   5.038
13513W        W81907  42.970  14.166   2.200
13514W        W81908  43.250  14.588   2.303
13515W        W81909   8.319  42.260  10.751
13516W        W81910   4.246  10.919  10.536
13517W        W81911   0.929  32.187  12.048
13518W        W81912   8.773  10.160   2.612
13519W        W81913  35.936  29.986  14.894
13520W        W81914  44.346  12.389   3.846
13521W        W81915  15.791  19.698  11.517
13522W        W81916  37.026   1.981  11.667
13523W        W81917  11.338  11.371  10.399
13524W        W81918   9.603  31.458  14.448
13525W        W81919  21.642  26.958   3.333
13526W        W81920  28.031  28.200   2.189
13527W        W81921  41.928  39.732   0.242
13528W        W81922  43.397  38.616  13.626
13529W        W81923   2.190  38.510   3.861
13530W        W81924  41.804   0.955   0.745
13531W        W81925   2.288  44.579   4.239
13532W        W81926   5.020  40.155  14.831
13533W        W81927  20.545   2.374  12.398
13534W        W81928  36.959  36.972   1.821
13535W        W81929  41.477  33.842   3.616
13536W        W81930   7.865  44.800  11.449
13537W        W81931  16.533  12.194  12.896
13538W        W81932  22.481   9.420   2.822
13539W        W81933  44.793  31.704  10.478
13540W        W81934  38.964   8.087  11.714
13541W        W81935   5.437   1.514  13.444
13542W        W81936  14.735  36.978  12.287
13543W        W81937  11.683  36.650  12.482
13544W        W81938  15.728  12.334   1.449
13545W        W81939  27.206  29.229   4.839
13546W        W81940   2.107   8.775  12.111
13547W        W81941  43.417  13.557   2.195
13548W        W81942  18.761   4.395  14.821
13549W        W81943  16.535  25.637   3.699
13550W        W81944   3.424  38.445  11.716
13551W        W81945  29.132   0.938   2.737
13552W        W81946  19.808  42.861   3.089
13553W        W81947  43.381  26.849  13.924
13554W        W81948  27.257  13.649  14.891
13555W        W81949  27.638   9.364  11.966
13556W        W81950  16.299  31.980   0.212
13557W        W81951  43.226  12.925  13.248
13558W        W81952   4.904  24.304  13.431
13559W        W81953  22.027  19.342   2.534
13560W        W81954   4.497  11.291   1.326
13561W        W81955  32.028   9.732   4.666
13562W        W81956  19.304  14.335   4.728
13563W        W81957   3.904   9.317   4.616
13564W        W81958  43.286   1.083  13.769
13565W        W81959  18.238  25.985   3.315
13566W        W81960  19.782   9.258   1.899
13567W        W81961   0.560  31.978  12.991
13568W        W81962  40.562   4.021   3.801
13569W        W81963  23.172  15.755  10.787
13570W        W81964   4.220  33.021   3.278
13571W        W81965  40.823  39.719   3.313
13572W        W81966  37.885  35.307  11.126
13573W        W81967  30.658   8.906  13.860
13574W        W81968   0.866   4.392  13.812
13575W        W81969   6.840  22.446  11.920
13576W        W81970  21.183  28.190   3.193
13577W        W81971   4.606   4.433   2.681
13578W        W81972   6.860   1.116  13.598
13579W        W81973  21.166   8.332  10.378
13580W        W81974  44.313  25.588   3.599
13581W        W81975  11.072   8.818   1.922
13582W        W81976  15.769   9.015   3.657
13583W        W81977  44.725  23.683  12.570
13584W        W81978  11.098  18.051   0.183
13585W        W81979  34.540   6.480   3.360
13586W        W81980   6.451   8.342  11.751
13587W        W81981  13.866  26.800  14.997
13588W        W81982  30.097  32.822   3.681
13589W        W81983  37.793  39.216   4.164
13590W        W81984  42.873  20.041   3.114
13591W        W81985  13.967  12.055   0.835
13592W        W81986  19.500   7.839  13.302
13593W        W81987  42.215  37.399   0.316
13594W        W81988  21.517  27.981   2.249
13595W        W81989  10.144  13.107  10.969
13596W        W81990  20.104  18.807   5.100
13597W        W81991  42.969  42.359  12.177
13598W        W81992  30.281  10.389  11.784
13599W        W81993  22.948   9.259   2.678
13600W        W81994   1.014  26.198  14.278
13601W        W81995   4.857   7.796   2.147
13602W        W81996  22.687   8.305  10.325
13603W        W81997   9.273  29.386  13.830
13604W        W81998  30.115  11.857   1.475
13605W        W81999   5.778  43.901   4.201
13606W        W82000  13.331  39.484   1.776
13607W        W82001  14.601  39.833  14.931
13608W        W82002  41.709  16.969   3.284
13609W        W82003  41.352  26.960   2.881
13610W        W82004  36.433  42.971   1.876
13611W        W82005  16.867   2.091   3.983
13612W        W82006  35.139  27.645   1.260
13613W        W82007  13.909  43.982  14.076
13614W        W82008   6.452   5.357   4.129
13615W        W82009  17.459  32.927  12.403
13616W        W82010  23.586  43.945   1.350
13617W        W82011   1.282  41.682  12.403
13618W        W82012  33.840  30.423   4.666
13619W        W82013   2.486  37.785   3.216
13620W        W82014  15.057   6.422   2.424
13621W        W82015   6.405  40.824  12.446
13622W        W82016  23.354   8.289   1.338
13623W        W82017   0.347  43.977   4.127
13624W        W82018  10.513  38.706  11.349
13625W        W82019  44.789  10.042   3.646
13626W        W82020   9.896  41.068   2.327
13627W        W82021  25.469  23.259  10.730
13628W        W82022  12.133   7.900  14.861
13629W        W82023   3.397  27.722   4.946
13630W        W82024  30.141  41.496  12.859
13631W        W82025  25.492  27.985   0.286
13632W        W82026   2.178  21.044   4.439
13633W        W82027   1.006  10.333   4.169
13634W        W82028   3.198  15.352  12.918
13635W        W82029  13.347  14.538  11.565
13636W        W82030  34.461  36.438  11.526
13637W        W82031   3.405   0.464   2.705
13638W        W82032  34.988   1.256   0.488
13639W        W82033   4.840  11.676   1.313
13640W        W82034  14.739  23.414  13.355
13641W        W82035  15.682   0.878  10.534
13642W        W82036  44.691  14.914   3.732
13643W        W82037  43.843  35.869  10.909
13644W        W82038  11.875  18.920   1.379
13645W        W82039  42.914   2.989  12.613
13646W        W82040  19.339  38.558  13.390
13647W        W82041  41.305  11.442   3.154
13648W        W82042  34.461  14.859   2.646
13649W        W82043   1.390  12.019   2.875
13650W        W82044  37.156  27.241   4.772
13651W        W82045  33.503  44.938  11.689
13652W        W82046   4.764  13.620  13.257
13653W        W82047  28.214  37.887   1.758
13654W        W82048  35.910   7.383   4.612
13655W        W82049  43.049   8.076   4.567
13656W        W82050  22.979  32.435  14.542
13657W        W82051   5.425  35.020   0.013
13658W        W82052  23.793   0.999  11.417
13659W        W82053  18.882  19.427   5.307
13660W        W82054  29.010   0.217   0.770
13661W        W82055  32.039  36.892  14.874
13662W        W82056   0.242  15.657  12.373
13663W        W82057  22.761  14.245   1.407
13664W        W82058  37.656   8.435  11.013
13665W        W82059  35.769  39.925   1.136
13666W        W82060  11.805   8.380  12.859
13667W        W82061  36.514  38.836  14.890
13668W        W82062  37.636  41.746   2.844
13669W        W82063  24.520  31.642   2.225
13670W        W82064  19.088  44.977  12.471
13671W        W82065  32.117  17.476   0.456
13672W        W82066  21.258  35.485   1.306
13673W        W82067  35.549  41.431   0.135
13674W        W82068   9.651  44.950  13.360
13675W        W82069  40.076  20.829  12.615
13676W        W82070  32.846  18.779  10.699
13677W        W82071   6.728  25.467  13.302
13678W        W82072  37.877  11.242   2.626
13679W        W82073   5.252  20.502  12.489
13680W        W82074  41.064   7.125   2.633
13681W        W82075   8.395  20.321  13.055
13682W        W82076  22.895  21.651  11.203
13683W        W82077   8.769  28.592   3.733
13684W        W82078  27.291  11.390   5.444
13685W        W82079  16.850   7.967   0.264
13686W        W82080  32.950  17.037   3.533
13687W        W82081  24.871  19.739   0.711
13688W        W82082  14.585  35.537   2.930
13689W        W82083  15.801  35.044  14.484
13690W        W82084  43.071  13.983  13.626
13691W        W82085   9.120  33.962   1.269
13692W        W82086   6.831  30.809   3.320
13693W        W82087  39.571  11.165  13.947
13694W        W82088  35.590  19.673  12.221
13695W        W82089   8.766  21.189  12.601
13696W        W82090  44.065  27.137  13.558
13697W        W82091  44.514  41.116   0.926
13698W        W82092   1.277   1.296   0.772
13699W        W82093  33.096  35.508   4.205
13700W        W82094  19.291  12.144   1.207
13701W        W82095  14.445  31.369   0.030
13702W        W82096   5.668  25.749   0.862
13703W        W82097  10.789   2.128   1.815
13704W        W82098  18.159  42.294  10.665
13705W        W82099  24.170  34.872  11.004
13706W        W82100  26.188   9.834   2.093
13707W        W82101  31.736   4.567   5.131
13708W        W82102   0.964  39.238   0.456
13709W        W82103  28.517   4.966   0.935
13710W        W82104  22.243  14.837   3.739
13711W        W82105  18.845  38.049   1.444
13712W        W82106  17.748   4.863  14.444
13713W        W82107   3.911  24.079   0.285
13714W        W82108  14.196   2.440  11.389
13715W        W82109  32.886  43.343   3.172
13716W        W82110  30.019  21.214  14.465
13717W        W82111   8.778  21.667  13.833
13718W        W82112  20.717  15.374   2.837
13719W        W82113   1.792  39.066   1.429
13720W        W82114   0.724   5.717   0.914
13721W        W82115  10.192   9.253  10.711
13722W        W82116  35.183  34.471  10.773
13723W        W82117  18.651   9.338   3.391
13724W        W82118  19.680   7.320  11.043
13725W        W82119  31.698  24.659  13.818
13726W        W82120  36.224  29.484  11.300
13727W        W82121  34.085  21.811   3.224
13728W        W82122  28.009  15.082   3.186
13729W        W82123  12.221   5.642  14.406
13730W        W82124  39.551  21.983  11.157
13731W        W82125   4.210  12.194  11.196
13732W        W82126  25.196  26.109  14.537
13733W        W82127  33.082  34.699   4.491
13734W        W82128  27.619  11.868  12.372
13735W        W82129   8.744  41.883   1.448
13736W        W82130   7.450  32.194   1.205
13737W        W82131  25.435   8.222  10.650
13738W        W82132   6.584  19.196  12.155
13739W        W82133  36.150  23.226  14.289
13740W        W82134  41.728  35.858  10.735
13741W        W82135  35.843  44.464  12.465
13742W        W82136   7.705  44.841  13.848
13743W        W82137  32.853  36.506   0.671
13744W        W82138  37.833   1.398  11.153
13745W        W82139  31.513  17.251   4.682
13746W        W82140  25.014  17.263   4.707
13747W        W82141  13.544  39.414  12.841
13748W        W82142   1.436  20.230   2.318
13749W        W82143  38.591  33.290   4.602
13750W        W82144  35.839  30.692   3.925
13751W        W82145  15.736  44.880  13.827
13752W        W82146  42.411  43.069   4.897
13753W        W82147  41.498  20.786   3.110
13754W        W82148  28.009  32.381  13.172
13755W        W82149  28.314  44.909   2.910
13756W        W82150  23.991   8.064  11.936
13757W        W82151   2.874  20.377   4.036
13758W        W82152  20.903  38.497   3.984
13759W        W82153  33.296   3.383  11.614
13760W        W82154  24.669  20.705  13.734
13761W        W82155  21.218  25.990  10.428
13762W        W82156  25.122   9.701   4.979
13763W        W82157   1.757  16.880  13.515
13764W        W82158  20.121  19.183  14.073
13765W        W82159   5.740  30.683   3.659
13766W        W82160   4.662  40.586  14.845
13767W        W82161   4.990  23.749  14.889
13768W        W82162   6.191  28.891  10.386
13769W        W82163   0.289  39.245  11.702
13770W        W82164  40.873  10.815   0.396
13771W        W82165   4.736  22.170   0.654
13772W        W82166  44.031  23.040   0.396
13773W        W82167  44.462  29.500   0.916
13774W        W82168  37.535  10.895   2.417
13775W        W82169   6.832  27.057  14.496
13776W        W82170  36.372  29.499  14.441
13777W        W82171   5.951  39.955   3.368
13778W        W82172  31.959  30.686  11.000
13779W        W82173  33.699  21.960  11.894
13780W        W82174  31.123   3.358  11.206
13781W        W82175  20.650  37.987  13.355
13782W        W82176  41.907   6.516   1.780
13783W        W82177  31.129   0.182  14.534
13784W        W82178   4.830   7.785  12.713
13785W        W82179  24.134   9.077   4.291
13786W        W82180  39.482  32.122  14.480
13787W        W82181  11.837   8.348  13.896
13788W        W82182  14.138  25.746  11.124
13789W        W82183  20.003   7.895  13.379
13790W        W82184   2.945  40.109  13.868
13791W        W82185   9.201  37.997   1.449
13792W        W82186   2.029  10.159   3.510
13793W        W82187  29.003  15.545   1.317
13794W        W82188  19.658  22.270  14.795
13795W        W82189   2.871  32.048   0.272
13796W        W82190  17.034  15.608  14.187
13797W        W82191  14.717   3.887  12.389
13798W        W82192  32.328   2.790   2.924
13799W        W82193  37.028   9.809   1.780
13800W        W82194  18.158   7.611  12.053
13801W        W82195  35.982  29.103  14.601
13802W        W82196  31.666  18.739   0.209
13803W        W82197  14.131   5.245   0.494
13804W        W82198  16.265  41.918   1.310
13805W        W82199  36.772  23.488   2.725
13806W        W82200  34.630  21.772   1.308
13807W        W82201  35.652  31.194   0.266
13808W        W82202   6.617  24.055   0.375
13809W        W82203  12.151  22.747  13.938
13810W        W82204  34.577  35.674   0.757
13811W        W82205  21.073   3.958  13.816
13812W        W82206  26.357   4.156   4.122
13813W        W82207  36.808  34.906  11.120
13814W        W82208  21.042  16.994  12.412
13815W        W82209  21.504  36.287  14.786
13816W        W82210  41.543  33.914  14.309
13817W        W82211  36.909   5.999   2.648
13818W        W82212  42.854  32.675  11.929
13819W        W82213  41.549  11.239  13.451
13820W        W82214  13.622  14.077  14.294
13821W        W82215  26.514  39.859   1.752
13822W        W82216   0.884  15.201  10.355
13823W        W82217  25.564  26.168  13.743
13824W        W82218  39.437  36.588   4.627
13825W        W82219  15.268  29.709  10.424
13826W        W82220  16.263  15.585  13.841
13827W        W82221  39.911   7.343   0.941
13828W        W82222  21.150  15.320  11.588
13829W        W82223   0.945  23.166   0.483
13830W        W82224  18.834  30.058   1.145
13831W        W82225  20.561   2.985   2.232
13832W        W82226  24.241  20.740   2.464
13833W        W82227  33.466  34.083   2.754
13834W        W82228  37.135  11.979   0.848
13835W        W82229   3.179  42.973   0.397
13836W        W82230  15.594  31.991   3.756
13837W        W82231  28.378  41.739  11.559
13838W        W82232   3.824  23.115   1.808
13839W        W82233  21.927  35.161  12.138
13840W        W82234   5.785  20.336  13.323
13841W        W82235  11.720  32.415  13.649
13842W        W82236   7.303  14.501  10.966
13843W        W82237  31.387  32.100  12.499
13844W        W82238  19.515  40.847  13.481
13845W        W82239  39.128  43.031  13.860
13846W        W82240  43.419  30.709   1.925
13847W        W82241   5.989  40.566  12.629
13848W        W82242   2.295  32.244   1.305
13849W        W82243  24.435  41.531   0.219
13850W        W82244  28.421  12.544   3.708
13851W        W82245  36.022  42.950   1.551
13852W        W82246  27.000  40.227  10.945
13853W        W82247  34.460  44.365   2.473
13854W        W82248  16.720   6.792   2.459
13855W        W82249  32.482  28.570  13.453
13856W        W82250   8.322  17.698  12.843
13857W        W82251   5.232  23.793   0.354
13858W        W82252  32.960   9.332  11.706
13859W        W82253  37.334  27.949  11.170
13860W        W82254  23.428  14.645   0.957
13861W        W82255  20.736   7.152  14.284
13862W        W82256  36.895   0.747  14.387
13863W        W82257  17.370  35.972   0.521
13864W        W82258  40.108   6.447   2.135
13865W        W82259   2.043  34.988   4.572
13866W        W82260  29.468   5.184  14.932
13867W        W82261  37.973  25.713  11.101
13868W        W82262  33.412  17.377   2.263
13869W        W82263  28.512   0.344  10.336
13870W        W82264  38.975  40.834  13.024
13871W        W82265  42.003   4.750  11.398
13872W        W82266  14.503  12.449  12.853
13873W        W82267   0.343  26.452  11.355
13874W        W82268  33.658  19.242  13.411
13875W        W82269   4.143  25.967   1.820
13876W        W82270  32.062  32.047   1.379
13877W        W82271  32.436  17.143   2.792
13878W        W82272  25.147  35.505  12.428
13879W        W82273  35.949  34.255  13.799
13880W        W82274  12.897  34.344  13.942
13881W        W82275  35.776   3.320  13.894
13882W        W82276  15.097   7.090   1.871
13883W        W82277   1.954   2.753  14.504
13884W        W82278  29.621  29.477   1.141
13885W        W82279  29.195   0.808   9.887
13886W        W82280  10.866   0.794   3.191
13887W        W82281  25.942  18.314   2.784
13888W        W82282   8.268  21.059  13.373
13889W        W82283  11.931  42.038  10.741
13890W        W82284  13.706  17.562   2.782
13891W        W82285  15.652   8.217   3.641
13892W        W82286  14.232  38.560  12.895
13893W        W82287  40.829  20.707  14.432
13894W        W82288  20.530  32.873  11.533
13895W        W82289   8.859  21.286   3.194
13896W        W82290  35.521  44.788  13.237
13897W        W82291  20.773   4.332   3.772
13898W        W82292   9.949  42.702   1.227
13899W        W82293  38.065   6.268  11.575
13900W        W82294  11.640  13.376  12.941
13901W        W82295  22.645  30.658  13.941
13902W        W82296  23.419  15.224   3.653
13903W        W82297  14.556  17.996  14.286
13904W        W82298  15.111  17.668   4.864
13905W        W82299  24.092   1.866  10.419
13906W        W82300  39.276  11.195   1.184
13907W        W82301  38.132  29.502  11.591
13908W        W82302  16.533  35.382   1.507
13909W        W82303   4.977  21.651   4.554
13910W        W82304  39.576  34.333  11.550
13911W        W82305  16.388  16.830   0.437
13912W        W82306  32.103  37.988   2.695
13913W        W82307  38.714  22.217  14.692
13914W        W82308  42.414  26.700   3.658
13915W        W82309  36.558  17.586   2.985
13916W        W82310   8.678  13.047  10.923
13917W        W82311   0.325  10.966  11.126
13918W        W82312  31.818  41.319  13.308
13919W        W82313  32.583  43.267   1.321
13920W        W82314  33.932  29.250  11.464
13921W        W82315  21.332  21.255  14.917
13922W        W82316   3.410  14.286   0.262
13923W        W82317   7.885   5.348  10.353
13924W        W82318   9.892  22.740  11.919
13925W        W82319  20.103  24.165  14.333
13926W        W82320  10.083  18.531   5.163
13927W        W82321  19.005  23.606   3.195
13928W        W82322  11.177  39.785   1.479
13929W        W82323  34.601  10.345   1.819
13930W        W82324  23.290  14.042  12.081
13931W        W82325   8.683   8.819   3.286
13932W        W82326  11.883  34.760  11.178
13933W        W82327  43.158   5.043   2.585
13934W        W82328  16.118   0.166   0.470
13935W        W82329  11.705  32.682  14.994
13936W        W82330  31.028  22.493   2.390
13937W        W82331   5.501   9.297  14.405
13938W        W82332  28.009  41.465   0.390
13939W        W82333  14.787  40.707  12.550
13940W        W82334  30.130  27.918   2.836
13941W        W82335   6.782   9.820  12.917
13942W        W82336  25.358  13.156   1.649
13943W        W82337  30.794   2.562   0.275
13944W        W82338  38.361   7.353   3.836
13945W        W82339  27.057  22.144   1.968
13946W        W82340  40.702   1.094   1.192
13947W        W82341   3.716   5.178  11.636
13948W        W82342  38.250  10.099  14.929
13949W        W82343  30.972  44.015  12.007
13950W        W82344   3.337  33.157   0.703
13951W        W82345  42.469  28.619  11.203
13952W        W82346  26.783  13.393  11.582
13953W        W82347   6.385  18.310   0.838
13954W        W82348  16.506  25.780  11.222
13955W        W82349  34.492  40.668  13.316
13956W        W82350  26.359  12.981  12.414
13957W        W82351  43.347  39.971   4.583
13958W        W82352  32.488  25.678  13.463
13959W        W82353   6.254  12.574  11.155
13960W        W82354  27.950  16.630  12.996
13961W        W82355  42.357   4.727   0.704
13962W        W82356  17.523  19.280  12.519
13963W        W82357  44.942   7.599   3.126
13964W        W82358  18.275   7.729   4.088
13965W        W82359   1.357  10.188   3.811
13966W        W82360  34.908  33.984   3.756
13967W        W82361  11.658  28.963  13.763
13968W        W82362  14.262  12.610   0.426
13969W        W82363  27.474  12.837   1.492
13970W        W82364  44.092  31.899  10.744
13971W        W82365  25.197   1.439   0.016
13972W        W82366  31.428  31.327   3.843
13973W        W82367  41.337  33.920  13.285
13974W        W82368  30.100  39.877  12.455
13975W        W82369  29.464  30.922  11.476
13976W        W82370   2.429  11.369  11.451
13977W        W82371  15.788  17.153  13.603
13978W        W82372   1.405   4.788   3.227
13979W        W82373  14.851  19.206   0.932
13980W        W82374  43.021  38.938   0.550
13981W        W82375  31.514  11.620   2.148
13982W        W82376  33.319  40.938  12.964
13983W        W82377  16.638  20.624   1.172
13984W        W82378  43.944  17.997   1.839
13985W        W82379  10.228  40.460  13.573
13986W        W82380  24.609   4.886   1.932
13987W        W82381  19.668  37.435   0.353
13988W        W82382  28.996  22.595  10.523
13989W        W82383  34.043   1.427  12.823
13990W        W82384  18.795  32.343   3.557
13991W        W82385  23.889   1.062  12.108
13992W        W82386  20.263  39.566  13.753
13993W        W82387  39.287  30.165   2.716
13994W        W82388  20.214   3.340  11.471
13995W        W82389  20.535   2.745   4.127
13996W        W82390  26.539   5.940   3.276
13997W        W82391   7.216  39.757   0.472
13998W        W82392  33.905   4.404  12.325
13999W        W82393  21.892  10.378   9.868
14000W        W82394  15.353  34.425   3.173
14001W        W82395   3.745   6.263  13.089
14002W        W82396   7.686   4.138   0.255
14003W        W82397  21.307  43.885   4.627
14004W        W82398  22.549  38.297  14.075
14005W        W82399   6.253  31.827  13.273
14006W        W82400  42.203  26.529  11.088
14007W        W82401  14.537   6.392  14.124
14008W        W82402  14.249  39.777   0.403
14009W        W82403  22.998  30.115   3.392
14010W        W82404  18.799  30.238  10.390
14011W        W82405  18.639  10.578   4.561
14012W        W82406  36.655  26.571  13.519
14013W        W82407   7.672   5.862  11.071
14014W        W82408  12.659  30.136  11.820
14015W        W82409   8.944  17.285  13.809
14016W        W82410  10.068   9.772   2.204
14017W        W82411   0.881  41.894  14.231
14018W        W82412  19.827  27.032   3.539
14019W        W82413   3.389  13.875  13.015
14020W        W82414  41.600  24.991   0.678
14021W        W82415  25.931  27.967  10.724
14022W        W82416  24.121  19.077   4.451
14023W        W82417  27.946  38.875   1.894
14024W        W82418   6.772  34.845  13.008
14025W        W82419   3.936  37.474   0.820
14026W        W82420  29.499  38.534   3.301
14027W        W82421  33.662   5.613   3.139
14028W        W82422  34.106  44.900  14.507
14029W        W82423  33.900  13.411   4.229
14030W        W82424  40.049  14.186  13.869
14031W        W82425  32.990  25.403   3.876
14032W        W82426  43.937  42.808  14.079
14033W        W82427  31.908  37.586   0.776
14034W        W82428  23.672  43.998  14.098
14035W        W82429  42.351   4.783  13.690
14036W        W82430  39.140  23.901  14.597
14037W        W82431  41.036  26.928   2.481
14038W        W82432   9.238   0.969   0.949
14039W        W82433  20.685  23.643   2.159
14040W        W82434   0.799  26.488  11.592
14041W        W82435  25.342  29.901  12.226
14042W        W82436  24.521  18.628   0.433
14043W        W82437  11.933  11.302  12.990
14044W        W82438  17.321   9.882   2.674
14045W        W82439  16.735  33.698  11.546
14046W        W82440  27.639  36.431   0.831
14047W        W82441  31.386  26.136  14.689
14048W        W82442  36.630   9.138   4.682
14049W        W82443   6.702  32.138   1.896
14050W        W82444  36.859  36.425  12.609
14051W        W82445  38.115  42.060  10.771
14052W        W82446  24.603  16.149  13.008
14053W        W82447  32.579   8.130  10.757
14054W        W82448   9.238  25.207   0.470
14055W        W82449  11.951  24.288  12.502
14056W        W82450  29.195  34.510  13.389
14057W        W82451  20.597  31.023   0.223
14058W        W82452  22.037  34.077   4.600
14059W        W82453  38.943  11.916   4.146
14060W        W82454  36.575  38.372  11.870
14061W        W82455  27.469  33.606   2.944
14062W        W82456   0.474  19.131  12.057
14063W        W82457  29.642  19.210  13.336
14064W        W82458   9.586  26.020   1.208
14065W        W82459  13.053  35.417  14.766
14066W        W82460   4.398   8.476   0.857
14067W        W82461   2.830  22.016  11.955
14068W        W82462  31.147  28.514   2.192
14069W        W82463  23.206   5.311   2.608
14070W        W82464  39.899  43.956  10.730
14071W        W82465  19.361   4.021  11.411
14072W        W82466  42.725  33.068  11.135
14073W        W82467  16.496  26.136  13.486
14074W        W82468   1.329  41.972   3.617
14075W        W82469  22.639  31.917  11.546
14076W        W82470   1.540  41.364   4.289
14077W        W82471  37.924  30.065   3.885
14078W        W82472   6.132  41.358  10.248
14079W        W82473  34.513  18.012  13.181
14080W        W82474  42.527  23.621   3.680
14081W        W82475  12.603   8.203  14.934
14082W        W82476  19.744  12.847  13.053
14083W        W82477  34.408  26.411  14.421
14084W        W82478  40.072  10.585   4.315
14085W        W82479   2.352  33.951  14.530
14086W        W82480  35.484   4.342   1.028
14087W        W82481  24.058  29.373  11.968
14088W        W82482  12.239   6.462   2.077
14089W        W82483  14.950  39.305   2.811
14090W        W82484  37.095  33.172  12.493
14091W        W82485   3.185  31.944   1.350
14092W        W82486  29.564   3.907  13.692
14093W        W82487  42.939   6.225   4.647
14094W        W82488  19.304  13.808   4.623
14095W        W82489   5.693  18.591  13.109
14096W        W82490  39.728  20.542   4.863
14097W        W82491  20.265  11.468   3.666
14098W        W82492  40.843  21.488   3.374
14099W        W82493  15.306  17.624   1.372
14100W        W82494  17.399  14.794  14.205
14101W        W82495  29.046  26.919  11.150
14102W        W82496  13.052  10.658  11.585
14103W        W82497  24.905  11.221  11.272
14104W        W82498   8.805  36.839   4.044
14105W        W82499  24.513  42.001  13.498
14106W        W82500  24.045  29.022   1.950
14107W        W82501  28.228  12.671  11.885
14108W        W82502   4.856   3.396  14.755
14109W        W82503   2.412  17.267   1.364
14110W        W82504  39.102   8.449   3.625
14111W        W82505   3.225  24.080  10.959
14112W        W82506   9.285  39.003  13.393
14113W        W82507  14.009  35.362  13.485
14114W        W82508  42.519  37.320  14.349
14115W        W82509  22.977  12.420  14.327
14116W        W82510  42.885  34.909   2.786
14117W        W82511   5.815  15.773  11.332
14118W        W82512  40.432  43.273  14.218
14119W        W82513  30.083  36.461   3.001
14120W        W82514   9.747  42.014  14.612
14121W        W82515   0.197  20.517  14.850
14122W        W82516  31.480  26.532  13.554
14123W        W82517  34.313  15.687  10.555
14124W        W82518  42.835  26.076   0.359
14125W        W82519  26.831  27.073  12.696
14126W        W82520  26.664  12.556  13.942
14127W        W82521  28.831  30.723  14.943
14128W        W82522   1.979   8.006  12.893
14129W        W82523  28.388  10.199   1.416
14130W        W82524  36.408  44.349  10.618
14131W        W82525   3.393  34.961   0.266
14132W        W82526  22.816  11.738  10.646
14133W        W82527   5.358  27.109  11.179
14134W        W82528  20.941  38.553   5.038
14135W        W82529  35.960  13.109  13.075
14136W        W82530  30.295  42.901  10.204
14137W        W82531  27.507  24.281   2.599
14138W        W82532  15.792  29.728   5.098
14139W        W82533  29.967  36.541  11.648
14140W        W82534  11.206  11.075  12.894
14141W        W82535  25.352  31.051  11.214
14142W        W82536  16.738  35.411   3.716
14143W        W82537  42.267  44.536   0.782
14144W        W82538  20.065  13.554   1.861
14145W        W82539  18.618  25.723   4.986
14146W        W82540  20.270  12.699  10.242
14147W        W82541  30.917  31.337   3.746
14148W        W82542   2.877  44.372   1.648
14149W        W82543  35.242   7.225  14.493
14150W        W82544  36.627  21.374  13.207
14151W        W82545  21.070  19.257  14.968
14152W        W82546  32.392  43.900   4.690
14153W        W82547  30.426  33.624  11.602
14154W        W82548   5.161  37.885  13.501
14155W        W82549   1.567  25.371  12.468
14156W        W82550  39.069  10.381  11.989
14157W        W82551   5.504  37.214  12.372
14158W        W82552  32.810  16.119   2.186
14159W        W82553   6.550  41.005   3.228
14160W        W82554  32.167  10.517   0.802
14161W        W82555  40.412   4.723   0.729
14162W        W82556   9.499  38.578  14.868
14163W        W82557  23.706  43.453  14.007
14164W        W82558   0.210  43.077  11.645
14165W        W82559  27.069  40.977  11.685
14166W        W82560  12.166  38.459  14.901
14167W        W82561  41.992  12.357  13.387
14168W        W82562  36.800  32.050  12.370
14169W        W82563  28.740  39.432  14.350
14170W        W82564  14.578   8.193  13.399
14171W        W82565  15.055   0.380  12.623
14172W        W82566  10.960  40.135  12.347
14173W        W82567   3.490  35.453  11.927
14174W        W82568  36.933   1.101   0.394
14175W        W82569  24.504  37.022   0.604
14176W        W82570  12.896  17.709   3.051
14177W        W82571  35.193  21.020  13.814
14178W        W82572   6.358  35.387   4.241
14179W        W82573   6.884  17.624  12.926
14180W        W82574   1.113  27.689   1.180
14181W        W82575  35.650  42.572   1.740
14182W        W82576  39.421  15.810  12.837
14183W        W82577   7.241  14.607   1.162
14184W        W82578  36.836  32.711  12.462
14185W        W82579  39.960   5.705   2.719
14186W        W82580   9.758  11.403   4.118
14187W        W82581  27.536  15.654   0.850
14188W        W82582  21.639   7.685  14.483
14189W        W82583  17.303  23.630   4.797
14190W        W82584  13.418  18.733   2.294
14191W        W82585  15.173  14.836   0.695
14192W        W82586  42.803  39.493  11.109
14193W        W82587  15.733   9.337  10.141
14194W        W82588  30.699  43.498   2.735
14195W        W82589  13.649   9.774  12.595
14196W        W82590  22.764  37.415   2.525
14197W        W82591  15.791   4.916  10.674
14198W        W82592  12.520  39.736   1.027
14199W        W82593  23.879  19.678  10.367
14200W        W82594  22.239  14.765  11.036
14201W        W82595  18.194  29.163   1.766
14202W        W82596  19.718  43.194   4.838
14203W        W82597  21.999  10.240  14.947
14204W        W82598  41.528  27.553  11.016
14205W        W82599   2.984  32.372   1.602
14206W        W82600  37.845  20.954   0.429
14207W        W82601  28.971  14.601   4.144
14208W        W82602  44.040  16.552   1.738
14209W        W82603   6.868   7.684  11.816
14210W        W82604  40.149  29.078  14.020
14211W        W82605  26.548  13.604  12.841
14212W        W82606  23.172  40.004  10.944
14213W        W82607  14.615  41.364   2.937
14214W        W82608  30.605   1.702   1.237
14215W        W82609   1.849   6.730   2.147
14216W        W82610  31.574  16.128   2.827
14217W        W82611  44.131   5.843  14.356
14218W        W82612  21.668  34.942   0.221
14219W        W82613  33.462  42.405   1.391
14220W        W82614  36.177  44.331  14.018
14221W        W82615  40.951  28.674  14.705
14222W        W82616  37.164  34.603  14.852
14223W        W82617  40.071  40.760  13.505
14224W        W82618  24.441  34.204   0.489
14225W        W82619  18.300  15.660   2.771
14226W        W82620  16.576  23.544   4.083
14227W        W82621   5.205  37.102   5.105
14228W        W82622  23.656   0.323   3.131
14229W        W82623  32.680  15.095   0.268
14230W        W82624  37.867  20.535   3.402
14231W        W82625   4.863  43.700  10.415
14232W        W82626  12.372  13.781   4.611
14233W        W82627  29.992   8.247   4.376
14234W        W82628  12.166  13.774   3.644
14235W        W82629   2.021  36.804  13.457
14236W        W82630  26.994  37.418  14.638
14237W        W82631  31.513  32.082   1.251
14238W        W82632  28.178  41.401   3.365
14239W        W82633  25.401  27.055  13.814
14240W        W82634  29.097   7.001   0.425
14241W        W82635  28.131  20.959  14.819
14242W        W82636  35.908  35.300   3.688
14243W        W82637  40.307   4.593  10.880
14244W        W82638  26.500  28.561   1.304
14245W        W82639  35.337  30.694  11.217
14246W        W82640  10.486  42.715  13.954
14247W        W82641  26.175   8.575   1.282
14248W        W82642  13.823  41.228  14.552
14249W        W82643  31.906  29.668  11.019
14250W        W82644  31.690  40.489  13.469
14251W        W82645  20.551  34.574  10.512
14252W        W82646  30.454  41.607  13.998
14253W        W82647   7.300  43.994  10.598
14254W        W82648  30.038   4.298   2.510
14255W        W82649  24.965  44.475  12.086
14256W        W82650   5.733  38.326  12.370
14257W        W82651   9.235   0.813   0.440
14258W        W82652  35.632  26.179   4.874
14259W        W82653  42.511  28.677  13.879
14260W        W82654  36.052  20.574   1.835
14261W        W82655   6.267  42.413  12.706
14262W        W82656  29.560  22.909   2.267
14263W        W82657   2.878  31.525   2.878
14264W        W82658  17.776  17.753   1.034
14265W        W82659  38.933   9.893  11.954
14266W        W82660  30.772  24.242   0.961
14267W        W82661   4.444  37.363   3.065
14268W        W82662   1.724   8.247   0.388
14269W        W82663  16.212  44.412   4.469
14270W        W82664  16.341  24.125   4.089
14271W        W82665  10.922  26.076  14.758
14272W        W82666  15.702  41.572   0.492
14273W        W82667   0.145  37.884  11.714
14274W        W82668   9.331  40.269  13.925
14275W        W82669  34.580   8.529  10.514
14276W        W82670  37.589  34.445  12.901
14277W        W82671   0.242  19.283  11.618
14278W        W82672  18.572  26.377   3.483
14279W        W82673  37.459   8.724  13.703
14280W        W82674   4.611  26.843  10.734
14281W        W82675  17.331  26.581  12.637
14282W        W82676  26.852  28.054  12.249
14283W        W82677  16.726  27.312   3.289
14284W        W82678  43.547   6.754   2.155
14285W        W82679  39.448  21.776   1.808
14286W        W82680   7.116   6.244   4.092
14287W        W82681  14.124  12.368  14.978
14288W        W82682   4.424  25.030   0.811
14289W        W82683   0.756   1.228  13.401
14290W        W82684  41.435   1.519   4.536
14291W        W82685  14.847   4.157   4.320
14292W        W82686  30.510   6.668   0.142
14293W        W82687  27.222  26.529   1.435
14294W        W82688  11.332   6.230   0.348
14295W        W82689  22.224  22.109   0.505
14296W        W82690  39.329  26.855  11.534
14297W        W82691  24.486   6.835   2.190
14298W        W82692  21.291   0.367   2.830
14299W        W82693  42.596  12.652   2.308
14300W        W82694  23.591   3.249  12.782
14301W        W82695  21.406   6.166  13.922
14302W        W82696  41.812  36.121   2.223
14303W        W82697  28.446  23.535   0.732
14304W        W82698   4.653  10.642   3.154
14305W        W82699   1.969  21.979  11.198
14306W        W82700  21.108  21.571  10.613
14307W        W82701  20.834  28.205   2.824
14308W        W82702   7.658  20.633  14.293
14309W        W82703  42.440  24.649   3.738
14310W        W82704   7.449  22.572   2.461
14311W        W82705  25.046  20.776  12.427
14312W        W82706   5.742   8.464   3.781
14313W        W82707  20.367  16.385  10.530
14314W        W82708  14.236  31.856  14.963
14315W        W82709  25.887  38.648   0.863
14316W        W82710  29.615  12.168   3.743
14317W        W82711  28.031  20.846   1.870
14318W        W82712  34.028  43.204  13.049
14319W        W82713  11.940  22.454   2.097
14320W        W82714  33.865  32.705   1.649
14321W        W82715   3.768   7.795  11.207
14322W        W82716  30.913  29.930   3.856
14323W        W82717  11.167  36.029   4.435
14324W        W82718   2.925  31.512  11.996
14325W        W82719  35.333  25.762  10.704
14326W        W82720  17.473  16.999  11.559
14327W        W82721  17.568  40.069   0.758
14328W        W82722  19.749  43.289   3.371
14329W        W82723  22.546  23.110   2.162
14330W        W82724   3.887  28.624   4.175
14331W        W82725   9.908  24.152   0.896
14332W        W82726  22.952  31.985  11.123
14333W        W82727  40.989  37.822  12.536
14334W        W82728  43.841   4.465  11.599
14335W        W82729  43.348  25.710   2.772
14336W        W82730  30.875  25.716  10.985
14337W        W82731   5.275  29.560  14.941
14338W        W82732  43.180  38.004  11.009
14339W        W82733  39.422  39.619   1.726
14340W        W82734  40.764  22.062  13.343
14341W        W82735  32.250   6.469   5.064
14342W        W82736  43.421  35.145   4.611
14343W        W82737  23.883   2.188   3.103
14344W        W82738  17.584  35.526  10.679
14345W        W82739   0.078  14.141   3.073
14346W        W82740   0.943  28.667  13.543
14347W        W82741  21.327  41.826   4.981
14348W        W82742  14.436  34.120   3.788
14349W        W82743  17.350  39.851   1.813
14350W        W82744  10.956   1.413   2.367
14351W        W82745  42.512  11.694  13.500
14352W        W82746  27.963  34.901  12.443
14353W        W82747  38.831   7.745   4.247
14354W        W82748   1.040  40.927   0.790
14355W        W82749   7.893  36.928   2.678
14356W        W82750  23.181  43.326  14.743
14357W        W82751  37.097  41.540  11.552
14358W        W82752  27.031  44.897   3.227
14359W        W82753  14.382   7.880   0.383
14360W        W82754  25.047  19.767   1.427
14361W        W82755  10.597  23.176  14.715
14362W        W82756  32.223  19.674  13.302
14363W        W82757  30.604  10.323  13.604
14364W        W82758  29.315  44.607  10.588
14365W        W82759  27.900  14.616   3.377
14366W        W82760  40.471  34.166   4.262
14367W        W82761  21.594   3.913  13.289
14368W        W82762  24.002  40.477   4.459
14369W        W82763  36.638  12.757  12.203
14370W        W82764  20.309  35.323   0.941
14371W        W82765  24.393  15.235   1.319
14372W        W82766  33.431   0.415  14.013
14373W        W82767  16.748  38.420   0.890
14374W        W82768  38.797  36.028  13.811
14375W        W82769  16.664  25.975  14.770
14376W        W82770  29.353  34.591   4.140
14377W        W82771  22.930   6.018  12.110
14378W        W82772  11.164   7.005  10.703
14379W        W82773  12.776  36.200  13.462
14380W        W82774   4.342  28.220   3.571
14381W        W82775  17.555   3.191   3.683
14382W        W82776  13.732  44.941   1.933
14383W        W82777   2.430  22.542   1.928
14384W        W82778   5.392  19.231  10.999
14385W        W82779   6.999   8.130   4.063
14386W        W82780  34.137  13.291  10.583
14387W        W82781  31.677  20.047   4.868
14388W        W82782  34.954  11.063   3.690
14389W        W82783  43.028  15.866  12.186
14390W        W82784  34.016  32.289  14.894
14391W        W82785  21.766  14.289   2.811
14392W        W82786  38.205   0.276  12.985
14393W        W82787   6.997  43.882   2.607
14394W        W82788  16.337  13.358  11.634
14395W        W82789  32.670  32.485   2.862
14396W        W82790   9.824   4.725   2.006
14397W        W82791  15.384  27.986   1.680
14398W        W82792   0.030  23.066   0.305
14399W        W82793  30.126  23.675  11.113
14400W        W82794  20.307  31.569   2.177
14401W        W82795  38.471  22.094   4.602
14402W        W82796  16.022  16.115  11.191
14403W        W82797  42.941   4.872  11.014
14404W        W82798  35.544   6.743  11.478
14405W        W82799   0.555   5.430   0.470
14406W        W82800  44.796   8.704  12.057
14407W        W82801  31.165  43.112   3.638
14408W        W82802  18.566  39.616   3.252
14409W        W82803  44.412  35.616  14.384
14410W        W82804  36.600  21.959  13.893
14411W        W82805  44.039  19.659   3.364
14412W        W82806  43.394  33.057  10.574
14413W        W82807   9.106  27.601   3.869
14414W        W82808   0.297  39.001   5.092
14415W        W82809  40.757   1.759   3.405
14416W        W82810  20.246  25.630  12.804
14417W        W82811  31.184  35.399   0.722
14418W        W82812  16.562  11.280  13.034
14419W        W82813  32.522  28.470  14.472
14420W        W82814  16.837  24.594  10.724
14421W        W82815  41.244  37.480   3.074
14422W        W82816  10.247   1.660   3.729
14423W        W82817   0.831  27.134  14.398
14424W        W82818   6.432  35.695  12.031
14425W        W82819   1.150  34.573  14.865
14426W        W82820  39.840   6.867   2.251
14427W        W82821  39.705  29.164  10.662
14428W        W82822   0.575  15.230  12.424
14429W        W82823  40.082   1.818  11.930
14430W        W82824  31.146  21.489   3.383
14431W        W82825  11.906   2.459  14.369
14432W        W82826  38.358  13.167   3.110
14433W        W82827   2.036  18.427  14.083
14434W        W82828  27.553   4.013   3.137
14435W        W82829   6.973   0.958   3.465
14436W        W82830  30.555   3.858  10.736
14437W        W82831  21.701  35.325  14.400
14438W        W82832  43.262  10.106  14.956
14439W        W82833  31.448  40.333  11.546
14440W        W82834  37.526  31.893   5.015
14441W        W82835  38.084  33.640  11.646
14442W        W82836   8.101   2.040   2.828
14443W        W82837  40.462  39.855   0.273
14444W        W82838  32.807  44.013   2.951
14445W        W82839  38.605  12.097  13.963
14446W        W82840  41.830  15.135  11.842
14447W        W82841   7.090  19.238  14.990
14448W        W82842  28.012   9.277   4.383
14449W        W82843  15.332  17.174   1.671
14450W        W82844  27.282  15.248   2.756
14451W        W82845  41.592  34.629  13.420
14452W        W82846  32.524  33.514   1.783
14453W        W82847  24.999  17.543  11.506
14454W        W82848  38.029  29.439  10.801
14455W        W82849  23.270  10.769  11.763
14456W        W82850  29.745  41.614   3.263
14457W        W82851  40.544  31.863  12.032
14458W        W82852   7.388   5.244  10.265
14459W        W82853  17.542  42.854   1.404
14460W        W82854  30.496  31.406   4.577
14461W        W82855   3.461  13.909  13.882
14462W        W82856   6.402  19.253   2.707
14463W        W82857  27.433  42.771  13.811
14464W        W82858  41.028  36.051   3.036
14465W        W82859  21.798  30.938  14.860
14466W        W82860   5.883  18.591   2.686
14467W        W82861   1.840  12.053  11.195
14468W        W82862  15.840  35.859   0.873
14469W        W82863  17.292   1.669   4.138
14470W        W82864  38.329  10.734  10.568
14471W        W82865  36.608  28.138   4.088
14472W        W82866  17.042   0.949   0.959
14473W        W82867  17.490   6.637   1.755
14474W        W82868  42.877   4.368  10.723
14475W        W82869  29.095  44.170   0.860
14476W        W82870   2.977  32.831   1.847
14477W        W82871  34.054  10.205  11.941
14478W        W82872  31.153  37.278   1.715
14479W        W82873  27.385  30.584   4.450
14480W        W82874  40.529  33.395   2.624
14481W        W82875  27.129  23.708   1.444
14482W        W82876  22.406  37.607   0.938
14483W        W82877  37.047  44.349   4.356
14484W        W82878  38.623  10.897  11.535
14485W        W82879  24.839  26.232  11.079
14486W        W82880  33.045  16.640   0.749
14487W        W82881   8.922  18.216  13.508
14488W        W82882  15.271  37.605  12.243
14489W        W82883  14.795   4.691   3.364
14490W        W82884  16.368  34.425  13.601
14491W        W82885  29.705  23.307   0.974
14492W        W82886  40.814  12.408   4.112
14493W        W82887  22.792  34.997  10.241
14494W        W82888  33.353  41.710   3.585
14495W        W82889  27.366  44.280  12.198
14496W        W82890   2.789  41.802  13.598
14497W        W82891  36.631  15.650   3.339
14498W        W82892  21.069  39.907  14.469
14499W        W82893  38.513  14.280  14.875
14500W        W82894  40.333  42.912   3.672
14501W        W82895   5.666  10.778  13.015
14502W        W82896  13.071  37.170  13.811
14503W        W82897  39.897  44.516   4.715
14504W        W82898  25.220  30.968   2.307
14505W        W82899  33.052  27.128  10.994
14506W        W82900  17.614  23.112  14.478
14507W        W82901   2.982  11.290   3.113
14508W        W82902  16.637  34.694   3.160
14509W        W82903  31.550  27.990  13.828
14510W        W82904   8.869   1.959   3.238
14511W        W82905  31.872  17.198   4.249
14512W        W82906  43.774   4.239   1.698
14513W        W82907  17.771  12.093  11.333
14514W        W82908  30.560  25.947  10.619
14515W        W82909  22.460  17.647   3.736
14516W        W82910   3.246   0.259  10.355
14517W        W82911  11.353  32.450  12.001
14518W        W82912   5.960  39.046   0.309
14519W        W82913   8.111   8.392   5.037
14520W        W82914  11.057  36.121  12.587
14521W        W82915   6.464   4.369  12.019
14522W        W82916  18.249   3.402  13.048
14523W        W82917   1.150   2.216   2.713
14524W        W82918   1.324  43.805   2.188
14525W        W82919  37.424  20.281   1.280
14526W        W82920  28.624  17.241   0.477
14527W        W82921  24.136  39.706  14.348
14528W        W82922  30.359  27.496  12.665
14529W        W82923  18.074  35.483  12.498
14530W        W82924  24.703  42.742  13.018
14531W        W82925   5.913  29.712  10.830
14532W        W82926  44.343  17.009  14.261
14533W        W82927   3.631  17.623   1.428
14534W        W82928  42.497  27.692   4.145
14535W        W82929  11.198  15.032   2.110
14536W        W82930  16.998  43.995  12.057
14537W        W82931  16.389  24.680   0.411
14538W        W82932  31.629  34.126   4.121
14539W        W82933   0.746  13.519   0.189
14540W        W82934  30.577  12.109   1.362
14541W        W82935  36.786  14.322   2.494
14542W        W82936  34.445  38.978   3.336
14543W        W82937  35.886  16.230   4.522
14544W        W82938  39.500   3.101  10.658
14545W        W82939  30.868  38.585   2.229
14546W        W82940  13.788   4.756  11.115
14547W        W82941   3.194  11.724   4.618
14548W        W82942  34.532  37.469   0.360
14549W        W82943  43.506  13.381   0.449
14550W        W82944  14.211  31.556  12.599
14551W        W82945   3.365  22.587  10.411
14552W        W82946  24.606   7.145   3.643
14553W        W82947  30.657  18.473  11.151
14554W        W82948  26.453  42.533   2.310
14555W        W82949   4.948   7.152  14.981
14556W        W82950   7.788  26.286  13.574
14557W        W82951  43.665  28.528  12.453
14558W        W82952  20.214  19.715   3.143
14559W        W82953  38.507  29.108   2.670
14560W        W82954  17.579  35.032  10.855
14561W        W82955  41.732  39.738   3.333
14562W        W82956  21.518  10.137  10.786
14563W        W82957  37.400  22.153  12.450
14564W        W82958  29.654  43.554   4.212
14565W        W82959   5.859  39.356   0.835
14566W        W82960  13.444  23.052  10.742
14567W        W82961   2.296   3.979   2.859
14568W        W82962  24.585  19.200  12.939
14569W        W82963  21.423  20.394  11.579
14570W        W82964  20.692  39.876   5.008
14571W        W82965  34.816  14.593   2.332
14572W        W82966   2.635   7.175  11.187
14573W        W82967  32.144  14.745  14.159
14574W        W82968  22.243  15.740   1.293
14575W        W82969  24.098   5.922  14.537
14576W        W82970  20.088  27.014   1.295
14577W        W82971  20.983  18.176  10.523
14578W        W82972  10.835  43.385   4.572
14579W        W82973  27.314  10.193   5.013
14580W        W82974  42.220  27.972   0.856
14581W        W82975  38.375  19.325  11.098
14582W        W82976  40.409  15.586  14.430
14583W        W82977  30.323  38.258  12.572
14584W        W82978   9.347  14.556   1.977
14585W        W82979  16.077  32.604  13.377
14586W        W82980  40.412  39.587  10.550
14587W        W82981  29.974  15.379  12.436
14588W        W82982  13.027  32.825   1.740
14589W        W82983   0.258  30.359   2.821
14590W        W82984  11.914  19.013   4.084
14591W        W82985  19.066  14.873  13.620
14592W        W82986  39.377  44.492  12.697
14593W        W82987   2.676  32.725   3.289
14594W        W82988  38.598  40.864  13.391
14595W        W82989  29.221  14.293   0.844
14596W        W82990  21.008  15.247  14.958
14597W        W82991  11.391  15.075  13.477
14598W        W82992  36.814   0.526  12.417
14599W        W82993   8.744  26.462   0.268
14600W        W82994  36.397  33.346  11.213
14601W        W82995  23.768  33.499  10.705
14602W        W82996  17.282  30.844  12.123
14603W        W82997  42.535   7.233  13.124
14604W        W82998   1.782  30.643   2.856
14605W        W82999  25.407  27.079  10.696
14606W        W83000  23.018   6.916   3.045
14607W        W83001  15.063  13.582  14.961
14608W        W83002  10.370  13.097   2.185
14609W        W83003  17.280  33.622  14.771
14610W        W83004  38.237  40.214  11.090
14611W        W83005  15.532  25.145   4.066
14612W        W83006  29.051  19.804   1.797
14613W        W83007  16.350  37.125   4.319
14614W        W83008  20.157  10.664  14.378
14615W        W83009  38.528  24.476  14.828
14616W        W83010  26.466  18.308  12.948
14617W        W83011  30.948  37.674  13.039
14618W        W83012  43.804   9.863   2.973
14619W        W83013  41.868  29.206   0.255
14620W        W83014  41.405  31.627   4.328
14621W        W83015  31.301  35.569  11.679
14622W        W83016  44.297  28.600   3.932
14623W        W83017  23.164  30.921  12.969
14624W        W83018  24.751  20.230  13.497
14625W        W83019  38.914  26.120   2.027
14626W        W83020  12.676   3.706   1.271
14627W        W83021  42.031  24.775   0.418
14628W        W83022  30.130  12.269   4.666
14629W        W83023  15.955   5.368   0.512
14630W        W83024   7.180   4.722  12.889
14631W        W83025   4.370  19.933  13.173
14632W        W83026  33.811  41.060   4.003
14633W        W83027  14.881  20.029  13.617
14634W        W83028  18.823  43.533   2.351
14635W        W83029  17.352  17.407   1.268
14636W        W83030  37.274   1.800   1.790
14637W        W83031   3.374  23.031  12.869
14638W        W83032  29.647  29.463   2.189
14639W        W83033   4.261   7.248  13.927
14640W        W83034  37.755   8.183   1.749
14641W        W83035  31.499   8.470  14.965
14642W        W83036  34.529  14.666   0.729
14643W        W83037  39.939  25.052  13.241
14644W        W83038  37.474  13.412  11.955
14645W        W83039  33.458  31.138  13.563
14646W        W83040  25.946  27.637   2.275
14647W        W83041  13.555   0.890   0.791
14648W        W83042  39.035  29.643  12.571
14649W        W83043  35.798  23.567  11.842
14650W        W83044  26.665  40.760  13.412
14651W        W83045  22.435  16.095  11.376
14652W        W83046  17.321  13.104   1.393
14653W        W83047  10.166   2.318   3.168
14654W        W83048  19.978  23.954   1.383
14655W        W83049  22.998  14.383   3.258
14656W        W83050  16.029   7.206   2.797
14657W        W83051  31.515  19.980   1.843
14658W        W83052  12.093  39.928   1.931
14659W        W83053   9.145  39.532  13.472
14660W        W83054  18.578  44.193  13.458
14661W        W83055  40.485  43.428   3.489
14662W        W83056   9.189  37.814   0.058
14663W        W83057   8.475  18.105   3.273
14664W        W83058  18.999  15.394   2.238
14665W        W83059  22.100  17.848   1.314
14666W        W83060   6.791  41.834   2.449
14667W        W83061  21.916  41.993  13.926
14668W        W83062  40.393  33.969   0.680
14669W        W83063  29.645  27.074  14.830
14670W        W83064   9.389  39.695   0.820
14671W        W83065  27.584  23.654   0.845
14672W        W83066  28.204  38.858  13.083
14673W        W83067  37.075  18.801  14.560
14674W        W83068  35.459  38.908  10.726
14675W        W83069  22.926  19.206  13.590
14676W        W83070  38.414  41.397   4.117
14677W        W83071  15.281   9.166  11.762
14678W        W83072  38.068  18.602   2.859
14679W        W83073  22.109  11.828   4.019
14680W        W83074  36.358   8.688   0.892
14681W        W83075  42.324  41.814   3.274
14682W        W83076   6.612  25.787   3.751
14683W        W83077  11.361  33.432  11.187
14684W        W83078  35.018  22.591  10.513
14685W        W83079  19.150  32.901  11.737
14686W        W83080  40.463  40.559   4.648
14687W        W83081  31.228   3.781   1.821
14688W        W83082  12.915  35.073  12.803
14689W        W83083  38.018  30.299  11.110
14690W        W83084   7.734  26.532   0.318
14691W        W83085  41.695  18.737   2.848
14692W        W83086   4.072  31.813  10.817
14693W        W83087  37.782   0.123   0.500
14694W        W83088  14.598  38.836  12.650
14695W        W83089  21.750  22.801  11.255
14696W        W83090  23.470   1.848  12.242
14697W        W83091  41.453  17.293   1.433
14698W        W83092  38.445  26.712   1.290
14699W        W83093  44.446   0.885  13.081
14700W        W83094  15.591  28.841  13.017
14701W        W83095  14.603  24.974  14.985
14702W        W83096  14.629  31.191   4.746
14703W        W83097   9.841  42.090   3.143
14704W        W83098  25.208  28.548  10.751
14705W        W83099  19.691   3.254  14.776
14706W        W83100  20.579  40.843  14.974
14707W        W83101  13.758  14.353   0.421
14708W        W83102  16.109   0.252   3.891
14709W        W83103  30.947   9.628   3.191
14710W        W83104  26.463  38.063  12.070
14711W        W83105  37.844  13.147   0.931
14712W        W83106  38.437  36.163   2.837
14713W        W83107   5.116   4.938   2.287
14714W        W83108  10.416  39.595  12.851
14715W        W83109  23.311  40.390  14.314
14716W        W83110  40.554   5.922  14.311
14717W        W83111   0.183  27.944   3.047
14718W        W83112  42.903  42.005  11.175
14719W        W83113  43.393  13.629   0.908
14720W        W83114   3.092  35.915  11.262
14721W        W83115  16.870  36.007   4.635
14722W        W83116  28.808  12.870   4.659
14723W        W83117   7.208  43.669   4.839
14724W        W83118  35.156  30.226  12.021
14725W        W83119   1.617  20.514   1.306
14726W        W83120  36.502  31.439   3.204
14727W        W83121  43.003  41.286  10.690
14728W        W83122  21.523  26.515  11.455
14729W        W83123   5.788   0.290  12.866
14730W        W83124  40.415   7.979   4.274
14731W        W83125   6.413  31.980  11.147
14732W        W83126  39.532   0.503   1.296
14733W        W83127  16.424  40.699   2.413
14734W        W83128  38.411  26.754  14.484
14735W        W83129  39.435   5.741  10.720
14736W        W83130  26.329  32.828   2.989
14737W        W83131  30.528  10.811   3.838
14738W        W83132   6.354   8.129  13.570
14739W        W83133   4.209  30.083   3.331
14740W        W83134  10.726  18.673   2.653
14741W        W83135  22.702  19.541  12.837
14742W        W83136  20.791  28.789   2.101
14743W        W83137  24.901  24.471  13.315
14744W        W83138  32.423  22.681   3.334
14745W        W83139   6.021  15.684   2.752
14746W        W83140  14.989  41.106  13.087
14747W        W83141   2.804  17.654   4.705
14748W        W83142  24.097  11.824  14.017
14749W        W83143  14.554  16.942   3.819
14750W        W83144  14.393  32.913  14.806
14751W        W83145  20.270  18.268   1.850
14752W        W83146  18.999   8.076   0.571
14753W        W83147   0.059  19.087   2.527
14754W        W83148  40.956  19.769   2.874
14755W        W83149  26.095   3.929  11.451
14756W        W83150  15.683  11.647   3.790
14757W        W83151  13.794  37.945   3.890
14758W        W83152  18.566   7.785   3.663
14759W        W83153   7.652  33.889   1.628
14760W        W83154  23.636   6.659  11.209
14761W        W83155  18.505  20.286  11.083
14762W        W83156  17.552  23.291   2.669
14763W        W83157  42.546   9.145   3.163
14764W        W83158   6.851  44.807   2.482
14765W        W83159   2.503  12.190   3.156
14766W        W83160  33.062  26.670  14.780
14767W        W83161  26.924  40.586   0.393
14768W        W83162  36.600  35.493   4.856
14769W        W83163  17.762  37.279   0.369
14770W        W83164  30.387  13.877  14.733
14771W        W83165  36.592  18.029   4.584
14772W        W83166  35.547  13.073  10.807
14773W        W83167  37.385  40.340   2.273
14774W        W83168  41.345  21.919  10.858
14775W        W83169  17.640  18.663   1.650
14776W        W83170   2.678  15.793  13.543
14777W        W83171  38.627  30.505  10.114
14778W        W83172  28.535  39.022  11.589
14779W        W83173   1.869  39.858  13.625
14780W        W83174  23.659  31.108  12.114
14781W        W83175  37.860  24.600   0.818
14782W        W83176  28.852  35.388  11.179
14783W        W83177  35.460  27.889  14.944
14784W        W83178  22.117  41.908  12.876
14785W        W83179   3.333   6.673   2.169
14786W        W83180  14.219   4.466  12.160
14787W        W83181  27.242   0.956  12.479
14788W        W83182  16.178  15.641  10.516
14789W        W83183   1.500  29.247  11.265
14790W        W83184   1.371  30.952  11.917
14791W        W83185  21.336  39.993  12.718
14792W        W83186  41.985  16.855   0.912
14793W        W83187  31.296  29.171  12.868
14794W        W83188  27.011  11.865   1.258
14795W        W83189   1.311  22.801  12.037
14796W        W83190   0.361  13.862   0.337
14797W        W83191  17.881  19.176  10.636
14798W        W83192  34.425  31.037   3.318
14799W        W83193  26.213  13.835   3.565
14800W        W83194  20.223  17.119  11.046
14801W        W83195  21.193  27.337  13.316
14802W        W83196   8.812  37.357   4.090
14803W        W83197  15.812  14.730   4.606
14804W        W83198  32.495  40.872   3.861
14805W        W83199   1.487  42.531   3.625
14806W        W83200  29.762  41.854  10.701
14807W        W83201  27.917  26.489  14.425
14808W        W83202  43.510  36.118  13.887
14809W        W83203  41.723  23.482  13.813
14810W        W83204   1.333  19.613   2.624
14811W        W83205  41.477   8.668  13.975
14812W        W83206  19.705  35.115   4.532
14813W        W83207  36.871  16.361  12.915
14814W        W83208   0.594  43.559   3.580
14815W        W83209  14.042  36.531  13.099
14816W        W83210   3.702  27.946   2.030
14817W        W83211  37.956  16.104  13.792
14818W        W83212  43.376  12.135  12.632
14819W        W83213  22.290   2.179   1.167
14820W        W83214   5.772  23.225   3.747
14821W        W83215   7.805  17.453   5.134
14822W        W83216  35.824  25.332   4.887
14823W        W83217  17.200   5.389  13.361
14824W        W83218  10.300   6.812  12.470
14825W        W83219  26.204  17.764   0.311
14826W        W83220  19.729  19.710   1.519
14827W        W83221  38.729  17.275  11.972
14828W        W83222  18.800  39.348  10.469
14829W        W83223  31.138   5.290  11.030
14830W        W83224  40.292   4.788   0.224
14831W        W83225  11.269  17.681   0.515
14832W        W83226   0.850  34.409  12.394
14833W        W83227  42.764  11.067  11.689
14834W        W83228  18.794  24.798  11.226
14835W        W83229  29.503   2.341  10.671
14836W        W83230  42.132  28.381  14.116
14837W        W83231   7.811  36.347  10.696
14838W        W83232  22.014  29.107   1.429
14839W        W83233  15.330  25.205  12.875
14840W        W83234  18.533  19.739  14.267
14841W        W83235   5.882  17.735  11.890
14842W        W83236  42.867  14.167  11.106
14843W        W83237  37.355  25.505  14.094
14844W        W83238  19.707  43.931   3.076
14845W        W83239  40.278   0.755   2.631
14846W        W83240  20.722  18.708  13.549
14847W        W83241  43.448   4.914   2.136
14848W        W83242  26.383  39.275   4.857
14849W        W83243  34.670   7.872  12.069
14850W        W83244   5.830  26.939   2.766
14851W        W83245   9.638  19.974   1.718
14852W        W83246  42.756   3.116   3.137
14853W        W83247   3.285  21.668   3.837
14854W        W83248  23.193  17.122   4.120
14855W        W83249  28.249  14.016   2.638
14856W        W83250  28.047   0.271   3.198
14857W        W83251  26.499  13.259   2.225
14858W        W83252  22.711  38.839  12.971
14859W        W83253   0.551  14.850  12.032
14860W        W83254   4.977  34.093   4.144
14861W        W83255  15.623  30.535   0.333
14862W        W83256  37.939  36.295  13.817
14863W        W83257  19.533  41.888   4.323
14864W        W83258  42.690   5.658   3.859
14865W        W83259  11.198  34.538   0.910
14866W        W83260  14.217  25.341  14.836
14867W        W83261  29.188  18.785  14.986
14868W        W83262   5.184  34.438  14.240
14869W        W83263  41.284  38.932  13.036
14870W        W83264  15.269  32.386   3.857
14871W        W83265  42.645  27.214   1.438
14872W        W83266  15.813  43.274   1.407
14873W        W83267  40.964  18.477   1.913
14874W        W83268  25.575   9.535   0.708
14875W        W83269  39.784  22.814  11.087
14876W        W83270  34.571  18.085  12.144
14877W        W83271  38.762  32.706   4.224
14878W        W83272  17.331  40.755  11.435
14879W        W83273  12.262  18.988   4.685
14880W        W83274  17.674  39.824   5.365
14881W        W83275   1.302  21.367   4.952
14882W        W83276  20.228  11.844  11.553
14883W        W83277   8.088  29.913   0.340
14884W        W83278   1.662   4.316   2.729
14885W        W83279  16.129  29.404  10.141
14886W        W83280   6.590  41.257   1.828
14887W        W83281  12.925  33.415  12.512
14888W        W83282  22.271  13.581  13.493
14889W        W83283  26.487   3.689  11.677
14890W        W83284  36.799   6.857   0.215
14891W        W83285  32.554  23.257  13.593
14892W        W83286  25.487  27.951  12.181
14893W        W83287  40.429  26.067   4.236
14894W        W83288  11.657  39.950   0.634
14895W        W83289  20.050  15.321   2.440
14896W        W83290  14.557  25.212   2.281
14897W        W83291  26.157  33.704  14.861
14898W        W83292   5.406  42.195  10.367
14899W        W83293  23.824  10.379   3.223
14900W        W83294  24.063   4.765  12.488
14901W        W83295  42.336  35.395  14.785
14902W        W83296  31.537  34.982  14.030
14903W        W83297  36.737  41.455   1.780
14904W        W83298  17.534  36.528   4.570
14905W        W83299   2.495  12.755  12.838
14906W        W83300  38.324  40.099   3.168
14907W        W83301  36.652  37.871   0.287
14908W        W83302   9.491   1.485  14.272
14909W        W83303   4.862  27.688  12.507
14910W        W83304  43.856   0.330   2.956
14911W        W83305  27.931  17.981  13.035
14912W        W83306  18.699  21.072  10.644
14913W        W83307  36.039  35.340  14.566
14914W        W83308  24.502   1.081   4.976
14915W        W83309  32.459  39.852  10.697
14916W        W83310  25.652  10.113  12.004
14917W        W83311  18.009  10.148   3.290
14918W        W83312  40.036  40.040  14.993
14919W        W83313  20.000  42.626  14.310
14920W        W83314  11.207  17.055   4.842
14921W        W83315  22.631  25.454   1.364
14922W        W83316  42.581  17.813   3.538
14923W        W83317  44.885   3.078   9.986
14924W        W83318   5.421  44.379  14.058
14925W        W83319  44.915  35.532  12.930
14926W        W83320  18.201  28.420   3.619
14927W        W83321  41.435  13.625  14.830
14928W        W83322   1.430  44.015  13.331
14929W        W83323  43.962  11.792   2.830
14930W        W83324  18.426  30.288   1.386
14931W        W83325  42.423  36.808  14.564
14932W        W83326  13.996  31.268   3.198
14933W        W83327   6.378  43.006  10.786
14934W        W83328  15.672  27.620   1.921
14935W        W83329  44.215   7.166  11.132
14936W        W83330  13.352   2.902   3.602
14937W        W83331  11.885  12.030  14.259
14938W        W83332  20.514   2.583  13.366
14939W        W83333  40.381  37.744  13.904
14940W        W83334  14.253  18.566   2.837
14941W        W83335  29.643  12.114   2.750
14942W        W83336   0.882  20.532  11.464
14943W        W83337  42.845  20.617  13.247
14944W        W83338  24.572  11.703  11.874
14945W        W83339   1.312  22.499  11.635
14946W        W83340  26.781  34.677   0.264
14947W        W83341  35.889  12.051  12.969
14948W        W83342  17.771  20.162  12.411
14949W        W83343  43.411  27.983   2.156
14950W        W83344  29.122  32.196   1.460
14951W        W83345  27.886  19.977   4.478
14952W        W83346  43.666   1.663   1.381
14953W        W83347   9.173  31.594  13.423
14954W        W83348  39.046   9.581   4.948
14955W        W83349  16.174  10.139  14.954
14956W        W83350  10.558   7.335   2.622
14957W        W83351  21.581  36.060  11.015
14958W        W83352  33.448  37.566  12.291
14959W        W83353  44.019  16.186  10.780
14960W        W83354  32.411  12.650   4.349
14961W        W83355  23.978  37.279   0.626
14962W        W83356   3.921  33.933  14.284
14963W        W83357   9.123  38.500  13.318
14964W        W83358   0.593   3.931   2.190
14965W        W83359  39.300  34.832  10.120
14966W        W83360  32.373  11.271  14.013
14967W        W83361  16.047   3.105  12.566
14968W        W83362  18.648  18.470  11.642
14969W        W83363  24.618  37.476   3.454
14970W        W83364   7.701  32.984   3.600
14971W        W83365  24.993  16.064   1.547
14972W        W83366  37.814  24.911  13.473
14973W        W83367  13.751  35.186  12.506
14974W        W83368  16.898  27.021  13.265
14975W        W83369  41.958  22.761  10.813
14976W        W83370  19.678  27.884   0.959
14977W        W83371  19.366  18.291   4.077
14978W        W83372   0.894  44.459   4.965
14979W        W83373   6.418  25.717  12.419
14980W        W83374  18.667  32.478   1.154
14981W        W83375   1.828  33.853   0.247
14982W        W83376   4.714  34.550  14.989
14983W        W83377  12.574  42.963   3.778
14984W        W83378  17.000  24.915   2.524
14985W        W83379  38.499  25.159  14.469
14986W        W83380   3.975  22.286   0.168
14987W        W83381  15.247  41.877   2.195
14988W        W83382  10.655  12.723  12.833
14989W        W83383  43.112  16.729   3.266
14990W        W83384  18.079  10.612   1.368
14991W        W83385  44.764  36.774  11.209
14992W        W83386  25.572  13.590   0.264
14993W        W83387  12.914  36.543  11.196
14994W        W83388  31.007  27.900  11.659
14995W        W83389  43.266  22.249  13.312
14996W        W83390   5.943  26.937  13.460
14997W        W83391   4.868  26.737  14.525
14998W        W83392  37.169  29.706   5.161
14999W        W83393  31.682   9.809  11.845
15000W        W83394  43.100  26.520   1.022
15001W        W83395  35.274  24.003   3.998
15002W        W83396  33.760   5.187   2.826
15003W        W83397  33.763  21.892  14.388
15004W        W83398   1.292   7.422  13.427
15005W        W83399   1.992  30.108   0.268
15006W        W83400  35.422  41.472  13.129
15007W        W83401  28.465   1.895   0.781
15008W        W83402   0.501  38.827   2.170
15009W        W83403  10.884  29.430   0.793
15010W        W83404  40.417  17.987  11.040
15011W        W83405  44.387  25.392  11.086
15012W        W83406  40.117  42.322  13.553
15013W        W83407   3.204  43.480   4.209
15014W        W83408  28.745   8.255  13.047
15015W        W83409  22.687  24.781  11.173
15016W        W83410  27.969  14.242   1.304
15017W        W83411   6.171  38.655   4.500
15018W        W83412   4.016  24.565  11.865
15019W        W83413   1.399  44.449   4.852
15020W        W83414   6.688  18.720   1.089
15021W        W83415   1.894   5.246   3.866
15022W        W83416  28.728  14.724   0.191
15023W        W83417  29.031  42.555   9.929
15024W        W83418  31.085  16.621   2.225
15025W        W83419  26.458  44.833   1.578
15026W        W83420   3.988   1.327  14.720
15027W        W83421  20.296  15.905  10.681
15028W        W83422  42.823  41.895  12.537
15029W        W83423  26.475  36.859  14.856
15030W        W83424  35.290  11.855   1.267
15031W        W83425  15.471  14.111   0.818
15032W        W83426   6.952  33.074  14.653
15033W        W83427   0.868   9.649  11.423
15034W        W83428   5.147  28.997  12.985
15035W        W83429  14.893  27.365   0.251
15036W        W83430  16.393  36.483   9.932
15037W        W83431  19.649  23.253  14.489
15038W        W83432  18.198  11.230   2.437
15039W        W83433  11.862  32.281   2.721
15040W        W83434   6.705  35.179   1.501
15041W        W83435   6.659   0.736   1.473
15042W        W83436  29.336  25.240   0.836
15043W        W83437  20.665  43.171   2.920
15044W        W83438  32.999  14.619   0.087
15045W        W83439  42.605  33.809  13.947
15046W        W83440  12.337  36.393  14.523
15047W        W83441   9.631  17.363  10.661
15048W        W83442  38.874  35.695  14.622
15049W        W83443   9.005  11.561  10.653
15050W        W83444  40.416   5.419   3.684
15051W        W83445  26.092  17.337   2.873
15052W        W83446  38.450  12.191  14.462
15053W        W83447  34.304  11.859  14.454
15054W        W83448  43.709   9.499   2.183
15055W        W83449  42.653  17.984  11.148
15056W        W83450  37.075  17.016   3.611
15057W        W83451  35.534  16.699  12.554
15058W        W83452  36.813  30.152   2.330
15059W        W83453  28.500   2.735   0.216
15060W        W83454  43.931   7.231  14.398
15061W        W83455   1.172  25.949   1.796
15062W        W83456  12.815  36.108   1.467
15063W        W83457  37.925  42.826  13.846
15064W        W83458  38.452  29.490  11.173
15065W        W83459   8.035   8.080  13.015
15066W        W83460   0.295  43.969   3.617
15067W        W83461  21.701  12.944  10.164
15068W        W83462   7.445  10.755  10.829
15069W        W83463  43.442  11.036   0.902
15070W        W83464  17.499  31.156  12.530
15071W        W83465  36.161  19.406  11.641
15072W        W83466  20.170  43.873   3.628
15073W        W83467  41.812  12.893  12.479
15074W        W83468  44.702   7.400   4.132
15075W        W83469  14.127  20.297   3.341
15076W        W83470   6.479  32.899  13.865
15077W        W83471  32.821  43.692   1.534
15078W        W83472   1.000  42.793   3.698
15079W        W83473  10.272   9.920  10.199
15080W        W83474  44.830   1.393   0.516
15081W        W83475  29.061   0.239   3.232
15082W        W83476   3.353  10.271   3.371
15083W        W83477  21.708  12.365  13.935
15084W        W83478  35.064  14.676  11.101
15085W        W83479  32.858   6.129   4.474
15086W        W83480  10.176  24.887   1.529
15087W        W83481  18.411  12.187   4.948
15088W        W83482  15.610  15.020  10.103
15089W        W83483  11.916  42.054  11.552
15090W        W83484  34.471  23.081   3.751
15091W        W83485  28.627  25.130  13.980
15092W        W83486  41.973  22.264  14.434
15093W        W83487  28.077  25.389   1.912
15094W        W83488  42.071  40.889   4.239
15095W        W83489  44.326   8.659  14.252
15096W        W83490  33.076  17.701  11.396
15097W        W83491   1.842   8.169   3.741
15098W        W83492  22.262  32.993   1.321
15099W        W83493  18.350  34.382   2.755
15100W        W83494  37.498   9.224  12.499
15101W        W83495  19.350   5.243  14.045
15102W        W83496  35.983  38.785  10.970
15103W        W83497   7.480  36.345  11.136
15104W        W83498  20.506  22.392  10.576
15105W        W83499  33.001  42.320   4.512
15106W        W83500  43.865  42.694   0.506
15107W        W83501  27.024  39.759  12.142
15108W        W83502  25.685  14.352  10.401
15109W        W83503  12.378  26.499  11.994
15110W        W83504  33.642  33.066   0.292
15111W        W83505   8.528  38.289  13.995
15112W        W83506  33.940  42.819  10.315
15113W        W83507  21.690  26.903   5.143
15114W        W83508  36.845  44.970   4.880
15115W        W83509  44.841  20.176   3.653
15116W        W83510  25.202   7.237   4.744
15117W        W83511  33.962   9.296   1.350
15118W        W83512  19.904  39.481  13.374
15119W        W83513  40.791   6.854  10.557
15120W        W83514  29.587  35.636  10.824
15121W        W83515  23.190  36.831   1.272
15122W        W83516   2.347  20.612  13.806
15123W        W83517  43.064  13.172  14.554
15124W        W83518  26.774   9.944   0.904
15125W        W83519   7.145  34.341   2.668
15126W        W83520   6.341  13.611   2.787
15127W        W83521  33.399  24.235   1.281
15128W        W83522   9.777   8.910  11.461
15129W        W83523  30.459  24.048  10.995
15130W        W83524  18.854   3.839  11.453
15131W        W83525  22.792   3.834   0.763
15132W        W83526  36.285  39.993   1.230
15133W        W83527  19.191  15.707  13.762
15134W        W83528   7.340  37.863   4.943
15135W        W83529  30.502  24.757   2.476
15136W        W83530   2.546   6.040  14.158
15137W        W83531  19.649  23.137   0.007
15138W        W83532   6.763  36.703  11.582
15139W        W83533  43.419  39.620  10.377
15140W        W83534  15.190   5.986  12.051
15141W        W83535  11.772  17.955   1.761
15142W        W83536  12.851  32.697   2.789
15143W        W83537  11.657  28.478  10.902
15144W        W83538  37.589  38.903  13.883
15145W        W83539  19.020  18.869  13.363
15146W        W83540  24.884  40.905   3.759
15147W        W83541   6.362   0.330   1.708
15148W        W83542  44.263  30.604   2.784
15149W        W83543   7.958  28.221   4.186
15150W        W83544  20.118  43.757  11.641
15151W        W83545  11.512  41.113  12.101
15152W        W83546  36.064  34.687  13.502
15153W        W83547  40.249  41.641  12.525
15154W        W83548  13.283  12.655   0.318
15155W        W83549  34.591  11.798  12.528
15156W        W83550  42.275  42.414  11.502
15157W        W83551  23.716   8.645  11.067
15158W        W83552  36.417  15.418   3.780
15159W        W83553  40.385  17.319   1.833
15160W        W83554   2.837  36.032   1.645
15161W        W83555   3.842  25.059   3.793
15162W        W83556  13.287  12.998   3.700
15163W        W83557  30.468  11.806   0.688
15164W        W83558  38.050  16.703  13.300
15165W        W83559  12.036  15.054   0.816
15166W        W83560  28.987  28.636   4.158
15167W        W83561   9.832  16.600  11.242
15168W        W83562  29.599  21.025  13.351
15169W        W83563   4.589   7.940  11.578
15170W        W83564  13.767  41.445   0.855
15171W        W83565  24.009   7.065  10.840
15172W        W83566   7.261  25.676  13.355
15173W        W83567  41.170   6.331   4.183
15174W        W83568  31.385  16.630   2.671
15175W        W83569  29.204  14.751   1.744
15176W        W83570  43.298   3.250  14.475
15177W        W83571  38.948  43.108  14.362
15178W        W83572  23.315   7.095   0.069
15179W        W83573  12.354  39.517  10.948
15180W        W83574   8.438  37.578   2.680
15181W        W83575  20.838  15.000   1.367
15182W        W83576  28.514  25.843   2.196
15183W        W83577  16.667  35.219   3.238
15184W        W83578  28.091  20.534   2.294
15185W        W83579  35.623   1.638   1.519
15186W        W83580  43.300  25.521   1.057
15187W        W83581  42.627  19.324   2.252
15188W        W83582   5.518   5.358   3.144
15189W        W83583  23.259  29.468  11.637
15190W        W83584  12.296  23.454   0.413
15191W        W83585  36.675  41.061   1.411
15192W        W83586   3.016   7.328   4.097
15193W        W83587   2.189  35.671   2.118
15194W        W83588  32.038  22.600  14.485
15195W        W83589   4.973   9.046  10.188
15196W        W83590  24.283   6.370  14.930
15197W        W83591  40.764   9.353   3.719
15198W        W83592   3.845  31.108  13.415
15199W        W83593  10.816   1.519  13.200
15200W        W83594  36.100  22.005  10.658
15201W        W83595  19.618  16.459   5.359
15202W        W83596  10.829  34.063   4.286
15203W        W83597  40.111  22.473  12.867
15204W        W83598  28.457  19.957   0.945
15205W        W83599   7.749  20.463  11.259
15206W        W83600  12.856  25.214  10.599
15207W        W83601  12.611  39.801   0.021
15208W        W83602  11.846  25.674  13.372
15209W        W83603  41.927  36.048  13.053
15210W        W83604  25.058   9.635   4.479
15211W        W83605  31.027  31.151  10.368
15212W        W83606  34.040  41.535   1.367
15213W        W83607  39.369  27.947   0.016
15214W        W83608  35.085   5.742  13.966
15215W        W83609   3.920   9.251   1.799
15216W        W83610  33.369  18.314  14.559
15217W        W83611  39.973  32.457  10.866
15218W        W83612  31.113  33.238   3.729
15219W        W83613  13.536  24.667  11.116
15220W        W83614   0.899  28.273  12.719
15221W        W83615   2.000   4.527  11.638
15222W        W83616  33.535   0.872   1.140
15223W        W83617  17.774  23.007  10.708
15224W        W83618  11.842  26.477  13.033
15225W        W83619   3.873   1.259   1.739
15226W        W83620  11.690  25.578   3.894
15227W        W83621  40.009  41.943  14.403
15228W        W83622  28.607   3.826   0.890
15229W        W83623  24.509   7.167   0.407
15230W        W83624  17.565   4.039   0.256
15231W        W83625  22.808  35.070   4.099
15232W        W83626  31.606  27.919   3.829
15233W        W83627  19.608  21.246  13.050
15234W        W83628  20.650  17.852   4.433
15235W        W83629  36.487  12.077   1.656
15236W        W83630   9.834  24.230  14.920
15237W        W83631  41.860  15.987   0.286
15238W        W83632  19.207   0.973   2.540
15239W        W83633   9.614  34.109   1.235
15240W        W83634  20.119  26.419  14.949
15241W        W83635  17.649  24.851   4.069
15242W        W83636   2.393  29.196   2.231
15243W        W83637  38.490   0.562   2.628
15244W        W83638  41.498  30.900   1.951
15245W        W83639  11.786   0.819   1.543
15246W        W83640  39.970  14.636   0.148
15247W        W83641  13.361   3.940  10.316
15248W        W83642   1.993   4.844  13.018
15249W        W83643  28.469  27.069  12.736
15250W        W83644  18.665  29.486  13.438
15251W        W83645   4.678  13.690   0.953
15252W        W83646  12.005   5.706  12.941
15253W        W83647  34.675  37.361   4.469
15254W        W83648   4.851  22.241   3.853
15255W        W83649  20.963  12.253   1.910
15256W        W83650  37.390  28.346  14.390
15257W        W83651  16.256  20.573  14.780
15258W        W83652  30.298  32.762  11.536
15259W        W83653  12.407   5.313   2.268
15260W        W83654   6.931  29.073   3.651
15261W        W83655  24.383  39.490  13.795
15262W        W83656  26.713  34.127   3.608
15263W        W83657  32.148  27.231   0.774
15264W        W83658  40.482  32.195  10.647
15265W        W83659  21.539  19.723   2.444
15266W        W83660   2.875   6.848  13.668
15267W        W83661  23.675   6.854   4.103
15268W        W83662  17.659  29.744   1.317
15269W        W83663  33.025  20.849   2.782
15270W        W83664  22.042   2.384  14.742
15271W        W83665  40.238  11.801  14.942
15272W        W83666  39.256  20.692  14.464
15273W        W83667  17.045   1.472  13.811
15274W        W83668  42.325  18.683  11.935
15275W        W83669  43.034   0.264   4.124
15276W        W83670   6.932   4.392  12.190
15277W        W83671  17.258  41.031  10.493
15278W        W83672   8.434  34.839   3.860
15279W        W83673  19.061   1.798   4.192
15280W        W83674   2.190  26.340  11.627
15281W        W83675   2.660  30.601  12.119
15282W        W83676  33.332   7.701   3.907
15283W        W83677  35.790   1.989   2.702
15284W        W83678  38.496  43.436   3.252
15285W        W83679  40.820  20.236   3.613
15286W        W83680  32.858  35.351   3.666
15287W        W83681  26.450  17.932   0.982
15288W        W83682  19.805  23.162   2.330
15289W        W83683  38.820  35.788  10.971
15290W        W83684  43.983  41.971   3.143
15291W        W83685  14.680  20.867  13.047
15292W        W83686  32.406   4.664  11.976
15293W        W83687   7.686  28.219  14.713
15294W        W83688  44.218  15.497  12.636
15295W        W83689  31.813  29.848   4.834
15296W        W83690  11.826  42.592  14.408
15297W        W83691  39.649  11.737  12.488
15298W        W83692  24.214  21.509   0.829
15299W        W83693   4.278   1.115  13.474
15300W        W83694  36.016  37.867  12.430
15301W        W83695  18.620  25.066  12.610
15302W        W83696  25.553   2.572   2.503
15303W        W83697  16.225  30.415  12.510
15304W        W83698  43.657  24.434   3.335
15305W        W83699  26.206  22.617  14.967
15306W        W83700  44.330  34.347   2.275
15307W        W83701   8.934  23.068  13.423
15308W        W83702  21.671  26.707   2.544
15309W        W83703  29.065  18.126  14.334
15310W        W83704   3.332  40.214  12.901
15311W        W83705  43.260  37.864  11.519
15312W        W83706  35.625   6.326  13.497
15313W        W83707  39.873  42.568  12.446
15314W        W83708  32.161   4.529   1.859
15315W        W83709  30.415  44.791  13.556
15316W        W83710  20.851   4.491   0.452
15317W        W83711  36.823  22.753  12.796
15318W        W83712  22.686  34.507   4.337
15319W        W83713  29.794  32.424   2.951
15320W        W83714   5.093  11.733   3.472
15321W        W83715  38.550  15.626   1.399
15322W        W83716  33.087   5.205   4.629
15323W        W83717  18.276  23.442   0.398
15324W        W83718  43.590  36.456  13.453
15325W        W83719  39.099  21.271  10.943
15326W        W83720  37.082  32.725  13.770
15327W        W83721  17.812  38.595   3.851
15328W        W83722  21.043  23.354  14.981
15329W        W83723  37.936  19.291   4.549
15330W        W83724  14.876  19.140  13.075
15331W        W83725  20.540  15.093  10.751
15332W        W83726  12.285   7.142   2.359
15333W        W83727  33.963  37.902   4.768
15334W        W83728  20.208  42.303  13.926
15335W        W83729   4.489  35.189   2.707
15336W        W83730  39.479  13.273   2.604
15337W        W83731   9.604  28.562  12.551
15338W        W83732  13.686   1.285   4.343
15339W        W83733  19.704  40.565  11.919
15340W        W83734  19.972  21.283  11.218
15341W        W83735   9.328   2.058  11.470
15342W        W83736   6.664  16.540   4.001
15343W        W83737   9.610  42.950  12.227
15344W        W83738   6.609  22.626   0.028
15345W        W83739   3.492  16.017   3.579
15346W        W83740  15.959   7.728  14.275
15347W        W83741  12.258   6.920  13.827
15348W        W83742  42.270  35.523   1.260
15349W        W83743  18.200  15.759  11.999
15350W        W83744  31.585   3.395   4.522
15351W        W83745  27.097   5.186   2.850
15352W        W83746  18.746  39.476  14.833
15353W        W83747  15.090  19.106   3.327
15354W        W83748  36.537  17.263  11.370
15355W        W83749   5.091  26.625  11.049
15356W        W83750  39.784  29.396   4.027
15357W        W83751   8.899   8.480  10.883
15358W        W83752  33.811  32.522   0.340
15359W        W83753  34.161  40.055   0.700
15360W        W83754  13.757  25.383  11.159
15361W        W83755   7.683  13.179  10.708
15362W        W83756   2.387  13.682  11.960
15363W        W83757  28.971  24.774   3.173
15364W        W83758   4.684   5.321  13.354
15365W        W83759  32.577  34.579  13.339
15366W        W83760  34.328  30.615   4.682
15367W        W83761   3.733  41.883  11.644
15368W        W83762  20.011  32.039  13.414
15369W        W83763  43.084  37.303   1.303
15370W        W83764  38.907  23.928  13.620
15371W        W83765  29.640  38.502  13.489
15372W        W83766  13.856  18.519   4.645
15373W        W83767  10.311   5.490   2.577
15374W        W83768  39.663   1.267   3.616
15375W        W83769   4.458  15.235   5.442
15376W        W83770  16.511  12.876   4.112
15377W        W83771  29.413  20.744   0.243
15378W        W83772  37.542  29.136  13.580
15379W        W83773  43.664  12.705  13.451
15380W        W83774   0.119  26.204   1.869
15381W        W83775  16.677   2.669   3.647
15382W        W83776  18.523   6.326   2.283
15383W        W83777   1.578  44.850   0.668
15384W        W83778  37.541  22.665   1.817
15385W        W83779  22.960   7.736  13.581
15386W        W83780  19.115  41.784   0.418
15387W        W83781  18.746  25.140  13.099
15388W        W83782  28.124  24.146   0.446
15389W        W83783  20.703  32.974   2.338
15390W        W83784   9.425  37.205   3.623
15391W        W83785  11.221  44.312   4.215
15392W        W83786  37.424   8.197  13.594
15393W        W83787  36.318  25.488  11.815
15394W        W83788  42.871  26.508   4.767
15395W        W83789  40.838  18.473  13.923
15396W        W83790  23.547  38.510  13.795
15397W        W83791  22.311  25.033   1.339
15398W        W83792  15.843   3.151  13.057
15399W        W83793  23.108  41.740  12.863
15400W        W83794  23.732  17.969   4.874
15401W        W83795  14.117   9.757  10.577
15402W        W83796   0.814  39.239  12.981
15403W        W83797  14.663   8.139   1.264
15404W        W83798   3.727   8.341   1.747
15405W        W83799  33.616   7.146   0.359
15406W        W83800   1.407  17.386  12.423
15407W        W83801  38.807  11.298  12.579
15408W        W83802   3.825  21.996   2.919
15409W        W83803  15.551  38.270   0.476
15410W        W83804  28.991   9.306  13.547
15411W        W83805  42.409  35.003   2.565
15412W        W83806  25.169  13.957   1.500
15413W        W83807  25.680  33.443   1.913
15414W        W83808   4.476  33.371  13.846
15415W        W83809  28.001   7.885   2.226
15416W        W83810   8.673  20.065   3.195
15417W        W83811  15.181  35.815   1.438
15418W        W83812  26.591  20.588   0.664
15419W        W83813  34.994  28.009   4.048
15420W        W83814  33.451  30.129   1.612
15421W        W83815  25.776  17.471  10.192
15422W        W83816  29.468   3.245   3.475
15423W        W83817  42.765   6.776  10.937
15424W        W83818  30.621  38.400  12.113
15425W        W83819  22.335  31.679  13.284
15426W        W83820   3.529   8.692  11.585
15427W        W83821  32.958  30.928   3.128
15428W        W83822  13.642  18.598  10.656
15429W        W83823  16.617  39.591   1.723
15430W        W83824  32.423  39.902  12.868
15431W        W83825  28.943  25.618   2.367
15432W        W83826  17.291  25.704  13.430
15433W        W83827  26.937  20.268   3.479
15434W        W83828   9.308  43.276   2.374
15435W        W83829  25.033  28.767   1.339
15436W        W83830  19.100  12.661  12.074
15437W        W83831  28.854  28.192   1.176
15438W        W83832  27.649  10.409   1.004
15439W        W83833  37.785   9.686   1.328
15440W        W83834   5.772   8.837   1.378
15441W        W83835  43.875   4.824  12.873
15442W        W83836  22.090  16.627   0.537
15443W        W83837  40.587  17.664   1.227
15444W        W83838  44.254  41.563  11.078
15445W        W83839  23.552  24.204   3.232
15446W        W83840  20.851  40.381   5.116
15447W        W83841   1.490  33.105   0.413
15448W        W83842  15.866   2.427   0.651
15449W        W83843   9.258  44.016  13.130
15450W        W83844   2.211  24.165  14.905
15451W        W83845  22.786  11.902  13.452
15452W        W83846  23.042  31.191  13.380
15453W        W83847   2.800  18.506   1.783
15454W        W83848  43.615  42.850  12.383
15455W        W83849  40.036  19.626  11.999
15456W        W83850  44.267  15.519  13.524
15457W        W83851   5.967  24.584  14.796
15458W        W83852   5.771  42.409  12.563
15459W        W83853   8.229  21.106   4.982
15460W        W83854  20.583  42.242   3.468
15461W        W83855  26.146  26.629   3.619
15462W        W83856  38.814  22.465   4.374
15463W        W83857  12.192   5.882  11.632
15464W        W83858  31.059  13.014  14.066
15465W        W83859  33.368   3.288   4.866
15466W        W83860  41.274  33.338  11.143
15467W        W83861  44.839   4.841  11.180
15468W        W83862  24.266  21.010  11.984
15469W        W83863  18.543  36.946  11.435
15470W        W83864   4.479  17.874   0.318
15471W        W83865  29.396  27.952   1.889
15472W        W83866  33.226  15.330   3.199
15473W        W83867  29.144  16.702   4.775
15474W        W83868  39.974  16.623   0.993
15475W        W83869   4.889  42.353   2.851
15476W        W83870   6.728  44.285   2.424
15477W        W83871  14.986   6.984  12.046
15478W        W83872  38.799  31.545  12.294
15479W        W83873  40.755  30.402  11.639
15480W        W83874  43.285  27.504   2.340
15481W        W83875  12.787  19.323   3.977
15482W        W83876  29.171  39.218  14.568
15483W        W83877  25.170  40.881  12.806
15484W        W83878  15.827  14.868  13.984
15485W        W83879  31.594   0.784   3.763
15486W        W83880  40.624  26.472   0.701
15487W        W83881  32.503  44.442   3.091
15488W        W83882  33.415  33.438   3.298
15489W        W83883  37.253  27.969   2.284
15490W        W83884  13.835  30.729   2.136
15491W        W83885  19.608  30.970  11.545
15492W        W83886   0.722  30.845   3.678
15493W        W83887  10.839   7.960  13.348
15494W        W83888  44.538  29.193   1.333
15495W        W83889  13.703  13.773  11.751
15496W        W83890  15.927  30.407  11.165
15497W        W83891  37.868  44.088  14.429
15498W        W83892  40.366  17.488  11.917
15499W        W83893   5.342   7.590  13.519
15500W        W83894  40.529  19.072  11.175
15501W        W83895  37.478  14.943   4.272
15502W        W83896  28.741  10.531  10.724
15503W        W83897   7.194  30.516  14.073
15504W        W83898  43.797   4.033   1.190
15505W        W83899  43.889  24.735  11.546
15506W        W83900  18.044  15.486   0.306
15507W        W83901  43.017  10.742   0.860
15508W        W83902   0.074  43.064   3.706
15509W        W83903  16.298   2.316  12.686
15510W        W83904  15.206  29.170  12.954
15511W        W83905  44.441   7.183  14.505
15512W        W83906  44.965   5.909   2.658
15513W        W83907  11.283   6.285  12.640
15514W        W83908  17.123  19.689   3.921
15515W        W83909  33.579  14.952   0.682
15516W        W83910  32.691  28.492   3.077
15517W        W83911  27.893   4.350   3.339
15518W        W83912  43.337   9.644  12.821
15519W        W83913  32.097   0.899  14.403
15520W        W83914  41.347  41.039   3.239
15521W        W83915   1.627  19.774  11.622
15522W        W83916  11.466  23.732   1.320
15523W        W83917  26.703   2.757  11.669
15524W        W83918  25.614  30.644  12.170
15525W        W83919  25.287  33.672   3.925
15526W        W83920  32.931  40.082   4.324
15527W        W83921  11.801  11.310   3.342
15528W        W83922  35.952  32.165  11.687
15529W        W83923  30.068  37.081   4.180
15530W        W83924  31.924  39.450   0.068
15531W        W83925  40.802   5.419  14.307
15532W        W83926   8.990  31.372   3.392
15533W        W83927  43.354   9.209  12.341
15534W        W83928  13.728  16.327   3.342
15535W        W83929  36.844  34.622   0.740
15536W        W83930  14.035  22.416  11.295
15537W        W83931  12.393  22.592   0.542
15538W        W83932  15.497   1.885   4.567
15539W        W83933  40.833  34.036   0.993
15540W        W83934   2.091  25.034  12.952
15541W        W83935  17.730  21.540   0.889
15542W        W83936  20.313  18.188  13.067
15543W        W83937  26.960  32.407  14.223
15544W        W83938  18.617  37.542  13.748
15545W        W83939  15.836  25.665   2.607
15546W        W83940  14.520   7.897  12.018
15547W        W83941  20.129  21.205  12.607
15548W        W83942  39.976  25.406  13.627
15549W        W83943  42.300  31.745   2.804
15550W        W83944  34.092   4.689   0.765
15551W        W83945   4.764  20.694  13.131
15552W        W83946  10.294  31.422   1.045
15553W        W83947   7.143  22.225   0.777
15554W        W83948   8.249   9.825   4.653
15555W        W83949  36.558  23.072   2.991
15556W        W83950  32.423   8.374  11.185
15557W        W83951  33.164  38.999   3.599
15558W        W83952  22.026  17.608   1.766
15559W        W83953  41.731   3.445   4.594
15560W        W83954  20.777  29.033   4.085
15561W        W83955  27.692  43.929  11.957
15562W        W83956  14.612  43.079   2.369
15563W        W83957  20.944  30.643   1.738
15564W        W83958  38.403   1.216   3.119
15565W        W83959   2.529  37.338  14.523
15566W        W83960  24.607  28.759   3.142
15567W        W83961  32.988  39.878  13.561
15568W        W83962  20.198  21.026  12.137
15569W        W83963  34.161   8.424   1.907
15570W        W83964  11.126  32.100   2.338
15571W        W83965  35.858  24.295  12.859
15572W        W83966  30.413  31.832  11.545
15573W        W83967  27.927  38.281   1.357
15574W        W83968  33.719  34.373   3.722
15575W        W83969   7.327  28.195   2.127
15576W        W83970  12.409  19.203  11.511
15577W        W83971  34.031  10.267   5.227
15578W        W83972   9.058  41.465   4.127
15579W        W83973  15.774  29.358   1.403
15580W        W83974  11.410  27.606   2.153
15581W        W83975  19.285   3.932   1.941
15582W        W83976  33.969  41.975   4.140
15583W        W83977  37.242   5.256   4.001
15584W        W83978   0.938  15.004  14.973
15585W        W83979  44.983   6.185  10.831
15586W        W83980  33.489   8.405  11.150
15587W        W83981   7.726  41.014   0.183
15588W        W83982  27.638  37.933   4.792
15589W        W83983  19.837   4.296  10.756
15590W        W83984   6.003  17.833  13.364
15591W        W83985  26.055  10.393  14.954
15592W        W83986  34.411  32.433   0.238
15593W        W83987  29.868  13.054   4.390
15594W        W83988  36.867  44.608   0.421
15595W        W83989  39.542   8.329   4.380
15596W        W83990  40.043  31.528   0.843
15597W        W83991  28.157  33.396  14.934
15598W        W83992   1.417  19.094   0.718
15599W        W83993  29.711  44.385   2.265
15600W        W83994  39.984  43.299   3.774
15601W        W83995  25.918  12.885   3.719
15602W        W83996  43.707   9.342   1.286
15603W        W83997  23.489  33.648  13.980
15604W        W83998  17.646  10.107   1.713
15605W        W83999  12.324  32.885   4.792
15606W        W84000  15.788  42.777  14.789
15607W        W84001  30.866  23.560   0.408
15608W        W84002  16.184  44.322  10.526
15609W        W84003  15.357   5.162  10.778
15610W        W84004  11.535  11.654  14.329
15611W        W84005  23.564  14.277  11.712
15612W        W84006  31.883  35.184   1.728
15613W        W84007   5.044  42.289  14.396
15614W        W84008   6.763  30.934  12.949
15615W        W84009   8.759  23.527   4.205
15616W        W84010  14.481  12.128  11.138
15617W        W84011   6.343   0.959   5.086
15618W        W84012  20.841  13.882   2.832
15619W        W84013  11.663  26.929   2.190
15620W        W84014  37.344  31.346  11.411
15621W        W84015  24.322  17.655  10.805
15622W        W84016   6.273  21.604   0.089
15623W        W84017  28.369   5.702  13.520
15624W        W84018  31.139  34.005   1.725
15625W        W84019  42.068  30.980  12.930
15626W        W84020   6.473  26.136  14.056
15627W        W84021  33.893  19.306   0.416
15628W        W84022  41.221  36.463   3.286
15629W        W84023  20.246  36.548   0.300
15630W        W84024  28.398  22.069  10.891
15631W        W84025  10.352   3.301  11.580
15632W        W84026  11.207  37.765  11.039
15633W        W84027  30.128  29.709   1.685
15634W        W84028  34.203   6.818   1.540
15635W        W84029  41.025   5.570  11.608
15636W        W84030  35.866  10.166   2.825
15637W        W84031  13.229  37.344  13.126
15638W        W84032  43.972   5.968   2.371
15639W        W84033  10.751   0.988  14.970
15640W        W84034  35.320  21.805   0.713
15641W        W84035   8.701  20.160   2.201
15642W        W84036  17.688  12.140  10.811
15643W        W84037   2.977  16.715  11.484
15644W        W84038  41.551   9.692  12.510
15645W        W84039  17.024  37.118  12.625
15646W        W84040  15.478  42.547   3.402
15647W        W84041  10.820   2.201  11.654
15648W        W84042  37.607  15.049  14.412
15649W        W84043  19.197  37.852   1.800
15650W        W84044   7.900  18.086  14.502
15651W        W84045  40.221  41.855   5.021
15652W        W84046   0.468   9.058  10.828
15653W        W84047  20.354  17.250  12.981
15654W        W84048  12.169  30.955   1.809
15655W        W84049  31.081   5.781   0.197
15656W        W84050  11.955   6.166  13.571
15657W        W84051   5.576   8.994   3.650
15658W        W84052   6.219  28.246   0.049
15659W        W84053  42.754   5.973   2.793
15660W        W84054  35.658  34.227   4.149
15661W        W84055  10.094  35.390  12.979
15662W        W84056  31.491  31.378  10.977
15663W        W84057   7.224  27.208  11.547
15664W        W84058   2.036  22.438   5.549
15665W        W84059  44.457  42.645  11.686
15666W        W84060   9.658  25.790  14.856
15667W        W84061  10.231   3.402   1.777
15668W        W84062  29.029  20.622  11.148
15669W        W84063   6.654  13.348  11.788
15670W        W84064  27.326  13.156  13.422
15671W        W84065  30.852  17.568  12.171
15672W        W84066   9.871  32.978   2.297
15673W        W84067  29.172  41.279   3.715
15674W        W84068  38.042  30.300  12.816
15675W        W84069  42.862  25.268  11.569
15676W        W84070  39.931  32.204   3.149
15677W        W84071  34.220  32.327   1.547
15678W        W84072   3.493  23.426  14.892
15679W        W84073  16.333   5.097  13.301
15680W        W84074   0.051  37.428  13.397
15681W        W84075  16.751   7.947  11.198
15682W        W84076  23.569  33.393  11.174
15683W        W84077  42.299  38.350   4.200
15684W        W84078  38.773  32.972   2.706
15685W        W84079  15.346  42.282   2.955
15686W        W84080  41.320  20.833  13.137
15687W        W84081  26.151  35.583   4.724
15688W        W84082  25.586   0.825   4.062
15689W        W84083  34.885   3.164  14.402
15690W        W84084  38.368  23.564  14.909
15691W        W84085   1.282  26.342  12.312
15692W        W84086  37.924  24.006  11.590
15693W        W84087   6.704  33.790  13.515
15694W        W84088   8.701   6.727   2.633
15695W        W84089  15.623  22.487  11.595
15696W        W84090  27.186  42.049   4.563
15697W        W84091  14.694  41.747   4.081
15698W        W84092  34.044   0.754   2.314
15699W        W84093  18.697  28.908   1.418
15700W        W84094  25.711  41.425   0.960
15701W        W84095  22.223   6.884  13.661
15702W        W84096  33.449  11.100  12.447
15703W        W84097   7.146  44.491  12.672
15704W        W84098  21.092  10.290  10.524
15705W        W84099   5.993   2.591   1.769
15706W        W84100  27.651  44.829   0.659
15707W        W84101  26.681  14.784   0.372
15708W        W84102  42.449   7.974  13.833
15709W        W84103   2.870  32.861  11.711
15710W        W84104  32.931   3.242   2.445
15711W        W84105  23.136   8.918  14.547
15712W        W84106  25.151  22.867   3.864
15713W        W84107  22.042  35.135   4.565
15714W        W84108  26.682  22.768   2.749
15715W        W84109  25.158  12.147   0.446
15716W        W84110   6.710   2.139   0.092
15717W        W84111  25.944  24.028   1.695
15718W        W84112  42.522  25.449  10.713
15719W        W84113   1.952  35.866  12.624
15720W        W84114  12.604  36.592   2.345
15721W        W84115  30.441  44.279  12.846
15722W        W84116  24.074  23.005   4.580
15723W        W84117  15.547   5.521   2.208
15724W        W84118  32.884  24.937  10.611
15725W        W84119  44.843  29.611   0.569
15726W        W84120  18.499  39.116   2.254
15727W        W84121  30.267  41.936   4.319
15728W        W84122  24.453   7.867  13.949
15729W        W84123   5.744  16.075  10.923
15730W        W84124   1.012  32.440  11.040
15731W        W84125   6.954  29.591   1.454
15732W        W84126  39.315  32.616  14.383
15733W        W84127  14.145  11.632   1.561
15734W        W84128  32.672  41.011  14.694
15735W        W84129   5.639  32.369  13.549
15736W        W84130  14.392  42.166   1.724
15737W        W84131  14.618   3.548   0.667
15738W        W84132  40.860   9.413  14.519
15739W        W84133  16.692  44.544   4.203
15740W        W84134  21.980  10.282   1.335
15741W        W84135  24.513  19.066   2.393
15742W        W84136  38.542  44.710   2.130
15743W        W84137  40.920  10.966   2.951
15744W        W84138  17.377   1.764  11.552
15745W        W84139  37.883  18.177  13.914
15746W        W84140  20.303  32.047   0.488
15747W        W84141  13.137  41.264  11.587
15748W        W84142  20.580  24.928  13.581
15749W        W84143  34.230  22.270   3.386
15750W        W84144  30.165  44.247   2.560
15751W        W84145  24.466   0.509  11.425
15752W        W84146   5.297  24.139   3.043
15753W        W84147  27.230   9.298   4.837
15754W        W84148  22.481  23.444  11.602
15755W        W84149  12.316   2.816   3.669
15756W        W84150   7.447  23.708   0.334
15757W        W84151  26.187  41.905   0.394
15758W        W84152  11.168  11.687  12.150
15759W        W84153  17.013  41.633   0.748
15760W        W84154  33.390  16.657  13.785
15761W        W84155  24.771  31.657  14.007
15762W        W84156  23.733  43.364   1.915
15763W        W84157  25.570  31.078   4.255
15764W        W84158  35.541  35.153  14.731
15765W        W84159  22.603  34.490   4.847
15766W        W84160  38.056  24.163  13.014
15767W        W84161  14.842  38.120  10.206
15768W        W84162   2.392  11.828  10.658
15769W        W84163  38.299  12.205  10.760
15770W        W84164   4.352  12.738   3.779
15771W        W84165   9.284  21.316  12.496
15772W        W84166  37.945  19.532   3.700
15773W        W84167  15.834  20.735  12.404
15774W        W84168  27.965  22.084  11.197
15775W        W84169   0.762  40.080  12.666
15776W        W84170  27.092  16.056  14.656
15777W        W84171  20.433  42.578  13.531
15778W        W84172  20.701   2.435  11.137
15779W        W84173  39.404  35.551  13.896
15780W        W84174  11.304  31.003   4.351
15781W        W84175   4.588  44.180  12.559
15782W        W84176   5.966  41.062   2.719
15783W        W84177  21.761  36.941   4.091
15784W        W84178  37.023  21.044  14.958
15785W        W84179  42.348  36.012   3.257
15786W        W84180   3.828  22.622  12.257
15787W        W84181  42.383  44.440  11.075
15788W        W84182  30.183   6.419  14.273
15789W        W84183   1.056   5.287   2.244
15790W        W84184  17.243  42.604   0.778
15791W        W84185  26.919  29.586   2.347
15792W        W84186  23.167  21.751   0.376
15793W        W84187   6.260   0.478  13.015
15794W        W84188  26.621  41.071   2.317
15795W        W84189  44.789  43.007  10.597
15796W        W84190   6.753  25.504  14.770
15797W        W84191  14.894  31.537   2.869
15798W        W84192   2.494  31.106   3.999
15799W        W84193  14.289  44.248   4.599
15800W        W84194  26.974  13.664  12.027
15801W        W84195  39.858  24.964  13.852
15802W        W84196  23.388  44.307  12.986
15803W        W84197  27.913  27.161   1.255
15804W        W84198  15.615   0.699  11.006
15805W        W84199   0.809  41.060   3.343
15806W        W84200  27.990  28.381  13.233
15807W        W84201  25.060  34.071   0.910
15808W        W84202  29.266  10.077   4.363
15809W        W84203  20.278  19.179   4.343
15810W        W84204   5.916  40.005  10.912
15811W        W84205  18.564  28.205   3.918
15812W        W84206  36.819   9.725   1.296
15813W        W84207  21.626  34.718  13.239
15814W        W84208  25.780  41.096  10.630
15815W        W84209   3.811   3.208  11.008
15816W        W84210  21.000  42.539  14.725
15817W        W84211  10.067   2.326  13.868
15818W        W84212  30.747  43.936   0.407
15819W        W84213  24.583   2.491   2.392
15820W        W84214  40.280   7.722  12.873
15821W        W84215  32.609  42.293  11.161
15822W        W84216  26.133  16.087   3.188
15823W        W84217  17.346  17.729   0.287
15824W        W84218  20.768   9.337  13.463
15825W        W84219  23.065   1.570  12.422
15826W        W84220  25.863  39.385   1.335
15827W        W84221  39.469  18.681  12.104
15828W        W84222  15.679   0.512   4.054
15829W        W84223  25.128   6.990   3.879
15830W        W84224  23.397   6.675  11.677
15831W        W84225  37.623  41.042   2.821
15832W        W84226  26.874  31.496  14.966
15833W        W84227  42.907  11.751   4.623
15834W        W84228  17.677  38.135   2.299
15835W        W84229  36.613  31.318   3.696
15836W        W84230  35.417  22.184   4.582
15837W        W84231   0.774  29.944   3.730
15838W        W84232  44.336   5.721   0.732
15839W        W84233  27.031   4.762   3.595
15840W        W84234  39.563  38.339  13.940
15841W        W84235   1.530  43.003   4.511
15842W        W84236  14.675  43.556  13.968
15843W        W84237  40.368  32.731  10.668
15844W        W84238  44.594  36.387   5.105
15845W        W84239  15.879   9.773  11.942
15846W        W84240  30.841   8.900  11.620
15847W        W84241  29.072  15.342  11.641
15848W        W84242  29.216   0.403  10.710
15849W        W84243  17.256  33.899  12.433
15850W        W84244  41.473  41.772   1.806
15851W        W84245  36.430   2.784   2.971
15852W        W84246   6.299  21.662  14.567
15853W        W84247  27.254  13.554  12.474
15854W        W84248   4.385  37.769   0.846
15855W        W84249  34.091   9.660   2.322
15856W        W84250  20.932  16.225   1.324
15857W        W84251  15.633  29.434   3.760
15858W        W84252   4.493   6.873   4.721
15859W        W84253  14.558   8.439  10.537
15860W        W84254  36.525   9.929   2.210
15861W        W84255   3.535  17.730  14.442
15862W        W84256  19.725  41.348  10.517
15863W        W84257  26.488  14.687  13.578
15864W        W84258  41.886  29.861   3.113
15865W        W84259  14.730  30.375   2.074
15866W        W84260  25.288  24.208  14.475
15867W        W84261  41.778  29.633  14.938
15868W        W84262  25.553  29.684   0.337
15869W        W84263  35.345  32.137   3.052
15870W        W84264  29.604  33.916  10.902
15871W        W84265  15.861   1.273  14.453
15872W        W84266  27.667  40.071  14.249
15873W        W84267  15.661  28.618   4.555
15874W        W84268  12.041  36.697   3.630
15875W        W84269  17.260  18.962  11.278
15876W        W84270  36.683  11.604   2.775
15877W        W84271  14.352   9.393  14.771
15878W        W84272  10.083   3.586   1.306
15879W        W84273  32.016  10.585  12.439
15880W        W84274   1.881  40.072   3.693
15881W        W84275  13.353  24.012   0.845
15882W        W84276  43.042  26.562  10.703
15883W        W84277  22.543  29.463   0.486
15884W        W84278  37.505  15.234  11.403
15885W        W84279   7.721  11.553  13.046
15886W        W84280  30.404  43.801  13.543
15887W        W84281  43.818   4.920   4.668
15888W        W84282   8.340   4.517  14.754
15889W        W84283  39.661  40.999  10.877
15890W        W84284  23.083  37.189  14.038
15891W        W84285  10.653  42.312  13.062
15892W        W84286   7.771  14.774  13.924
15893W        W84287  32.372  24.555  13.012
15894W        W84288  34.265   8.884  13.526
15895W        W84289  26.998  34.295   2.314
15896W        W84290  36.730  34.189   3.356
15897W        W84291  17.821  25.549  11.449
15898W        W84292  34.434  30.429  13.510
15899W        W84293  28.877  42.191  12.361
15900W        W84294  37.872  25.908   1.125
15901W        W84295  25.928   3.315  14.008
15902W        W84296  30.086  33.589   1.275
15903W        W84297  25.104   5.604  12.307
15904W        W84298   6.989   3.406  13.496
15905W        W84299   4.216   9.861   4.200
15906W        W84300  38.530  44.434  10.401
15907W        W84301  18.779  27.225  11.994
15908W        W84302  26.004   2.726   4.131
15909W        W84303  18.039   0.809   3.025
15910W        W84304   9.647  26.250   3.249
15911W        W84305   3.013  35.067  12.385
15912W        W84306   4.374  33.894  12.889
15913W        W84307  14.299   3.471   3.946
15914W        W84308  11.534  33.861   3.873
15915W        W84309  35.950  44.283   1.737
15916W        W84310  29.202  33.920   0.318
15917W        W84311  42.766  41.991  14.739
15918W        W84312  14.287  33.610  12.098
15919W        W84313  39.555  26.015  10.671
15920W        W84314   8.116   6.713   0.350
15921W        W84315  21.291   9.959  12.610
15922W        W84316  21.586  21.072   4.848
15923W        W84317  18.626  25.458   4.556
15924W        W84318  43.859  10.694   1.221
15925W        W84319  42.038  43.963   2.917
15926W        W84320   7.713   2.472  14.030
15927W        W84321  13.783   0.433  13.537
15928W        W84322  39.062  22.817  10.145
15929W        W84323  17.594  25.166   3.272
15930W        W84324   5.703  32.261   4.377
15931W        W84325  22.969  20.691   0.396
15932W        W84326  42.048   4.204   4.120
15933W        W84327   0.180  34.195  11.251
15934W        W84328  27.087  22.405  10.024
15935W        W84329  29.726   3.146  11.150
15936W        W84330  42.300  33.458   4.454
15937W        W84331  39.945   8.211   4.678
15938W        W84332  19.201  10.147   0.354
15939W        W84333  38.823   5.461  11.727
15940W        W84334  21.535  22.992   3.893
15941W        W84335  17.783  13.243   0.033
15942W        W84336  17.268  15.869  11.882
15943W        W84337  35.520  20.805   0.758
15944W        W84338   9.756   9.949   4.451
15945W        W84339   3.426   0.386  13.991
15946W        W84340  29.202   5.628  13.809
15947W        W84341   7.686  35.346   1.198
15948W        W84342  12.249  29.811   4.585
15949W        W84343  32.647   8.179   0.356
15950W        W84344  41.609   8.212  11.651
15951W        W84345  19.056  30.894   0.776
15952W        W84346  32.953  39.578   0.469
15953W        W84347  16.133  35.229   3.937
15954W        W84348  21.817  20.177   2.301
15955W        W84349  44.839   4.059  10.684
15956W        W84350  16.622  38.298  13.718
15957W        W84351   1.197   2.468   0.739
15958W        W84352  40.764  25.026  11.661
15959W        W84353  31.566  40.019  14.793
15960W        W84354   1.774  44.417  13.373
15961W        W84355  27.184   6.610   1.798
15962W        W84356  12.802  16.448   1.676
15963W        W84357  14.700  37.028   3.073
15964W        W84358  29.503  33.966   2.406
15965W        W84359  23.100  17.980  13.024
15966W        W84360  22.450  16.533  14.854
15967W        W84361   0.346  22.614   1.783
15968W        W84362  44.691  31.529   4.037
15969W        W84363   5.797  18.138   2.937
15970W        W84364  42.430   9.317   0.663
15971W        W84365   4.861  25.052  13.830
15972W        W84366  12.217  24.122   3.815
15973W        W84367  40.589   9.226  10.933
15974W        W84368   7.560   0.538  12.501
15975W        W84369  30.391  41.757  11.665
15976W        W84370  18.587  27.589   3.691
15977W        W84371  27.243   9.928  13.092
15978W        W84372   5.522  22.773   4.471
15979W        W84373   1.156  40.610  11.799
15980W        W84374  34.096  27.900  14.239
15981W        W84375  44.990  31.393  11.470
15982W        W84376  24.559  34.556  13.132
15983W        W84377   2.942  43.020   3.784
15984W        W84378   1.068  17.068   1.719
15985W        W84379  39.110  30.982  14.011
15986W        W84380  28.980  11.744  12.033
15987W        W84381  34.200   6.975   4.110
15988W        W84382  28.690  43.484  11.683
15989W        W84383  17.338  30.894   2.686
15990W        W84384  43.026  21.698  13.501
15991W        W84385   3.326  15.345  10.514
15992W        W84386  15.617  13.629   3.631
15993W        W84387  17.149  20.653  13.026
15994W        W84388  12.239  10.381  13.947
15995W        W84389  22.874  39.618   2.287
15996W        W84390  43.414  35.709   0.269
15997W        W84391   2.759  15.622   4.069
15998W        W84392   1.458  25.147   0.471
15999W        W84393  43.983  40.856   3.720
16000W        W84394  16.768  44.452  11.842
16001W        W84395  31.996  38.564  13.743
16002W        W84396   6.685  17.653  11.684
16003W        W84397  33.561  40.279   4.640
16004W        W84398  24.089  44.233   3.422
16005W        W84399   3.732  18.971  14.137
16006W        W84400  41.361   0.903  11.040
16007W        W84401  17.225   2.170  12.716
16008W        W84402  29.636  18.212   1.861
16009W        W84403   5.420   9.240   1.278
16010W        W84404  33.871  16.276  13.593
16011W        W84405  43.839  24.987  12.092
16012W        W84406  40.725  14.610  13.485
16013W        W84407  38.568  36.611  11.897
16014W        W84408  14.356   9.570   2.724
16015W        W84409  26.158  24.449  13.038
16016W        W84410  29.996  10.171   2.772
16017W        W84411  41.267  41.368  12.453
16018W        W84412   3.961   7.397  11.449
16019W        W84413  35.956   1.049   4.022
16020W        W84414  43.888   8.953  13.092
16021W        W84415  27.402  11.428   1.211
16022W        W84416  17.518  20.544  14.780
16023W        W84417  30.462  44.742   1.752
16024W        W84418   5.846  42.773   5.063
16025W        W84419  12.066  36.739  11.972
16026W        W84420  32.962  27.716  12.461
16027W        W84421  35.545  10.761   4.762
16028W        W84422  22.680  32.144  13.839
16029W        W84423  18.625  37.825   1.848
16030W        W84424  30.608  29.705  10.827
16031W        W84425   3.742  19.750  10.682
16032W        W84426   4.148  19.772   3.825
16033W        W84427  30.887  22.105   1.610
16034W        W84428  16.627   2.111   0.304
16035W        W84429   1.261  31.662  11.632
16036W        W84430   4.906  18.164   1.003
16037W        W84431   1.058  32.825   0.869
16038W        W84432  35.475  14.413   0.579
16039W        W84433  11.725  11.087   2.884
16040W        W84434  15.627  16.408  10.270
16041W        W84435  42.282  17.652  13.055
16042W        W84436   9.312  39.896  11.397
16043W        W84437   0.420   8.943   1.446
16044W        W84438  38.465  14.817  11.114
16045W        W84439   8.347  19.077   3.668
16046W        W84440  12.674   1.872  12.810
16047W        W84441  15.836  18.561   3.406
16048W        W84442   9.742  12.840   4.120
16049W        W84443  24.353  18.152   3.197
16050W        W84444  43.277  24.167   3.543
16051W        W84445   6.380  26.704   0.607
16052W        W84446   6.222  13.382   1.807
16053W        W84447  22.431   8.858   1.967
16054W        W84448  31.003  18.794  13.244
16055W        W84449  16.888  10.111   1.681
16056W        W84450   2.160  25.270   3.029
16057W        W84451  20.428  29.414   2.395
16058W        W84452  41.321  18.601   4.073
16059W        W84453  25.973  33.834  12.565
16060W        W84454   9.664  23.009  11.560
16061W        W84455  38.451   3.435   4.304
16062W        W84456  38.422  41.538   3.065
16063W        W84457  21.023  25.802  14.547
16064W        W84458  42.553  27.685  11.264
16065W        W84459  38.929  26.129   3.720
16066W        W84460  19.855  17.164   4.620
16067W        W84461  28.390  40.197   1.953
16068W        W84462   2.840   9.546   2.839
16069W        W84463  38.849  12.340  11.631
16070W        W84464  29.449  30.886  13.437
16071W        W84465  19.799  30.850   1.862
16072W        W84466   0.424  40.973  14.738
16073W        W84467  38.599   6.386  10.938
16074W        W84468  21.481  23.974   2.158
16075W        W84469  16.138  36.197   4.196
16076W        W84470   9.483  31.824  12.926
16077W        W84471  18.056  15.265  12.086
16078W        W84472  30.650  26.180  11.064
16079W        W84473  16.869  36.914  11.552
16080W        W84474   5.814  35.171  10.770
16081W        W84475   8.332  25.194  13.084
16082W        W84476   8.911  25.511   3.650
16083W        W84477   5.836  32.670   2.693
16084W        W84478  20.020  18.562  14.483
16085W        W84479  39.149  19.478  13.387
16086W        W84480   3.248   1.941   0.460
16087W        W84481  10.822  16.687   0.801
16088W        W84482  27.146  34.077   0.037
16089W        W84483  30.434  24.414   4.038
16090W        W84484  43.188  27.606  11.462
16091W        W84485  10.742  39.541   0.310
16092W        W84486   5.113  37.572   2.532
16093W        W84487  13.618   4.451  11.500
16094W        W84488  33.490  14.870   3.187
16095W        W84489  27.433  11.777   2.297
16096W        W84490   6.722  25.828   4.559
16097W        W84491   5.654  10.903   3.233
16098W        W84492  40.877  42.233  14.984
16099W        W84493  44.390  14.233   4.550
16100W        W84494  30.752  11.601  10.720
16101W        W84495   2.733   2.398  13.494
16102W        W84496  32.190   9.423   3.859
16103W        W84497  36.076  20.317  12.166
16104W        W84498  19.192  26.139   0.792
16105W        W84499  10.233  30.950  12.899
16106W        W84500  18.483  31.699   2.478
16107W        W84501  21.726  36.561   0.208
16108W        W84502  14.708  43.717   0.862
16109W        W84503  19.155  42.670  14.014
16110W        W84504  18.053   3.396   3.699
16111W        W84505  10.417  33.688  14.981
16112W        W84506  19.436  44.412  12.587
16113W        W84507  22.958   1.351   2.534
16114W        W84508  43.857  41.357  13.042
16115W        W84509   2.487  40.978   1.997
16116W        W84510   8.304  29.386   1.379
16117W        W84511  34.363  34.135  10.615
16118W        W84512   2.063  22.756   3.292
16119W        W84513  19.650  21.324   4.609
16120W        W84514  31.642   6.703  12.014
16121W        W84515  39.940  15.597   0.360
16122W        W84516  12.876  38.634  13.123
16123W        W84517   7.967   8.242   4.067
16124W        W84518  43.160  33.886   3.019
16125W        W84519  37.994  10.633  11.040
16126W        W84520  25.674  22.783   2.683
16127W        W84521  26.399  27.894  12.378
16128W        W84522  19.622  33.339  14.523
16129W        W84523  23.482  23.143   1.488
16130W        W84524  27.269  26.706  12.494
16131W        W84525  44.877  25.701  13.759
16132W        W84526  43.422  17.483  14.318
16133W        W84527  39.571  18.983   1.341
16134W        W84528  19.823   0.892  14.985
16135W        W84529  31.710  25.570   3.958
16136W        W84530  29.611  10.127  14.906
16137W        W84531  10.009  38.744   2.589
16138W        W84532  33.525  13.652  12.691
16139W        W84533  15.666  12.448  13.407
16140W        W84534  10.134  27.583  11.274
16141W        W84535  20.247  25.161   4.737
16142W        W84536   0.941  41.827  10.696
16143W        W84537  23.174  17.338  12.209
16144W        W84538  21.587  11.409  10.509
16145W        W84539  11.641  44.022   3.237
16146W        W84540  26.780  42.371   2.712
16147W        W84541  23.817  21.167   5.194
16148W        W84542  14.483  34.454  12.920
16149W        W84543  21.927   9.443   1.291
16150W        W84544   6.609  29.160  14.983
16151W        W84545  25.235  23.772  12.423
16152W        W84546  10.289  15.443   9.966
16153W        W84547  24.036  23.140  10.801
16154W        W84548  22.444   1.856  12.130
16155W        W84549  13.798  14.373   1.297
16156W        W84550  28.744  18.013   3.644
16157W        W84551  31.909  11.485   1.832
16158W        W84552   8.712   4.859   0.456
16159W        W84553  32.743  22.640  11.107
16160W        W84554  33.568  10.089   4.112
16161W        W84555  23.704  25.923  12.925
16162W        W84556  12.534  33.010  14.362
16163W        W84557  14.361  40.613   0.841
16164W        W84558   7.648  40.032  10.658
16165W        W84559  12.871  30.857   0.394
16166W        W84560  27.946  27.571   3.278
16167W        W84561   1.951  32.847  11.861
16168W        W84562  18.582  23.894   1.231
16169W        W84563  20.528  42.015  10.980
16170W        W84564  44.101  15.712  14.017
16171W        W84565  33.602  36.520   0.323
16172W        W84566   7.318  18.634   3.576
16173W        W84567  19.554  14.150  11.493
16174W        W84568   2.824  24.316   2.227
16175W        W84569  28.110  26.905  13.702
16176W        W84570  39.082  10.096   5.000
16177W        W84571  10.956   5.829   0.420
16178W        W84572  13.383  17.045  13.335
16179W        W84573  19.227   5.894   1.255
16180W        W84574   7.834  16.536   2.674
16181W        W84575   2.451  39.864   4.342
16182W        W84576  34.986  39.557   4.588
16183W        W84577  27.408  31.362  11.117
16184W        W84578  28.166  37.756   2.669
16185W        W84579  30.656   6.893   3.130
16186W        W84580  15.652  19.938   3.209
16187W        W84581  14.319  34.824   4.300
16188W        W84582  24.511  19.998  11.681
16189W        W84583  25.515   4.053   1.366
16190W        W84584  15.592  40.349  11.871
16191W        W84585  27.605  16.207   4.200
16192W        W84586  43.737  22.090   0.842
16193W        W84587  41.562   7.920  10.622
16194W        W84588  30.107   6.455  12.255
16195W        W84589  37.240   3.747  12.007
16196W        W84590  19.339  20.538  13.062
16197W        W84591  37.599  35.840  11.521
16198W        W84592  18.093  14.706   2.958
16199W        W84593  30.516   3.149  14.276
16200W        W84594  32.478  23.220   3.380
16201W        W84595   1.325  14.581   3.182
16202W        W84596  44.390  22.529   1.264
16203W        W84597  31.346  15.051  12.594
16204W        W84598  27.753  39.385  12.489
16205W        W84599  30.631  41.830  14.951
16206W        W84600  27.517  42.151  12.541
16207W        W84601  16.101  15.741  12.399
16208W        W84602  21.601  14.142   1.851
16209W        W84603  36.511  20.996   0.281
16210W        W84604  31.583  38.484   4.231
16211W        W84605  32.182  37.795   0.369
16212W        W84606  44.506   0.510   2.887
16213W        W84607  39.616   2.978   2.755
16214W        W84608   2.759  28.930   1.108
16215W        W84609  14.240  16.774   0.731
16216W        W84610  43.544  19.577  14.928
16217W        W84611  12.218  16.729   4.334
16218W        W84612  36.597  27.775   1.241
16219W        W84613  12.799   5.391   0.056
16220W        W84614  38.086  41.797  12.068
16221W        W84615  42.400  23.264   0.862
16222W        W84616  38.869  21.831   2.641
16223W        W84617   6.782  39.259  11.912
16224W        W84618  44.307  19.540  13.889
16225W        W84619   1.967  11.324   1.268
16226W        W84620  40.430  40.363   0.125
16227W        W84621  27.492  24.133  11.999
16228W        W84622  14.672  21.525   3.259
16229W        W84623   7.098  35.455  14.006
16230W        W84624  29.962   9.364   0.421
16231W        W84625  14.131  10.791  11.893
16232W        W84626  16.082  12.631  14.999
16233W        W84627   5.350  32.112  11.515
16234W        W84628  24.342  12.737   1.200
16235W        W84629  20.149  10.003   0.256
16236W        W84630  20.026   0.417   4.659
16237W        W84631  10.438  13.249   1.672
16238W        W84632  13.647  27.927   4.808
16239W        W84633  27.805  13.323  14.401
16240W        W84634  29.599  28.656  11.587
16241W        W84635  39.976   1.062   2.271
16242W        W84636  26.694   8.287   4.312
16243W        W84637   1.270  25.574  11.352
16244W        W84638  12.781  22.583  13.679
16245W        W84639  34.974  42.270   3.390
16246W        W84640  30.648  26.508  13.161
16247W        W84641   6.975  38.018   1.647
16248W        W84642   8.449  39.435  10.707
16249W        W84643  15.072  36.983  14.087
16250W        W84644   9.684  22.709  14.863
16251W        W84645  44.215   2.031  11.685
16252W        W84646  14.691  34.536  11.948
16253W        W84647   8.668  30.544   3.890
16254W        W84648   1.046  18.734  12.591
16255W        W84649  31.008   2.181  14.977
16256W        W84650  19.197  16.367   1.342
16257W        W84651  37.355  35.392   0.915
16258W        W84652   3.946  29.722   2.666
16259W        W84653   4.721  44.509  14.407
16260W        W84654  29.606   4.236  11.615
16261W        W84655  12.794  24.279   1.754
16262W        W84656  42.724  44.069  14.398
16263W        W84657  10.302  22.814  12.670
16264W        W84658  36.015   5.921   4.079
16265W        W84659   6.685   9.717   3.177
16266W        W84660  22.963  31.713   0.462
16267W        W84661  23.039  20.765  14.060
16268W        W84662  36.864  17.106  14.988
16269W        W84663  38.784  25.683  12.439
16270W        W84664   7.192  43.575   3.230
16271W        W84665  18.260  44.415   1.704
16272W        W84666   6.826  23.724  14.004
16273W        W84667  22.733  26.264   5.004
16274W        W84668  44.360  26.614  12.567
16275W        W84669  24.053  38.238   0.981
16276W        W84670  10.620  17.396   1.352
16277W        W84671   7.681  34.467   3.780
16278W        W84672  30.591  30.889   1.354
16279W        W84673  44.365  16.240   2.022
16280W        W84674  15.351  31.375  13.428
16281W        W84675   8.179  14.650  12.909
16282W        W84676   2.959   8.265   4.361
16283W        W84677  39.865   3.742  12.139
16284W        W84678  29.549   4.172  14.652
16285W        W84679  20.239   1.914   2.930
16286W        W84680   2.324   8.878  14.801
16287W        W84681   6.282   2.736   2.598
16288W        W84682  14.841   9.806  10.727
16289W        W84683  25.554  11.850  10.664
16290W        W84684   2.393  33.129   1.507
16291W        W84685  37.591  38.875  11.039
16292W        W84686  31.004   8.863   1.956
16293W        W84687  38.775  18.166  12.205
16294W        W84688  34.508  11.373  14.376
16295W        W84689  43.069  29.162  12.672
16296W        W84690  34.108  39.436  13.492
16297W        W84691  41.042  32.349  11.182
16298W        W84692   9.177  26.714   0.403
16299W        W84693  30.502  40.712  11.654
16300W        W84694  15.699   7.792   4.261
16301W        W84695  35.890  17.267   2.971
16302W        W84696  43.601  15.864  14.911
16303W        W84697  20.696  12.450  14.662
16304W        W84698  22.528  44.678  11.122
16305W        W84699   9.807   7.924   1.200
16306W        W84700  23.977  35.739  12.158
16307W        W84701  42.804   3.594  13.527
16308W        W84702  19.126  19.965   0.818
16309W        W84703   2.862  41.120   0.159
16310W        W84704  34.337  15.353   0.125
16311W        W84705  41.455   9.185   0.732
16312W        W84706  33.979  29.111   5.082
16313W        W84707  41.717   2.264  10.661
16314W        W84708  19.378  27.970   3.687
16315W        W84709   4.705  43.292  11.332
16316W        W84710  14.324  23.722  13.449
16317W        W84711  37.030  42.924  11.526
16318W        W84712   3.963  20.994   1.420
16319W        W84713  39.347   8.316  11.426
16320W        W84714  43.543  28.679   2.242
16321W        W84715  33.137   0.316  11.597
16322W        W84716   8.974   8.812   3.693
16323W        W84717  25.091  11.773   2.842
16324W        W84718  24.070   8.196   5.317
16325W        W84719  42.157  33.214  12.257
16326W        W84720  18.307  21.286  13.096
16327W        W84721  24.097  22.178  14.769
16328W        W84722  44.441  35.929   0.373
16329W        W84723  39.133   3.943   0.474
16330W        W84724  16.708  43.347  12.580
16331W        W84725  32.746  15.176   3.328
16332W        W84726  15.033   6.563   3.269
16333W        W84727  23.065  44.065  13.439
16334W        W84728  38.712   6.715  11.882
16335W        W84729  20.552  24.953  13.024
16336W        W84730  18.191  21.567   2.169
16337W        W84731  26.121  10.599   4.133
16338W        W84732  26.508  20.491  14.377
16339W        W84733  33.870  42.273   0.860
16340W        W84734  13.427  44.408  12.921
16341W        W84735  28.283  37.630  10.748
16342W        W84736  36.511  30.766  14.781
16343W        W84737   0.862   4.119  11.115
16344W        W84738  22.896  10.907  13.133
16345W        W84739   3.869  15.971  10.677
16346W        W84740  26.115  44.912  11.751
16347W        W84741  32.184  14.408   4.871
16348W        W84742  43.869  10.418  13.008
16349W        W84743  44.189  44.820   0.064
16350W        W84744  43.182   6.441   4.209
16351W        W84745  36.015  12.557  13.003
16352W        W84746  25.090  33.070  10.670
16353W        W84747  18.512   9.892  13.774
16354W        W84748  26.986  26.024   3.746
16355W        W84749   0.346  35.154   2.625
16356W        W84750  15.758  16.855  14.929
16357W        W84751  43.787  22.538  12.631
16358W        W84752  23.458  37.528   3.599
16359W        W84753   6.401  35.174  13.175
16360W        W84754  27.737   7.222  13.630
16361W        W84755  24.039  13.258  14.441
16362W        W84756  21.538   6.800   0.247
16363W        W84757  44.308  34.939   4.188
16364W        W84758  41.641   1.360  11.147
16365W        W84759  22.567  24.579   3.168
16366W        W84760  23.226   8.426  11.175
16367W        W84761  35.329  19.911   1.595
16368W        W84762  21.800  20.257   4.240
16369W        W84763   5.390  37.425  13.516
16370W        W84764   6.393  12.205  14.289
16371W        W84765  44.484  34.872   3.713
16372W        W84766  24.080  35.943   0.514
16373W        W84767  19.640  40.478  13.847
16374W        W84768  42.612  19.110   2.754
16375W        W84769  29.163   6.243   2.317
16376W        W84770  39.356  21.112   0.278
16377W        W84771  35.364  10.496   4.363
16378W        W84772   8.218  31.636   1.385
16379W        W84773   9.124  23.697   0.803
16380W        W84774   0.420  37.812   1.264
16381W        W84775   4.048  20.742   0.962
16382W        W84776  21.508   2.501  14.010
16383W        W84777  44.922  35.073  14.389
16384W        W84778   2.173  21.238  11.753
16385W        W84779   7.301  22.504  14.510
16386W        W84780  27.120   2.263   4.709
16387W        W84781  23.177   0.140  11.654
16388W        W84782   9.130   3.374   3.250
16389W        W84783  18.227  25.960   5.208
16390W        W84784   6.340  11.409  10.726
16391W        W84785  31.042  25.814   1.648
16392W        W84786   1.778  40.303   1.950
16393W        W84787  26.848  13.850  12.514
16394W        W84788  14.193  19.316  12.280
16395W        W84789  43.866   9.117   0.841
16396W        W84790  38.864  16.786  12.007
16397W        W84791  30.033  13.327  12.587
16398W        W84792   4.221   7.983  14.925
16399W        W84793  28.559  22.207  13.805
16400W        W84794  25.840  39.886   1.226
16401W        W84795  35.371   9.373   0.250
16402W        W84796   1.707  42.476  14.306
16403W        W84797  27.432  14.768  13.605
16404W        W84798  14.607  15.823   1.823
16405W        W84799  15.150  43.690   2.031
16406W        W84800  29.372  23.156   0.602
16407W        W84801  26.713  27.383  10.921
16408W        W84802  34.469  14.349  10.663
16409W        W84803   8.926   7.739   4.948
16410W        W84804   4.987  18.874   0.359
16411W        W84805  41.412  27.458  13.824
16412W        W84806  37.705   6.836  12.224
16413W        W84807   8.544  35.837  14.157
16414W        W84808  44.406  23.997   1.212
16415W        W84809   4.502  30.846   4.108
16416W        W84810  33.943  28.996   3.706
16417W        W84811  42.838  41.577  12.996
16418W        W84812  26.999  32.217   2.782
16419W        W84813  30.582   6.236  13.534
16420W        W84814   7.458   7.447   2.755
16421W        W84815  36.009  15.118   0.166
16422W        W84816   8.801  24.620   3.503
16423W        W84817  41.276  43.793   3.803
16424W        W84818  13.747   9.325  13.558
16425W        W84819  18.577  37.469   4.054
16426W        W84820   8.720  29.448  14.402
16427W        W84821  20.105   7.483  12.101
16428W        W84822  23.972  13.352  14.969
16429W        W84823  16.512  25.228   0.793
16430W        W84824  27.565   5.785  11.626
16431W        W84825  36.997   1.974   4.594
16432W        W84826  23.523  23.739  13.655
16433W        W84827  43.832  19.609   2.335
16434W        W84828  10.629  35.503   4.043
16435W        W84829  11.117  20.677  13.328
16436W        W84830  38.283  20.566  13.342
16437W        W84831  15.227  27.163  13.864
16438W        W84832  30.978  43.468  14.801
16439W        W84833  29.047  25.592   4.583
16440W        W84834  10.448   5.651  11.465
16441W        W84835  37.427  17.646   2.397
16442W        W84836   5.811  34.534   0.722
16443W        W84837  16.524  18.060  12.458
16444W        W84838  28.530  30.189   4.124
16445W        W84839  18.704  23.115  12.967
16446W        W84840   5.541  39.939   0.564
16447W        W84841  18.580   1.810  13.765
16448W        W84842  17.536  26.762   0.333
16449W        W84843  33.952   6.764   0.514
16450W        W84844  16.368  14.472   0.495
16451W        W84845   3.966  33.976   2.693
16452W        W84846   1.986  29.271   4.185
16453W        W84847   5.109  44.283   3.782
16454W        W84848  15.050  12.649  14.762
16455W        W84849  20.992  12.789   0.665
16456W        W84850  29.380  20.221  10.517
16457W        W84851  37.480  22.682  14.402
16458W        W84852  32.986  29.020   2.455
16459W        W84853  14.564  24.140   0.364
16460W        W84854  16.321  14.434  12.369
16461W        W84855   1.739  14.150  14.248
16462W        W84856   6.282  43.927  10.811
16463W        W84857   4.117   6.992   0.788
16464W        W84858   4.785  32.007  14.949
16465W        W84859  31.168  10.446  10.254
16466W        W84860   2.443  12.086   0.729
16467W        W84861  41.024  31.432   3.180
16468W        W84862   9.976   2.581  14.590
16469W        W84863  12.046  40.801   3.546
16470W        W84864  36.065   2.899   3.724
16471W        W84865  19.523  32.949  11.403
16472W        W84866   4.589  23.511   4.329
16473W        W84867  33.079  11.062  12.048
16474W        W84868  33.552  35.347   0.914
16475W        W84869  29.578  41.500   2.336
16476W        W84870  30.197  11.365   3.458
16477W        W84871   7.301  11.552  13.375
16478W        W84872   1.812  25.261  14.298
16479W        W84873   0.666  14.601  11.595
16480W        W84874  25.742  12.140   1.723
16481W        W84875  24.709  11.198  13.513
16482W        W84876   7.391  11.142  14.511
16483W        W84877   1.471  15.666  11.473
16484W        W84878  39.572  39.186   4.195
16485W        W84879  29.531  26.553   1.876
16486W        W84880  40.337  29.092  12.075
16487W        W84881  21.998  23.957  13.088
16488W        W84882  40.514  24.204   0.669
16489W        W84883  35.385  16.125   0.891
16490W        W84884   3.315  43.736   2.376
16491W        W84885  22.613  36.549  11.653
16492W        W84886  29.193  42.381   2.333
16493W        W84887   6.096  27.037   4.710
16494W        W84888   5.531  29.768  13.536
16495W        W84889  20.204  34.898  14.266
16496W        W84890   5.775  24.634   0.404
16497W        W84891  37.444   2.689  12.056
16498W        W84892  19.836   2.489   1.415
16499W        W84893  26.524  38.565  13.968
16500W        W84894  37.284   1.432   2.170
16501W        W84895  44.269  28.990   0.887
16502W        W84896   6.923   7.167   3.211
16503W        W84897  16.391  10.131   1.166
16504W        W84898  13.501  36.085   0.398
16505W        W84899  34.475  27.040   1.762
16506W        W84900  28.472  35.976   0.854
16507W        W84901  43.225  36.498   3.025
16508W        W84902   8.261   1.487  13.858
16509W        W84903  15.661  32.995   0.462
16510W        W84904   8.140  21.143   1.923
16511W        W84905  41.745  31.119   5.054
16512W        W84906  23.553  26.121   1.796
16513W        W84907  31.549  24.133  12.367
16514W        W84908  19.291  33.507  14.115
16515W        W84909  39.488  20.257  12.803
16516W        W84910  18.855  27.160   1.412
16517W        W84911  23.887  44.986   0.013
16518W        W84912   1.258  39.826  12.984
16519W        W84913  42.003   2.899   2.734
16520W        W84914  28.573  16.369  14.420
16521W        W84915  24.918  13.194   0.790
16522W        W84916  44.632  32.030  12.133
16523W        W84917  15.171  41.364   3.083
16524W        W84918   8.751  29.613  12.002
16525W        W84919  35.329  22.680   4.768
16526W        W84920  39.364   3.794  11.537
16527W        W84921   9.072  18.080   4.251
16528W        W84922  39.658  41.849   0.305
16529W        W84923  16.095  36.213   5.018
16530W        W84924  18.255  20.534   4.224
16531W        W84925  11.107   1.766  14.889
16532W        W84926  15.356   5.137   3.360
16533W        W84927  21.730  36.177  11.959
16534W        W84928  16.000   5.595  11.514
16535W        W84929   5.053   6.822  10.260
16536W        W84930  13.661  38.464   0.957
16537W        W84931   4.206  40.729   2.199
16538W        W84932  24.375  36.001   2.315
16539W        W84933  39.875  39.547   2.219
16540W        W84934  14.166  13.365  13.990
16541W        W84935  39.326  14.582  12.912
16542W        W84936  22.228  15.620  11.172
16543W        W84937   0.342   8.777  11.704
16544W        W84938  28.010  43.526  13.784
16545W        W84939  21.345  26.228  11.945
16546W        W84940  28.543  11.795   2.271
16547W        W84941  29.388  42.455  12.416
16548W        W84942  31.564  29.487  12.524
16549W        W84943  24.770  10.265  11.183
16550W        W84944   9.277  42.017   0.830
16551W        W84945  26.173  41.165   1.114
16552W        W84946  30.946  28.255  10.375
16553W        W84947   1.987   2.113  10.586
16554W        W84948   6.225   6.351  12.921
16555W        W84949  38.951  22.512   1.527
16556W        W84950  41.001  25.993  13.852
16557W        W84951  24.178  19.151  12.626
16558W        W84952   3.299  19.085   2.365
16559W        W84953   9.815  30.065   0.328
16560W        W84954   8.105  44.995   1.883
16561W        W84955  13.606  10.323  12.716
16562W        W84956  19.175  37.710  12.964
16563W        W84957  23.135  40.459   2.412
16564W        W84958  34.088  19.980   2.783
16565W        W84959   8.600  38.845   0.811
16566W        W84960  28.733  11.334  13.860
16567W        W84961  24.536  43.692   1.733
16568W        W84962  25.525   7.557  12.879
16569W        W84963   1.216   4.675   1.873
16570W        W84964  33.700  26.852  10.672
16571W        W84965  37.445  30.671  14.530
16572W        W84966  18.850  19.505   4.555
16573W        W84967   7.741  43.496  11.529
16574W        W84968  15.730  21.744   3.659
16575W        W84969  27.025  20.452  14.288
16576W        W84970   2.661  34.874   2.375
16577W        W84971  27.488  21.618   4.651
16578W        W84972  36.676  39.771   0.717
16579W        W84973  21.958  44.805   3.201
16580W        W84974  44.930  25.489   2.397
16581W        W84975  15.676  18.179   0.349
16582W        W84976  15.019  30.473   4.417
16583W        W84977  39.592  19.413   2.187
16584W        W84978  26.704  18.624   0.056
16585W        W84979  22.004  37.061  12.325
16586W        W84980  34.373  23.242  14.536
16587W        W84981  27.691  14.845   0.299
16588W        W84982   3.837  41.206   1.385
16589W        W84983   9.989  36.159  13.042
16590W        W84984  43.736  13.100  13.074
16591W        W84985  23.178  37.785  14.149
16592W        W84986  23.744  18.074  14.867
16593W        W84987   9.195  37.473   1.501
16594W        W84988  17.772  41.904   1.098
16595W        W84989  12.484  40.449  11.546
16596W        W84990  27.841  39.082  11.127
16597W        W84991  18.897  19.604  12.568
16598W        W84992  43.531  20.780   4.636
16599W        W84993   0.282   2.424  12.323
16600W        W84994  38.541  12.104   0.491
16601W        W84995  25.236  21.085   3.122
16602W        W84996  30.094  19.583   3.048
16603W        W84997   6.094  44.343   0.132
16604W        W84998  40.840  43.003   1.918
16605W        W84999  21.058   2.045   0.477
16606W        W85000  36.781  26.397   2.980
16607W        W85001  38.796  24.916   2.340
16608W        W85002  18.848  19.651  10.007
16609W        W85003  18.514  15.270   2.383
16610W        W85004  44.822  21.344   0.094
16611W        W85005  41.818   5.447  14.457
16612W        W85006   5.378  23.269   4.612
16613W        W85007   2.984  19.664  13.072
16614W        W85008  38.385  43.524  12.023
16615W        W85009  17.556  31.244   0.391
16616W        W85010  11.162  36.592  12.368
16617W        W85011  42.966   2.654   3.088
16618W        W85012   9.397  26.045  11.965
16619W        W85013  34.456  28.994   2.821
16620W        W85014  39.064  10.476   3.317
16621W        W85015  17.210  21.735  11.551
16622W        W85016   9.370  26.156  14.086
16623W        W85017  11.535  21.507  10.954
16624W        W85018  33.514  36.909   3.366
16625W        W85019   8.841   4.861   4.609
16626W        W85020  33.954   6.222  10.468
16627W        W85021  38.761  35.460   2.880
16628W        W85022  27.970   3.539  13.820
16629W        W85023  22.984   1.997  13.629
16630W        W85024  34.863  29.665  14.277
16631W        W85025   4.524  23.729   9.780
16632W        W85026   7.194  32.512   3.427
16633W        W85027  18.551   4.928  11.049
16634W        W85028  43.968  12.282   2.655
16635W        W85029  10.317  30.530  13.960
16636W        W85030  20.276  35.915  14.907
16637W        W85031   5.388  32.939  12.819
16638W        W85032  36.522  21.821  14.862
16639W        W85033  32.150  32.207   4.049
16640W        W85034  23.298  11.174  13.970
16641W        W85035   4.486  33.024  14.245
16642W        W85036   1.414   5.414   0.786
16643W        W85037  31.558  28.707   4.254
16644W        W85038  29.429  20.076  12.518
16645W        W85039  37.551  22.194  14.244
16646W        W85040  15.529   6.313  14.383
16647W        W85041   4.692  19.078   1.821
16648W        W85042  10.683  38.560   4.375
16649W        W85043  44.880  16.672  14.870
16650W        W85044   2.698  36.131   0.291
16651W        W85045  16.789  17.531   3.241
16652W        W85046  34.673  15.018   0.346
16653W        W85047   7.346  18.033   4.804
16654W        W85048  13.276  28.526   0.557
16655W        W85049  17.388   0.297   2.774
16656W        W85050  41.338  26.536  11.022
16657W        W85051  41.317  23.753   3.155
16658W        W85052  29.547  28.040  12.968
16659W        W85053  39.839   9.092  12.474
16660W        W85054  14.271  28.628   1.450
16661W        W85055   1.147   1.547  13.484
16662W        W85056   9.669   8.200  14.770
16663W        W85057  18.670   6.503  12.464
16664W        W85058   7.847  27.143   3.717
16665W        W85059  13.901  18.772   2.065
16666W        W85060   8.732  19.566  11.103
16667W        W85061  14.565  23.858   2.010
16668W        W85062  18.732   3.211   0.255
16669W        W85063  24.577  10.133  10.725
16670W        W85064   0.285  22.617   2.326
16671W        W85065  25.588  30.278  10.338
16672W        W85066  12.806   3.176  11.987
16673W        W85067  21.691   5.688  11.048
16674W        W85068  19.206  44.259  13.035
16675W        W85069  12.170  27.011   2.406
16676W        W85070  24.122  16.762   2.559
16677W        W85071   1.529  18.349   4.644
16678W        W85072   9.350  36.594   1.804
16679W        W85073  18.028   7.362   1.472
16680W        W85074  41.189  16.864   3.158
16681W        W85075  19.735  38.986   2.742
16682W        W85076  44.926  15.019   3.059
16683W        W85077  37.643  40.397   4.592
16684W        W85078  23.557  38.317   2.794
16685W        W85079  29.124  22.245   4.784
16686W        W85080  38.495   5.700   1.396
16687W        W85081  10.870  34.535   4.080
16688W        W85082  37.578  12.359  12.152
16689W        W85083  40.557  23.442  10.888
16690W        W85084   7.878  35.116  11.560
16691W        W85085  22.464   0.139  10.675
16692W        W85086   7.157  32.458   0.867
16693W        W85087  41.465  37.967   3.143
16694W        W85088   2.994  19.172  14.521
16695W        W85089   0.291  28.676   4.216
16696W        W85090  17.052  14.634   1.322
16697W        W85091  10.317  34.589   2.833
16698W        W85092  23.978   1.923  12.158
16699W        W85093  43.633  29.851   3.839
16700W        W85094  16.083   4.475  12.939
16701W        W85095  23.492  13.582  14.377
16702W        W85096  38.022  14.814   2.206
16703W        W85097  25.621   7.890  13.416
16704W        W85098   2.219  16.247   4.762
16705W        W85099  40.393  12.878  13.962
16706W        W85100  41.382  10.145   1.953
16707W        W85101  13.191   3.751   1.276
16708W        W85102  36.536  34.403   1.732
16709W        W85103  22.695   1.801   2.464
16710W        W85104  10.249   5.284   3.221
16711W        W85105   9.795  38.760   1.233
16712W        W85106  15.682   5.743  11.137
16713W        W85107  28.934   0.430   2.770
16714W        W85108  35.988  11.164  14.355
16715W        W85109  29.506  44.966  12.937
16716W        W85110   2.431  13.218   2.127
16717W        W85111  43.833  36.351  11.216
16718W        W85112  14.141   2.941   4.737
16719W        W85113  19.191  24.058   1.839
16720W        W85114  21.750  26.024  11.655
16721W        W85115  31.209  17.363  14.456
16722W        W85116  34.956  34.476   4.898
16723W        W85117  17.121  32.426   1.738
16724W        W85118  31.009  18.305  14.986
16725W        W85119  17.735  39.343  11.098
16726W        W85120  34.590   8.552   1.648
16727W        W85121  16.280   4.323   2.260
16728W        W85122  44.286  26.439  14.167
16729W        W85123  21.323  24.540  12.425
16730W        W85124  32.498  42.241   0.960
16731W        W85125   1.014  41.346   4.328
16732W        W85126  25.057  42.735  10.267
16733W        W85127   3.745  10.382  14.729
16734W        W85128  21.700  18.787   0.952
16735W        W85129  43.033  24.678   2.648
16736W        W85130  35.608  17.814   0.933
16737W        W85131  17.187  17.508  12.441
16738W        W85132   2.745  14.641  11.080
16739W        W85133  24.467  22.130   4.804
16740W        W85134  31.620  23.130   0.259
16741W        W85135  27.689  15.228  10.666
16742W        W85136  35.404  43.777  12.959
16743W        W85137  31.534  44.690  12.481
16744W        W85138  43.979  41.843   0.717
16745W        W85139   5.225  28.026  11.480
16746W        W85140  27.534  27.717   4.537
16747W        W85141   6.196   3.738  13.633
16748W        W85142  10.626   8.364   1.238
16749W        W85143  12.356  34.965  14.599
16750W        W85144   1.054  34.054   0.952
16751W        W85145  36.642  28.055  11.700
16752W        W85146  37.850  35.882   2.627
16753W        W85147  41.524  18.741   4.518
16754W        W85148  24.685  30.542   2.726
16755W        W85149  28.041   7.372   1.456
16756W        W85150  40.137  12.599  13.618
16757W        W85151   0.988   7.280   0.765
16758W        W85152   5.346  23.044   1.758
16759W        W85153  18.278   4.837  12.397
16760W        W85154  34.284  17.632  12.896
16761W        W85155  31.579   6.334  11.434
16762W        W85156   3.912   2.721  10.878
16763W        W85157  24.237  17.648   0.205
16764W        W85158  35.448  17.066   2.823
16765W        W85159   1.403  26.628   2.333
16766W        W85160  22.614  16.981  14.372
16767W        W85161  32.056   5.373   4.526
16768W        W85162  42.267   0.436  10.680
16769W        W85163  19.748  43.303   4.351
16770W        W85164   1.420  33.821  14.668
16771W        W85165   5.240  18.523  13.522
16772W        W85166  19.453   6.262   4.762
16773W        W85167  24.207  35.074   2.452
16774W        W85168   2.398  25.536  14.542
16775W        W85169  33.229   5.281   1.962
16776W        W85170  14.100  20.014   3.841
16777W        W85171  22.995  18.231  13.514
16778W        W85172  17.331  28.933  11.916
16779W        W85173  32.719  22.841  13.299
16780W        W85174   0.639  31.937  13.749
16781W        W85175  26.135  42.275  12.758
16782W        W85176  24.893  32.929   4.964
16783W        W85177   8.821   7.986   3.881
16784W        W85178  14.696  32.917  12.940
16785W        W85179  38.552  23.438  12.601
16786W        W85180   5.973  34.897   2.206
16787W        W85181  34.002  40.838   2.080
16788W        W85182   7.132  39.115   5.103
16789W        W85183  26.626  31.033  10.826
16790W        W85184  34.420   5.061  14.281
16791W        W85185  25.861  13.464   0.948
16792W        W85186  10.727  16.813  12.187
16793W        W85187  35.394  34.579   3.138
16794W        W85188   1.529  39.875   0.063
16795W        W85189  32.521  15.213   4.142
16796W        W85190  29.964  25.131   1.963
16797W        W85191  28.428  21.873   0.205
16798W        W85192  17.242  13.320  10.711
16799W        W85193  43.459  29.392   2.620
16800W        W85194  26.127  22.047  10.584
16801W        W85195  11.306  22.819   1.377
16802W        W85196  29.066  35.674   3.775
16803W        W85197  26.477  19.494   4.303
16804W        W85198  10.631  37.650   1.066
16805W        W85199  12.215  42.498  10.742
16806W        W85200  25.887  31.193   3.852
16807W        W85201   9.688   4.758  10.669
16808W        W85202  38.610   9.201  13.278
16809W        W85203   1.105  16.242  13.189
16810W        W85204  17.538  29.666  11.162
16811W        W85205  19.218   9.598   0.461
16812W        W85206  10.645   0.388   3.437
16813W        W85207   3.465  20.117   1.336
16814W        W85208  17.577  43.952   4.549
16815W        W85209  41.033  29.978   0.614
16816W        W85210  32.952   5.812  12.787
16817W        W85211  13.429   4.830  10.736
16818W        W85212  30.077  34.732   2.000
16819W        W85213  30.904  32.415   4.180
16820W        W85214   6.226  38.823  13.557
16821W        W85215  17.265  37.969   3.395
16822W        W85216  39.240  40.584   2.331
16823W        W85217  10.502  35.583  14.273
16824W        W85218  36.419  28.064  13.915
16825W        W85219  44.810   5.704   4.125
16826W        W85220  24.563   2.328   0.211
16827W        W85221  36.533  35.094  10.718
16828W        W85222   5.198  23.809  10.285
16829W        W85223  23.990  35.509   4.023
16830W        W85224  27.601   9.806  13.946
16831W        W85225   7.909  18.510   2.808
16832W        W85226  38.081  38.397  12.003
16833W        W85227  17.306  42.557   1.756
16834W        W85228  12.890  19.592  13.974
16835W        W85229  37.779  39.051  14.361
16836W        W85230   7.364   2.408   2.292
16837W        W85231  24.440  28.422  11.208
16838W        W85232  43.753  41.009  11.988
16839W        W85233   4.984   9.768  12.034
16840W        W85234  41.716  33.591   1.312
16841W        W85235   6.410   0.378   2.746
16842W        W85236  34.669  27.804  11.071
16843W        W85237  21.231  34.983   3.468
16844W        W85238  17.378  27.971  12.815
16845W        W85239  29.489  35.307   0.326
16846W        W85240  20.429   2.452   1.015
16847W        W85241   6.254  22.050   3.816
16848W        W85242  44.898  16.829   3.173
16849W        W85243  20.750  23.051  13.119
16850W        W85244  25.247   4.954   3.243
16851W        W85245  27.356  27.923   3.624
16852W        W85246   1.308  33.917  13.120
16853W        W85247  26.624  32.156   3.128
16854W        W85248  38.650  33.738   4.919
16855W        W85249  26.395  22.809  10.948
16856W        W85250   6.993  42.465   2.782
16857W        W85251  31.949  21.641  13.659
16858W        W85252  17.542  38.409   3.460
16859W        W85253  29.385  27.068   1.813
16860W        W85254   6.867  25.736  10.325
16861W        W85255  22.747  29.139  11.879
16862W        W85256   7.541  11.692  12.278
16863W        W85257  33.043   2.836   2.100
16864W        W85258  11.075  15.719  12.923
16865W        W85259  32.681  29.033  11.243
16866W        W85260  37.707  11.208  14.025
16867W        W85261  10.419  16.078   5.056
16868W        W85262  34.930  33.986  14.356
16869W        W85263   3.182  43.668   0.082
16870W        W85264  28.466  10.866  13.964
16871W        W85265  10.238  23.207   1.569
16872W        W85266  23.172   1.987   2.166
16873W        W85267  41.501  10.137   2.819
16874W        W85268  41.984   4.657  13.335
16875W        W85269   8.841  38.391   0.706
16876W        W85270  43.602  25.937  14.120
16877W        W85271  11.275  23.725  11.624
16878W        W85272  21.973  32.262  11.029
16879W        W85273   9.878  31.990   4.545
16880W        W85274  23.742  13.064   2.257
16881W        W85275  11.195  34.516   3.665
16882W        W85276  20.208  44.901   4.800
16883W        W85277  29.157  26.560   2.783
16884W        W85278  17.852  17.814  11.285
16885W        W85279  43.334  35.473   2.379
16886W        W85280  13.669  38.076   1.325
16887W        W85281  35.498  44.320   2.457
16888W        W85282  16.360  24.697   3.183
16889W        W85283   5.708  20.470   2.266
16890W        W85284  13.712  19.712   2.444
16891W        W85285  28.633  43.399  13.548
16892W        W85286  19.806   3.325   4.143
16893W        W85287  30.490  21.930  12.606
16894W        W85288  40.773  17.535  14.850
16895W        W85289  18.760  11.835  11.968
16896W        W85290  20.061  31.630   4.670
16897W        W85291  26.491  31.846   4.950
16898W        W85292  25.976  34.569   4.126
16899W        W85293  34.592  39.317   0.716
16900W        W85294  41.387   4.198  11.490
16901W        W85295   8.659  20.063  11.243
16902W        W85296   9.318  20.827  12.929
16903W        W85297   8.042  36.395  14.263
16904W        W85298  18.177  26.723  14.814
16905W        W85299   2.672  42.095   2.779
16906W        W85300  16.318   9.344   3.262
16907W        W85301  23.456   9.453   1.421
16908W        W85302  24.748  13.840   0.290
16909W        W85303   0.369  29.071  14.299
16910W        W85304  12.098   8.903   2.655
16911W        W85305  34.734  32.643  11.606
16912W        W85306  12.079  33.238  14.427
16913W        W85307  23.875  34.125  12.834
16914W        W85308  27.699  20.496  11.213
16915W        W85309  20.106  36.605  14.305
16916W        W85310   3.148   9.831   1.446
16917W        W85311  17.325  36.846  10.668
16918W        W85312  17.876   5.966   5.081
16919W        W85313   9.239  42.194  14.798
16920W        W85314   3.662   5.573  14.995
16921W        W85315  43.946   5.285  12.623
16922W        W85316   9.836  36.471  13.457
16923W        W85317   5.732   2.901  12.495
16924W        W85318  29.952  26.690   3.208
16925W        W85319  39.791  43.562  12.773
16926W        W85320  21.947   5.422   4.560
16927W        W85321  12.588   6.426   0.859
16928W        W85322  21.892  10.914   9.754
16929W        W85323  17.593  39.309   5.417
16930W        W85324  28.124   0.958  11.959
16931W        W85325  19.164  20.833  10.574
16932W        W85326   4.182   5.008  12.472
16933W        W85327  41.334   9.873   4.438
16934W        W85328  31.604   9.755   2.388
16935W        W85329  43.738  17.369  11.063
16936W        W85330  19.786  40.997  13.048
16937W        W85331  15.630  20.734   3.674
16938W        W85332  15.012  43.931  10.678
16939W        W85333  26.020  16.106  11.430
16940W        W85334  18.846   2.264   4.865
16941W        W85335  34.593  13.742   2.688
16942W        W85336  43.153  36.995   1.773
16943W        W85337  14.536   9.204   3.603
16944W        W85338  25.078  37.732  10.988
16945W        W85339  20.955  26.995   1.595
16946W        W85340  22.646  42.455   1.950
16947W        W85341  23.544  42.928   4.087
16948W        W85342  11.002   8.099   3.206
16949W        W85343   6.607   8.756  11.063
16950W        W85344  13.301  38.536   1.919
16951W        W85345  35.504   0.744  14.876
16952W        W85346  38.375  15.774   2.352
16953W        W85347  19.948  39.377   1.842
16954W        W85348  19.514  15.240  12.154
16955W        W85349   3.967  38.375  11.172
16956W        W85350  35.508  12.760   0.733
16957W        W85351  39.255  31.068   1.724
16958W        W85352   2.824  38.851  13.646
16959W        W85353  37.137  29.688  11.952
16960W        W85354  13.826  21.317  10.775
16961W        W85355  35.341  26.348   4.009
16962W        W85356  12.089  31.038   0.977
16963W        W85357   0.512   8.313   4.113
16964W        W85358  28.011  24.687   0.563
16965W        W85359  21.617   5.167   1.912
16966W        W85360  20.188  39.548  10.164
16967W        W85361   3.339   2.971  11.209
16968W        W85362  41.927  11.892   3.422
16969W        W85363   2.364  19.598   3.366
16970W        W85364   8.352  20.125   3.617
16971W        W85365  16.355   5.981   2.156
16972W        W85366  18.274  44.343   3.713
16973W        W85367   6.147  37.255  11.702
16974W        W85368  36.399  41.554  10.561
16975W        W85369  39.081  10.731   1.323
16976W        W85370  32.424  11.059  14.892
16977W        W85371  23.008   1.472   5.015
16978W        W85372  33.824  24.853   5.065
16979W        W85373  25.877  11.100   2.733
16980W        W85374   6.155  29.524   3.569
16981W        W85375  20.523  18.233  13.999
16982W        W85376  17.398  42.966  12.056
16983W        W85377  37.863   7.809   4.077
16984W        W85378  31.750  10.205   0.799
16985W        W85379  40.519  16.085   3.786
16986W        W85380  26.681   6.376   4.095
16987W        W85381   4.478  16.685   0.862
16988W        W85382  30.554   9.259   4.966
16989W        W85383  38.487  15.151   1.139
16990W        W85384  25.858  16.161  12.280
16991W        W85385  43.859  32.363  14.494
16992W        W85386  20.528  37.511  14.030
16993W        W85387  20.022  17.501   1.347
16994W        W85388  25.660   4.748  10.658
16995W        W85389  21.259  21.651  11.529
16996W        W85390   6.658  27.110  10.694
16997W        W85391  13.422  43.273  14.555
16998W        W85392  26.653  14.329   4.153
16999W        W85393  36.441   9.168  11.764
17000W        W85394  20.500  16.267   0.962
17001W        W85395  17.280  41.307   2.152
17002W        W85396  40.535  40.081  13.442
17003W        W85397  20.555  35.125  13.944
17004W        W85398  14.168  34.554  12.016
17005W        W85399  36.690  11.888  11.146
17006W        W85400  37.261  26.788  10.707
17007W        W85401  12.834  36.560  12.545
17008W        W85402   7.930  31.636   1.842
17009W        W85403  43.596   8.167   0.758
17010W        W85404  15.687  29.478  14.985
17011W        W85405  35.419  14.811  12.425
17012W        W85406   3.372   4.206  10.651
17013W        W85407  21.930   3.773   2.535
17014W        W85408  10.916  38.431  14.353
17015W        W85409  10.789  37.537   2.895
17016W        W85410  40.917  14.559   4.621
17017W        W85411  20.345  26.022  10.268
17018W        W85412  43.801  31.627   4.581
17019W        W85413  34.858  15.609   0.229
17020W        W85414  40.342   5.173  13.300
17021W        W85415  12.393  20.687   1.806
17022W        W85416   4.932  33.730   2.769
17023W        W85417   3.978  44.531  13.949
17024W        W85418  13.220  34.176  13.527
17025W        W85419  18.066  29.883  11.657
17026W        W85420  12.389   3.218  13.591
17027W        W85421  33.567  34.889   4.713
17028W        W85422  32.287   8.645  14.445
17029W        W85423  39.335   4.720  14.440
17030W        W85424   1.861   3.025   2.083
17031W        W85425   3.416  42.893  14.942
17032W        W85426  30.361   6.810  12.966
17033W        W85427   2.212  14.642  12.366
17034W        W85428  16.841  36.556   0.897
17035W        W85429  22.144  12.706  10.237
17036W        W85430  27.956  17.279   3.544
17037W        W85431  28.593  18.144  14.989
17038W        W85432  25.094   8.224   0.807
17039W        W85433  32.345   7.659   1.300
17040W        W85434  31.481  13.121  11.488
17041W        W85435   2.998  37.040   2.067
17042W        W85436   4.851  14.082  13.962
17043W        W85437  11.559  15.235   2.402
17044W        W85438  40.779  44.318   3.728
17045W        W85439  32.204  26.795  11.485
17046W        W85440  22.722   0.180  11.203
17047W        W85441  36.561  20.042  12.127
17048W        W85442  21.468  13.485   3.324
17049W        W85443   0.436  43.881  13.430
17050W        W85444  21.717  28.819  12.803
17051W        W85445   7.953  17.039   4.125
17052W        W85446  23.414  24.118   1.313
17053W        W85447  32.508   3.286  13.773
17054W        W85448  23.020  11.165   0.397
17055W        W85449  34.450  36.454  10.612
17056W        W85450  43.577  27.934   2.739
17057W        W85451  20.767  20.815   2.794
17058W        W85452  36.242  41.531  11.791
17059W        W85453  33.513  41.281   4.825
17060W        W85454  12.690   6.728  10.584
17061W        W85455  27.231  12.349  10.209
17062W        W85456  40.217  15.989   4.963
17063W        W85457  28.380  39.814  11.895
17064W        W85458  41.114  20.799   0.843
17065W        W85459  43.554  12.343  12.108
17066W        W85460  13.584  16.203  11.920
17067W        W85461  26.305  37.993   0.353
17068W        W85462   0.304  25.671  12.938
17069W        W85463  30.498  27.953  12.911
17070W        W85464   8.335  15.590  11.853
17071W        W85465   1.641  29.654  12.961
17072W        W85466   0.791  16.584   3.942
17073W        W85467  31.329  16.961   0.344
17074W        W85468  36.775  18.307  12.434
17075W        W85469  30.615  41.003  11.250
17076W        W85470  34.845  31.586   4.858
17077W        W85471  17.119  31.494   3.262
17078W        W85472  20.558  44.498   2.332
17079W        W85473  23.693  36.570  10.561
17080W        W85474  37.958  43.449  12.538
17081W        W85475  39.498  19.729   3.802
17082W        W85476   1.830   6.281   0.606
17083W        W85477  39.030  39.785   4.670
17084W        W85478  38.829  10.687   2.734
17085W        W85479  33.294   5.439   4.187
17086W        W85480  28.171  16.211   3.317
17087W        W85481   6.673  36.048   1.371
17088W        W85482  35.945   1.031  13.959
17089W        W85483  27.501  28.468  14.601
17090W        W85484  27.311  43.633  13.503
17091W        W85485  44.229  32.377   4.087
17092W        W85486  18.437  44.062   3.293
17093W        W85487  24.279  44.799   2.703
17094W        W85488   0.926  36.631   2.349
17095W        W85489  23.638   6.195   0.784
17096W        W85490  35.832  23.116   0.482
17097W        W85491  44.169  15.004  12.187
17098W        W85492   5.484  44.879   3.716
17099W        W85493  40.181   3.444   3.793
17100W        W85494  30.158  39.405  10.768
17101W        W85495  29.409   0.063  11.671
17102W        W85496  24.263  33.903   0.070
17103W        W85497   1.705  15.050   2.701
17104W        W85498  35.018  26.472  14.153
17105W        W85499  23.533  31.051  14.502
17106W        W85500  18.960   8.732  13.397
17107W        W85501  36.271  16.914   3.690
17108W        W85502  33.426   2.155   0.055
17109W        W85503  12.192   5.751  10.128
17110W        W85504  28.088   8.185  12.348
17111W        W85505   0.688   2.816  12.568
17112W        W85506   0.681   9.283  14.257
17113W        W85507  39.033  21.405  12.386
17114W        W85508  10.362  24.933   4.139
17115W        W85509  38.267  26.509  12.224
17116W        W85510  16.438  42.767  11.580
17117W        W85511  35.591  34.873   3.568
17118W        W85512  30.365  15.866   3.594
17119W        W85513  37.024  12.760   3.258
17120W        W85514  26.029   9.099   2.826
17121W        W85515  15.665  18.942  12.054
17122W        W85516  29.663   9.360  11.173
17123W        W85517  18.352   7.876   1.690
17124W        W85518  36.189   6.382  13.303
17125W        W85519   4.989  43.540   5.407
17126W        W85520  31.528  17.766   2.224
17127W        W85521  34.947  17.030   2.087
17128W        W85522  23.641  35.027  13.802
17129W        W85523   6.408  12.682   3.674
17130W        W85524   7.720  31.092   3.358
17131W        W85525  11.915  22.963  13.322
17132W        W85526   3.380  36.396   4.065
17133W        W85527  40.113  22.713  14.154
17134W        W85528  27.522  27.817  14.385
17135W        W85529  28.129  30.870  14.046
17136W        W85530   6.939  42.707  13.432
17137W        W85531  29.178  44.451   2.290
17138W        W85532  18.681  24.206   0.391
17139W        W85533   7.450  12.670  10.682
17140W        W85534  34.842  34.249  12.742
17141W        W85535  13.792  38.893  11.106
17142W        W85536  15.185  22.247   4.411
17143W        W85537  20.249  13.180  12.418
17144W        W85538   8.381  37.244  10.644
17145W        W85539   6.349  10.569  12.044
17146W        W85540  43.420  28.662   0.365
17147W        W85541   7.219  10.637   4.329
17148W        W85542  40.336  27.082   0.417
17149W        W85543  19.631  15.101   4.638
17150W        W85544  30.359  25.740  11.059
17151W        W85545  36.646  33.296   3.690
17152W        W85546  13.885  17.300   3.203
17153W        W85547  15.485   6.412  11.167
17154W        W85548  44.702  18.315  12.449
17155W        W85549   4.503   9.776   0.068
17156W        W85550  12.317  37.295   1.752
17157W        W85551  30.481  43.079   3.225
17158W        W85552  37.143  14.017   2.716
17159W        W85553   5.856  37.962   2.258
17160W        W85554   2.175  43.473   1.805
17161W        W85555   4.347  13.369  13.959
17162W        W85556  19.724  10.168  11.162
17163W        W85557  30.687  29.186   0.128
17164W        W85558   5.444   1.449   1.313
17165W        W85559  40.201  29.907   1.285
17166W        W85560   9.378  23.224  12.405
17167W        W85561  26.682  39.050   2.328
17168W        W85562   4.644  41.914   2.878
17169W        W85563  41.462  14.617   1.791
17170W        W85564  39.365  24.970  13.993
17171W        W85565  39.457  18.553  12.614
17172W        W85566  27.268  20.945  14.268
17173W        W85567  34.197  10.680  12.071
17174W        W85568  20.702  36.450  13.510
17175W        W85569  43.827  43.181   1.974
17176W        W85570  10.410  17.212   3.706
17177W        W85571   3.254  16.635  13.157
17178W        W85572   8.387  26.050   1.678
17179W        W85573   0.810  14.578   1.207
17180W        W85574  15.658  44.953   0.901
17181W        W85575  36.440  22.705  11.122
17182W        W85576  44.638  25.380  10.005
17183W        W85577  11.244   9.190  11.579
17184W        W85578  18.369  21.751  12.109
17185W        W85579  44.470  14.745   1.497
17186W        W85580  13.016  11.595  14.467
17187W        W85581  22.402  26.376   4.649
17188W        W85582  24.505  26.943  14.309
17189W        W85583  29.457  36.928  13.205
17190W        W85584  33.003  14.823   2.893
17191W        W85585   1.132  19.810   2.188
17192W        W85586  37.444  13.642   2.895
17193W        W85587  32.553  25.312   2.173
17194W        W85588  10.324  14.592  13.449
17195W        W85589  35.508  41.113  14.028
17196W        W85590   8.870  19.740   4.981
17197W        W85591   5.338  36.599  10.687
17198W        W85592   5.265  42.975  14.001
17199W        W85593   4.777  25.883   1.104
17200W        W85594  38.780  32.814  11.910
17201W        W85595   6.172  26.629  12.319
17202W        W85596   4.224  15.767  12.096
17203W        W85597  39.076  28.475  11.974
17204W        W85598  17.629  12.167  11.828
17205W        W85599  10.910   3.117   4.355
17206W        W85600  40.355  36.584  12.550
17207W        W85601  29.833  18.697   1.855
17208W        W85602  16.859  38.003  13.339
17209W        W85603   9.189   2.417  14.171
17210W        W85604   9.350   6.825  10.807
17211W        W85605  19.679  10.387  13.567
17212W        W85606   5.803   6.710  10.740
17213W        W85607  12.089  35.568   1.390
17214W        W85608  30.974   4.353   0.466
17215W        W85609  22.385   0.890   4.402
17216W        W85610  41.055   0.969  14.990
17217W        W85611  14.172  43.834   3.659
17218W        W85612  10.610   7.199   4.038
17219W        W85613  19.592  13.509  13.396
17220W        W85614  32.551  37.635  11.116
17221W        W85615  18.745  41.035   0.040
17222W        W85616  40.743  35.533   4.949
17223W        W85617  42.582  11.400   4.455
17224W        W85618  40.316  13.351   2.243
17225W        W85619  29.403  27.619   1.425
17226W        W85620  18.988  18.739   0.429
17227W        W85621  26.912  34.019   3.158
17228W        W85622  42.131  35.406   5.017
17229W        W85623   7.678  23.207  10.193
17230W        W85624  17.764  37.569   0.817
17231W        W85625  21.974  20.399   3.732
17232W        W85626  18.134  17.263   4.518
17233W        W85627  29.822   5.080   3.306
17234W        W85628  13.311   6.127  13.573
17235W        W85629  41.239  39.019   1.187
17236W        W85630   4.300  20.433   2.694
17237W        W85631  26.548  32.972   1.376
17238W        W85632  38.901  12.232  13.460
17239W        W85633  12.854  23.276  11.839
17240W        W85634  15.438  40.380   1.587
17241W        W85635  37.071  32.138  10.461
17242W        W85636   4.102  13.103  10.570
17243W        W85637  39.390  13.202  11.650
17244W        W85638  14.487  21.309   4.962
17245W        W85639   4.085  17.655   2.415
17246W        W85640  13.456  33.461   0.774
17247W        W85641  18.645  10.548  11.510
17248W        W85642  43.826  26.114   0.017
17249W        W85643  13.407  35.983   2.426
17250W        W85644   2.410  41.638   2.802
17251W        W85645   0.956  34.153  10.829
17252W        W85646  21.840  43.451   2.210
17253W        W85647  19.761  27.619  12.497
17254W        W85648  18.652  30.687  13.964
17255W        W85649  17.107  36.149   2.150
17256W        W85650  23.973  19.709  11.766
17257W        W85651  28.647  26.483   2.818
17258W        W85652   6.614  13.910  13.474
17259W        W85653  36.997  17.220  14.061
17260W        W85654  34.255  21.172   0.572
17261W        W85655  33.427  20.500   4.072
17262W        W85656  33.834  44.753   2.313
17263W        W85657   4.885  24.602  11.708
17264W        W85658  15.846  42.410   3.801
17265W        W85659  21.728  27.818   2.715
17266W        W85660  21.681  24.900  12.497
17267W        W85661   8.920   5.905  12.372
17268W        W85662  21.641   4.774   0.677
17269W        W85663  24.923   5.767  11.074
17270W        W85664  24.125  20.716   4.652
17271W        W85665  10.642  17.034   0.451
17272W        W85666  18.947  24.713   2.726
17273W        W85667  32.586   6.519   4.150
17274W        W85668   2.202  26.277   4.544
17275W        W85669   0.242  11.692   2.191
17276W        W85670   2.427  36.840   1.394
17277W        W85671   7.317  14.981   1.631
17278W        W85672  13.818  30.858   0.385
17279W        W85673  14.201  15.274   3.867
17280W        W85674   9.152  38.631   4.551
17281W        W85675  30.295  17.624  12.791
17282W        W85676   5.482  28.143   4.039
17283W        W85677  11.329  24.574   1.755
17284W        W85678  17.226  33.119   3.828
17285W        W85679   0.785  40.997  13.009
17286W        W85680   7.295  28.539   4.892
17287W        W85681   5.942   1.890   1.583
17288W        W85682  43.691  15.718  10.642
17289W        W85683   0.194  36.887  11.961
17290W        W85684  23.476  38.917  10.564
17291W        W85685  37.939  18.160   4.724
17292W        W85686   2.754  43.898  11.232
17293W        W85687  17.723   8.328  14.405
17294W        W85688  44.898  44.973  13.544
17295W        W85689  24.798   0.884  11.191
17296W        W85690  41.875  12.765   1.613
17297W        W85691  17.251  42.513   2.619
17298W        W85692  17.377  41.539  12.717
17299W        W85693  15.678  44.994   4.011
17300W        W85694   6.915  28.741  14.908
17301W        W85695  25.734   9.757   2.332
17302W        W85696  18.622  26.704   1.338
17303W        W85697  32.541   9.797  13.768
17304W        W85698  20.996  14.218  12.619
17305W        W85699  14.242   9.972  14.764
17306W        W85700   5.166   9.501   0.765
17307W        W85701  20.181  19.473  14.488
17308W        W85702  40.444  11.126  13.580
17309W        W85703  11.084  29.462  12.113
17310W        W85704  21.131  36.689   4.662
17311W        W85705  24.539  19.002  10.684
17312W        W85706  32.697  13.788   3.312
17313W        W85707  27.215  32.641  11.114
17314W        W85708  20.263  33.903  13.378
17315W        W85709  12.302  38.835   2.776
17316W        W85710  11.126  33.489  10.713
17317W        W85711  38.553  27.616  13.601
17318W        W85712  38.931   8.765   2.340
17319W        W85713   8.192   4.984  12.081
17320W        W85714  37.737   3.835   1.969
17321W        W85715  27.714  23.579   4.065
17322W        W85716   2.986  39.524   1.688
17323W        W85717   2.097  37.572   5.071
17324W        W85718  18.948  39.528  14.357
17325W        W85719  18.658  10.738  13.409
17326W        W85720   2.083  38.424   0.359
17327W        W85721   2.516   0.342  14.514
17328W        W85722  25.076  37.543  12.425
17329W        W85723   9.274  15.084  10.453
17330W        W85724  35.358   6.707  12.979
17331W        W85725  29.757  23.246  11.644
17332W        W85726  16.721  34.674   1.854
17333W        W85727  34.993  14.242   0.762
17334W        W85728   0.376  14.624   4.380
17335W        W85729  24.597  18.023   3.818
17336W        W85730  33.856  13.205   4.707
17337W        W85731  29.218  21.225   4.639
17338W        W85732  16.793  40.486  13.396
17339W        W85733  36.399  41.955   2.405
17340W        W85734  22.250   1.767   2.753
17341W        W85735  27.187  42.257  14.882
17342W        W85736  41.072  29.309  13.843
17343W        W85737  24.134  14.805   2.732
17344W        W85738  22.015   2.048  13.281
17345W        W85739  21.734   3.118  12.911
17346W        W85740  32.059  26.891   2.696
17347W        W85741   2.813  36.411  13.481
17348W        W85742  32.522  22.758   0.358
17349W        W85743  41.879  15.342   3.585
17350W        W85744   6.828  39.763  13.276
17351W        W85745   6.566   5.691   9.867
17352W        W85746  24.007  40.650  13.434
17353W        W85747  36.586  13.046   3.244
17354W        W85748  26.017  23.186   4.335
17355W        W85749  20.325  44.691   3.986
17356W        W85750  40.306  38.058   4.195
17357W        W85751  10.492  34.606   0.276
17358W        W85752  36.430   9.446  14.979
17359W        W85753   3.562  40.783   2.743
17360W        W85754  12.959   2.899  14.076
17361W        W85755  43.263  41.323   4.208
17362W        W85756   1.409  27.016  12.987
17363W        W85757  22.297  19.602  11.953
17364W        W85758  14.807   7.767  11.120
17365W        W85759  35.822  12.996  14.398
17366W        W85760  44.982   3.406   2.412
17367W        W85761  44.881  40.061  13.102
17368W        W85762  36.514  33.736  10.247
17369W        W85763  44.785  19.722  12.487
17370W        W85764  19.494  42.916   2.658
17371W        W85765  25.950  25.550  14.740
17372W        W85766  27.953   2.455  11.416
17373W        W85767  43.874   7.383  12.055
17374W        W85768   5.690  10.013  12.679
17375W        W85769  24.219  30.549  12.490
17376W        W85770  38.852   1.368   4.594
17377W        W85771  18.770   2.547  12.094
17378W        W85772   4.649  42.474   3.752
17379W        W85773   2.834  44.712  12.892
17380W        W85774  37.182   9.230  11.210
17381W        W85775  24.208   3.656   3.339
17382W        W85776   5.449  34.947   3.071
17383W        W85777  15.827   1.948  12.589
17384W        W85778  23.527  25.645   2.298
17385W        W85779  28.929  41.553  14.526
17386W        W85780   0.749  17.865   3.950
17387W        W85781  26.957  43.136  11.286
17388W        W85782   2.739   7.907   4.780
17389W        W85783  42.928  44.427  14.726
17390W        W85784  43.651  43.864   1.606
17391W        W85785  39.034  12.051   1.750
17392W        W85786  12.384  19.081  14.283
17393W        W85787  21.409  15.361  11.136
17394W        W85788  22.521  37.074  12.415
17395W        W85789  27.473   6.365   2.938
17396W        W85790  19.706  29.094   4.061
17397W        W85791  33.051  12.085   4.965
17398W        W85792   3.417   6.126  11.491
17399W        W85793   7.870   1.161  12.117
17400W        W85794   0.209  33.552   4.741
17401W        W85795  33.569  16.102  10.500
17402W        W85796  15.713  36.505   0.036
17403W        W85797  14.681  13.188  13.013
17404W        W85798   6.117  16.106  12.502
17405W        W85799  35.512   6.845  13.873
17406W        W85800   4.023  22.448   0.673
17407W        W85801  26.005  12.402   4.981
17408W        W85802   5.966  25.229   2.497
17409W        W85803  44.802  25.120  13.600
17410W        W85804   1.704  10.130  14.418
17411W        W85805  30.671  41.760  10.786
17412W        W85806  10.123  43.653  12.914
17413W        W85807  24.172  12.706  11.148
17414W        W85808  21.978  10.726  10.232
17415W        W85809  18.991  23.991  11.020
17416W        W85810  23.050  20.725  13.546
17417W        W85811  29.624  30.947   1.600
17418W        W85812   5.700  32.792  11.976
17419W        W85813  18.275  23.046   2.130
17420W        W85814  14.819  25.076   2.698
17421W        W85815  40.873  25.895  11.202
17422W        W85816   1.835  25.121  14.807
17423W        W85817  26.107  32.171   5.071
17424W        W85818   1.257  22.163  13.427
17425W        W85819   7.162   2.951  13.035
17426W        W85820   7.686  28.997   3.090
17427W        W85821  38.234  24.705   2.953
17428W        W85822  26.113  28.144  11.547
17429W        W85823   2.156  16.378   2.408
17430W        W85824  36.435  27.479  12.569
17431W        W85825   6.861  19.931  13.026
17432W        W85826  35.797  26.078   1.491
17433W        W85827  43.209   0.638   3.389
17434W        W85828   1.357  36.101  11.443
17435W        W85829  10.874  23.229  11.166
17436W        W85830  37.896  24.441   4.881
17437W        W85831  31.085  38.458  14.924
17438W        W85832   9.729  42.804  10.628
17439W        W85833  22.097  23.071  11.535
17440W        W85834  30.504  35.079  10.782
17441W        W85835   7.972  14.373  11.637
17442W        W85836  44.428   7.900   4.990
17443W        W85837   3.338  39.472  10.706
17444W        W85838  42.063  30.815   1.911
17445W        W85839  15.125  19.027   1.353
17446W        W85840  33.965  25.597   4.390
17447W        W85841  40.527   6.355  14.001
17448W        W85842  37.987  14.355   2.558
17449W        W85843  39.448  37.906  14.576
17450W        W85844  36.658   4.423  11.098
17451W        W85845  42.901   2.221  11.947
17452W        W85846   5.636  28.979   3.152
17453W        W85847  22.046  25.237   2.775
17454W        W85848  27.202  27.565   2.779
17455W        W85849  37.214  28.858   2.394
17456W        W85850   6.413  38.725   3.176
17457W        W85851   3.497   6.576   5.133
17458W        W85852  20.087  27.182   0.342
17459W        W85853  19.493   7.428   4.602
17460W        W85854  18.806  39.969   4.650
17461W        W85855  36.412  43.527  11.459
17462W        W85856  44.261  11.312  11.718
17463W        W85857  27.748  42.432   3.843
17464W        W85858  25.695  10.377  12.435
17465W        W85859   5.728  13.645   0.602
17466W        W85860  24.138  18.206  13.934
17467W        W85861  11.771  11.597   3.765
17468W        W85862  28.719   8.668  10.676
17469W        W85863   5.282  13.062  14.848
17470W        W85864  18.839  27.076  11.225
17471W        W85865  39.999  18.391  10.853
17472W        W85866  20.108  22.238  13.952
17473W        W85867  42.190  10.364  10.302
17474W        W85868  30.509  39.426   2.080
17475W        W85869  33.958  41.847  11.113
17476W        W85870  26.994  40.117   3.652
17477W        W85871  22.146   0.915  10.947
17478W        W85872  24.953  26.705   4.782
17479W        W85873  27.003   0.542   0.893
17480W        W85874  40.810  20.624  12.081
17481W        W85875  11.001  34.556  12.038
17482W        W85876  33.486   5.116  13.983
17483W        W85877  25.985   0.389   3.234
17484W        W85878  34.987  26.650   3.746
17485W        W85879  25.287  27.496   0.342
17486W        W85880  36.541  13.084  10.712
17487W        W85881  32.863   4.739   4.541
17488W        W85882  33.790   4.639  11.503
17489W        W85883  15.310   9.845   1.415
17490W        W85884  38.414  17.572   1.300
17491W        W85885  31.054  39.618  12.053
17492W        W85886  24.642   2.409  13.765
17493W        W85887  20.211   0.308  14.722
17494W        W85888  10.280  20.372  12.524
17495W        W85889  24.737  18.615   1.778
17496W        W85890   8.134   0.928   1.869
17497W        W85891   1.884   6.410   4.838
17498W        W85892  11.695  15.525   1.963
17499W        W85893   2.516  17.054   1.849
17500W        W85894  26.052  33.883  11.493
17501W        W85895  19.220  36.440  14.300
17502W        W85896   8.645   7.303  14.847
17503W        W85897  17.839  24.392  14.951
17504W        W85898   7.852  34.055   2.334
17505W        W85899  16.206  13.429  12.524
17506W        W85900   2.279  16.793  14.370
17507W        W85901   9.988  28.176   3.608
17508W        W85902   6.083  20.696   0.946
17509W        W85903   6.715  38.997   2.461
17510W        W85904  24.923   7.501   1.541
17511W        W85905  27.705  32.491   0.019
17512W        W85906   6.953  43.984   1.758
17513W        W85907  27.800  17.491  11.720
17514W        W85908  28.843  14.739  13.860
17515W        W85909  37.596  15.762  13.879
17516W        W85910  22.891  41.233  14.105
17517W        W85911   0.886  14.260   4.815
17518W        W85912  41.577  28.366   0.740
17519W        W85913   5.969  29.193   2.732
17520W        W85914  35.973  42.740   3.847
17521W        W85915  15.324  17.213   0.770
17522W        W85916   0.703  40.887  14.324
17523W        W85917  12.505  11.660  10.784
17524W        W85918  33.017  31.668   4.250
17525W        W85919   6.769  34.745   1.789
17526W        W85920  10.951  30.879   4.752
17527W        W85921  27.990   6.849   2.306
17528W        W85922  24.072  24.000  11.253
17529W        W85923   6.952  19.095  13.627
17530W        W85924  30.044  42.450   3.085
17531W        W85925  20.069  36.429   3.611
17532W        W85926  41.914  44.868   4.145
17533W        W85927   4.532  36.070  11.518
17534W        W85928  15.224  30.691   2.988
17535W        W85929  33.413  11.033   3.217
17536W        W85930  14.235  17.835  12.451
17537W        W85931  27.127   9.572  14.060
17538W        W85932  10.975  28.729   2.489
17539W        W85933  17.740  13.384  10.621
17540W        W85934  17.310   8.065  14.009
17541W        W85935  21.675  20.111   4.741
17542W        W85936  43.348  40.024   2.743
17543W        W85937  23.171   5.632   3.485
17544W        W85938  22.119  30.719   1.441
17545W        W85939  24.655  29.800   3.198
17546W        W85940  43.064  29.553   2.911
17547W        W85941  31.714  34.269   2.423
17548W        W85942  44.324  21.279  12.903
17549W        W85943  40.718  25.917  13.418
17550W        W85944  18.817  20.684  13.930
17551W        W85945  20.509  34.325  11.448
17552W        W85946  41.508  30.683  13.969
17553W        W85947  42.425  39.536  13.913
17554W        W85948  39.786  33.945  11.871
17555W        W85949  29.266  24.783   1.168
17556W        W85950  11.648  21.974  13.602
17557W        W85951   9.205  40.956   1.369
17558W        W85952  14.726  24.563  12.753
17559W        W85953  33.031   8.397   1.801
17560W        W85954  40.685  42.033   0.523
17561W        W85955   3.162  21.545  13.457
17562W        W85956  36.787  38.529  14.053
17563W        W85957   0.921  18.524  11.651
17564W        W85958  27.467  28.508  12.511
17565W        W85959   4.274  36.569   1.376
17566W        W85960  31.025  40.131  12.056
17567W        W85961  41.908  38.538  14.357
17568W        W85962  18.193   8.698  11.540
17569W        W85963  36.891  19.478  10.884
17570W        W85964  37.085  29.694  14.563
17571W        W85965  27.780  41.006   0.270
17572W        W85966  20.111   8.772   3.813
17573W        W85967  42.410   3.884   1.216
17574W        W85968  16.303  31.671  12.968
17575W        W85969   8.951  44.686   4.179
17576W        W85970  18.516   5.150   2.751
17577W        W85971  33.669   3.858   4.583
17578W        W85972  34.887   8.527   2.739
17579W        W85973  22.731   6.010   2.789
17580W        W85974  28.468  23.889  14.675
17581W        W85975  21.410  12.376   5.456
17582W        W85976  34.015  21.687  14.813
17583W        W85977  22.980  15.563   3.678
17584W        W85978   3.135   7.382  11.912
17585W        W85979  11.824   1.764   3.797
17586W        W85980  31.369  10.724  10.675
17587W        W85981   8.334  19.023  14.844
17588W        W85982  35.002  42.824   1.207
17589W        W85983   8.649  20.731  14.312
17590W        W85984  23.236  34.728   0.246
17591W        W85985  10.787  19.311   4.996
17592W        W85986  36.575   5.255   0.448
17593W        W85987  36.301  23.140   3.898
17594W        W85988  10.456  40.352  11.599
17595W        W85989  33.260  29.592   0.737
17596W        W85990  15.359   7.436   0.296
17597W        W85991   1.219  44.159   1.626
17598W        W85992  21.083  37.674  13.387
17599W        W85993   5.776  24.373   2.721
17600W        W85994  12.184  21.574   1.668
17601W        W85995   7.175  12.507  11.075
17602W        W85996  29.497  34.002  14.869
17603W        W85997  10.421   6.191  13.354
17604W        W85998  14.760   5.499  13.739
17605W        W85999  31.306  37.575  10.738
17606W        W86000  43.395  41.338  13.355
17607W        W86001   9.007   3.823   0.420
17608W        W86002  13.759  15.729  11.849
17609W        W86003  37.335  33.743  13.812
17610W        W86004   9.626  15.757  10.693
17611W        W86005  42.108   0.019   0.916
17612W        W86006  41.336  20.371  12.269
17613W        W86007  12.690  41.061   1.344
17614W        W86008  15.740  31.165  12.616
17615W        W86009  14.727  40.867  14.945
17616W        W86010  44.464  42.748  14.876
17617W        W86011  11.893  31.745   2.795
17618W        W86012  26.253   6.090   1.782
17619W        W86013  36.965   4.907   0.388
17620W        W86014  22.023  18.811   3.147
17621W        W86015  41.408  27.480   2.875
17622W        W86016   5.141  13.495   4.302
17623W        W86017   6.761  18.709  12.334
17624W        W86018  38.781  15.688  14.372
17625W        W86019  40.217  24.762   2.352
17626W        W86020  30.668   0.307   1.139
17627W        W86021   8.645  23.069   2.978
17628W        W86022   7.430  15.638  14.057
17629W        W86023  33.649  12.853  13.102
17630W        W86024  43.869   9.009   2.288
17631W        W86025   0.507  34.849  11.626
17632W        W86026  13.186  20.733  12.638
17633W        W86027  27.681  23.518   3.228
17634W        W86028  12.227   2.418   0.581
17635W        W86029   5.433  39.000   0.273
17636W        W86030   8.159  39.769   4.073
17637W        W86031  17.418  36.873   0.395
17638W        W86032  21.647  14.546  14.508
17639W        W86033   2.511  20.168  14.699
17640W        W86034  17.631  35.918  13.862
17641W        W86035  22.151  20.946  12.263
17642W        W86036  14.350  37.679  14.966
17643W        W86037   9.215   7.857   0.269
17644W        W86038  29.661  39.786   1.283
17645W        W86039   5.251  20.302   4.497
17646W        W86040   5.843  21.815  14.382
17647W        W86041   1.260  17.635   0.965
17648W        W86042  18.547  38.958  12.552
17649W        W86043   4.081  13.275   3.145
17650W        W86044  16.627  30.856   4.747
17651W        W86045  29.214  20.327   4.090
17652W        W86046  26.198   1.392   0.317
17653W        W86047  41.981  16.066   1.305
17654W        W86048  32.884  31.516  14.817
17655W        W86049  39.478  34.308  13.974
17656W        W86050  36.524  15.359   0.237
17657W        W86051  22.180  39.302   1.271
17658W        W86052  37.033  43.401  12.147
17659W        W86053   3.918  28.873   4.611
17660W        W86054  22.402  25.111  12.868
17661W        W86055  13.869  23.580  12.475
17662W        W86056  28.415  43.357  14.401
17663W        W86057   5.317  11.645  11.696
17664W        W86058  22.569   2.284   0.445
17665W        W86059   8.458  14.165  14.774
17666W        W86060   3.953  15.788  13.032
17667W        W86061   0.276  21.138   3.408
17668W        W86062   7.978  26.734   4.121
17669W        W86063  36.048  22.368  14.407
17670W        W86064  35.352  29.980  13.347
17671W        W86065  21.193  42.436   0.722
17672W        W86066  27.988  26.054   0.220
17673W        W86067   6.162  29.122  13.176
17674W        W86068  27.723  34.998  11.970
17675W        W86069  14.078  42.074  11.692
17676W        W86070  41.066  29.877   4.891
17677W        W86071  10.740  23.925   1.975
17678W        W86072  41.848   8.378   4.609
17679W        W86073  35.084   2.058  12.223
17680W        W86074  22.561  14.894   0.813
17681W        W86075  14.214  21.296   3.163
17682W        W86076   3.030  28.149  12.174
17683W        W86077  16.651  16.923   9.918
17684W        W86078   3.328  44.830  10.651
17685W        W86079  38.363  24.052  11.357
17686W        W86080  21.034   7.754  12.138
17687W        W86081  18.608  13.502   3.271
17688W        W86082  26.108   3.980  11.943
17689W        W86083  27.979  40.340  10.667
17690W        W86084  20.976  15.741  14.263
17691W        W86085   5.501  32.094   3.907
17692W        W86086   2.890  12.257  14.590
17693W        W86087  32.094  15.488   4.993
17694W        W86088   7.444  43.132  13.726
17695W        W86089  24.201  33.320   0.901
17696W        W86090  24.621  31.749  11.170
17697W        W86091   6.184  20.123  10.664
17698W        W86092   5.387   9.671  12.957
17699W        W86093  14.335  39.270   0.442
17700W        W86094   5.754  30.300  11.556
17701W        W86095   4.236  13.535   1.295
17702W        W86096  38.109  24.092   0.701
17703W        W86097  24.891   4.533   4.223
17704W        W86098   8.342  36.040   4.123
17705W        W86099  15.190  24.707   2.764
17706W        W86100  21.926  37.958   4.247
17707W        W86101   7.623  10.143   1.884
17708W        W86102  33.027  14.314  13.758
17709W        W86103  32.897  16.044  11.167
17710W        W86104   7.141  26.660   3.657
17711W        W86105  15.159  38.632  12.042
17712W        W86106   1.932   0.424   4.048
17713W        W86107   4.871  12.044   3.138
17714W        W86108  23.243  11.464   3.469
17715W        W86109   2.763  39.875  14.708
17716W        W86110   7.269   5.412  12.143
17717W        W86111  15.293   7.291  14.803
17718W        W86112  34.161  33.338   3.835
17719W        W86113  24.964  16.384  12.289
17720W        W86114  41.550  38.435  10.726
17721W        W86115  30.375  42.453   4.113
17722W        W86116  41.557  38.824  11.673
17723W        W86117  23.244  28.601  10.554
17724W        W86118  32.123  38.527  10.528
17725W        W86119  22.604  17.787   3.271
17726W        W86120  40.781  13.847  10.425
17727W        W86121  34.001  33.647   4.237
17728W        W86122  22.705  18.112  11.606
17729W        W86123  39.862  44.453  13.571
17730W        W86124   6.065  11.698   4.071
17731W        W86125  16.734   3.380  11.105
17732W        W86126  37.651  21.967  10.749
17733W        W86127  11.828  39.430   2.033
17734W        W86128  12.847  26.234  10.702
17735W        W86129   6.570  44.780  11.655
17736W        W86130  17.269  20.037   1.081
17737W        W86131  17.558  11.116  11.040
17738W        W86132  25.242  40.101  12.519
17739W        W86133  39.534   8.267   3.874
17740W        W86134  20.075  40.059   4.204
17741W        W86135   3.924   8.300   0.833
17742W        W86136  22.749  41.625   4.973
17743W        W86137  21.089  18.284   2.737
17744W        W86138  21.553   2.196   4.163
17745W        W86139  29.464  18.696   4.288
17746W        W86140  18.788   5.852  11.339
17747W        W86141   2.211  37.049  14.775
17748W        W86142  37.638   3.248  13.531
17749W        W86143  14.709  43.952  12.345
17750W        W86144  26.846   7.940   3.373
17751W        W86145  20.242  20.445  12.836
17752W        W86146  30.009  40.614  14.715
17753W        W86147  23.852  26.113  10.889
17754W        W86148  22.288   0.242  13.684
17755W        W86149  22.287  27.933  12.896
17756W        W86150  43.732  19.595  12.902
17757W        W86151   8.116  40.582   2.983
17758W        W86152  31.141  19.391  11.154
17759W        W86153  19.473  33.279  11.022
17760W        W86154  25.560  31.492  10.524
17761W        W86155  19.324  31.958  10.686
17762W        W86156  25.241  35.347   4.597
17763W        W86157  20.492  17.737  13.282
17764W        W86158   9.231   3.867   4.413
17765W        W86159  29.434  38.449  14.766
17766W        W86160  26.909  33.535  12.570
17767W        W86161   3.985  36.721  12.064
17768W        W86162  42.327  39.546   3.601
17769W        W86163  27.586   2.192  12.158
17770W        W86164   4.339  31.999   0.254
17771W        W86165  17.933  28.792   0.882
17772W        W86166   4.798   9.779  10.583
17773W        W86167   6.081   9.041  12.744
17774W        W86168  17.677  20.155   1.400
17775W        W86169  43.283  39.224   5.096
17776W        W86170  41.376  39.876   0.817
17777W        W86171  15.082   7.313  14.322
17778W        W86172  42.474  31.279   1.243
17779W        W86173  14.274  29.428   3.694
17780W        W86174  20.021   3.381  14.385
17781W        W86175  44.933  28.631   4.590
17782W        W86176   1.535  20.753   4.535
17783W        W86177  32.991  20.837  13.348
17784W        W86178   1.490  44.620   1.643
17785W        W86179  10.685  23.485  12.742
17786W        W86180  17.069  19.720  10.753
17787W        W86181  40.078   7.716  11.878
17788W        W86182  28.509   2.980  14.231
17789W        W86183  13.218   7.361  14.200
17790W        W86184   0.262  43.230  10.796
17791W        W86185  23.983  44.302   0.347
17792W        W86186  26.327  31.358   1.832
17793W        W86187   9.764  43.235  14.068
17794W        W86188  40.313  14.171  14.335
17795W        W86189  13.691  31.444  14.876
17796W        W86190  17.620   6.141  11.442
17797W        W86191   2.004  13.148  12.927
17798W        W86192  10.080   7.295  12.618
17799W        W86193   5.841  42.286  14.562
17800W        W86194  17.750  22.932   1.382
17801W        W86195  13.474  11.518   0.028
17802W        W86196  26.185   2.509  12.475
17803W        W86197  37.176  35.826   1.917
17804W        W86198   1.877  14.562   3.584
17805W        W86199  27.834  26.760  11.171
17806W        W86200  19.803  43.355   1.388
17807W        W86201  22.697  38.040   2.690
17808W        W86202  32.950   8.631  14.910
17809W        W86203  13.881  39.332  11.415
17810W        W86204  14.752  29.560   3.895
17811W        W86205  29.507  40.778  13.753
17812W        W86206  31.163   8.290  12.578
17813W        W86207  27.674  43.853   1.673
17814W        W86208  14.558  38.877  10.738
17815W        W86209  29.991  39.992   0.816
17816W        W86210  31.944   0.590   1.684
17817W        W86211  42.350   5.940   3.587
17818W        W86212  23.055  30.631  11.538
17819W        W86213  16.397   0.651  14.350
17820W        W86214   1.953  33.925   2.854
17821W        W86215  12.639  38.317  10.691
17822W        W86216   5.114  18.826   3.195
17823W        W86217   0.912  10.094   2.745
17824W        W86218  44.079  42.859  12.614
17825W        W86219  25.736  40.304  12.507
17826W        W86220  12.634  31.514  13.574
17827W        W86221  36.008  17.145   0.393
17828W        W86222   1.640  29.890   0.610
17829W        W86223  38.309  12.444  11.648
17830W        W86224  18.741  22.102   1.721
17831W        W86225   4.690  32.014   4.147
17832W        W86226   2.025  18.684   1.260
17833W        W86227   4.007  22.580  13.378
17834W        W86228  33.942  39.975  13.326
17835W        W86229   5.957  35.217   2.593
17836W        W86230  31.624  43.819  14.008
17837W        W86231   7.647  20.155  14.059
17838W        W86232   0.312  12.848  14.922
17839W        W86233   9.246  21.198   1.238
17840W        W86234  24.202  37.127   4.145
17841W        W86235  32.492  25.439  14.441
17842W        W86236  30.025   8.687  13.344
17843W        W86237  20.054  12.350   0.403
17844W        W86238  26.740   1.215  12.003
17845W        W86239  20.324   6.920   2.175
17846W        W86240  43.963  16.506  13.441
17847W        W86241   8.753  10.657  13.998
17848W        W86242  30.611  37.837   4.778
17849W        W86243  41.985   3.409  11.256
17850W        W86244  37.321   5.296   2.735
17851W        W86245  20.192  37.661  11.498
17852W        W86246  18.556  18.810  14.726
17853W        W86247  25.020  43.878   3.282
17854W        W86248  39.844  31.172  13.395
17855W        W86249   5.341  38.928  11.259
17856W        W86250  35.601   2.446   1.909
17857W        W86251  21.199  40.454   3.825
17858W        W86252  44.968  37.872   5.493
17859W        W86253   2.028   9.239   4.529
17860W        W86254   4.976   2.746  11.993
17861W        W86255  11.994  15.214  10.895
17862W        W86256   0.977  26.267   3.345
17863W        W86257  15.122  25.366   3.864
17864W        W86258   3.543  16.301   1.603
17865W        W86259   2.820  12.867   4.217
17866W        W86260  29.431  32.052   2.822
17867W        W86261   1.394  23.099  11.624
17868W        W86262  14.015  41.568  11.978
17869W        W86263  34.666   5.889   1.473
17870W        W86264  42.750  41.721   0.217
17871W        W86265  33.453  41.591  11.674
17872W        W86266   8.886  24.474  13.878
17873W        W86267  29.885  11.236  13.914
17874W        W86268  35.969  43.380   1.273
17875W        W86269  42.899  10.671   4.543
17876W        W86270  26.186  44.957   0.175
17877W        W86271  33.883  26.996  14.271
17878W        W86272  24.220   7.906  12.513
17879W        W86273  19.103  24.767  14.853
17880W        W86274  26.863  11.040   5.429
17881W        W86275  10.837  33.353  11.143
17882W        W86276   7.157  27.931   3.474
17883W        W86277  12.176  37.107  11.592
17884W        W86278   7.722  41.838  12.471
17885W        W86279  26.318  22.285   4.143
17886W        W86280  30.439  17.866   1.734
17887W        W86281   6.783  23.454  12.967
17888W        W86282   6.202  43.266  13.355
17889W        W86283   1.029  39.411  13.412
17890W        W86284  44.407  41.256   1.426
17891W        W86285   0.388  20.711   3.129
17892W        W86286  31.197  14.852  14.314
17893W        W86287  34.509  26.180   2.145
17894W        W86288   6.246  44.464   1.483
17895W        W86289  14.076  38.316   4.181
17896W        W86290  15.844  17.467  12.767
17897W        W86291   8.324   0.483   2.797
17898W        W86292  35.866  37.907  14.828
17899W        W86293  44.902  39.347  14.922
17900W        W86294  18.694  33.994   2.856
17901W        W86295  21.518   0.775   3.765
17902W        W86296  40.042  21.690  12.592
17903W        W86297  37.879   7.447  10.663
17904W        W86298   8.247   2.696  10.647
17905W        W86299   8.259  41.250  10.780
17906W        W86300  25.262  19.488   4.894
17907W        W86301  13.341  10.812   4.537
17908W        W86302  25.336  26.428   0.923
17909W        W86303  23.496   6.101  12.540
17910W        W86304  17.785  15.722   2.686
17911W        W86305  22.593  29.509  12.836
17912W        W86306  24.018  16.721   1.621
17913W        W86307   7.826  40.931  10.955
17914W        W86308   0.330  37.622  14.629
17915W        W86309  26.948  22.469   3.167
17916W        W86310  38.056  12.108   0.734
17917W        W86311  36.361  37.358   4.353
17918W        W86312  35.054  32.992  14.532
17919W        W86313  44.656  16.845  13.850
17920W        W86314  32.678  19.461  13.420
17921W        W86315  18.689   6.946   4.275
17922W        W86316   2.723  44.380  11.044
17923W        W86317   3.953  40.773   3.984
17924W        W86318  12.938   8.054  10.261
17925W        W86319   8.374  28.122   0.770
17926W        W86320  10.345  15.680   2.696
17927W        W86321  24.065  26.904  10.488
17928W        W86322  27.518  44.175   2.832
17929W        W86323  14.144  20.987  14.050
17930W        W86324  19.053  18.815  14.915
17931W        W86325  28.801  39.398  14.860
17932W        W86326  32.687  20.045   4.086
17933W        W86327  15.844  11.431   2.058
17934W        W86328  15.580  13.175  11.658
17935W        W86329  27.450  35.139  14.766
17936W        W86330  26.947  12.911   1.632
17937W        W86331  25.872  31.891  10.954
17938W        W86332  22.952   5.522  12.999
17939W        W86333  22.169   6.336   4.745
17940W        W86334   0.379  29.927   2.004
17941W        W86335  44.523  33.007   0.752
17942W        W86336  29.716  30.343   1.278
17943W        W86337  44.036   5.337  14.440
17944W        W86338  21.511  28.761   2.799
17945W        W86339   7.431  15.477   2.804
17946W        W86340   9.194  39.407  11.191
17947W        W86341  32.455   5.448  14.537
17948W        W86342  34.697   0.857   1.012
17949W        W86343  26.551  12.011  12.539
17950W        W86344  16.317  10.155   5.035
17951W        W86345  25.168  39.235  13.590
17952W        W86346   4.756  34.196   3.680
17953W        W86347   9.407  37.125   1.855
17954W        W86348  11.295  28.533  12.172
17955W        W86349  38.816  43.096  10.361
17956W        W86350  20.127  37.940   4.517
17957W        W86351  14.631  23.904  12.045
17958W        W86352  38.906  18.551  11.887
17959W        W86353   1.178   1.439  11.136
17960W        W86354  11.196   0.212  10.942
17961W        W86355  41.516  31.181  12.891
17962W        W86356   8.128  33.371   3.832
17963W        W86357  31.418  35.881   3.209
17964W        W86358   0.550  39.973  14.869
17965W        W86359  33.796  20.934  11.645
17966W        W86360  20.654   2.335  14.071
17967W        W86361  22.578  22.747  14.892
17968W        W86362  10.149  26.885   4.135
17969W        W86363  35.010   9.623   2.693
17970W        W86364  26.727  18.830   3.642
17971W        W86365  40.416  39.077  10.640
17972W        W86366  28.050  19.528   2.410
17973W        W86367  37.539  38.801  14.885
17974W        W86368  19.018   0.829  10.454
17975W        W86369  18.037  44.057   2.444
17976W        W86370  25.984  14.545   1.707
17977W        W86371   7.659  40.334   0.872
17978W        W86372  18.136  26.944   2.427
17979W        W86373   2.327  12.190   4.985
17980W        W86374  27.773   8.926   3.180
17981W        W86375   3.791  10.885   9.911
17982W        W86376  31.821  34.445   1.205
17983W        W86377   0.421  43.457   2.228
17984W        W86378  41.215   9.679   4.999
17985W        W86379   3.061   4.817   5.135
17986W        W86380   0.934  27.256  12.085
17987W        W86381   8.723  36.592  11.105
17988W        W86382   7.267  35.895  14.923
17989W        W86383  25.065  21.526  12.017
17990W        W86384   6.344  39.062   1.319
17991W        W86385  39.606  35.999  14.450
17992W        W86386  18.005  19.266   4.797
17993W        W86387  34.128  28.974   2.418
17994W        W86388  15.141  32.483   3.171
17995W        W86389  12.802  23.059   3.183
17996W        W86390   0.014  10.853   4.103
17997W        W86391  40.014  37.013  14.527
17998W        W86392  12.742  21.589   4.250
17999W        W86393   4.971  32.973  14.388
18000W        W86394  38.080  39.885  13.368
18001W        W86395   8.332  20.591   4.327
18002W        W86396  32.306   4.841  12.866
18003W        W86397  29.106  20.651   1.300
18004W        W86398  22.894  10.379  12.946
18005W        W86399  27.885  21.164   0.997
18006W        W86400  19.365   9.647  13.101
18007W        W86401  17.244  29.455   2.400
18008W        W86402  22.949  36.305   3.344
18009W        W86403  39.585   1.389  10.421
18010W        W86404  38.313  35.382   1.344
18011W        W86405  19.456  37.842  14.329
18012W        W86406  42.534   2.678  10.768
18013W        W86407  19.016   6.920  12.004
18014W        W86408   5.342   0.014   4.188
18015W        W86409  26.063   5.990  14.921
18016W        W86410  43.351  39.284   3.306
18017W        W86411  21.025  21.949   1.377
18018W        W86412  23.277  44.325  13.993
18019W        W86413   0.716  44.981  11.542
18020W        W86414  39.316  17.369   4.791
18021W        W86415  11.856  14.269  14.809
18022W        W86416   0.756  44.012   3.337
18023W        W86417  31.523  41.022  13.674
18024W        W86418  21.494  19.408  14.741
18025W        W86419  17.591   3.835  11.983
18026W        W86420   9.301   7.769   1.138
18027W        W86421  37.791   9.368   2.966
18028W        W86422  40.410   6.363   5.004
18029W        W86423  36.998  42.031  12.599
18030W        W86424  21.762  26.893  11.155
18031W        W86425  19.636  36.815   4.205
18032W        W86426  23.539  28.778   2.200
18033W        W86427  17.926  28.657   4.411
18034W        W86428   8.845  36.100  11.042
18035W        W86429  29.351   6.394  11.196
18036W        W86430  15.775  17.346   9.923
18037W        W86431  18.207  37.702  13.437
18038W        W86432  34.805  15.077  13.681
18039W        W86433  42.402  15.094   1.009
18040W        W86434  41.989  24.798  10.338
18041W        W86435  25.933  44.573  13.920
18042W        W86436  12.907   2.278  14.489
18043W        W86437  13.942  14.731   4.313
18044W        W86438  44.594  44.201  11.434
18045W        W86439  33.009   9.903   4.323
18046W        W86440  28.676   2.753  10.537
18047W        W86441  25.677   7.786   0.279
18048W        W86442  34.451  35.356  14.451
18049W        W86443   4.458  12.945   2.367
18050W        W86444  12.294   5.949  10.600
18051W        W86445  40.825  31.692  12.444
18052W        W86446  20.256  31.674  13.721
18053W        W86447  37.407  44.477  13.408
18054W        W86448   3.869  21.272   0.441
18055W        W86449  38.336  36.355  14.521
18056W        W86450   1.811  13.127   3.687
18057W        W86451  22.240  10.229   1.784
18058W        W86452   4.735   5.095  10.216
18059W        W86453   4.870  35.194   4.250
18060W        W86454  41.217  36.412   0.309
18061W        W86455  29.872  15.410   0.181
18062W        W86456  20.260   3.176   3.928
18063W        W86457  35.003  44.243   2.292
18064W        W86458  22.280  32.468  10.654
18065W        W86459  33.703  26.150  14.012
18066W        W86460  18.764  30.112   3.213
18067W        W86461  18.146  16.579  14.130
18068W        W86462  37.239   3.010  10.253
18069W        W86463  23.517  12.190   1.186
18070W        W86464  36.433  32.729  11.937
18071W        W86465  44.544   7.229   2.213
18072W        W86466   3.793  38.287   3.678
18073W        W86467  40.547  14.362  13.919
18074W        W86468  18.319  37.973  13.872
18075W        W86469  27.503  20.843   4.135
18076W        W86470  26.865  38.935  11.150
18077W        W86471  28.076  36.874   3.655
18078W        W86472   8.123  27.054  14.313
18079W        W86473  44.368  33.640  13.614
18080W        W86474  43.446   0.246  12.543
18081W        W86475  27.586  38.507  10.822
18082W        W86476  36.021  19.995  14.794
18083W        W86477  18.021  24.435  14.446
18084W        W86478  17.608  23.989   1.298
18085W        W86479  27.227  33.360   1.277
18086W        W86480   3.274  30.721   1.681
18087W        W86481  27.718  13.168  12.927
18088W        W86482  21.686  27.439  13.960
18089W        W86483  19.033   9.950  14.436
18090W        W86484  19.764  13.085   0.386
18091W        W86485  39.549  14.116  14.043
18092W        W86486  18.361   9.269  13.088
18093W        W86487  30.025  24.069  14.190
18094W        W86488  28.912   6.412   2.790
18095W        W86489   8.788  24.737   1.142
18096W        W86490  34.506   5.890   4.826
18097W        W86491  18.437  35.136   2.196
18098W        W86492   6.174   7.463   2.951
18099W        W86493  12.661  43.909  12.966
18100W        W86494  19.947  28.993   2.125
18101W        W86495   1.237  15.315   2.696
18102W        W86496  25.653  18.709  13.929
18103W        W86497  16.692  42.197  13.933
18104W        W86498   2.526  41.195   4.068
18105W        W86499  42.606   2.849   0.288
18106W        W86500  16.779  19.028   1.754
18107W        W86501  24.958  14.773   4.653
18108W        W86502  35.293   4.018  10.744
18109W        W86503  20.914  28.291  10.363
18110W        W86504   9.579  30.489   4.413
18111W        W86505  33.513  29.314  10.236
18112W        W86506  31.648   3.614   4.069
18113W        W86507  29.404  31.038  13.957
18114W        W86508  31.045  18.028  11.487
18115W        W86509  15.844   0.521   9.946
18116W        W86510  40.470  36.928   3.176
18117W        W86511  28.153  11.841  12.444
18118W        W86512  28.655  13.817  14.294
18119W        W86513  20.376   2.012  14.839
18120W        W86514  39.603  40.406  12.061
18121W        W86515  22.606  18.722  14.872
18122W        W86516  13.409  21.225   1.435
18123W        W86517  29.930  44.773  13.342
18124W        W86518  12.167   9.376  13.917
18125W        W86519  44.240   6.594   2.633
18126W        W86520  29.938  35.805  13.027
18127W        W86521  20.529  19.444   2.231
18128W        W86522  17.177  20.317   1.520
18129W        W86523  29.582  25.116   5.084
18130W        W86524  21.825  14.875  14.870
18131W        W86525  42.808  20.296  14.800
18132W        W86526  31.631  40.284  12.026
18133W        W86527   7.685   9.120   2.350
18134W        W86528  25.125  15.858  11.235
18135W        W86529  24.643  32.587   4.164
18136W        W86530  22.074  29.320   3.734
18137W        W86531  22.070  42.790   0.303
18138W        W86532  39.321  26.022   1.141
18139W        W86533  44.124  19.393  10.420
18140W        W86534  30.190  18.573  14.968
18141W        W86535  21.417  42.264  14.555
18142W        W86536  12.209   4.380   0.375
18143W        W86537  33.558  12.303   3.258
18144W        W86538  18.731  15.566  11.301
18145W        W86539  20.327   0.963   4.706
18146W        W86540  24.988  41.270  11.905
18147W        W86541  36.518   2.899  12.943
18148W        W86542  17.809   6.537  10.148
18149W        W86543   5.585  22.373   1.170
18150W        W86544   4.676  10.231  14.883
18151W        W86545  39.749  21.236  12.642
18152W        W86546  39.289   4.441   4.238
18153W        W86547  38.077  32.960   3.899
18154W        W86548   9.742   9.221   4.641
18155W        W86549  35.500   8.185   4.461
18156W        W86550  24.736  33.147   1.853
18157W        W86551  19.535   0.440  10.965
18158W        W86552  40.892  37.836  13.435
18159W        W86553  40.750  22.626   2.356
18160W        W86554  31.497  34.439   1.676
18161W        W86555   5.095  40.116   9.902
18162W        W86556   6.516  42.868   1.864
18163W        W86557   0.557  15.859  10.696
18164W        W86558  40.873  19.727   4.413
18165W        W86559  32.553   8.554  11.648
18166W        W86560  42.330   7.288   0.956
18167W        W86561  34.918  43.285  13.410
18168W        W86562   1.843  10.160   0.930
18169W        W86563  29.081   4.357   1.824
18170W        W86564  16.801  30.069   0.515
18171W        W86565   1.435   9.335   3.757
18172W        W86566   4.016  40.381   1.805
18173W        W86567   6.384  37.832   3.450
18174W        W86568   7.483  31.567   3.494
18175W        W86569   7.770  11.035  13.000
18176W        W86570  17.571  24.582  11.546
18177W        W86571  30.355   7.365  11.190
18178W        W86572   5.214  30.191  10.842
18179W        W86573  16.718  39.378   2.176
18180W        W86574  23.552  37.146   1.471
18181W        W86575  42.395  29.721   3.155
18182W        W86576  14.124  13.339   1.737
18183W        W86577  15.972   6.241  11.146
18184W        W86578   3.030  21.223   4.116
18185W        W86579  17.586  22.516  12.999
18186W        W86580   7.428  27.008   2.749
18187W        W86581  33.991  33.345  10.594
18188W        W86582  15.086  32.210  11.481
18189W        W86583  10.934  29.683  14.423
18190W        W86584   6.306  21.700   2.331
18191W        W86585  15.107  12.928   3.413
18192W        W86586  15.895  11.737  14.615
18193W        W86587  21.833   6.298   4.113
18194W        W86588  18.615  43.115  10.006
18195W        W86589  42.896   8.986  10.717
18196W        W86590  34.833  18.600   1.792
18197W        W86591  10.470  14.023   2.345
18198W        W86592  22.526  20.709   3.243
18199W        W86593  43.702   2.391   1.754
18200W        W86594  16.832  18.236  12.840
18201W        W86595  36.000   0.546  13.807
18202W        W86596  25.991  19.808  13.959
18203W        W86597  29.700  11.674   1.230
18204W        W86598  23.823   3.725   4.495
18205W        W86599  17.775  22.412   1.449
18206W        W86600  37.388  38.587   0.784
18207W        W86601  12.060  34.531   0.191
18208W        W86602   6.209   8.429  10.313
18209W        W86603  17.157  27.035   3.940
18210W        W86604  19.128  22.153   3.781
18211W        W86605  32.574  37.571   4.591
18212W        W86606   6.864  26.279  11.206
18213W        W86607  18.635  34.098  11.633
18214W        W86608   3.758   0.161   4.499
18215W        W86609  37.553  10.914  14.424
18216W        W86610  27.537  22.411  11.135
18217W        W86611   9.829  27.978   2.634
18218W        W86612  23.727  34.516  14.122
18219W        W86613  19.103  40.111   3.259
18220W        W86614  25.551  27.156   4.265
18221W        W86615  18.101  27.154   4.282
18222W        W86616  24.334  30.532  13.378
18223W        W86617  37.062  19.177  12.705
18224W        W86618   0.051  38.510   3.174
18225W        W86619  22.483   4.957  14.773
18226W        W86620   8.702  13.657  12.454
18227W        W86621  34.726  16.302  13.848
18228W        W86622   5.182  25.645   4.103
18229W        W86623  34.500  32.520  10.616
18230W        W86624  21.058  26.167   3.355
18231W        W86625  23.712  18.708  13.562
18232W        W86626  32.026  15.312   4.066
18233W        W86627   4.981  16.689   0.708
18234W        W86628  11.585  34.899   5.109
18235W        W86629  17.458  41.714  13.799
18236W        W86630  40.836   6.320   3.688
18237W        W86631   0.901   7.378  13.051
18238W        W86632   5.829  26.696  10.487
18239W        W86633  40.898  20.220   1.425
18240W        W86634  16.762  26.838   5.074
18241W        W86635  26.331  44.472  14.936
18242W        W86636  32.947   9.331  10.686
18243W        W86637   8.790   5.419  12.315
18244W        W86638  21.007   0.402  11.625
18245W        W86639  39.279  23.632  12.664
18246W        W86640   3.752  39.306  14.310
18247W        W86641  20.752  40.540  11.267
18248W        W86642  15.331  41.853   3.237
18249W        W86643  11.467  15.045   1.257
18250W        W86644  12.794  17.551   2.541
18251W        W86645  40.809  30.671  13.529
18252W        W86646  41.825  18.157   0.511
18253W        W86647  18.153   7.645   0.117
18254W        W86648  42.472  25.635  14.147
18255W        W86649  24.448  44.208   1.694
18256W        W86650  24.072  23.285  14.332
18257W        W86651   0.054  25.415   2.882
18258W        W86652   3.391  40.930   0.375
18259W        W86653   3.555  44.154  13.181
18260W        W86654  40.941  27.358  14.058
18261W        W86655  28.595   0.488   0.963
18262W        W86656   0.934  11.282   3.143
18263W        W86657  38.131   1.958   5.299
18264W        W86658  33.090   2.263  12.925
18265W        W86659  13.122  24.449   2.136
18266W        W86660  25.843   8.894  11.720
18267W        W86661  35.415  27.096  11.491
18268W        W86662  25.402  22.482  13.318
18269W        W86663  27.440   1.269  11.110
18270W        W86664  41.585   2.263   3.148
18271W        W86665  39.884  14.785  12.226
18272W        W86666  25.875   3.385   1.832
18273W        W86667  19.361  41.486   1.715
18274W        W86668  29.479  16.062  13.402
18275W        W86669  19.736  15.337   5.087
18276W        W86670  23.963  36.831   1.443
18277W        W86671  10.088  32.976   4.850
18278W        W86672  13.206  22.948  11.623
18279W        W86673  22.003  28.386  12.701
18280W        W86674  25.190   0.512  13.812
18281W        W86675  19.070   0.396   1.248
18282W        W86676  38.929  32.576  10.548
18283W        W86677   5.818  21.510  14.815
18284W        W86678  41.772  18.062  13.614
18285W        W86679  27.003  27.604  11.590
18286W        W86680  16.989  18.025   0.047
18287W        W86681  40.614  14.236   1.703
18288W        W86682   6.873  20.715  14.856
18289W        W86683  17.574  14.342   3.469
18290W        W86684   6.666  40.276   4.566
18291W        W86685  32.317   9.179   2.374
18292W        W86686  40.518  19.422  12.057
18293W        W86687  25.514  22.028  14.993
18294W        W86688  28.225  41.475   0.876
18295W        W86689  34.488  10.291   3.131
18296W        W86690   3.224  29.148   1.167
18297W        W86691  34.970  30.156  11.524
18298W        W86692  11.794  28.568   3.627
18299W        W86693  34.945  19.233  13.575
18300W        W86694  24.037  36.465   3.660
18301W        W86695  39.218  43.743   0.038
18302W        W86696  35.555   5.414   1.303
18303W        W86697  13.218   0.759  14.933
18304W        W86698  43.280  14.248   1.242
18305W        W86699  16.538  15.959   1.768
18306W        W86700  27.972  31.606   2.308
18307W        W86701  31.526  35.940  14.234
18308W        W86702   0.029   5.662  10.699
18309W        W86703  37.976  26.150  13.918
18310W        W86704  17.163  28.678   0.367
18311W        W86705  43.564  42.850  12.897
18312W        W86706  19.428  18.697  14.525
18313W        W86707  24.082  17.832  14.345
18314W        W86708   7.943  19.167   0.763
18315W        W86709  43.525  32.037   3.686
18316W        W86710   5.236  12.089  13.928
18317W        W86711  33.088   8.838   4.372
18318W        W86712  11.242  10.961   0.718
18319W        W86713   3.465  27.945   0.254
18320W        W86714  25.199  41.392  14.749
18321W        W86715  40.414  28.185   4.817
18322W        W86716   1.456   4.709   1.400
18323W        W86717   3.367  20.299   4.754
18324W        W86718   8.175  21.498   1.237
18325W        W86719  29.082  44.741   1.664
18326W        W86720   9.453  12.777  12.020
18327W        W86721  37.906  18.758   4.545
18328W        W86722  24.530  10.041   1.002
18329W        W86723  21.894   5.765   1.163
18330W        W86724  13.024   2.400   1.405
18331W        W86725  43.449   2.963   0.887
18332W        W86726  28.009  27.660   2.362
18333W        W86727  15.518   5.184   4.507
18334W        W86728  13.940  23.214   4.893
18335W        W86729   5.946   7.002   9.753
18336W        W86730   6.338  27.829   3.945
18337W        W86731   3.559  35.384   1.899
18338W        W86732  15.005  27.912   1.331
18339W        W86733  35.048  12.761   3.017
18340W        W86734  20.846   9.463   1.803
18341W        W86735  26.433  33.330  13.438
18342W        W86736  10.102  21.679  10.629
18343W        W86737  38.867  14.593  11.903
18344W        W86738  15.274  42.094  11.163
18345W        W86739   3.827  20.748  12.900
18346W        W86740  44.036   9.254   0.334
18347W        W86741   7.272  16.988  13.921
18348W        W86742   2.763  41.221   4.741
18349W        W86743  10.214  26.103   2.288
18350W        W86744  28.886   6.345  10.668
18351W        W86745  24.129   2.073   0.874
18352W        W86746  28.950  35.040  12.630
18353W        W86747  31.181  18.939  12.505
18354W        W86748  31.487  35.331  10.736
18355W        W86749  29.694  15.339  11.991
18356W        W86750  31.401  30.394   2.848
18357W        W86751   8.617  34.561  14.848
18358W        W86752   0.698  28.638   1.957
18359W        W86753  12.564  10.571  11.465
18360W        W86754  14.881   7.752   0.231
18361W        W86755  13.430  33.230   1.680
18362W        W86756  33.649  40.864   3.471
18363W        W86757  31.687  18.788  12.492
18364W        W86758  30.398  19.330   3.405
18365W        W86759   6.421  43.870   5.034
18366W        W86760  43.350   8.211  14.324
18367W        W86761  13.227  12.434  13.983
18368W        W86762   3.881  31.677   2.893
18369W        W86763  38.757   2.783   4.598
18370W        W86764  41.179  37.265   0.336
18371W        W86765  14.362  34.027   4.663
18372W        W86766  39.620  23.547   1.364
18373W        W86767  12.163   0.992  10.692
18374W        W86768  13.302  16.062  13.995
18375W        W86769  33.387  38.781   0.945
18376W        W86770   4.829  19.326   4.088
18377W        W86771  11.644  22.704   1.761
18378W        W86772   1.845  20.093   3.659
18379W        W86773  29.439  32.886  14.545
18380W        W86774  24.435  22.728   3.324
18381W        W86775   6.270  39.823  12.561
18382W        W86776  43.980  20.015   1.646
18383W        W86777  32.401  20.157  14.078
18384W        W86778  44.878   1.219  14.426
18385W        W86779  17.606  23.943  13.009
18386W        W86780  33.323  13.051  13.485
18387W        W86781  21.303  19.332  14.084
18388W        W86782   4.230  16.655   3.278
18389W        W86783   6.290   2.586   5.366
18390W        W86784  43.274  11.269   1.353
18391W        W86785  17.714  23.628  13.395
18392W        W86786  18.564   9.813  11.225
18393W        W86787  30.341   3.548   4.229
18394W        W86788  23.048  22.518  14.788
18395W        W86789   9.637   0.402  14.965
18396W        W86790  35.616   0.179  11.158
18397W        W86791  10.111  39.864  13.193
18398W        W86792  22.563  38.885  12.064
18399W        W86793   3.804  22.975  13.659
18400W        W86794  14.120  43.011   1.526
18401W        W86795  24.359  18.991  11.208
18402W        W86796  41.532   9.658   1.776
18403W        W86797  35.911  32.613  10.741
18404W        W86798  40.404  18.162  13.919
18405W        W86799   4.435  34.858   0.322
18406W        W86800  22.046   2.851   2.810
18407W        W86801  10.814  31.575   0.219
18408W        W86802   4.361  41.325   3.344
18409W        W86803   5.729  43.509   2.790
18410W        W86804  22.670  21.388   1.030
18411W        W86805  28.310  36.020  13.461
18412W        W86806  27.191  37.266  10.246
18413W        W86807  10.730  40.066   1.663
18414W        W86808  44.421  14.642  10.903
18415W        W86809   4.743  15.783  13.520
18416W        W86810  38.385  22.733   4.631
18417W        W86811  31.075  15.719   3.162
18418W        W86812  29.572  37.053   4.419
18419W        W86813  44.319  33.801   3.108
18420W        W86814  27.441  17.319   2.385
18421W        W86815  28.965  19.752  13.449
18422W        W86816  17.671  41.219  10.888
18423W        W86817  12.771   4.836  11.198
18424W        W86818  28.426  33.085   2.259
18425W        W86819  41.840   4.261  11.214
18426W        W86820   1.332  33.540  10.746
18427W        W86821  25.474  22.265  12.820
18428W        W86822  12.776  11.410   4.825
18429W        W86823   6.965  31.681   3.636
18430W        W86824  10.124  15.779   4.728
18431W        W86825  23.092  11.703   0.421
18432W        W86826  23.937  42.874  14.687
18433W        W86827  38.892  38.967  11.241
18434W        W86828  23.524  12.588   0.859
18435W        W86829   6.735  18.178  11.491
18436W        W86830  40.867  13.711  10.918
18437W        W86831  26.560  41.521   3.284
18438W        W86832  17.145  25.391   2.409
18439W        W86833  36.124  43.102  13.468
18440W        W86834  33.319  44.856  11.218
18441W        W86835  34.308  37.902  11.952
18442W        W86836  21.233  13.100   2.660
18443W        W86837  32.591   4.897   2.259
18444W        W86838   0.263  17.248  11.650
18445W        W86839  35.308  26.029   1.336
18446W        W86840  32.513  30.564   1.258
18447W        W86841  13.326  28.726  11.508
18448W        W86842   3.489   6.374   4.115
18449W        W86843  25.655  25.655  11.152
18450W        W86844  35.213   8.241   4.891
18451W        W86845  37.674  39.300   0.518
18452W        W86846   1.311  28.893   2.960
18453W        W86847  25.993  18.408   2.246
18454W        W86848  25.428   1.437  13.032
18455W        W86849  14.637  20.252   3.617
18456W        W86850  17.660  35.031  11.744
18457W        W86851  44.263  41.887  13.475
18458W        W86852  14.242  37.812   4.118
18459W        W86853  43.113  14.786  10.671
18460W        W86854  37.458  38.358   2.441
18461W        W86855  17.597  40.655   1.506
18462W        W86856  33.833   6.033  13.144
18463W        W86857  19.686   0.706  12.381
18464W        W86858  40.715  31.463   4.072
18465W        W86859  12.833  20.602  13.040
18466W        W86860  14.303   0.403  10.769
18467W        W86861  34.372   4.739  12.957
18468W        W86862  29.117  25.222   0.025
18469W        W86863  29.848  35.542  14.453
18470W        W86864  19.633  14.108   3.504
18471W        W86865  43.996  35.965   2.756
18472W        W86866  12.314  40.949  13.790
18473W        W86867  32.992   6.492  10.551
18474W        W86868  21.562  43.345   4.053
18475W        W86869  19.257  39.608  10.386
18476W        W86870  33.072  32.627   4.902
18477W        W86871   7.810   3.778   0.975
18478W        W86872  36.275   7.783  11.214
18479W        W86873  10.240  29.175   1.240
18480W        W86874  13.579  18.587  14.600
18481W        W86875  32.776   3.838  10.853
18482W        W86876  18.301  21.246  11.977
18483W        W86877  23.584   1.542   3.634
18484W        W86878  38.640  27.519  14.101
18485W        W86879  16.817   6.155   4.368
18486W        W86880  13.124  13.695   2.035
18487W        W86881  13.902  19.232  14.496
18488W        W86882  15.774  28.568   4.058
18489W        W86883  35.462   9.434   1.229
18490W        W86884   4.421  22.972   1.482
18491W        W86885  36.430  15.448  11.082
18492W        W86886  32.898   9.471   1.340
18493W        W86887  26.180  31.090  14.694
18494W        W86888  15.392  42.250  14.295
18495W        W86889   7.153  36.663  13.098
18496W        W86890   6.804   6.782  13.365
18497W        W86891   8.794  12.148   2.647
18498W        W86892  14.774  35.876  11.669
18499W        W86893  10.706  43.333  12.336
18500W        W86894  38.526  13.778   1.324
18501W        W86895  24.708  30.954   1.583
18502W        W86896  42.528  24.117  12.111
18503W        W86897  13.646  16.790   2.332
18504W        W86898  24.466  40.916  13.556
18505W        W86899  44.971  29.693  12.253
18506W        W86900  15.655  28.966   3.142
18507W        W86901  18.668  35.145   0.403
18508W        W86902   5.675  21.038   1.700
18509W        W86903  10.929  22.491  14.490
18510W        W86904  39.569  28.247  11.509
18511W        W86905  25.063  36.986   1.742
18512W        W86906  34.578  11.137   2.162
18513W        W86907  20.660   0.018   3.185
18514W        W86908   6.125   4.097   4.080
18515W        W86909   8.441  19.127   1.228
18516W        W86910  18.592  30.515   1.855
18517W        W86911  30.075  35.074   2.843
18518W        W86912  10.353  41.957  14.485
18519W        W86913  16.256  14.205  13.211
18520W        W86914   7.796  16.263   4.605
18521W        W86915  44.862   9.826   2.635
18522W        W86916  23.450  20.664   0.198
18523W        W86917  27.221  21.128  10.681
18524W        W86918  29.000  20.714   3.339
18525W        W86919   0.461  22.306   4.725
18526W        W86920  43.384  33.748  11.641
18527W        W86921  28.733   1.205   3.163
18528W        W86922  32.736  31.446  11.632
18529W        W86923  44.561  17.636   0.499
18530W        W86924  23.769  42.872  13.054
18531W        W86925  36.238  28.466   4.209
18532W        W86926  41.953   8.929  12.131
18533W        W86927  20.984  26.683  13.178
18534W        W86928  20.012  37.287   1.853
18535W        W86929  21.064  14.529   1.046
18536W        W86930   6.711   7.995   4.488
18537W        W86931  44.499  17.587  11.462
18538W        W86932  15.058  25.520   2.285
18539W        W86933   3.855  30.455  12.065
18540W        W86934   1.476  35.884   2.676
18541W        W86935   1.574   5.284   3.173
18542W        W86936   2.730  31.639   4.372
18543W        W86937  30.509  13.016  12.769
18544W        W86938   0.616  34.209  13.703
18545W        W86939  18.685  17.993  14.403
18546W        W86940  16.840  40.389   3.082
18547W        W86941  23.448   6.489   3.779
18548W        W86942  30.328  33.099  13.008
18549W        W86943  43.417   2.477  12.054
18550W        W86944   5.133  37.525  12.539
18551W        W86945  19.301  14.152   3.897
18552W        W86946  38.089  32.061   0.834
18553W        W86947  23.568   3.701   1.930
18554W        W86948  31.919  38.719  13.239
18555W        W86949  36.502   5.023  10.584
18556W        W86950  34.435   0.158  12.079
18557W        W86951  43.296   5.194  10.398
18558W        W86952  26.660  30.822   0.799
18559W        W86953  37.320  18.458   3.178
18560W        W86954  42.802   4.845   3.260
18561W        W86955   6.930   8.205   0.304
18562W        W86956  33.632  27.977  10.081
18563W        W86957  43.963  42.592   4.192
18564W        W86958   8.287  41.993  12.576
18565W        W86959  35.159   1.144   0.960
18566W        W86960   6.285   2.036   4.181
18567W        W86961  12.403  19.828  12.501
18568W        W86962   2.980  35.495  11.522
18569W        W86963   3.896  36.263  10.787
18570W        W86964  18.571  16.707   2.331
18571W        W86965   9.148  38.161   4.338
18572W        W86966  36.501   7.261   2.791
18573W        W86967  36.794  19.037  13.140
18574W        W86968  34.044   1.326  10.702
18575W        W86969  20.465  18.262   0.518
18576W        W86970  33.422  22.736   0.423
18577W        W86971  18.148  13.252   3.420
18578W        W86972  33.132  19.427  12.089
18579W        W86973  42.927  25.947   1.896
18580W        W86974  23.290  23.756   3.134
18581W        W86975  13.656  31.138   0.809
18582W        W86976  38.118  32.465   2.216
18583W        W86977   4.495  24.628  14.942
18584W        W86978  32.761  27.319   1.383
18585W        W86979   1.591  39.929  14.045
18586W        W86980  17.668   6.958   4.846
18587W        W86981  21.200   8.841  10.992
18588W        W86982  25.620  35.606  11.083
18589W        W86983   7.319   8.387  14.485
18590W        W86984   5.017  11.596   4.966
18591W        W86985  32.800   3.909  13.371
18592W        W86986  22.392  27.558  13.689
18593W        W86987  44.293  25.262  11.986
18594W        W86988  14.746  12.125  13.803
18595W        W86989  10.683  23.027  12.970
18596W        W86990  18.094  29.937   2.334
18597W        W86991   9.858  31.818  11.191
18598W        W86992  17.047  24.651  14.734
18599W        W86993  20.170  12.256   2.324
18600W        W86994  11.404   8.007  11.992
18601W        W86995  44.990  15.803   3.126
18602W        W86996  23.745  13.400  13.397
18603W        W86997  26.175  16.250   0.708
18604W        W86998   5.387  22.939  12.564
18605W        W86999   2.062  26.951  13.897
18606W        W87000   0.967  21.681   2.286
18607W        W87001  43.419  26.775   0.705
18608W        W87002  43.031  40.390   2.878
18609W        W87003  30.318  18.277   3.019
18610W        W87004   1.862   1.397  13.875
18611W        W87005   9.394  30.162  10.568
18612W        W87006  22.321  25.216  11.100
18613W        W87007  14.300  14.854   0.812
18614W        W87008  13.184  39.861  10.637
18615W        W87009  21.617  15.877  14.879
18616W        W87010  12.812  20.253  10.655
18617W        W87011   9.157  32.375   2.285
18618W        W87012  39.449   7.243   0.441
18619W        W87013   1.357  21.429  13.944
18620W        W87014  26.075  39.350  13.627
18621W        W87015   8.336  30.926  10.759
18622W        W87016  21.796   3.463  14.038
18623W        W87017  39.643  42.992  13.818
18624W        W87018   9.365  31.143   1.715
18625W        W87019  39.561  21.458   1.271
18626W        W87020   3.285  18.321   1.872
18627W        W87021  13.630  32.028  11.559
18628W        W87022  10.036  19.630  14.018
18629W        W87023  17.926  37.289   1.401
18630W        W87024  31.098  23.102   0.304
18631W        W87025  36.473   1.818  14.010
18632W        W87026   8.542  37.588   0.706
18633W        W87027  32.710  19.382   3.660
18634W        W87028   5.189  41.247  14.940
18635W        W87029  19.493  18.763   0.332
18636W        W87030   5.249  28.671   3.311
18637W        W87031   7.681  28.889   4.763
18638W        W87032   5.274  23.255   1.243
18639W        W87033  10.114  38.832  12.581
18640W        W87034  15.960  29.047   4.099
18641W        W87035  14.688  44.530   3.238
18642W        W87036  36.025  32.602  12.874
18643W        W87037  29.046  41.103   1.301
18644W        W87038  39.370   5.240  14.466
18645W        W87039  26.050  16.834   2.827
18646W        W87040  32.305  29.214  14.739
18647W        W87041  37.613   2.356  13.624
18648W        W87042  10.174  29.459   3.525
18649W        W87043  16.175   3.261  13.450
18650W        W87044   9.566  21.176   4.610
18651W        W87045   5.602  19.171  12.434
18652W        W87046  20.033   7.227   0.787
18653W        W87047  38.574  40.530  13.816
18654W        W87048  32.489   3.214   4.340
18655W        W87049  20.959  15.590   4.984
18656W        W87050   6.178  10.066   0.403
18657W        W87051  39.782  13.714   4.572
18658W        W87052  35.684  44.417  13.919
18659W        W87053  34.007  13.813  10.546
18660W        W87054  44.996  30.743   2.423
18661W        W87055  39.492  40.806   0.939
18662W        W87056  23.474  41.282  12.052
18663W        W87057  18.066   3.344   4.556
18664W        W87058  19.549   5.722   3.738
18665W        W87059   2.923  11.450   1.353
18666W        W87060   3.974  41.304  13.408
18667W        W87061  41.963   6.748  11.697
18668W        W87062  37.397  14.223   1.735
18669W        W87063  12.615  41.997   4.681
18670W        W87064   7.336   7.102   2.276
18671W        W87065  38.300  13.442   4.080
18672W        W87066  31.015   3.278  10.213
18673W        W87067  25.140   9.544  11.535
18674W        W87068   9.770   5.313   3.843
18675W        W87069   1.792  18.153  14.487
18676W        W87070  44.499  19.781  12.930
18677W        W87071  13.685  41.035   2.229
18678W        W87072  19.975  13.037   1.945
18679W        W87073   5.274  17.078  12.306
18680W        W87074  10.516   1.436   0.476
18681W        W87075   7.281  14.347   4.666
18682W        W87076  38.348  26.027  13.433
18683W        W87077  30.455  24.521  10.745
18684W        W87078  24.247  39.953  11.902
18685W        W87079   1.476  10.703   3.833
18686W        W87080   4.222   5.271  11.649
18687W        W87081  18.565  31.369  13.526
18688W        W87082  37.383  17.115  10.393
18689W        W87083  37.014  36.918  12.620
18690W        W87084  36.694  10.930   1.973
18691W        W87085  29.834   7.984   3.126
18692W        W87086  12.003  34.023   3.732
18693W        W87087  22.052  32.349   3.816
18694W        W87088   1.738  23.785  11.191
18695W        W87089  40.266  33.068  12.818
18696W        W87090  11.724  44.954   3.677
18697W        W87091   7.858  25.144   2.663
18698W        W87092   5.680  42.423   2.213
18699W        W87093  32.977   2.004  13.918
18700W        W87094  18.684  16.381  13.490
18701W        W87095  29.636  12.178   1.155
18702W        W87096  40.550  44.334  10.415
18703W        W87097   7.118   5.399   0.594
18704W        W87098  27.396  13.774   3.250
18705W        W87099  42.148  28.661  11.600
18706W        W87100  12.844  14.683   0.922
18707W        W87101  36.091  27.471   3.670
18708W        W87102  15.070  12.616  10.638
18709W        W87103  31.428  26.004   0.662
18710W        W87104  22.663  14.081   3.581
18711W        W87105  12.915  25.068  12.982
18712W        W87106  27.981  22.170   3.802
18713W        W87107  12.748  10.912  12.529
18714W        W87108  17.103   6.815   3.160
18715W        W87109  12.598  38.939  11.552
18716W        W87110  18.234  43.758   2.825
18717W        W87111  10.358  38.480  10.420
18718W        W87112   2.846  33.943  10.749
18719W        W87113   6.502  17.250  12.947
18720W        W87114  41.530   7.175   3.425
18721W        W87115   8.046  42.310  11.549
18722W        W87116  13.668  36.387  11.979
18723W        W87117   7.431  35.133   3.262
18724W        W87118  28.582  33.344   1.814
18725W        W87119  26.151  15.181   4.556
18726W        W87120  26.207  35.024   4.300
18727W        W87121  33.443  18.787  11.572
18728W        W87122   7.507  13.719  11.516
18729W        W87123  31.444  21.257  14.791
18730W        W87124  13.882  22.559  14.909
18731W        W87125  42.383  21.086   0.247
18732W        W87126   6.017  44.937  12.122
18733W        W87127  37.007   5.576  11.149
18734W        W87128   3.240  24.519   0.438
18735W        W87129  10.771  26.607   2.459
18736W        W87130  37.184  44.997  13.557
18737W        W87131   6.740  30.693  13.846
18738W        W87132   9.323  19.511  13.510
18739W        W87133   8.860  41.104  12.797
18740W        W87134  13.123   9.127  12.987
18741W        W87135  39.163  37.232  13.361
18742W        W87136  18.426  37.058   0.257
18743W        W87137  44.331  35.117   4.666
18744W        W87138  19.184  44.792  11.970
18745W        W87139   6.939  15.960  11.466
18746W        W87140   5.661   0.666   3.528
18747W        W87141  26.151  19.834   0.822
18748W        W87142   1.240  20.765  11.163
18749W        W87143  31.220   1.331   0.861
18750W        W87144  15.760  11.600  11.575
18751W        W87145   1.476  18.557  14.863
18752W        W87146  36.136  26.154   4.890
18753W        W87147  40.183  42.963  13.817
18754W        W87148   8.909   8.672   4.578
18755W        W87149  35.552  40.114   2.416
18756W        W87150  23.043  20.675  11.507
18757W        W87151  10.203  41.508  12.031
18758W        W87152  36.964  11.305  11.074
18759W        W87153  18.330   7.337  13.357
18760W        W87154  42.402  13.069  14.938
18761W        W87155  39.312  31.970   1.973
18762W        W87156   5.582   7.243  13.163
18763W        W87157   3.017  17.956   3.695
18764W        W87158  10.870  18.815  12.385
18765W        W87159   7.285  35.951   0.518
18766W        W87160  44.430  16.807   3.354
18767W        W87161  11.911  15.973  12.858
18768W        W87162  38.014  23.427  13.416
18769W        W87163  42.747  35.725   5.009
18770W        W87164   2.891   3.759   4.310
18771W        W87165  15.103  40.839   2.326
18772W        W87166  21.157  22.719   9.812
18773W        W87167   6.792  23.257  11.510
18774W        W87168  25.725  12.518  13.906
18775W        W87169   5.577   7.569  12.637
18776W        W87170  26.135  40.370  10.837
18777W        W87171  43.063   0.890   2.488
18778W        W87172  22.225  42.659  14.824
18779W        W87173  29.993  10.437   2.340
18780W        W87174   0.323  24.730   4.153
18781W        W87175   7.070  32.547  12.347
18782W        W87176  31.401  26.581  14.433
18783W        W87177  28.497  11.321   4.677
18784W        W87178  15.371  13.358   3.246
18785W        W87179   1.787   3.505  14.004
18786W        W87180  30.753  29.926  12.398
18787W        W87181  35.085  18.823  11.158
18788W        W87182   1.350  29.919   1.862
18789W        W87183  18.808  39.834  10.608
18790W        W87184  35.921   8.823  10.643
18791W        W87185  28.525  31.914  12.519
18792W        W87186  26.180  29.053  14.015
18793W        W87187  18.234  37.415   1.011
18794W        W87188   7.179  33.000   3.594
18795W        W87189  18.360  39.266  13.401
18796W        W87190   9.600   9.852   0.330
18797W        W87191  22.712   8.445  14.849
18798W        W87192   0.854  28.111  11.615
18799W        W87193  32.511  19.103   4.038
18800W        W87194   3.319  31.783  11.157
18801W        W87195  38.642  37.004  10.727
18802W        W87196  35.741  28.130   4.811
18803W        W87197  33.953  43.346  11.566
18804W        W87198  34.380  33.190  12.834
18805W        W87199  25.903   4.304  10.539
18806W        W87200   5.179  21.145  10.220
18807W        W87201  34.337   9.154   4.321
18808W        W87202   4.939  33.645  10.761
18809W        W87203  27.563  34.170  11.437
18810W        W87204  44.752  25.497  12.902
18811W        W87205  10.305  26.477  13.977
18812W        W87206  43.226  32.427   3.983
18813W        W87207   1.431  18.382   2.901
18814W        W87208  41.134   5.626  12.600
18815W        W87209   8.431   9.702  13.027
18816W        W87210  30.813  13.878   0.017
18817W        W87211   4.372  10.758   4.766
18818W        W87212  22.616   0.484   4.156
18819W        W87213  15.220  15.716  11.073
18820W        W87214  32.645  15.720   0.960
18821W        W87215  29.876   3.949  11.284
18822W        W87216  11.425   4.395  13.426
18823W        W87217   2.225   2.958  12.867
18824W        W87218  35.834   7.725   1.416
18825W        W87219  14.310  20.498  13.145
18826W        W87220  35.035  41.214  12.886
18827W        W87221  10.252   7.365   2.206
18828W        W87222  34.117   5.511   0.506
18829W        W87223   3.107  10.310   1.248
18830W        W87224  15.338  19.601  12.743
18831W        W87225  15.036  15.795  14.479
18832W        W87226  21.258  36.868  12.997
18833W        W87227  19.320  36.784  13.031
18834W        W87228  26.587  31.504  10.617
18835W        W87229  16.545  30.963   2.269
18836W        W87230   0.475  26.749   4.142
18837W        W87231  15.715   4.863   4.914
18838W        W87232  27.387  25.427   0.215
18839W        W87233  36.822   1.717  13.160
18840W        W87234  22.665  37.268  11.026
18841W        W87235  43.334  31.896   4.690
18842W        W87236  35.368   3.348   1.261
18843W        W87237  25.156  35.766   2.316
18844W        W87238  41.982  40.740  11.228
18845W        W87239  23.002   7.280   4.120
18846W        W87240   2.183  44.721  13.963
18847W        W87241  19.229  34.138  13.461
18848W        W87242  30.484   2.164   2.296
18849W        W87243  18.191  25.926  13.564
18850W        W87244  12.559  34.591   0.966
18851W        W87245  24.908  22.834  12.446
18852W        W87246  33.873   6.482   1.760
18853W        W87247  25.507   7.770  14.764
18854W        W87248  37.704  11.344   1.225
18855W        W87249  32.193  35.525   0.777
18856W        W87250  11.738  40.487  10.644
18857W        W87251  31.086  36.753   4.089
18858W        W87252  37.601   4.897   1.407
18859W        W87253   1.232  37.009   0.774
18860W        W87254  22.064  12.467   1.256
18861W        W87255  27.723  33.455   1.436
18862W        W87256  38.558  29.458  12.524
18863W        W87257   4.679  18.655   0.759
18864W        W87258  35.593  25.606  14.739
18865W        W87259  39.192  34.773   5.008
18866W        W87260  43.813  38.639   5.215
18867W        W87261  32.447  43.999   1.715
18868W        W87262  12.203  44.782   3.459
18869W        W87263  19.626  28.856  11.187
18870W        W87264  18.200  39.898  10.988
18871W        W87265  41.978   9.468   5.135
18872W        W87266  42.178  32.005   3.247
18873W        W87267   1.090  19.252   3.919
18874W        W87268  14.166  17.260   3.657
18875W        W87269  25.206  37.474  10.558
18876W        W87270  22.008  44.137   4.175
18877W        W87271  10.674  12.671  13.862
18878W        W87272  11.831  39.164  10.213
18879W        W87273  29.171  27.251   0.931
18880W        W87274  43.401  38.921   5.507
18881W        W87275   0.959  12.807  11.848
18882W        W87276  44.585  30.223   3.203
18883W        W87277  20.010   3.385   0.711
18884W        W87278   5.297  44.953   0.427
18885W        W87279  23.567  30.919   1.465
18886W        W87280  33.424  27.206  14.154
18887W        W87281  39.109  20.609  11.556
18888W        W87282  23.481  15.707   4.013
18889W        W87283  35.018   6.720   1.973
18890W        W87284  11.929  22.035   2.893
18891W        W87285  11.950  19.572   0.395
18892W        W87286  19.252   7.114   2.690
18893W        W87287  37.543  36.325  12.031
18894W        W87288  35.983  19.326  11.161
18895W        W87289  28.382  28.466  11.933
18896W        W87290  17.802  41.804  12.902
18897W        W87291  21.162  31.915   0.820
18898W        W87292  12.178   4.716  14.585
18899W        W87293  29.668  15.666   2.895
18900W        W87294   3.371  38.604   2.780
18901W        W87295  26.039  30.385   1.400
18902W        W87296  29.033   6.911  13.606
18903W        W87297  32.887  26.115  12.586
18904W        W87298   4.842  12.411  14.708
18905W        W87299  32.027   0.758  11.893
18906W        W87300  15.569  12.601  10.774
18907W        W87301  26.605  24.589  14.571
18908W        W87302  42.525  11.370   2.800
18909W        W87303  14.881  26.200  12.004
18910W        W87304  30.080  22.156   3.976
18911W        W87305  44.573  14.106  13.267
18912W        W87306  19.267  38.370   0.304
18913W        W87307  14.301  36.795   4.180
18914W        W87308  26.105   8.274  14.312
18915W        W87309  32.198  12.779   0.799
18916W        W87310  28.118   0.356   2.256
18917W        W87311  11.204  42.578   2.199
18918W        W87312  30.551  34.561   0.670
18919W        W87313   0.526  34.558  13.302
18920W        W87314  31.049  20.436   2.797
18921W        W87315  44.260  43.863   0.376
18922W        W87316  28.982  17.152  11.174
18923W        W87317  10.708   9.594  14.119
18924W        W87318   8.182  21.583   2.196
18925W        W87319  37.354  19.748  12.877
18926W        W87320  21.976   5.206  12.939
18927W        W87321  39.276  27.049  13.362
18928W        W87322  12.311  34.189  14.306
18929W        W87323   5.185   0.935   0.403
18930W        W87324  17.209  34.808   1.845
18931W        W87325  36.043  22.237   1.673
18932W        W87326  19.369  27.800  13.819
18933W        W87327  43.830  29.936   3.245
18934W        W87328  17.636  40.920  12.240
18935W        W87329  39.018  34.001  12.576
18936W        W87330  21.610  29.382  11.085
18937W        W87331  34.897   9.340  13.341
18938W        W87332  18.510  38.348   2.679
18939W        W87333  35.878   6.048   2.751
18940W        W87334  19.500  37.139   0.837
18941W        W87335   0.355  33.472   3.249
18942W        W87336   6.323  40.021  13.561
18943W        W87337  33.560  31.153  12.664
18944W        W87338  18.606   5.436  13.553
18945W        W87339  26.131  36.873   0.689
18946W        W87340   6.527  27.548   5.126
18947W        W87341  21.411  30.964  13.966
18948W        W87342  27.473  30.215   4.784
18949W        W87343   1.304   9.802   4.421
18950W        W87344   0.905   6.757   2.414
18951W        W87345  33.422  37.369  13.734
18952W        W87346  20.875  20.957  10.510
18953W        W87347   7.794  15.114   3.021
18954W        W87348   7.995   1.858   3.898
18955W        W87349   4.147  19.636   2.360
18956W        W87350  31.990  18.378  12.307
18957W        W87351  16.421   7.455   1.890
18958W        W87352  42.931  41.599   4.667
18959W        W87353  18.670  27.693   2.264
18960W        W87354   3.178  41.450   1.893
18961W        W87355   8.724  11.196  13.918
18962W        W87356   8.134  11.660   2.683
18963W        W87357   8.822  42.356  11.204
18964W        W87358  24.971  10.936  11.697
18965W        W87359  30.949  44.371   4.110
18966W        W87360   4.693  10.596  10.569
18967W        W87361  34.223  34.329   3.860
18968W        W87362   0.368   7.717  12.291
18969W        W87363  30.227   6.236  11.440
18970W        W87364   1.266  35.764   2.185
18971W        W87365  15.729   6.336   1.852
18972W        W87366  23.739  37.390  11.627
18973W        W87367  12.172  29.888   3.226
18974W        W87368  19.576   7.276   1.619
18975W        W87369  32.906  10.242   0.020
18976W        W87370  21.418  16.492  10.500
18977W        W87371  32.341  28.236   2.757
18978W        W87372  16.836  12.875  14.841
18979W        W87373   9.231  15.336  11.861
18980W        W87374  10.125  18.599  12.532
18981W        W87375  29.198  34.715  13.901
18982W        W87376  11.671  28.977  10.095
18983W        W87377  31.032  40.860  10.696
18984W        W87378  28.826   2.716  11.857
18985W        W87379  39.179  38.820  11.640
18986W        W87380  10.483  13.470   3.263
18987W        W87381  10.301  26.699  10.750
18988W        W87382   5.520  25.330   2.207
18989W        W87383  33.572   2.196  11.113
18990W        W87384  38.550   5.122  13.464
18991W        W87385  11.327   6.702  13.481
18992W        W87386  42.928  31.845  11.628
18993W        W87387   3.786  18.272  13.128
18994W        W87388  30.635  10.559   4.268
18995W        W87389  20.715  11.256   4.748
18996W        W87390  42.800  16.729   4.204
18997W        W87391  17.652  41.091   1.814
18998W        W87392  34.522  20.207   1.297
18999W        W87393  19.042  24.738  12.959
19000W        W87394  17.702  36.813  13.387
19001W        W87395  37.928  10.674   1.223
19002W        W87396   7.756   6.703  10.456
19003W        W87397  12.761   4.666  14.482
19004W        W87398  14.783  12.925  11.963
19005W        W87399   4.204  16.224  12.914
19006W        W87400   3.927   9.845  13.984
19007W        W87401   8.597  40.527  11.105
19008W        W87402  19.742   6.666  11.536
19009W        W87403  39.133  40.361  12.308
19010W        W87404  33.854  29.569  14.452
19011W        W87405   9.796  41.104  13.340
19012W        W87406  24.566  37.589   0.494
19013W        W87407  38.800  33.518   4.168
19014W        W87408  32.132   5.772   3.275
19015W        W87409  35.481  22.623  12.065
19016W        W87410  20.573   4.755   4.795
19017W        W87411  21.182  16.235  10.984
19018W        W87412  32.558  34.422  10.474
19019W        W87413  35.020  32.109  11.418
19020W        W87414   6.937  25.914  12.029
19021W        W87415  14.345  44.211  13.916
19022W        W87416  39.549  10.528  10.229
19023W        W87417  13.899  12.073  11.888
19024W        W87418  23.596  33.865   2.228
19025W        W87419   6.165  29.142   1.010
19026W        W87420   7.577   8.363  13.086
19027W        W87421  17.360  22.298  12.580
19028W        W87422  31.882  20.484   4.107
19029W        W87423  27.086  10.662   2.711
19030W        W87424  29.106   5.979   0.184
19031W        W87425   4.492  34.570   1.333
19032W        W87426  14.534  35.064   4.689
19033W        W87427   3.538   9.086  14.411
19034W        W87428  10.208   9.431   0.991
19035W        W87429  19.062  33.924  12.009
19036W        W87430  33.859  13.129  13.490
19037W        W87431  28.795  29.735  13.900
19038W        W87432  22.099   8.320  13.976
19039W        W87433  10.893  24.420   1.983
19040W        W87434  26.613  36.010   3.052
19041W        W87435  42.474  32.088  12.988
19042W        W87436  22.123  39.847   3.102
19043W        W87437  13.155  33.667  13.484
19044W        W87438  16.832  21.028   4.192
19045W        W87439   7.912  16.886   0.611
19046W        W87440  38.049  30.553   3.621
19047W        W87441  41.541   4.301   2.329
19048W        W87442  19.233  39.151   0.658
19049W        W87443  38.186  11.142   0.376
19050W        W87444  35.971  19.451  14.860
19051W        W87445  20.207  43.014   1.532
19052W        W87446   3.540   1.327  13.916
19053W        W87447   7.854  33.146  13.589
19054W        W87448  43.716  39.560   2.164
19055W        W87449  29.257   1.439  11.543
19056W        W87450  35.551  22.586  14.268
19057W        W87451   8.235  29.513  11.953
19058W        W87452  13.828   3.032  10.620
19059W        W87453  11.113  17.164  12.094
19060W        W87454  38.133  41.048   1.107
19061W        W87455   4.162  34.642  13.272
19062W        W87456  32.684  10.883   2.957
19063W        W87457  29.022  22.682  11.850
19064W        W87458  31.673  20.816  12.606
19065W        W87459  43.504  22.878   1.293
19066W        W87460  36.367  29.878  11.587
19067W        W87461  11.126  13.732   0.251
19068W        W87462   3.771  27.614   3.164
19069W        W87463   7.463  26.165   4.372
19070W        W87464  43.213  36.481  13.073
19071W        W87465   6.012   9.808   4.158
19072W        W87466  32.315  22.904   1.917
19073W        W87467   6.524   6.553   0.176
19074W        W87468  33.083   5.963   1.401
19075W        W87469  23.519  39.885  12.600
19076W        W87470  11.399  28.566   4.407
19077W        W87471  20.812  33.370   3.109
19078W        W87472  32.569  30.307  12.084
19079W        W87473  30.655   2.904  14.797
19080W        W87474  13.977  12.245  11.058
19081W        W87475  32.026  30.907   3.224
19082W        W87476  13.098   7.414  11.867
19083W        W87477  13.704  21.442   4.501
19084W        W87478   2.986  29.637   0.436
19085W        W87479  20.740  37.648  11.863
19086W        W87480  36.307  32.142  12.530
19087W        W87481  16.857  10.784   0.728
19088W        W87482  15.322  27.075  11.104
19089W        W87483  43.243  39.172  10.229
19090W        W87484   2.323  44.718   1.222
19091W        W87485  21.724  38.059  14.304
19092W        W87486   6.484  17.836   4.879
19093W        W87487   9.251  27.659   1.927
19094W        W87488  16.502  33.999   4.172
19095W        W87489  43.092  18.642   0.065
19096W        W87490  24.070  38.870  11.871
19097W        W87491  24.156   6.339   4.474
19098W        W87492   5.701  13.105  12.947
19099W        W87493  40.358  40.150  14.294
19100W        W87494  20.312  17.731   2.723
19101W        W87495  44.592  13.775  12.081
19102W        W87496   7.367  25.189   2.900
19103W        W87497  26.264  29.636  11.562
19104W        W87498  24.023  15.359  11.880
19105W        W87499  35.020  18.265   2.962
19106W        W87500  11.944  38.453  14.420
19107W        W87501  14.098  12.428  11.559
19108W        W87502  24.178  13.227   0.413
19109W        W87503   3.268  20.237  11.430
19110W        W87504  20.554   7.720   2.274
19111W        W87505  42.861  35.216  10.218
19112W        W87506  39.002  24.113  13.161
19113W        W87507  27.957  41.405  10.710
19114W        W87508  17.792  36.016   2.257
19115W        W87509  41.287  33.215  12.613
19116W        W87510  39.809  24.314  14.624
19117W        W87511  17.311   9.879  13.470
19118W        W87512   0.183  24.628   2.227
19119W        W87513  35.866  41.701   0.901
19120W        W87514  35.380  42.658  12.663
19121W        W87515  21.974  43.699  10.961
19122W        W87516  31.244   8.233   0.376
19123W        W87517  13.003   8.799   2.326
19124W        W87518  39.348  44.748   2.442
19125W        W87519  40.367  41.919  13.853
19126W        W87520   7.212  23.838  12.666
19127W        W87521  11.192  10.323  10.359
19128W        W87522   4.679  26.953   0.972
19129W        W87523  14.704  19.199   4.167
19130W        W87524  37.996   8.263  11.607
19131W        W87525  11.699  17.748   3.862
19132W        W87526  13.395  36.435  11.075
19133W        W87527  14.828  21.493   4.601
19134W        W87528   7.727  11.297   3.823
19135W        W87529  34.954   4.674  11.597
19136W        W87530  27.459  16.054  13.184
19137W        W87531  41.830   5.776   3.226
19138W        W87532  21.141  10.708  10.808
19139W        W87533  23.763  41.347  14.986
19140W        W87534  43.544  40.297  11.044
19141W        W87535  27.637   2.777   3.240
19142W        W87536  40.064  38.020   2.238
19143W        W87537  42.254  13.819  11.687
19144W        W87538  11.536  38.772   3.744
19145W        W87539   7.701  22.297  10.250
19146W        W87540   5.518  19.161  14.334
19147W        W87541  37.056  19.280   0.394
19148W        W87542  13.795  36.841   1.838
19149W        W87543  16.345  22.654   1.401
19150W        W87544  24.140   3.164   5.100
19151W        W87545  13.874  26.783   0.888
19152W        W87546  28.361  33.335  12.345
19153W        W87547  21.174  28.116   5.077
19154W        W87548  29.739  38.971   4.661
19155W        W87549   3.801  42.727  11.243
19156W        W87550  35.625  37.369   2.289
19157W        W87551  42.959  15.116  14.371
19158W        W87552   0.034  37.124   3.560
19159W        W87553  39.268   8.925  10.748
19160W        W87554  12.697  44.550  14.559
19161W        W87555  24.503  15.854  14.854
19162W        W87556  37.340  12.791   0.054
19163W        W87557  34.052  19.306   4.171
19164W        W87558   2.821   6.581  10.568
19165W        W87559  13.554   1.842   0.813
19166W        W87560  25.884  22.158  11.894
19167W        W87561   3.976  12.139   2.107
19168W        W87562  24.717  13.247  10.830
19169W        W87563  10.770  19.574  14.061
19170W        W87564  24.524  32.728   3.287
19171W        W87565  40.883  34.390  11.229
19172W        W87566  36.863  19.216   4.678
19173W        W87567  31.710  37.025   1.961
19174W        W87568   3.327  26.491   0.356
19175W        W87569  26.471  32.379  14.463
19176W        W87570  11.232   3.919  13.323
19177W        W87571   8.395  16.614  11.939
19178W        W87572  38.437  14.652  14.178
19179W        W87573  33.594  41.478   4.312
19180W        W87574  22.509  26.719   5.035
19181W        W87575  39.913   0.911   3.312
19182W        W87576  25.154  29.989  13.379
19183W        W87577  22.261   5.194  14.319
19184W        W87578  29.895  21.147  13.925
19185W        W87579   5.911  27.548  10.546
19186W        W87580  41.799  26.784  12.922
19187W        W87581   0.620  44.291  14.559
19188W        W87582  19.829  23.881  11.416
19189W        W87583  40.860  43.319  13.363
19190W        W87584  36.093  28.927  13.304
19191W        W87585  26.280   5.042   4.500
19192W        W87586   1.715  12.848  13.338
19193W        W87587  32.667   5.906   3.263
19194W        W87588  20.806   6.309  13.052
19195W        W87589  17.153  18.674   1.813
19196W        W87590   8.432  32.426   0.325
19197W        W87591  44.521  20.827  13.104
19198W        W87592  35.841  29.661   3.084
19199W        W87593  28.880   6.170   4.132
19200W        W87594  27.244  20.094  14.619
19201W        W87595  11.724   0.374  11.221
19202W        W87596   1.236  23.656   4.638
19203W        W87597  17.286   7.359   5.423
19204W        W87598  13.665  20.223  13.842
19205W        W87599  11.228  35.863  11.654
19206W        W87600  36.611  20.964  14.004
19207W        W87601  35.452  15.234  13.038
19208W        W87602  21.124  16.417   2.281
19209W        W87603  11.452  32.176   3.740
19210W        W87604  28.206  35.364   3.590
19211W        W87605  32.504   3.900  11.972
19212W        W87606  26.484  16.222   1.322
19213W        W87607  23.769  23.014  12.992
19214W        W87608   8.611  21.036   4.611
19215W        W87609   1.441  44.406  12.960
19216W        W87610  16.136  28.613  14.712
19217W        W87611  29.923   5.318   4.571
19218W        W87612   6.572   5.444   4.610
19219W        W87613   1.035  16.548   1.749
19220W        W87614  23.179  17.749   0.195
19221W        W87615  41.433  11.806   3.526
19222W        W87616  23.967   3.404   2.284
19223W        W87617  15.502  27.414   2.357
19224W        W87618  24.004  22.289  12.493
19225W        W87619  21.558  39.446  13.911
19226W        W87620  43.479  23.258  10.719
19227W        W87621  16.869  39.097   0.053
19228W        W87622  25.522  25.209   4.897
19229W        W87623  34.041  14.809   4.562
19230W        W87624   7.706   0.652  10.285
19231W        W87625  35.599   4.569   5.008
19232W        W87626  38.601  44.513   0.961
19233W        W87627   3.282   0.699   4.179
19234W        W87628  13.375  17.579   4.523
19235W        W87629  25.426  11.382   2.820
19236W        W87630  36.015  13.279  10.762
19237W        W87631  32.352  17.652   2.844
19238W        W87632  14.562  36.600  12.980
19239W        W87633  36.076  20.505   0.717
19240W        W87634  14.716  20.927  10.420
19241W        W87635  15.109  32.826   4.633
19242W        W87636  14.590  19.789  13.956
19243W        W87637  34.349   4.244   0.765
19244W        W87638  29.184  24.467  14.439
19245W        W87639   3.328  38.492   0.884
19246W        W87640  37.876  34.441   3.742
19247W        W87641  38.500   1.887  13.408
19248W        W87642   3.992  35.562  14.939
19249W        W87643   5.650  14.916  14.561
19250W        W87644  21.674  28.126  11.727
19251W        W87645  41.525  36.131   4.143
19252W        W87646  44.966  14.039  11.859
19253W        W87647  21.640   7.214   4.624
19254W        W87648  30.876  10.054   2.288
19255W        W87649   9.204  37.469   3.238
19256W        W87650  13.728  31.690  12.441
19257W        W87651  32.683   0.254   4.147
19258W        W87652  32.807   8.894  13.557
19259W        W87653  22.733   3.708  14.365
19260W        W87654   8.323  44.763  11.662
19261W        W87655  41.073   3.504  14.973
19262W        W87656  33.710  12.153  14.319
19263W        W87657  37.839  13.427  14.317
19264W        W87658  39.939  18.302   3.660
19265W        W87659  21.170   3.322   2.741
19266W        W87660  43.799  43.882  11.418
19267W        W87661  37.975   9.463  13.757
19268W        W87662  16.273  10.816  12.557
19269W        W87663  30.854  35.458  14.377
19270W        W87664  12.249   3.375  14.604
19271W        W87665  18.204  17.149   0.747
19272W        W87666  12.577   1.263   2.890
19273W        W87667  15.650  37.800   4.166
19274W        W87668   0.915  23.331  12.539
19275W        W87669  38.641  39.445   4.547
19276W        W87670   8.644  30.205   1.367
19277W        W87671   1.023  14.161   1.894
19278W        W87672  11.904  20.188   4.549
19279W        W87673  36.415  41.002   2.254
19280W        W87674  19.650  40.959   2.886
19281W        W87675  29.085  31.218  10.695
19282W        W87676  18.275  18.838   4.946
19283W        W87677  10.566  22.457  14.088
19284W        W87678  37.353  26.013   1.240
19285W        W87679  12.373   5.647  12.577
19286W        W87680  10.177  41.734   4.764
19287W        W87681   8.489  41.735  13.496
19288W        W87682  16.646  19.585   4.139
19289W        W87683  17.688  42.803   2.440
19290W        W87684  44.502  23.487   1.298
19291W        W87685  20.707  43.603  11.672
19292W        W87686   5.241  30.341  12.828
19293W        W87687  42.856   3.975   0.014
19294W        W87688  36.893  31.507   2.470
19295W        W87689   2.929  41.734   0.975
19296W        W87690   5.956   7.264   3.410
19297W        W87691  30.379  33.889  13.945
19298W        W87692   1.273  11.684   3.256
19299W        W87693  34.151  32.528  10.997
19300W        W87694  16.591  36.375   4.408
19301W        W87695  17.936  39.928   4.942
19302W        W87696  20.761   0.585  14.273
19303W        W87697  31.745  41.697   1.534
19304W        W87698  42.824  10.855   1.321
19305W        W87699   7.245  10.433   2.101
19306W        W87700  15.573  25.656  12.780
19307W        W87701  20.772  37.207   2.180
19308W        W87702   8.687  25.570  11.621
19309W        W87703  10.750  35.475  13.511
19310W        W87704  35.689   4.272   3.605
19311W        W87705  20.531  21.701   3.802
19312W        W87706  21.649  16.579   2.402
19313W        W87707   9.946  41.565   3.196
19314W        W87708  16.281  43.188  12.823
19315W        W87709   4.804  24.393   9.742
19316W        W87710  41.469  10.544   1.059
19317W        W87711  11.647  13.633   0.272
19318W        W87712  33.338  28.551   1.147
19319W        W87713  42.159  25.528   0.059
19320W        W87714  13.391  24.932  12.087
19321W        W87715  21.943   2.351   1.519
19322W        W87716   1.635  34.173  11.369
19323W        W87717  38.049  14.405   3.074
19324W        W87718   9.661   1.455   1.748
19325W        W87719  44.478  36.444  13.180
19326W        W87720  20.279  11.875   1.252
19327W        W87721  35.115  30.163   4.788
19328W        W87722  17.220   6.316   0.849
19329W        W87723   5.852  20.571   4.629
19330W        W87724  18.512  21.974   2.161
19331W        W87725  36.452  28.506   3.741
19332W        W87726   3.363   2.039   4.644
19333W        W87727  32.049   1.840   4.278
19334W        W87728  44.604  39.396  11.051
19335W        W87729  10.786   3.959  13.923
19336W        W87730  42.066  44.789   2.118
19337W        W87731   3.440  36.745   3.651
19338W        W87732  26.049  34.389  11.538
19339W        W87733  19.262  25.436   4.110
19340W        W87734  25.280  43.252   2.708
19341W        W87735  15.766  20.245  13.585
19342W        W87736  18.386  41.617  10.224
19343W        W87737  18.157  15.266  14.799
19344W        W87738  10.044   2.941  10.050
19345W        W87739  20.137   4.281   1.483
19346W        W87740   5.886  21.275  14.348
19347W        W87741  41.004  20.528  11.075
19348W        W87742   6.333  33.022  12.887
19349W        W87743  27.170  12.066   1.897
19350W        W87744  43.074  24.560  10.786
19351W        W87745  10.111   9.716   4.126
19352W        W87746  26.866  31.496   4.582
19353W        W87747   3.397   3.813  10.319
19354W        W87748  40.892  15.914   3.447
19355W        W87749  13.625  28.140   0.811
19356W        W87750   0.834  39.058   0.916
19357W        W87751  19.971  11.684   0.837
19358W        W87752  24.345   9.031   3.104
19359W        W87753  19.221  36.880  14.886
19360W        W87754  28.487  34.825   0.625
19361W        W87755  18.149   0.327   3.838
19362W        W87756  25.220  39.855  14.247
19363W        W87757  41.528  11.462   1.899
19364W        W87758   5.972  17.124   2.727
19365W        W87759  35.058   3.971   2.744
19366W        W87760  24.449  31.962  12.442
19367W        W87761  40.359  38.519  12.437
19368W        W87762  36.506  28.979   1.659
19369W        W87763  43.149  30.364   5.110
19370W        W87764  32.077  44.209   2.842
19371W        W87765  36.543  24.984  12.167
19372W        W87766   5.256   6.872  14.680
19373W        W87767  10.182  25.533   0.794
19374W        W87768  31.431  29.466   2.380
19375W        W87769  21.388  15.890  13.322
19376W        W87770  42.891  43.506   3.649
19377W        W87771  41.951  41.528  11.655
19378W        W87772  14.354  24.705   4.115
19379W        W87773   4.349  22.990  11.094
19380W        W87774  25.114   2.846   1.264
19381W        W87775  25.503  29.230  11.199
19382W        W87776  31.109  34.819   4.740
19383W        W87777  18.239  35.343  14.445
19384W        W87778  15.151  13.809   3.412
19385W        W87779  37.675  32.240   2.404
19386W        W87780  43.964   8.412   3.035
19387W        W87781  20.224   9.922   4.213
19388W        W87782  14.037  41.321  14.096
19389W        W87783  21.577  39.498  14.467
19390W        W87784   0.751  21.565   2.760
19391W        W87785  16.689   3.703   2.721
19392W        W87786  10.622  26.272   0.525
19393W        W87787  12.932   4.741  12.990
19394W        W87788  42.715  27.447  11.678
19395W        W87789  21.182  37.350   1.201
19396W        W87790   8.388   7.850   2.703
19397W        W87791  37.066  25.461   3.613
19398W        W87792  18.684  22.550   0.431
19399W        W87793   1.384  20.542  11.603
19400W        W87794  14.124  25.153  11.671
19401W        W87795  14.994   8.815  13.051
19402W        W87796  33.887  22.681  14.828
19403W        W87797  44.912  33.792  11.741
19404W        W87798   9.546  41.798   1.936
19405W        W87799   8.921  39.595  11.598
19406W        W87800  22.960  13.698   2.113
19407W        W87801   4.172  26.856  13.994
19408W        W87802  12.643   9.690   4.435
19409W        W87803  12.240   0.770   1.314
19410W        W87804  27.424  38.848   3.386
19411W        W87805   5.977  11.312   3.287
19412W        W87806  29.615  10.370  11.081
19413W        W87807  12.441   2.878  13.963
19414W        W87808  37.438   9.898  14.554
19415W        W87809  30.592  16.642   4.600
19416W        W87810   2.810  18.291   0.812
19417W        W87811  30.633  36.742  11.599
19418W        W87812  22.233   8.593  11.072
19419W        W87813  27.471  19.273  10.990
19420W        W87814   0.834  18.983   2.348
19421W        W87815  40.590   7.761  13.847
19422W        W87816  41.379  40.209  11.636
19423W        W87817  11.079  16.229   3.801
19424W        W87818   1.166  10.333   4.666
19425W        W87819  19.259  10.252  13.852
19426W        W87820   4.559  34.351   3.194
19427W        W87821   3.934   3.011  12.718
19428W        W87822   4.933  25.559  13.738
19429W        W87823  21.032  14.350  11.205
19430W        W87824   5.479  39.113  13.078
19431W        W87825  35.876  11.760  10.613
19432W        W87826   3.921  11.611  12.936
19433W        W87827   7.827  34.975  10.021
19434W        W87828  44.297  12.313  13.167
19435W        W87829  39.360  27.422   1.819
19436W        W87830  34.609  15.221  12.789
19437W        W87831  10.630  41.796   5.018
19438W        W87832   5.381  21.741   4.875
19439W        W87833  33.592   3.673  11.248
19440W        W87834  41.037  34.136  12.439
19441W        W87835   0.627  16.787  13.858
19442W        W87836  29.253  35.021  14.928
19443W        W87837  12.399  33.447  12.469
19444W        W87838  25.863  36.048  11.201
19445W        W87839   1.410  39.975   0.568
19446W        W87840   9.039  38.504  12.535
19447W        W87841   7.917  23.721   2.711
19448W        W87842  36.835  16.334   2.902
19449W        W87843  16.306  40.020   2.812
19450W        W87844  30.528  23.127   2.144
19451W        W87845   3.970  40.524   4.643
19452W        W87846  17.881  14.759  14.050
19453W        W87847   8.199  10.684   2.328
19454W        W87848  33.852   0.936  13.529
19455W        W87849  24.454   4.250   4.203
19456W        W87850  10.921  14.407  10.628
19457W        W87851  19.223  41.450  14.375
19458W        W87852   8.888  40.966  13.413
19459W        W87853   2.802  30.992   1.713
19460W        W87854   6.981  39.546   1.680
19461W        W87855  38.311  39.691  14.054
19462W        W87856  22.413  34.655  14.922
19463W        W87857  17.706  37.262   1.898
19464W        W87858  12.349  30.407   3.311
19465W        W87859  32.390  23.573   2.715
19466W        W87860   3.212   9.967   4.916
19467W        W87861  31.438  44.404  12.008
19468W        W87862   2.552  11.399   4.595
19469W        W87863  18.356  12.816   2.895
19470W        W87864  29.373   4.329   4.173
19471W        W87865  33.859  19.690  10.727
19472W        W87866  35.377  36.435   2.256
19473W        W87867  30.661  12.733  12.015
19474W        W87868   4.987   6.211  10.654
19475W        W87869   7.977   8.180   2.730
19476W        W87870  23.808   9.650  14.754
19477W        W87871  13.287  19.433  10.646
19478W        W87872  14.211   7.801  13.452
19479W        W87873   6.353  22.806   3.114
19480W        W87874  43.691  33.915  13.033
19481W        W87875   2.242  21.088   1.046
19482W        W87876   3.174  18.494   3.219
19483W        W87877  36.479   1.412   2.771
19484W        W87878  43.318  41.803   1.251
19485W        W87879  20.168   9.064   2.220
19486W        W87880  42.903   0.121  13.806
19487W        W87881   2.960   6.803   4.216
19488W        W87882  41.280  38.067  10.996
19489W        W87883  19.605   1.705   4.633
19490W        W87884   6.232  21.582   4.071
19491W        W87885   4.471  19.435  13.155
19492W        W87886  34.866   3.747  10.817
19493W        W87887  27.983  34.908   3.424
19494W        W87888  33.636  41.386  12.109
19495W        W87889  10.418   0.318   4.846
19496W        W87890  40.762  21.155  12.397
19497W        W87891  12.919  12.239   4.843
19498W        W87892   3.457  25.445   3.770
19499W        W87893  10.826  26.656   4.723
19500W        W87894  15.685   4.748   3.106
19501W        W87895  15.134   8.416  12.290
19502W        W87896  37.388  16.003   3.594
19503W        W87897   0.707  20.084   1.377
19504W        W87898  32.706  32.825   1.077
19505W        W87899  22.582   2.286  11.905
19506W        W87900   6.634  24.327   4.440
19507W        W87901   8.454  38.076   0.413
19508W        W87902  20.080   6.214  14.897
19509W        W87903  14.877  16.584  13.536
19510W        W87904  38.858   1.911   2.704
19511W        W87905  35.873  23.438  11.168
19512W        W87906  19.601  13.108   3.152
19513W        W87907  31.124   3.290  11.711
19514W        W87908  17.423  35.796   1.877
19515W        W87909  39.057  23.524   3.178
19516W        W87910  16.742  21.532  11.611
19517W        W87911  15.974  42.706   3.399
19518W        W87912   3.689   9.397   3.337
19519W        W87913  15.517  42.947  13.861
19520W        W87914  34.854  13.450   4.468
19521W        W87915  21.283   0.871  11.480
19522W        W87916  36.055  30.778   0.362
19523W        W87917  22.384  12.345   5.018
19524W        W87918  16.143  12.501  13.594
19525W        W87919  43.949  40.089   4.346
19526W        W87920  28.984   8.048  11.809
19527W        W87921  25.396  37.329  11.070
19528W        W87922  35.102  37.423   3.548
19529W        W87923  20.370   5.370   3.422
19530W        W87924  14.197  23.881   0.032
19531W        W87925   4.759  20.333   2.891
19532W        W87926  35.354  43.002  13.957
19533W        W87927  26.713  34.516   3.202
19534W        W87928  13.388  38.675   0.447
19535W        W87929  30.171   8.854  14.114
19536W        W87930   4.642  29.431  11.032
19537W        W87931  18.765  21.786  14.377
19538W        W87932   0.667  11.575  12.518
19539W        W87933  44.536  36.464   4.237
19540W        W87934  42.903   6.007  12.629
19541W        W87935  34.775  39.399  13.033
19542W        W87936  17.079  28.106   0.774
19543W        W87937  23.116  22.762   0.249
19544W        W87938   7.348  37.402   3.121
19545W        W87939   9.081  25.964   2.621
19546W        W87940  26.769  18.884  11.173
19547W        W87941   4.675  38.788  13.417
19548W        W87942  12.383   0.426  13.404
19549W        W87943  16.751   0.847   3.237
19550W        W87944  10.717  41.539  11.913
19551W        W87945  37.805  24.474   2.819
19552W        W87946   1.148  25.363   1.764
19553W        W87947  44.210  18.866  11.945
19554W        W87948   6.765  20.160  13.486
19555W        W87949  44.311  37.010  14.340
19556W        W87950  11.571   2.190   3.704
19557W        W87951   8.468  13.792   2.357
19558W        W87952  34.416  43.706   0.328
19559W        W87953  18.207  27.212   3.779
19560W        W87954  42.447  34.484   2.507
19561W        W87955   1.390  17.305  11.921
19562W        W87956  32.443  19.848   3.664
19563W        W87957  28.533  41.060   2.611
19564W        W87958  15.126   3.298   4.162
19565W        W87959  12.333  35.428   4.076
19566W        W87960  30.088  15.357  13.012
19567W        W87961  24.751   0.244   1.770
19568W        W87962  26.528   8.523   0.875
19569W        W87963  32.650  14.401   1.632
19570W        W87964  19.117  35.610   3.798
19571W        W87965  25.758  40.820  12.526
19572W        W87966  17.541  18.460   3.670
19573W        W87967  10.706  22.122   0.788
19574W        W87968  35.868  17.587  10.789
19575W        W87969  25.152   4.738  13.789
19576W        W87970  42.354  16.136   0.185
19577W        W87971  10.387  20.116  10.527
19578W        W87972  39.786  32.481   3.555
19579W        W87973  43.150  28.516  12.385
19580W        W87974   6.121  27.840   1.479
19581W        W87975  25.611  33.589  14.845
19582W        W87976  34.358   6.342   4.591
19583W        W87977  18.927  37.026   0.302
19584W        W87978   0.284  34.344   0.836
19585W        W87979   3.841   2.298  11.502
19586W        W87980  40.748  18.654   0.255
19587W        W87981  44.332  18.582   2.409
19588W        W87982  22.232  31.952  10.673
19589W        W87983  32.031  10.836   3.949
19590W        W87984  30.814  17.677   0.571
19591W        W87985  40.837   0.798   1.821
19592W        W87986  13.155  12.693   4.093
19593W        W87987   4.832  11.258  11.205
19594W        W87988   9.436  42.082  13.393
19595W        W87989   3.953   6.442   0.868
19596W        W87990  25.787  10.463   2.940
19597W        W87991  18.676  43.838  13.840
19598W        W87992  32.586  11.632   0.698
19599W        W87993   9.715  26.921   3.809
19600W        W87994  20.318   0.843  14.848
19601W        W87995   9.462   3.178  11.892
19602W        W87996   6.646  35.593  14.349
19603W        W87997   8.721  26.183   3.303
19604W        W87998  25.518  18.641  14.454
19605W        W87999  20.926   0.375   0.902
19606W        W88000   4.359  33.874   4.361
19607W        W88001  32.194  10.583  11.958
19608W        W88002  44.389  32.144  11.625
19609W        W88003  38.964   2.425   1.783
19610W        W88004  13.189  42.622  11.236
19611W        W88005  34.875  14.484   4.226
19612W        W88006  19.974   8.826  13.508
19613W        W88007  10.856  11.279   3.267
19614W        W88008  44.290  18.042  11.589
19615W        W88009  28.996  40.591   1.315
19616W        W88010  20.642  43.157   3.597
19617W        W88011   5.503  11.152  11.816
19618W        W88012  27.553  18.753   2.134
19619W        W88013   0.216   2.803  13.456
19620W        W88014  27.191   2.020   3.547
19621W        W88015   5.528  10.134  14.267
19622W        W88016  36.369  35.536   3.670
19623W        W88017  41.592  21.881  14.448
19624W        W88018   0.520  27.978  14.853
19625W        W88019  35.913  17.104  12.452
19626W        W88020   5.981   5.561   4.051
19627W        W88021  15.820  15.409  14.055
19628W        W88022  37.987  43.456   4.585
19629W        W88023  17.468  38.410  13.818
19630W        W88024  24.197   1.941   2.280
19631W        W88025   5.351  13.269  12.021
19632W        W88026   8.653  41.525   1.840
19633W        W88027  14.317   5.223  12.441
19634W        W88028  22.891  33.342  12.616
19635W        W88029  33.026  12.205   3.968
19636W        W88030  26.246  27.905   4.173
19637W        W88031  26.502   7.362   4.195
19638W        W88032  42.641   1.596   1.493
19639W        W88033  23.781  21.581  14.078
19640W        W88034   2.522  13.165  10.994
19641W        W88035  35.022  38.646   2.350
19642W        W88036  15.547  19.835  11.945
19643W        W88037  24.211  38.289   2.417
19644W        W88038  25.594  39.363   4.208
19645W        W88039  26.388  23.812  13.466
19646W        W88040  34.836  27.537   3.918
19647W        W88041  43.811  17.771  14.564
19648W        W88042  18.729  42.572   4.426
19649W        W88043  37.852   2.834  13.316
19650W        W88044   3.794  12.394  13.340
19651W        W88045  22.307   5.477   1.400
19652W        W88046  25.183  38.784  13.860
19653W        W88047  28.610   5.520   4.391
19654W        W88048  25.380   1.022   1.892
19655W        W88049  28.691  30.992   0.942
19656W        W88050  15.878  35.843  10.945
19657W        W88051   4.630   9.295  12.005
19658W        W88052  28.244  15.078  13.541
19659W        W88053  12.471  37.605   0.304
19660W        W88054  23.367  13.286  11.436
19661W        W88055  15.078  17.570  12.967
19662W        W88056  33.013  24.509   2.351
19663W        W88057  39.760   2.733   0.870
19664W        W88058   6.664   9.858  11.581
19665W        W88059  27.648  31.788   3.248
19666W        W88060  41.796  17.629  14.846
19667W        W88061   6.158  25.103   3.295
19668W        W88062  38.585  44.995  11.187
19669W        W88063   4.764  28.191  12.549
19670W        W88064   7.897   8.722   4.220
19671W        W88065  44.513  30.534  13.958
19672W        W88066   7.290   2.816  12.139
19673W        W88067  36.335  32.492   4.660
19674W        W88068  38.971  26.852   2.678
19675W        W88069  11.867  14.557  10.130
19676W        W88070  38.479  43.008   4.537
19677W        W88071  23.192  25.491   2.701
19678W        W88072  30.621  15.730   4.565
19679W        W88073  31.892  31.525  12.389
19680W        W88074  25.297  13.439   2.357
19681W        W88075  32.906  10.857   1.297
19682W        W88076  14.109  37.866   0.424
19683W        W88077  38.391  39.766  12.099
19684W        W88078  19.217  29.400   0.224
19685W        W88079  22.729   1.838  11.681
19686W        W88080  18.107  38.519   0.876
19687W        W88081  29.565  24.975   4.089
19688W        W88082  17.312  14.195  12.562
19689W        W88083  19.421  19.237  11.258
19690W        W88084  17.170  33.674   4.657
19691W        W88085   4.657  12.716  12.368
19692W        W88086  38.930  37.313   3.737
19693W        W88087  29.700  33.145   0.690
19694W        W88088   0.069  19.037   4.267
19695W        W88089  14.431  13.295  14.899
19696W        W88090  42.451  13.338  11.626
19697W        W88091  25.417  41.278  10.308
19698W        W88092  26.912   4.384  14.933
19699W        W88093  38.057  30.877   3.040
19700W        W88094   8.656  22.052  11.637
19701W        W88095  17.936  14.760  11.309
19702W        W88096  22.922  21.676   2.294
19703W        W88097   4.534  14.193  12.520
19704W        W88098  22.071  26.522  13.004
19705W        W88099   4.039  39.804   4.313
19706W        W88100  36.581  21.090  12.141
19707W        W88101  17.513   5.746   9.712
19708W        W88102  36.888  21.518   0.767
19709W        W88103   8.278  41.748  10.736
19710W        W88104  17.617  20.703  12.854
19711W        W88105  17.698  16.005   9.699
19712W        W88106  15.594  14.155  11.084
19713W        W88107   6.361  28.039  14.063
19714W        W88108  21.128  39.908   2.590
19715W        W88109  29.065  21.977   0.077
19716W        W88110   6.404   5.705   3.308
19717W        W88111  10.238   9.774  14.648
19718W        W88112  32.402  33.401   1.270
19719W        W88113  36.534  11.321   3.199
19720W        W88114  28.755  31.565   4.281
19721W        W88115  14.958  42.106  12.059
19722W        W88116  41.840  16.640   2.861
19723W        W88117  22.026  34.293  14.857
19724W        W88118   2.189   4.950   2.953
19725W        W88119  32.946   4.279   2.234
19726W        W88120  33.080   4.145   0.334
19727W        W88121  15.553   0.545   2.696
19728W        W88122  22.101  27.456   2.614
19729W        W88123  27.335  32.617   2.829
19730W        W88124   7.799  39.938   3.610
19731W        W88125   0.317   6.378  10.479
19732W        W88126   1.328  24.699  11.039
19733W        W88127  43.074  23.955  14.813
19734W        W88128  33.208  26.144   2.966
19735W        W88129   8.719  29.135  11.109
19736W        W88130  21.916  24.065   1.268
19737W        W88131  44.722  10.286   4.943
19738W        W88132  32.064  29.999   1.994
19739W        W88133  11.792   7.165  12.009
19740W        W88134   9.238  36.193  13.495
19741W        W88135  35.494  35.770   0.374
19742W        W88136  15.911   4.216   2.601
19743W        W88137  10.537   6.775  12.990
19744W        W88138  11.184  37.777   2.324
19745W        W88139   1.294   1.737   3.901
19746W        W88140  37.729  19.989   0.016
19747W        W88141  17.873  16.071  11.713
19748W        W88142  41.084  41.535  13.559
19749W        W88143  42.835   8.773   0.679
19750W        W88144  33.200  10.425   1.378
19751W        W88145  43.869   8.575  14.030
19752W        W88146  18.541   4.430  13.467
19753W        W88147   1.208   7.773  13.883
19754W        W88148  44.822  16.728   1.307
19755W        W88149  12.470  11.139   1.321
19756W        W88150  20.724  39.805  12.381
19757W        W88151   3.887  44.045   1.216
19758W        W88152  33.565  34.339  11.471
19759W        W88153   5.325  20.761   1.325
19760W        W88154  24.530   4.339  13.425
19761W        W88155  42.186   1.922   4.873
19762W        W88156   5.586  22.531   2.634
19763W        W88157  20.939  12.033   3.345
19764W        W88158   1.453  36.085  12.629
19765W        W88159  12.918  12.167   4.327
19766W        W88160  43.761  18.751   3.692
19767W        W88161  43.431  15.079   2.377
19768W        W88162  39.814  22.177  12.535
19769W        W88163  40.288  23.774  10.595
19770W        W88164  30.386  28.375  12.639
19771W        W88165  23.141  40.542   4.697
19772W        W88166  42.288  33.405  14.048
19773W        W88167   4.370   1.692  10.246
19774W        W88168  39.398  27.594  12.085
19775W        W88169  15.618  21.990  10.684
19776W        W88170  29.202   3.293  13.367
19777W        W88171  36.944  22.824   1.325
19778W        W88172   8.405  35.082   0.709
19779W        W88173  17.266   5.899  11.691
19780W        W88174  12.393  13.561   2.835
19781W        W88175  35.178   9.129   1.970
19782W        W88176  21.912  14.096   4.143
19783W        W88177  16.166  40.372  14.571
19784W        W88178  39.791  23.793   4.825
19785W        W88179  16.652  17.112  11.219
19786W        W88180  23.149   5.157  14.312
19787W        W88181  33.963  25.169  13.376
19788W        W88182  12.306  44.867   2.946
19789W        W88183  40.442  11.856  12.637
19790W        W88184   3.954  40.489  12.309
19791W        W88185  12.332   5.817   4.689
19792W        W88186  15.331   1.853  14.792
19793W        W88187  35.085  39.956   2.249
19794W        W88188   3.014  22.918   2.399
19795W        W88189   5.204  41.011  13.113
19796W        W88190   7.190   5.391  14.574
19797W        W88191   7.803  29.884   3.193
19798W        W88192  41.927   5.946  14.959
19799W        W88193  31.499  33.628   0.694
19800W        W88194   3.793   7.129  12.694
19801W        W88195  16.112   5.495   2.228
19802W        W88196   6.294  14.707   3.688
19803W        W88197  21.861   4.256   0.472
19804W        W88198  39.933  24.206   4.091
19805W        W88199  12.722  42.156   2.702
19806W        W88200   8.462   9.687   0.953
19807W        W88201  30.964  20.050   3.185
19808W        W88202  40.501  40.686  12.812
19809W        W88203  36.356  30.814  12.042
19810W        W88204  31.919  40.853  14.005
19811W        W88205  27.782  36.779   2.894
19812W        W88206   0.273  34.566  14.952
19813W        W88207   8.578  43.285   2.605
19814W        W88208  29.008   7.149   1.436
19815W        W88209   7.400   7.170   0.017
19816W        W88210  39.539  34.514  13.069
19817W        W88211  39.543  27.055   4.903
19818W        W88212  13.290  34.011   4.187
19819W        W88213   5.759  28.420  10.976
19820W        W88214  41.328  13.604   2.648
19821W        W88215  31.758   1.604   3.288
19822W        W88216  21.621  30.262   2.895
19823W        W88217   3.112  27.746  13.026
19824W        W88218  23.544  25.955  11.650
19825W        W88219  41.848   1.661  14.436
19826W        W88220  36.056   6.147  12.826
19827W        W88221  25.897  37.623   4.736
19828W        W88222  27.606  19.827  14.360
19829W        W88223  25.060  31.203  13.925
19830W        W88224  41.964  19.339  12.447
19831W        W88225  19.498  18.843  12.636
19832W        W88226  26.477   2.384   2.085
19833W        W88227  29.886  30.588  14.907
19834W        W88228  31.474  34.085   0.951
19835W        W88229   4.084   8.463   1.296
19836W        W88230  16.161  36.528   4.627
19837W        W88231  25.132  10.662   0.736
19838W        W88232  20.220  37.885   0.072
19839W        W88233  16.816   6.552   0.104
19840W        W88234  13.060  11.641   4.454
19841W        W88235  27.225   9.971  10.230
19842W        W88236  18.644  23.404  13.452
19843W        W88237  42.593   3.998  10.934
19844W        W88238  29.765  15.872  12.397
19845W        W88239  29.074   3.647   0.767
19846W        W88240   7.279  27.844  13.031
19847W        W88241  28.463  34.809   2.746
19848W        W88242  41.752  39.095  13.033
19849W        W88243  27.471   7.426   1.594
19850W        W88244   9.112  17.504   3.421
19851W        W88245  19.587  17.516   3.637
19852W        W88246  33.658   1.783  11.651
19853W        W88247   7.111   3.507   3.241
19854W        W88248  32.537   3.459   3.751
19855W        W88249  22.787  33.511   0.830
19856W        W88250  37.062  44.339  13.031
19857W        W88251  34.014  30.947  12.869
19858W        W88252  32.483  39.816   0.830
19859W        W88253  24.969  12.302   4.750
19860W        W88254  16.424   8.825   1.265
19861W        W88255  38.864  23.984   4.748
19862W        W88256  11.976  27.425  12.962
19863W        W88257   0.711  31.966  14.250
19864W        W88258  44.372  20.308  14.524
19865W        W88259  32.102   0.100   1.590
19866W        W88260  31.438  39.933   4.595
19867W        W88261  23.990  31.039  14.760
19868W        W88262  42.993  12.062  10.901
19869W        W88263  26.256  26.589  10.795
19870W        W88264  35.799   0.151   2.236
19871W        W88265  40.917  41.620   1.442
19872W        W88266  17.683  27.155   3.743
19873W        W88267  39.380  44.365   3.967
19874W        W88268   2.832  27.294   0.133
19875W        W88269  14.617  34.173  11.055
19876W        W88270  15.818  25.557  11.507
19877W        W88271  43.148  29.704  12.653
19878W        W88272   2.236   6.355   3.028
19879W        W88273  26.186   4.915  11.532
19880W        W88274  14.794  41.064  10.632
19881W        W88275   4.367  31.551   3.621
19882W        W88276   8.722   1.293   3.011
19883W        W88277  20.800   5.075   1.275
19884W        W88278  35.894  26.913  11.580
19885W        W88279  25.994   9.223   3.326
19886W        W88280  42.795  28.679   3.778
19887W        W88281  42.086   3.958  10.863
19888W        W88282   9.293  43.456   1.382
19889W        W88283  41.294  35.967  11.585
19890W        W88284  11.130  19.258  12.052
19891W        W88285  44.082  10.221   1.211
19892W        W88286   9.105   7.988   2.196
19893W        W88287   0.028  28.726  14.521
19894W        W88288  36.367  43.992   1.887
19895W        W88289  38.976  26.174   4.238
19896W        W88290  17.841   8.383   5.052
19897W        W88291  28.953  44.002  10.519
19898W        W88292   2.976  18.788  14.922
19899W        W88293  14.020   3.127   1.906
19900W        W88294  21.627  11.235   0.186
19901W        W88295  14.634  38.587  13.566
19902W        W88296  28.240  28.500  14.089
19903W        W88297   7.570  39.201  10.336
19904W        W88298  35.654   3.784   4.210
19905W        W88299   4.103  24.585   2.869
19906W        W88300  19.645   4.559   4.572
19907W        W88301  12.227  11.300  13.423
19908W        W88302  14.599  40.215  12.423
19909W        W88303   0.131  36.832  13.836
19910W        W88304   8.362  15.513   3.731
19911W        W88305  43.030  31.837   5.122
19912W        W88306  10.311  21.266   4.149
19913W        W88307  17.526  16.587  12.915
19914W        W88308   5.438   8.925   3.127
19915W        W88309  26.991  35.811   1.417
19916W        W88310   9.372  24.019   1.843
19917W        W88311  19.204  33.096   3.048
19918W        W88312  22.239  40.933   1.752
19919W        W88313  39.630  16.960  11.685
19920W        W88314  44.672  19.026   3.875
19921W        W88315  14.124  40.299   1.305
19922W        W88316  16.350  25.701   2.452
19923W        W88317  36.077  16.797  13.293
19924W        W88318  26.412   0.318  11.618
19925W        W88319  24.622  17.882   2.858
19926W        W88320  38.886  44.660   2.671
19927W        W88321  37.192   0.683  12.120
19928W        W88322  30.955   3.789  10.354
19929W        W88323  29.550   6.205   0.392
19930W        W88324  39.914  40.551  13.959
19931W        W88325  38.211   6.693  10.771
19932W        W88326   0.598  43.826   0.851
19933W        W88327  34.365  32.084  10.218
19934W        W88328  37.879  39.792  12.020
19935W        W88329  39.562   9.289   0.748
19936W        W88330  21.550  35.918   3.170
19937W        W88331   9.293   6.664   1.806
19938W        W88332   2.659  10.824  11.392
19939W        W88333  18.028  30.816  10.574
19940W        W88334   2.737   5.884  14.656
19941W        W88335  11.953  16.293   4.061
19942W        W88336   2.348  17.258   0.418
19943W        W88337  21.695  35.020   3.201
19944W        W88338   9.694  20.473  14.703
19945W        W88339  38.773  27.126  12.621
19946W        W88340  17.964   6.471   1.634
19947W        W88341   4.955  43.572  13.221
19948W        W88342   0.971  19.059  14.300
19949W        W88343  10.021  38.432  14.977
19950W        W88344  23.011  23.056  14.821
19951W        W88345  12.367  17.407  12.396
19952W        W88346  35.903  39.832   0.277
19953W        W88347  18.850  27.809  13.090
19954W        W88348   6.316  11.438  13.067
19955W        W88349  21.782  22.461   2.280
19956W        W88350  35.261  33.131  13.133
19957W        W88351  40.534   1.279   3.377
19958W        W88352  32.453   0.593  11.567
19959W        W88353  30.378  42.852  12.447
19960W        W88354  26.219  15.794   0.406
19961W        W88355   4.394  11.350  11.481
19962W        W88356   0.914  13.727   4.120
19963W        W88357  33.429   8.656  12.178
19964W        W88358  35.303  26.530   5.103
19965W        W88359   7.742  30.437  12.312
19966W        W88360   8.402  40.048   0.854
19967W        W88361  18.219   5.894  10.639
19968W        W88362  40.263  24.092  14.761
19969W        W88363  39.465  23.985  12.990
19970W        W88364   8.855  15.776   1.178
19971W        W88365  40.523  20.164   1.773
19972W        W88366  19.983  10.157  14.530
19973W        W88367  21.166  15.247   2.590
19974W        W88368  11.413   3.636   0.143
19975W        W88369  17.833  24.455   2.292
19976W        W88370   6.608  44.928  13.858
19977W        W88371  37.370  38.114   0.980
19978W        W88372  26.575  18.137   0.510
19979W        W88373  20.265   2.291  13.740
19980W        W88374  44.414  39.040   4.133
19981W        W88375  10.767  30.685   3.758
19982W        W88376  16.163  23.637  12.006
19983W        W88377  24.007  25.742   2.414
19984W        W88378  14.557  29.243  13.551
19985W        W88379  37.856  13.006   2.549
19986W        W88380  15.268   2.668  11.842
19987W        W88381  15.124  37.451   2.795
19988W        W88382  29.391  39.405   2.347
19989W        W88383  37.954  38.842   2.823
19990W        W88384  15.844  20.297   1.437
19991W        W88385   3.270   0.737  14.351
19992W        W88386  44.739  35.868   4.472
19993W        W88387  27.720  16.071  11.665
19994W        W88388  13.870  22.280   3.896
19995W        W88389  40.510  14.723   1.906
19996W        W88390  22.267  30.602  14.490
19997W        W88391  40.148  12.118  11.536
19998W        W88392   9.337  10.300  14.534
19999W        W88393   2.819  35.823   3.210
20000W        W88394  43.038  20.644   2.234
20001W        W88395  30.532  13.987   4.527
20002W        W88396  16.168  30.919  12.533
20003W        W88397   7.174  43.062  13.158
20004W        W88398   7.441  11.259  11.644
20005W        W88399  22.048  35.391   2.365
20006W        W88400  44.706  38.341   1.335
20007W        W88401  15.700  33.267  10.240
20008W        W88402  27.956   3.862  14.462
20009W        W88403   2.978   1.288   1.616
20010W        W88404  22.895   4.780   3.664
20011W        W88405  33.168  26.751  10.580
20012W        W88406  24.689  36.635   3.679
20013W        W88407  35.153  35.408   1.651
20014W        W88408  30.023  27.662   2.384
20015W        W88409  41.730  42.745  14.772
20016W        W88410  26.916  43.310   2.687
20017W        W88411   4.056  21.274   4.222
20018W        W88412   6.695  22.246  10.700
20019W        W88413  25.136  40.411   0.005
20020W        W88414  26.246  35.573  14.669
20021W        W88415  22.229   4.368  11.686
20022W        W88416  31.466  19.071   4.802
20023W        W88417   6.446  39.808   3.405
20024W        W88418  29.911  31.450  14.008
20025W        W88419  39.308   2.361  14.694
20026W        W88420  14.843  36.812  11.830
20027W        W88421  12.135   3.379   5.051
20028W        W88422  39.565   4.984  12.098
20029W        W88423  20.722  18.534  13.053
20030W        W88424  38.489   7.452  11.942
20031W        W88425   0.277  17.591  14.903
20032W        W88426  43.737   3.625   0.417
20033W        W88427  17.153  31.438   2.037
20034W        W88428  43.539   0.282  11.502
20035W        W88429  34.579  18.431   3.198
20036W        W88430  19.625  19.266   1.265
20037W        W88431  37.026  38.826  12.492
20038W        W88432  18.837  34.541  14.392
20039W        W88433  23.966  11.128   2.299
20040W        W88434  33.495  14.235  12.748
20041W        W88435  16.137  35.100  13.872
20042W        W88436   7.026   2.207   2.657
20043W        W88437  42.365   7.760  14.895
20044W        W88438  26.127  14.473   4.076
20045W        W88439  19.768  26.638  13.527
20046W        W88440  27.194  37.053  11.543
20047W        W88441   7.866   3.554  13.138
20048W        W88442  17.004  33.851   4.199
20049W        W88443  13.155  18.035  13.526
20050W        W88444   3.245  19.602   4.913
20051W        W88445  30.988  21.092   0.822
20052W        W88446  13.582  20.257   0.725
20053W        W88447  21.728  22.246   0.207
20054W        W88448  35.036  22.218  14.969
20055W        W88449  23.749  27.085  12.418
20056W        W88450   0.947  36.854   3.245
20057W        W88451  34.595   8.081   1.854
20058W        W88452  20.772  33.919   4.157
20059W        W88453  19.307  25.947   4.105
20060W        W88454  31.969  26.296   1.751
20061W        W88455  13.121  23.346   3.492
20062W        W88456  38.316   9.481  12.088
20063W        W88457  13.870  43.404   3.675
20064W        W88458  26.632   8.407   3.369
20065W        W88459   6.619   4.273   4.242
20066W        W88460  41.789  37.414  13.534
20067W        W88461  31.163  40.985  14.095
20068W        W88462  42.874  24.615  14.352
20069W        W88463  14.075  29.407   4.684
20070W        W88464  40.729  35.740   2.653
20071W        W88465  38.800   3.305  11.137
20072W        W88466  20.474  39.714   2.709
20073W        W88467  31.391   7.351   0.947
20074W        W88468  25.580   3.511   4.266
20075W        W88469  35.821  38.848   3.775
20076W        W88470   4.412  25.975  14.600
20077W        W88471  44.316  10.600  12.828
20078W        W88472  35.371  32.155  13.327
20079W        W88473  10.198  30.966  14.256
20080W        W88474  32.496  31.741   4.990
20081W        W88475   5.202  42.902  12.071
20082W        W88476  20.537  40.352   0.620
20083W        W88477  13.418   0.483  10.744
20084W        W88478  21.662   8.679   3.481
20085W        W88479  39.854  34.653  13.874
20086W        W88480  38.739  24.588   2.830
20087W        W88481  15.757  41.419  12.702
20088W        W88482   4.452   5.712  10.510
20089W        W88483  13.379  25.664  11.416
20090W        W88484  37.476  43.967  11.478
20091W        W88485  32.883  20.621   3.251
20092W        W88486  40.790  44.806  14.790
20093W        W88487  30.589  21.547   2.263
20094W        W88488  39.226  11.866   5.110
20095W        W88489   5.719  20.167  11.569
20096W        W88490   1.736  22.575   0.074
20097W        W88491  43.985  40.731  12.376
20098W        W88492   7.163  23.611  11.677
20099W        W88493  22.454  11.741  12.085
20100W        W88494  10.230  17.658  14.722
20101W        W88495  11.354  43.335   3.893
20102W        W88496  16.766  30.927  13.238
20103W        W88497  21.207   2.922  10.835
20104W        W88498   8.413  24.726  13.961
20105W        W88499  40.056  42.723  11.958
20106W        W88500  15.732  24.936   0.120
20107W        W88501   4.308  30.415  11.832
20108W        W88502  26.519   5.154  14.819
20109W        W88503  43.397   5.774  12.656
20110W        W88504  19.260  30.426  11.979
20111W        W88505  20.623  19.558  10.362
20112W        W88506   7.791  37.600   3.308
20113W        W88507  27.993  39.757   2.866
20114W        W88508  21.229  11.267   4.730
20115W        W88509   3.705  29.586  13.011
20116W        W88510   0.301  32.538   2.926
20117W        W88511  25.979  12.972   0.780
20118W        W88512  43.351  41.002  14.850
20119W        W88513  43.942  18.240  10.913
20120W        W88514   0.694   7.577   3.059
20121W        W88515  19.682  34.613   0.312
20122W        W88516   8.396  11.271   1.992
20123W        W88517  11.089  27.495   4.911
20124W        W88518  16.459  20.258  13.845
20125W        W88519  34.360  12.344  14.851
20126W        W88520  19.653   1.937  11.014
20127W        W88521  37.764  17.549   4.084
20128W        W88522   2.439  18.261  12.620
20129W        W88523   6.304  28.797   4.235
20130W        W88524  29.499  33.509  13.154
20131W        W88525   9.827  33.444   4.915
20132W        W88526  36.082  20.223  13.074
20133W        W88527  37.486  14.327  11.892
20134W        W88528   9.360  41.834  13.852
20135W        W88529  42.982  11.298   0.926
20136W        W88530  19.557  11.318  11.992
20137W        W88531   7.280   7.454  13.694
20138W        W88532  44.946  26.287   0.268
20139W        W88533   3.414  25.639  14.793
20140W        W88534  41.325  38.950   3.147
20141W        W88535   1.868  19.776   0.279
20142W        W88536  12.665   4.111   4.575
20143W        W88537  16.065  25.995   4.240
20144W        W88538  21.500  15.768   3.804
20145W        W88539  42.517  28.150   4.409
20146W        W88540  13.308   2.375  14.831
20147W        W88541   7.809  40.905  11.984
20148W        W88542   8.592   9.437   4.158
20149W        W88543   1.179  32.949  12.965
20150W        W88544  11.306  37.183  14.098
20151W        W88545  44.499  18.453  14.569
20152W        W88546  11.822   2.475  12.908
20153W        W88547   0.570  39.300  11.235
20154W        W88548  35.091   7.484   4.197
20155W        W88549  30.444   4.344   4.587
20156W        W88550  38.114  42.481  14.489
20157W        W88551  31.584   0.992   2.329
20158W        W88552   3.880  33.354  12.558
20159W        W88553  23.552  38.841   4.533
20160W        W88554  13.129   8.388   0.473
20161W        W88555  44.720  22.667   0.047
20162W        W88556  21.134   2.489  14.806
20163W        W88557  33.918  21.332   3.240
20164W        W88558   4.391  22.211   4.167
20165W        W88559  22.516   3.443  11.026
20166W        W88560   7.811   3.442   1.912
20167W        W88561  24.691  38.870   1.819
20168W        W88562  35.149  13.874  14.962
20169W        W88563  36.615  14.122  12.902
20170W        W88564  41.415  20.244  13.926
20171W        W88565  42.520  18.152   1.765
20172W        W88566   1.646   5.211  14.428
20173W        W88567  34.530  19.024  13.378
20174W        W88568   7.420  37.566  10.766
20175W        W88569   8.103  11.494  11.089
20176W        W88570  11.818  21.296   0.200
20177W        W88571  40.003  19.716   3.891
20178W        W88572  31.501  22.755  12.873
20179W        W88573  28.044  26.663   2.217
20180W        W88574  35.255  20.665   4.725
20181W        W88575  13.248  35.206   0.592
20182W        W88576  10.048  19.622   1.235
20183W        W88577  31.449  44.992   3.570
20184W        W88578   6.855  13.393   0.839
20185W        W88579  41.578  22.587   2.666
20186W        W88580  27.720  37.016  14.248
20187W        W88581  13.251   1.400  13.092
20188W        W88582  21.606  33.788   1.229
20189W        W88583   2.329   5.278   0.360
20190W        W88584  28.400  10.029   4.073
20191W        W88585  38.087  30.441  13.317
20192W        W88586  25.987  37.324  12.968
20193W        W88587  42.364  13.247  13.416
20194W        W88588   3.773  41.727   1.409
20195W        W88589  21.440   5.285   4.647
20196W        W88590   5.410  11.262  13.491
20197W        W88591   4.526  37.028   0.289
20198W        W88592  20.204  43.407   0.184
20199W        W88593  41.563   6.646   4.333
20200W        W88594  13.773   0.429   2.120
20201W        W88595  10.775   8.655  14.319
20202W        W88596  25.617  16.110   0.533
20203W        W88597  11.334  39.798  11.883
20204W        W88598  41.084  36.059  11.105
20205W        W88599   7.543  13.261   1.357
20206W        W88600  10.621  25.454  12.830
20207W        W88601  44.050  20.660   3.707
20208W        W88602  19.995   1.118  14.524
20209W        W88603  23.284  15.858   2.686
20210W        W88604  43.553  13.143   1.916
20211W        W88605  17.760  16.640   2.677
20212W        W88606  34.897  43.113   3.174
20213W        W88607  31.094  10.613  12.025
20214W        W88608   4.297  35.713  14.242
20215W        W88609  27.557  43.813  13.928
20216W        W88610  32.070   0.956  12.356
20217W        W88611  25.565  32.863   2.767
20218W        W88612  43.425   5.194  13.416
20219W        W88613  41.421  42.927   5.083
20220W        W88614  43.192  34.027  12.940
20221W        W88615  33.976  31.539  13.051
20222W        W88616  22.278  19.477   4.371
20223W        W88617  28.015  15.816   2.976
20224W        W88618  24.289   8.291  14.262
20225W        W88619  39.670  35.028   2.143
20226W        W88620  11.635  29.292   2.865
20227W        W88621   9.827  23.032   1.310
20228W        W88622  22.730  28.437   1.444
20229W        W88623   7.228  37.845   2.904
20230W        W88624  40.297   2.260  13.520
20231W        W88625  30.582  16.751   2.232
20232W        W88626   7.258  13.986  12.457
20233W        W88627   8.178  11.188   2.448
20234W        W88628  41.014   4.014  10.669
20235W        W88629  20.317   4.285  10.576
20236W        W88630  43.764   2.114  13.325
20237W        W88631  40.470  41.153  10.708
20238W        W88632  12.360  32.470   2.807
20239W        W88633  39.937  32.268  11.836
20240W        W88634  27.343   6.602   0.395
20241W        W88635  23.967  13.933   5.041
20242W        W88636   0.830  12.090  12.643
20243W        W88637  14.873  29.399   2.885
20244W        W88638  13.659   2.888  11.105
20245W        W88639  21.829  11.769  11.599
20246W        W88640   8.335  27.948   2.869
20247W        W88641  38.178  44.175   0.883
20248W        W88642   0.760  16.303   4.470
20249W        W88643  29.731  15.056  13.275
20250W        W88644  33.733  32.537  11.322
20251W        W88645   2.812  27.902   1.170
20252W        W88646  39.569  40.265  14.838
20253W        W88647   9.736  39.806   0.292
20254W        W88648  14.720   8.272   2.676
20255W        W88649  18.700  14.915  14.001
20256W        W88650  35.027  36.393   3.556
20257W        W88651  19.642  11.862  11.857
20258W        W88652  29.345   4.785   0.741
20259W        W88653   4.290  15.139  11.426
20260W        W88654  24.269   3.689  13.297
20261W        W88655   4.430  27.306  14.825
20262W        W88656  10.161   4.503   2.841
20263W        W88657  32.601  15.579   0.462
20264W        W88658  41.380  39.460  13.025
20265W        W88659  37.418   8.588  12.710
20266W        W88660  30.417   8.038  13.575
20267W        W88661   3.401  39.408  12.474
20268W        W88662  28.193  38.625  14.380
20269W        W88663  43.985  32.342  13.998
20270W        W88664   9.516  15.327   1.731
20271W        W88665   9.291  38.006  10.721
20272W        W88666   6.276   2.842  11.005
20273W        W88667  23.195  14.038   1.801
20274W        W88668  29.499  21.514   1.274
20275W        W88669  31.395  18.703  10.719
20276W        W88670  39.427  42.800   0.188
20277W        W88671  28.670  33.457  14.958
20278W        W88672  43.030  16.636  13.425
20279W        W88673  42.077  37.861   0.872
20280W        W88674   7.687  20.202  13.544
20281W        W88675   2.796  13.464  13.492
20282W        W88676  36.297  37.322  14.665
20283W        W88677   7.254   6.452   9.757
20284W        W88678  41.441  10.730   3.666
20285W        W88679   5.766  21.529   1.530
20286W        W88680  30.354  19.232   4.229
20287W        W88681  32.429   4.390   2.275
20288W        W88682  38.429   4.875   0.789
20289W        W88683  35.816  41.321  13.452
20290W        W88684   2.714  38.564   3.737
20291W        W88685  17.012   7.817  11.616
20292W        W88686  37.520  42.028   3.254
20293W        W88687  18.029  29.513   4.412
20294W        W88688  36.493   8.469  14.914
20295W        W88689  14.895  29.395   5.009
20296W        W88690  31.871   9.003  14.366
20297W        W88691  22.193  41.434   0.923
20298W        W88692   8.840  26.296  12.533
20299W        W88693  42.424  25.165   3.775
20300W        W88694   5.058   3.513  11.446
20301W        W88695  33.338  23.449   4.886
20302W        W88696   0.406  32.522  14.521
20303W        W88697  18.787  22.455   2.706
20304W        W88698   6.488   4.206  13.567
20305W        W88699  12.340   3.312   0.545
20306W        W88700   6.497  34.749  13.952
20307W        W88701  30.420  19.593   3.844
20308W        W88702  16.792   8.013   5.086
20309W        W88703  20.937  33.349   4.703
20310W        W88704  44.483  22.579   2.857
20311W        W88705  28.000  27.547  11.159
20312W        W88706  11.587  35.062   2.325
20313W        W88707  23.795  33.142  12.890
20314W        W88708  20.586  37.953   1.765
20315W        W88709  14.606   1.869   0.915
20316W        W88710  34.881  12.097  11.267
20317W        W88711  38.976  44.805   3.249
20318W        W88712  11.098   9.951   3.094
20319W        W88713  25.237  19.520   1.009
20320W        W88714  40.373   1.255  11.603
20321W        W88715  35.020   1.678  13.666
20322W        W88716  25.993  30.781   0.054
20323W        W88717   7.325  28.900  14.129
20324W        W88718  36.435  11.768  11.587
20325W        W88719  12.845  28.318   2.797
20326W        W88720  12.305  26.996  14.481
20327W        W88721  31.912  10.186  11.058
20328W        W88722  16.842   8.640   2.630
20329W        W88723   5.721  36.995  11.592
20330W        W88724  14.870  20.687  12.593
20331W        W88725  40.411  10.206  13.091
20332W        W88726  22.484  11.191   0.379
20333W        W88727  23.499  35.815  11.548
20334W        W88728  19.154   6.619  13.316
20335W        W88729   3.658  12.895  12.461
20336W        W88730  43.422  24.476  12.608
20337W        W88731  32.038  41.842   3.171
20338W        W88732  17.470  21.091  14.033
20339W        W88733   0.891  21.404  14.216
20340W        W88734  26.694  43.799   2.770
20341W        W88735  43.816  44.972   4.317
20342W        W88736  33.667  27.960  10.940
20343W        W88737  33.813  24.092   2.653
20344W        W88738  16.808  43.283   4.584
20345W        W88739   5.814  31.911   1.376
20346W        W88740   3.972  11.903   1.490
20347W        W88741  21.722  21.738  13.530
20348W        W88742  18.935  25.034  14.462
20349W        W88743  42.924  10.630  11.928
20350W        W88744  44.790   0.343   2.238
20351W        W88745  30.151  43.941   3.946
20352W        W88746  34.829  30.600  11.272
20353W        W88747  38.109   9.786   0.840
20354W        W88748  20.939   3.384  13.374
20355W        W88749  37.826  29.600   3.635
20356W        W88750  38.522   2.275  13.058
20357W        W88751  19.143  13.282   3.352
20358W        W88752  19.596  34.155  14.826
20359W        W88753  24.972  42.262   4.147
20360W        W88754  13.204   9.778   3.661
20361W        W88755  29.836  17.688  14.294
20362W        W88756   8.867  10.999  11.640
20363W        W88757  15.651  44.394   3.145
20364W        W88758   4.922  40.830   4.423
20365W        W88759  15.328  31.909  12.558
20366W        W88760  43.767  39.467   3.104
20367W        W88761   0.412  30.206   1.158
20368W        W88762   0.380  41.274  12.144
20369W        W88763  29.202  19.510   1.360
20370W        W88764  44.142  23.695  13.839
20371W        W88765  28.920  18.700  13.990
20372W        W88766  16.671  14.005  12.982
20373W        W88767   6.188  36.708  14.008
20374W        W88768  41.531   6.907  11.475
20375W        W88769  39.677  11.497  14.371
20376W        W88770  20.594  22.431  13.860
20377W        W88771   9.951  27.404  12.978
20378W        W88772  19.196  30.253   0.030
20379W        W88773  16.910  38.844  12.956
20380W        W88774  11.145   8.756   0.482
20381W        W88775  42.097  29.171  11.694
20382W        W88776  29.413  30.502  13.864
20383W        W88777   4.450  37.607  11.626
20384W        W88778  29.208  38.954   2.181
20385W        W88779  29.546  44.555  11.062
20386W        W88780   4.526  27.562   1.645
20387W        W88781  26.104   4.592  14.038
20388W        W88782  33.599  40.770   4.828
20389W        W88783  13.291  26.122  14.893
20390W        W88784  33.102   4.373   1.729
20391W        W88785   0.738  18.687  12.097
20392W        W88786  41.005  43.422  14.856
20393W        W88787  38.987  15.922  11.784
20394W        W88788  13.699  19.189   1.842
20395W        W88789  16.917   0.241  11.967
20396W        W88790  35.933  21.838   3.856
20397W        W88791  31.485  10.407   0.405
20398W        W88792  19.725  23.756  14.355
20399W        W88793  30.455   9.196   0.611
20400W        W88794  33.951  28.002  12.029
20401W        W88795  35.659  41.226   4.632
20402W        W88796  42.217  10.448   4.639
20403W        W88797  22.783  39.066  12.502
20404W        W88798  33.940   9.232  14.822
20405W        W88799   3.649   6.399   3.341
20406W        W88800  39.301  33.659  11.984
20407W        W88801  19.208  33.845   1.728
20408W        W88802  19.308   1.459  14.023
20409W        W88803  41.227  29.267   3.210
20410W        W88804  29.589   9.761  13.592
20411W        W88805   9.569  40.435  12.582
20412W        W88806  31.929  35.712  14.441
20413W        W88807  21.685  38.634  11.910
20414W        W88808  20.624   1.781   3.659
20415W        W88809   8.556  23.344  12.110
20416W        W88810  21.411  24.067   1.249
20417W        W88811  39.807  38.358   3.529
20418W        W88812  34.187  34.412  11.029
20419W        W88813   4.846   2.471   0.688
20420W        W88814  30.007  22.911  12.528
20421W        W88815   0.465  27.053  12.150
20422W        W88816  38.364  25.565   2.818
20423W        W88817  26.422  18.628   0.485
20424W        W88818  41.232  29.603  11.044
20425W        W88819  32.076  36.363   3.972
20426W        W88820   4.836  41.371   2.666
20427W        W88821  26.955  19.240   3.363
20428W        W88822  12.186   9.876   2.839
20429W        W88823  32.874  25.016   3.485
20430W        W88824  14.557  14.525   1.876
20431W        W88825   6.875  39.055   1.489
20432W        W88826  15.881  24.720  10.833
20433W        W88827  10.400  43.548  10.889
20434W        W88828  33.182   5.942   4.092
20435W        W88829  13.754   4.034  12.821
20436W        W88830  44.707   4.840   0.393
20437W        W88831  22.162   2.671   0.283
20438W        W88832  13.061   6.662  13.009
20439W        W88833  38.598  33.108   0.425
20440W        W88834  17.179  30.995   1.252
20441W        W88835  18.184  10.148  12.865
20442W        W88836  39.356  14.566  10.965
20443W        W88837  35.977  36.914  11.732
20444W        W88838  27.045  42.153   1.860
20445W        W88839   8.921  26.917   2.730
20446W        W88840   5.182  39.839   3.728
20447W        W88841  34.001  31.172  12.398
20448W        W88842  33.943   8.910   1.820
20449W        W88843  36.278  34.005  12.908
20450W        W88844   5.771   2.156  12.334
20451W        W88845   9.454  31.577   1.956
20452W        W88846  32.711  26.803   1.316
20453W        W88847  12.770  14.097   0.334
20454W        W88848  36.474  34.333  13.906
20455W        W88849  30.429  12.591   1.772
20456W        W88850  28.957  40.834   2.395
20457W        W88851  33.723   3.371   0.160
20458W        W88852  43.363   6.924   1.695
20459W        W88853  42.801  28.890  12.310
20460W        W88854   8.564  23.062   4.259
20461W        W88855   6.877  31.569  10.758
20462W        W88856  23.692  39.286   3.058
20463W        W88857  24.795   9.230   0.667
20464W        W88858  39.462  41.504   2.319
20465W        W88859  25.458   7.594  11.968
20466W        W88860  30.624   6.214  10.658
20467W        W88861  36.106  44.396   2.800
20468W        W88862  17.173  30.935  12.886
20469W        W88863  33.945  13.708   4.813
20470W        W88864  41.463  41.341   3.671
20471W        W88865  23.034   9.267  12.322
20472W        W88866  14.594  26.080   3.809
20473W        W88867  33.111  43.806   3.306
20474W        W88868  38.938  26.608  13.442
20475W        W88869  34.002   2.972  14.907
20476W        W88870  41.494   3.792  13.228
20477W        W88871   6.512  13.678  10.315
20478W        W88872  31.058  15.039  11.490
20479W        W88873  36.790  13.716  12.621
20480W        W88874  35.543  28.228  11.000
20481W        W88875  27.402  22.553  13.564
20482W        W88876  19.023   7.240   4.693
20483W        W88877  31.560  29.215   4.252
20484W        W88878  29.600  37.576  11.081
20485W        W88879  10.396  27.191  11.534
20486W        W88880   4.344  30.936   2.799
20487W        W88881  28.966   7.436   1.848
20488W        W88882  20.354  29.504  10.861
20489W        W88883   1.503  33.616  13.793
20490W        W88884   6.339  43.977  14.765
20491W        W88885  13.698  15.019  14.450
20492W        W88886  12.876  16.202   2.128
20493W        W88887   6.287   1.466   3.331
20494W        W88888  32.010  26.064   3.443
20495W        W88889  35.147  35.267  11.036
20496W        W88890  42.994  12.790   2.667
20497W        W88891   8.713  41.054  11.893
20498W        W88892   8.507  11.719   3.751
20499W        W88893  42.759   5.235  13.014
20500W        W88894  35.161  18.135  10.802
20501W        W88895   7.429   5.820  14.356
20502W        W88896   6.402  14.160   0.694
20503W        W88897  22.067  38.368   4.574
20504W        W88898  29.171   3.219   4.837
20505W        W88899  30.343  30.693  12.649
20506W        W88900  35.825  17.674   2.204
20507W        W88901  14.711  12.283   1.377
20508W        W88902  23.920  30.148  12.371
20509W        W88903  14.027  31.174  13.958
20510W        W88904  20.664  14.533   2.253
20511W        W88905  41.990  37.639  13.091
20512W        W88906  41.603  23.346  11.530
20513W        W88907  40.804   2.220  13.456
20514W        W88908  13.292   8.875  14.406
20515W        W88909  34.749  20.853   4.795
20516W        W88910  17.791  41.980  11.488
20517W        W88911   1.669  40.155   3.226
20518W        W88912  33.260  35.015   2.822
20519W        W88913  30.610  38.326  13.459
20520W        W88914  12.308  35.764   0.183
20521W        W88915  43.920  17.482   1.809
20522W        W88916  15.799   7.723  13.022
20523W        W88917   9.022  33.473  13.033
20524W        W88918  39.965   8.079  13.997
20525W        W88919  44.736  13.615  14.010
20526W        W88920  23.132  27.468  14.752
20527W        W88921   8.898  10.930  14.988
20528W        W88922  35.534  23.483  14.762
20529W        W88923  15.131  14.506  13.346
20530W        W88924  44.128  39.717   2.805
20531W        W88925  12.194  16.274  10.407
20532W        W88926   4.691  44.854  11.079
20533W        W88927  28.843   7.757  12.376
20534W        W88928  28.522  16.172   3.837
20535W        W88929  15.082  40.090   5.044
20536W        W88930   2.484   1.385   2.448
20537W        W88931  33.212   3.679   3.172
20538W        W88932  32.074  16.326   2.890
20539W        W88933  29.086  24.991  14.548
20540W        W88934  37.794  24.384  13.494
20541W        W88935  40.066  22.542   0.487
20542W        W88936  37.022  33.703  12.513
20543W        W88937  26.910  21.114  11.113
20544W        W88938  44.861   2.363  10.619
20545W        W88939  20.655  23.372  10.323
20546W        W88940  17.293  16.626  11.059
20547W        W88941  32.110  34.094   3.218
20548W        W88942  12.801  11.124  13.815
20549W        W88943  27.728  20.800  14.044
20550W        W88944  44.720  35.891  14.932
20551W        W88945  22.937  16.328  12.329
20552W        W88946  20.802   7.010   0.777
20553W        W88947  10.694  38.011   4.549
20554W        W88948  39.846  32.468  14.299
20555W        W88949   0.452  37.115  14.666
20556W        W88950  22.719  15.293   2.770
20557W        W88951  32.675  13.180   1.356
20558W        W88952  14.334  33.933   2.385
20559W        W88953  24.627  32.597  13.803
20560W        W88954  14.675  10.569   4.302
20561W        W88955  30.569   3.231   4.610
20562W        W88956  43.162  10.616  14.358
20563W        W88957   3.924  21.268   5.062
20564W        W88958  15.695  26.165  10.860
20565W        W88959   0.020  27.795  10.965
20566W        W88960  11.807  12.193   2.392
20567W        W88961  41.675   2.471   2.635
20568W        W88962   7.457  25.024  12.027
20569W        W88963   4.931  12.421   5.410
20570W        W88964  26.446  42.386  11.253
20571W        W88965  36.598  39.777  11.059
20572W        W88966  41.313  40.977   1.270
20573W        W88967  30.173  17.317  10.456
20574W        W88968  25.510  30.230   4.637
20575W        W88969  24.991  28.993  11.899
20576W        W88970  39.786  18.274  12.137
20577W        W88971  28.561  41.239  11.458
20578W        W88972  33.668  28.182   0.849
20579W        W88973  16.847  17.595  11.162
20580W        W88974  41.918  10.101  14.037
20581W        W88975  24.318  20.690  14.936
20582W        W88976  42.348  27.630   2.176
20583W        W88977  18.767  43.492  10.347
20584W        W88978   9.376  30.111  11.440
20585W        W88979  12.697  19.677  13.503
20586W        W88980  20.485  16.815   0.873
20587W        W88981  41.023  11.072   3.572
20588W        W88982  14.901  18.946  10.346
20589W        W88983  18.597   1.971   4.088
20590W        W88984  14.103  38.872  11.531
20591W        W88985  42.336  13.779   2.618
20592W        W88986  23.000   8.494  13.889
20593W        W88987  44.250  18.571   3.814
20594W        W88988  12.907  44.220  13.808
20595W        W88989  44.308   0.984   2.743
20596W        W88990  17.801  13.540   2.210
20597W        W88991   7.625   3.623   0.365
20598W        W88992  19.970   1.781  14.565
20599W        W88993  22.118  14.744  14.444
20600W        W88994  10.972  42.223   4.106
20601W        W88995   0.823  25.546   4.471
20602W        W88996  44.311  22.140  11.499
20603W        W88997  33.102   3.128  12.020
20604W        W88998   1.478  21.047  10.734
20605W        W88999   4.457  27.492  14.334
20606W        W89000  23.017  37.067  12.571
20607W        W89001   7.328  21.408  13.261
20608W        W89002   4.783  38.405  10.727
20609W        W89003  28.190  12.216  11.165
20610W        W89004  22.033  11.276  10.304
20611W        W89005  22.544  10.117   4.115
20612W        W89006  29.740  29.137  12.491
20613W        W89007  21.642  19.951  12.347
20614W        W89008  13.198  22.103  12.183
20615W        W89009  21.809   9.401  11.501
20616W        W89010  41.191  38.989  11.305
20617W        W89011  26.877   2.362   0.821
20618W        W89012  29.577   4.329   0.687
20619W        W89013   5.740  21.571  11.184
20620W        W89014  34.813  36.397   1.695
20621W        W89015  34.161  35.968  13.074
20622W        W89016   4.774  20.683  12.614
20623W        W89017  23.580   8.702   2.682
20624W        W89018   1.226   2.857  12.440
20625W        W89019  14.822  36.450  14.546
20626W        W89020  30.116   5.333   1.817
20627W        W89021  25.550  40.063   3.506
20628W        W89022   9.676  38.617   4.568
20629W        W89023   5.137   5.795  14.922
20630W        W89024  18.439   9.509  10.772
20631W        W89025  13.951  14.704  11.378
20632W        W89026  23.051   1.790  14.476
20633W        W89027  27.858  18.273  13.468
20634W        W89028  13.576  37.926   4.850
20635W        W89029  35.238  22.224   3.109
20636W        W89030  26.509  16.092  13.009
20637W        W89031   8.580   7.396  12.513
20638W        W89032  29.723   3.772   4.952
20639W        W89033  32.130  15.234  14.402
20640W        W89034  35.935  24.485  13.386
20641W        W89035  33.350  20.731   1.252
20642W        W89036   3.895   0.397  14.859
20643W        W89037  36.428  21.703   4.076
20644W        W89038  37.323  34.058  11.686
20645W        W89039  30.677  20.601  10.554
20646W        W89040  35.027   7.652   3.703
20647W        W89041  13.627  22.597  14.450
20648W        W89042  22.332   7.222   3.234
20649W        W89043  17.258   8.753  12.307
20650W        W89044  35.340   4.477  11.191
20651W        W89045  21.669  25.964   2.237
20652W        W89046  10.892  39.562   1.852
20653W        W89047   3.650  40.717   1.345
20654W        W89048  18.651   5.609   3.496
20655W        W89049   0.844  13.977  12.597
20656W        W89050  37.479  42.533   3.179
20657W        W89051  17.843  28.582  10.692
20658W        W89052   8.601  38.997   4.145
20659W        W89053  32.437  26.520   4.053
20660W        W89054  19.121  32.354   0.721
20661W        W89055  36.813  28.525  11.605
20662W        W89056  23.903  16.639   3.578
20663W        W89057  44.676  12.848  13.681
20664W        W89058  31.102  21.060  13.422
20665W        W89059  20.522  14.456  13.915
20666W        W89060  12.618  32.101  14.340
20667W        W89061  15.610  17.653  10.776
20668W        W89062   8.948   3.569  11.126
20669W        W89063  16.718  11.156  12.551
20670W        W89064  11.644  33.449  10.734
20671W        W89065  22.126  42.299   0.454
20672W        W89066  41.377  11.780  11.271
20673W        W89067  36.069  35.860  12.828
20674W        W89068  11.793  31.724  13.074
20675W        W89069  10.825   7.280  12.097
20676W        W89070   9.776  12.159  13.852
20677W        W89071  17.780   3.358   1.205
20678W        W89072  37.187  18.281  12.725
20679W        W89073   0.096  36.296  11.102
20680W        W89074  17.961  13.860   2.807
20681W        W89075  37.265   9.316   0.336
20682W        W89076  10.714  20.772   0.514
20683W        W89077  18.049  31.383  10.385
20684W        W89078  20.758  35.400   1.190
20685W        W89079  43.014  17.821   2.694
20686W        W89080  22.477  23.646   2.814
20687W        W89081   7.286  31.437   1.653
20688W        W89082  43.832   1.307  12.268
20689W        W89083  44.698  13.213   3.638
20690W        W89084  37.298  19.313  13.184
20691W        W89085  33.861  14.256   2.924
20692W        W89086  24.522  22.723   1.324
20693W        W89087  33.699  11.494   0.275
20694W        W89088   2.504   8.312  14.004
20695W        W89089  11.090  10.810  14.412
20696W        W89090  30.117  32.847   0.860
20697W        W89091  44.351  33.705  11.435
20698W        W89092   5.434   1.478  14.404
20699W        W89093  43.230  33.074  11.062
20700W        W89094  31.813  30.245   3.766
20701W        W89095  43.541  34.475  10.220
20702W        W89096  38.988   1.211  14.232
20703W        W89097  33.744  36.110  10.802
20704W        W89098  31.283  11.623  10.616
20705W        W89099  44.827  26.388  12.667
20706W        W89100   6.668   3.775   4.104
20707W        W89101  36.522  40.779   2.717
20708W        W89102  39.305  10.923   2.737
20709W        W89103  33.509  16.181   2.929
20710W        W89104  31.199  37.725  12.327
20711W        W89105  39.053  24.490  13.970
20712W        W89106  35.481  24.622  11.517
20713W        W89107  18.564  18.732   2.274
20714W        W89108  20.390  37.908   0.549
20715W        W89109  27.691   6.649  11.058
20716W        W89110  11.326   6.771  12.507
20717W        W89111  33.523  11.767  11.495
20718W        W89112  17.579  14.148   0.834
20719W        W89113  32.399  11.808  13.414
20720W        W89114  29.885  42.834   2.733
20721W        W89115  27.192  17.128  13.884
20722W        W89116   7.638  14.200  14.610
20723W        W89117   7.742  38.843   2.820
20724W        W89118   5.310   5.176   3.594
20725W        W89119  33.119  22.148   0.776
20726W        W89120  29.362  39.526  11.307
20727W        W89121  29.521  20.151   1.804
20728W        W89122   5.271   0.341   3.680
20729W        W89123  30.193  16.215   2.225
20730W        W89124  34.321  19.531  14.299
20731W        W89125   2.969   7.792  10.749
20732W        W89126  42.523  14.945  12.914
20733W        W89127  44.014   5.265   2.828
20734W        W89128   4.728  11.620  12.985
20735W        W89129  27.362   8.339   1.776
20736W        W89130  44.708  18.327   0.899
20737W        W89131  27.391  25.059   4.587
20738W        W89132   5.325  17.044  13.804
20739W        W89133  23.594  15.693   1.764
20740W        W89134   1.541  36.143   3.160
20741W        W89135  26.110   1.885   4.986
20742W        W89136  36.056  32.579   0.702
20743W        W89137  40.604   1.707  12.566
20744W        W89138   5.242   5.204   0.775
20745W        W89139  28.629  43.419  10.229
20746W        W89140  14.758  30.099   0.722
20747W        W89141  22.304  21.861   2.829
20748W        W89142  11.410   4.807  13.876
20749W        W89143   4.466  43.433  13.313
20750W        W89144   0.724  18.313   2.585
20751W        W89145   4.528  10.769   2.670
20752W        W89146  23.810  16.743   4.108
20753W        W89147  20.263  20.812   2.839
20754W        W89148   2.130  15.669  14.885
20755W        W89149  18.652  16.309   1.956
20756W        W89150  44.490   4.920   1.645
20757W        W89151  32.539   9.852   1.269
20758W        W89152  31.818  12.374  12.976
20759W        W89153  42.433  37.836   4.135
20760W        W89154   7.890  31.672  11.797
20761W        W89155  13.693  25.767   0.896
20762W        W89156   5.764  28.886  10.699
20763W        W89157  36.569   2.394   2.186
20764W        W89158   1.224   0.886   4.022
20765W        W89159  21.149  40.290   0.894
20766W        W89160  25.971  21.510  14.535
20767W        W89161  30.112   2.789   0.709
20768W        W89162  33.990  34.413   4.776
20769W        W89163  36.934   6.575  14.305
20770W        W89164  14.350  22.508   3.870
20771W        W89165  37.887   5.319  11.167
20772W        W89166  21.965  26.631   4.574
20773W        W89167   0.249  26.019  14.919
20774W        W89168  31.132  32.222   4.626
20775W        W89169  37.572  38.947  12.480
20776W        W89170  34.114  26.235   1.765
20777W        W89171  36.779  39.418   2.783
20778W        W89172  19.958  25.942   0.116
20779W        W89173  18.591   6.275  11.142
20780W        W89174  32.907  35.035   4.116
20781W        W89175   5.432   6.049   3.650
20782W        W89176  39.017  27.698   3.258
20783W        W89177  11.313  37.393  13.599
20784W        W89178  29.150  43.223  14.558
20785W        W89179  12.681  27.595  11.722
20786W        W89180  15.055   2.620   0.422
20787W        W89181  12.847   3.487  11.354
20788W        W89182   2.825  27.926   3.355
20789W        W89183  41.958  11.441  14.880
20790W        W89184   9.298  23.221  13.848
20791W        W89185   8.373  13.577  11.567
20792W        W89186  10.281   3.579  13.333
20793W        W89187   9.689  16.067   4.719
20794W        W89188  30.178   6.135   4.284
20795W        W89189  44.531  43.300   2.740
20796W        W89190  40.053  10.498   0.510
20797W        W89191  11.810  37.549  11.620
20798W        W89192  15.629   2.715  13.259
20799W        W89193  17.111   4.131   1.934
20800W        W89194   1.809  43.443  10.738
20801W        W89195  27.779  42.360   2.897
20802W        W89196  32.117  44.075  12.669
20803W        W89197  12.591   7.333  13.330
20804W        W89198   5.524  39.622   2.615
20805W        W89199  43.792  21.319  14.203
20806W        W89200   0.416  15.032   3.262
20807W        W89201   4.787  36.390  11.210
20808W        W89202  14.869  27.580  10.645
20809W        W89203  11.804  38.005   1.358
20810W        W89204  19.752  17.548  13.805
20811W        W89205  14.006  12.633  14.480
20812W        W89206  14.965  39.467  10.325
20813W        W89207  34.496   3.243  14.915
20814W        W89208  18.437  25.758  11.155
20815W        W89209  16.571  14.590  11.162
20816W        W89210   8.949  23.980  13.757
20817W        W89211  13.205  39.785   1.242
20818W        W89212  29.056  18.252  13.713
20819W        W89213  34.117  26.109  13.739
20820W        W89214  32.820   7.591   0.011
20821W        W89215  18.984   6.637  11.075
20822W        W89216  39.577  20.002  11.320
20823W        W89217  33.047  12.753   1.318
20824W        W89218  18.567  39.321  14.050
20825W        W89219  29.535  38.554   0.655
20826W        W89220  35.766  36.014   3.113
20827W        W89221  39.945  27.655  14.356
20828W        W89222  12.235  36.841  14.276
20829W        W89223   5.985   5.940   3.654
20830W        W89224  34.131  11.952  10.763
20831W        W89225  27.620  37.273  12.518
20832W        W89226  43.379  31.262   0.996
20833W        W89227   9.586  36.493  14.440
20834W        W89228  11.513  23.938  11.217
20835W        W89229  20.112   5.672  12.420
20836W        W89230  19.983  37.636   4.079
20837W        W89231  20.568  21.317   2.835
20838W        W89232  39.339  39.108  12.013
20839W        W89233   7.374  23.073   3.310
20840W        W89234   0.082  26.130  13.960
20841W        W89235  30.207  36.947   3.674
20842W        W89236  31.154  40.848   2.940
20843W        W89237  12.872  38.271  14.571
20844W        W89238  12.343   1.401  13.415
20845W        W89239  18.078  33.345  13.990
20846W        W89240  10.868   6.671  11.633
20847W        W89241  12.246  18.728  11.686
20848W        W89242  12.596  14.065   4.230
20849W        W89243  33.851   9.314   4.231
20850W        W89244  42.695   7.329  12.636
20851W        W89245   5.427  24.352  14.031
20852W        W89246  21.043   1.836  12.041
20853W        W89247  34.041  15.111   4.123
20854W        W89248  15.179  26.386  14.390
20855W        W89249  10.780   7.830  14.716
20856W        W89250   9.365  14.525   1.483
20857W        W89251  36.583  37.446   0.647
20858W        W89252  14.265   7.761  11.082
20859W        W89253  13.309  11.448  11.983
20860W        W89254  23.236  12.272   3.701
20861W        W89255  40.941  18.055  12.300
20862W        W89256  11.142  15.213   0.239
20863W        W89257  38.653  15.237   3.799
20864W        W89258   1.417  10.976   2.011
20865W        W89259  42.783  41.779  10.722
20866W        W89260  35.502  19.664   4.295
20867W        W89261  30.055  31.124  13.624
20868W        W89262   3.793   3.493  12.501
20869W        W89263  18.759  20.154  10.102
20870W        W89264  23.948  19.168  10.569
20871W        W89265  33.412  36.337  11.126
20872W        W89266   5.667  26.603   4.092
20873W        W89267   0.726  15.071   0.465
20874W        W89268  44.260  40.946  11.992
20875W        W89269  27.271  42.803   0.587
20876W        W89270   4.755  44.432   4.141
20877W        W89271  41.015   2.630   1.261
20878W        W89272  32.778  15.550   4.448
20879W        W89273  15.064   4.541  13.616
20880W        W89274   2.131  28.887   3.890
20881W        W89275  11.368  22.938  11.238
20882W        W89276  26.233  41.108   0.590
20883W        W89277   4.450  20.564  14.472
20884W        W89278  15.666  34.055   4.528
20885W        W89279  35.193  15.126  14.581
20886W        W89280  32.647  44.983   0.479
20887W        W89281  19.635   2.718  12.579
20888W        W89282  32.523  15.804  10.564
20889W        W89283  18.723  43.933  11.671
20890W        W89284  44.204  41.034  11.022
20891W        W89285  34.595  14.599  13.518
20892W        W89286  25.784  44.116   0.136
20893W        W89287  14.758  11.446  12.804
20894W        W89288  28.189  14.230   0.746
20895W        W89289  29.581  31.370  13.576
20896W        W89290  13.259  28.587  14.565
20897W        W89291  22.762  12.730  13.330
20898W        W89292   2.124  11.155   0.797
20899W        W89293   6.746  40.821   0.964
20900W        W89294  19.224   5.131  11.115
20901W        W89295  22.520  10.242  12.182
20902W        W89296  12.193  31.336  13.810
20903W        W89297  15.124  39.948   0.561
20904W        W89298  19.362   2.958   2.828
20905W        W89299   0.940  25.711   3.294
20906W        W89300  14.139   1.382   4.573
20907W        W89301  27.454  14.316   1.387
20908W        W89302  29.924  38.512  14.582
20909W        W89303   0.828  26.016   4.791
20910W        W89304   7.262  32.972   0.072
20911W        W89305  12.478   9.259   2.727
20912W        W89306  28.842  21.192   3.139
20913W        W89307  37.980  40.045  14.271
20914W        W89308  44.785  31.524   2.308
20915W        W89309   8.385   1.779   0.225
20916W        W89310  31.121  37.728   3.963
20917W        W89311  29.299  36.857   3.219
20918W        W89312  44.199  32.163  12.526
20919W        W89313  27.141  20.039   0.531
20920W        W89314  28.039  27.440  14.885
20921W        W89315   2.367  18.050   0.913
20922W        W89316  37.550   7.485   4.324
20923W        W89317  26.468  29.678   0.329
20924W        W89318  14.130  29.010  13.364
20925W        W89319  40.993   9.819   0.790
20926W        W89320  18.873  38.002   0.391
20927W        W89321  18.566  43.573   1.350
20928W        W89322  34.929   0.861  14.013
20929W        W89323  11.094   5.315   4.655
20930W        W89324  11.388   0.822   3.692
20931W        W89325  25.477  24.775   1.738
20932W        W89326  37.955   9.828  12.016
20933W        W89327  30.674  30.354  11.501
20934W        W89328  26.942  26.926   3.669
20935W        W89329  18.209  38.551  12.469
20936W        W89330  28.502   0.889  13.332
20937W        W89331  40.892  13.630  11.944
20938W        W89332   5.418  39.781  14.604
20939W        W89333  42.267   9.336  14.680
20940W        W89334   8.324  14.673  14.685
20941W        W89335  31.160  21.655  14.355
20942W        W89336   7.214   0.481  11.710
20943W        W89337   9.368  18.577   2.586
20944W        W89338   6.512   2.288  13.464
20945W        W89339  35.607  23.613   4.123
20946W        W89340  43.578  11.397   1.756
20947W        W89341  38.069  30.790  11.067
20948W        W89342   6.223  25.286  13.323
20949W        W89343  13.345   0.314   0.233
20950W        W89344  42.896  23.060  13.890
20951W        W89345   5.433  18.257  11.248
20952W        W89346  26.188   1.014   2.254
20953W        W89347  14.359  43.307  12.488
20954W        W89348  24.413  36.354   1.820
20955W        W89349   5.858  28.874  11.202
20956W        W89350  26.636  32.443  12.928
20957W        W89351  29.398  10.601  14.750
20958W        W89352  41.481   5.216   0.272
20959W        W89353  32.090   0.533  14.764
20960W        W89354  24.966   6.776  13.478
20961W        W89355  24.512  34.013   2.834
20962W        W89356  44.556  22.124   0.497
20963W        W89357  40.782  14.675   2.885
20964W        W89358  15.868  31.062   4.266
20965W        W89359  10.702  21.731   3.759
20966W        W89360  41.291   2.872  11.105
20967W        W89361  34.382   9.060   1.568
20968W        W89362  20.726  34.200  14.383
20969W        W89363   3.383  26.263   2.255
20970W        W89364  23.016  17.705  11.043
20971W        W89365  18.228  10.926  14.516
20972W        W89366   8.622  18.357   2.291
20973W        W89367  21.970  38.853  14.878
20974W        W89368  36.490   9.595  13.941
20975W        W89369  30.911  25.563  12.605
20976W        W89370   1.861   5.452   1.009
20977W        W89371   9.554   9.615  13.506
20978W        W89372  36.896   8.213  11.133
20979W        W89373  31.127  14.205   3.209
20980W        W89374  11.589  38.008   0.119
20981W        W89375   6.232   7.901  11.553
20982W        W89376   6.904  12.065   4.272
20983W        W89377   1.549  30.768   2.408
20984W        W89378   7.383  19.383  11.071
20985W        W89379  44.390   1.367   0.182
20986W        W89380  18.913  17.167  13.790
20987W        W89381  16.761  26.504   2.524
20988W        W89382  18.201  41.950  11.168
20989W        W89383   4.342   6.191  10.651
20990W        W89384  32.967  23.005   0.395
20991W        W89385  42.336  15.254  14.061
20992W        W89386  18.805  15.186   4.501
20993W        W89387   2.441  25.222   0.822
20994W        W89388  33.466   5.628  13.920
20995W        W89389  43.146  37.093  14.734
20996W        W89390   6.199   2.002  12.832
20997W        W89391   8.022   7.526   5.111
20998W        W89392  22.706  24.668   0.494
20999W        W89393  12.448  16.259   4.067
21000W        W89394  21.103  23.209   2.135
21001W        W89395  18.368  44.009   4.124
21002W        W89396  13.892  44.500  11.720
21003W        W89397   3.730  15.962   1.926
21004W        W89398  28.005  13.656  12.096
21005W        W89399  23.624  21.729  13.579
21006W        W89400  42.020  17.606  13.494
21007W        W89401  24.952  41.426  13.884
21008W        W89402   6.167  25.586  12.847
21009W        W89403  40.472  35.485   1.043
21010W        W89404   0.632  34.467  11.942
21011W        W89405  25.513   7.868  12.454
21012W        W89406  12.810  38.533   4.743
21013W        W89407  42.501  41.260  10.589
21014W        W89408   9.669   4.969  12.950
21015W        W89409  26.481  24.247   4.497
21016W        W89410  35.580   6.356   3.319
21017W        W89411  36.414   3.638   1.754
21018W        W89412  18.573   6.462   4.089
21019W        W89413  21.616  32.036   9.746
21020W        W89414  33.605  32.131  13.882
21021W        W89415  28.762  37.963  12.969
21022W        W89416  30.561  10.795  11.949
21023W        W89417  17.072  30.473   2.816
21024W        W89418  15.411  29.508  12.267
21025W        W89419  10.236  41.240  13.048
21026W        W89420  27.462  40.006   0.986
21027W        W89421  39.493  10.039   3.657
21028W        W89422  22.155  17.861  13.392
21029W        W89423  31.855  11.281  14.053
21030W        W89424  24.607  12.812  10.248
21031W        W89425  27.409  32.333  13.375
21032W        W89426  21.175  26.055   1.245
21033W        W89427   3.456  16.214  13.368
21034W        W89428  22.073  44.779  11.901
21035W        W89429   8.189  26.667   2.728
21036W        W89430  39.853  35.671   4.872
21037W        W89431  24.122  13.406   3.852
21038W        W89432  44.883  41.697  14.504
21039W        W89433   5.117  42.257   3.743
21040W        W89434  42.786  37.412  12.952
21041W        W89435  12.621  44.264   2.414
21042W        W89436  32.611  28.606   1.766
21043W        W89437  27.758  13.419  11.599
21044W        W89438   2.815   5.414   2.512
21045W        W89439  22.091  12.034   0.243
21046W        W89440  44.277  26.753   3.246
21047W        W89441   2.436  20.816  11.891
21048W        W89442   3.645  43.668  12.957
21049W        W89443   7.336  32.576  10.895
21050W        W89444  24.645  23.728   3.375
21051W        W89445  13.677   3.882   2.167
21052W        W89446  26.146  36.146   0.299
21053W        W89447  11.141   2.212  11.220
21054W        W89448  20.325  27.179   0.867
21055W        W89449  36.609  38.097  14.287
21056W        W89450  13.856  28.064  10.312
21057W        W89451  33.620  20.550   0.344
21058W        W89452   2.417  26.140   3.251
21059W        W89453  14.112  26.463   3.015
21060W        W89454  23.311   5.434  10.841
21061W        W89455   8.350  37.475   1.820
21062W        W89456   2.344  44.846  14.485
21063W        W89457   7.295  22.659   0.430
21064W        W89458  17.038  40.004  13.441
21065W        W89459   1.989  42.348   4.609
21066W        W89460  31.916   7.889   1.437
21067W        W89461  35.405  26.154  11.671
21068W        W89462  27.404   3.990  13.570
21069W        W89463  32.447  18.043  14.201
21070W        W89464  37.208  17.253   2.124
21071W        W89465   0.152  35.876  13.845
21072W        W89466   3.912  21.288   2.354
21073W        W89467  35.549  22.058  12.006
21074W        W89468  18.686  33.899  13.370
21075W        W89469  20.699  19.762   1.878
21076W        W89470  23.781  17.681   0.728
21077W        W89471  33.928  16.774  12.905
21078W        W89472  20.273  17.727  12.816
21079W        W89473   0.746  27.046   0.310
21080W        W89474  41.603   2.864   0.388
21081W        W89475  24.601  21.282   4.125
21082W        W89476  41.701  33.128   1.944
21083W        W89477   6.194  32.464  11.134
21084W        W89478  13.844   1.232   1.981
21085W        W89479  35.865  17.248  14.051
21086W        W89480  35.660   3.368   3.426
21087W        W89481  16.537  16.150  11.150
21088W        W89482  28.260  13.072  10.610
21089W        W89483  11.786  21.451   1.969
21090W        W89484  35.030  35.604  13.364
21091W        W89485  23.057  27.945  14.554
21092W        W89486  26.914  20.039   1.443
21093W        W89487  20.795  21.252  14.517
21094W        W89488   8.689  44.495   2.671
21095W        W89489  22.962  21.533   1.453
21096W        W89490  19.103  44.736   1.266
21097W        W89491  43.974  43.659   1.951
21098W        W89492   1.398   3.199   1.635
21099W        W89493  32.264  14.467   1.301
21100W        W89494  42.994  13.044  12.442
21101W        W89495  26.794  15.825  11.414
21102W        W89496  23.679   8.755  10.216
21103W        W89497  23.767  10.821   1.537
21104W        W89498  32.070  25.310   0.708
21105W        W89499  14.755  19.149   1.821
21106W        W89500  21.557   9.843   0.504
21107W        W89501  19.203  34.984   4.466
21108W        W89502   9.942   8.676  13.463
21109W        W89503  44.972  19.671   4.555
21110W        W89504  31.876  34.015   0.137
21111W        W89505  44.016  31.919   2.278
21112W        W89506  12.898  28.054   2.359
21113W        W89507  41.011   8.200   0.102
21114W        W89508  27.774  34.560   2.215
21115W        W89509  17.596  43.379  13.091
21116W        W89510  37.851   6.279   3.124
21117W        W89511  28.819  14.388   1.702
21118W        W89512  13.785   5.795   3.612
21119W        W89513  39.075  22.645  12.885
21120W        W89514   5.763  14.499   0.939
21121W        W89515  20.836  43.069  10.409
21122W        W89516  19.490  25.625   5.016
21123W        W89517  27.689   4.987   2.719
21124W        W89518  33.645  42.899  13.476
21125W        W89519  23.700  25.250  11.151
21126W        W89520  22.452   8.234   0.295
21127W        W89521   5.030  39.575  13.447
21128W        W89522  30.508  22.545  11.249
21129W        W89523   0.804   4.185   0.155
21130W        W89524  29.166  32.395   0.552
21131W        W89525  11.212  33.411  11.676
21132W        W89526   8.709  41.960  10.438
21133W        W89527  25.145  21.303  12.457
21134W        W89528   0.821  28.404  14.982
21135W        W89529   6.341  15.404  12.944
21136W        W89530  30.481  22.983   4.330
21137W        W89531  32.665   5.409   2.259
21138W        W89532  22.540  30.259  13.598
21139W        W89533   7.673  44.288   2.681
21140W        W89534   5.787  28.493   3.332
21141W        W89535   1.761  25.899  13.169
21142W        W89536   7.611  23.133   0.768
21143W        W89537   4.565  12.612  11.871
21144W        W89538  23.027   8.344  10.713
21145W        W89539  15.089  11.887   1.284
21146W        W89540   3.485  39.657   1.774
21147W        W89541   4.329  29.939   4.298
21148W        W89542  23.979   1.059   4.949
21149W        W89543  27.757  21.622  11.380
21150W        W89544  31.013   1.830   2.549
21151W        W89545  40.737  40.816   3.778
21152W        W89546   6.886  26.853  12.911
21153W        W89547   7.240  38.237  11.170
21154W        W89548  41.882  16.048   4.531
21155W        W89549  37.865  17.210   2.892
21156W        W89550  15.820  12.682   4.683
21157W        W89551   7.261   1.373   3.506
21158W        W89552  13.788  24.707  13.906
21159W        W89553  17.852  29.345  11.468
21160W        W89554   3.285  23.746   4.125
21161W        W89555  24.558  28.131  13.585
21162W        W89556  26.392  22.699   1.903
21163W        W89557  40.450  43.926   3.287
21164W        W89558   7.635  24.402  11.244
21165W        W89559  25.133   4.219  14.084
21166W        W89560  16.390  30.669  12.966
21167W        W89561   8.155  20.162   4.106
21168W        W89562  30.321  16.327  11.120
21169W        W89563  34.871   9.735  13.020
21170W        W89564  24.581  36.532   0.871
21171W        W89565  31.029  33.400   0.871
21172W        W89566   1.515  32.503  11.172
21173W        W89567  11.254  32.134  13.282
21174W        W89568  22.988   9.506  13.430
21175W        W89569  29.678  19.369  14.337
21176W        W89570  25.490  43.112   3.153
21177W        W89571  12.756   7.831   4.278
21178W        W89572   6.896  37.989   4.698
21179W        W89573   6.556  42.411   1.144
21180W        W89574  24.798  13.340   2.470
21181W        W89575  11.680  23.258  10.836
21182W        W89576  27.653  30.094  10.709
21183W        W89577  41.355  32.614   1.321
21184W        W89578  29.587  42.842   1.712
21185W        W89579   8.658  43.274   2.101
21186W        W89580   5.139   3.373  12.539
21187W        W89581  10.931  41.796  11.538
21188W        W89582  18.652  17.379   0.919
21189W        W89583   9.932  37.967   2.740
21190W        W89584   5.447   9.129   4.526
21191W        W89585   6.324  20.809   4.529
21192W        W89586  24.976  22.275   2.372
21193W        W89587   9.185   9.206   0.063
21194W        W89588  18.796  14.651   4.158
21195W        W89589  21.849  21.668   0.887
21196W        W89590  17.818   1.335  11.414
21197W        W89591  38.722  20.725   5.025
21198W        W89592  22.770  13.153  11.455
21199W        W89593   4.622  39.099   0.865
21200W        W89594  18.083  22.283  14.115
21201W        W89595  20.925  13.618  11.547
21202W        W89596   7.317   7.473  10.932
21203W        W89597  16.898  12.413   1.913
21204W        W89598   7.647  15.354  12.383
21205W        W89599  27.269  13.161   3.707
21206W        W89600  10.627  14.604  13.855
21207W        W89601  13.082  15.739   1.934
21208W        W89602   2.722  19.273  14.967
21209W        W89603  44.316  25.014   0.323
21210W        W89604  38.814  33.795  11.742
21211W        W89605  32.657  36.445   0.031
21212W        W89606   9.369   7.175   1.719
21213W        W89607   8.590  13.357   1.129
21214W        W89608   9.097  35.446   4.196
21215W        W89609  28.472  27.058  11.721
21216W        W89610  35.952  27.038   3.426
21217W        W89611  10.152  17.286   3.275
21218W        W89612   0.008  24.743   3.662
21219W        W89613  30.600  21.232  10.747
21220W        W89614  44.385  29.416  13.335
21221W        W89615  27.184   6.916   3.661
21222W        W89616  36.144  28.489  13.998
21223W        W89617  29.422  35.892   9.906
21224W        W89618   2.161  23.420  11.187
21225W        W89619   2.251  15.021  12.847
21226W        W89620  43.331  31.303  11.219
21227W        W89621  30.718  26.536   3.618
21228W        W89622  30.176  44.473  14.738
21229W        W89623  18.397  18.416   5.247
21230W        W89624  33.436   5.728  11.541
21231W        W89625  15.419  32.449   0.929
21232W        W89626  23.239  39.103   2.653
21233W        W89627  23.748  44.308   1.671
21234W        W89628   8.404   7.160   0.339
21235W        W89629  25.091  16.538   0.027
21236W        W89630  38.914  24.889  14.279
21237W        W89631  43.538   1.250  14.508
21238W        W89632  27.796  19.172   1.179
21239W        W89633  33.173  36.009  11.544
21240W        W89634  37.774  28.015   2.423
21241W        W89635  33.849  20.215   1.863
21242W        W89636  11.196   9.228   0.087
21243W        W89637  26.599  44.306   4.406
21244W        W89638  29.632  40.062  10.322
21245W        W89639  30.189  36.461  10.680
21246W        W89640   3.884  25.501   0.024
21247W        W89641  22.623   6.224   3.294
21248W        W89642  41.626   9.582  11.407
21249W        W89643  11.533  37.966  11.399
21250W        W89644  35.853  35.831   2.200
21251W        W89645  13.785  41.181   0.420
21252W        W89646  11.456  30.565  13.364
21253W        W89647  31.148   0.736  12.456
21254W        W89648  10.845  30.442  13.889
21255W        W89649   9.190  22.444  11.266
21256W        W89650  17.621  38.497  11.338
21257W        W89651  40.941  20.117  12.012
21258W        W89652  22.724  13.319   2.391
21259W        W89653  13.215  20.112   3.847
21260W        W89654  18.233  44.874  12.115
21261W        W89655  30.265  40.999  11.993
21262W        W89656  25.665  28.414   0.934
21263W        W89657  18.226   4.895   1.814
21264W        W89658  17.588  15.258   3.882
21265W        W89659  31.956  12.759  12.515
21266W        W89660  35.136  23.074  13.576
21267W        W89661  15.902   0.312   3.039
21268W        W89662   9.977  11.169   4.505
21269W        W89663  16.465   0.777  11.269
21270W        W89664   2.243   0.965   2.237
21271W        W89665  18.975  23.226  12.067
21272W        W89666  22.736  24.176   2.386
21273W        W89667  44.362   6.098  13.679
21274W        W89668  20.103  10.654  11.570
21275W        W89669  31.125  26.578  14.863
21276W        W89670  12.265  24.360   1.772
21277W        W89671  16.057  18.297  11.554
21278W        W89672  37.073  40.763  13.940
21279W        W89673  29.185   4.495   4.619
21280W        W89674  17.541  39.815   3.220
21281W        W89675  36.467  33.240  11.844
21282W        W89676  16.089  17.848  13.741
21283W        W89677  34.931  21.595   3.429
21284W        W89678  22.747  12.109  13.945
21285W        W89679  34.265  33.676  14.901
21286W        W89680  44.329  18.815  13.154
21287W        W89681  29.155  38.287  11.582
21288W        W89682   1.379  35.669   0.946
21289W        W89683  20.244  35.343  11.575
21290W        W89684  17.477  20.682   9.865
21291W        W89685   4.400  17.174  13.342
21292W        W89686  39.317  31.691   2.414
21293W        W89687  36.382  13.357   1.507
21294W        W89688  23.250   9.129   0.872
21295W        W89689  40.303  28.210  12.530
21296W        W89690  20.585  13.585  13.763
21297W        W89691  16.570   5.844   4.007
21298W        W89692  43.521  12.856   0.432
21299W        W89693  43.790  30.150   0.126
21300W        W89694  41.490  31.289   3.398
21301W        W89695  44.155  19.187   2.085
21302W        W89696  17.249  40.362   1.800
21303W        W89697  27.097   5.638   4.089
21304W        W89698  20.038  25.190  12.997
21305W        W89699   6.758  33.158   0.144
21306W        W89700   3.211  42.220  14.241
21307W        W89701  15.555  34.492  10.711
21308W        W89702  33.511   2.023  14.060
21309W        W89703  21.320  41.790  11.607
21310W        W89704   9.270  20.000  13.391
21311W        W89705  15.999  41.712   0.918
21312W        W89706  41.171  35.075   1.816
21313W        W89707  24.037   6.525   0.854
21314W        W89708  12.670  15.367  13.533
21315W        W89709  29.967  11.297   4.343
21316W        W89710  10.138  25.240  13.075
21317W        W89711  30.395  32.347   1.631
21318W        W89712  27.914  10.405  13.531
21319W        W89713  26.593  10.697  12.622
21320W        W89714   1.807  41.047   3.690
21321W        W89715   4.891  34.269   2.792
21322W        W89716  34.077  20.303  12.905
21323W        W89717  29.477  18.020   2.803
21324W        W89718  21.197  43.331  11.145
21325W        W89719   4.416  44.446  13.652
21326W        W89720  37.483   5.919  12.068
21327W        W89721   4.803  16.753  12.159
21328W        W89722  20.536  25.467   2.370
21329W        W89723  40.865  14.342   3.726
21330W        W89724  30.802  13.263  12.161
21331W        W89725  11.805  16.620  10.700
21332W        W89726   4.945  22.697   1.754
21333W        W89727   0.146   7.311   1.294
21334W        W89728  41.466  15.753   4.672
21335W        W89729  43.422   7.346  11.760
21336W        W89730  24.969  35.344  12.939
21337W        W89731  26.456  20.142  14.838
21338W        W89732  12.875   2.665  10.660
21339W        W89733   2.510  13.914  13.576
21340W        W89734   9.499   1.261   0.539
21341W        W89735  39.500  21.725  12.579
21342W        W89736  39.937   8.695   4.383
21343W        W89737   4.264  22.256  14.758
21344W        W89738  43.259   0.035  12.985
21345W        W89739   7.853  18.816  14.769
21346W        W89740  23.633  19.849   4.259
21347W        W89741  18.578  13.093  14.310
21348W        W89742  35.350  17.265   2.346
21349W        W89743  30.110  12.325   2.751
21350W        W89744  33.449  16.359  14.508
21351W        W89745  26.596  34.341  12.509
21352W        W89746  37.809   8.662  14.745
21353W        W89747  21.211   7.899   3.350
21354W        W89748  23.364  44.948  10.685
21355W        W89749   3.694  16.531   0.261
21356W        W89750   4.888  17.786  10.672
21357W        W89751  18.915  42.299   3.233
21358W        W89752  32.587  14.199  12.015
21359W        W89753  40.290  15.345  11.493
21360W        W89754  15.713   9.288  12.059
21361W        W89755   2.853   9.147   3.935
21362W        W89756  17.034   7.221   2.696
21363W        W89757  43.932   1.669   0.832
21364W        W89758  10.493  11.211   4.613
21365W        W89759  28.510  25.743  12.394
21366W        W89760  42.811  43.801  11.727
21367W        W89761  36.622  44.856  11.666
21368W        W89762  22.970  30.467  12.842
21369W        W89763   8.745  43.764   1.820
21370W        W89764  26.732  19.087   0.326
21371W        W89765   7.117  39.729   3.795
21372W        W89766  32.098  34.411   4.546
21373W        W89767  21.164  34.552  12.183
21374W        W89768  16.610   5.346  14.136
21375W        W89769  32.101  43.650  13.965
21376W        W89770  19.679  13.846  11.106
21377W        W89771  35.385  42.398  13.103
21378W        W89772  22.767  42.268  11.952
21379W        W89773   7.889   2.826   4.392
21380W        W89774  41.578  37.507  11.578
21381W        W89775  35.986  38.343  14.602
21382W        W89776  40.467  39.982   1.332
21383W        W89777  32.974  36.456  11.355
21384W        W89778  17.510  34.138   3.147
21385W        W89779  12.900  19.211  13.447
21386W        W89780  13.204  27.453  14.197
21387W        W89781   6.644   0.961   2.475
21388W        W89782  25.469  42.342   2.382
21389W        W89783  17.264  25.471   4.161
21390W        W89784  24.893   7.783   3.073
21391W        W89785   1.508  32.317   2.317
21392W        W89786  36.539  22.120   4.896
21393W        W89787   1.453  37.341   2.352
21394W        W89788  21.482  35.986  10.488
21395W        W89789  37.574  14.425   0.744
21396W        W89790  29.023  13.811  10.896
21397W        W89791  23.273  41.725   1.026
21398W        W89792  42.112  13.682  13.519
21399W        W89793   9.839  37.255  12.037
21400W        W89794  23.938   0.982   4.204
21401W        W89795  10.559  31.820  12.042
21402W        W89796  33.536   5.161  14.870
21403W        W89797   5.066  15.349   3.278
21404W        W89798  32.162  33.395  11.529
21405W        W89799  18.520  26.164   2.285
21406W        W89800  34.764   3.351  13.916
21407W        W89801  13.160  14.813   2.827
21408W        W89802  30.726  41.774   3.524
21409W        W89803  12.736  40.428   2.444
21410W        W89804  43.736   0.448   4.613
21411W        W89805  43.932  40.991   2.781
21412W        W89806  38.441  44.213   1.367
21413W        W89807  23.695  17.072   2.785
21414W        W89808  23.604   4.282  10.961
21415W        W89809  30.029   9.694   2.958
21416W        W89810  13.389  18.116  12.093
21417W        W89811  37.828  39.041   3.665
21418W        W89812  10.827  14.829  14.276
21419W        W89813  19.380  43.280  13.472
21420W        W89814  40.411  33.238  10.753
21421W        W89815  20.769  27.702   2.803
21422W        W89816  18.233  24.766  14.084
21423W        W89817  40.431   9.715  10.647
21424W        W89818   1.580  28.084   3.038
21425W        W89819   9.142  29.622   2.007
21426W        W89820  33.976  37.470  11.942
21427W        W89821  27.005  23.783  11.143
21428W        W89822  18.956  26.412  14.208
21429W        W89823   5.316  42.884   2.304
21430W        W89824  23.116  36.300   0.410
21431W        W89825  26.041   1.695  10.219
21432W        W89826  18.822  22.798   2.146
21433W        W89827  19.205  25.493   1.608
21434W        W89828   0.024  38.588   5.313
21435W        W89829  17.201   5.316   5.146
21436W        W89830  35.568  42.491   2.241
21437W        W89831  23.575  26.728   2.296
21438W        W89832  42.336   3.299  13.455
21439W        W89833  14.431   1.596  11.238
21440W        W89834  39.118  31.075   4.633
21441W        W89835  35.282  11.562  12.080
21442W        W89836  35.737  34.051  12.180
21443W        W89837   9.145  12.315  11.037
21444W        W89838  28.099   8.910   2.267
21445W        W89839  32.609  37.363   3.253
21446W        W89840   2.093  31.047  10.790
21447W        W89841  40.455   8.198   0.009
21448W        W89842   5.835  35.597  12.942
21449W        W89843  18.145  37.591   2.711
21450W        W89844  30.989  17.486  13.441
21451W        W89845  39.493  35.483  10.933
21452W        W89846  30.680  35.428   0.744
21453W        W89847   2.841  24.923   1.308
21454W        W89848  30.043  12.388  11.580
21455W        W89849   4.018  27.766  14.370
21456W        W89850   0.642  21.259  10.479
21457W        W89851  42.370  22.502   0.245
21458W        W89852  38.763  21.865  13.340
21459W        W89853  42.371  36.381   0.880
21460W        W89854  25.131   4.710  12.804
21461W        W89855  20.063  42.711  12.530
21462W        W89856   1.202  11.588   4.238
21463W        W89857  41.977  16.798  14.887
21464W        W89858   8.070  11.720  10.614
21465W        W89859  30.457  13.453   4.580
21466W        W89860  18.022  18.913  11.952
21467W        W89861  25.182  26.181  12.932
21468W        W89862  25.258  15.598  12.523
21469W        W89863  38.234  40.266  12.026
21470W        W89864  34.450  26.451   2.618
21471W        W89865  13.825  10.880   1.793
21472W        W89866  33.351  43.038  12.135
21473W        W89867  11.730   1.268   1.795
21474W        W89868  20.400  18.771   0.383
21475W        W89869  42.093  30.143  11.766
21476W        W89870  13.047  23.400  14.286
21477W        W89871   3.316   8.834   3.403
21478W        W89872  24.724  34.044   2.333
21479W        W89873  15.207  42.933  10.691
21480W        W89874  19.637  12.307   0.763
21481W        W89875  33.156  16.623  13.328
21482W        W89876  30.831  21.127   1.356
21483W        W89877  20.561  36.343   3.734
21484W        W89878  43.052   3.867   1.790
21485W        W89879  15.598   1.007  11.437
21486W        W89880  22.086  15.710  14.714
21487W        W89881  27.123  35.251  14.031
21488W        W89882  23.270   9.936   1.369
21489W        W89883  11.063  37.912   3.669
21490W        W89884  12.768   3.088  13.289
21491W        W89885  22.369   4.704   3.592
21492W        W89886   5.251  20.760   2.189
21493W        W89887  28.976  10.903  14.025
21494W        W89888  44.579  22.731   3.735
21495W        W89889  44.682  13.630  14.790
21496W        W89890  19.276  19.384   4.862
21497W        W89891  16.748   8.898  13.141
21498W        W89892  35.329  41.965   1.734
21499W        W89893  14.029  17.033  11.191
21500W        W89894   0.464  14.992   2.756
21501W        W89895  27.334  35.247  12.813
21502W        W89896  20.374  28.344  13.975
21503W        W89897   1.713  23.228  12.073
21504W        W89898   0.755   9.832  11.901
21505W        W89899  43.364  20.857  10.355
21506W        W89900  20.310  37.870  11.048
21507W        W89901  38.991  35.414   4.364
21508W        W89902  15.133   5.421   0.772
21509W        W89903   9.811  13.260  14.233
21510W        W89904   7.981   7.925   3.345
21511W        W89905  12.158   8.926  13.028
21512W        W89906  17.118  18.585   0.858
21513W        W89907  25.096   5.652   1.928
21514W        W89908  44.794  41.001   2.667
21515W        W89909   4.539  25.588  13.366
21516W        W89910  43.954  29.392  13.613
21517W        W89911  38.584  19.081  13.468
21518W        W89912  13.638  42.809  14.424
21519W        W89913  24.145  17.869  13.510
21520W        W89914  35.871  32.105  13.040
21521W        W89915   3.767  12.345  14.723
21522W        W89916   7.310  17.633   4.438
21523W        W89917  21.737  38.336  14.823
21524W        W89918   1.372  31.709  14.352
21525W        W89919   3.338  42.083  14.744
21526W        W89920  25.454  11.568  11.945
21527W        W89921  14.550  20.047   1.169
21528W        W89922  29.753  37.475   1.351
21529W        W89923  19.906  28.726   0.653
21530W        W89924  12.513  32.899  10.843
21531W        W89925  16.755  19.066  14.535
21532W        W89926   7.324  40.617  13.578
21533W        W89927  35.943   3.110  14.788
21534W        W89928  37.533  26.753  10.034
21535W        W89929  11.395  14.084   2.387
21536W        W89930  27.527  20.953   3.165
21537W        W89931  29.585  22.481  14.571
21538W        W89932  31.342   1.898  12.943
21539W        W89933  37.628  39.940  10.199
21540W        W89934  29.038  19.226   0.949
21541W        W89935   4.237  33.527   0.257
21542W        W89936  42.422   4.366  13.348
21543W        W89937  11.352  32.056   1.850
21544W        W89938  20.635  36.564  12.980
21545W        W89939  11.675  35.347  12.908
21546W        W89940  27.459   1.009   3.676
21547W        W89941  27.528   8.818  12.064
21548W        W89942  22.060  24.404   3.203
21549W        W89943  22.299  40.285   2.215
21550W        W89944  15.268  33.494   4.624
21551W        W89945  18.624  27.185   4.078
21552W        W89946  17.406  28.247   1.325
21553W        W89947   3.762  21.697   4.077
21554W        W89948  25.074   2.904   0.224
21555W        W89949  36.318  32.669  12.438
21556W        W89950  42.837  33.884   0.221
21557W        W89951  23.785  33.314   1.773
21558W        W89952  40.774  40.404   1.336
21559W        W89953  34.970  20.798   0.078
21560W        W89954  33.096   1.721   3.914
21561W        W89955   8.173  22.095   2.173
21562W        W89956  39.005   8.448   0.428
21563W        W89957  41.588  42.855   0.823
21564W        W89958  41.992  31.203  11.608
21565W        W89959  38.509   9.957  11.218
21566W        W89960  14.854  18.653   1.633
21567W        W89961  43.599   2.627  11.585
21568W        W89962   9.228  17.126   4.096
21569W        W89963  36.043  23.802  12.753
21570W        W89964   5.244  20.252   3.066
21571W        W89965  41.433  33.499  10.667
21572W        W89966   1.154  29.771  12.645
21573W        W89967  29.573   9.131   0.678
21574W        W89968  30.079  41.078  11.518
21575W        W89969   5.722  32.169  13.079
21576W        W89970  43.533  21.986   1.322
21577W        W89971   6.228  16.243   1.309
21578W        W89972  35.520  22.654  11.228
21579W        W89973  15.724  12.410   3.337
21580W        W89974  26.197  40.990  12.291
21581W        W89975  13.367   1.920  10.592
21582W        W89976  17.748   5.935  13.113
21583W        W89977  22.028   0.446  10.708
21584W        W89978   0.995  20.158  11.135
21585W        W89979   5.276  22.994  14.731
21586W        W89980  33.605  13.925  10.867
21587W        W89981  15.608   3.877  12.548
21588W        W89982  30.094   3.629  10.589
21589W        W89983   5.458  29.062  11.481
21590W        W89984   7.954  13.753   2.318
21591W        W89985  28.022  11.744  11.042
21592W        W89986  38.010   5.168  12.927
21593W        W89987  41.399   5.660   0.807
21594W        W89988  16.182  30.205  10.585
21595W        W89989   2.353  24.118   2.445
21596W        W89990   6.971   2.609   3.639
21597W        W89991  44.380  37.644   3.255
21598W        W89992   6.017  16.068  11.678
21599W        W89993   3.503   6.347  14.382
21600W        W89994  30.441  42.225  14.113
21601W        W89995  36.881  39.402   0.327
21602W        W89996   2.549  30.168   4.230
21603W        W89997   7.239  26.150  12.387
21604W        W89998   5.785  42.541  13.894
21605W        W89999  26.745  17.178  12.152
21606W        W90000   7.789  16.089   0.889
21607W        W90001  35.198   2.550  12.019
21608W        W90002  16.459  37.690   3.742
21609W        W90003  33.553  10.250   1.695
21610W        W90004  44.936  15.010   2.558
21611W        W90005  23.783  30.162  13.997
21612W        W90006  38.938  28.746  11.062
21613W        W90007  34.392  23.254  10.728
21614W        W90008  38.846  30.215  14.354
21615W        W90009  33.816  10.083   2.422
21616W        W90010  32.109   5.197   3.307
21617W        W90011  43.896  23.712  11.500
21618W        W90012  22.242   0.968   5.054
21619W        W90013   8.006  12.585   2.751
21620W        W90014  11.733  17.683  10.600
21621W        W90015  37.693  41.234   1.474
21622W        W90016  27.533  12.955   2.812
21623W        W90017  12.224   7.847   3.108
21624W        W90018  43.984  13.688   0.276
21625W        W90019  15.661   6.227  12.074
21626W        W90020  29.445  42.021   3.239
21627W        W90021   4.374   9.037  11.483
21628W        W90022  32.833  44.175  14.442
21629W        W90023   8.270  11.657  14.715
21630W        W90024  31.004  37.980  10.541
21631W        W90025  21.545  18.862  14.107
21632W        W90026   5.243  27.099   0.318
21633W        W90027  14.542  34.519  10.668
21634W        W90028  22.052  12.733  14.846
21635W        W90029   9.181  37.059  12.431
21636W        W90030  34.921  16.487  12.951
21637W        W90031  19.108  17.291   3.591
21638W        W90032  14.497   2.849  12.398
21639W        W90033  31.476  27.751   3.342
21640W        W90034  22.990  33.444   1.347
21641W        W90035  25.579  19.437   4.215
21642W        W90036  42.816  44.849   4.896
21643W        W90037  24.937  12.284  11.154
21644W        W90038   2.224  17.386  12.966
21645W        W90039  37.545  40.850  10.708
21646W        W90040  26.874  17.983  12.923
21647W        W90041  31.032   6.282  13.297
21648W        W90042  25.951  37.726  11.539
21649W        W90043  19.233  13.329  14.849
21650W        W90044  33.202  35.364  13.132
21651W        W90045  33.353  17.507  12.217
21652W        W90046  27.446  28.865   3.835
21653W        W90047   5.684   1.184  12.341
21654W        W90048  12.747  18.139   4.088
21655W        W90049  11.830  36.171  10.667
21656W        W90050  23.676  21.709   1.565
21657W        W90051  31.104  40.005   0.047
21658W        W90052   6.909  23.920   1.651
21659W        W90053  24.531   8.366  10.148
21660W        W90054  41.235  26.068   4.897
21661W        W90055  38.093  12.112  13.925
21662W        W90056  22.743  43.266   3.509
21663W        W90057  36.499  32.319   0.908
21664W        W90058  21.885  32.194   4.430
21665W        W90059  23.806  43.512   2.394
21666W        W90060  36.350   2.170  14.952
21667W        W90061  36.519  22.158   3.834
21668W        W90062  40.233  32.419   4.276
21669W        W90063  20.081   3.615  10.996
21670W        W90064  40.653  38.484  12.039
21671W        W90065  31.330  30.384   3.682
21672W        W90066  15.722  35.933   9.814
21673W        W90067  27.975  19.547   4.157
21674W        W90068   7.200  43.053   1.049
21675W        W90069  20.382   8.298   1.150
21676W        W90070   6.630  12.460  11.499
21677W        W90071   2.058  10.357  10.727
21678W        W90072   2.843  29.855   1.776
21679W        W90073   6.186  42.707  11.714
21680W        W90074  31.292  13.410  11.098
21681W        W90075  25.209   4.730   0.943
21682W        W90076   4.005   1.756   1.835
21683W        W90077  23.130  10.206   2.721
21684W        W90078  27.756  14.119  14.326
21685W        W90079  27.698   3.513  12.026
21686W        W90080  26.924  14.734  10.869
21687W        W90081  23.244  25.080  11.385
21688W        W90082  27.137  15.862   3.343
21689W        W90083   5.494  24.562  14.963
21690W        W90084  15.785  24.287  11.196
21691W        W90085   9.396  21.145   2.606
21692W        W90086  12.870  21.379  14.049
21693W        W90087  32.463  15.587  13.974
21694W        W90088  24.920  43.752  14.868
21695W        W90089   4.337  28.188  10.992
21696W        W90090  40.824  24.620   5.031
21697W        W90091  14.377   6.216  14.598
21698W        W90092   6.192   5.538  10.200
21699W        W90093   9.137  40.350   3.826
21700W        W90094   7.425  26.512   3.238
21701W        W90095  19.227  27.736  11.702
21702W        W90096  13.611  30.916   4.067
21703W        W90097   5.141   4.009   3.198
21704W        W90098  27.166  10.719   4.630
21705W        W90099  29.603  11.385  14.383
21706W        W90100  22.913   4.732   1.427
21707W        W90101  24.204   2.282   4.022
21708W        W90102  14.181  19.769  11.077
21709W        W90103  17.147  38.462  11.157
21710W        W90104  36.516  39.575   1.969
21711W        W90105  35.263  14.138  13.389
21712W        W90106  24.171  22.480   3.720
21713W        W90107  38.623  15.152   4.518
21714W        W90108  39.299   1.314   3.273
21715W        W90109  12.661  18.125  13.821
21716W        W90110  25.044  20.653   3.318
21717W        W90111  42.518   4.217  13.880
21718W        W90112  32.874   9.413  13.479
21719W        W90113  19.720  16.278  14.359
21720W        W90114  19.940   9.683  14.337
21721W        W90115   9.298  19.099   3.809
21722W        W90116  17.173   5.504  12.432
21723W        W90117   1.953  32.098   4.614
21724W        W90118   2.502  37.259   5.010
21725W        W90119  16.324  43.243  14.318
21726W        W90120  35.899  33.034  13.148
21727W        W90121  32.294   9.396  12.563
21728W        W90122  31.006  30.867  13.428
21729W        W90123  21.982  18.231  10.517
21730W        W90124   6.468  20.263  13.988
21731W        W90125  23.911  15.783   4.931
21732W        W90126  13.794  20.021  13.387
21733W        W90127   9.461  33.313  12.818
21734W        W90128  15.327   7.944  13.026
21735W        W90129  27.023   5.928  13.869
21736W        W90130  38.576  16.778  13.372
21737W        W90131   0.947  15.212   4.325
21738W        W90132  29.337  34.141  13.895
21739W        W90133  12.413  30.085   2.802
21740W        W90134  30.999  40.996  14.581
21741W        W90135  40.544   9.805  11.688
21742W        W90136  16.168  42.344   0.358
21743W        W90137  12.769  39.527   1.426
21744W        W90138  22.309   6.670   1.402
21745W        W90139  20.682  38.482  13.511
21746W        W90140   2.479  37.567  11.551
21747W        W90141  27.212  35.059  10.724
21748W        W90142  27.633  16.165   3.123
21749W        W90143   8.109  31.072   4.443
21750W        W90144  36.017  40.999   2.814
21751W        W90145   1.748   2.271  11.936
21752W        W90146  30.805  28.940  11.517
21753W        W90147   1.488  28.651   1.226
21754W        W90148  33.198  32.525  11.213
21755W        W90149  24.554  18.413   2.786
21756W        W90150  13.914  27.942  14.219
21757W        W90151   8.804   8.498  12.501
21758W        W90152  43.894  15.366  11.946
21759W        W90153  13.149  11.227  12.457
21760W        W90154  15.552  37.598  10.183
21761W        W90155  14.136  20.162  11.579
21762W        W90156  27.738  39.493   3.278
21763W        W90157   7.290   8.355  12.109
21764W        W90158  20.621  34.240   4.630
21765W        W90159   7.981  33.073   2.278
21766W        W90160  30.609  14.325   0.927
21767W        W90161  43.703  35.535   2.787
21768W        W90162  41.404  26.982  14.758
21769W        W90163   1.085  14.293   2.835
21770W        W90164  40.929   6.235   1.523
21771W        W90165  19.697  13.534  11.535
21772W        W90166  33.603  16.459  11.461
21773W        W90167  34.887  31.439  13.080
21774W        W90168  35.888  31.451  12.181
21775W        W90169  16.101   8.285  12.579
21776W        W90170  14.142  19.838   1.403
21777W        W90171  30.392  15.624   1.072
21778W        W90172   7.781  32.025  10.626
21779W        W90173  19.827   9.887  12.959
21780W        W90174  27.864  32.443  12.395
21781W        W90175   8.238  34.828  11.832
21782W        W90176  20.821  22.451  14.707
21783W        W90177  42.948  41.018  13.287
21784W        W90178  29.600  31.937  12.354
21785W        W90179  41.073   7.779  14.772
21786W        W90180  44.499  37.959   1.681
21787W        W90181  14.166   3.810   0.060
21788W        W90182  30.608   2.041   0.282
21789W        W90183  24.679  24.330   0.278
21790W        W90184  28.100  18.807  14.870
21791W        W90185   7.374  30.144  13.030
21792W        W90186  43.777  34.641   1.136
21793W        W90187  27.481   9.595  13.458
21794W        W90188  32.027  37.101   2.769
21795W        W90189  28.161   8.919   4.737
21796W        W90190  18.958   1.217  13.115
21797W        W90191  26.701  36.618  13.987
21798W        W90192   9.681  27.428  14.756
21799W        W90193  38.693  30.246  12.570
21800W        W90194  35.395   2.413  12.497
21801W        W90195  36.921  42.033  11.737
21802W        W90196  43.264  22.115   2.286
21803W        W90197  30.892  20.218   1.051
21804W        W90198  33.848   7.903  12.017
21805W        W90199  18.420  36.347  13.105
21806W        W90200  44.590   0.681  11.609
21807W        W90201   5.338   1.883  12.404
21808W        W90202  31.782  24.171   1.045
21809W        W90203   0.019   7.460   2.189
21810W        W90204   9.225  32.219  14.313
21811W        W90205  44.418  14.782   0.476
21812W        W90206  27.360   4.082   1.881
21813W        W90207  41.547  39.791  13.453
21814W        W90208  44.971  21.744  14.665
21815W        W90209  40.859   1.279   1.663
21816W        W90210  36.083  32.395   1.425
21817W        W90211  43.806  14.216   3.098
21818W        W90212  10.740   9.385   1.233
21819W        W90213   3.092  44.436   9.918
21820W        W90214  15.052   8.775   5.149
21821W        W90215  27.369   3.561   1.964
21822W        W90216  40.289  42.906  12.376
21823W        W90217  11.700  15.420   0.952
21824W        W90218  18.635  26.436   2.720
21825W        W90219  32.480   6.577  10.773
21826W        W90220   0.668   4.789  11.986
21827W        W90221  23.194  14.561   1.851
21828W        W90222  37.416   3.456   2.415
21829W        W90223  12.264  38.085   3.382
21830W        W90224  15.641  22.192  13.506
21831W        W90225  33.137  37.674   3.329
21832W        W90226   9.984   9.932   0.695
21833W        W90227   7.143   5.804   5.408
21834W        W90228  44.317  37.950   0.145
21835W        W90229  19.683  40.043   1.728
21836W        W90230  24.254  26.730  13.869
21837W        W90231  12.792   6.951   2.239
21838W        W90232  44.983   8.236   4.940
21839W        W90233  32.418  41.773  12.105
21840W        W90234  43.891  38.246  14.620
21841W        W90235   9.296  11.993  10.685
21842W        W90236  42.873  22.478  14.543
21843W        W90237  29.411   5.896  12.304
21844W        W90238  15.620   1.704   1.208
21845W        W90239  26.962  13.165  14.869
21846W        W90240   1.820  27.452  14.678
21847W        W90241  14.202  12.852   3.620
21848W        W90242   7.957   7.049  12.917
21849W        W90243  12.330  30.598   4.132
21850W        W90244  25.240  17.654  12.356
21851W        W90245  19.821  20.758  12.967
21852W        W90246  41.285  17.084   4.118
21853W        W90247  12.550  31.580   4.238
21854W        W90248  29.859  14.518  11.217
21855W        W90249   7.319  41.138  13.479
21856W        W90250  24.291  13.948  13.831
21857W        W90251  33.477  29.939  14.366
21858W        W90252  36.944  23.290   1.116
21859W        W90253  40.465  36.737   0.659
21860W        W90254  31.415  21.673   4.665
21861W        W90255  28.617  26.740  13.350
21862W        W90256  25.067   1.256   4.581
21863W        W90257   5.792   2.048  10.202
21864W        W90258  36.435  11.671  13.461
21865W        W90259  19.785   3.519  13.084
21866W        W90260  17.027  12.926   0.421
21867W        W90261  24.194  27.423   2.754
21868W        W90262   5.588   9.779  11.086
21869W        W90263  39.775  31.932   1.768
21870W        W90264  38.614  32.664   2.161
21871W        W90265   3.253  44.228  12.400
21872W        W90266  27.267  13.547  11.544
21873W        W90267  35.334  30.558   4.523
21874W        W90268   6.893  19.623  14.375
21875W        W90269  11.474  28.212   2.696
21876W        W90270  27.137   1.732  13.051
21877W        W90271  42.285  10.675   4.177
21878W        W90272   8.357  31.155   1.200
21879W        W90273  35.017  40.103  13.921
21880W        W90274   5.689  10.974  14.345
21881W        W90275  32.180  21.648  14.650
21882W        W90276   4.212  31.880   1.544
21883W        W90277  39.494   0.282   4.128
21884W        W90278   5.833  34.726   2.750
21885W        W90279  33.033  28.489  14.346
21886W        W90280   3.842  38.025  10.726
21887W        W90281   3.806  32.635   3.669
21888W        W90282  42.038  38.276   0.349
21889W        W90283  39.437   0.548   2.747
21890W        W90284  33.923  33.204   1.776
21891W        W90285  15.495   0.272   4.538
21892W        W90286  22.474   3.920  11.590
21893W        W90287  16.715  29.881  10.739
21894W        W90288  14.111  16.551  13.011
21895W        W90289  25.845  18.627  12.512
21896W        W90290  36.981  19.230  12.163
21897W        W90291  18.738  43.030  11.526
21898W        W90292   9.742  28.685  14.139
21899W        W90293  32.896  15.509  14.989
21900W        W90294  18.191   7.585  13.811
21901W        W90295  16.707   9.673  14.048
21902W        W90296  28.271  24.740  10.122
21903W        W90297  28.967   7.186  14.546
21904W        W90298  43.799   8.169   2.028
21905W        W90299  36.477  23.068   1.423
21906W        W90300  13.397  15.848   4.113
21907W        W90301  41.343   5.754  13.917
21908W        W90302  37.582  29.206  12.581
21909W        W90303  42.422  31.997   2.352
21910W        W90304   0.946  22.082   4.741
21911W        W90305  21.587  28.523  13.194
21912W        W90306  44.318  24.667   4.259
21913W        W90307  37.479   2.738   3.690
21914W        W90308   0.503   4.342  11.448
21915W        W90309   0.436  11.937   1.156
21916W        W90310  26.012  28.714  12.511
21917W        W90311  29.740  32.950  13.592
21918W        W90312   1.602  30.431   4.558
21919W        W90313  21.483  22.548   3.550
21920W        W90314  11.792  15.634  12.453
21921W        W90315  30.736  16.678   4.111
21922W        W90316  24.385   4.778   1.466
21923W        W90317   5.777   8.750  12.385
21924W        W90318  42.453  16.086  11.140
21925W        W90319  41.086  44.775  12.535
21926W        W90320  10.489  19.547   1.517
21927W        W90321   8.692  37.303   1.446
21928W        W90322  30.974  41.527  13.799
21929W        W90323  13.750  44.082  12.654
21930W        W90324  34.248   2.826   2.878
21931W        W90325  11.698  10.167  10.278
21932W        W90326   4.720   8.409   2.806
21933W        W90327  42.403  19.309  14.677
21934W        W90328  36.433   1.756   2.383
21935W        W90329  43.561  19.212  14.548
21936W        W90330  12.640   5.148   1.454
21937W        W90331  44.781  16.713  12.821
21938W        W90332  27.996  21.468   4.492
21939W        W90333   9.945  16.123  13.665
21940W        W90334   0.894  31.581  14.500
21941W        W90335  11.175  14.109  11.928
21942W        W90336  24.065  43.118  14.211
21943W        W90337  18.363  40.919  11.172
21944W        W90338  38.983  25.609   0.987
21945W        W90339  42.884   5.212   0.490
21946W        W90340  29.198  42.534  14.577
21947W        W90341  25.710  16.880   4.813
21948W        W90342   3.611  32.660   2.865
21949W        W90343  21.327  10.666  14.397
21950W        W90344  33.093  44.234   2.407
21951W        W90345  12.590  41.510  10.757
21952W        W90346  43.986  18.076   4.073
21953W        W90347  11.234  38.409   0.752
21954W        W90348  22.176  26.979  10.865
21955W        W90349  37.818  10.606   1.735
21956W        W90350  25.127  16.700   4.199
21957W        W90351  39.766   2.866   1.811
21958W        W90352  31.526   0.587  11.562
21959W        W90353  26.263  13.481  12.416
21960W        W90354  40.805  23.464   3.146
21961W        W90355  26.537   9.810  11.073
21962W        W90356  29.882  17.496   0.351
21963W        W90357  23.010  22.758  13.243
21964W        W90358  18.196  15.888   4.008
21965W        W90359   4.037  23.999  13.526
21966W        W90360  43.527  19.177   1.254
21967W        W90361   9.854  29.644   0.848
21968W        W90362   6.204  17.435   5.096
21969W        W90363   7.389  29.044  10.734
21970W        W90364  26.071  28.640   0.696
21971W        W90365   2.095  26.217   1.977
21972W        W90366  30.640  17.593  10.840
21973W        W90367  43.738  43.396  11.227
21974W        W90368   5.974  44.234  11.154
21975W        W90369  40.367   8.922   4.699
21976W        W90370  11.226  12.209  10.306
21977W        W90371   2.726   7.846   1.791
21978W        W90372  28.214  35.523   1.749
21979W        W90373  34.870  38.398  12.337
21980W        W90374  36.756  44.563   1.339
21981W        W90375   4.696  22.458  11.312
21982W        W90376  31.403   4.828  14.870
21983W        W90377  32.669   4.646   1.819
21984W        W90378  37.050  44.946  14.869
21985W        W90379  10.158  37.092  13.855
21986W        W90380  37.119  44.998   2.281
21987W        W90381  23.794  29.317   3.371
21988W        W90382   0.466  13.522   3.117
21989W        W90383   9.158   7.837  11.981
21990W        W90384  22.962  37.040  14.860
21991W        W90385  32.165  35.381  14.801
21992W        W90386  28.622  39.843   4.341
21993W        W90387  13.316  26.149   0.984
21994W        W90388  23.112  14.725   4.253
21995W        W90389  15.176  37.126   3.233
21996W        W90390   5.840   3.706   1.777
21997W        W90391  12.584  10.254   1.766
21998W        W90392  16.139  21.455  11.050
21999W        W90393  16.713   3.483  13.444
22000W        W90394  35.987  36.439   2.865
22001W        W90395  36.652  35.981   3.540
22002W        W90396   0.018  44.282   4.428
22003W        W90397  44.343  12.093  13.990
22004W        W90398  21.560  37.933  13.384
22005W        W90399   7.403  24.478  14.862
22006W        W90400  16.594  32.078  11.939
22007W        W90401  40.001   3.017  11.534
22008W        W90402  33.575   2.783  11.521
22009W        W90403   2.445  15.732  13.102
22010W        W90404  37.900  40.478  11.669
22011W        W90405  21.772  41.509   3.246
22012W        W90406  36.577  26.612  11.135
22013W        W90407  40.852   4.732  13.603
22014W        W90408  33.105  29.097   0.990
22015W        W90409  35.305   4.163   1.494
22016W        W90410  24.205   4.331  13.972
22017W        W90411  14.173  26.623   4.178
22018W        W90412   5.956  41.865   3.221
22019W        W90413  42.437  33.119   4.073
22020W        W90414   2.805  12.332   0.994
22021W        W90415  10.040  15.352   3.413
22022W        W90416  44.610  43.424  10.288
22023W        W90417  39.862  20.618   2.281
22024W        W90418  43.894  22.675   1.974
22025W        W90419  32.385  17.141  13.783
22026W        W90420  42.332   6.512   0.332
22027W        W90421   1.828  28.638   2.896
22028W        W90422   7.863   6.000   1.375
22029W        W90423  31.868   6.936  12.894
22030W        W90424  30.885  39.557  14.812
22031W        W90425  31.650  37.845   1.315
22032W        W90426  16.867  24.572   1.364
22033W        W90427  24.653  37.165   3.880
22034W        W90428  37.264  38.472  13.887
22035W        W90429  13.267   7.555  13.731
22036W        W90430  33.926  29.322   0.407
22037W        W90431  20.030  35.651   4.072
22038W        W90432  16.185  17.745   5.360
22039W        W90433   2.450  27.487  11.908
22040W        W90434  40.016   2.765   5.033
22041W        W90435  16.195  23.429   2.877
22042W        W90436  42.683   0.050  11.597
22043W        W90437  33.291   8.656  14.481
22044W        W90438   6.167  34.950  11.933
22045W        W90439  33.994  38.178   3.093
22046W        W90440  38.384  21.494   3.884
22047W        W90441  16.249   0.641   0.243
22048W        W90442   6.144   3.024  11.480
22049W        W90443  16.903  16.747   1.347
22050W        W90444  43.864  19.244  12.059
22051W        W90445  15.023   1.692   1.862
22052W        W90446   9.664   1.424  11.945
22053W        W90447  42.309  10.786   1.268
22054W        W90448  30.440  12.165   4.130
22055W        W90449  40.543  27.828  13.389
22056W        W90450   7.654   0.690  13.711
22057W        W90451  17.837  37.650   3.658
22058W        W90452  12.599  29.505   4.390
22059W        W90453  32.636  31.576   2.817
22060W        W90454  35.875  22.876  14.551
22061W        W90455   9.189  23.210   2.314
22062W        W90456   4.102  12.148   9.845
22063W        W90457   0.915  36.394   9.974
22064W        W90458  27.531  34.854   4.180
22065W        W90459  31.665   6.117  10.585
22066W        W90460  18.170  25.295   1.262
22067W        W90461  29.581  10.627   0.763
22068W        W90462  20.065  16.163  13.989
22069W        W90463  23.562  41.546  11.108
22070W        W90464  37.338  26.090   3.633
22071W        W90465  39.410   7.003   4.491
22072W        W90466  15.929  11.761  14.040
22073W        W90467  14.700   3.020  14.739
22074W        W90468  42.951  16.126   0.359
22075W        W90469  34.045   9.188   2.720
22076W        W90470  12.870  17.219   4.961
22077W        W90471   2.894  36.672   2.800
22078W        W90472  40.872  37.636   2.265
22079W        W90473  38.420   6.788  14.079
22080W        W90474   3.497  44.226   0.860
22081W        W90475  18.160   6.580  11.861
22082W        W90476  16.842  41.861  10.869
22083W        W90477   6.418  16.535  14.359
22084W        W90478  43.554   8.645   2.087
22085W        W90479  44.496   0.947   4.491
22086W        W90480  18.376   5.267   1.433
22087W        W90481  30.418  25.322  14.836
22088W        W90482  40.391   9.691  13.066
22089W        W90483  32.573  37.827   2.148
22090W        W90484  41.409  37.557  11.088
22091W        W90485  13.599   0.863  11.877
22092W        W90486  32.195   4.154   4.289
22093W        W90487  20.410  14.718   0.470
22094W        W90488   2.802   9.161   3.418
22095W        W90489  40.928   9.558  12.896
22096W        W90490  36.352   7.632  12.970
22097W        W90491  34.551  23.774  10.732
22098W        W90492  39.292  30.573   4.717
22099W        W90493  39.635  40.927  11.939
22100W        W90494  17.626  12.107  13.320
22101W        W90495  39.077  18.964  13.335
22102W        W90496  38.830  18.073  11.694
22103W        W90497   8.214   1.996   1.739
22104W        W90498  40.249   0.673  12.863
22105W        W90499  41.230  35.937  10.640
22106W        W90500   9.373  40.436   1.314
22107W        W90501  16.004  17.772   4.488
22108W        W90502  14.933  18.756  11.546
22109W        W90503  10.845  18.651  13.740
22110W        W90504  35.436  17.400   3.252
22111W        W90505  27.937  13.903  10.785
22112W        W90506  20.030  16.627  11.019
22113W        W90507  18.575  22.190  12.880
22114W        W90508  12.099   0.316   2.752
22115W        W90509  23.095  31.221   0.228
22116W        W90510  42.821   1.691  10.890
22117W        W90511   7.849   7.459   4.609
22118W        W90512   9.639  38.989   3.272
22119W        W90513  24.703  43.441  10.752
22120W        W90514  22.552  37.703   3.513
22121W        W90515  41.467   9.358   4.674
22122W        W90516  39.409   5.367   0.951
22123W        W90517  25.143  23.511   2.156
22124W        W90518  44.052  18.673  14.741
22125W        W90519  18.624  24.505  10.154
22126W        W90520   8.305  24.746  12.177
22127W        W90521   1.242  18.957  11.650
22128W        W90522   8.220  37.801   3.102
22129W        W90523  24.219  35.002  13.055
22130W        W90524   9.178  32.846  14.665
22131W        W90525  18.957   6.622   1.928
22132W        W90526  19.267   1.262  10.720
22133W        W90527  38.016  19.791   4.653
22134W        W90528  27.849   6.714   4.692
22135W        W90529  36.314  31.615  12.949
22136W        W90530   0.791  29.155   1.928
22137W        W90531  31.078  27.869   2.903
22138W        W90532   1.849  42.698  13.838
22139W        W90533  29.473   7.627   4.061
22140W        W90534   5.256  28.312  11.057
22141W        W90535  42.466  44.093   0.944
22142W        W90536  14.551  39.931   3.300
22143W        W90537  41.541  23.263   0.444
22144W        W90538  42.984   4.810  11.555
22145W        W90539  19.206  29.071   5.109
22146W        W90540  31.098  21.719   2.914
22147W        W90541   5.356  28.995  13.820
22148W        W90542  19.924  25.907   5.105
22149W        W90543  13.706  39.590  10.453
22150W        W90544  18.911  42.440  13.598
22151W        W90545   3.177  24.717  14.396
22152W        W90546  44.102  32.033  13.028
22153W        W90547   6.205  21.488   0.587
22154W        W90548  22.619  38.685  10.308
22155W        W90549  30.031  39.762  14.532
22156W        W90550   5.666  16.269  11.387
22157W        W90551  16.811  10.797  11.932
22158W        W90552  37.445  27.644   3.788
22159W        W90553   7.465  34.970  12.528
22160W        W90554  23.107  31.598   1.949
22161W        W90555  40.540  25.758   3.834
22162W        W90556  27.673  10.412   3.639
22163W        W90557  31.090  28.920  12.451
22164W        W90558  38.124  27.421   0.381
22165W        W90559  24.074  24.444   3.433
22166W        W90560   0.473  38.527   5.063
22167W        W90561  18.998  17.755   2.287
22168W        W90562  10.395   5.286  13.423
22169W        W90563  38.985  22.080   4.688
22170W        W90564  17.899  25.199   3.683
22171W        W90565  41.035  12.274   2.863
22172W        W90566   9.089  15.392  14.883
22173W        W90567  41.288  37.865  11.964
22174W        W90568  36.911   9.673  14.446
22175W        W90569   3.020  28.812   1.540
22176W        W90570  13.170   6.435   3.648
22177W        W90571  39.860  38.396   2.620
22178W        W90572  16.719  24.292   1.775
22179W        W90573  25.206  30.388   2.642
22180W        W90574  43.975  36.882  13.936
22181W        W90575  31.928  13.826  11.135
22182W        W90576  41.993  35.131   2.265
22183W        W90577  32.064  30.540   4.605
22184W        W90578  16.713   6.798   3.821
22185W        W90579  11.238  25.780   1.460
22186W        W90580  31.859  35.033   4.406
22187W        W90581   1.689  11.243  10.692
22188W        W90582   5.436  15.069   1.298
22189W        W90583   4.272   7.307   3.605
22190W        W90584  28.787  25.306  11.627
22191W        W90585  26.183  39.794  12.221
22192W        W90586   0.291  36.236   1.348
22193W        W90587  39.880  32.310   1.440
22194W        W90588  26.181  30.119  13.380
22195W        W90589   7.364  18.886  13.846
22196W        W90590  39.438  22.724  11.933
22197W        W90591  27.603  29.895  13.426
22198W        W90592   3.461   0.166  14.988
22199W        W90593  32.603  37.826  12.867
22200W        W90594  35.204  10.705   0.729
22201W        W90595  17.521  41.976  10.206
22202W        W90596   8.295  38.559  14.888
22203W        W90597  44.279  29.259   0.439
22204W        W90598   7.718  31.019   1.827
22205W        W90599  19.489  21.652   1.294
22206W        W90600  11.740  14.827  11.960
22207W        W90601  16.392   3.532  13.873
22208W        W90602   9.729  34.620   4.188
22209W        W90603   9.576  37.957   4.535
22210W        W90604  20.058  11.655  13.215
22211W        W90605  21.557  15.715  12.489
22212W        W90606  23.517  44.900   0.368
22213W        W90607  34.644  24.548  14.919
22214W        W90608  43.046   1.152   3.357
22215W        W90609  28.882  23.652  14.883
22216W        W90610  17.505  22.662   1.838
22217W        W90611  43.994  26.958   1.829
22218W        W90612  15.371  18.776  10.200
22219W        W90613  43.529  41.922  11.958
22220W        W90614  23.501  34.907   1.324
22221W        W90615   4.215  39.566  13.180
22222W        W90616   3.746  37.343   1.314
22223W        W90617  31.923   5.917   2.006
22224W        W90618   4.961  10.356   2.843
22225W        W90619  30.371  20.060   1.477
22226W        W90620  20.087   4.643  11.036
22227W        W90621  20.920  34.302  12.846
22228W        W90622  44.077  35.254  14.628
22229W        W90623  16.873  26.973  10.267
22230W        W90624  37.029  22.157  14.143
22231W        W90625  36.030   6.704  13.669
22232W        W90626  25.410  31.101  12.294
22233W        W90627  23.135  32.895  10.380
22234W        W90628  40.994  24.140   3.289
22235W        W90629  37.259   9.212  12.051
22236W        W90630  40.841   2.258   1.946
22237W        W90631  30.039  13.378   3.699
22238W        W90632  38.583  39.960   0.458
22239W        W90633   8.339   3.755   0.846
22240W        W90634  26.521  25.032  11.587
22241W        W90635  38.767  19.659  12.524
22242W        W90636  12.750  31.852  13.927
22243W        W90637  37.857  30.575   0.903
22244W        W90638  35.613   8.908   0.208
22245W        W90639  43.992  15.828   0.978
22246W        W90640  34.524  25.635   3.581
22247W        W90641  20.523  11.895   4.229
22248W        W90642  41.299   2.476   0.300
22249W        W90643  31.653   8.486  10.767
22250W        W90644  18.393   3.754   4.674
22251W        W90645   2.347  19.736   0.550
22252W        W90646  15.329  16.515  14.767
22253W        W90647  29.815  15.055  11.168
22254W        W90648  26.728  15.931   2.215
22255W        W90649  38.453  32.126   3.685
22256W        W90650  22.637  33.822  11.242
22257W        W90651  28.903  27.651  14.493
22258W        W90652  26.597  10.800  11.119
22259W        W90653   2.919  22.757   0.856
22260W        W90654  14.124  40.278  14.509
22261W        W90655  29.452  31.564  14.878
22262W        W90656   9.724   2.346   3.438
22263W        W90657   0.821   6.402  10.606
22264W        W90658  17.135  16.527   0.859
22265W        W90659   6.805  14.782  13.226
22266W        W90660  24.784  36.667  10.731
22267W        W90661  24.169  39.792   0.811
22268W        W90662  36.470   0.782   2.407
22269W        W90663  41.568   0.502  13.898
22270W        W90664  24.233  42.828  12.824
22271W        W90665  16.241  40.801  14.859
22272W        W90666   7.198   0.495  14.416
22273W        W90667  10.735   2.989  13.966
22274W        W90668  31.140  13.180   0.386
22275W        W90669  39.441   3.420   4.308
22276W        W90670  19.381  16.236   4.110
22277W        W90671  24.989  35.989   1.471
22278W        W90672  35.927  21.685  13.119
22279W        W90673  18.758  40.362   0.339
22280W        W90674   2.458  11.255   3.087
22281W        W90675  14.868   0.201  12.066
22282W        W90676  29.736   4.795   4.197
22283W        W90677  13.607  33.855  11.963
22284W        W90678  24.022  21.080   3.393
22285W        W90679  22.590   4.796  11.191
22286W        W90680  36.943  23.947  11.088
22287W        W90681  44.946  33.165   4.974
22288W        W90682   6.271  29.738   2.231
22289W        W90683  11.395  31.678  14.934
22290W        W90684  17.508  40.979   3.229
22291W        W90685  44.188  28.053  14.341
22292W        W90686   3.006  44.956   0.094
22293W        W90687  13.160  30.942  13.649
22294W        W90688  21.609   9.695   2.941
22295W        W90689  23.673  14.969  14.510
22296W        W90690   8.674   5.822  11.175
22297W        W90691  42.377  25.385  12.041
22298W        W90692  13.241   8.342   2.288
22299W        W90693   9.847  27.599   1.272
22300W        W90694  26.671  21.881  10.786
22301W        W90695  44.931   4.796   1.360
22302W        W90696  19.143  42.566   2.828
22303W        W90697   6.433  20.344   1.873
22304W        W90698  23.191   3.967   3.246
22305W        W90699  19.337   4.445  13.034
22306W        W90700  21.637  44.807   4.580
22307W        W90701  41.127  24.657  12.020
22308W        W90702  34.566  20.222  11.770
22309W        W90703  37.407  25.031   0.793
22310W        W90704  37.222  11.263  14.228
22311W        W90705  32.722   2.709   0.544
22312W        W90706  24.944  17.168   4.203
22313W        W90707   2.775  28.038   2.106
22314W        W90708  11.656  16.732  14.783
22315W        W90709  21.891  13.817   0.691
22316W        W90710  34.091  36.034   3.646
22317W        W90711  15.125   7.748  10.700
22318W        W90712   8.656   3.919   2.687
22319W        W90713  31.878   1.337  12.677
22320W        W90714  22.024  41.318   3.664
22321W        W90715   4.832   3.042   3.271
22322W        W90716   0.219  21.012  14.974
22323W        W90717   4.741  32.458   5.069
22324W        W90718   8.453  10.752  14.774
22325W        W90719   0.172  25.612   0.202
22326W        W90720  15.329  26.760  10.700
22327W        W90721  28.830  36.041  11.488
22328W        W90722   5.830  32.748   4.347
22329W        W90723  44.359   5.955   4.106
22330W        W90724  23.926   3.380  13.581
22331W        W90725   4.948  12.784   2.427
22332W        W90726  27.655  16.041   2.617
22333W        W90727  23.655  44.993  14.533
22334W        W90728   5.170   2.905  11.529
22335W        W90729  11.715  14.513  11.534
22336W        W90730  26.193  30.975  11.087
22337W        W90731  29.253  37.690   3.215
22338W        W90732  18.543  31.069   4.173
22339W        W90733  39.157  13.718  13.354
22340W        W90734   8.489  29.656  14.934
22341W        W90735  12.306   2.194   1.024
22342W        W90736  20.039  29.524   2.901
22343W        W90737  26.301  33.617   4.946
22344W        W90738  41.992  15.580  12.128
22345W        W90739   3.437  11.768   0.265
22346W        W90740  30.571   8.390  14.806
22347W        W90741  26.686  19.663  12.058
22348W        W90742  31.336  21.286   3.897
22349W        W90743  43.746  33.161  11.073
22350W        W90744  21.328   5.286   5.171
22351W        W90745   4.465  23.482   3.690
22352W        W90746  29.746   7.808   1.771
22353W        W90747  11.219  24.179   1.408
22354W        W90748  31.865   1.999   0.845
22355W        W90749   6.851  22.638  14.166
22356W        W90750   9.094  20.259  12.571
22357W        W90751  44.439  23.090   2.797
22358W        W90752  44.299  10.034  14.949
22359W        W90753  27.577  19.306  12.977
22360W        W90754  39.779   4.389  14.446
22361W        W90755  23.595  30.114  13.081
22362W        W90756  34.907  35.598   2.093
22363W        W90757  44.494  30.903  10.696
22364W        W90758  31.627  20.312   1.419
22365W        W90759  27.665  33.063   1.791
22366W        W90760  36.027  13.582  14.395
22367W        W90761  34.398  27.729   4.648
22368W        W90762  12.233  14.837  14.449
22369W        W90763   7.188   9.386  14.978
22370W        W90764  44.940   0.209   4.625
22371W        W90765  35.412  23.501   0.239
22372W        W90766   0.462  34.145   1.734
22373W        W90767  25.481  40.175  13.370
22374W        W90768  27.888  43.647  11.176
22375W        W90769  37.486  23.471  12.412
22376W        W90770  24.929  42.068   2.871
22377W        W90771   5.817   1.196   5.492
22378W        W90772   2.502   2.773  11.609
22379W        W90773  26.534   2.637  10.323
22380W        W90774  38.417  14.722  12.158
22381W        W90775  43.396  11.114   2.534
22382W        W90776  26.179   8.218  12.905
22383W        W90777  12.167  18.800  13.865
22384W        W90778  20.904  12.639   2.685
22385W        W90779  10.691  44.959  12.857
22386W        W90780  35.115  44.868   3.283
22387W        W90781   4.674  25.443   1.856
22388W        W90782   5.437  21.824   1.258
22389W        W90783   6.366   5.071  14.941
22390W        W90784  39.737  18.797   0.346
22391W        W90785  25.469  44.085  13.318
22392W        W90786  37.881  23.159   1.195
22393W        W90787   0.446  39.337   0.412
22394W        W90788  34.363   7.570   3.736
22395W        W90789  24.670  38.102  14.501
22396W        W90790  28.603   4.579   4.605
22397W        W90791  43.956   4.804  14.871
22398W        W90792  33.881   3.005  10.822
22399W        W90793  29.986  10.759   4.582
22400W        W90794  23.805  25.681   1.861
22401W        W90795  12.936   8.575  10.321
22402W        W90796  33.300  38.390   3.752
22403W        W90797  21.145   4.992  11.923
22404W        W90798  39.645  39.255  13.029
22405W        W90799  39.406  36.040   1.358
22406W        W90800  14.258  39.443  14.934
22407W        W90801   1.543  30.495   3.711
22408W        W90802   3.867   4.885  12.878
22409W        W90803  36.852  44.126  14.404
22410W        W90804  15.780  36.532  14.480
22411W        W90805  21.454   4.566   2.168
22412W        W90806   7.145  35.947   2.320
22413W        W90807   3.518  34.995   0.754
22414W        W90808  32.013  14.738   5.352
22415W        W90809  15.205  25.044   2.357
22416W        W90810  13.844  24.695   2.766
22417W        W90811  40.441  44.585  11.978
22418W        W90812  10.344  41.811  13.963
22419W        W90813  33.414  43.871   3.799
22420W        W90814  13.726  35.543   4.532
22421W        W90815   4.485   9.818  11.952
22422W        W90816  37.681  26.658  11.002
22423W        W90817  22.986  15.081   2.368
22424W        W90818  15.075  17.627   0.907
22425W        W90819  33.099  29.496   2.631
22426W        W90820  19.814  44.045  11.344
22427W        W90821  33.161   8.739   0.442
22428W        W90822  30.019   3.243   0.448
22429W        W90823  40.726  10.571  12.853
22430W        W90824  41.681   1.890   1.883
22431W        W90825  14.795  16.638   1.485
22432W        W90826  15.083  10.132   0.810
22433W        W90827  15.678  18.806   4.903
22434W        W90828  40.380   8.727   3.132
22435W        W90829  28.030  35.408  13.321
22436W        W90830  30.527   9.312   1.138
22437W        W90831  31.101   2.187  10.638
22438W        W90832  26.936  35.864   2.094
22439W        W90833  30.987  23.986  14.964
22440W        W90834   2.847  22.606   4.641
22441W        W90835   3.132   3.443  12.988
22442W        W90836  23.507   4.888  11.638
22443W        W90837   4.847  24.159   2.758
22444W        W90838  22.032  25.100  11.547
22445W        W90839  33.861  10.901   4.188
22446W        W90840  38.689  19.035  10.763
22447W        W90841  20.013  21.684   3.703
22448W        W90842  21.678  12.407  12.119
22449W        W90843  18.791  29.182   0.995
22450W        W90844   1.944  44.485   0.752
22451W        W90845  43.486  12.987   2.874
22452W        W90846  24.063  36.395   0.778
22453W        W90847  25.525  33.900  13.985
22454W        W90848  20.320   9.446   3.261
22455W        W90849  42.504  33.115  12.626
22456W        W90850  36.624  21.456  13.792
22457W        W90851  25.608  17.822  13.122
22458W        W90852  18.024  43.823  10.606
22459W        W90853  39.741  25.024  10.694
22460W        W90854   2.329  23.281  11.657
22461W        W90855  40.319   6.725   3.269
22462W        W90856   1.253  41.202   1.183
22463W        W90857  13.782  16.817  10.554
22464W        W90858  32.089   5.367  14.883
22465W        W90859   6.526   0.014  12.096
22466W        W90860  20.064  26.041  14.612
22467W        W90861  42.924  20.676  11.112
22468W        W90862   8.714  28.877   4.155
22469W        W90863  28.852  25.513   1.424
22470W        W90864  16.100  32.357   3.224
22471W        W90865  24.412   6.625   2.734
22472W        W90866  37.205   5.754  13.998
22473W        W90867  28.213  12.148   0.494
22474W        W90868   1.260   5.160   1.740
22475W        W90869   0.779  29.211   0.894
22476W        W90870  38.359  25.230   1.393
22477W        W90871   0.524   2.833   2.820
22478W        W90872  21.263   0.442  11.173
22479W        W90873  16.008   3.859   4.847
22480W        W90874  44.891  19.282  11.068
22481W        W90875  27.814  44.339   0.496
22482W        W90876  16.190  28.001   3.533
22483W        W90877  31.747  44.973   0.244
22484W        W90878  37.092   0.341   3.990
22485W        W90879  27.413  17.670  12.564
22486W        W90880  38.788  27.923  10.937
22487W        W90881  34.615  33.559  11.367
22488W        W90882  37.757   4.284   2.266
22489W        W90883  32.423  30.391   0.762
22490W        W90884  12.797  24.210  12.766
22491W        W90885  29.114  19.591   3.085
22492W        W90886   7.678   4.889  14.580
22493W        W90887  18.466   7.198  10.646
22494W        W90888  19.608   2.216  13.411
22495W        W90889  33.667   1.339   2.688
22496W        W90890   1.946   9.334  10.473
22497W        W90891   0.930   7.133  14.789
22498W        W90892  21.368  41.023  14.813
22499W        W90893  34.510  32.060   1.918
22500W        W90894  35.005   7.329  14.959
22501W        W90895   5.659   9.286  13.894
22502W        W90896  20.195  29.129  14.334
22503W        W90897  13.366  16.042   2.263
22504W        W90898  25.558  35.053   0.423
22505W        W90899  29.559  22.121   0.391
22506W        W90900   2.284  41.915  14.244
22507W        W90901  16.688  43.274   1.639
22508W        W90902   9.548   4.382   0.995
22509W        W90903   0.018  15.378   3.401
22510W        W90904  41.198  34.865  14.046
22511W        W90905   7.820  13.822  14.284
22512W        W90906  12.420  42.981   1.125
22513W        W90907  40.913  44.055   2.389
22514W        W90908  20.186  37.452   0.377
22515W        W90909  44.833  25.258   0.371
22516W        W90910   7.847  25.531   1.322
22517W        W90911  34.096  32.397   3.080
22518W        W90912  41.355   2.996  11.841
22519W        W90913   0.778  21.039   4.594
22520W        W90914  29.148  33.182   4.649
22521W        W90915   9.252  19.090   3.295
22522W        W90916   6.711  25.719  14.295
22523W        W90917   3.762   6.532  11.537
22524W        W90918  44.191  15.489   1.394
22525W        W90919  44.996  31.487   0.297
22526W        W90920  24.543  43.076   4.197
22527W        W90921  10.263  25.934   4.097
22528W        W90922  34.855   6.249   2.753
22529W        W90923   3.389  16.279   3.155
22530W        W90924  28.174  36.965   0.411
22531W        W90925  10.335  31.446  12.830
22532W        W90926   3.813  29.345   3.003
22533W        W90927  31.101  39.107  14.971
22534W        W90928  26.387   3.248  10.772
22535W        W90929  20.557  31.546  11.621
22536W        W90930  40.575  11.646   0.954
22537W        W90931  14.697  15.216   2.961
22538W        W90932  14.879  27.079  10.790
22539W        W90933  42.636  16.565   3.338
22540W        W90934  12.631   8.352   2.304
22541W        W90935   9.609   3.388   5.103
22542W        W90936  33.405   2.430   0.479
22543W        W90937  38.007   9.633  14.865
22544W        W90938  30.605  40.802   2.889
22545W        W90939  40.135  17.319   1.322
22546W        W90940  35.140   6.401  11.769
22547W        W90941   7.713  44.463   2.181
22548W        W90942   5.935  29.306   0.507
22549W        W90943  33.386   5.572  12.899
22550W        W90944  34.756   2.824   2.712
22551W        W90945  25.610  31.990   1.695
22552W        W90946  21.791  19.255  13.815
22553W        W90947  31.734  17.579   1.770
22554W        W90948  33.054  21.475  14.557
22555W        W90949   0.741  41.030  11.105
22556W        W90950  19.639  36.596  11.672
22557W        W90951  39.273  17.012  14.359
22558W        W90952  13.357  11.394   1.255
22559W        W90953  24.129   4.201  11.084
22560W        W90954  35.925  11.231   0.449
22561W        W90955  42.842  17.719  12.182
22562W        W90956  11.625   9.333   2.369
22563W        W90957  10.469   4.488  13.080
22564W        W90958  16.533  18.006   2.666
22565W        W90959  24.204   8.342   2.691
22566W        W90960  20.207  31.001  11.153
22567W        W90961  36.824   0.108   0.310
22568W        W90962  27.544  30.722   1.639
22569W        W90963   3.949  39.262   0.224
22570W        W90964  43.459  35.475   3.226
22571W        W90965  41.329  30.938   2.445
22572W        W90966  11.920   7.964   2.679
22573W        W90967  18.562  31.833  11.372
22574W        W90968  11.667  33.500   5.141
22575W        W90969   8.591   7.175   2.854
22576W        W90970   9.035  38.725   2.822
22577W        W90971   9.250  31.090   3.771
22578W        W90972   4.176  30.214  14.911
22579W        W90973   6.766  15.031   9.916
22580W        W90974  19.947  41.441   2.890
22581W        W90975  23.726  12.210   3.852
22582W        W90976  40.992  27.706   0.383
22583W        W90977  12.675  18.081  12.856
22584W        W90978  33.928  18.131   2.816
22585W        W90979  14.720  39.292  11.866
22586W        W90980   6.690  10.627   4.156
22587W        W90981  43.091  24.951   4.422
22588W        W90982   5.482  11.862   3.781
22589W        W90983  25.179  39.051   1.783
22590W        W90984   5.863   4.451  11.727
22591W        W90985  18.279  20.274  11.581
22592W        W90986  35.685  19.630   0.768
22593W        W90987  40.358  16.876  14.285
22594W        W90988  36.107  36.262   4.323
22595W        W90989  25.947  13.569   3.960
22596W        W90990   0.010  42.771   4.561
22597W        W90991   3.098   7.095  11.446
22598W        W90992  29.925  14.826  14.935
22599W        W90993   9.748  39.294   0.309
22600W        W90994  24.766  24.060  14.426
22601W        W90995  25.674   8.704   1.261
22602W        W90996  34.961  32.440  12.973
22603W        W90997   9.733  37.845   4.052
22604W        W90998  41.882  13.850   0.777
22605W        W90999  14.010  44.978  11.566
22606W        W91000  32.497  39.322  10.471
22607W        W91001   4.411  39.464   0.050
22608W        W91002  30.154  35.448   1.122
22609W        W91003  13.601  28.959  14.739
22610W        W91004  40.306  28.706   4.640
22611W        W91005  20.595   2.931  11.062
22612W        W91006  27.462   4.299  10.818
22613W        W91007  41.403  14.993   4.098
22614W        W91008  40.767  30.715  12.059
22615W        W91009  20.112  26.001   1.383
22616W        W91010  17.745   1.082  13.372
22617W        W91011  35.211  32.535   0.725
22618W        W91012  36.947  42.740   1.703
22619W        W91013  25.677   9.160  12.145
22620W        W91014  41.860  10.467   2.999
22621W        W91015  32.926  37.527   1.621
22622W        W91016  12.093   4.377  10.651
22623W        W91017  22.184   7.831   3.575
22624W        W91018  39.891   2.065   3.458
22625W        W91019  38.258   4.935  13.866
22626W        W91020  31.858  24.740  11.525
22627W        W91021   5.217  36.466   3.822
22628W        W91022  10.231  10.213   4.023
22629W        W91023  10.778  32.193   4.920
22630W        W91024  36.495  37.378   0.147
22631W        W91025   2.057  14.543  14.046
22632W        W91026   7.372  21.310   2.407
22633W        W91027  31.592  34.494  13.845
22634W        W91028  28.160  36.844  11.671
22635W        W91029  32.710  44.278   3.944
22636W        W91030  27.110  27.161  11.834
22637W        W91031  32.569   8.028  11.560
22638W        W91032  35.095  24.256   3.178
22639W        W91033  24.215  26.033   3.905
22640W        W91034  42.848  24.745  11.574
22641W        W91035  22.578  25.720   4.145
22642W        W91036  28.026  37.592  12.565
22643W        W91037  43.318   0.057   2.644
22644W        W91038  36.849  37.538  13.889
22645W        W91039  34.308  40.415   1.857
22646W        W91040  23.049  10.786  12.215
22647W        W91041  32.915  26.292  10.594
22648W        W91042   9.399   2.117  12.367
22649W        W91043  32.909  12.784  11.620
22650W        W91044  12.731  27.004  11.138
22651W        W91045  31.914  43.882  13.543
22652W        W91046  37.686  28.893   2.151
22653W        W91047  29.927  38.900  13.949
22654W        W91048  28.055  33.807  13.391
22655W        W91049  42.593  21.550  14.323
22656W        W91050   2.372  41.444  11.532
22657W        W91051  36.025   5.214  10.741
22658W        W91052   8.273  31.931  12.084
22659W        W91053  16.067  24.944   2.838
22660W        W91054  10.248  15.740   3.741
22661W        W91055  37.626  26.593   4.540
22662W        W91056   8.496  10.655   0.911
22663W        W91057  41.515   3.824  14.252
22664W        W91058  19.515   2.507   0.737
22665W        W91059  27.083   2.073   9.994
22666W        W91060  27.265  34.321  11.884
22667W        W91061  35.878   9.819  14.259
22668W        W91062  35.129  22.978  12.165
22669W        W91063  44.329  38.753   3.637
22670W        W91064   2.258  14.913  11.038
22671W        W91065  33.854   0.769  14.025
22672W        W91066  34.449  30.416   4.205
22673W        W91067  38.850  21.069  11.564
22674W        W91068   5.348   5.251   2.666
22675W        W91069  35.602  22.910   2.678
22676W        W91070  19.098   7.253  14.502
22677W        W91071  38.133  36.124  12.503
22678W        W91072  37.035   2.321  10.874
22679W        W91073   0.083  38.087   3.897
22680W        W91074  34.833  38.870   0.386
22681W        W91075  24.960  11.088  14.755
22682W        W91076  30.112   7.775   4.593
22683W        W91077  33.914  12.346  10.978
22684W        W91078  42.091  43.449   0.428
22685W        W91079  20.667  37.256   1.275
22686W        W91080  39.021  31.961  14.224
22687W        W91081  14.552  15.406  10.677
22688W        W91082  34.791  34.318  12.230
22689W        W91083   3.911  32.384  13.503
22690W        W91084  44.949  30.222  13.847
22691W        W91085  14.677  25.611   1.968
22692W        W91086   2.320  28.514   4.194
22693W        W91087  22.693  32.657  13.783
22694W        W91088  22.249   3.492  14.903
22695W        W91089  30.029  28.985   5.313
22696W        W91090   1.241  28.688   3.684
22697W        W91091   6.840  29.618   0.039
22698W        W91092   5.383  22.930  11.658
22699W        W91093  20.243  31.070   0.989
22700W        W91094  42.432  31.847   4.761
22701W        W91095  40.402   2.766   3.087
22702W        W91096  17.733  23.047  13.141
22703W        W91097  18.556  23.251  11.109
22704W        W91098  31.862  38.979  10.538
22705W        W91099  22.706  33.102  11.959
22706W        W91100  31.615   7.620   3.856
22707W        W91101   3.795   4.283  11.520
22708W        W91102  15.336  21.567   4.535
22709W        W91103  29.974   9.245   4.164
22710W        W91104   8.451  40.895   0.753
22711W        W91105  33.498  25.214   1.353
22712W        W91106  28.854  34.364  13.768
22713W        W91107  27.123  36.083   2.920
22714W        W91108   6.388  15.413  12.046
22715W        W91109  41.979  36.680  12.105
22716W        W91110   8.833  31.515   0.377
22717W        W91111  23.205  31.702   5.074
22718W        W91112  18.618   7.309   3.396
22719W        W91113  23.524  35.311  10.626
22720W        W91114  38.261  14.222   1.263
22721W        W91115  44.003  31.639   2.734
22722W        W91116  39.337  39.500   2.227
22723W        W91117  19.647  17.913  11.574
22724W        W91118   2.576  22.628  12.039
22725W        W91119  28.472  40.336  11.973
22726W        W91120  18.954  20.098  14.472
22727W        W91121  16.206  35.616  13.861
22728W        W91122  30.975  39.593  13.278
22729W        W91123  29.018  17.597  14.375
22730W        W91124  16.175  38.861  11.691
22731W        W91125   9.704  44.986  11.855
22732W        W91126  36.666  12.023   0.613
22733W        W91127  29.093  12.586  10.898
22734W        W91128  14.269  27.683   3.042
22735W        W91129  10.111  26.118  13.101
22736W        W91130  22.431  11.404   4.057
22737W        W91131  20.440  34.837  11.531
22738W        W91132  24.188  41.503  14.773
22739W        W91133   2.563  24.679  12.119
22740W        W91134  42.486  44.824  13.874
22741W        W91135  11.716  11.568  10.933
22742W        W91136  43.005  44.925   0.970
22743W        W91137  37.456  19.017  12.401
22744W        W91138  17.900  27.875  10.175
22745W        W91139   4.919  38.059  13.923
22746W        W91140  29.351   9.756  11.864
22747W        W91141  11.112  33.282   4.605
22748W        W91142   8.642   4.737  13.056
22749W        W91143  21.535  44.199   0.287
22750W        W91144  25.811   9.449  13.436
22751W        W91145  12.029   9.132   2.135
22752W        W91146  11.625  14.008  11.696
22753W        W91147   1.982  20.715  12.823
22754W        W91148  20.363  24.261   0.535
22755W        W91149  12.286   3.780  11.125
22756W        W91150   2.385  32.711   3.776
22757W        W91151  31.875   3.168   4.152
22758W        W91152  27.517  23.734   2.770
22759W        W91153   1.045   1.803  11.486
22760W        W91154  33.605  39.300  13.609
22761W        W91155  35.422  44.461   0.457
22762W        W91156  32.756  40.912  13.816
22763W        W91157  41.815  30.157   2.583
22764W        W91158  10.191  44.425  10.343
22765W        W91159  37.524   5.474   3.201
22766W        W91160   1.161   0.827  10.678
22767W        W91161  33.019  26.754  11.447
22768W        W91162   4.744  24.700  14.466
22769W        W91163  24.626   2.904  13.941
22770W        W91164   6.431  42.459   0.636
22771W        W91165  16.890  23.224  13.741
22772W        W91166  17.058   7.466  14.291
22773W        W91167  41.198  43.253  11.542
22774W        W91168  28.202  21.486  14.938
22775W        W91169  23.216  11.731  12.525
22776W        W91170  35.010   3.046   4.932
22777W        W91171   5.322  20.691  14.969
22778W        W91172   1.778  38.908  12.498
22779W        W91173   3.417  38.001   3.900
22780W        W91174  35.006  41.790   0.789
22781W        W91175  26.447  37.845  11.604
22782W        W91176  19.655  12.435   3.787
22783W        W91177   2.344  42.225   1.146
22784W        W91178  41.268  28.034   1.495
22785W        W91179  32.512  27.006   1.754
22786W        W91180   5.422  39.880  13.624
22787W        W91181  27.531  24.505   1.200
22788W        W91182  22.034  17.257  10.488
22789W        W91183  44.781   8.759  13.931
22790W        W91184  36.823  35.555   0.732
22791W        W91185   3.455  17.609  13.453
22792W        W91186  32.347  24.474   1.734
22793W        W91187  39.158  22.873   4.984
22794W        W91188   1.474  44.071  14.870
22795W        W91189  30.458  44.446   4.892
22796W        W91190  38.907  36.388   2.782
22797W        W91191  25.354   6.300   1.413
22798W        W91192   8.398   2.554   0.307
22799W        W91193   1.911  31.840  12.113
22800W        W91194  27.423  12.249  12.907
22801W        W91195  26.903   5.097   1.137
22802W        W91196  37.884  14.057  11.119
22803W        W91197   4.792  37.119  13.880
22804W        W91198  24.249   9.968   1.799
22805W        W91199  42.986   9.775   2.751
22806W        W91200  11.242  22.036   0.968
22807W        W91201  35.388  13.329   2.771
22808W        W91202   8.920   8.497  14.456
22809W        W91203   4.159  19.311   3.486
22810W        W91204  28.159  34.976  11.072
22811W        W91205  40.357  20.105   3.364
22812W        W91206  20.476  13.397   1.147
22813W        W91207  10.224  26.908   1.229
22814W        W91208  44.823   7.846   1.891
22815W        W91209   1.369  19.069   1.690
22816W        W91210  41.284  10.911  13.124
22817W        W91211  27.090  27.145   0.251
22818W        W91212   8.670  35.092   4.247
22819W        W91213  41.202  30.108  14.353
22820W        W91214   6.872   6.739  10.392
22821W        W91215  28.021   8.879  10.680
22822W        W91216  42.970  25.210   1.327
22823W        W91217  23.354  32.887  14.151
22824W        W91218  29.044   3.190   3.848
22825W        W91219  17.199  32.558  12.036
22826W        W91220  30.738  27.403   3.710
22827W        W91221  14.524  19.008   2.288
22828W        W91222  36.019  42.599  11.155
22829W        W91223  23.728   8.493   4.894
22830W        W91224  35.934  19.948   4.098
22831W        W91225   2.672  14.926   3.282
22832W        W91226   8.761  15.535  14.347
22833W        W91227  31.505  44.525   0.304
22834W        W91228  12.894   8.740  11.177
22835W        W91229  26.202  20.067  12.897
22836W        W91230  29.344   9.018  12.369
22837W        W91231  13.223  32.144   4.115
22838W        W91232  25.370   0.632  12.461
22839W        W91233   1.013  22.175   0.309
22840W        W91234  11.430  29.969   0.340
22841W        W91235  14.752  12.416  11.986
22842W        W91236  11.396  13.777   2.836
22843W        W91237  41.968   0.469  14.914
22844W        W91238  25.743   0.922   1.523
22845W        W91239  30.691  44.937  11.558
22846W        W91240   1.431   1.992  13.423
22847W        W91241  14.596   7.866  13.825
22848W        W91242  22.816  25.599   1.825
22849W        W91243  25.913  34.605  11.978
22850W        W91244  43.398  22.279  10.682
22851W        W91245  40.752  24.219   1.961
22852W        W91246  16.558  21.137   2.819
22853W        W91247  44.967  43.191   4.842
22854W        W91248  32.927  30.369  11.557
22855W        W91249  40.395  26.691  12.357
22856W        W91250  15.198   6.242   4.049
22857W        W91251  18.896  28.623  10.713
22858W        W91252  38.552   9.647  14.932
22859W        W91253  27.155  43.792   0.269
22860W        W91254  30.015  19.136   1.685
22861W        W91255  40.690  25.752   3.344
22862W        W91256   0.661  12.273   1.685
22863W        W91257  42.180  19.662   4.106
22864W        W91258  38.358  23.831   1.921
22865W        W91259  40.945   1.727   0.412
22866W        W91260  20.679  30.106   1.580
22867W        W91261   3.216  13.870   0.010
22868W        W91262  24.879   5.450  14.909
22869W        W91263   1.387   1.752   1.018
22870W        W91264  11.070  33.343  12.151
22871W        W91265  35.100  35.064  13.308
22872W        W91266   9.309  30.481   0.927
22873W        W91267  39.509  33.443  12.984
22874W        W91268   9.495  23.321  10.285
22875W        W91269  15.660   7.251  13.421
22876W        W91270  11.157  42.867   0.500
22877W        W91271  35.994  10.308  11.516
22878W        W91272  44.217  42.818   2.857
22879W        W91273  35.641  36.106  14.990
22880W        W91274  19.291  36.507  12.056
22881W        W91275  23.461  36.982  10.827
22882W        W91276   3.904  31.578  14.727
22883W        W91277  24.013  14.590   2.280
22884W        W91278  20.346  41.796   2.781
22885W        W91279  17.962  36.815   0.295
22886W        W91280  38.860  44.200   4.576
22887W        W91281  26.252   7.687  14.043
22888W        W91282   3.401  44.688  14.810
22889W        W91283   4.806  41.365  10.723
22890W        W91284  11.364  40.102   2.572
22891W        W91285  32.890  32.408  14.738
22892W        W91286  16.837  28.449   3.640
22893W        W91287  35.844   5.413   0.065
22894W        W91288  17.416  24.578   4.443
22895W        W91289  24.028  30.697  13.808
22896W        W91290  35.166  19.780   0.777
22897W        W91291   4.363  36.608   0.507
22898W        W91292  41.745  13.822  11.321
22899W        W91293  41.592  38.777  13.436
22900W        W91294  28.810   0.875   1.215
22901W        W91295   2.516  11.845   3.848
22902W        W91296  40.053  42.501   4.835
22903W        W91297   4.773  11.834   2.679
22904W        W91298  36.811   8.629  14.167
22905W        W91299  19.099  14.609   3.730
22906W        W91300   7.379   5.689  10.666
22907W        W91301  11.110   3.740  12.834
22908W        W91302  32.380  36.387   0.468
22909W        W91303  44.557   0.966   3.203
22910W        W91304  17.721  18.954   3.668
22911W        W91305  28.600  20.711   1.397
22912W        W91306  37.772  19.487   2.214
22913W        W91307  29.285  39.932  10.735
22914W        W91308  31.928   6.924   1.921
22915W        W91309  23.089  39.861  11.965
22916W        W91310  37.605  11.479   3.565
22917W        W91311  14.540  26.607   3.404
22918W        W91312  25.698  20.010   2.263
22919W        W91313  29.660  29.461   1.655
22920W        W91314  18.196  21.310  14.990
22921W        W91315   0.219  35.404   5.367
22922W        W91316  15.208   0.973  13.926
22923W        W91317  44.947  30.402   4.559
22924W        W91318  40.345  34.496  14.553
22925W        W91319   2.904   6.373  11.968
22926W        W91320  14.196   2.285   2.805
22927W        W91321  24.070  32.637   3.590
22928W        W91322  18.120  21.230   4.550
22929W        W91323   1.333  36.401  11.006
22930W        W91324  35.374   3.410   4.955
22931W        W91325  37.253   3.932  14.037
22932W        W91326   0.225  25.747   0.684
22933W        W91327  10.220  19.679   0.740
22934W        W91328   7.645  40.649  14.810
22935W        W91329  38.888   2.490  13.868
22936W        W91330  18.034  39.031  12.570
22937W        W91331   5.902  23.379  13.834
22938W        W91332  25.944  36.145  13.347
22939W        W91333   2.891   1.467  12.487
22940W        W91334  21.166  43.108  13.895
22941W        W91335  16.477  26.851   3.217
22942W        W91336   1.889  16.289   3.321
22943W        W91337  36.120   5.981   3.198
22944W        W91338  20.136  40.644  12.492
22945W        W91339  32.552  43.298  10.992
22946W        W91340   6.405  19.753  13.344
22947W        W91341  18.607   5.255   3.916
22948W        W91342  27.180  10.135   1.880
22949W        W91343   7.706  36.160  14.866
22950W        W91344   5.433  30.610   3.241
22951W        W91345   6.411  20.566  11.953
22952W        W91346  18.787  32.562  11.576
22953W        W91347  35.104  12.364  13.236
22954W        W91348  36.578  30.940   1.037
22955W        W91349   3.799  30.029   0.812
22956W        W91350  36.571  29.004   3.568
22957W        W91351  16.720  22.107   0.745
22958W        W91352  40.095  14.752   1.103
22959W        W91353  10.600  42.540  10.376
22960W        W91354   3.717  19.372   2.239
22961W        W91355  28.007  28.682   2.369
22962W        W91356  23.930  27.361  11.965
22963W        W91357  31.530  26.154   3.244
22964W        W91358  38.949   7.227  13.014
22965W        W91359  30.840  15.749  10.925
22966W        W91360  19.700  42.445   4.776
22967W        W91361   9.266  44.835   2.358
22968W        W91362  35.988  33.613  11.987
22969W        W91363  31.470   8.169   1.390
22970W        W91364  16.129  25.158   3.310
22971W        W91365  11.594  22.766  10.790
22972W        W91366  12.262  34.465  14.721
22973W        W91367  39.810   9.595  12.457
22974W        W91368  26.163  25.110  10.633
22975W        W91369   4.002   2.863   1.816
22976W        W91370  33.272  38.937  13.860
22977W        W91371  40.351  39.997   3.088
22978W        W91372  43.278   1.347  13.323
22979W        W91373  33.922  15.236  14.757
22980W        W91374  41.058  38.807  12.565
22981W        W91375  15.670   3.922   4.075
22982W        W91376  15.519  41.103   5.022
22983W        W91377  37.414  31.003   1.488
22984W        W91378   8.046   6.352   5.122
22985W        W91379  31.880  44.525   2.468
22986W        W91380   0.424  39.797   3.635
22987W        W91381  30.081  24.023   0.902
22988W        W91382  24.453  22.538   2.245
22989W        W91383  25.962  40.209  10.378
22990W        W91384  43.479  12.431   3.565
22991W        W91385  28.923   5.878   2.787
22992W        W91386  41.681   5.344  13.006
22993W        W91387  31.970  36.316   4.467
22994W        W91388  37.191  18.020   3.469
22995W        W91389  22.179  31.605  13.772
22996W        W91390  30.614  41.383  13.034
22997W        W91391  43.478   1.551   3.721
22998W        W91392   9.614  11.197   0.422
22999W        W91393   3.909  28.966   2.025
23000W        W91394  35.299  18.806   1.692
23001W        W91395  28.392  20.145   1.464
23002W        W91396   0.761  31.915   3.255
23003W        W91397  17.255  25.175  12.682
23004W        W91398   2.072  37.196  14.293
23005W        W91399  38.210  31.849  13.713
23006W        W91400  18.126  44.091  11.038
23007W        W91401  25.937  14.588  14.491
23008W        W91402  22.224  18.527  10.181
23009W        W91403   4.969   7.844  14.383
23010W        W91404  34.950  31.160  11.968
23011W        W91405  21.629  14.187  13.515
23012W        W91406  34.006  29.894  10.886
23013W        W91407  39.446  21.101  12.198
23014W        W91408   5.946  33.888  14.386
23015W        W91409  15.262  34.083  12.489
23016W        W91410  14.246  28.552  10.529
23017W        W91411  41.373   4.149  14.998
23018W        W91412  34.971  29.472   3.098
23019W        W91413  39.565  21.601  10.760
23020W        W91414  34.262  39.288  12.989
23021W        W91415  14.105   0.318  12.258
23022W        W91416  34.434  20.313  10.835
23023W        W91417   9.826   0.749   3.731
23024W        W91418  25.173   7.825   4.071
23025W        W91419  15.870   5.425  10.758
23026W        W91420  30.765   9.302   1.989
23027W        W91421  28.064  17.055  10.891
23028W        W91422  42.269   1.693   1.892
23029W        W91423  11.110  22.145  10.761
23030W        W91424  39.999  12.481  12.091
23031W        W91425   1.979  16.353  14.267
23032W        W91426  28.715   9.202   2.093
23033W        W91427  16.696   0.714  10.797
23034W        W91428  21.498  30.098  14.595
23035W        W91429  28.075  10.472   2.251
23036W        W91430  12.231  18.304  12.664
23037W        W91431  36.892   3.793  10.653
23038W        W91432   0.690  42.671   5.005
23039W        W91433  27.382  15.091   2.271
23040W        W91434   4.020  16.219  11.944
23041W        W91435  25.483   7.797   1.258
23042W        W91436  16.016  26.702   3.045
23043W        W91437   9.124  11.273  14.572
23044W        W91438  25.691  32.894  12.274
23045W        W91439  26.144  22.026   4.576
23046W        W91440  15.107  35.833   3.712
23047W        W91441  44.809  13.106  11.936
23048W        W91442   9.524  43.047   4.567
23049W        W91443  38.627  34.862  13.617
23050W        W91444   7.791   1.292   1.958
23051W        W91445   8.456  44.048   0.836
23052W        W91446  27.516  32.352   4.543
23053W        W91447   1.237  26.641   3.695
23054W        W91448   7.665   8.080   2.303
23055W        W91449   8.866  16.795   1.270
23056W        W91450  24.452  40.435   1.219
23057W        W91451  25.785  16.188   1.015
23058W        W91452  43.766   3.279   1.674
23059W        W91453  24.232  34.846  14.849
23060W        W91454  23.068   4.121  14.270
23061W        W91455  32.081   0.003   0.668
23062W        W91456  30.744  29.720  14.073
23063W        W91457   4.740  29.397   1.908
23064W        W91458   3.784  32.597  11.161
23065W        W91459  13.924   8.832  11.253
23066W        W91460  37.322   3.477   1.330
23067W        W91461  10.285  10.648   1.379
23068W        W91462  22.720  20.225  11.459
23069W        W91463  40.210  35.346   1.475
23070W        W91464  43.745  42.534   2.281
23071W        W91465   8.235   7.208   0.976
23072W        W91466  17.349  44.882  13.543
23073W        W91467  20.535  32.060   2.356
23074W        W91468  43.152  19.284  11.514
23075W        W91469  23.147  28.131   2.327
23076W        W91470   1.072   4.883  13.465
23077W        W91471  14.108  31.136  12.918
23078W        W91472  19.015  36.073  11.977
23079W        W91473   6.438  27.575  14.312
23080W        W91474  35.790  29.167  11.887
23081W        W91475  22.140   6.417  11.663
23082W        W91476  40.526  26.621   1.728
23083W        W91477   6.469  24.499  11.474
23084W        W91478   7.983  25.048   0.174
23085W        W91479  25.497  23.244   3.694
23086W        W91480  10.579  23.748   4.600
23087W        W91481   2.212  42.896   3.393
23088W        W91482  29.801  13.084  11.083
23089W        W91483   6.000   8.224  14.808
23090W        W91484  32.118  33.522   0.020
23091W        W91485  32.849   7.900  11.143
23092W        W91486  24.835   3.265   1.402
23093W        W91487  20.646  22.796   2.755
23094W        W91488  29.456  37.523   0.435
23095W        W91489  41.051  40.847   2.060
23096W        W91490  15.226  30.468  11.549
23097W        W91491  40.545  13.084  13.057
23098W        W91492   6.156  34.410  12.522
23099W        W91493  18.567  17.271   3.632
23100W        W91494  38.371   1.192   4.468
23101W        W91495  31.454  12.805   4.983
23102W        W91496  34.023   8.904  13.009
23103W        W91497  18.711  41.470   2.205
23104W        W91498  11.867  31.817   5.013
23105W        W91499   7.948  40.929   0.653
23106W        W91500  37.410   4.042   4.091
23107W        W91501  43.843   7.189  14.913
23108W        W91502  25.005   5.507   4.091
23109W        W91503  41.053  17.306   2.817
23110W        W91504  18.353  25.517   3.070
23111W        W91505  14.864  26.978  13.413
23112W        W91506  36.605  20.486  13.807
23113W        W91507  38.486   6.727   2.630
23114W        W91508  16.581  23.622  13.848
23115W        W91509  17.806  42.431   1.801
23116W        W91510   8.322  10.364  13.827
23117W        W91511  11.678   0.829  10.631
23118W        W91512  36.090   2.401   2.799
23119W        W91513  28.377   8.382  13.925
23120W        W91514  20.214   6.101   4.317
23121W        W91515   4.404  17.610  10.732
23122W        W91516  16.796  30.507   2.328
23123W        W91517  20.624  10.388  13.475
23124W        W91518  44.340  35.425   0.220
23125W        W91519   2.728  37.802  14.789
23126W        W91520  29.464   1.497   1.900
23127W        W91521   6.846  41.282  14.945
23128W        W91522  40.374  10.599  12.161
23129W        W91523  15.672  36.060  13.282
23130W        W91524  15.241  43.473  14.710
23131W        W91525  12.738  27.264   2.826
23132W        W91526  12.370  32.531  11.186
23133W        W91527  27.260   1.416   1.055
23134W        W91528  25.962   1.296   1.254
23135W        W91529   3.927  42.001  13.124
23136W        W91530  13.935  20.578   1.800
23137W        W91531  22.394  23.488  10.805
23138W        W91532  33.101  19.643  11.157
23139W        W91533  28.662   3.695  14.060
23140W        W91534  16.608   9.331   2.826
23141W        W91535  15.588  43.838   4.969
23142W        W91536   8.760  43.199  14.013
23143W        W91537  10.073  35.196   0.036
23144W        W91538  28.871  11.280  14.870
23145W        W91539  40.436  15.904   2.640
23146W        W91540   0.315  15.672  13.313
23147W        W91541  40.859   8.738   4.007
23148W        W91542  29.351  12.817   1.667
23149W        W91543  38.628  15.584  13.880
23150W        W91544  24.105  25.144   4.114
23151W        W91545  18.892  18.118   1.859
23152W        W91546  14.017  18.891  12.053
23153W        W91547   9.299   7.760   1.695
23154W        W91548  37.844  37.755   4.276
23155W        W91549  13.115   2.691   2.248
23156W        W91550  32.146  12.280  12.576
23157W        W91551  27.187  26.163   3.271
23158W        W91552  27.188  35.530   0.027
23159W        W91553   5.813   9.000  13.469
23160W        W91554   9.785  19.742   9.884
23161W        W91555  15.130  22.188  13.451
23162W        W91556  30.240   3.362   1.348
23163W        W91557  33.877  42.574   4.974
23164W        W91558  25.128   4.837   1.974
23165W        W91559  16.192  29.415  14.894
23166W        W91560  10.803  12.844  11.875
23167W        W91561   0.784  28.143   1.222
23168W        W91562  19.718  29.727   1.417
23169W        W91563  13.468  42.001  10.694
23170W        W91564  37.710  44.342  10.381
23171W        W91565  16.115   7.285  14.504
23172W        W91566  44.577   2.748   0.498
23173W        W91567  12.871  11.247   4.164
23174W        W91568  21.939  31.227  12.567
23175W        W91569   5.023  22.760   3.773
23176W        W91570  41.786   5.671   0.432
23177W        W91571   0.416   7.284  14.747
23178W        W91572  31.569  41.305   3.674
23179W        W91573   9.739  30.281   3.292
23180W        W91574  25.075  15.631   2.675
23181W        W91575  38.936  31.105   4.117
23182W        W91576  44.696  29.921   4.541
23183W        W91577  26.568  31.923  12.958
23184W        W91578   6.953   5.333  13.762
23185W        W91579  43.949   8.787   3.870
23186W        W91580   5.727  23.871   2.840
23187W        W91581  12.295  13.663  13.901
23188W        W91582  41.310  24.158   1.497
23189W        W91583  31.150  35.671  13.983
23190W        W91584   6.065   8.190   2.239
23191W        W91585  31.010   7.464  12.983
23192W        W91586  17.496  36.800   1.842
23193W        W91587  41.297   9.937  11.156
23194W        W91588   0.992  25.342  11.681
23195W        W91589   6.821  22.071  13.401
23196W        W91590  19.806  14.848   2.679
23197W        W91591   9.570   2.940  13.599
23198W        W91592   3.435   7.921   2.515
23199W        W91593  36.390   7.780   0.274
23200W        W91594  13.988  35.621  11.255
23201W        W91595  20.608  36.870  12.566
23202W        W91596  22.704  24.534  14.261
23203W        W91597  23.765  26.573  13.997
23204W        W91598   0.969  13.845  13.540
23205W        W91599  21.482   3.879  11.576
23206W        W91600  37.936  43.522  13.573
23207W        W91601  31.063   6.157  13.816
23208W        W91602  42.095  39.932   2.131
23209W        W91603   0.800  35.843  14.861
23210W        W91604  22.451  44.715  12.961
23211W        W91605  11.780  39.357   3.679
23212W        W91606   7.382  10.127  14.316
23213W        W91607  36.094  18.617   3.730
23214W        W91608  42.226  20.181  13.629
23215W        W91609   5.118  35.963   1.327
23216W        W91610  33.816  41.597  14.596
23217W        W91611  28.667  41.681  12.358
23218W        W91612   8.443  10.642  13.365
23219W        W91613   3.495  28.039  11.105
23220W        W91614  39.913  10.879  12.852
23221W        W91615  27.415  33.115  13.140
23222W        W91616   3.935  13.826   3.721
23223W        W91617  26.686  28.835  12.554
23224W        W91618  17.148  19.669   4.912
23225W        W91619  11.610  11.726  12.429
23226W        W91620  43.976  39.903  12.635
23227W        W91621  17.936  25.678   0.845
23228W        W91622  20.107  34.363   2.882
23229W        W91623   6.115  39.290  14.299
23230W        W91624   6.730  35.539   4.596
23231W        W91625  30.331  37.441   4.532
23232W        W91626  18.246   9.117  13.923
23233W        W91627  12.579  12.886   1.602
23234W        W91628  14.174  36.401   1.153
23235W        W91629  24.730  19.436   2.800
23236W        W91630  43.913  34.054   4.979
23237W        W91631   4.602  24.606   2.812
23238W        W91632  35.904  36.706   0.380
23239W        W91633   1.457  35.003   0.439
23240W        W91634  21.167  41.972   0.431
23241W        W91635  16.048  28.312   4.407
23242W        W91636  12.081  30.712   3.661
23243W        W91637  42.437  34.360   9.752
23244W        W91638  38.699  13.601   2.877
23245W        W91639  14.769  36.539   0.437
23246W        W91640   5.977   6.138  12.516
23247W        W91641   3.418  39.941  13.969
23248W        W91642  34.972  38.500   0.020
23249W        W91643  24.582  17.647  11.837
23250W        W91644  13.738   3.113  12.449
23251W        W91645  15.765   1.702  14.196
23252W        W91646  17.648  18.563   0.145
23253W        W91647  15.220  44.869   3.741
23254W        W91648  39.430  32.224   3.829
23255W        W91649  13.807   8.403   3.301
23256W        W91650  42.410  39.746   1.631
23257W        W91651  38.821  11.019   4.031
23258W        W91652  19.966  44.291  12.523
23259W        W91653  21.391  39.921  10.500
23260W        W91654  13.169  20.774   1.278
23261W        W91655  36.975   1.349   1.765
23262W        W91656   6.313  15.107   4.972
23263W        W91657  44.337  32.099  10.311
23264W        W91658  36.138  11.397   2.231
23265W        W91659  41.437  15.831  10.359
23266W        W91660  18.627  39.018   0.051
23267W        W91661  21.954  42.423  13.133
23268W        W91662  44.800  15.591   0.469
23269W        W91663  28.137  21.183  10.106
23270W        W91664   6.159  42.078  14.218
23271W        W91665  14.679  16.550  13.065
23272W        W91666  31.810  26.131  13.758
23273W        W91667  44.978  40.070   3.999
23274W        W91668  33.905  23.522  10.609
23275W        W91669   4.342  23.485   4.790
23276W        W91670  18.540  43.893  10.645
23277W        W91671   3.502   1.235   0.953
23278W        W91672  27.117   4.879  10.704
23279W        W91673  34.566  17.000  10.821
23280W        W91674  29.018   2.420  12.817
23281W        W91675  10.467  31.150  10.992
23282W        W91676   9.341  28.686  14.467
23283W        W91677  41.352   7.784   0.198
23284W        W91678   2.869  23.970  10.607
23285W        W91679   0.669  29.117  11.622
23286W        W91680  24.495   8.856  12.651
23287W        W91681   1.956  12.108  10.687
23288W        W91682  39.947  13.685  13.980
23289W        W91683  27.162   1.303   0.532
23290W        W91684  27.684  16.708   4.081
23291W        W91685  26.810  13.922  11.623
23292W        W91686  41.435  27.419  10.530
23293W        W91687  40.316  37.264   0.686
23294W        W91688  29.837   3.730  12.249
23295W        W91689  41.634  13.763  13.393
23296W        W91690  42.509  25.493   1.402
23297W        W91691   0.509  22.305   1.377
23298W        W91692  24.148  39.552   2.877
23299W        W91693  29.667  17.595   1.382
23300W        W91694  24.550   5.869  14.934
23301W        W91695  22.715  37.904   4.547
23302W        W91696  34.839  36.557   3.094
23303W        W91697  32.354  29.086  12.787
23304W        W91698   1.843  25.487  12.880
23305W        W91699  24.692  33.099   4.200
23306W        W91700  40.794  38.039  12.980
23307W        W91701   1.269  13.246  13.444
23308W        W91702  27.412  42.270  13.976
23309W        W91703  23.228   6.336   1.217
23310W        W91704  10.278  42.542   1.744
23311W        W91705  16.224  25.943  13.923
23312W        W91706  43.095  17.175   2.327
23313W        W91707   6.855  35.426  13.491
23314W        W91708  23.018  40.262  12.914
23315W        W91709  32.160   2.208   3.925
23316W        W91710  26.934  11.067  12.483
23317W        W91711  28.683   4.315   2.152
23318W        W91712   3.512   0.281  10.829
23319W        W91713  25.023   4.728  13.299
23320W        W91714  14.316  30.484  11.694
23321W        W91715  29.786  21.070   2.864
23322W        W91716  39.153   7.358   4.244
23323W        W91717  43.620  12.805   1.263
23324W        W91718  35.439   4.176  14.021
23325W        W91719  38.732  14.196  12.479
23326W        W91720  42.422   2.311   4.048
23327W        W91721   5.317   5.836   3.180
23328W        W91722  24.737  17.201  12.100
23329W        W91723  37.861  44.848   1.792
23330W        W91724  11.650  44.918  10.403
23331W        W91725  21.516  16.889  14.919
23332W        W91726   0.424  23.948  12.201
23333W        W91727  31.427  20.112  10.716
23334W        W91728  11.158  23.641  13.475
23335W        W91729  36.561   1.305  11.585
23336W        W91730  40.636  13.729  13.446
23337W        W91731  22.583  32.654   0.779
23338W        W91732  24.269  39.942   9.926
23339W        W91733   6.777  22.117  12.350
23340W        W91734  13.146  17.941   4.795
23341W        W91735  17.231   3.203   4.147
23342W        W91736  15.584  15.832   2.766
23343W        W91737  44.830  16.197   1.745
23344W        W91738  42.485  12.631   3.818
23345W        W91739  38.550  18.616  12.530
23346W        W91740  23.382   8.610   3.195
23347W        W91741  24.583  26.067   4.266
23348W        W91742  12.106  27.255   3.386
23349W        W91743  39.788  30.967   2.650
23350W        W91744  31.134  24.055   1.319
23351W        W91745  21.931  34.629   4.051
23352W        W91746  33.782  12.085  13.525
23353W        W91747  16.076  19.139   2.207
23354W        W91748  32.916  33.852   0.966
23355W        W91749  19.081  12.837  14.981
23356W        W91750   7.506  26.366  12.775
23357W        W91751  31.236  28.960   2.460
23358W        W91752  39.373   9.167  13.830
23359W        W91753  15.638  37.792   4.930
23360W        W91754  11.257   6.676  14.470
23361W        W91755  22.538  13.239   4.172
23362W        W91756   9.289   2.645   3.779
23363W        W91757  32.905  27.514   2.366
23364W        W91758  15.405   4.346  11.612
23365W        W91759  23.056  22.491   4.447
23366W        W91760  35.370  44.354  13.467
23367W        W91761  27.036   4.114   3.195
23368W        W91762  28.520   8.888  11.943
23369W        W91763   4.658  31.566   2.268
23370W        W91764  25.043  16.759  14.548
23371W        W91765  27.700  10.649  14.415
23372W        W91766  15.552  42.254  12.140
23373W        W91767  38.420  36.412  10.465
23374W        W91768  21.951   2.875  14.855
23375W        W91769  36.955  27.512   3.728
23376W        W91770   2.939  26.156   0.393
23377W        W91771  16.809  23.488  12.440
23378W        W91772  22.037   6.014  11.977
23379W        W91773  34.060  24.628   0.943
23380W        W91774  22.623  19.170   4.639
23381W        W91775  26.478  22.749  14.318
23382W        W91776  14.734  18.224   2.424
23383W        W91777  24.980  14.879  11.676
23384W        W91778  28.020  27.867  13.148
23385W        W91779  43.222  24.259  14.428
23386W        W91780  43.968  43.459   1.480
23387W        W91781  23.106  14.341   0.243
23388W        W91782  16.772   2.906  12.052
23389W        W91783  29.703   7.582  13.316
23390W        W91784  26.785  36.049  11.574
23391W        W91785   9.902   8.957   0.382
23392W        W91786   2.269  15.260   4.899
23393W        W91787  34.139  21.187  14.803
23394W        W91788   9.246  32.715   0.186
23395W        W91789  35.968  20.983   4.203
23396W        W91790  12.721   5.928   5.063
23397W        W91791  33.824  27.413  10.641
23398W        W91792   6.234  18.774  13.825
23399W        W91793  30.087  24.088   3.802
23400W        W91794  43.804  18.289  14.484
23401W        W91795  23.133  44.465  11.022
23402W        W91796  44.004   6.760   3.855
23403W        W91797  20.561  28.988  11.986
23404W        W91798  13.069  13.807  11.109
23405W        W91799  39.318   0.248  11.844
23406W        W91800  32.887  38.133   3.305
23407W        W91801  28.143   9.434   4.854
23408W        W91802  28.698  26.609  12.447
23409W        W91803  23.675  30.952  10.758
23410W        W91804   3.792  39.434   3.607
23411W        W91805   3.322  42.311  12.043
23412W        W91806   1.054   5.823  13.855
23413W        W91807   4.777  30.624  11.619
23414W        W91808  37.616   7.149  13.202
23415W        W91809  23.716   5.598  12.537
23416W        W91810  21.271   6.981   0.963
23417W        W91811   4.381  44.238  14.121
23418W        W91812  23.680   1.036   3.752
23419W        W91813  10.238  15.811   0.395
23420W        W91814  22.809  34.395   3.330
23421W        W91815  37.039  14.165   4.865
23422W        W91816  10.321  40.263  14.053
23423W        W91817  32.007  39.534  12.092
23424W        W91818  39.456  43.561   2.338
23425W        W91819  24.644   9.278   1.958
23426W        W91820  10.542  12.940   4.599
23427W        W91821  43.917  39.930  11.085
23428W        W91822   8.644   5.942  13.728
23429W        W91823  34.066  28.564   3.390
23430W        W91824  21.120  24.115  14.516
23431W        W91825   6.543  22.977   1.842
23432W        W91826  20.156  34.404  10.211
23433W        W91827   4.926   1.341  14.507
23434W        W91828  23.937  21.192  11.622
23435W        W91829   8.847   3.804  14.906
23436W        W91830  42.592  44.478   4.141
23437W        W91831  11.718  40.309   2.157
23438W        W91832  16.949  41.348  11.999
23439W        W91833  19.384   9.600  13.616
23440W        W91834  33.329  20.729   0.723
23441W        W91835  17.688  24.560  10.533
23442W        W91836  24.334  13.339  10.460
23443W        W91837  12.788   0.270   0.931
23444W        W91838   8.897   9.645  12.135
23445W        W91839  20.556  21.166   1.261
23446W        W91840   3.740  10.676  13.327
23447W        W91841   4.651  11.576   3.182
23448W        W91842  21.954   7.872  13.562
23449W        W91843  25.076  39.043   4.558
23450W        W91844   8.181  18.662   1.127
23451W        W91845  15.741  35.421  13.955
23452W        W91846  21.002  19.553   4.140
23453W        W91847  11.360   8.132   2.795
23454W        W91848   1.413  13.727   1.422
23455W        W91849  17.478  31.873   3.482
23456W        W91850  39.340  30.537   1.795
23457W        W91851  33.082  18.863   0.229
23458W        W91852  35.330   0.676   1.058
23459W        W91853  30.900  12.075  12.109
23460W        W91854  11.283  24.679   1.238
23461W        W91855   8.222  33.961  13.976
23462W        W91856  15.341  32.962  14.940
23463W        W91857  24.544  39.624  13.280
23464W        W91858  20.048  33.535  12.204
23465W        W91859  11.684   4.374   0.271
23466W        W91860   9.372   9.666  12.964
23467W        W91861  41.180  21.493  14.503
23468W        W91862  18.991   0.969  12.176
23469W        W91863  28.100  37.216   2.760
23470W        W91864  21.370   2.721   2.301
23471W        W91865   5.936  14.324  12.578
23472W        W91866  23.352  31.728  13.412
23473W        W91867   7.220  10.789   3.000
23474W        W91868  27.969   7.876  11.936
23475W        W91869  25.195  31.134   1.372
23476W        W91870  43.244  35.710   3.614
23477W        W91871  43.017  11.792   1.188
23478W        W91872  42.343   0.286   2.472
23479W        W91873  25.950   8.944  12.610
23480W        W91874  40.561  38.518   0.265
23481W        W91875   0.076  31.859   4.101
23482W        W91876  22.510  44.012  12.028
23483W        W91877  32.268  22.042   2.221
23484W        W91878  23.457  21.098  12.865
23485W        W91879  22.918  28.874   1.758
23486W        W91880  10.412  20.283   3.631
23487W        W91881  29.485  34.060  12.421
23488W        W91882   2.219  26.016  12.042
23489W        W91883  14.758  44.833  11.266
23490W        W91884   2.196  16.801  11.917
23491W        W91885  27.696  23.613  13.445
23492W        W91886  43.324  30.987   1.475
23493W        W91887  10.911  17.680  12.849
23494W        W91888  31.268  14.584  11.158
23495W        W91889  19.756  25.545  13.412
23496W        W91890   1.927  10.612  14.459
23497W        W91891   6.928  33.105  10.718
23498W        W91892  19.699  10.880  14.984
23499W        W91893   8.344  12.287   2.391
23500W        W91894  15.630   1.462   0.477
23501W        W91895  14.564  39.415  10.649
23502W        W91896  38.778  30.770  14.370
23503W        W91897   2.545  31.162   1.304
23504W        W91898  15.727  29.469   3.258
23505W        W91899   5.655  13.259   3.729
23506W        W91900  12.233  21.124  14.934
23507W        W91901  25.644  39.411   3.297
23508W        W91902  35.171  28.187   0.300
23509W        W91903  31.926  18.149  12.782
23510W        W91904   6.841  14.539   4.526
23511W        W91905  35.966  33.971   0.160
23512W        W91906  21.637  12.245  11.638
23513W        W91907   3.525   0.860  12.303
23514W        W91908   8.200  31.420  14.344
23515W        W91909  26.084  14.217   0.673
23516W        W91910   0.755  33.538  11.439
23517W        W91911  30.622  37.103   3.366
23518W        W91912  32.589   7.883   2.791
23519W        W91913  17.165  35.191  13.612
23520W        W91914   5.819  39.897   4.571
23521W        W91915  29.056  20.758   3.863
23522W        W91916  19.195   3.515   3.758
23523W        W91917  22.709  13.961   4.775
23524W        W91918   7.351  24.927  11.213
23525W        W91919   4.972  44.411   5.279
23526W        W91920  20.484  38.284   0.915
23527W        W91921  19.739  31.721  11.169
23528W        W91922  40.297  37.484   3.387
23529W        W91923  26.922  38.194  13.049
23530W        W91924  25.418  40.596   1.991
23531W        W91925  26.951  42.836  12.155
23532W        W91926  28.515  24.466   3.310
23533W        W91927  26.718  37.796  12.453
23534W        W91928   9.324  31.982   1.647
23535W        W91929  40.824   6.808   0.231
23536W        W91930  11.650  42.084  14.010
23537W        W91931   1.812  26.001   2.785
23538W        W91932  35.865   2.902   1.865
23539W        W91933  29.683  40.094   5.099
23540W        W91934  17.514  29.658   0.468
23541W        W91935  15.865   1.297   0.965
23542W        W91936   8.220  22.620   0.097
23543W        W91937  10.192  35.703   5.155
23544W        W91938  29.174  21.668   2.911
23545W        W91939  15.065  27.754  14.748
23546W        W91940  17.291   7.919  11.205
23547W        W91941  26.711  11.271   0.253
23548W        W91942   0.943  35.512   0.731
23549W        W91943  30.576   8.913  11.110
23550W        W91944   1.504  35.132   3.299
23551W        W91945  43.877   4.284   3.839
23552W        W91946  19.169   9.275  11.432
23553W        W91947  43.945  14.129   0.561
23554W        W91948  29.692   5.239   2.812
23555W        W91949   0.537  43.923  12.103
23556W        W91950   6.633   0.294  12.680
23557W        W91951   4.700  19.299   0.429
23558W        W91952  30.486  17.791   4.577
23559W        W91953  13.569  22.725   3.220
23560W        W91954   4.597  18.743   3.274
23561W        W91955  22.160   4.787  10.918
23562W        W91956   1.843  17.620  12.119
23563W        W91957  21.032  10.349   9.999
23564W        W91958   4.487  26.470  13.859
23565W        W91959  41.272  41.517  14.585
23566W        W91960  22.162  26.960   2.448
23567W        W91961   3.437  24.935  11.295
23568W        W91962  33.338  16.014  11.447
23569W        W91963   4.125  26.978   1.152
23570W        W91964  22.008  42.799  10.889
23571W        W91965  19.202  13.060   0.965
23572W        W91966  29.518  28.408  14.712
23573W        W91967  35.064   2.659  10.738
23574W        W91968  23.896  38.872   3.250
23575W        W91969  20.584  37.916  10.587
23576W        W91970  20.077  25.703  13.777
23577W        W91971  37.884  29.700   0.853
23578W        W91972  24.978  12.749   3.731
23579W        W91973  19.669  33.562  13.130
23580W        W91974  37.454  26.389  11.990
23581W        W91975  41.309   4.533   1.892
23582W        W91976  13.687  14.187  13.014
23583W        W91977  11.129  43.609  11.542
23584W        W91978  43.140  43.886   1.741
23585W        W91979  18.177  38.761  13.557
23586W        W91980   6.607  25.004  13.528
23587W        W91981   1.696  35.890  13.869
23588W        W91982  25.671  41.452   1.975
23589W        W91983   8.346   3.215  12.406
23590W        W91984  31.473   7.056   3.335
23591W        W91985   4.518  20.365  11.158
23592W        W91986   8.259   0.530   3.468
23593W        W91987   0.752  14.601   0.687
23594W        W91988   1.326   1.785  10.786
23595W        W91989   1.924  18.799   0.381
23596W        W91990  18.707  40.288  13.441
23597W        W91991   8.970  10.169   2.121
23598W        W91992  34.998  10.591  11.740
23599W        W91993  15.915  15.024   3.136
23600W        W91994  34.467  35.546  13.952
23601W        W91995  16.198  27.918   0.694
23602W        W91996  15.131  22.578   1.653
23603W        W91997  26.290  34.656   1.355
23604W        W91998  18.016   6.775  13.115
23605W        W91999  41.057  14.428   3.259
23606W        W92000  12.679  23.615  13.980
23607W        W92001  43.951   0.273  13.857
23608W        W92002  15.874   9.025   4.611
23609W        W92003   1.876  29.561  11.076
23610W        W92004  31.316  34.533  14.684
23611W        W92005  20.048  23.458   0.367
23612W        W92006  42.037  42.575   0.843
23613W        W92007   2.748  43.140   2.589
23614W        W92008   6.198  23.261  14.501
23615W        W92009  43.748  33.473   0.476
23616W        W92010   8.043  29.828  11.624
23617W        W92011  22.723  30.621  10.916
23618W        W92012  24.801   9.307  13.420
23619W        W92013   8.715   2.818   2.130
23620W        W92014   0.303   1.268  14.727
23621W        W92015  42.094  44.869   0.411
23622W        W92016  42.380   3.236   2.821
23623W        W92017   5.523   9.437   3.099
23624W        W92018   9.729  16.992  12.628
23625W        W92019  23.400  35.038   0.838
23626W        W92020  22.055   1.542   2.250
23627W        W92021   0.486   5.892  10.568
23628W        W92022   9.114  17.719   1.966
23629W        W92023  44.916   0.944  11.983
23630W        W92024  28.455  15.805  11.136
23631W        W92025  44.178  32.285   3.192
23632W        W92026  28.631   8.150  10.631
23633W        W92027  29.493  22.465  11.945
23634W        W92028  15.566  40.415  14.225
23635W        W92029  24.269  14.190  10.726
23636W        W92030   9.697  29.718   3.268
23637W        W92031   5.844  32.665  13.929
23638W        W92032  29.206  11.615  12.481
23639W        W92033   7.887  24.094   1.885
23640W        W92034  29.073   4.204   2.920
23641W        W92035   0.206  24.307  11.916
23642W        W92036  42.579  35.528   1.857
23643W        W92037  26.174  31.969  14.882
23644W        W92038  35.805  18.723   0.505
23645W        W92039  37.572   3.433  12.616
23646W        W92040   6.089  21.326   1.958
23647W        W92041  19.824  36.994  13.966
23648W        W92042  14.511  18.149  10.954
23649W        W92043  26.455  36.566  14.434
23650W        W92044  12.125  36.165   3.569
23651W        W92045  40.454  19.676   3.622
23652W        W92046  43.290  14.739   3.765
23653W        W92047   2.820  27.049  10.617
23654W        W92048  38.013  20.565  12.177
23655W        W92049  40.470  27.601  14.351
23656W        W92050  44.908   2.882   1.518
23657W        W92051  30.069  38.304   3.406
23658W        W92052  23.501  27.791  11.855
23659W        W92053  36.641   7.887  12.527
23660W        W92054  16.762  11.635  10.677
23661W        W92055  36.019  40.952  13.758
23662W        W92056  17.239  25.252   2.895
23663W        W92057  22.507  22.856  10.237
23664W        W92058  33.136  40.064   3.838
23665W        W92059  36.566  19.476   5.037
23666W        W92060  11.861  24.033   0.987
23667W        W92061  33.059  24.022  10.784
23668W        W92062  32.092  15.086  11.974
23669W        W92063   4.356  37.557  13.049
23670W        W92064   3.774   1.299  13.452
23671W        W92065  27.028  21.494   2.513
23672W        W92066   2.532  26.787   4.893
23673W        W92067  37.795   8.158   4.448
23674W        W92068  36.991  14.710   1.694
23675W        W92069  11.268  37.854   0.498
23676W        W92070   9.001  25.760   4.106
23677W        W92071  31.442   6.401  10.946
23678W        W92072  41.257  10.725  14.574
23679W        W92073  31.308   9.673   1.333
23680W        W92074   6.738   2.005   2.259
23681W        W92075  40.052  25.028   3.695
23682W        W92076   3.226   4.822   2.816
23683W        W92077  15.942  28.917  10.217
23684W        W92078  32.956  10.200  12.120
23685W        W92079  36.518  42.919  11.608
23686W        W92080  12.390  29.740  11.615
23687W        W92081  30.007  12.798  13.505
23688W        W92082  32.515  20.504  13.309
23689W        W92083  24.223  42.405   3.612
23690W        W92084   7.311  19.502   2.186
23691W        W92085  43.314  32.942  12.004
23692W        W92086  36.692  28.818   5.045
23693W        W92087  14.178  30.640  13.479
23694W        W92088  42.941  32.933   3.269
23695W        W92089  31.081  18.265   2.837
23696W        W92090   6.911  39.410   4.723
23697W        W92091  32.506  40.300  11.940
23698W        W92092  37.923   0.619   0.394
23699W        W92093  44.806  12.107   1.532
23700W        W92094  17.837  14.858  14.541
23701W        W92095   8.861  14.382   1.937
23702W        W92096   9.963  26.297  10.947
23703W        W92097  11.466  42.383   2.921
23704W        W92098  31.858  31.576   1.307
23705W        W92099  19.823   2.312   2.324
23706W        W92100  19.016  20.614   3.720
23707W        W92101  30.224  31.680  14.394
23708W        W92102  44.012   3.432  13.670
23709W        W92103  41.581  38.942  14.337
23710W        W92104  20.946   5.900   2.669
23711W        W92105  28.154  44.238   3.486
23712W        W92106  11.238  25.568   0.975
23713W        W92107  40.914  39.034  13.993
23714W        W92108  10.368  22.263   5.094
23715W        W92109  20.094  35.906  10.646
23716W        W92110   2.915  37.588  14.328
23717W        W92111  17.681  36.180   3.193
23718W        W92112   1.232  15.223   0.380
23719W        W92113  41.117   2.513   0.773
23720W        W92114  13.125   7.196   3.117
23721W        W92115  40.434  22.390  10.665
23722W        W92116   7.255  38.657  11.452
23723W        W92117  18.657  42.602   4.971
23724W        W92118   8.442  40.075  13.795
23725W        W92119   5.186  22.256   2.164
23726W        W92120  41.870  43.443  14.388
23727W        W92121  35.870  27.992   2.381
23728W        W92122  31.828  27.506  11.137
23729W        W92123   7.415  23.610   4.414
23730W        W92124  25.561  28.248   4.684
23731W        W92125  34.393  13.529  13.481
23732W        W92126  20.253  32.447   0.833
23733W        W92127   4.796  15.005  14.283
23734W        W92128   9.578  30.899  14.476
23735W        W92129   4.790  32.359  13.540
23736W        W92130  37.747   1.306  13.520
23737W        W92131  43.271   5.216  12.914
23738W        W92132  30.491  32.094   3.355
23739W        W92133  41.609  19.595  11.194
23740W        W92134  22.072  14.230  14.318
23741W        W92135  31.773  19.499   4.979
23742W        W92136  14.079  17.904  11.107
23743W        W92137   6.795  11.567   0.858
23744W        W92138  31.978  10.755   3.431
23745W        W92139  21.048  29.682   2.790
23746W        W92140  34.773  13.188   3.991
23747W        W92141  13.233  12.899  14.853
23748W        W92142  30.548  25.753   0.183
23749W        W92143  18.077   0.516  10.943
23750W        W92144  18.533  20.544   0.696
23751W        W92145  14.710  22.333  14.454
23752W        W92146  18.061  44.948   3.274
23753W        W92147  42.265  12.250  12.828
23754W        W92148  41.494  21.625  11.262
23755W        W92149  39.296  33.163  12.588
23756W        W92150   8.216  19.543   2.159
23757W        W92151  15.931  31.888  10.828
23758W        W92152   8.608   2.835  14.847
23759W        W92153  28.662  26.460  14.168
23760W        W92154   9.402  15.723   2.844
23761W        W92155  17.115  39.940  11.171
23762W        W92156  22.385  31.111   0.715
23763W        W92157  27.842   1.642  11.111
23764W        W92158  30.699  31.927   0.090
23765W        W92159  16.133   6.877  13.346
23766W        W92160  26.244   3.701  13.847
23767W        W92161  37.377  12.153   4.918
23768W        W92162  22.177  32.672  13.983
23769W        W92163   3.997  44.194   4.796
23770W        W92164  22.689  25.901  11.500
23771W        W92165  43.537  14.357  13.622
23772W        W92166  26.221   0.716   1.825
23773W        W92167  43.107  12.274   1.766
23774W        W92168  13.575  15.549  13.562
23775W        W92169  27.114   8.918  10.639
23776W        W92170  37.818  29.044  14.855
23777W        W92171  16.691  21.659  14.989
23778W        W92172  23.666  18.947  14.056
23779W        W92173  18.336  43.382  14.801
23780W        W92174  32.678  25.134  11.081
23781W        W92175  23.484  28.948   1.706
23782W        W92176  33.491  19.275   2.302
23783W        W92177  11.443   6.179  13.617
23784W        W92178   9.637  20.989   0.872
23785W        W92179  31.931  28.333   3.826
23786W        W92180   3.376  17.572  10.245
23787W        W92181   4.831  26.879   2.700
23788W        W92182  24.636  19.519   3.679
23789W        W92183  24.812  41.309  13.412
23790W        W92184  26.474  28.717   3.204
23791W        W92185  20.696   8.107  11.964
23792W        W92186  29.713  33.771   0.313
23793W        W92187   0.963  27.908   5.028
23794W        W92188   1.505  38.442  12.592
23795W        W92189  41.990  14.404   3.210
23796W        W92190  10.416  18.219   1.956
23797W        W92191  20.321  43.526  13.057
23798W        W92192  44.917  14.264   1.486
23799W        W92193  43.036  35.012   4.215
23800W        W92194  19.799  19.302  11.639
23801W        W92195  18.237  13.641   3.784
23802W        W92196  31.677   0.899  13.151
23803W        W92197  33.572  14.225  12.233
23804W        W92198  25.266  43.247  13.517
23805W        W92199  31.138   6.695  11.217
23806W        W92200   3.879   8.341  13.527
23807W        W92201  40.233  11.816   2.705
23808W        W92202  27.364  30.147  12.576
23809W        W92203  10.154  30.385   3.761
23810W        W92204  40.805  13.179   0.401
23811W        W92205  22.578  23.545   4.208
23812W        W92206  38.429  21.965  12.524
23813W        W92207  31.401  29.506   0.795
23814W        W92208   8.875   7.863   1.401
23815W        W92209  39.084   6.741   0.861
23816W        W92210  26.830  36.616  13.053
23817W        W92211   5.363   2.942  14.476
23818W        W92212   3.460  23.914   0.089
23819W        W92213  36.449  10.335  13.360
23820W        W92214  14.570  25.289  11.961
23821W        W92215  21.035   0.810  11.933
23822W        W92216   8.455  12.666  10.597
23823W        W92217  12.847   2.709   4.322
23824W        W92218  14.255  32.850   3.685
23825W        W92219   8.839  19.299   0.830
23826W        W92220   8.578   4.779   3.059
23827W        W92221   1.530  11.387   1.682
23828W        W92222  22.384  24.409   0.180
23829W        W92223  13.623  18.277  11.628
23830W        W92224  25.574  19.753   1.424
23831W        W92225  19.666  36.383   3.931
23832W        W92226  32.607  35.933   0.622
23833W        W92227  24.013  14.058  11.145
23834W        W92228  11.787  22.374   3.270
23835W        W92229  35.770   2.208  11.193
23836W        W92230  29.029   8.688   3.839
23837W        W92231   6.303  19.775  12.837
23838W        W92232  42.933  12.621   4.579
23839W        W92233  26.141   5.009   3.533
23840W        W92234  38.776  43.690   2.240
23841W        W92235  41.452  36.853   0.247
23842W        W92236   3.479  17.129   2.579
23843W        W92237  18.007   3.329  10.610
23844W        W92238  10.268   3.718  12.838
23845W        W92239  18.488  28.718   0.923
23846W        W92240  12.162  24.121  11.688
23847W        W92241  26.207   2.482  13.383
23848W        W92242  15.687  39.155  12.723
23849W        W92243  40.673   8.141   3.597
23850W        W92244   7.760   4.218   1.246
23851W        W92245  27.142   2.823  13.887
23852W        W92246  30.010  36.757   2.025
23853W        W92247   8.401  18.269   1.814
23854W        W92248   6.433  43.962  14.235
23855W        W92249   7.354   5.011  13.702
23856W        W92250   5.202  13.594  12.410
23857W        W92251   2.089  25.070  13.831
23858W        W92252  27.407   2.673  12.235
23859W        W92253  16.037  29.228  10.626
23860W        W92254  15.188   5.455  11.171
23861W        W92255  41.841   9.134  13.138
23862W        W92256   4.741  43.542  10.901
23863W        W92257   3.043  33.186   4.204
23864W        W92258  32.584  10.084   4.059
23865W        W92259  33.457   3.301  14.150
23866W        W92260  28.882  19.236   3.492
23867W        W92261   7.594  32.824   4.449
23868W        W92262  32.228  24.053  12.911
23869W        W92263  31.894   6.594  10.754
23870W        W92264   7.703  35.616   0.730
23871W        W92265  24.191  37.589  12.414
23872W        W92266  21.706  22.770  10.746
23873W        W92267  33.683  43.472   3.623
23874W        W92268  34.978  40.050   1.745
23875W        W92269  36.923  29.896   1.759
23876W        W92270   9.361  22.031   2.757
23877W        W92271  31.548   9.429   0.009
23878W        W92272  32.371  38.468  11.047
23879W        W92273  17.534  26.737   9.738
23880W        W92274  37.402  19.656  10.767
23881W        W92275  26.576  32.845   4.559
23882W        W92276  11.595   9.152  11.189
23883W        W92277   4.171  33.126   1.124
23884W        W92278  26.986  35.026  14.491
23885W        W92279  31.697   1.413  14.869
23886W        W92280   2.635  40.841  13.379
23887W        W92281  35.955  35.605   1.038
23888W        W92282   6.276  18.278   1.741
23889W        W92283   8.734  17.281  12.463
23890W        W92284  35.499  39.741  12.399
23891W        W92285  36.836   7.315  10.729
23892W        W92286   6.259  16.181  14.714
23893W        W92287   4.446  12.126   1.475
23894W        W92288  18.063  40.841  14.342
23895W        W92289  30.841  26.071   4.649
23896W        W92290  32.656  37.441  14.335
23897W        W92291  16.698  27.447  13.510
23898W        W92292   9.536  43.305   0.412
23899W        W92293   3.137  29.229   4.280
23900W        W92294  17.204  43.096   1.689
23901W        W92295  42.232   8.752   4.513
23902W        W92296   3.496  12.546   5.216
23903W        W92297  37.349  25.672   1.922
23904W        W92298   8.179  30.970  11.750
23905W        W92299  23.673  18.408  14.068
23906W        W92300  14.371   2.502   2.265
23907W        W92301   3.954  43.708   4.560
23908W        W92302   2.524  32.301  14.459
23909W        W92303   0.819  42.299   2.398
23910W        W92304  43.846  44.004   3.813
23911W        W92305  20.859  15.607  11.942
23912W        W92306  25.257  28.588  12.110
23913W        W92307  18.548  40.143   2.375
23914W        W92308  43.892  29.452  10.589
23915W        W92309  38.321  32.903   4.376
23916W        W92310  27.470   2.662   0.233
23917W        W92311  31.654  16.166  14.152
23918W        W92312   4.636  30.452   1.686
23919W        W92313   7.091  23.053   0.682
23920W        W92314  15.082   8.875   0.931
23921W        W92315  23.248   9.105   3.133
23922W        W92316   0.127  24.218  13.052
23923W        W92317   3.959  36.353  11.706
23924W        W92318  37.449  40.407  10.396
23925W        W92319  43.736  19.722  10.394
23926W        W92320  19.302  25.393  14.228
23927W        W92321  14.709  40.343  14.922
23928W        W92322  15.562  17.617   1.840
23929W        W92323  27.205  24.597  12.095
23930W        W92324  28.115  10.091  11.862
23931W        W92325   8.685   4.123   0.737
23932W        W92326  24.502  35.103   1.443
23933W        W92327  20.785  26.933  11.167
23934W        W92328  14.995  16.213  11.041
23935W        W92329  21.750  29.651  10.672
23936W        W92330  39.322  25.544   1.359
23937W        W92331   9.606  24.559  13.524
23938W        W92332  38.383  15.836  13.492
23939W        W92333  42.325  17.663  14.822
23940W        W92334  41.223   0.338   1.813
23941W        W92335  20.526  40.968   1.269
23942W        W92336  38.868  41.319  13.325
23943W        W92337   1.932  40.308   4.567
23944W        W92338  37.331  32.319   1.994
23945W        W92339  43.306  26.551   2.387
23946W        W92340   6.288  21.181   1.041
23947W        W92341  12.010  17.698   4.259
23948W        W92342  42.288   9.083   4.940
23949W        W92343  33.837   2.663  11.969
23950W        W92344  27.022   6.260   0.677
23951W        W92345  21.987  34.699  11.232
23952W        W92346  18.333  39.590   2.776
23953W        W92347  22.141  29.555  13.074
23954W        W92348  17.579  34.903  13.954
23955W        W92349  17.636  36.963   4.336
23956W        W92350  20.844  29.151  13.851
23957W        W92351   2.469  23.983   0.327
23958W        W92352  32.040  17.574  10.582
23959W        W92353   1.760  10.261  12.032
23960W        W92354  22.094  11.508   0.269
23961W        W92355   8.612  44.861   3.787
23962W        W92356   8.357  40.859  13.484
23963W        W92357  31.458  41.812   2.720
23964W        W92358  21.141  10.240  13.411
23965W        W92359   0.525  26.206   2.636
23966W        W92360  39.798  33.305  11.124
23967W        W92361  44.364  22.127  14.512
23968W        W92362   0.764  25.019  12.495
23969W        W92363   8.446  24.330  14.800
23970W        W92364  23.533  36.331   4.696
23971W        W92365  22.542  18.760   3.100
23972W        W92366   9.117  31.975   4.136
23973W        W92367  36.922  24.934   2.161
23974W        W92368  14.615   7.908  10.628
23975W        W92369  13.866   7.359  13.041
23976W        W92370   7.809  33.473  13.974
23977W        W92371  13.407  12.628  14.427
23978W        W92372   3.675   1.224   3.200
23979W        W92373  22.946  33.124   2.796
23980W        W92374  42.047  17.085  14.108
23981W        W92375  26.992  24.030  12.901
23982W        W92376  38.970  32.978   1.788
23983W        W92377  20.671  41.381   1.524
23984W        W92378   4.175  25.868   3.338
23985W        W92379   1.278  29.698   4.202
23986W        W92380  36.761  27.924   2.125
23987W        W92381  32.387   1.906  13.043
23988W        W92382  32.051  19.612  11.127
23989W        W92383   0.794   3.747   2.745
23990W        W92384   6.823   2.712   9.588
23991W        W92385  27.214  36.383  14.880
23992W        W92386  21.715  43.017  14.023
23993W        W92387  17.581  21.671  12.534
23994W        W92388  37.944  20.598   2.876
23995W        W92389  43.767   4.505   2.145
23996W        W92390  31.428   4.439  11.103
23997W        W92391  25.219  10.713   3.297
23998W        W92392  43.398  20.663   1.811
23999W        W92393  24.330  32.658   1.509
24000W        W92394  20.607  10.597  14.715
24001W        W92395  28.174  14.211   3.596
24002W        W92396  36.283  20.811   2.625
24003W        W92397  28.475  30.627   3.186
24004W        W92398  20.422  35.462  11.017
24005W        W92399  39.899  31.015  10.612
24006W        W92400   2.002  42.231  12.985
24007W        W92401  35.906  26.105   3.890
24008W        W92402  35.070   1.471   4.307
24009W        W92403   4.355   1.982  14.023
24010W        W92404  20.943  32.423  12.160
24011W        W92405  43.299  25.032  10.725
24012W        W92406   9.396  27.328  10.124
24013W        W92407   3.256  19.607   2.384
24014W        W92408   5.339  27.523  12.030
24015W        W92409  11.343  40.986  14.854
24016W        W92410  44.780  32.957  11.686
24017W        W92411  15.360   0.858   0.229
24018W        W92412  37.104   5.421  12.693
24019W        W92413  14.735  25.575  10.626
24020W        W92414  16.414  28.541   9.381
24021W        W92415  40.586  23.838  11.212
24022W        W92416  12.800  13.266   4.559
24023W        W92417  41.186  43.988  13.838
24024W        W92418   3.334   3.493   0.015
24025W        W92419  11.475  40.868   0.886
24026W        W92420  27.679   8.635  11.584
24027W        W92421   2.452  10.898   1.907
24028W        W92422  12.075  19.692  11.053
24029W        W92423  43.051  14.211  14.457
24030W        W92424  37.610   1.393   1.103
24031W        W92425  14.874   8.775   2.813
24032W        W92426  20.285  24.022  14.784
24033W        W92427   6.194   8.758   0.335
24034W        W92428  35.588  10.885  14.869
24035W        W92429  37.771  36.680   1.332
24036W        W92430  14.657   9.149  13.476
24037W        W92431   9.896  19.686   0.327
24038W        W92432  29.080  32.079   3.200
24039W        W92433   4.892  30.401  11.174
24040W        W92434  40.477  36.350   4.880
24041W        W92435  40.239  34.866  13.636
24042W        W92436  43.495  34.380   4.954
24043W        W92437  27.415  13.852  10.710
24044W        W92438   4.439  31.237   0.770
24045W        W92439  16.314  19.957  13.459
24046W        W92440  13.231  27.514  11.546
24047W        W92441  33.295  41.313   2.597
24048W        W92442   9.902  27.100   2.882
24049W        W92443  21.769  16.194   4.575
24050W        W92444  31.702  22.234  12.465
24051W        W92445   9.680  28.421   0.031
24052W        W92446  22.742  36.577  14.913
24053W        W92447  23.590  39.861  11.738
24054W        W92448  36.392  42.078  10.654
24055W        W92449  10.250   8.635   1.459
24056W        W92450  33.265  19.722  14.270
24057W        W92451   9.263  25.460  14.964
24058W        W92452  11.859  29.638  13.001
24059W        W92453   9.415  36.197   2.801
24060W        W92454  14.637  18.599  10.711
24061W        W92455  36.409  14.031  14.402
24062W        W92456  38.549   3.856   2.810
24063W        W92457  37.855   0.487   4.625
24064W        W92458  38.622  43.834  11.029
24065W        W92459   8.475   0.388   0.658
24066W        W92460  24.434   5.394  13.404
24067W        W92461   1.696  38.015   0.280
24068W        W92462  18.797  31.181   0.321
24069W        W92463   6.222  25.426   3.829
24070W        W92464   4.076  37.866  11.169
24071W        W92465  22.598  12.849   4.780
24072W        W92466  38.837  26.212   4.757
24073W        W92467  30.809  28.732   4.552
24074W        W92468  44.318  34.550   2.791
24075W        W92469  26.665  25.015  14.891
24076W        W92470   4.469   3.726  12.891
24077W        W92471  38.310  23.309   2.640
24078W        W92472  38.034   8.642   3.305
24079W        W92473  22.349  20.586  12.608
24080W        W92474  17.678  17.505   2.396
24081W        W92475  13.197  40.531   3.326
24082W        W92476  36.545  27.731   4.464
24083W        W92477   1.524   3.921   2.278
24084W        W92478   5.305  32.421  12.872
24085W        W92479  21.550  28.544   3.286
24086W        W92480  32.848  38.398  11.329
24087W        W92481  41.000  40.526   4.635
24088W        W92482  34.797  27.226   0.276
24089W        W92483  42.502  12.056   0.017
24090W        W92484  31.026  36.163  12.922
24091W        W92485  40.615   5.635   4.183
24092W        W92486  39.283  19.308  13.870
24093W        W92487  14.364  19.820   4.633
24094W        W92488   4.732  35.351  12.694
24095W        W92489  27.672  39.891  12.865
24096W        W92490  38.067  30.494   1.364
24097W        W92491  36.037   9.865   2.416
24098W        W92492  33.151   9.272  13.055
24099W        W92493  29.193  29.992   0.272
24100W        W92494  40.255  39.945   2.197
24101W        W92495  41.939  27.683   4.622
24102W        W92496   1.933  11.140  14.435
24103W        W92497   5.047  24.135  11.881
24104W        W92498  40.521  33.731   4.582
24105W        W92499   5.968  20.786  10.746
24106W        W92500   4.906   0.305   4.035
24107W        W92501  43.840  19.187  12.571
24108W        W92502  44.376  27.944  11.710
24109W        W92503  14.731  35.454   4.385
24110W        W92504  33.102  21.370   1.250
24111W        W92505  44.363  41.340   1.931
24112W        W92506   3.576  39.601   2.637
24113W        W92507  21.710  37.092  13.029
24114W        W92508  14.601  44.049   3.833
24115W        W92509  13.645  15.680   4.530
24116W        W92510   0.182   0.986   0.564
24117W        W92511  15.155  20.295  12.079
24118W        W92512   5.845  33.977   2.389
24119W        W92513  42.737  11.873  11.398
24120W        W92514  22.562  26.728  11.077
24121W        W92515  27.505  29.293  12.107
24122W        W92516   8.376  40.873  14.306
24123W        W92517  29.561   8.160   4.082
24124W        W92518  40.310   4.274   0.987
24125W        W92519   1.300  28.159   1.338
24126W        W92520   8.189  36.381  12.795
24127W        W92521   3.290  43.806  14.584
24128W        W92522  39.828  26.174  11.081
24129W        W92523  28.194  36.345   3.652
24130W        W92524  28.114  34.637   5.032
24131W        W92525   7.386   5.357   3.142
24132W        W92526  43.525  43.401   3.310
24133W        W92527  22.134  20.447   4.628
24134W        W92528  10.246  43.057   2.661
24135W        W92529  41.860   4.800  11.929
24136W        W92530  31.180  16.633  13.046
24137W        W92531  19.306   4.353  13.916
24138W        W92532   3.156   3.385  14.320
24139W        W92533  10.487  41.457   1.157
24140W        W92534  41.259  19.777  10.410
24141W        W92535  29.276  18.317   3.166
24142W        W92536  24.135   1.053   0.834
24143W        W92537  44.299   5.203   0.711
24144W        W92538  13.878  41.404   3.670
24145W        W92539  43.468  43.665  10.451
24146W        W92540  38.387   0.953  14.512
24147W        W92541   0.788  21.351  11.725
24148W        W92542  43.486  39.017   3.729
24149W        W92543  42.372  33.731   4.909
24150W        W92544   6.312  21.622  12.870
24151W        W92545   0.927  25.950  11.559
24152W        W92546  21.297  11.107  11.700
24153W        W92547  19.673  26.672  12.072
24154W        W92548  39.283  32.616  10.182
24155W        W92549  43.194  27.134   2.817
24156W        W92550  29.672   3.714   3.425
24157W        W92551  10.685  30.503   2.715
24158W        W92552  29.053  17.082  13.650
24159W        W92553  19.211   6.976   4.241
24160W        W92554  22.666  26.195  11.910
24161W        W92555  21.614  38.005  11.476
24162W        W92556   0.815  14.130   0.405
24163W        W92557  11.689  40.645  11.925
24164W        W92558  37.590  26.298  13.537
24165W        W92559  11.814  21.959  14.560
24166W        W92560  42.044  17.569   1.441
24167W        W92561  12.976  36.623  14.864
24168W        W92562  26.931  14.352   0.227
24169W        W92563  18.902   2.060  11.540
24170W        W92564  24.527  21.611  12.054
24171W        W92565  29.193  11.996   1.943
24172W        W92566  32.980  19.546  13.851
24173W        W92567   4.499  32.878  11.105
24174W        W92568  34.911  29.928  14.769
24175W        W92569  25.762   1.218  11.689
24176W        W92570  25.051   7.269   2.798
24177W        W92571  20.162   6.858   2.652
24178W        W92572  37.261   2.660   1.678
24179W        W92573  15.807   2.318   4.548
24180W        W92574  27.758  12.647  12.133
24181W        W92575  11.761   1.326  14.278
24182W        W92576  32.516  30.746  13.414
24183W        W92577  39.412  29.954  10.959
24184W        W92578   0.609  31.038  13.385
24185W        W92579  26.884  41.535  12.542
24186W        W92580  13.785  18.829   3.291
24187W        W92581  34.828  34.509   3.872
24188W        W92582  40.093  23.634  13.806
24189W        W92583  16.376   6.763   0.296
24190W        W92584  26.364  44.007   2.425
24191W        W92585  15.356  42.950   0.437
24192W        W92586  40.435   2.091   5.226
24193W        W92587  17.045  36.013  13.034
24194W        W92588  26.959  40.482  13.098
24195W        W92589  37.198  17.372   5.136
24196W        W92590   4.832  11.901   1.787
24197W        W92591   7.611  33.425  12.651
24198W        W92592  39.530   3.283   1.598
24199W        W92593  18.336  27.901  13.056
24200W        W92594  36.874   4.356  12.461
24201W        W92595  30.336  36.945   1.650
24202W        W92596  24.729  30.083  10.585
24203W        W92597  23.952   3.977  11.536
24204W        W92598   6.856  36.489  13.478
24205W        W92599  42.147  16.694   3.337
24206W        W92600  13.395  32.075  14.870
24207W        W92601   2.418   1.259   3.755
24208W        W92602   1.784   7.205   3.278
24209W        W92603   5.235  38.603   0.544
24210W        W92604  32.380  21.698  11.969
24211W        W92605  26.223  44.477  13.488
24212W        W92606  14.215  33.045   2.654
24213W        W92607  11.561   2.686   0.445
24214W        W92608  21.709  33.642   4.105
24215W        W92609   9.753  35.627   2.150
24216W        W92610   3.292  44.717   0.917
24217W        W92611  28.002  15.156   1.389
24218W        W92612  32.069  35.839   4.610
24219W        W92613  23.683   3.515  14.759
24220W        W92614  38.964   6.853  12.354
24221W        W92615  38.089   1.321   0.857
24222W        W92616  34.555  12.654  11.505
24223W        W92617  25.195  14.803   4.197
24224W        W92618   6.772  29.276   2.768
24225W        W92619  29.375  25.633   4.129
24226W        W92620  25.371  41.882  14.838
24227W        W92621  20.206  16.070   1.928
24228W        W92622  21.181   5.674   4.352
24229W        W92623  42.422  15.496   3.986
24230W        W92624  30.350  40.512  11.213
24231W        W92625  31.841   1.770  13.032
24232W        W92626   1.773  11.673  12.354
24233W        W92627  30.923   0.083   3.545
24234W        W92628  27.376  44.320   4.039
24235W        W92629   6.772  36.080   4.664
24236W        W92630   2.288   4.417  13.036
24237W        W92631  29.005  13.207   0.014
24238W        W92632  43.816   3.880  13.022
24239W        W92633   9.944  22.248   3.660
24240W        W92634  37.391  30.141   1.768
24241W        W92635  14.208   9.996  11.059
24242W        W92636   1.404   0.335   4.864
24243W        W92637  27.015  24.481   2.916
24244W        W92638  24.209  34.966   3.294
24245W        W92639  18.998   2.547   0.787
24246W        W92640  20.159   3.984   4.828
24247W        W92641  31.032  44.028   1.746
24248W        W92642   3.105   6.694  14.427
24249W        W92643  37.025  36.489  10.543
24250W        W92644  37.530  19.853  12.044
24251W        W92645  36.896  24.974  13.532
24252W        W92646  15.739   7.910   1.379
24253W        W92647  18.568   4.876  11.948
24254W        W92648  14.132  15.911   2.669
24255W        W92649  38.960   6.981  10.259
24256W        W92650  22.973  39.124   2.139
24257W        W92651  37.148  29.147  11.122
24258W        W92652  28.376  34.573  12.509
24259W        W92653   3.976  19.776  11.957
24260W        W92654  22.467   7.693  14.490
24261W        W92655  34.052   6.496   4.204
24262W        W92656  13.805  26.597  12.952
24263W        W92657  35.429  19.007   0.322
24264W        W92658  27.684   9.945   0.750
24265W        W92659  22.771  32.766   2.283
24266W        W92660  24.319  43.517  11.160
24267W        W92661  42.287  41.747  10.559
24268W        W92662  23.045  10.246  14.939
24269W        W92663   9.779   7.111  11.945
24270W        W92664  41.465  15.386  12.965
24271W        W92665  38.809  14.388  13.530
24272W        W92666  21.270  11.671   1.250
24273W        W92667   3.418  22.697  14.428
24274W        W92668  40.418   6.868  13.371
24275W        W92669  19.841  16.534  12.201
24276W        W92670   7.379   5.770   0.333
24277W        W92671  34.153  40.921  13.934
24278W        W92672   2.191   6.068  11.145
24279W        W92673   6.223  10.876  13.007
24280W        W92674  31.817  17.501   0.877
24281W        W92675  20.359  17.228   2.378
24282W        W92676  42.351  22.783   0.694
24283W        W92677   0.081  39.272  13.532
24284W        W92678  26.059  31.506  10.666
24285W        W92679  41.590  23.660   2.721
24286W        W92680  26.264  15.736   2.286
24287W        W92681  12.787  44.193  11.211
24288W        W92682  39.047   4.948  11.954
24289W        W92683  32.035  37.418   1.816
24290W        W92684   4.870  23.665   1.900
24291W        W92685  37.906  18.336  12.004
24292W        W92686   4.730   8.813   3.862
24293W        W92687  36.580   1.012   1.670
24294W        W92688  20.738   3.130  12.934
24295W        W92689  23.880  10.136  14.927
24296W        W92690  42.095  44.902  11.662
24297W        W92691  39.357  30.085  14.418
24298W        W92692   6.362  12.397   1.935
24299W        W92693   4.509  37.051   3.739
24300W        W92694  27.563   7.594  10.786
24301W        W92695  19.307  28.706  11.554
24302W        W92696  20.844  17.632   4.855
24303W        W92697  18.734  23.414   0.737
24304W        W92698  30.699  26.859   2.272
24305W        W92699  28.030   2.848   4.631
24306W        W92700  34.546   6.287   4.108
24307W        W92701  18.616  42.046   1.401
24308W        W92702  39.342   6.991   0.000
24309W        W92703   9.113  12.384  12.103
24310W        W92704  20.107   0.933  12.624
24311W        W92705  41.824   4.340  11.712
24312W        W92706  20.943   2.869  13.376
24313W        W92707  29.648   9.613   4.318
24314W        W92708   6.253  40.544  13.660
24315W        W92709  32.957  28.527  11.999
24316W        W92710  12.741   1.354  14.432
24317W        W92711  40.136  36.316  13.383
24318W        W92712  26.029   0.003   2.291
24319W        W92713  40.087  34.786  10.676
24320W        W92714  12.276  29.938   1.817
24321W        W92715  31.211  44.225  11.590
24322W        W92716  21.451  16.326   1.244
24323W        W92717  26.153  20.317  13.858
24324W        W92718  25.649  22.249   4.609
24325W        W92719  39.100  18.968   4.171
24326W        W92720  11.373  34.796  14.494
24327W        W92721  28.705  32.382   0.320
24328W        W92722   6.254  23.578  11.725
24329W        W92723   9.930  43.224   0.090
24330W        W92724  36.695  16.329   1.106
24331W        W92725  13.644   3.383  10.936
24332W        W92726  28.432  42.295  11.534
24333W        W92727   0.842   5.372   1.491
24334W        W92728  34.611  26.217  12.048
24335W        W92729  17.767  31.396  14.895
24336W        W92730   4.152   9.685   3.308
24337W        W92731  17.820  32.117  11.713
24338W        W92732  32.381  39.332   2.270
24339W        W92733   0.910  40.808  14.801
24340W        W92734  26.200  32.819  14.465
24341W        W92735   4.146  14.817   3.679
24342W        W92736  25.519   5.409  11.958
24343W        W92737  37.350  27.775  12.513
24344W        W92738  29.982   1.388  11.962
24345W        W92739  40.044  37.834  14.306
24346W        W92740  30.649  32.918  10.725
24347W        W92741  27.658  15.730   3.987
24348W        W92742   9.322  21.770   1.265
24349W        W92743  44.830   8.252  14.865
24350W        W92744  31.884  39.346  12.577
24351W        W92745  39.582  22.550  14.732
24352W        W92746  20.600  43.745  14.784
24353W        W92747  31.816   4.506  14.889
24354W        W92748  42.953  43.959  13.960
24355W        W92749  26.505   8.462   2.881
24356W        W92750  15.145  14.449  12.842
24357W        W92751  12.684  17.916   1.701
24358W        W92752  41.913  17.096  13.589
24359W        W92753  34.487   1.970   3.688
24360W        W92754  33.988  39.694   0.342
24361W        W92755  11.340   4.869   0.850
24362W        W92756   6.733  29.710  12.755
24363W        W92757  34.387  27.836   2.854
24364W        W92758   2.318  23.722   1.478
24365W        W92759   9.118   0.502   3.403
24366W        W92760  43.416  17.314   3.855
24367W        W92761  17.364   5.983  10.718
24368W        W92762  11.080   5.795   3.658
24369W        W92763  21.969   0.811   2.603
24370W        W92764  39.782   5.011  11.558
24371W        W92765  13.881  42.715  12.609
24372W        W92766  19.061  33.577  11.080
24373W        W92767  26.578  20.350   2.433
24374W        W92768   5.685  27.224  13.842
24375W        W92769   9.766  23.345   9.848
24376W        W92770  31.612  27.262  11.823
24377W        W92771  16.831  30.234  11.105
24378W        W92772  10.715   6.180  10.743
24379W        W92773  37.022  20.582   2.449
24380W        W92774  34.026  34.748   2.723
24381W        W92775  17.601   9.997   4.863
24382W        W92776  44.498  22.602  11.325
24383W        W92777  34.591  18.494  13.364
24384W        W92778   3.601  44.748   2.197
24385W        W92779   3.008  10.742   0.981
24386W        W92780   8.235   9.795   0.103
24387W        W92781   4.856  36.814  11.481
24388W        W92782  23.491  24.130   0.396
24389W        W92783  12.298  34.369   2.412
24390W        W92784  43.948  43.208   0.503
24391W        W92785  11.758  41.780   1.746
24392W        W92786   2.436  39.308   0.415
24393W        W92787   1.931  40.282  12.814
24394W        W92788  44.584  44.386   4.140
24395W        W92789  32.125  18.548   0.322
24396W        W92790  22.085  36.404   4.382
24397W        W92791   7.292   5.769   4.903
24398W        W92792  25.100  32.843  12.166
24399W        W92793  14.273  18.952  10.975
24400W        W92794   1.500  11.123  11.154
24401W        W92795  25.026  22.478   1.881
24402W        W92796  26.648  37.017   0.532
24403W        W92797  41.381  39.683  11.625
24404W        W92798  30.150  34.070  13.477
24405W        W92799   8.864  35.701   0.356
24406W        W92800  27.771  32.429   4.033
24407W        W92801  23.567   5.388  13.547
24408W        W92802  37.514  40.780  11.226
24409W        W92803   2.421  35.574  13.813
24410W        W92804   2.738  36.039  10.916
24411W        W92805   8.306  11.398  12.898
24412W        W92806  23.195  14.619   3.741
24413W        W92807  12.443  10.831   3.303
24414W        W92808  14.345  23.272   4.544
24415W        W92809  41.797   5.987   0.896
24416W        W92810  37.643  21.285   3.858
24417W        W92811  44.509  39.283   0.376
24418W        W92812  20.206  32.679  12.707
24419W        W92813   4.393  18.617  13.634
24420W        W92814  42.441  35.496  12.866
24421W        W92815  44.286  20.000  11.117
24422W        W92816   1.864   4.610   2.345
24423W        W92817  23.870  17.814   2.327
24424W        W92818  10.939  24.974   1.858
24425W        W92819  44.907   9.311   0.844
24426W        W92820  35.017  27.822  13.056
24427W        W92821  39.512  43.049   3.636
24428W        W92822  43.807  10.232  11.144
24429W        W92823   3.687  35.858   4.956
24430W        W92824   4.723  23.716  14.342
24431W        W92825  19.110  42.225  11.580
24432W        W92826   8.165  20.118   2.178
24433W        W92827  12.799  21.675   0.833
24434W        W92828  36.797   3.734   3.144
24435W        W92829  39.729  22.667  13.760
24436W        W92830  28.731  26.176  12.144
24437W        W92831  38.906  27.195   0.041
24438W        W92832  19.953  32.851   2.904
24439W        W92833   0.315  27.594  12.258
24440W        W92834  19.222  41.406   2.204
24441W        W92835  38.825  17.207   1.463
24442W        W92836  10.885   0.456  14.292
24443W        W92837   8.293  27.444   1.693
24444W        W92838  28.930  40.902  10.477
24445W        W92839   7.872  28.204   2.846
24446W        W92840  25.108  14.480   1.582
24447W        W92841   1.827  34.795   4.142
24448W        W92842  19.347  27.034  11.166
24449W        W92843  25.711  13.266   5.114
24450W        W92844  26.034  24.650  10.813
24451W        W92845  28.602  29.051  13.086
24452W        W92846  24.256  22.285   1.268
24453W        W92847   5.320  34.954   3.997
24454W        W92848  26.292  44.763   1.019
24455W        W92849  16.937  40.067   1.525
24456W        W92850  43.811  29.663   4.937
24457W        W92851   3.194   5.198  14.171
24458W        W92852  29.644  22.924   4.218
24459W        W92853  42.031  27.691   0.457
24460W        W92854  17.888  22.603  14.964
24461W        W92855  22.004  25.519   0.820
24462W        W92856  14.258   5.006   4.497
24463W        W92857  18.612   5.666   4.281
24464W        W92858  20.171  26.252  14.157
24465W        W92859  34.098  38.949  11.162
24466W        W92860  26.214   2.727   1.742
24467W        W92861  26.685  29.554  14.871
24468W        W92862   1.356   7.851  12.030
24469W        W92863   2.295  30.828   2.655
24470W        W92864  22.272  22.980  13.099
24471W        W92865  33.588   5.299   4.615
24472W        W92866  16.119  39.875   1.441
24473W        W92867   7.433  19.583   3.135
24474W        W92868  33.223  19.679   2.513
24475W        W92869  10.371   5.218   1.552
24476W        W92870   3.808   6.842   1.178
24477W        W92871   4.016  32.974  14.461
24478W        W92872  27.799   5.182  12.081
24479W        W92873   9.824  30.083   1.221
24480W        W92874  39.671  18.823   2.830
24481W        W92875   8.382  21.564  14.825
24482W        W92876  20.622   5.092  13.067
24483W        W92877   0.427  44.409   4.766
24484W        W92878  21.644   6.153  11.647
24485W        W92879  39.024  16.355  10.564
24486W        W92880  39.966  27.243  13.993
24487W        W92881  11.135  38.856   3.147
24488W        W92882   2.789  42.567   1.314
24489W        W92883  20.744  13.741  10.652
24490W        W92884  35.053   5.012  12.567
24491W        W92885   3.423  10.339   4.631
24492W        W92886  24.641  13.592   3.274
24493W        W92887  28.665  20.340   3.198
24494W        W92888  23.146  27.682   1.390
24495W        W92889  38.574  44.022  11.974
24496W        W92890   1.082  29.391  10.752
24497W        W92891  32.450  25.868   3.248
24498W        W92892  16.635  42.835   3.763
24499W        W92893  25.717  36.476  10.643
24500W        W92894  10.692  17.744   0.963
24501W        W92895  26.520  17.247  12.604
24502W        W92896  16.201   0.167  10.729
24503W        W92897  40.165  20.674   3.210
24504W        W92898  37.511  14.741  10.625
24505W        W92899  30.895   1.576   1.689
24506W        W92900  17.733  18.735  11.228
24507W        W92901  21.017  30.782   2.220
24508W        W92902  11.657  16.472  12.886
24509W        W92903  30.534  35.963  12.843
24510W        W92904  44.377   7.186  10.265
24511W        W92905  35.809  14.703   2.422
24512W        W92906  41.828   7.477  13.361
24513W        W92907  29.972  37.565  14.263
24514W        W92908  21.550  21.450   3.167
24515W        W92909  16.320  13.305  13.434
24516W        W92910  29.868  25.231  11.997
24517W        W92911  14.636  10.857  13.807
24518W        W92912  30.422  15.362   4.877
24519W        W92913  14.605  23.937   1.143
24520W        W92914  11.358  11.850   2.809
24521W        W92915   6.319   5.416  10.694
24522W        W92916  25.236  11.618   2.360
24523W        W92917  21.673  19.603  11.006
24524W        W92918  40.408   9.654  14.914
24525W        W92919  42.899  15.683   1.147
24526W        W92920  30.888  25.167  13.920
24527W        W92921   8.695  41.278  14.193
24528W        W92922  27.645  28.927  14.806
24529W        W92923  13.683  26.565   1.322
24530W        W92924  26.438  37.981   1.388
24531W        W92925  22.778  40.585  10.390
24532W        W92926  25.726   1.341   3.330
24533W        W92927  39.606  30.896  11.420
24534W        W92928  13.992  12.590   1.374
24535W        W92929   7.885   2.954  12.486
24536W        W92930  35.508  24.824   0.793
24537W        W92931   7.660  15.198   1.996
24538W        W92932  30.315   9.288   3.552
24539W        W92933  32.002  10.494  13.510
24540W        W92934  18.843   3.238   3.249
24541W        W92935  24.880  22.582  13.259
24542W        W92936  32.982  12.259  11.945
24543W        W92937  32.339  23.241   4.398
24544W        W92938  14.056  32.012   3.210
24545W        W92939  14.459  24.564  10.506
24546W        W92940  40.706  30.512   4.098
24547W        W92941  38.374  44.690   0.050
24548W        W92942  25.144  19.193  11.494
24549W        W92943  33.061  22.482  13.967
24550W        W92944  30.407  32.242  12.400
24551W        W92945  23.871  35.870   2.295
24552W        W92946  19.119  35.884  11.500
24553W        W92947   3.891   4.936  10.268
24554W        W92948   7.684  34.786  14.284
24555W        W92949  39.735  34.677   4.770
24556W        W92950   8.560  34.066   2.903
24557W        W92951  39.759  13.352  14.375
24558W        W92952   7.669  44.983   0.379
24559W        W92953  44.293  34.637   4.884
24560W        W92954  44.439  13.382  14.390
24561W        W92955  20.733   5.088  11.637
24562W        W92956  12.419  24.305   0.798
24563W        W92957  20.650  29.706   1.895
24564W        W92958   7.104  25.422  12.931
24565W        W92959   4.790  14.868   0.685
24566W        W92960  33.609   1.482   4.010
24567W        W92961  18.688  19.367  13.013
24568W        W92962  40.531   7.938   2.798
24569W        W92963  24.212  29.929  14.774
24570W        W92964  15.882   8.202  14.876
24571W        W92965  21.504  18.020   3.943
24572W        W92966   2.264  43.090   5.052
24573W        W92967   0.649  15.736   2.759
24574W        W92968  25.326  33.208  12.471
24575W        W92969  40.607  34.546  12.252
24576W        W92970  28.111  38.380   1.842
24577W        W92971  41.348  11.219  14.369
24578W        W92972  39.402   5.281   4.562
24579W        W92973  27.876   3.963  10.051
24580W        W92974  28.220   4.329  14.490
24581W        W92975  37.717  15.766   3.214
24582W        W92976  41.214  35.544  11.002
24583W        W92977  41.776   2.988  14.693
24584W        W92978  38.584  13.702   3.677
24585W        W92979  19.393  12.883   3.623
24586W        W92980  42.965   0.361   1.268
24587W        W92981  40.551  36.612  12.019
24588W        W92982  34.686   1.976   0.419
24589W        W92983  35.848  16.036   3.651
24590W        W92984  12.753  13.083   2.176
24591W        W92985   6.597   7.571   3.278
24592W        W92986  25.579  39.090   2.323
24593W        W92987  30.970  13.142   3.422
24594W        W92988  35.584  37.395  13.405
24595W        W92989  21.703  41.797   1.853
24596W        W92990  25.334  40.566   1.487
24597W        W92991  42.278  33.663   0.967
24598W        W92992  24.943  37.463  11.393
24599W        W92993  21.133  28.068   4.083
24600W        W92994   3.667  12.735   2.147
24601W        W92995  41.744  13.814  11.853
24602W        W92996  24.022  36.558  11.594
24603W        W92997  16.667   0.880   1.781
24604W        W92998  30.608  18.983   0.932
24605W        W92999  42.803  36.317   2.327
24606W        W93000  20.975  14.093   2.364
24607W        W93001   7.706  21.699  13.570
24608W        W93002  44.863  16.820  14.319
24609W        W93003  14.368  42.840   1.080
24610W        W93004   6.934  44.878  12.379
24611W        W93005  16.322   7.901   1.620
24612W        W93006  18.495  38.424   1.748
24613W        W93007  27.136  26.238   0.194
24614W        W93008  29.298  18.256   4.518
24615W        W93009  35.411  27.531  10.579
24616W        W93010  34.511  19.678   1.218
24617W        W93011  12.139  20.618   1.205
24618W        W93012  31.764  33.615  11.214
24619W        W93013  39.361   5.969   1.927
24620W        W93014   6.423  30.532  12.959
24621W        W93015  18.571   7.843   0.375
24622W        W93016  22.690  17.271   1.877
24623W        W93017  25.619  38.028   2.443
24624W        W93018   8.686   1.916  14.756
24625W        W93019  31.857  22.245  13.438
24626W        W93020  31.071  31.704   2.743
24627W        W93021   5.002  36.837   0.407
24628W        W93022  31.173   4.265  10.278
24629W        W93023  27.642   4.504   2.907
24630W        W93024  36.137  34.383   4.159
24631W        W93025  38.898  38.796  12.100
24632W        W93026  25.524  20.527   0.866
24633W        W93027  22.797  24.468  10.777
24634W        W93028  36.891  24.465  13.409
24635W        W93029  38.700  43.923   1.756
24636W        W93030  34.265  21.999  14.314
24637W        W93031  24.096   1.514   4.692
24638W        W93032   7.752  27.918   2.209
24639W        W93033  20.498  19.713   0.360
24640W        W93034  19.312  44.090   3.364
24641W        W93035  10.376  33.984  10.460
24642W        W93036   8.932  20.294  14.295
24643W        W93037  20.786  37.962   2.818
24644W        W93038  16.243   2.512   1.338
24645W        W93039   7.687  34.687   3.314
24646W        W93040  20.681  26.491   1.801
24647W        W93041  10.516   7.045  11.700
24648W        W93042  30.970  42.248  13.422
24649W        W93043  16.372  13.672  11.213
24650W        W93044   0.250  17.782  12.254
24651W        W93045   8.845  43.706   2.346
24652W        W93046  22.667  34.577   2.349
24653W        W93047  15.767  21.131   4.591
24654W        W93048  27.037   9.719  11.169
24655W        W93049   2.653  13.673   2.098
24656W        W93050  41.354  24.582  14.863
24657W        W93051  29.578  28.241  11.246
24658W        W93052  39.957   1.197  14.288
24659W        W93053   2.595  34.946  12.094
24660W        W93054   8.269  26.090  10.821
24661W        W93055  43.255  42.735   1.417
24662W        W93056  16.037  15.178  10.355
24663W        W93057  22.225   6.556  11.183
24664W        W93058  41.062  29.050   0.571
24665W        W93059  17.242  38.348   0.991
24666W        W93060  19.320  19.334  12.514
24667W        W93061  27.002   7.886   4.163
24668W        W93062  41.766  44.574   3.689
24669W        W93063  32.650  26.655  11.818
24670W        W93064   7.455  10.915  14.036
24671W        W93065  36.825   0.789   4.044
24672W        W93066  20.270  23.673   4.574
24673W        W93067  32.689  25.816  10.629
24674W        W93068  24.951   7.041   1.284
24675W        W93069  17.644  24.687   1.847
24676W        W93070  24.945   8.060   1.351
24677W        W93071  21.659   7.173  14.540
24678W        W93072  39.976   2.175  11.226
24679W        W93073  21.234  32.067   2.107
24680W        W93074  40.896  15.834  11.991
24681W        W93075   0.675   5.827   3.859
24682W        W93076   6.263  34.655  12.969
24683W        W93077  13.306  43.723  14.835
24684W        W93078  35.135  14.464   9.570
24685W        W93079  20.759  34.130   0.775
24686W        W93080   8.442   1.913  12.572
24687W        W93081  35.035  28.636  14.269
24688W        W93082  37.088   2.310   0.870
24689W        W93083  38.937  23.164  14.318
24690W        W93084  27.506  15.658  11.450
24691W        W93085  10.258  41.084  11.130
24692W        W93086  21.782  40.342   2.244
24693W        W93087  39.343  34.181  11.993
24694W        W93088  24.681  13.830   5.032
24695W        W93089  18.180  37.914   0.802
24696W        W93090  35.038   1.168  13.540
24697W        W93091   7.848   2.436   2.578
24698W        W93092  38.105  42.169   0.313
24699W        W93093  19.755  26.328   1.558
24700W        W93094  18.281  42.033  13.032
24701W        W93095   1.971   2.326   3.136
24702W        W93096  33.055  11.560  12.059
24703W        W93097  38.307   0.037   0.437
24704W        W93098   2.910  14.292  12.912
24705W        W93099  38.902  30.477   0.974
24706W        W93100  13.260  25.605   4.097
24707W        W93101  28.389  38.337  13.947
24708W        W93102   5.355  35.491   2.345
24709W        W93103   2.151  35.331   1.692
24710W        W93104  18.677  33.432   4.461
24711W        W93105  17.143   7.407  11.139
24712W        W93106  42.451  20.267   2.931
24713W        W93107  23.416  36.955   2.479
24714W        W93108  14.736   5.994   3.304
24715W        W93109  18.493  22.622   0.904
24716W        W93110  21.162  35.604  12.484
24717W        W93111  24.126  42.284   4.125
24718W        W93112  14.754  25.193  13.808
24719W        W93113   5.370  33.535  13.645
24720W        W93114  21.600  16.692   0.423
24721W        W93115  12.237  26.404   4.195
24722W        W93116   0.961  18.358  14.864
24723W        W93117  31.999  29.633  14.706
24724W        W93118  38.543  31.909   4.590
24725W        W93119   4.347  38.769  11.179
24726W        W93120  16.775  42.188   2.564
24727W        W93121   8.919  16.815   0.354
24728W        W93122  25.709  39.773  12.482
24729W        W93123  20.949  37.126   1.694
24730W        W93124  27.878  41.842  12.332
24731W        W93125  30.395   1.108   2.894
24732W        W93126  20.689   0.580   1.317
24733W        W93127  25.100  28.368   3.772
24734W        W93128  26.175   9.242  12.083
24735W        W93129  21.190  25.740   2.644
24736W        W93130   7.928  30.740   3.833
24737W        W93131  34.451  43.978   4.703
24738W        W93132  31.429  11.133  11.682
24739W        W93133  26.791  28.534  12.050
24740W        W93134   7.675  27.424  11.980
24741W        W93135  14.755   2.589  12.997
24742W        W93136  16.784   7.959  12.995
24743W        W93137  29.868  34.985   0.851
24744W        W93138  20.117  25.003  12.515
24745W        W93139  39.345  40.771   1.429
24746W        W93140  29.377  28.443  12.014
24747W        W93141  17.649  17.341  11.190
24748W        W93142  26.357  15.848  11.148
24749W        W93143  22.077  19.910   3.620
24750W        W93144  41.010  28.617  10.644
24751W        W93145  14.086  32.039  12.384
24752W        W93146   6.715   0.045   0.109
24753W        W93147  28.570   2.210  12.592
24754W        W93148   1.264  26.522  11.829
24755W        W93149  19.811   3.868   0.821
24756W        W93150   7.137  14.752  11.830
24757W        W93151  22.447   4.436   1.417
24758W        W93152  18.999  27.323  12.923
24759W        W93153   5.693  41.284   0.797
24760W        W93154  13.813  42.543  13.100
24761W        W93155  16.913  14.849  12.839
24762W        W93156  18.791  38.045   3.111
24763W        W93157  40.591  44.545   2.266
24764W        W93158   2.696  15.881  11.190
24765W        W93159   7.754  30.465  12.822
24766W        W93160   5.898  15.173   2.724
24767W        W93161  16.081  13.630  14.453
24768W        W93162  17.664  36.467   1.270
24769W        W93163  37.095  38.899   1.840
24770W        W93164  35.576  21.699   0.264
24771W        W93165  16.739  36.835   4.138
24772W        W93166  21.111  30.163   4.568
24773W        W93167  10.350  21.193  10.616
24774W        W93168  36.481  41.797   3.779
24775W        W93169  33.586  39.292   3.595
24776W        W93170  40.619  28.118   4.301
24777W        W93171  17.084  34.287   1.746
24778W        W93172   6.935   4.862   2.172
24779W        W93173  23.062  17.181   2.240
24780W        W93174  27.478   6.485   3.845
24781W        W93175  22.664   2.710  13.158
24782W        W93176   4.166  10.914  12.598
24783W        W93177   0.729  26.569   0.040
24784W        W93178  17.356  34.923  11.348
24785W        W93179  24.161  40.626   3.589
24786W        W93180  24.421  44.333  12.853
24787W        W93181  17.532  42.001  13.335
24788W        W93182  11.742  10.386  11.789
24789W        W93183  22.611  41.399  10.755
24790W        W93184   3.855  43.784  11.896
24791W        W93185  36.348  10.162   4.522
24792W        W93186  40.806  33.296   3.229
24793W        W93187  14.623  25.938  14.830
24794W        W93188   2.916  18.784  13.054
24795W        W93189  30.588  33.072   3.621
24796W        W93190  41.525   7.158  13.066
24797W        W93191  21.127  15.290   4.553
24798W        W93192  20.576   4.338   0.045
24799W        W93193  21.183   1.148   3.757
24800W        W93194  17.147  43.553   0.801
24801W        W93195   5.369  32.942   2.771
24802W        W93196  43.695  33.663   4.682
24803W        W93197  36.106  13.194  14.023
24804W        W93198  13.576  37.006   3.707
24805W        W93199  42.787  32.278   1.872
24806W        W93200  39.423   3.676   1.919
24807W        W93201   0.891  13.778  12.130
24808W        W93202  32.633   5.876  13.828
24809W        W93203  14.901  33.648  13.355
24810W        W93204  25.237  31.993   5.119
24811W        W93205  41.350  29.555   1.844
24812W        W93206  39.115   2.792  10.358
24813W        W93207  26.505  21.081  11.513
24814W        W93208  16.165  31.348   3.262
24815W        W93209  33.981  15.187  11.571
24816W        W93210  18.094  33.112  14.446
24817W        W93211   4.852  37.524   4.221
24818W        W93212  39.893  21.641   2.268
24819W        W93213  14.634   2.790   0.200
24820W        W93214  27.728  14.147  12.971
24821W        W93215  18.566  22.741  11.107
24822W        W93216  42.006  29.012  12.481
24823W        W93217  33.477  31.103  11.198
24824W        W93218  15.327  39.291  14.770
24825W        W93219  40.450  25.537  13.830
24826W        W93220  28.501  26.923   2.283
24827W        W93221   0.599   8.809   2.390
24828W        W93222  43.387   2.649   2.806
24829W        W93223   2.492  16.335  14.242
24830W        W93224  40.525  22.925  10.759
24831W        W93225  10.618  20.855   4.167
24832W        W93226   3.068  32.389   3.137
24833W        W93227  43.244   4.419   0.850
24834W        W93228  22.621   4.167   1.842
24835W        W93229  31.921  28.574   0.752
24836W        W93230  37.445  20.240   2.385
24837W        W93231  11.773  30.515  11.928
24838W        W93232  15.682  22.343  14.975
24839W        W93233   3.955  19.292  14.473
24840W        W93234  26.728  10.412   4.621
24841W        W93235   4.441  40.380  12.493
24842W        W93236   7.950  23.764   0.286
24843W        W93237  10.951  35.797   1.566
24844W        W93238  21.282   4.375   3.662
24845W        W93239  30.928  34.636   0.292
24846W        W93240  17.515   9.777  14.865
24847W        W93241  29.690  42.428   1.419
24848W        W93242  36.201  34.830   2.893
24849W        W93243  39.097  25.199   3.667
24850W        W93244  24.469  24.527  12.369
24851W        W93245  43.720  31.180   3.652
24852W        W93246  13.051  31.435   2.311
24853W        W93247   2.787  38.077  14.347
24854W        W93248  24.012  42.189  14.289
24855W        W93249  35.566   8.823   1.761
24856W        W93250  27.493   4.284  11.334
24857W        W93251  27.625   7.069  10.732
24858W        W93252  44.000  30.628   0.209
24859W        W93253   0.284  23.482  14.832
24860W        W93254  37.812  27.517  12.456
24861W        W93255   7.186  37.066   0.822
24862W        W93256  23.518  18.007  12.705
24863W        W93257  23.951  20.112   1.710
24864W        W93258  13.267  29.183   4.312
24865W        W93259  23.586  20.021  14.090
24866W        W93260  20.923  14.812  11.472
24867W        W93261  30.230   6.213  12.707
24868W        W93262  33.383  35.076   4.267
24869W        W93263  38.024  21.493   0.434
24870W        W93264   1.493  40.592   4.510
24871W        W93265   5.238  44.448  14.532
24872W        W93266  21.688  21.888  11.370
24873W        W93267  44.885  27.186  12.976
24874W        W93268  19.148  42.473  14.502
24875W        W93269  18.755   7.078  11.606
24876W        W93270  15.421  23.946   2.253
24877W        W93271   2.758  36.757  13.853
24878W        W93272  34.514  41.516  11.626
24879W        W93273  37.055   6.134   1.207
24880W        W93274  34.481  40.495   3.131
24881W        W93275  30.886  28.069   1.992
24882W        W93276  26.473   3.321   0.732
24883W        W93277  12.738  39.013  12.813
24884W        W93278  17.234  32.968   1.477
24885W        W93279  21.278   3.461  13.794
24886W        W93280  31.274  41.912  12.588
24887W        W93281  10.829  25.146   4.258
24888W        W93282  36.525  10.259  10.653
24889W        W93283  18.219  30.074   4.418
24890W        W93284  38.515  14.708   1.393
24891W        W93285  12.698   5.744  10.264
24892W        W93286  26.072  27.588   0.860
24893W        W93287  31.922   1.349   0.310
24894W        W93288  15.056  21.540   0.139
24895W        W93289   4.872  36.425   2.398
24896W        W93290  35.512  28.677   3.669
24897W        W93291  36.341   8.090  13.940
24898W        W93292  11.848  14.801   2.282
24899W        W93293  12.628  21.882  14.890
24900W        W93294   6.395  27.501  11.654
24901W        W93295  23.150  34.025  10.636
24902W        W93296  17.544  31.556  10.533
24903W        W93297  20.161  38.069   2.328
24904W        W93298  34.146  15.366  12.956
24905W        W93299  42.983  15.234   2.853
24906W        W93300  44.212   0.410  13.073
24907W        W93301  33.079  24.509   0.600
24908W        W93302  30.932  33.870  13.983
24909W        W93303  13.710  36.931   0.512
24910W        W93304   4.957  14.781   2.160
24911W        W93305  26.147  19.060  12.479
24912W        W93306   6.069  11.083   2.012
24913W        W93307  25.021   8.325  12.214
24914W        W93308  27.686  29.327   4.994
24915W        W93309  43.564  21.197  11.631
24916W        W93310  17.537  24.030   2.235
24917W        W93311  30.215  27.024   2.324
24918W        W93312  40.185  41.588  11.584
24919W        W93313   1.464  16.720   4.527
24920W        W93314  34.534  34.738   2.143
24921W        W93315  38.519  22.755  10.916
24922W        W93316  40.877  30.500   0.973
24923W        W93317   2.773  13.542  12.270
24924W        W93318   6.337   0.771  13.469
24925W        W93319  27.467  13.691  14.253
24926W        W93320  39.442   2.157  13.380
24927W        W93321  15.165  38.983   3.158
24928W        W93322  32.960  35.143   0.074
24929W        W93323   7.683  26.556   2.763
24930W        W93324  28.263   9.949  14.859
24931W        W93325  29.408  21.078  11.496
24932W        W93326  27.378  15.377   3.265
24933W        W93327  40.102  28.135   5.251
24934W        W93328  16.294   8.285   2.275
24935W        W93329  14.761  22.022  14.854
24936W        W93330  23.358  39.384  12.614
24937W        W93331  16.510  18.592  11.121
24938W        W93332  13.867   5.022   1.211
24939W        W93333   4.233  24.527  12.375
24940W        W93334  14.509  29.721   4.877
24941W        W93335  17.260  42.807  14.404
24942W        W93336   3.146  14.569   2.722
24943W        W93337   3.019  27.969   0.677
24944W        W93338  21.963  33.550   4.582
24945W        W93339  17.218  30.719  13.377
24946W        W93340   9.226  13.602   1.972
24947W        W93341  26.933   3.374   3.726
24948W        W93342   4.254  10.123  12.377
24949W        W93343   7.173  15.520   3.870
24950W        W93344  25.413  27.124   2.655
24951W        W93345   2.691   9.156   1.934
24952W        W93346  31.401  24.626   4.357
24953W        W93347  44.087  44.341  11.505
24954W        W93348  17.935  34.944   2.195
24955W        W93349  14.106  16.769   3.529
24956W        W93350  38.781   7.855  12.628
24957W        W93351   8.671  39.829  13.386
24958W        W93352   2.503  29.510  12.486
24959W        W93353  21.166  32.476   2.736
24960W        W93354  23.662   0.017  11.498
24961W        W93355   9.367   9.634  11.163
24962W        W93356  19.444  42.713   0.422
24963W        W93357   0.739  13.754   2.101
24964W        W93358  38.366  12.552   0.695
24965W        W93359   9.124   1.496   3.267
24966W        W93360  23.548  36.585   2.135
24967W        W93361  29.987  25.014   0.593
24968W        W93362  29.490   3.107   2.626
24969W        W93363  43.709  12.776  12.344
24970W        W93364  19.193   0.713  14.022
24971W        W93365  28.200  41.559  12.597
24972W        W93366  28.505   8.746  12.930
24973W        W93367   0.226  38.170  10.698
24974W        W93368  28.682  25.659   0.626
24975W        W93369  16.177   1.829   1.823
24976W        W93370  14.744  15.691  12.513
24977W        W93371  10.420   6.744   0.458
24978W        W93372  27.959  33.031   4.075
24979W        W93373   2.807  13.972  11.961
24980W        W93374  28.474  36.481  14.520
24981W        W93375  39.010  18.211   0.766
24982W        W93376  38.587  31.126  14.023
24983W        W93377  23.665  40.233  10.748
24984W        W93378  29.571  40.342  14.025
24985W        W93379  17.307  39.487   4.587
24986W        W93380   5.466  33.914   4.148
24987W        W93381  20.986  41.405   5.029
24988W        W93382  18.320  25.062   4.695
24989W        W93383  34.216   5.165  11.612
24990W        W93384  25.110  13.578   0.023
24991W        W93385  36.030  31.643  11.731
24992W        W93386   3.899  14.347   0.420
24993W        W93387  14.852   1.308  12.032
24994W        W93388   9.160  12.348  12.624
24995W        W93389   8.413  43.996  14.909
24996W        W93390  22.546  29.855  13.255
24997W        W93391  12.667  31.116   3.337
24998W        W93392   6.436  33.359  11.625
24999W        W93393  29.143   9.277   4.859
25000W        W93394  42.761  21.205  12.449
25001W        W93395  19.224   0.376  10.580
25002W        W93396  42.683   6.723   1.195
25003W        W93397  20.294   5.517  10.951
25004W        W93398  31.373  34.133   4.584
25005W        W93399  15.673  30.591   0.902
25006W        W93400  32.876  16.171  13.381
25007W        W93401   2.712  36.857  14.750
25008W        W93402   0.581  36.547   4.182
25009W        W93403  29.962  40.752  14.043
25010W        W93404  22.308  25.657   1.769
25011W        W93405  28.829   6.660  14.451
25012W        W93406   6.200  41.532  14.153
25013W        W93407   8.215  13.214   3.654
25014W        W93408   7.692   5.953   3.069
25015W        W93409  15.087  25.491   0.359
25016W        W93410   6.410  24.127  11.841
25017W        W93411  11.658   2.422  11.264
25018W        W93412   3.935  42.851   4.057
25019W        W93413  23.429   6.760   2.186
25020W        W93414  24.515  42.221  12.142
25021W        W93415  17.301  26.587  14.905
25022W        W93416  26.683  27.328   1.917
25023W        W93417  21.474  12.545   1.222
25024W        W93418  30.237   9.804   0.344
25025W        W93419  23.560   9.081   3.527
25026W        W93420  20.754  44.286   0.924
25027W        W93421  41.343   1.422   1.763
25028W        W93422   8.039  38.406  14.473
25029W        W93423  17.219  40.459   0.739
25030W        W93424   2.991   2.873  14.271
25031W        W93425  29.038  37.436  11.096
25032W        W93426  41.292  25.312   4.991
25033W        W93427  37.443   4.965   3.203
25034W        W93428  28.086  28.480   4.642
25035W        W93429   0.817  39.870   2.734
25036W        W93430  32.100  15.369   2.796
25037W        W93431   6.286   5.387   2.302
25038W        W93432  33.465  29.716  11.164
25039W        W93433  16.714  30.617   3.203
25040W        W93434  29.475   2.867   1.213
25041W        W93435  42.730  27.583  12.490
25042W        W93436  30.541  37.464   0.932
25043W        W93437  15.041  25.630  12.748
25044W        W93438   4.832  32.358   1.951
25045W        W93439   4.893   8.949  11.521
25046W        W93440  34.934  30.182  14.319
25047W        W93441  32.905  41.966   3.692
25048W        W93442  34.283   5.176   1.918
25049W        W93443  16.833  32.909  14.363
25050W        W93444  11.425   5.268  13.588
25051W        W93445   5.458   0.421  14.292
25052W        W93446   4.706  16.459  10.753
25053W        W93447   6.833  15.195  10.411
25054W        W93448  10.438   4.101  13.481
25055W        W93449   7.412  34.954   3.748
25056W        W93450   5.274  12.038  14.983
25057W        W93451  38.330   1.920  12.492
25058W        W93452  38.439   5.228  14.517
25059W        W93453   6.934   8.394   0.838
25060W        W93454  34.744  32.745  13.373
25061W        W93455  33.772  32.454  13.496
25062W        W93456   9.731  10.768  10.786
25063W        W93457  24.505  34.663   4.309
25064W        W93458  30.999   2.593   0.850
25065W        W93459  21.992   2.922   3.788
25066W        W93460  14.325  30.140  14.684
25067W        W93461  27.488  13.838   4.174
25068W        W93462  33.600  42.293  12.906
25069W        W93463   0.204  37.005   2.525
25070W        W93464  23.559  12.227  10.960
25071W        W93465   3.850   2.328   0.615
25072W        W93466  24.029   8.832  12.403
25073W        W93467  34.027  22.810  13.861
25074W        W93468  31.613  34.829  10.591
25075W        W93469  24.214  10.464   1.890
25076W        W93470   5.157  22.159   0.301
25077W        W93471   9.716  35.719  12.932
25078W        W93472  28.361  35.788   4.332
25079W        W93473   0.724   3.669  14.315
25080W        W93474  34.192  12.756   4.643
25081W        W93475   2.502  17.476  10.517
25082W        W93476   6.472   6.262   3.661
25083W        W93477   3.017  14.884  13.067
25084W        W93478  22.423  37.423  14.535
25085W        W93479  34.816  25.518   2.851
25086W        W93480  11.248   1.720  12.942
25087W        W93481  21.813  12.723   0.320
25088W        W93482  27.080  15.036  11.244
25089W        W93483  17.781  30.920  12.173
25090W        W93484   5.054   8.091  11.604
25091W        W93485  28.976  35.921   0.726
25092W        W93486  32.740  16.796   2.486
25093W        W93487   5.996   0.857  11.380
25094W        W93488   2.406  16.447   0.798
25095W        W93489  40.068  20.753   0.805
25096W        W93490  27.915  34.048   4.160
25097W        W93491  18.076  41.177   1.482
25098W        W93492  16.836  29.688  14.407
25099W        W93493  18.178  25.274  11.159
25100W        W93494  12.764  13.585  14.345
25101W        W93495   8.157   3.273   3.218
25102W        W93496  15.755  27.627   2.765
25103W        W93497  36.652  34.687  14.887
25104W        W93498  19.096  28.363   3.911
25105W        W93499  23.950  26.469   4.626
25106W        W93500  24.191   5.002   1.044
25107W        W93501  24.577   1.992   2.657
25108W        W93502   0.103  32.060   1.273
25109W        W93503  24.019  15.801  10.583
25110W        W93504  24.461  27.500  12.993
25111W        W93505   3.196   3.647  13.868
25112W        W93506   2.403  18.167  11.599
25113W        W93507   5.170   8.978   0.914
25114W        W93508  38.284   1.414   2.219
25115W        W93509  31.805  18.600   4.171
25116W        W93510   8.121  27.429   2.220
25117W        W93511   9.967  41.394   4.382
25118W        W93512  12.659  17.274   0.345
25119W        W93513  18.025  18.944   1.894
25120W        W93514  18.793   8.045  12.989
25121W        W93515   0.401  18.535   0.468
25122W        W93516   3.421  35.128  11.120
25123W        W93517  20.158  16.264   3.675
25124W        W93518   1.972  38.955  12.025
25125W        W93519  42.529  20.752  12.436
25126W        W93520  42.496  20.225   0.514
25127W        W93521   7.357  22.451  14.004
25128W        W93522   2.204   7.100  10.518
25129W        W93523  23.104  21.896  12.974
25130W        W93524  38.831   5.772  14.933
25131W        W93525   8.768   1.399   4.913
25132W        W93526  36.844  31.538   1.952
25133W        W93527  26.170  10.135  13.053
25134W        W93528  42.260  14.126   1.337
25135W        W93529   2.688  16.489  12.453
25136W        W93530  14.359  10.201  13.096
25137W        W93531  34.000  16.380  14.403
25138W        W93532  10.083  32.026   2.173
25139W        W93533  18.099   5.019   3.228
25140W        W93534  26.742   6.745  12.808
25141W        W93535  21.246  29.610  12.110
25142W        W93536  28.791  36.820   3.161
25143W        W93537  44.579  21.476  13.330
25144W        W93538  33.973   3.421   4.654
25145W        W93539   1.853  33.843   3.395
25146W        W93540  40.686  14.624   4.120
25147W        W93541   7.534  31.604  12.170
25148W        W93542  10.268  18.652  13.903
25149W        W93543  19.779  24.129   0.653
25150W        W93544  14.768  37.808   0.805
25151W        W93545  36.520  38.487   0.291
25152W        W93546  20.158  44.836  10.742
25153W        W93547   0.737  16.011   2.045
25154W        W93548  16.113  11.718   3.245
25155W        W93549  38.130  23.718  12.453
25156W        W93550  25.039  29.035  11.387
25157W        W93551  26.647  35.547   2.765
25158W        W93552  36.257  19.341   1.133
25159W        W93553  30.548   6.996   4.349
25160W        W93554  37.495  20.113  14.350
25161W        W93555  19.971  24.197  11.041
25162W        W93556  10.620  19.011   3.563
25163W        W93557  35.437  30.713   1.179
25164W        W93558   2.335  17.677   4.960
25165W        W93559  24.834  32.502  12.853
25166W        W93560  21.008  24.673  13.774
25167W        W93561  19.106   3.713   3.279
25168W        W93562   5.749   9.898   3.152
25169W        W93563  23.990  26.234  14.749
25170W        W93564  35.589  34.629  13.928
25171W        W93565  19.010  41.817   1.930
25172W        W93566  21.961   4.974  14.714
25173W        W93567   3.716   9.646   0.590
25174W        W93568  42.640  15.832   0.664
25175W        W93569   4.956   5.788   1.313
25176W        W93570  24.982  11.207   2.586
25177W        W93571  19.780   8.103   4.124
25178W        W93572   7.293  42.323  12.000
25179W        W93573  43.382  38.356  11.327
25180W        W93574  27.055  31.137   0.889
25181W        W93575  15.124  20.645   1.098
25182W        W93576  26.492  40.847   3.826
25183W        W93577   0.874  37.582  14.757
25184W        W93578  14.247   1.423  10.787
25185W        W93579  31.190  44.691  14.367
25186W        W93580  16.538   4.231  10.682
25187W        W93581  12.759  39.072   1.185
25188W        W93582  20.928  29.584   0.909
25189W        W93583  32.344  30.054   1.191
25190W        W93584  27.231  25.143  13.603
25191W        W93585  11.012  11.775  10.098
25192W        W93586   1.234   1.553  12.166
25193W        W93587   7.655  32.487  14.420
25194W        W93588  22.856  44.764   4.740
25195W        W93589  25.339  12.821  12.074
25196W        W93590  14.409  42.025   0.347
25197W        W93591  36.029   3.969   1.517
25198W        W93592  14.940   8.575   1.334
25199W        W93593  29.518  33.464  10.680
25200W        W93594  22.645  30.041  12.763
25201W        W93595  35.432  37.441   4.030
25202W        W93596  27.895  21.492  12.424
25203W        W93597  22.443  35.492   3.741
25204W        W93598  16.692  10.889  14.707
25205W        W93599  25.906  21.276   4.959
25206W        W93600  15.059  37.179   1.811
25207W        W93601  28.972  20.581   0.421
25208W        W93602  43.243   8.666   4.541
25209W        W93603  40.431  10.649  10.800
25210W        W93604  22.927  44.968   3.319
25211W        W93605  29.148  19.798  10.718
25212W        W93606  29.459   7.378   4.526
25213W        W93607  22.997   1.473  14.897
25214W        W93608  12.736  12.817  14.789
25215W        W93609  42.887  38.506   1.845
25216W        W93610   0.073   3.666  13.470
25217W        W93611   9.274  17.850  14.784
25218W        W93612  14.160  36.960  11.063
25219W        W93613  24.542  13.218   2.911
25220W        W93614  33.202  42.932  11.602
25221W        W93615  38.044  36.450  12.939
25222W        W93616  25.407  17.707   3.611
25223W        W93617   9.802  38.922  14.031
25224W        W93618  39.483   8.478  10.928
25225W        W93619  24.809  12.502   2.242
25226W        W93620  19.787  22.995  14.065
25227W        W93621  40.409  28.585  12.886
25228W        W93622   7.231  21.830   2.416
25229W        W93623  21.127  22.502  10.621
25230W        W93624   9.060  22.913   2.705
25231W        W93625  13.390   2.802   1.392
25232W        W93626  19.092  32.061   3.241
25233W        W93627  18.016  44.749   1.004
25234W        W93628  33.624  26.748   5.003
25235W        W93629  15.947  29.053   3.573
25236W        W93630  23.876  41.690  13.483
25237W        W93631  39.421  35.757  11.722
25238W        W93632  16.997  32.563   4.797
25239W        W93633  38.997   3.775  12.352
25240W        W93634   7.103  13.143  14.913
25241W        W93635  11.682  24.965   1.386
25242W        W93636  23.113  36.487   2.911
25243W        W93637   4.666  22.240   0.101
25244W        W93638  21.061  40.965   2.196
25245W        W93639  12.720   0.995  13.421
25246W        W93640   7.695  11.930  13.408
25247W        W93641  44.401  24.122   2.201
25248W        W93642  37.372  27.394   3.320
25249W        W93643   5.154  38.946  11.728
25250W        W93644  41.006  20.978  10.060
25251W        W93645  32.971   0.932  12.330
25252W        W93646  32.900  14.634  12.055
25253W        W93647   1.196  25.450  10.325
25254W        W93648  40.092  31.291   3.265
25255W        W93649  16.233   0.505   3.386
25256W        W93650  11.831  37.622   4.096
25257W        W93651   4.256   4.620   4.500
25258W        W93652   4.138  29.892  11.215
25259W        W93653  11.808  39.486   0.323
25260W        W93654   1.824  42.681   4.194
25261W        W93655  37.149  28.232   0.484
25262W        W93656  23.470  26.805  11.191
25263W        W93657   4.969  40.531   0.721
25264W        W93658  28.997  41.316  12.209
25265W        W93659   7.855  23.935   4.158
25266W        W93660  41.278  29.084  10.711
25267W        W93661  32.636  20.964   0.162
25268W        W93662   4.673  40.928   3.412
25269W        W93663  19.089  14.255  14.732
25270W        W93664  13.042   7.829  12.188
25271W        W93665  12.944  38.876  14.662
25272W        W93666  12.199  35.408  10.709
25273W        W93667  27.147   2.258   3.105
25274W        W93668  19.661  25.945  11.562
25275W        W93669  33.240  36.914   5.321
25276W        W93670  30.536  41.983  11.228
25277W        W93671   8.692  17.683  14.054
25278W        W93672  16.306   2.260   0.896
25279W        W93673  38.311  21.051  11.535
25280W        W93674  32.527  16.302  14.331
25281W        W93675  36.051  36.792   4.289
25282W        W93676  20.194  25.228  11.614
25283W        W93677  32.668  33.546  11.418
25284W        W93678  13.821  32.309   5.162
25285W        W93679  16.508  13.847   4.166
25286W        W93680  30.372  42.856  11.830
25287W        W93681   8.138  37.948  11.568
25288W        W93682  41.203   9.848   0.298
25289W        W93683  19.062  28.979  14.324
25290W        W93684   0.987  36.386   1.884
25291W        W93685  11.016  33.824  11.059
25292W        W93686  34.803  22.597  12.433
25293W        W93687  39.017  29.399  14.681
25294W        W93688  24.717  38.321   3.281
25295W        W93689  41.944  12.821  10.064
25296W        W93690  17.601  30.486   2.810
25297W        W93691  43.068  14.494  13.455
25298W        W93692  38.670   0.475   0.956
25299W        W93693  12.795   8.848   3.565
25300W        W93694  12.866  13.369   3.644
25301W        W93695   7.755  14.911   3.507
25302W        W93696  10.750  36.552   2.012
25303W        W93697   7.328  27.526   0.324
25304W        W93698  40.342  30.760  10.794
25305W        W93699  43.116  44.446  10.650
25306W        W93700  11.610   4.289  10.770
25307W        W93701   3.471  14.914  12.819
25308W        W93702   6.584  40.779   2.356
25309W        W93703  36.359  23.244  11.126
25310W        W93704  16.066  43.761  12.153
25311W        W93705  12.291   6.760  12.557
25312W        W93706  34.777   6.619  11.502
25313W        W93707  31.254   9.341   1.798
25314W        W93708   4.032  15.826   4.983
25315W        W93709  11.843  14.279   2.231
25316W        W93710   5.233  10.793  13.352
25317W        W93711  42.098  41.332   4.540
25318W        W93712  25.890   8.441  13.855
25319W        W93713  36.106  21.361  12.192
25320W        W93714  44.043  24.920  11.076
25321W        W93715  34.871  18.358  11.175
25322W        W93716  18.663   8.375  14.069
25323W        W93717  27.622   8.787  14.446
25324W        W93718  32.063  19.359   2.408
25325W        W93719  33.578   0.025  13.661
25326W        W93720  33.615  33.304   2.501
25327W        W93721  31.210   1.783  10.338
25328W        W93722  23.245   5.280  14.797
25329W        W93723  13.892  23.188   2.344
25330W        W93724  32.868  39.545  12.904
25331W        W93725   9.255  33.977   3.753
25332W        W93726  40.721   5.319   3.260
25333W        W93727   1.195  19.764   4.490
25334W        W93728  39.431   3.230   2.173
25335W        W93729  42.054   9.693   0.853
25336W        W93730  40.019   6.269  12.009
25337W        W93731   0.513  40.281   2.760
25338W        W93732  12.390   4.683  14.115
25339W        W93733  40.492   7.266  13.043
25340W        W93734  29.704  27.551   0.037
25341W        W93735  24.597  43.440   2.184
25342W        W93736  40.613   9.139   2.378
25343W        W93737  33.936  39.827   2.761
25344W        W93738  27.558  41.897   0.754
25345W        W93739  43.853  43.325  12.589
25346W        W93740   1.568  12.884  11.275
25347W        W93741   6.196  22.902  12.529
25348W        W93742   9.003  40.079  11.774
25349W        W93743  14.669  19.553  14.938
25350W        W93744  28.393  27.065  14.785
25351W        W93745  34.275  38.758  12.887
25352W        W93746  43.530   5.134  13.931
25353W        W93747  11.174  34.787   1.403
25354W        W93748  15.525  17.819  13.111
25355W        W93749  39.277   0.615  11.486
25356W        W93750  34.641  23.937   4.860
25357W        W93751  24.151   2.290  11.135
25358W        W93752  27.110  15.569   4.640
25359W        W93753   5.371   6.888  12.853
25360W        W93754  11.865   8.842   1.439
25361W        W93755  15.618  26.499   0.028
25362W        W93756  39.416  40.349   0.678
25363W        W93757   6.935  10.213   4.398
25364W        W93758   6.704  25.132   3.175
25365W        W93759  14.346  18.532   2.289
25366W        W93760  39.519  28.535   1.788
25367W        W93761   4.035  35.306  14.448
25368W        W93762  32.083  13.210  10.261
25369W        W93763   7.592  16.113  13.904
25370W        W93764   3.799  10.391   1.847
25371W        W93765  38.714  12.294   3.009
25372W        W93766  29.712  14.445   0.914
25373W        W93767  31.824  40.201  13.041
25374W        W93768  16.766  19.233  12.992
25375W        W93769   3.669  26.869   4.498
25376W        W93770  39.848  29.783   1.659
25377W        W93771  21.885  26.023   0.726
25378W        W93772  30.055  27.961   3.732
25379W        W93773   0.446  25.202   0.315
25380W        W93774  13.776  17.572   4.858
25381W        W93775  27.544  15.651  11.968
25382W        W93776  30.381  28.106   1.837
25383W        W93777  34.497   3.823   2.741
25384W        W93778  32.610  44.154  12.828
25385W        W93779  28.170  24.670   0.062
25386W        W93780  17.638  22.953   3.256
25387W        W93781  42.373  42.814  10.616
25388W        W93782  35.376  34.069   2.861
25389W        W93783   2.349  35.911   3.702
25390W        W93784  39.900  30.598  12.506
25391W        W93785  22.634  20.078   3.653
25392W        W93786   2.937  19.064  11.264
25393W        W93787   3.412  37.340   0.044
25394W        W93788  22.973  25.021   2.685
25395W        W93789  17.723  36.125   0.868
25396W        W93790   0.503  39.371   1.224
25397W        W93791  39.829  38.814  13.322
25398W        W93792   8.134  14.864   1.754
25399W        W93793   1.666  13.426  10.240
25400W        W93794   1.283  30.683  10.928
25401W        W93795  24.535  26.400   1.295
25402W        W93796  17.063   8.144   3.428
25403W        W93797   7.190   8.438   3.672
25404W        W93798  19.982  19.159   0.920
25405W        W93799  32.407   7.628  14.079
25406W        W93800  39.745  43.499  12.271
25407W        W93801   5.977  38.918  12.949
25408W        W93802   2.693  30.127  10.886
25409W        W93803  30.728  37.448   2.968
25410W        W93804   9.257   7.904   3.103
25411W        W93805   9.316  39.529   0.115
25412W        W93806  16.384  35.615  11.233
25413W        W93807  34.218   9.072  11.195
25414W        W93808  37.809  32.124  11.565
25415W        W93809  42.343   1.335  12.038
25416W        W93810   3.853   1.746  13.991
25417W        W93811  19.824  35.983   2.759
25418W        W93812   2.979   7.404   1.834
25419W        W93813  44.454  19.354   3.529
25420W        W93814  12.424   4.113  13.433
25421W        W93815   9.635  27.078  12.006
25422W        W93816  40.220  24.291   3.666
25423W        W93817  21.528  13.612   4.927
25424W        W93818  17.015  41.910   3.952
25425W        W93819  28.410  32.423  12.278
25426W        W93820   8.018   3.259  13.544
25427W        W93821  21.542  24.528   2.286
25428W        W93822  42.994   8.100  10.736
25429W        W93823  23.247  20.142   3.975
25430W        W93824  23.529  35.883  14.869
25431W        W93825  28.540  11.438  11.050
25432W        W93826  19.020  42.457   1.348
25433W        W93827  10.906  22.500   0.398
25434W        W93828  22.945  23.649   5.007
25435W        W93829   8.140  36.985   0.045
25436W        W93830   1.180  16.021  14.871
25437W        W93831  10.680  33.570  12.905
25438W        W93832  39.803   2.385   4.309
25439W        W93833  36.173  17.523  12.545
25440W        W93834  18.229  22.698   3.851
25441W        W93835   4.314  24.270   2.522
25442W        W93836  10.387  41.561   2.363
25443W        W93837  10.693  24.082  11.434
25444W        W93838  21.323   0.580   0.020
25445W        W93839  31.061  39.072  13.241
25446W        W93840  25.481  24.673   0.798
25447W        W93841  24.585  27.041  11.351
25448W        W93842   3.991  15.709  13.995
25449W        W93843  31.269  44.381  13.323
25450W        W93844  32.254  41.468  11.650
25451W        W93845  43.849  38.814  13.768
25452W        W93846  36.768  20.950   2.756
25453W        W93847  44.346  16.272   3.407
25454W        W93848  44.276  29.495  14.038
25455W        W93849  43.263  22.160   1.743
25456W        W93850   5.932  27.009  14.707
25457W        W93851  10.354  44.469  10.831
25458W        W93852  21.512  29.144   4.571
25459W        W93853  35.811  40.144  13.991
25460W        W93854  16.734  12.709   1.267
25461W        W93855  23.236  14.956  12.381
25462W        W93856  44.008  25.686  13.404
25463W        W93857   4.796  44.806   3.262
25464W        W93858   9.544  25.097  13.363
25465W        W93859   3.700  18.753   1.845
25466W        W93860   9.015  40.628  11.854
25467W        W93861   5.812  13.466   1.090
25468W        W93862   1.905   7.669  11.156
25469W        W93863  26.770  15.478  14.516
25470W        W93864  12.263  18.157   1.942
25471W        W93865  24.121  36.800  12.024
25472W        W93866   3.408  18.500  14.832
25473W        W93867  31.614   6.068   4.119
25474W        W93868  23.275  39.548   1.206
25475W        W93869  35.603  36.876   4.609
25476W        W93870  44.644  32.618   3.263
25477W        W93871  41.256  23.734  14.670
25478W        W93872  39.885  15.021  14.523
25479W        W93873  19.384  35.980  12.338
25480W        W93874   4.595  15.773  14.804
25481W        W93875   6.300  35.122   0.181
25482W        W93876  11.753  31.600  13.964
25483W        W93877   2.945   3.321   4.621
25484W        W93878  25.143  33.795   4.425
25485W        W93879  28.726  10.891  13.508
25486W        W93880   0.286  20.911  10.669
25487W        W93881  13.590  22.283  13.114
25488W        W93882  23.346  32.092   3.292
25489W        W93883  34.084  18.605  12.608
25490W        W93884  24.681  33.979  13.380
25491W        W93885  22.406  42.437  12.877
25492W        W93886  44.298   8.858  13.790
25493W        W93887  26.979  24.083  11.994
25494W        W93888   2.227  39.298   3.940
25495W        W93889  33.821  43.194  10.694
25496W        W93890  11.530  22.635  14.013
25497W        W93891  13.816  11.834  10.700
25498W        W93892  22.954  36.830   3.269
25499W        W93893  21.796  31.311  13.996
25500W        W93894  33.764  40.011   3.261
25501W        W93895  30.843   0.333  12.353
25502W        W93896   2.396  24.852   5.127
25503W        W93897  40.157  15.389   4.930
25504W        W93898   4.179   4.995   0.210
25505W        W93899  30.995  34.369  10.365
25506W        W93900  44.974   0.065  13.029
25507W        W93901   4.831  40.932   0.376
25508W        W93902  32.983  43.408  11.594
25509W        W93903  40.156  27.423   2.274
25510W        W93904   7.302  34.348   0.303
25511W        W93905  37.546  43.278   4.806
25512W        W93906  34.904  18.240   0.433
25513W        W93907  12.791  30.357   4.202
25514W        W93908  37.122  30.934  12.257
25515W        W93909  20.266  41.656   1.361
25516W        W93910  14.399  29.975   1.206
25517W        W93911  16.082  34.156   2.796
25518W        W93912  43.998   0.331  14.363
25519W        W93913   6.496  43.960   2.785
25520W        W93914   6.811  12.321  12.474
25521W        W93915  27.511  16.217   4.737
25522W        W93916   2.733  25.408   0.425
25523W        W93917  30.438  25.952   0.878
25524W        W93918   8.818  42.408  10.696
25525W        W93919  12.700  29.534  10.726
25526W        W93920  12.191  36.418  12.358
25527W        W93921  35.978  36.002  13.317
25528W        W93922  14.624  31.653   1.581
25529W        W93923  41.392  34.170   4.022
25530W        W93924  22.891  32.987  11.482
25531W        W93925  15.058  37.099   4.598
25532W        W93926  41.983  24.889   1.915
25533W        W93927  43.726  31.904   1.855
25534W        W93928  31.646   8.493  12.518
25535W        W93929  29.006  11.075   4.616
25536W        W93930  44.339  40.249   1.290
25537W        W93931  23.857  41.078   3.664
25538W        W93932  37.895  13.852   4.714
25539W        W93933  31.962  15.623  14.818
25540W        W93934  24.803  35.521   0.354
25541W        W93935  43.912  15.106   0.255
25542W        W93936  16.695  14.103  11.214
25543W        W93937  22.507  42.884  10.788
25544W        W93938  37.017  31.416   2.962
25545W        W93939  22.649  24.404  12.085
25546W        W93940  33.061  38.514  10.893
25547W        W93941  40.993  15.408   3.372
25548W        W93942  38.978  44.625  12.999
25549W        W93943  31.900   3.496   0.280
25550W        W93944  38.842   4.938   0.297
25551W        W93945  17.822   9.006  11.700
25552W        W93946   3.203   7.646  14.782
25553W        W93947  15.284  33.904   1.378
25554W        W93948   1.864  23.787   4.581
25555W        W93949  13.361  20.595   4.870
25556W        W93950  14.010   1.738   1.915
25557W        W93951  11.520  42.315   4.158
25558W        W93952  18.009  14.633   3.553
25559W        W93953  33.154   4.289  13.356
25560W        W93954  22.936  20.906   1.790
25561W        W93955   5.725   8.443  14.374
25562W        W93956  14.773  29.543  10.374
25563W        W93957  22.424  42.444   3.462
25564W        W93958  28.498  40.099  12.702
25565W        W93959  19.184  42.816  11.419
25566W        W93960  16.989  25.467   0.825
25567W        W93961  23.197  27.234   4.003
25568W        W93962   3.515  41.595  14.791
25569W        W93963  24.087  30.377  14.510
25570W        W93964  33.196  14.005  11.184
25571W        W93965   6.252  37.046   4.197
25572W        W93966  37.564   3.714  14.386
25573W        W93967  22.164   8.187   3.940
25574W        W93968  34.047  41.203  14.909
25575W        W93969   8.283  22.349  13.800
25576W        W93970   2.942  16.543   1.438
25577W        W93971  16.725  31.459  11.638
25578W        W93972  23.556  24.506   4.506
25579W        W93973  15.409  28.727  14.999
25580W        W93974   0.929   4.751   2.318
25581W        W93975  31.536  16.322   1.668
25582W        W93976  29.901   0.869  14.252
25583W        W93977   5.523  23.197   3.313
25584W        W93978  32.941  11.144  12.556
25585W        W93979  36.165  34.523  12.478
25586W        W93980  23.741  40.565  14.555
25587W        W93981   2.230  30.496  11.557
25588W        W93982   6.245  12.267   2.428
25589W        W93983  27.620  13.598   3.734
25590W        W93984  28.867   6.412   1.877
25591W        W93985   3.201  25.544   0.581
25592W        W93986   1.863  26.365   2.406
25593W        W93987  23.291  28.554   4.605
25594W        W93988  14.545  44.924  13.386
25595W        W93989   2.878  16.274   4.244
25596W        W93990  22.602   6.355  13.419
25597W        W93991  33.434   9.812  11.102
25598W        W93992  42.459  18.052   2.660
25599W        W93993  24.273   3.769   4.208
25600W        W93994  35.627  39.626   0.697
25601W        W93995  40.947  33.642   1.906
25602W        W93996  18.812   3.852   2.835
25603W        W93997   4.510   0.709  11.074
25604W        W93998  12.174  30.041   2.327
25605W        W93999   6.462  22.974   3.586
25606W        W94000  22.261  24.752   4.093
25607W        W94001  29.109  44.372  10.167
25608W        W94002   3.047  14.697   0.414
25609W        W94003   4.668   4.321  11.123
25610W        W94004  27.566   4.687   0.804
25611W        W94005   2.313  25.813  10.719
25612W        W94006  36.651  11.624  10.300
25613W        W94007  34.494  42.965  12.330
25614W        W94008  13.332  27.116  12.372
25615W        W94009  28.432  16.355   4.895
25616W        W94010  44.176   5.992  11.022
25617W        W94011  26.614   5.922   1.376
25618W        W94012   7.500  31.110   3.830
25619W        W94013  15.715  34.228   0.436
25620W        W94014   0.896   8.740   1.419
25621W        W94015  35.255  37.279  13.791
25622W        W94016  35.497  32.452  11.544
25623W        W94017  15.405  40.449   3.105
25624W        W94018  18.171  29.543   2.867
25625W        W94019   7.741  37.229   4.139
25626W        W94020  23.316  40.862   1.107
25627W        W94021  16.059   1.782   0.957
25628W        W94022  14.428  29.664   2.697
25629W        W94023   4.621  28.247  14.776
25630W        W94024  29.655  15.859  10.282
25631W        W94025  44.566   7.936   3.238
25632W        W94026  34.173   3.948   4.562
25633W        W94027  44.184  33.642   0.258
25634W        W94028   6.902  35.602   2.741
25635W        W94029   2.298  27.743  11.480
25636W        W94030  44.835  42.833   4.083
25637W        W94031  33.711  42.014   0.427
25638W        W94032  39.633   4.464  12.131
25639W        W94033  25.697   2.150  11.215
25640W        W94034  22.630  33.313  11.137
25641W        W94035  42.080  24.390   1.747
25642W        W94036   9.166  39.000  12.444
25643W        W94037   1.211  13.662  10.317
25644W        W94038  30.092  10.875  13.607
25645W        W94039  26.050  38.316   2.300
25646W        W94040   8.253   9.811   1.924
25647W        W94041  32.692  31.490   3.769
25648W        W94042   2.793  44.014   3.685
25649W        W94043   5.302   6.785   4.407
25650W        W94044  26.138   3.324  13.532
25651W        W94045  35.034  15.493  12.806
25652W        W94046   7.662  38.785   1.904
25653W        W94047   1.270  18.284  10.508
25654W        W94048   4.955  33.148  13.894
25655W        W94049  33.326   2.341  12.404
25656W        W94050  39.395  21.457   2.363
25657W        W94051  26.591  24.209  13.153
25658W        W94052  31.626  11.265   3.383
25659W        W94053  34.915   9.786  13.886
25660W        W94054  20.783  16.059  11.268
25661W        W94055  13.613  29.663  13.514
25662W        W94056  31.633  36.431  10.902
25663W        W94057   2.909  17.634   3.095
25664W        W94058  32.013   2.990  13.389
25665W        W94059   9.215  44.947  12.563
25666W        W94060   8.282  16.549   2.391
25667W        W94061   4.116   5.839   0.008
25668W        W94062  36.959  43.504  13.417
25669W        W94063  22.907  42.955   1.273
25670W        W94064  29.729  38.126  11.132
25671W        W94065  27.553   9.312   2.703
25672W        W94066   9.221  41.990   4.711
25673W        W94067   2.294  39.378  11.605
25674W        W94068   7.733  31.578  14.195
25675W        W94069  33.326  17.377  13.220
25676W        W94070  35.810   8.334  12.334
25677W        W94071  19.003  28.136  13.588
25678W        W94072   9.688  42.693   1.715
25679W        W94073   4.374   1.330   4.022
25680W        W94074   8.405  16.224  14.418
25681W        W94075   9.128   3.229   2.350
25682W        W94076  38.159  37.943  13.542
25683W        W94077  19.732   5.324   2.231
25684W        W94078  40.085  37.310  10.564
25685W        W94079  34.815  28.470  14.730
25686W        W94080  29.457  39.979   3.457
25687W        W94081  26.927   6.998  11.761
25688W        W94082   5.891  26.075   1.881
25689W        W94083  35.152  43.672  10.750
25690W        W94084  16.046  19.213  13.354
25691W        W94085   0.946  17.202   2.717
25692W        W94086  20.204  18.324   3.667
25693W        W94087  37.463   2.474  10.661
25694W        W94088  19.814  25.105  10.324
25695W        W94089   1.335   0.677  11.537
25696W        W94090  33.164   7.028   4.259
25697W        W94091  41.444  33.335   2.344
25698W        W94092  16.107  15.325   0.757
25699W        W94093  38.421  15.125  12.477
25700W        W94094   4.000  16.313   9.729
25701W        W94095  40.471   9.133  11.919
25702W        W94096   7.625  24.673  14.381
25703W        W94097  30.671   3.592  11.323
25704W        W94098  24.238  14.173  14.330
25705W        W94099  29.909  42.024   1.675
25706W        W94100  40.809  33.387  13.798
25707W        W94101  14.116  24.067   2.139
25708W        W94102  20.716  34.275   3.265
25709W        W94103  15.197  17.588  14.855
25710W        W94104  42.142  39.450  10.670
25711W        W94105  13.451   2.988   1.988
25712W        W94106  12.891  12.394  12.920
25713W        W94107  16.042   9.430   3.717
25714W        W94108  38.080  28.619  12.068
25715W        W94109   7.935   5.968  14.511
25716W        W94110  43.616  23.823   4.581
25717W        W94111  36.924  36.529   0.192
25718W        W94112   8.589  11.878  11.452
25719W        W94113  23.736  30.211   4.717
25720W        W94114   5.225  12.743  13.431
25721W        W94115  29.670  38.357  11.596
25722W        W94116  22.740  41.265   4.159
25723W        W94117  19.751  11.416   0.458
25724W        W94118  14.481   9.670  13.188
25725W        W94119   6.167  36.902   0.732
25726W        W94120  27.512   2.930  14.265
25727W        W94121  40.051  18.756  10.488
25728W        W94122   6.207  20.079   3.339
25729W        W94123  13.615  20.135  11.634
25730W        W94124   8.856  12.990  13.042
25731W        W94125  29.606  11.038  13.465
25732W        W94126  34.340  28.630   1.889
25733W        W94127  41.333  34.305  11.009
25734W        W94128  41.110  19.083  14.654
25735W        W94129   7.454   0.509  10.739
25736W        W94130  35.899   3.455   1.438
25737W        W94131  33.409  15.171  12.468
25738W        W94132  33.634  10.917  12.919
25739W        W94133  21.960  44.958   0.791
25740W        W94134   1.862   0.413   3.523
25741W        W94135  23.290   2.433   1.255
25742W        W94136  42.636  39.708  10.655
25743W        W94137  17.115  28.746   2.868
25744W        W94138  37.596  27.082  11.647
25745W        W94139  42.416  21.876  10.757
25746W        W94140  35.411  12.408   2.791
25747W        W94141   8.257  15.695  14.453
25748W        W94142  19.792  16.080  12.454
25749W        W94143  27.612  17.839  11.160
25750W        W94144  15.697  38.585   3.769
25751W        W94145  24.965  37.260   2.599
25752W        W94146  21.152   4.402  13.497
25753W        W94147   2.496  40.072  12.007
25754W        W94148  37.878  41.751  13.910
25755W        W94149  17.301   3.496  13.542
25756W        W94150  30.007  37.580   0.869
25757W        W94151  35.313  14.596  12.974
25758W        W94152   4.980  22.296   2.638
25759W        W94153   0.304  27.651   2.635
25760W        W94154   8.191  43.043  13.074
25761W        W94155   0.057  28.156   2.591
25762W        W94156  42.758  26.578   2.404
25763W        W94157  31.490   7.656  13.839
25764W        W94158  20.025  39.102  12.405
25765W        W94159  11.880  34.116   1.349
25766W        W94160   9.419  26.972   2.617
25767W        W94161  11.196  17.996   2.692
25768W        W94162  41.252  17.135  14.455
25769W        W94163   9.645  24.584   5.266
25770W        W94164  23.236   7.612   4.844
25771W        W94165  40.751   8.941   1.911
25772W        W94166  30.369   4.800   2.578
25773W        W94167  24.560  37.029  12.142
25774W        W94168   9.347  21.034   3.138
25775W        W94169   9.923  13.595   2.753
25776W        W94170  43.715  34.364  14.993
25777W        W94171  42.557   3.302  13.926
25778W        W94172  33.353  19.296   0.333
25779W        W94173   6.857  26.232   3.699
25780W        W94174  28.686  30.931   3.550
25781W        W94175   1.411   8.364  11.703
25782W        W94176   9.958   3.297  12.906
25783W        W94177   9.085  39.903   4.099
25784W        W94178  32.179  21.590  11.194
25785W        W94179  22.028   6.860   0.425
25786W        W94180   2.740  27.550   2.342
25787W        W94181   5.459  33.639  10.787
25788W        W94182  23.501  20.890  13.774
25789W        W94183  29.952  17.193  11.395
25790W        W94184  44.724   0.019   2.753
25791W        W94185  39.816  26.531   2.212
25792W        W94186  27.435  27.598   3.241
25793W        W94187  32.222   7.358  11.158
25794W        W94188  40.059  12.347   0.468
25795W        W94189  14.503   3.608  11.004
25796W        W94190  39.572  31.009   4.970
25797W        W94191  14.852  42.916  12.840
25798W        W94192  17.101  36.664   3.832
25799W        W94193  38.877  36.425   0.664
25800W        W94194  14.066  13.739   2.383
25801W        W94195   2.232   0.052   1.922
25802W        W94196   5.096  10.353   3.602
25803W        W94197  17.233   6.651   0.431
25804W        W94198  16.575  44.614  13.222
25805W        W94199  39.285  40.286  13.196
25806W        W94200  23.549  44.466  10.687
25807W        W94201   6.894   3.960   0.939
25808W        W94202  25.872  25.185  11.051
25809W        W94203  19.807   7.192  13.732
25810W        W94204   9.378  33.415  11.185
25811W        W94205  29.021  30.997   2.307
25812W        W94206  14.743  35.389  11.475
25813W        W94207  11.604  33.342  12.068
25814W        W94208  37.756   9.532   0.335
25815W        W94209  39.508  14.768   0.347
25816W        W94210   5.255  15.330   5.122
25817W        W94211   8.115  24.673   2.729
25818W        W94212  18.251  16.011   1.805
25819W        W94213  24.796  16.484   1.279
25820W        W94214  43.249  36.933  13.340
25821W        W94215  37.425  25.090  13.817
25822W        W94216   1.819  35.739   1.742
25823W        W94217  25.046  22.758  14.286
25824W        W94218  37.031  30.694   1.297
25825W        W94219   4.555  34.584  11.439
25826W        W94220  14.122   5.442  10.294
25827W        W94221  19.457  20.166  10.713
25828W        W94222   7.293  33.441  11.990
25829W        W94223   7.718  40.433  13.277
25830W        W94224   1.095  18.547   2.248
25831W        W94225  34.539  31.808   2.668
25832W        W94226  12.345  40.587  14.776
25833W        W94227  38.861   4.357   3.939
25834W        W94228  40.062   7.925  14.807
25835W        W94229  32.496  17.483  11.963
25836W        W94230  36.492   2.611   4.922
25837W        W94231   4.878  18.805   1.250
25838W        W94232  43.616  16.724   3.228
25839W        W94233   8.404  15.188  14.545
25840W        W94234  24.219  19.970   4.127
25841W        W94235  20.750  15.754   1.172
25842W        W94236  15.089  42.832   2.307
25843W        W94237  44.428  35.118  14.252
25844W        W94238   7.804  33.586  11.619
25845W        W94239  10.671  29.903   2.423
25846W        W94240  32.563   7.496  11.520
25847W        W94241  10.152  37.071  10.578
25848W        W94242   8.271  33.416   4.819
25849W        W94243  35.993  10.262   0.994
25850W        W94244  31.896   0.008  12.316
25851W        W94245  40.162  36.659   1.895
25852W        W94246  27.600  29.160  11.622
25853W        W94247  16.490  22.996   0.731
25854W        W94248  25.102  17.307  14.671
25855W        W94249   7.211  39.452   4.277
25856W        W94250   6.533   0.434   4.046
25857W        W94251  42.260  26.518  13.362
25858W        W94252  33.064  33.593   0.544
25859W        W94253   4.385  37.876  12.070
25860W        W94254  21.191  33.635   0.832
25861W        W94255  18.771  32.121   0.312
25862W        W94256  14.747  31.458   3.870
25863W        W94257  15.620  10.818  13.761
25864W        W94258  37.051  16.594   3.317
25865W        W94259  21.449  34.897   2.773
25866W        W94260  38.572  16.141  11.554
25867W        W94261  19.465  40.564  13.042
25868W        W94262   9.399  24.101   0.994
25869W        W94263  41.948  14.266  11.190
25870W        W94264  10.339  31.291  13.342
25871W        W94265   5.737  29.479   0.937
25872W        W94266  23.513  27.704   1.013
25873W        W94267  22.768  30.731   0.790
25874W        W94268  27.143  28.479   0.494
25875W        W94269   7.842  38.425  12.162
25876W        W94270  34.021  23.714  14.813
25877W        W94271  41.504  25.397  13.845
25878W        W94272  24.066  32.424   0.681
25879W        W94273  22.760  20.115   0.479
25880W        W94274  28.880  15.796  13.882
25881W        W94275  25.432  31.081   1.842
25882W        W94276  43.308  36.609   3.528
25883W        W94277  43.199  13.137  10.300
25884W        W94278  22.249   7.598  11.042
25885W        W94279  20.954  15.429   2.145
25886W        W94280  37.796  32.744   1.657
25887W        W94281   6.871  31.524   4.647
25888W        W94282  36.342  43.501   0.898
25889W        W94283   3.371  22.100   4.131
25890W        W94284   1.372  32.004  10.339
25891W        W94285  34.936   2.533   4.236
25892W        W94286   5.974  42.024  12.908
25893W        W94287  31.561  19.672  11.275
25894W        W94288   4.737  16.568  11.689
25895W        W94289  43.649   8.477   1.603
25896W        W94290   2.081  16.057  12.961
25897W        W94291  20.304   6.918   1.171
25898W        W94292  36.782   7.310  12.530
25899W        W94293  18.835  29.759  10.633
25900W        W94294   6.780  16.355  12.079
25901W        W94295   8.235   7.575   0.613
25902W        W94296  13.595  22.695   4.129
25903W        W94297  20.529  22.808   4.568
25904W        W94298  15.342   1.346   0.927
25905W        W94299  42.482  35.959  13.033
25906W        W94300  29.192  17.838  10.636
25907W        W94301  39.953  13.600   3.090
25908W        W94302  25.536  28.693   1.342
25909W        W94303   4.670  36.602  13.958
25910W        W94304  28.492   5.776  11.892
25911W        W94305   9.236   5.381   3.152
25912W        W94306  22.092   8.404   2.033
25913W        W94307   3.729  33.179  11.320
25914W        W94308   9.472  18.643   3.938
25915W        W94309  16.709  39.971   4.151
25916W        W94310  41.023   0.862   4.187
25917W        W94311  12.836  35.627   2.655
25918W        W94312   7.219  21.186  10.789
25919W        W94313  13.062  41.351  14.712
25920W        W94314  11.450  41.326   4.146
25921W        W94315  42.940  19.188  12.889
25922W        W94316   2.383  42.535  11.520
25923W        W94317  24.743  25.447   2.796
25924W        W94318   9.317  11.196  11.965
25925W        W94319  32.638  39.790   1.322
25926W        W94320   1.717  27.787  13.416
25927W        W94321  29.491  41.189   2.807
25928W        W94322  14.110  19.632  13.284
25929W        W94323  29.847  39.503  14.991
25930W        W94324  26.027  34.197   1.292
25931W        W94325  11.151  25.555   2.694
25932W        W94326  10.057   8.218  12.129
25933W        W94327  34.801  14.977   4.062
25934W        W94328   2.288  29.717   4.221
25935W        W94329  43.553  13.910  14.370
25936W        W94330   9.288  10.114   3.657
25937W        W94331  26.398  22.105  11.778
25938W        W94332  44.267  44.023   0.906
25939W        W94333  20.377  40.579  10.751
25940W        W94334  12.589  15.336   2.291
25941W        W94335  21.566   0.565  14.407
25942W        W94336  18.343  21.617  13.530
25943W        W94337   5.142  13.282   0.311
25944W        W94338  36.439  41.353  12.826
25945W        W94339  13.272   8.306  14.513
25946W        W94340   6.186  33.531  13.185
25947W        W94341  25.830  40.524   1.692
25948W        W94342  15.810  24.055  13.834
25949W        W94343  29.380  35.967   1.081
25950W        W94344  33.092   2.400  10.701
25951W        W94345  34.584  17.489  10.632
25952W        W94346  27.198   6.829  10.955
25953W        W94347  43.806  13.347   1.520
25954W        W94348   4.829  22.975   1.131
25955W        W94349  10.211  41.430  10.739
25956W        W94350   0.879  19.369   1.985
25957W        W94351  28.616  25.733  11.445
25958W        W94352  37.818  28.216  13.252
25959W        W94353  27.587   1.828   0.959
25960W        W94354  26.706  11.750  14.962
25961W        W94355  28.103  20.127   0.183
25962W        W94356  33.928   3.813   3.637
25963W        W94357  13.301   2.299  12.000
25964W        W94358  27.733  36.547  13.944
25965W        W94359  34.553  27.428  14.315
25966W        W94360  19.699  12.350  12.042
25967W        W94361  25.428   7.326   3.581
25968W        W94362  41.063  20.623   2.885
25969W        W94363  43.560  14.307   1.734
25970W        W94364  17.078  20.457  11.010
25971W        W94365  22.737  16.203   0.739
25972W        W94366   5.879  14.827  12.626
25973W        W94367  43.686  17.271   4.301
25974W        W94368   2.397   2.591   4.255
25975W        W94369   1.999  26.898   0.711
25976W        W94370  12.677  39.916   2.413
25977W        W94371  22.345   7.201  11.961
25978W        W94372  26.530  44.944   4.109
25979W        W94373  17.457  14.151  11.685
25980W        W94374  14.189   4.766   4.053
25981W        W94375  37.533  18.631   0.674
25982W        W94376  21.272  39.074  12.581
25983W        W94377  38.557  17.917   4.874
25984W        W94378   4.922   7.422   2.485
25985W        W94379  22.066   5.450   1.871
25986W        W94380   8.944  44.015  13.566
25987W        W94381  25.654  30.610   1.714
25988W        W94382  31.865   4.821   4.601
25989W        W94383   5.740   0.277   3.924
25990W        W94384  32.359  39.053  13.294
25991W        W94385  36.233  16.410   3.606
25992W        W94386  38.956  26.628   3.925
25993W        W94387  20.762   2.274   0.088
25994W        W94388  13.649  39.096   4.101
25995W        W94389  28.845  40.370   0.169
25996W        W94390  16.809  26.486  14.939
25997W        W94391  39.208  26.274   0.681
25998W        W94392  25.008   8.757  11.913
25999W        W94393   0.875  26.042   0.720
26000W        W94394  37.326   9.828   0.406
26001W        W94395  28.682  12.630  10.591
26002W        W94396  41.459  30.151   4.608
26003W        W94397  41.017   1.056  10.694
26004W        W94398   2.361   1.030   3.246
26005W        W94399  19.995  12.876  14.541
26006W        W94400  38.152  33.263  14.034
26007W        W94401  18.263  23.567   3.831
26008W        W94402  17.249  25.349  11.578
26009W        W94403  27.591  37.447   3.553
26010W        W94404  35.869  39.422   2.697
26011W        W94405  29.122  34.450   0.235
26012W        W94406  28.395   3.227  13.780
26013W        W94407  21.533  13.440   0.374
26014W        W94408   4.963  20.792  14.523
26015W        W94409  13.117   3.995  12.029
26016W        W94410  18.562   3.682   0.429
26017W        W94411  44.356  24.687   0.769
26018W        W94412   8.141   2.395  10.242
26019W        W94413  16.185  40.962   3.105
26020W        W94414  16.264  10.643  14.902
26021W        W94415  39.924  16.258   4.614
26022W        W94416  12.534  17.133   2.327
26023W        W94417  25.100   2.356   2.348
26024W        W94418  17.124  19.190   4.615
26025W        W94419   9.754  26.917  10.193
26026W        W94420  37.292  19.497  14.821
26027W        W94421  15.039   6.144   0.210
26028W        W94422  30.361  19.212   0.560
26029W        W94423  15.553   3.700   3.432
26030W        W94424  28.554  28.539  10.453
26031W        W94425   7.488  35.917  13.356
26032W        W94426  42.582  41.868  14.264
26033W        W94427   1.453  27.509  12.786
26034W        W94428  34.497  29.702   3.773
26035W        W94429  21.171  30.804   3.868
26036W        W94430  21.208  22.130   3.650
26037W        W94431  30.139   3.150  10.282
26038W        W94432  37.923   4.176  11.704
26039W        W94433  44.443  39.800   0.377
26040W        W94434  24.040  15.335   0.438
26041W        W94435  35.584  43.897   3.382
26042W        W94436  20.220  10.126  13.738
26043W        W94437  43.260   9.786   4.404
26044W        W94438  31.692  41.196  12.833
26045W        W94439   8.140  37.656   0.350
26046W        W94440   2.986  23.137  12.546
26047W        W94441   6.151  44.032  12.076
26048W        W94442   0.769   6.333   4.156
26049W        W94443  42.487  30.272   4.709
26050W        W94444   0.731  23.805  12.595
26051W        W94445   2.203  30.463   9.984
26052W        W94446  38.611   3.898   0.379
26053W        W94447  35.617   2.339   1.402
26054W        W94448   4.587  16.147   2.342
26055W        W94449  26.707  33.209   4.182
26056W        W94450  43.955  29.416   0.900
26057W        W94451  11.974   6.077  14.510
26058W        W94452  40.090  37.129   2.795
26059W        W94453  29.187  38.901   0.841
26060W        W94454   5.210  33.368  14.643
26061W        W94455  42.950  11.606  14.306
26062W        W94456  37.549  20.557  11.544
26063W        W94457  20.078  15.803  11.136
26064W        W94458  25.363  32.736  12.650
26065W        W94459  18.035  18.066   2.732
26066W        W94460  16.237   7.991  11.263
26067W        W94461   1.966  23.462   1.852
26068W        W94462  39.402  37.446  13.781
26069W        W94463   3.003  43.353   3.240
26070W        W94464  14.055  30.640   4.160
26071W        W94465  29.019  37.463   3.842
26072W        W94466  34.104  26.697   4.816
26073W        W94467  20.808  16.822  11.623
26074W        W94468   4.904  19.538  14.981
26075W        W94469  41.125  33.301  14.791
26076W        W94470  11.712   1.457  12.883
26077W        W94471  38.017  40.680  11.195
26078W        W94472  11.440  29.060  12.088
26079W        W94473  43.551  36.478  12.616
26080W        W94474   1.407  39.440   2.107
26081W        W94475  14.246   5.235   2.002
26082W        W94476  28.166   7.816   1.720
26083W        W94477  18.293  42.917  14.066
26084W        W94478  37.079  33.028   3.867
26085W        W94479  15.719  33.496   1.726
26086W        W94480   1.847  34.897   2.151
26087W        W94481  43.337  18.553   3.932
26088W        W94482  10.672  10.949  10.979
26089W        W94483  33.849  22.260  12.644
26090W        W94484  44.754   7.160  12.195
26091W        W94485  28.729  13.413  14.599
26092W        W94486  20.813  30.556   3.591
26093W        W94487   0.378  20.755  11.204
26094W        W94488  10.613  11.222  13.458
26095W        W94489  44.652  23.788  13.845
26096W        W94490  31.097  13.772   2.895
26097W        W94491  40.056  15.244   0.917
26098W        W94492   5.665  32.662  14.873
26099W        W94493  41.638  38.316  13.929
26100W        W94494  34.104   1.795   2.289
26101W        W94495  16.784  20.081  11.673
26102W        W94496  34.723  18.181  10.522
26103W        W94497   2.907  29.627  14.062
26104W        W94498  30.024  18.974  11.571
26105W        W94499   6.027  29.536   1.363
26106W        W94500  28.613  38.059   2.697
26107W        W94501  40.048  13.760  14.491
26108W        W94502   7.198   8.871  14.257
26109W        W94503  19.149   5.628  11.015
26110W        W94504  36.408  43.081   4.185
26111W        W94505   0.264  24.109  14.629
26112W        W94506  16.558  14.809  13.808
26113W        W94507   1.529  20.651  12.574
26114W        W94508  29.457  33.021  10.436
26115W        W94509   7.645  21.529   1.284
26116W        W94510  44.247  37.125  12.376
26117W        W94511   7.334  38.815   3.219
26118W        W94512  10.300   8.456  10.024
26119W        W94513  38.978   4.214  11.650
26120W        W94514  30.382  13.757   3.554
26121W        W94515  20.265  31.186   4.838
26122W        W94516  25.262  20.676   3.801
26123W        W94517  31.495   0.259   4.008
26124W        W94518  18.384  28.595  10.683
26125W        W94519  12.268  12.886   0.552
26126W        W94520   2.702   2.791   1.185
26127W        W94521  24.933  18.186  12.345
26128W        W94522  33.027  41.980   3.190
26129W        W94523  38.987  11.898   0.821
26130W        W94524  11.056   6.868  14.909
26131W        W94525  39.584  15.113  13.562
26132W        W94526  11.554  12.065  14.657
26133W        W94527  19.112   3.425   2.827
26134W        W94528   0.435  36.703   1.138
26135W        W94529  35.483  41.988  10.692
26136W        W94530  44.457   6.394  10.728
26137W        W94531  37.422   0.913   0.564
26138W        W94532  18.339  20.236   0.175
26139W        W94533  10.079  12.147   4.495
26140W        W94534  13.568  32.493  14.638
26141W        W94535  18.871  12.794   3.646
26142W        W94536  35.375  37.808  14.717
26143W        W94537  40.049  28.582  13.259
26144W        W94538  19.314  28.270  13.989
26145W        W94539  16.035  12.928  11.637
26146W        W94540  28.342  33.616   3.314
26147W        W94541  31.052  22.996   2.276
26148W        W94542  18.892  30.998   3.203
26149W        W94543  28.681   1.129  10.449
26150W        W94544  11.830  40.842  14.605
26151W        W94545  15.967  27.188   1.878
26152W        W94546   8.060  35.437   0.378
26153W        W94547  24.705  44.713   0.867
26154W        W94548  38.569  27.975  12.603
26155W        W94549  42.277  42.930  12.815
26156W        W94550  12.734  18.793  11.483
26157W        W94551   2.791  26.534   1.380
26158W        W94552  36.990   4.723   3.341
26159W        W94553  31.025  14.212  10.411
26160W        W94554   0.343  22.259  14.530
26161W        W94555  38.951  12.131  14.817
26162W        W94556  40.541  18.263  14.959
26163W        W94557  35.038  32.513   2.094
26164W        W94558   4.638  37.818  14.300
26165W        W94559   6.443  34.243  13.812
26166W        W94560  24.656   8.422   1.059
26167W        W94561  15.783  43.369   0.916
26168W        W94562  11.800  39.856   2.372
26169W        W94563  19.800  22.966  11.369
26170W        W94564   0.337  39.352  13.974
26171W        W94565   0.185  42.812   5.115
26172W        W94566  27.490  26.959   0.938
26173W        W94567   2.283  42.494   2.743
26174W        W94568  18.756   7.317   5.153
26175W        W94569  20.066   3.356  13.498
26176W        W94570  18.883  41.791   0.922
26177W        W94571  22.460   2.000   3.724
26178W        W94572  12.130  12.790  12.581
26179W        W94573   8.290  41.329   0.520
26180W        W94574  34.912  23.697  11.453
26181W        W94575  43.046   2.530   0.003
26182W        W94576  24.581  27.838  14.024
26183W        W94577   4.690  23.121   4.007
26184W        W94578  32.465   5.913  14.336
26185W        W94579  37.780  15.308   4.027
26186W        W94580  36.984  29.205   0.462
26187W        W94581  19.042   0.731  14.533
26188W        W94582  40.034   7.706   4.804
26189W        W94583  20.664   4.829   0.816
26190W        W94584   9.783  33.626   1.154
26191W        W94585  44.885  13.653   0.280
26192W        W94586  30.555  11.461   0.295
26193W        W94587  23.062  23.692  14.160
26194W        W94588  25.900  28.408  13.388
26195W        W94589  16.620  39.593  14.277
26196W        W94590  13.921  27.450  13.318
26197W        W94591  40.699   0.308   1.873
26198W        W94592  37.249  34.888  14.087
26199W        W94593  41.003  31.921  12.906
26200W        W94594   8.753  13.218  11.453
26201W        W94595  40.092  43.488   1.158
26202W        W94596  33.405  37.391  10.341
26203W        W94597  23.937  17.570  14.767
26204W        W94598  43.388  42.514   0.681
26205W        W94599   2.208  44.861   0.464
26206W        W94600  17.177  30.130   4.588
26207W        W94601  35.037  41.461   0.266
26208W        W94602  38.459  27.035  14.052
26209W        W94603   7.951  27.137  10.280
26210W        W94604  35.343   0.933   2.413
26211W        W94605  15.810  19.693  12.462
26212W        W94606   3.540   3.034  11.750
26213W        W94607  32.154  36.367  14.990
26214W        W94608  44.936  11.352   4.267
26215W        W94609  41.535  30.481   2.280
26216W        W94610   2.764   2.692  12.056
26217W        W94611  41.508  25.950   3.246
26218W        W94612  15.072   9.031  13.763
26219W        W94613   8.903   6.102   0.527
26220W        W94614  20.640   4.317  12.399
26221W        W94615  44.276  43.198  10.610
26222W        W94616  24.976  14.884  14.342
26223W        W94617  41.015  36.887   1.963
26224W        W94618  36.346  19.969   0.197
26225W        W94619   2.393  38.598   2.807
26226W        W94620   7.903  43.855   1.836
26227W        W94621  22.960   6.849   2.456
26228W        W94622   2.319  35.344  10.860
26229W        W94623  31.457  30.706   4.664
26230W        W94624  33.771  38.183  14.290
26231W        W94625  22.551   3.936  14.798
26232W        W94626   9.320  14.599   4.519
26233W        W94627   7.004  34.021  12.620
26234W        W94628  35.715  14.674   4.746
26235W        W94629  12.479  12.352   4.584
26236W        W94630   7.626  21.664   0.365
26237W        W94631  20.690  10.787   3.457
26238W        W94632  37.937  29.131   1.376
26239W        W94633  19.871   7.701   1.697
26240W        W94634  12.538  13.032   4.161
26241W        W94635  32.515  11.228   1.375
26242W        W94636  42.521  15.722  13.844
26243W        W94637   6.579  13.089   1.486
26244W        W94638  23.684  23.903  11.562
26245W        W94639   4.900   3.716  11.947
26246W        W94640   7.121   1.472  12.739
26247W        W94641  29.242  20.160   0.227
26248W        W94642  30.961  32.460  11.201
26249W        W94643  26.279  27.181  12.917
26250W        W94644  41.889  28.545  14.556
26251W        W94645   9.767  39.046  14.852
26252W        W94646   1.882  17.338  12.591
26253W        W94647  35.093   1.976  12.712
26254W        W94648  40.230   0.331  11.611
26255W        W94649  38.352  34.420  10.407
26256W        W94650   0.820  43.744  13.062
26257W        W94651  43.770   5.015   3.243
26258W        W94652  13.891  35.351  11.682
26259W        W94653  24.455   1.852   4.158
26260W        W94654  18.012  32.017   3.652
26261W        W94655   7.290  33.102   0.569
26262W        W94656   7.405  36.397  13.479
26263W        W94657   2.416  25.761   4.689
26264W        W94658  37.143  31.889   2.239
26265W        W94659   4.924  16.021   9.868
26266W        W94660  29.455  31.909   5.026
26267W        W94661  21.957  17.615  14.551
26268W        W94662  42.625  26.025   4.807
26269W        W94663  22.922  15.041   3.756
26270W        W94664  17.508  42.750   3.941
26271W        W94665  41.973   9.928   1.694
26272W        W94666   2.686  41.548   3.693
26273W        W94667   7.725  42.602  12.012
26274W        W94668  37.487  30.642   0.063
26275W        W94669  44.459  30.884  13.094
26276W        W94670  25.997  13.093   3.218
26277W        W94671  21.026  22.527  11.926
26278W        W94672  40.058  26.761   2.616
26279W        W94673  44.265   0.868   1.089
26280W        W94674  38.799  15.303   4.985
26281W        W94675  41.066  28.126   3.815
26282W        W94676   1.677  17.829  12.554
26283W        W94677  19.825   9.438   2.418
26284W        W94678   1.323  44.766   3.040
26285W        W94679   9.158  44.722   0.316
26286W        W94680   6.336  19.056   1.285
26287W        W94681  39.415  21.501   4.396
26288W        W94682  24.687   9.151   3.495
26289W        W94683  33.447   8.732   1.799
26290W        W94684  15.284  18.725  12.873
26291W        W94685  37.413   2.517   2.597
26292W        W94686  27.577  42.976  12.886
26293W        W94687  36.905  23.732   0.217
26294W        W94688  13.847   3.080   2.867
26295W        W94689   7.344   4.458  11.919
26296W        W94690  34.512   2.165   4.174
26297W        W94691  31.546  21.258  11.569
26298W        W94692   0.001  32.409  14.875
26299W        W94693   6.994  36.508  11.173
26300W        W94694  10.118   2.711  12.001
26301W        W94695  32.512  21.301  13.925
26302W        W94696   2.870  12.881   1.477
26303W        W94697   9.770   2.444   3.949
26304W        W94698   6.219  31.469  11.983
26305W        W94699   0.045  35.322  13.537
26306W        W94700   9.857  14.708   2.185
26307W        W94701  33.141   7.845   0.906
26308W        W94702  40.965  39.321   9.989
26309W        W94703  10.684  33.175  14.438
26310W        W94704  15.810  18.715   1.871
26311W        W94705  33.919  40.942  12.586
26312W        W94706  26.723  25.320   0.380
26313W        W94707  28.540  38.843  14.007
26314W        W94708  38.433  38.088   2.702
26315W        W94709  25.921  29.036   1.657
26316W        W94710  33.572   5.388  10.367
26317W        W94711  38.041  43.019   5.060
26318W        W94712  39.818  20.979  14.962
26319W        W94713  25.145  15.081  12.521
26320W        W94714   2.901  36.867   4.413
26321W        W94715  27.721  30.741   2.113
26322W        W94716  43.360  18.727   1.926
26323W        W94717  44.391  43.318   1.810
26324W        W94718  40.709  23.499  11.910
26325W        W94719   8.370  18.327   4.843
26326W        W94720   1.345  14.074   3.220
26327W        W94721  39.985   8.242   4.146
26328W        W94722  43.983  28.674   4.593
26329W        W94723  20.303  40.823  11.200
26330W        W94724   2.863  19.568   3.649
26331W        W94725  13.265  27.642  12.478
26332W        W94726  12.085  19.042  14.712
26333W        W94727  12.327  35.702   4.504
26334W        W94728   8.656  32.303   3.250
26335W        W94729   0.826  41.332   9.922
26336W        W94730  43.403  27.597   0.292
26337W        W94731  41.070  42.134   3.619
26338W        W94732  30.325  40.335   3.800
26339W        W94733  39.823   3.445   2.922
26340W        W94734   1.737  14.019  11.135
26341W        W94735  36.057  21.739   0.450
26342W        W94736  43.791  44.312  11.082
26343W        W94737  42.500   2.935  11.644
26344W        W94738  24.159  41.773   2.461
26345W        W94739   4.607  25.555   2.855
26346W        W94740  23.672   2.776   1.211
26347W        W94741  16.544  26.459  11.684
26348W        W94742  24.110  27.833  12.080
26349W        W94743  19.702  12.295   4.851
26350W        W94744  43.266  17.775   2.215
26351W        W94745  36.071  39.353   0.709
26352W        W94746  31.022  28.009   4.718
26353W        W94747  16.788  32.416  14.563
26354W        W94748  37.740  26.540   3.197
26355W        W94749  40.556   9.207  13.025
26356W        W94750  27.962  40.818  13.964
26357W        W94751  38.931  35.815   0.224
26358W        W94752  32.568  14.320  13.457
26359W        W94753  40.963  43.393   3.741
26360W        W94754  20.544  18.225   2.760
26361W        W94755  28.382  37.445   4.330
26362W        W94756   0.914  44.892  12.444
26363W        W94757  26.935   9.864   1.476
26364W        W94758  35.219   2.284   0.432
26365W        W94759  38.784   5.302  12.221
26366W        W94760  37.814  16.326   2.420
26367W        W94761  37.230  24.093   2.241
26368W        W94762  11.393  33.058  12.446
26369W        W94763  41.248  38.095  14.775
26370W        W94764   7.945  16.840  12.666
26371W        W94765  31.005   2.953  14.370
26372W        W94766  33.051  12.294  10.440
26373W        W94767  19.348  29.631  10.641
26374W        W94768  38.943  34.885  11.510
26375W        W94769   1.380   4.097  14.521
26376W        W94770   6.522  23.108  10.091
26377W        W94771  28.720   0.266  14.446
26378W        W94772  37.577  39.897  12.461
26379W        W94773  12.732  19.962   2.238
26380W        W94774  41.823  32.697  11.590
26381W        W94775   8.872  11.046   1.775
26382W        W94776  44.422  43.163  13.404
26383W        W94777   2.445  43.534   4.518
26384W        W94778  16.154  22.299   4.408
26385W        W94779  11.642  37.592   3.228
26386W        W94780  41.576  44.856   0.415
26387W        W94781   0.230  17.796   4.642
26388W        W94782  23.539   4.322   3.118
26389W        W94783   5.403  43.538   4.161
26390W        W94784  13.192  30.515   4.580
26391W        W94785   4.362  31.819  12.956
26392W        W94786  15.787  26.020  13.061
26393W        W94787  18.212   1.010   4.559
26394W        W94788   2.974  13.261   2.278
26395W        W94789  36.104   0.311  11.167
26396W        W94790  18.627  14.830   0.725
26397W        W94791  37.944  14.156  11.640
26398W        W94792   8.322  19.545  13.567
26399W        W94793  32.983  16.075   1.284
26400W        W94794  16.828  30.173  13.810
26401W        W94795  25.959  25.746   3.242
26402W        W94796  31.658   1.165   4.418
26403W        W94797  25.163  22.999   3.348
26404W        W94798  12.701  37.079  14.754
26405W        W94799  15.260  40.659  13.875
26406W        W94800   0.902   2.835  14.149
26407W        W94801  13.340   0.220  13.215
26408W        W94802   4.714   3.367   1.824
26409W        W94803   7.988  25.046   1.140
26410W        W94804  21.745  39.065   1.758
26411W        W94805  25.141  38.847   1.298
26412W        W94806  14.409  14.828  11.520
26413W        W94807  16.511  12.161  13.429
26414W        W94808   2.159  11.355  12.592
26415W        W94809  39.935  44.471   0.775
26416W        W94810  40.376  10.830  14.031
26417W        W94811  28.979  10.250  11.955
26418W        W94812  16.089  42.695  13.546
26419W        W94813  41.360   8.172  13.920
26420W        W94814   7.693  32.607  11.754
26421W        W94815  14.830  37.349  11.961
26422W        W94816  38.902   3.297  12.135
26423W        W94817   0.663  44.903   1.498
26424W        W94818  13.264   4.919   2.898
26425W        W94819  14.823   1.891   1.417
26426W        W94820   6.034  43.253  14.261
26427W        W94821   6.182  36.466  13.132
26428W        W94822  39.466   4.908  13.944
26429W        W94823   8.387  16.587  12.775
26430W        W94824  20.725  35.686  12.799
26431W        W94825  32.912  20.116  10.994
26432W        W94826   6.227  43.971   1.255
26433W        W94827  29.301  32.016  11.577
26434W        W94828   8.570  14.367  12.621
26435W        W94829  24.118  36.041  12.542
26436W        W94830  23.695  17.191   0.940
26437W        W94831  18.283  42.784  10.710
26438W        W94832   8.826   9.302   3.168
26439W        W94833  20.707  38.888  11.260
26440W        W94834  32.050  27.499  14.085
26441W        W94835   9.839  10.774  12.648
26442W        W94836   2.830  24.493  13.070
26443W        W94837  25.681  39.053  12.931
26444W        W94838  32.165  39.912   0.037
26445W        W94839   1.993  21.503   4.260
26446W        W94840  28.932   9.666   4.548
26447W        W94841  24.657  24.772   2.481
26448W        W94842  44.714   5.289   1.974
26449W        W94843  23.020  19.672   0.408
26450W        W94844   9.472   4.381   3.251
26451W        W94845  26.371  43.031   3.294
26452W        W94846  15.357  19.271   0.788
26453W        W94847  11.365  36.407   4.127
26454W        W94848  15.256  41.458   4.576
26455W        W94849  24.843  19.105   0.289
26456W        W94850  11.225   8.659   2.854
26457W        W94851  22.794  27.962  13.045
26458W        W94852   2.006  12.432  13.474
26459W        W94853  33.086   8.124   2.776
26460W        W94854   8.740   0.679   4.252
26461W        W94855  41.765  20.159   4.700
26462W        W94856  18.118  35.545   4.850
26463W        W94857   7.663   0.044  10.642
26464W        W94858  12.241  17.666   0.450
26465W        W94859  22.594  28.727  14.707
26466W        W94860   8.158  20.683   3.851
26467W        W94861  38.476  43.889   3.556
26468W        W94862  43.215  34.527  14.991
26469W        W94863  38.567   5.522   2.099
26470W        W94864  23.008  12.174   1.179
26471W        W94865  24.512  41.796   2.835
26472W        W94866  44.651  44.563  14.488
26473W        W94867  22.472  13.899  14.373
26474W        W94868  19.105  28.390   5.686
26475W        W94869   2.308  30.102  10.569
26476W        W94870  28.396  24.255  11.637
26477W        W94871  42.713  33.942   3.285
26478W        W94872   9.464  26.954   9.760
26479W        W94873  21.934  23.771   1.928
26480W        W94874  29.904  13.129   0.997
26481W        W94875  18.515  36.517   4.653
26482W        W94876  42.047  15.623   4.319
26483W        W94877   7.032  32.044   4.113
26484W        W94878  19.106   1.555   4.691
26485W        W94879  29.653   8.986   2.383
26486W        W94880  30.167  21.485  11.568
26487W        W94881  39.927  44.870  11.274
26488W        W94882  35.787  12.373   0.957
26489W        W94883  26.873  29.794  11.462
26490W        W94884  40.835  36.645   1.105
26491W        W94885   7.035  38.449   4.509
26492W        W94886  13.225  14.607   3.292
26493W        W94887  23.591  13.155  10.976
26494W        W94888   8.354  11.896   3.307
26495W        W94889  34.856  16.346   4.720
26496W        W94890   4.715  37.022   4.315
26497W        W94891  22.447  27.526   3.298
26498W        W94892  30.443  37.498  13.258
26499W        W94893  38.894   3.219   2.352
26500W        W94894  20.746  36.971  13.668
26501W        W94895  13.444  42.240  12.923
26502W        W94896   9.811  21.166   4.180
26503W        W94897  22.165   0.396   0.967
26504W        W94898   8.925  29.725   4.674
26505W        W94899  18.441  19.437  12.436
26506W        W94900   2.473  25.809  12.458
26507W        W94901  18.215  23.606   4.347
26508W        W94902  39.645   3.589  10.780
26509W        W94903  19.020  40.313  13.045
26510W        W94904  16.100  36.030  10.465
26511W        W94905  12.690  35.474   4.842
26512W        W94906  24.735  34.884  12.334
26513W        W94907  12.655   0.031  14.199
26514W        W94908  28.438  14.476  14.072
26515W        W94909  29.864  36.631  14.274
26516W        W94910  18.750  29.676   3.710
26517W        W94911  36.983  37.442   0.959
26518W        W94912  36.572  37.298  11.153
26519W        W94913   3.682  24.541   1.889
26520W        W94914   4.877   7.326  12.467
26521W        W94915  16.262  33.508   1.766
26522W        W94916  32.100   1.953  13.472
26523W        W94917  21.413  10.771   5.557
26524W        W94918  12.345  19.064   1.230
26525W        W94919  28.995  18.644  11.616
26526W        W94920  12.261  41.821  13.392
26527W        W94921  31.532  29.307   0.314
26528W        W94922  21.646  11.411   3.712
26529W        W94923  30.030   5.652   2.206
26530W        W94924  12.337  26.640   1.634
26531W        W94925   0.311  14.346   0.191
26532W        W94926  41.874  13.983   5.173
26533W        W94927  22.965   3.963  11.577
26534W        W94928  12.911  25.238  13.923
26535W        W94929  26.599  23.975  11.613
26536W        W94930  42.316  16.360  14.556
26537W        W94931  16.737  14.591   4.888
26538W        W94932  35.834   8.043  11.313
26539W        W94933  31.386  40.893  13.200
26540W        W94934  17.163   0.714   1.869
26541W        W94935  27.055  13.093   0.735
26542W        W94936  44.985  44.055   2.228
26543W        W94937   1.732  18.661   3.851
26544W        W94938   4.143  19.116   4.493
26545W        W94939  31.207  25.125   1.143
26546W        W94940  29.006   0.039   3.692
26547W        W94941  13.342  36.456   4.128
26548W        W94942  32.390  42.863   4.715
26549W        W94943  26.091  16.995  12.729
26550W        W94944   9.644   4.839  13.502
26551W        W94945   2.288   6.687   1.281
26552W        W94946   5.494  39.359  13.530
26553W        W94947  31.185  24.689  13.986
26554W        W94948  12.136  15.549   4.515
26555W        W94949  13.052  32.702  11.678
26556W        W94950  34.148  42.299  12.042
26557W        W94951  12.710  25.258  12.513
26558W        W94952  41.953  43.575  13.893
26559W        W94953   7.963  32.007  12.951
26560W        W94954  37.024  37.474   0.409
26561W        W94955  13.673  11.206  12.415
26562W        W94956  30.570  28.234   2.862
26563W        W94957  28.028  41.102  13.503
26564W        W94958  11.022  19.813   0.808
26565W        W94959  44.398  42.536  14.353
26566W        W94960  33.020   1.826  14.989
26567W        W94961  16.562   3.239   4.514
26568W        W94962  41.258  25.605  12.104
26569W        W94963   3.912   7.189   3.953
26570W        W94964  43.773  31.739  12.350
26571W        W94965  14.621  35.778   1.759
26572W        W94966  23.150   2.506   0.381
26573W        W94967  33.953  27.136  11.444
26574W        W94968  10.361  16.226   0.108
26575W        W94969  42.866  31.119   4.921
26576W        W94970  13.234  29.538   1.967
26577W        W94971   5.122  12.874   3.252
26578W        W94972  40.472  30.616   5.068
26579W        W94973  35.544   2.896  10.688
26580W        W94974  18.057  29.707  11.173
26581W        W94975  42.742  15.626   2.600
26582W        W94976   2.820  13.508   3.394
26583W        W94977  20.690   6.918   4.397
26584W        W94978   2.810  31.078   2.619
26585W        W94979   1.043  30.455   4.597
26586W        W94980  33.459  33.509   4.986
26587W        W94981  16.296  20.057  14.773
26588W        W94982  23.233   4.346  14.717
26589W        W94983  37.524  37.980   1.466
26590W        W94984   8.881  31.820   4.584
26591W        W94985   1.913  27.539   3.997
26592W        W94986  26.917  15.267  10.326
26593W        W94987  38.852   7.964   0.487
26594W        W94988  31.534   2.604   3.263
26595W        W94989   8.825  26.512   1.352
26596W        W94990  18.889  22.928   0.736
26597W        W94991  12.612   5.490  13.549
26598W        W94992  21.182   3.823   2.655
26599W        W94993   9.863  29.234   3.130
26600W        W94994  44.501   0.221   0.055
26601W        W94995  22.266  29.180  12.103
26602W        W94996  20.410  10.615  13.065
26603W        W94997   6.761   8.090   3.289
26604W        W94998  18.702   8.857   0.288
26605W        W94999  16.606  40.078  11.060
26606W        W95000  29.678  16.240   2.197
26607W        W95001  16.003   5.960  14.899
26608W        W95002  21.046  33.983  13.544
26609W        W95003  16.197  21.236  12.371
26610W        W95004  10.384  14.097   4.988
26611W        W95005   8.863  35.729  12.323
26612W        W95006  36.505  25.883   4.659
26613W        W95007   5.358  13.080   4.093
26614W        W95008  25.787   2.187  12.583
26615W        W95009  34.177   7.833   4.175
26616W        W95010  32.407  26.248  12.024
26617W        W95011   8.281  30.767   0.861
26618W        W95012   3.719  43.835   3.491
26619W        W95013  15.122  33.933   4.367
26620W        W95014  11.763  36.269   2.708
26621W        W95015   4.411  24.629  11.512
26622W        W95016  40.790  19.528  11.630
26623W        W95017  44.348  36.960   1.124
26624W        W95018  17.172  41.418  10.149
26625W        W95019   0.453  22.780  13.449
26626W        W95020   4.289  16.807  14.444
26627W        W95021  13.650   2.289   4.052
26628W        W95022  15.137  22.754  10.685
26629W        W95023   4.932   1.230  12.881
26630W        W95024  36.686  34.617  12.432
26631W        W95025  17.218  37.092  14.924
26632W        W95026  29.117  32.743   4.959
26633W        W95027  20.655   6.831   2.791
26634W        W95028  24.043  34.622   4.082
26635W        W95029  26.257   7.352   0.083
26636W        W95030  24.806  15.879   2.306
26637W        W95031  36.917  43.010   1.247
26638W        W95032  28.952   2.344  10.670
26639W        W95033  25.648  23.695  12.085
26640W        W95034  23.571  24.740  11.115
26641W        W95035  21.727   9.444   3.999
26642W        W95036  11.286  21.638  11.408
26643W        W95037  26.683  44.236  12.966
26644W        W95038  15.018  11.800  13.447
26645W        W95039  35.082   0.862  14.547
26646W        W95040   2.926   5.148   0.812
26647W        W95041  39.382  42.761  12.527
26648W        W95042  29.459  30.708  12.938
26649W        W95043  35.235  37.258   4.493
26650W        W95044  24.978  13.418   1.421
26651W        W95045  40.254  22.651   1.188
26652W        W95046   7.003  44.983   4.809
26653W        W95047  36.155  10.195  12.966
26654W        W95048  25.885  15.642   4.515
26655W        W95049  28.748  43.016   4.935
26656W        W95050  39.582  16.474  11.522
26657W        W95051  12.055  17.096  10.546
26658W        W95052   2.978  12.198   4.544
26659W        W95053  39.787   3.460  14.539
26660W        W95054  37.596   0.858  10.822
26661W        W95055  10.718  40.914  14.132
26662W        W95056  44.363   8.853  11.340
26663W        W95057  26.040  32.385  10.814
26664W        W95058  21.658  37.135   2.072
26665W        W95059  38.809  20.760  13.024
26666W        W95060  22.247   5.903  12.447
26667W        W95061  26.127   2.038   3.724
26668W        W95062  12.786  24.750  14.663
26669W        W95063  17.276  41.507  11.108
26670W        W95064  15.731  39.602  14.894
26671W        W95065   1.433  15.700   5.336
26672W        W95066  18.963  18.229   0.654
26673W        W95067   5.196   5.711   0.827
26674W        W95068  15.683  35.717  10.316
26675W        W95069   2.239  17.679  12.476
26676W        W95070  43.781  42.116  13.533
26677W        W95071  44.230  38.880   2.072
26678W        W95072  19.611   1.034  14.069
26679W        W95073  40.771   2.735   1.705
26680W        W95074   6.697   2.761  12.880
26681W        W95075  15.892  10.905   0.718
26682W        W95076  29.941  43.906   3.480
26683W        W95077  40.753  33.155  13.336
26684W        W95078  11.133   5.686  14.464
26685W        W95079  11.046   2.634  14.379
26686W        W95080  27.496  27.585  13.419
26687W        W95081  14.310  24.998   0.860
26688W        W95082   1.110  44.384  14.675
26689W        W95083  28.073  27.947   1.742
26690W        W95084  26.023   8.383   0.795
26691W        W95085  16.967  21.095   1.880
26692W        W95086  36.479  25.435   3.169
26693W        W95087  10.375  27.400   2.829
26694W        W95088  34.261  30.940   2.838
26695W        W95089  13.229  19.999  14.040
26696W        W95090  35.089  14.442   1.726
26697W        W95091  13.690  36.581   4.588
26698W        W95092   0.895  37.580   4.118
26699W        W95093  36.610  35.072   3.760
26700W        W95094  32.940  27.658   0.434
26701W        W95095  18.766  39.810  11.947
26702W        W95096  16.841  42.286   1.678
26703W        W95097   9.298   5.804  14.294
26704W        W95098   4.467  21.021   0.363
26705W        W95099   9.748   0.067   0.947
26706W        W95100  24.466   8.848   0.794
26707W        W95101  40.055  29.591  13.312
26708W        W95102  35.934  37.913  11.553
26709W        W95103   5.650  27.976  10.741
26710W        W95104  17.020  28.535   4.534
26711W        W95105   5.389   9.893   1.454
26712W        W95106  22.666  34.961   4.597
26713W        W95107  23.341  11.810   3.896
26714W        W95108  43.094  33.385  11.871
26715W        W95109  24.970   9.932   1.262
26716W        W95110  10.303  28.565  13.436
26717W        W95111  21.851   5.244  11.444
26718W        W95112  32.231  29.870   3.168
26719W        W95113  36.535  36.225   0.928
26720W        W95114   1.018  15.248  13.114
26721W        W95115  35.081   9.443   1.580
26722W        W95116  26.446  20.630   1.157
26723W        W95117  34.765  33.327  13.189
26724W        W95118  31.907  24.791   1.815
26725W        W95119  15.179   3.122   0.314
26726W        W95120   3.118   6.698   0.661
26727W        W95121  33.994  26.572   3.271
26728W        W95122  41.394  31.206   4.664
26729W        W95123   1.310  20.647  13.606
26730W        W95124  14.244  37.581  10.257
26731W        W95125   9.939   5.732  11.528
26732W        W95126  20.377  37.185  11.583
26733W        W95127  44.601  27.367   1.266
26734W        W95128  30.131   6.289  13.779
26735W        W95129  17.039  25.520  13.854
26736W        W95130   4.247   2.810   0.189
26737W        W95131   3.987  20.136  13.483
26738W        W95132  17.197  10.847  10.652
26739W        W95133  22.484  26.510  12.492
26740W        W95134   7.709  34.915   2.841
26741W        W95135  18.606  10.895   0.281
26742W        W95136  29.000   9.534  14.023
26743W        W95137  25.745  23.755   2.823
26744W        W95138  40.514  30.884  12.579
26745W        W95139  38.484  35.928   3.287
26746W        W95140   7.766   4.539  11.153
26747W        W95141   7.716   8.265  14.123
26748W        W95142  17.996   1.827   3.378
26749W        W95143  29.408  29.010   1.785
26750W        W95144  31.911  30.181  10.963
26751W        W95145  16.335  10.681  12.061
26752W        W95146  31.493   1.879  10.779
26753W        W95147   9.710   5.295  12.516
26754W        W95148  30.910  13.640   0.470
26755W        W95149  35.904  38.771  10.470
26756W        W95150  27.016  34.143  13.143
26757W        W95151  34.600  19.289   3.733
26758W        W95152  17.082  21.561   3.157
26759W        W95153  35.781  14.840   3.361
26760W        W95154   0.787  10.677   4.571
26761W        W95155  39.452   6.751  12.392
26762W        W95156  30.140  25.152   2.446
26763W        W95157   9.145  40.785   3.540
26764W        W95158  24.687  12.230   4.281
26765W        W95159   6.830  30.350  11.678
26766W        W95160  17.665  19.801   5.003
26767W        W95161  37.995  10.854   2.159
26768W        W95162  41.746  12.119  13.012
26769W        W95163   0.719  15.691   1.651
26770W        W95164   3.786  28.081  12.604
26771W        W95165  10.661  34.447  13.546
26772W        W95166  32.861  39.652  14.969
26773W        W95167  30.634  18.309  13.108
26774W        W95168  12.766  31.876   0.258
26775W        W95169  12.702   9.665   4.948
26776W        W95170  41.314   4.997   1.640
26777W        W95171  10.718  44.864   4.714
26778W        W95172  42.752  19.804   1.227
26779W        W95173  43.426  26.320  12.123
26780W        W95174   9.375  28.261   4.213
26781W        W95175  18.899  11.595   0.769
26782W        W95176  23.277  19.165   1.253
26783W        W95177   3.837  41.940  13.923
26784W        W95178  42.977  36.948   3.164
26785W        W95179  37.348  18.844  11.201
26786W        W95180   4.222  32.101   3.275
26787W        W95181  36.510  36.883   4.514
26788W        W95182  35.479   3.696   0.297
26789W        W95183   8.967  32.453  13.901
26790W        W95184  15.736   3.654  11.599
26791W        W95185  27.681  16.124  12.718
26792W        W95186  38.836  20.258   1.130
26793W        W95187  42.306  29.626  13.813
26794W        W95188  34.094  13.260  14.356
26795W        W95189  39.811  10.171   1.269
26796W        W95190   1.021  44.389  11.669
26797W        W95191  35.967  25.758   4.632
26798W        W95192   1.593  20.418   5.002
26799W        W95193  29.453  17.986  14.027
26800W        W95194  42.777  43.476  13.800
26801W        W95195  41.235  43.799  10.944
26802W        W95196   4.961  34.359  11.227
26803W        W95197  30.818   7.565  11.214
26804W        W95198   3.248   3.121  13.861
26805W        W95199  20.233  41.666  10.667
26806W        W95200   9.364  32.911   2.345
26807W        W95201  17.394   8.739  11.292
26808W        W95202   7.158   1.034  14.337
26809W        W95203  19.249  20.714   1.387
26810W        W95204  42.442  23.063  12.184
26811W        W95205  16.547  37.764  11.165
26812W        W95206   8.580  25.586   4.869
26813W        W95207   3.403   2.566  11.632
26814W        W95208  14.999  37.179  11.509
26815W        W95209  19.108  22.686  11.449
26816W        W95210  33.854  25.587   2.915
26817W        W95211  35.323  13.908  11.701
26818W        W95212  36.960  43.532   1.271
26819W        W95213   4.741  30.976   1.772
26820W        W95214  36.050  31.127   1.915
26821W        W95215   2.201  21.543  14.355
26822W        W95216  37.810  41.883   2.361
26823W        W95217   9.304  10.673  10.511
26824W        W95218  18.784  37.116  13.995
26825W        W95219  44.789   2.434  12.468
26826W        W95220  43.532  15.928   2.285
26827W        W95221  18.199  28.936   2.240
26828W        W95222  19.200  23.953   2.360
26829W        W95223   5.219  40.284   0.310
26830W        W95224  25.718   8.661  14.287
26831W        W95225  42.366  29.164   2.498
26832W        W95226  31.646  26.806  10.445
26833W        W95227  30.724   2.126  13.464
26834W        W95228  20.798  42.725  11.961
26835W        W95229  17.535   2.771   4.057
26836W        W95230  28.004   0.566   5.096
26837W        W95231  23.534  29.996  11.140
26838W        W95232  39.274   5.164  11.530
26839W        W95233  23.086  44.549   0.786
26840W        W95234   2.485  10.451   4.669
26841W        W95235  43.216  33.141   4.483
26842W        W95236   3.803  35.785   2.930
26843W        W95237   1.268   9.829  10.642
26844W        W95238  23.049  11.017   3.244
26845W        W95239  18.753  31.930   1.519
26846W        W95240  16.535   8.915  12.018
26847W        W95241   4.857  39.081  13.853
26848W        W95242  39.124  42.883  10.748
26849W        W95243  25.572  43.757   1.121
26850W        W95244   7.080  21.312  11.276
26851W        W95245  24.072  18.846   2.230
26852W        W95246  20.792   1.272   2.819
26853W        W95247  27.576  43.573   3.722
26854W        W95248  27.377  17.584   4.610
26855W        W95249  35.529  11.626  11.002
26856W        W95250   0.778  40.466   0.991
26857W        W95251  25.850   2.185   2.680
26858W        W95252   1.488   0.449  14.327
26859W        W95253  28.866  21.798  13.573
26860W        W95254  42.853  29.534  11.505
26861W        W95255  30.207   5.147   2.954
26862W        W95256  33.702  30.446   5.151
26863W        W95257  24.749   7.624   2.557
26864W        W95258  31.075   4.435  14.820
26865W        W95259  44.391   9.193   4.590
26866W        W95260  42.574  22.440  13.478
26867W        W95261  41.448   9.377   4.160
26868W        W95262  28.882   4.876  13.162
26869W        W95263   5.687  25.512  13.010
26870W        W95264  35.808  23.198   3.757
26871W        W95265  37.099  15.557  11.461
26872W        W95266  39.343  36.706  12.555
26873W        W95267  34.432  41.348   3.847
26874W        W95268   2.252  31.004  14.330
26875W        W95269  12.699  30.744   4.536
26876W        W95270  10.095   2.036  10.645
26877W        W95271  33.341  36.366  14.491
26878W        W95272  20.838  18.120   3.157
26879W        W95273  11.193  44.207  12.237
26880W        W95274  19.762  43.812   4.124
26881W        W95275   1.438   8.362  12.523
26882W        W95276   9.179  26.125  10.084
26883W        W95277  42.949  27.300   3.296
26884W        W95278  33.239  37.526   1.204
26885W        W95279   7.002   8.904   0.851
26886W        W95280  43.346   1.989  11.935
26887W        W95281  35.019   8.473   1.349
26888W        W95282  33.946  44.205   2.699
26889W        W95283   4.512  43.888  11.240
26890W        W95284   0.882  30.443   1.513
26891W        W95285  35.632  40.924  12.024
26892W        W95286  44.483  15.804   3.202
26893W        W95287  32.188  15.844   1.196
26894W        W95288  40.799   3.313  14.341
26895W        W95289  24.530   7.898  12.999
26896W        W95290   7.837   6.933   3.145
26897W        W95291  15.768   6.408  14.829
26898W        W95292  34.048  23.563  13.055
26899W        W95293  34.432  19.485   0.259
26900W        W95294  10.215  21.189   1.631
26901W        W95295  29.742  37.441  13.789
26902W        W95296  40.483  20.421  11.744
26903W        W95297  28.065  29.560  11.180
26904W        W95298  39.771  42.287  12.005
26905W        W95299  23.239  33.344  14.376
26906W        W95300  14.715  38.721  11.206
26907W        W95301  26.185  37.959  14.391
26908W        W95302  15.674  31.458   3.979
26909W        W95303  11.826  34.980  12.526
26910W        W95304  18.510  25.983  12.544
26911W        W95305   5.249  44.556   3.383
26912W        W95306  23.555  28.526  13.475
26913W        W95307  34.358  36.099   0.989
26914W        W95308  15.553  36.411  11.930
26915W        W95309   2.351  19.563   4.212
26916W        W95310  40.090  11.934  12.002
26917W        W95311  27.638  42.163  13.475
26918W        W95312   6.702  23.779  11.571
26919W        W95313   5.882  10.419   3.093
26920W        W95314  14.555  20.309  13.924
26921W        W95315  20.162  22.051  14.436
26922W        W95316  27.973  12.628   1.642
26923W        W95317  12.182  18.472   3.826
26924W        W95318  43.094  13.736   1.348
26925W        W95319  37.123  22.150  11.542
26926W        W95320  19.702   4.185   1.220
26927W        W95321   4.826  33.887   4.624
26928W        W95322   1.844  37.664  14.297
26929W        W95323   0.966  23.333   1.445
26930W        W95324  14.930   1.468  13.471
26931W        W95325  34.100  17.366   4.431
26932W        W95326  14.577   3.182   4.286
26933W        W95327  34.671   7.196   0.348
26934W        W95328  12.276  38.039   0.511
26935W        W95329   3.972  12.873  14.732
26936W        W95330  22.204  39.417   3.398
26937W        W95331  38.027   8.425   2.656
26938W        W95332   0.436  32.611  12.595
26939W        W95333  10.348  44.334  13.553
26940W        W95334  29.146   1.475  13.185
26941W        W95335  10.910  17.811   1.419
26942W        W95336   0.214  24.289   0.494
26943W        W95337  31.506  39.951   2.707
26944W        W95338  12.080  17.705  14.554
26945W        W95339  34.527  32.941   4.626
26946W        W95340  17.278  12.581  14.733
26947W        W95341   1.852   8.107  13.382
26948W        W95342  25.198  22.712  12.876
26949W        W95343  43.793  28.551   4.115
26950W        W95344  12.454   2.778  11.313
26951W        W95345  18.443  20.743   0.210
26952W        W95346  18.556  20.351   2.717
26953W        W95347   5.100  10.640   4.063
26954W        W95348   8.191  14.367  13.906
26955W        W95349  35.187   3.912   4.472
26956W        W95350   5.212   0.452  11.597
26957W        W95351  18.578  15.442  10.277
26958W        W95352  27.031  39.095   3.654
26959W        W95353  18.677  33.663   1.313
26960W        W95354   6.194  33.496   3.701
26961W        W95355  35.027   8.516  14.049
26962W        W95356  22.986  43.988  11.187
26963W        W95357  40.865  19.809   3.907
26964W        W95358  27.073  16.187  12.874
26965W        W95359  16.090  36.800   1.732
26966W        W95360  41.999  31.877   5.080
26967W        W95361  38.447  35.340  14.283
26968W        W95362  22.413   4.933  13.875
26969W        W95363  11.800  13.836  13.796
26970W        W95364  32.994  22.256  14.845
26971W        W95365  24.393  42.008  10.809
26972W        W95366   7.326  36.009   3.658
26973W        W95367  19.284   3.365  12.959
26974W        W95368  42.100  38.890  11.577
26975W        W95369   8.192   7.800  11.698
26976W        W95370  39.169   0.948   3.664
26977W        W95371   7.463   8.824  13.280
26978W        W95372  41.407  35.496  11.811
26979W        W95373   1.299  20.192  12.480
26980W        W95374  25.943  32.313   1.981
26981W        W95375  22.809  27.384  12.317
26982W        W95376  28.393  10.299  11.484
26983W        W95377   3.388  14.317   3.124
26984W        W95378  41.397   0.799   1.670
26985W        W95379  30.326  29.664   4.348
26986W        W95380   3.362  12.770   3.212
26987W        W95381   3.398  22.155  10.684
26988W        W95382  22.130  36.268  11.611
26989W        W95383   5.021  29.717   4.980
26990W        W95384  30.156  41.012   4.039
26991W        W95385  37.380  29.687  12.742
26992W        W95386  22.677  14.605   3.590
26993W        W95387  37.088   4.778   4.185
26994W        W95388  22.247  19.986  14.854
26995W        W95389  39.009  30.060  11.770
26996W        W95390   0.168  24.025  13.964
26997W        W95391   6.951   9.675   2.429
26998W        W95392  12.807  33.863  10.725
26999W        W95393  43.474  27.033   2.416
27000W        W95394  39.132  41.091   2.304
27001W        W95395  17.479  12.180   1.442
27002W        W95396  23.254  27.453   1.840
27003W        W95397  29.603  16.972  11.043
27004W        W95398   7.984  23.227   1.545
27005W        W95399  36.149  14.315  12.546
27006W        W95400   0.659  25.241  12.039
27007W        W95401  26.003  12.071  13.308
27008W        W95402   8.669  24.315   1.449
27009W        W95403  40.487  24.755   3.629
27010W        W95404  19.748  20.929   2.805
27011W        W95405  21.284  24.969  14.207
27012W        W95406  23.618  25.037  12.513
27013W        W95407  43.165   8.832   5.032
27014W        W95408  24.468  32.959   3.752
27015W        W95409  38.774  31.319   1.392
27016W        W95410  37.117  25.591   1.462
27017W        W95411  18.303   3.849   3.709
27018W        W95412   5.276  32.284   0.642
27019W        W95413  22.963  22.019  11.679
27020W        W95414  25.318  14.213  10.742
27021W        W95415  13.685  13.805  11.182
27022W        W95416  29.611  37.892  12.498
27023W        W95417  10.362  19.047  10.730
27024W        W95418  31.484  42.689  11.619
27025W        W95419   0.475  15.053   4.120
27026W        W95420  21.848  25.801  10.002
27027W        W95421   1.692  37.591  11.101
27028W        W95422   8.921  24.905   0.202
27029W        W95423  28.144  16.095  14.357
27030W        W95424  36.384  22.714  10.259
27031W        W95425  23.548  27.506   0.054
27032W        W95426   9.471  43.778   2.298
27033W        W95427  18.752   7.757   1.382
27034W        W95428  18.454  12.312  13.465
27035W        W95429  11.171  34.496   2.762
27036W        W95430  43.810  41.828  11.419
27037W        W95431  35.446  39.847  13.787
27038W        W95432  12.885  37.511  10.000
27039W        W95433   7.787   8.881   3.230
27040W        W95434  14.558   9.429  10.474
27041W        W95435  35.990  15.301   1.199
27042W        W95436   5.854  21.546   4.956
27043W        W95437  26.929  26.650   3.198
27044W        W95438  15.966  12.655  14.130
27045W        W95439   2.783  39.947   4.759
27046W        W95440  22.883  38.937   3.062
27047W        W95441  35.707  16.053  11.562
27048W        W95442  43.200  24.840   4.925
27049W        W95443  21.051  36.537  14.825
27050W        W95444  30.825  38.902   3.359
27051W        W95445  24.730  32.339   1.465
27052W        W95446  11.206   2.809   1.164
27053W        W95447  13.367  13.064  11.513
27054W        W95448  36.354  41.336  13.942
27055W        W95449   0.966   9.098   1.815
27056W        W95450  31.077  39.329   3.306
27057W        W95451  26.515  15.674   1.811
27058W        W95452  18.702  41.414   3.789
27059W        W95453  44.995   1.904  13.133
27060W        W95454  38.609  44.413  13.815
27061W        W95455  27.009   6.078  14.367
27062W        W95456   3.283  42.428   1.116
27063W        W95457   4.976  26.768  13.541
27064W        W95458  40.656  44.074  13.808
27065W        W95459  38.848  26.633   0.882
27066W        W95460  16.544  39.076  14.315
27067W        W95461  20.070  30.808   1.416
27068W        W95462  12.606   0.009  14.774
27069W        W95463   5.233   4.844  12.564
27070W        W95464  43.231  22.210   0.745
27071W        W95465  29.205  19.026  11.340
27072W        W95466  33.986  11.658  11.746
27073W        W95467   6.892  33.100  11.600
27074W        W95468  16.142   1.160   2.351
27075W        W95469  26.242  36.395   2.830
27076W        W95470  20.267   8.858   5.343
27077W        W95471  15.177  39.418   0.625
27078W        W95472  28.978   5.147   1.323
27079W        W95473  14.622   1.189   0.331
27080W        W95474  39.507  14.494   3.233
27081W        W95475  40.475  37.172  14.712
27082W        W95476  29.588  18.080   4.145
27083W        W95477  12.812  35.583  12.635
27084W        W95478  40.942  18.561  10.575
27085W        W95479   6.578   1.423   5.049
27086W        W95480  19.219  39.089  10.598
27087W        W95481  40.260  43.213   4.458
27088W        W95482  17.744  29.002  13.798
27089W        W95483   7.651  11.149   2.384
27090W        W95484  33.181  24.513  10.624
27091W        W95485  43.429   8.620  13.255
27092W        W95486  37.579  21.893   4.086
27093W        W95487  23.111   6.145   3.125
27094W        W95488   3.939   6.876   0.221
27095W        W95489  13.468  43.030   0.878
27096W        W95490  44.877  41.992   1.840
27097W        W95491  12.060  29.972  12.542
27098W        W95492   1.704  27.155   4.705
27099W        W95493  22.798  43.775   0.980
27100W        W95494  24.122  22.169  12.984
27101W        W95495  26.008   5.124  12.680
27102W        W95496  41.901   5.692   3.740
27103W        W95497  13.579  20.082   2.104
27104W        W95498  36.040  17.598   0.145
27105W        W95499  32.106  22.984   1.417
27106W        W95500   2.634   0.384  12.430
27107W        W95501   4.168  28.394   1.295
27108W        W95502  28.611  30.361  14.542
27109W        W95503   5.044  25.899  12.468
27110W        W95504  44.051  26.163   4.158
27111W        W95505  26.984  39.562  14.715
27112W        W95506  18.195  23.191   4.657
27113W        W95507   6.641  16.648  11.655
27114W        W95508   5.812  25.560  12.365
27115W        W95509  34.995  10.573   2.760
27116W        W95510   6.443  20.584  10.638
27117W        W95511   3.164  42.739   2.407
27118W        W95512   7.743  22.193  13.376
27119W        W95513  17.058  19.099   2.177
27120W        W95514  12.235  43.351   3.864
27121W        W95515  10.334   9.363   5.048
27122W        W95516   6.871  26.581   4.098
27123W        W95517  26.572  30.067  12.749
27124W        W95518   2.224   9.831  10.705
27125W        W95519  31.476   3.564  12.705
27126W        W95520  21.263  23.008   3.458
27127W        W95521  12.803  38.544   2.769
27128W        W95522  43.863   4.414   2.634
27129W        W95523  19.322  33.264  12.389
27130W        W95524  14.307  44.843  12.941
27131W        W95525  16.587  44.392  14.256
27132W        W95526   7.085  32.687   4.420
27133W        W95527   6.311  37.116  13.724
27134W        W95528  17.446  44.294   4.190
27135W        W95529  44.736  18.558   3.636
27136W        W95530  10.648  12.195   3.219
27137W        W95531   3.742  11.765   4.698
27138W        W95532  17.548  40.025  13.374
27139W        W95533   7.156  10.556  11.201
27140W        W95534  41.903   3.809  13.557
27141W        W95535  39.560   7.725  13.940
27142W        W95536  36.884  36.452   1.245
27143W        W95537  19.383   0.568   1.798
27144W        W95538  23.446  14.352   4.105
27145W        W95539  24.057  43.804  14.390
27146W        W95540   9.254  10.256  14.001
27147W        W95541  31.877  13.538   1.192
27148W        W95542  28.900  24.223  12.888
27149W        W95543  40.978  17.582  12.510
27150W        W95544  15.135  18.021   2.679
27151W        W95545  39.799  26.770   4.245
27152W        W95546  29.307   7.554  12.493
27153W        W95547  16.003   9.803   3.352
27154W        W95548  18.809  21.397  12.107
27155W        W95549  44.417  16.019   4.911
27156W        W95550  22.312   7.607   1.507
27157W        W95551   5.773  23.192  14.864
27158W        W95552  25.993  36.488   1.418
27159W        W95553  11.814  19.204   4.568
27160W        W95554  10.306  36.011   3.193
27161W        W95555  21.034  25.545   1.319
27162W        W95556  32.959  36.759  12.523
27163W        W95557  19.292  19.934  12.601
27164W        W95558  30.614   4.842   3.071
27165W        W95559   2.279   9.090  12.533
27166W        W95560   8.459  39.383  11.735
27167W        W95561  44.034   2.830   1.743
27168W        W95562  27.117  18.769  13.508
27169W        W95563  16.190  20.953  11.076
27170W        W95564  32.091   0.921  12.856
27171W        W95565   7.646  24.668   0.278
27172W        W95566  25.671  21.904   0.854
27173W        W95567  21.821  18.280   4.258
27174W        W95568   7.982  42.511  10.437
27175W        W95569   7.081  13.407   0.387
27176W        W95570   5.173  44.737   1.985
27177W        W95571   1.218  12.630   4.266
27178W        W95572  17.562  15.599  11.530
27179W        W95573  39.636  12.116   3.804
27180W        W95574  13.047  44.998  11.889
27181W        W95575  34.582  21.617  14.487
27182W        W95576  32.058  11.063  12.097
27183W        W95577  23.807  43.387  11.162
27184W        W95578   5.912   0.456   0.047
27185W        W95579  36.359  16.296   1.875
27186W        W95580  17.135  42.045  13.021
27187W        W95581  17.898  32.311  13.086
27188W        W95582  23.845  15.768   4.416
27189W        W95583   4.298  17.592  13.919
27190W        W95584  42.533  39.436   5.388
27191W        W95585  17.597  21.301   4.555
27192W        W95586  17.604  14.573  12.320
27193W        W95587  26.017   6.483  10.654
27194W        W95588  17.120  25.256  12.111
27195W        W95589  30.157  20.291   4.323
27196W        W95590  41.615  37.961   2.616
27197W        W95591  17.726  36.049  11.395
27198W        W95592  34.310  34.728   1.276
27199W        W95593  37.003  28.982   1.469
27200W        W95594  19.071  34.869  11.590
27201W        W95595   6.219  26.280  14.840
27202W        W95596   9.201  21.333   0.742
27203W        W95597  44.255  37.485   0.394
27204W        W95598   2.303  37.521   4.598
27205W        W95599  25.521  13.908  12.097
27206W        W95600  27.691  12.447   1.196
27207W        W95601  44.679  14.018  10.983
27208W        W95602  28.639   8.679   2.957
27209W        W95603   5.338   8.128   0.993
27210W        W95604  32.225  24.719   0.396
27211W        W95605  27.494  41.477  10.391
27212W        W95606  25.165  15.709  13.420
27213W        W95607  33.581   4.323   0.224
27214W        W95608  31.040  35.087  10.746
27215W        W95609   0.560  13.570  11.663
27216W        W95610   4.865   5.335   2.541
27217W        W95611   5.101  11.966   4.581
27218W        W95612  33.670  18.678  11.040
27219W        W95613  34.883  37.914   3.850
27220W        W95614  33.109   6.139   3.383
27221W        W95615   5.247  19.035  13.416
27222W        W95616  15.839  19.275   5.017
27223W        W95617  26.331  19.476  11.706
27224W        W95618   9.183  25.977  14.954
27225W        W95619  34.666  22.297   1.353
27226W        W95620  14.310   5.920   0.938
27227W        W95621  30.325  44.456  10.727
27228W        W95622  27.513  35.164   0.304
27229W        W95623  44.104  39.457  10.994
27230W        W95624  32.739   2.595  14.414
27231W        W95625  36.857   0.969  14.864
27232W        W95626  21.301  11.646  13.419
27233W        W95627  21.401   2.110   0.878
27234W        W95628  14.399   6.997   0.397
27235W        W95629  33.797   4.883   1.161
27236W        W95630  32.030  17.235  14.497
27237W        W95631  27.508  14.693  11.051
27238W        W95632  30.477   9.876   3.725
27239W        W95633  13.045  17.382  10.294
27240W        W95634  22.610  24.868   4.490
27241W        W95635   2.906  25.706  14.627
27242W        W95636  23.739  31.582   5.089
27243W        W95637  16.048  17.365  11.538
27244W        W95638  37.156  37.979   0.158
27245W        W95639  23.388   6.703  14.755
27246W        W95640  27.638  17.805  14.367
27247W        W95641  22.291  29.278   1.035
27248W        W95642  13.064  33.542  10.362
27249W        W95643  10.078   7.400   3.705
27250W        W95644  40.916  25.485  12.500
27251W        W95645  39.914  27.253   2.809
27252W        W95646  12.662  35.963   3.562
27253W        W95647  24.308  43.950   5.205
27254W        W95648   5.977  26.276   4.982
27255W        W95649   9.721  25.296   2.619
27256W        W95650  30.524  30.131   0.466
27257W        W95651  28.565  12.873   3.218
27258W        W95652  43.839   1.165   0.812
27259W        W95653   8.702  23.840   0.012
27260W        W95654  29.496  35.948   0.575
27261W        W95655  30.420  14.036  12.528
27262W        W95656  36.820  19.682  12.503
27263W        W95657  32.072  24.805   0.893
27264W        W95658  23.260  27.676  11.379
27265W        W95659  32.964  35.760   1.474
27266W        W95660  25.773  38.851   0.370
27267W        W95661   3.049  26.285  13.075
27268W        W95662  20.009  37.088  14.463
27269W        W95663  31.827   2.787  11.962
27270W        W95664  34.995  31.583   1.932
27271W        W95665  17.936  35.108  14.813
27272W        W95666  38.514   4.370   1.565
27273W        W95667   1.220  16.010   2.190
27274W        W95668  18.083  22.272   4.456
27275W        W95669  42.413  33.233  14.516
27276W        W95670  25.470  37.479   3.165
27277W        W95671  13.178  37.122   0.502
27278W        W95672  30.349   9.389  11.587
27279W        W95673  30.639  18.646   1.328
27280W        W95674   1.821  43.380  12.588
27281W        W95675  21.739  29.222   0.947
27282W        W95676  10.566  35.065  11.345
27283W        W95677  26.192  42.061   3.665
27284W        W95678  15.293  16.319   1.687
27285W        W95679  25.431  11.654   0.488
27286W        W95680   6.360  27.731   1.033
27287W        W95681   5.697  12.039  10.661
27288W        W95682  27.100  12.806   3.047
27289W        W95683  28.105  16.097  13.473
27290W        W95684  35.188  35.427  12.901
27291W        W95685   1.436   2.921   0.767
27292W        W95686  16.816  15.040  11.103
27293W        W95687   9.718  23.178   0.800
27294W        W95688  18.613  33.460   0.799
27295W        W95689  16.548  18.588   5.089
27296W        W95690  16.132   7.868   4.524
27297W        W95691  38.558  28.522   3.897
27298W        W95692  32.412  25.573   2.815
27299W        W95693  18.928  21.849  12.609
27300W        W95694  41.065  30.007  12.567
27301W        W95695  32.322  15.919   2.205
27302W        W95696   7.428  43.820   3.750
27303W        W95697  21.495   2.576  12.769
27304W        W95698  38.935  18.187   2.230
27305W        W95699  33.101  14.800  11.633
27306W        W95700  17.319  10.152  11.961
27307W        W95701  37.573   7.273  11.951
27308W        W95702  35.855   8.651  13.775
27309W        W95703  30.936   7.358  14.443
27310W        W95704  31.547  35.106  13.543
27311W        W95705  38.948  38.232  13.485
27312W        W95706  44.123  27.223   0.409
27313W        W95707  19.225  38.763   1.890
27314W        W95708  20.580  22.176  12.289
27315W        W95709  13.643  27.533   4.451
27316W        W95710  31.981  37.508  12.045
27317W        W95711  18.142  10.903  13.587
27318W        W95712  15.657  39.493   4.071
27319W        W95713  29.416  37.069   1.424
27320W        W95714  34.944  22.203   0.895
27321W        W95715  38.477   7.924  13.052
27322W        W95716  36.332  38.873   3.614
27323W        W95717   1.005  25.746  14.525
27324W        W95718   1.816  24.587  12.885
27325W        W95719  34.261  40.234   2.738
27326W        W95720   3.336  18.497  12.984
27327W        W95721  16.930  42.900  11.562
27328W        W95722  31.405  16.424  11.565
27329W        W95723   9.204  44.976  13.076
27330W        W95724  23.985  37.930  14.840
27331W        W95725  13.795  33.184   2.359
27332W        W95726  18.244  13.914   4.605
27333W        W95727  29.199  23.447  10.389
27334W        W95728  31.399  43.241   0.009
27335W        W95729  12.951  37.791   2.290
27336W        W95730   5.191  38.970  12.646
27337W        W95731   1.022   8.391   4.765
27338W        W95732  39.365  42.546  13.831
27339W        W95733  17.108  12.348   1.083
27340W        W95734  21.288  29.430  14.008
27341W        W95735  13.034  12.245   3.235
27342W        W95736  20.725  16.737  13.913
27343W        W95737   7.679  30.495  13.317
27344W        W95738   1.343  28.242   2.169
27345W        W95739   0.837   3.901   1.321
27346W        W95740  14.407  33.375   4.485
27347W        W95741  12.323  39.435   1.802
27348W        W95742   9.894  24.072   5.147
27349W        W95743  25.646  17.520   1.174
27350W        W95744  23.921  10.424  13.910
27351W        W95745  13.286   7.640   2.734
27352W        W95746  24.812  36.832   2.835
27353W        W95747   6.903  32.108  12.550
27354W        W95748  24.693  13.313   5.139
27355W        W95749  14.162  36.355   3.219
27356W        W95750  13.879  37.291  13.533
27357W        W95751  28.505  26.651   0.066
27358W        W95752  33.409  35.884   1.166
27359W        W95753  15.840  25.990  11.794
27360W        W95754  32.497  27.864  12.230
27361W        W95755   7.316  29.304  14.454
27362W        W95756  15.583  27.038  12.980
27363W        W95757   1.436  37.854   2.193
27364W        W95758  34.764  43.748  14.380
27365W        W95759  24.373   6.308  10.544
27366W        W95760   9.730  32.008   1.273
27367W        W95761  41.447  29.506   0.353
27368W        W95762  33.459   0.522  10.626
27369W        W95763  10.432  18.520   4.187
27370W        W95764  17.784  21.289  12.029
27371W        W95765  25.639  38.469   4.167
27372W        W95766  24.193  22.781  14.366
27373W        W95767  32.911  31.979   3.736
27374W        W95768  17.009  30.526   0.522
27375W        W95769  40.581  15.261  12.512
27376W        W95770   4.705   5.284   2.050
27377W        W95771   7.407  34.335  11.667
27378W        W95772  25.425   7.369   0.423
27379W        W95773   4.414  22.486   3.726
27380W        W95774  27.021  17.716   2.162
27381W        W95775  21.683  30.711   3.802
27382W        W95776  27.634  22.405   4.098
27383W        W95777   3.333   7.449   2.692
27384W        W95778  23.816   7.754   4.110
27385W        W95779   3.562   8.111  12.502
27386W        W95780  33.451  42.349   4.765
27387W        W95781  20.386  11.690   4.702
27388W        W95782   3.024  27.857   1.663
27389W        W95783  33.878  30.963   2.028
27390W        W95784   0.485   9.493  11.117
27391W        W95785  26.099  26.236  14.434
27392W        W95786  29.353  35.927   2.614
27393W        W95787  34.442  44.464  10.794
27394W        W95788  27.634  15.334   4.812
27395W        W95789  30.448  29.671  12.733
27396W        W95790  18.638  14.732   2.235
27397W        W95791  33.142  32.788  12.465
27398W        W95792   6.129  28.999   1.510
27399W        W95793  28.014  25.173  12.774
27400W        W95794  41.055  27.156  13.563
27401W        W95795  37.021  22.718   1.837
27402W        W95796  36.333   8.308  11.757
27403W        W95797  15.791  19.993  14.439
27404W        W95798  11.749  36.396   2.155
27405W        W95799  16.617  10.105  10.327
27406W        W95800  12.655  21.676   3.711
27407W        W95801   5.741  21.816  10.724
27408W        W95802  22.866  43.463   1.387
27409W        W95803  14.758  24.712   2.268
27410W        W95804  41.278  17.832   3.101
27411W        W95805  43.593  17.277  11.946
27412W        W95806   4.034  33.962   1.773
27413W        W95807  35.519  39.290  14.828
27414W        W95808  23.478   8.741   3.966
27415W        W95809   5.902  29.371   2.248
27416W        W95810  21.399  36.954  11.683
27417W        W95811  26.091  32.486   0.593
27418W        W95812  14.806  34.325  11.507
27419W        W95813  41.925  27.581  10.667
27420W        W95814   4.301  33.368  11.976
27421W        W95815  24.834   1.728   4.509
27422W        W95816  29.919  34.376   0.942
27423W        W95817   5.949  15.128   4.594
27424W        W95818  29.419  15.209   2.880
27425W        W95819  30.485  15.594  14.531
27426W        W95820   3.154  37.735  12.429
27427W        W95821   0.183  28.555   1.842
27428W        W95822  28.124  23.470  11.818
27429W        W95823  17.858   2.390   4.278
27430W        W95824  38.820  22.066   3.423
27431W        W95825   7.437  34.125  12.899
27432W        W95826   4.702  32.212  11.703
27433W        W95827  29.508  21.093   4.230
27434W        W95828   2.252  33.196   3.709
27435W        W95829  33.028   9.780   0.509
27436W        W95830  36.766  14.849  14.364
27437W        W95831  17.036  44.523  14.854
27438W        W95832   9.808  35.990   3.370
27439W        W95833  42.305  26.879  13.009
27440W        W95834  13.578  30.057  11.536
27441W        W95835  32.626  26.923  14.508
27442W        W95836  36.515   9.078   3.642
27443W        W95837   9.930  42.386   2.674
27444W        W95838  34.592  17.343   1.863
27445W        W95839  24.285  21.790  14.032
27446W        W95840   5.165  23.235  14.261
27447W        W95841  10.765  22.387  11.450
27448W        W95842  39.345  20.507   2.722
27449W        W95843  23.186  32.125   0.752
27450W        W95844  34.340  33.027   0.863
27451W        W95845  31.540   7.103   0.250
27452W        W95846   3.004  18.326   1.322
27453W        W95847   1.294  16.447  11.786
27454W        W95848   9.363   8.805  11.729
27455W        W95849   3.473   6.073   3.690
27456W        W95850  41.992  21.482   2.700
27457W        W95851  15.071  19.764  13.176
27458W        W95852  38.871  10.165  11.516
27459W        W95853  40.980  31.638   2.266
27460W        W95854  12.371  27.235  11.480
27461W        W95855  25.435  42.461   4.236
27462W        W95856  28.629  33.330   3.653
27463W        W95857  18.060  28.216   4.146
27464W        W95858  18.985  19.434  10.601
27465W        W95859  30.124  19.552   2.188
27466W        W95860  12.635  39.992   3.699
27467W        W95861  35.802   6.296  10.774
27468W        W95862  21.504  30.374   0.611
27469W        W95863  21.539  20.566   2.100
27470W        W95864  40.289   4.400  14.332
27471W        W95865   1.287  27.779   4.646
27472W        W95866   3.254  11.961  14.827
27473W        W95867  32.285  18.124   3.387
27474W        W95868   7.695   7.633  10.460
27475W        W95869  16.672  38.633  11.584
27476W        W95870  41.970   7.081   3.167
27477W        W95871  43.893   8.888   2.807
27478W        W95872  29.018  28.258   0.693
27479W        W95873  24.961  18.204  11.087
27480W        W95874  12.394  34.801   3.264
27481W        W95875  23.376   8.313  10.176
27482W        W95876   4.199  32.592   4.547
27483W        W95877  17.836  14.027   1.286
27484W        W95878  13.705  16.611   3.798
27485W        W95879  38.746  31.004   1.817
27486W        W95880  12.335  44.992   4.783
27487W        W95881  35.772  34.827   0.046
27488W        W95882   1.798  34.800   0.803
27489W        W95883  21.960  26.689  10.112
27490W        W95884  33.291  17.217   3.191
27491W        W95885  28.986  15.495   3.584
27492W        W95886   6.906   5.777   1.499
27493W        W95887  11.867  35.817  12.827
27494W        W95888  35.822  27.369   1.732
27495W        W95889  22.527   3.720   0.301
27496W        W95890  20.939  14.198   3.640
27497W        W95891  43.803   9.599  11.471
27498W        W95892  27.494  23.089  11.774
27499W        W95893  37.957   2.844   3.909
27500W        W95894  25.524   6.300  12.574
27501W        W95895  10.730  30.983  13.036
27502W        W95896  35.910  31.159   0.705
27503W        W95897  16.753  32.819  10.924
27504W        W95898  42.513  33.934   3.774
27505W        W95899  19.702   3.451  11.281
27506W        W95900  20.265   6.685  10.798
27507W        W95901   5.643  15.804  12.569
27508W        W95902  16.154   1.778  10.560
27509W        W95903  22.395  26.461  14.823
27510W        W95904  27.519  18.854   0.831
27511W        W95905  10.140  11.843   0.851
27512W        W95906   6.040  36.328  14.331
27513W        W95907  33.040  17.553   3.514
27514W        W95908  26.463  11.482  11.649
27515W        W95909  16.796   1.582   4.115
27516W        W95910  44.025  40.883  11.469
27517W        W95911  35.622  24.025  12.049
27518W        W95912  35.970   0.934  14.984
27519W        W95913   5.693  41.575   1.908
27520W        W95914  15.319  43.450   4.737
27521W        W95915  32.456  27.649   1.638
27522W        W95916  32.513   9.794  12.779
27523W        W95917  44.906  21.011   4.762
27524W        W95918  22.826  40.113   0.370
27525W        W95919  39.738  27.252  14.787
27526W        W95920  11.036   9.763   4.228
27527W        W95921  11.065  22.801  12.679
27528W        W95922  32.461  14.809   5.091
27529W        W95923  21.602  41.126  13.074
27530W        W95924  11.942  36.953   4.091
27531W        W95925  26.657  38.915   4.522
27532W        W95926  26.468  31.543   2.295
27533W        W95927   3.303  39.921   0.346
27534W        W95928  23.358  18.781   1.896
27535W        W95929  21.754  15.579   1.239
27536W        W95930  41.850  18.549   3.293
27537W        W95931  17.102  30.080   3.127
27538W        W95932  13.401   3.376   2.805
27539W        W95933   7.684  43.047   2.640
27540W        W95934  25.828  38.138   0.853
27541W        W95935  30.612  36.076   0.484
27542W        W95936   8.165  38.791  12.454
27543W        W95937  20.590  24.080   3.695
27544W        W95938  26.975  30.403  12.283
27545W        W95939   3.010  13.289  13.920
27546W        W95940  11.247  41.617   2.295
27547W        W95941  42.513  23.168   2.871
27548W        W95942  38.486   2.516   3.156
27549W        W95943  21.949  21.763  14.480
27550W        W95944  43.820  17.153   3.020
27551W        W95945  27.574  30.334  13.925
27552W        W95946   5.623  35.081   3.558
27553W        W95947  12.134  42.522  11.526
27554W        W95948  25.415  38.833   3.316
27555W        W95949   4.287  24.979  14.478
27556W        W95950  42.267  38.950  11.099
27557W        W95951  29.022   7.848   4.041
27558W        W95952  12.797  42.370   4.348
27559W        W95953   9.393  44.461   1.917
27560W        W95954   4.482  26.035  13.102
27561W        W95955  27.723   3.434  14.262
27562W        W95956  34.516  15.311  11.306
27563W        W95957  44.826   8.924   2.643
27564W        W95958  19.377   3.938  10.592
27565W        W95959   8.693  43.453   0.333
27566W        W95960  28.043  28.660  14.944
27567W        W95961  16.328   8.476  14.940
27568W        W95962  44.072  43.916   2.392
27569W        W95963  35.442  14.271  10.832
27570W        W95964   4.037   4.084   2.119
27571W        W95965  35.892  23.547  12.336
27572W        W95966   7.984   4.729   4.363
27573W        W95967  39.303  38.952  13.314
27574W        W95968   5.403  31.293   4.303
27575W        W95969   1.193  21.015  11.689
27576W        W95970  27.597  38.815  13.587
27577W        W95971  44.867  39.581  14.015
27578W        W95972  44.800  24.923   0.765
27579W        W95973  32.752  39.643  13.959
27580W        W95974  18.024  44.296  12.771
27581W        W95975  36.112   1.402  12.495
27582W        W95976  33.635   8.117  13.560
27583W        W95977  28.237   7.016  13.906
27584W        W95978   7.174   9.905  11.608
27585W        W95979   7.972  33.551  14.964
27586W        W95980   4.905  28.460  10.713
27587W        W95981  28.085  31.673   3.649
27588W        W95982  16.294  35.012  14.368
27589W        W95983  12.222   0.521   4.625
27590W        W95984  27.085  38.976   0.484
27591W        W95985  25.524   5.442   1.205
27592W        W95986  13.663  12.908   1.155
27593W        W95987  23.811  44.824   3.035
27594W        W95988   6.286  24.153   3.268
27595W        W95989  13.685  24.485   1.258
27596W        W95990  19.632  39.502  11.160
27597W        W95991   2.791  13.806   1.572
27598W        W95992   6.772  35.837   0.464
27599W        W95993   3.396   6.925   0.255
27600W        W95994   3.718  15.416   4.914
27601W        W95995   0.185  37.739   9.587
27602W        W95996   5.514   3.288   2.650
27603W        W95997   0.815  10.697  14.291
27604W        W95998   1.819  12.567  10.534
27605W        W95999   0.190   0.665  10.703
27606W        W96000  11.053  11.921   4.115
27607W        W96001  23.081  29.555  12.611
27608W        W96002  31.142  19.669  14.500
27609W        W96003  30.167  43.893  13.036
27610W        W96004  16.233  27.697   1.169
27611W        W96005   8.751  13.875   1.904
27612W        W96006  38.859  36.012  13.305
27613W        W96007  18.429  39.842  14.985
27614W        W96008  22.060  44.439  13.205
27615W        W96009  43.348  13.801   3.507
27616W        W96010   4.040  38.989   4.376
27617W        W96011  10.027  24.775   3.355
27618W        W96012  31.455   0.417  13.034
27619W        W96013   0.462  31.637   1.303
27620W        W96014  22.570   1.050  12.249
27621W        W96015   0.409  11.672  12.084
27622W        W96016   4.532  21.953  14.436
27623W        W96017  12.253   0.771   0.245
27624W        W96018  41.568  33.613  11.548
27625W        W96019   1.745  21.693  12.612
27626W        W96020   9.101  38.810   5.069
27627W        W96021  27.413  31.666   0.561
27628W        W96022  21.111  37.892   2.405
27629W        W96023  34.969   9.097   0.470
27630W        W96024   0.454  27.667   4.135
27631W        W96025  15.612  36.161  10.564
27632W        W96026  22.047  29.370  10.259
27633W        W96027  33.274  21.619  13.356
27634W        W96028  14.266   2.952   3.839
27635W        W96029  30.706  23.401   3.058
27636W        W96030  11.450  33.819   1.419
27637W        W96031  29.656   0.386   4.509
27638W        W96032  39.463  16.548  14.254
27639W        W96033  43.017  31.047   4.434
27640W        W96034  20.010  38.395   2.724
27641W        W96035  22.280   8.499  14.450
27642W        W96036   7.863  38.400   3.854
27643W        W96037  12.181  23.079   4.373
27644W        W96038  24.596  18.314   4.250
27645W        W96039  23.459   9.582  12.413
27646W        W96040   1.278  16.136   1.176
27647W        W96041  20.769  42.447  11.244
27648W        W96042  12.886  12.796   1.163
27649W        W96043   6.353  26.978   2.752
27650W        W96044   0.401  43.277   1.712
27651W        W96045   9.462  38.140  13.472
27652W        W96046  44.822  36.334  12.531
27653W        W96047  14.573  40.369  11.951
27654W        W96048  29.450  13.797  13.660
27655W        W96049  22.799  18.446   3.444
27656W        W96050  32.408  31.882   0.847
27657W        W96051  10.119  42.359  10.501
27658W        W96052   4.757  25.978   4.093
27659W        W96053  33.033   8.747  13.097
27660W        W96054   7.682  12.803   0.955
27661W        W96055   2.408  31.962   0.842
27662W        W96056  32.606  34.070  14.438
27663W        W96057  37.434   4.005  11.604
27664W        W96058  17.709  34.865   1.729
27665W        W96059  11.239  43.512   2.172
27666W        W96060  41.091  36.482  11.980
27667W        W96061  18.223  14.613   1.919
27668W        W96062  36.182   3.890   4.798
27669W        W96063  41.548  41.860   3.573
27670W        W96064  23.984  38.914  10.676
27671W        W96065  40.836  34.984  12.381
27672W        W96066  25.688  14.148  14.380
27673W        W96067   8.470  22.429  12.769
27674W        W96068  44.957  32.532  12.786
27675W        W96069   6.504  43.718   1.676
27676W        W96070  31.325  22.671  11.911
27677W        W96071  23.181  13.523  12.022
27678W        W96072  24.584  44.465  11.512
27679W        W96073  24.017   1.847   3.829
27680W        W96074  22.216   3.842  11.140
27681W        W96075  35.854  43.571   4.193
27682W        W96076  23.432  26.506   4.594
27683W        W96077   6.386  10.831   4.535
27684W        W96078  38.767  12.600  14.806
27685W        W96079   1.836  39.650   2.290
27686W        W96080  39.284   5.770  13.774
27687W        W96081   2.268  26.547   3.684
27688W        W96082  15.705  22.798  12.594
27689W        W96083  14.557  40.900   4.289
27690W        W96084  20.177  36.978  13.545
27691W        W96085   3.198  35.962   0.319
27692W        W96086  14.570   4.817  14.987
27693W        W96087  33.601   8.167   3.653
27694W        W96088  17.475  30.906  10.577
27695W        W96089  34.308  21.567  13.486
27696W        W96090  31.678  28.206   4.256
27697W        W96091   2.785  29.507  13.305
27698W        W96092  27.056  39.286  14.279
27699W        W96093   2.412  40.544  14.090
27700W        W96094  31.154  15.227   0.425
27701W        W96095  41.016   7.287  12.058
27702W        W96096  27.078  28.890  13.881
27703W        W96097  27.494   2.252   2.343
27704W        W96098  14.599  27.656   1.166
27705W        W96099  10.637  21.585   2.372
27706W        W96100   9.013  20.627  10.612
27707W        W96101   5.304  44.837  13.273
27708W        W96102  19.746  25.022  13.398
27709W        W96103  14.051  18.771  14.769
27710W        W96104   5.327  16.783  10.495
27711W        W96105  16.244  22.470  10.229
27712W        W96106  15.593  26.914   3.242
27713W        W96107  20.923  16.825   2.713
27714W        W96108   4.389  40.887  12.537
27715W        W96109  38.879  43.478  12.146
27716W        W96110  32.759  34.825   2.830
27717W        W96111  40.904   6.284  12.152
27718W        W96112  32.490  10.301  13.343
27719W        W96113  33.984   4.763   3.069
27720W        W96114  43.387   1.951   1.774
27721W        W96115  27.778  18.847  11.113
27722W        W96116   0.727  34.302  14.994
27723W        W96117  27.409  24.781   2.788
27724W        W96118  41.045  41.229   2.406
27725W        W96119  28.640   2.511   2.690
27726W        W96120  16.826  14.201   0.437
27727W        W96121  28.351  21.371   3.276
27728W        W96122  41.978   5.210   3.916
27729W        W96123  40.579  27.367   1.266
27730W        W96124  32.879  15.178  12.478
27731W        W96125  28.733  20.323   2.400
27732W        W96126  23.151  23.266   0.510
27733W        W96127  37.436  11.936   0.383
27734W        W96128  11.754  17.709   4.712
27735W        W96129  25.923  37.845  13.913
27736W        W96130  42.443   0.094   2.929
27737W        W96131  16.794   8.151  10.743
27738W        W96132  19.263   5.603  14.458
27739W        W96133  42.610   0.368  11.997
27740W        W96134  20.699  36.486   0.998
27741W        W96135   7.317  41.411   3.616
27742W        W96136  22.790   6.030  13.040
27743W        W96137  40.077   2.955   2.235
27744W        W96138  14.266   6.922   3.203
27745W        W96139   5.866  29.817  11.338
27746W        W96140   5.216  27.003  13.945
27747W        W96141  12.356   4.759  13.060
27748W        W96142  30.012   5.186  14.767
27749W        W96143  29.392  15.016   0.080
27750W        W96144  18.159  36.387   1.450
27751W        W96145  13.585  35.078   1.503
27752W        W96146  11.663   5.697  14.317
27753W        W96147  16.178   8.106   3.784
27754W        W96148  34.368  21.334  13.934
27755W        W96149  30.346   1.990  12.843
27756W        W96150  15.155  20.990   2.383
27757W        W96151  18.578  22.339  14.236
27758W        W96152  13.813  15.865   5.003
27759W        W96153  28.235  41.267  14.962
27760W        W96154  37.135   7.724  10.667
27761W        W96155  42.526  17.344  14.411
27762W        W96156  15.101  10.976   2.682
27763W        W96157  41.937  41.758  13.021
27764W        W96158  17.234  28.021  11.506
27765W        W96159  12.184  38.357   4.579
27766W        W96160  25.602   9.254  13.867
27767W        W96161  29.533  10.422   3.997
27768W        W96162  42.720  37.105  13.345
27769W        W96163  23.498  33.174  13.746
27770W        W96164  20.455  38.845  12.501
27771W        W96165   8.905  31.048  13.157
27772W        W96166   2.813  11.770   0.957
27773W        W96167  17.712  25.446   0.025
27774W        W96168  32.987  32.618  12.930
27775W        W96169   2.379   2.077   4.171
27776W        W96170  42.996  24.952   3.908
27777W        W96171   3.152  19.783  12.509
27778W        W96172  22.268  38.361   1.336
27779W        W96173  29.618  11.688  11.614
27780W        W96174  13.348   8.190  10.639
27781W        W96175  27.576  26.158   0.489
27782W        W96176   4.684  27.142  11.693
27783W        W96177   9.391  12.490  10.571
27784W        W96178  18.570  12.395  12.594
27785W        W96179   3.695  17.964   0.614
27786W        W96180   7.344  37.713  12.541
27787W        W96181  16.961  13.242   3.253
27788W        W96182   5.356  36.641   0.074
27789W        W96183  42.790  39.238   4.922
27790W        W96184  13.530  43.018   3.798
27791W        W96185  23.626   8.137  11.039
27792W        W96186  22.286   1.383   0.550
27793W        W96187   4.337  32.594   1.163
27794W        W96188  32.376  14.301   3.464
27795W        W96189  17.636  38.014  12.084
27796W        W96190   1.386  39.877   2.463
27797W        W96191  37.428  10.232   3.103
27798W        W96192  28.508  16.420  13.596
27799W        W96193  13.810  42.344   4.860
27800W        W96194  43.598  30.544   1.457
27801W        W96195  27.145  23.423  13.557
27802W        W96196  38.066   5.204  14.875
27803W        W96197   3.039  38.276  11.055
27804W        W96198  12.273  18.219   0.954
27805W        W96199   8.649   4.998  10.705
27806W        W96200  34.943  15.129  13.194
27807W        W96201  28.352   5.407   0.751
27808W        W96202   3.758   8.219   0.358
27809W        W96203  29.167  32.581   3.959
27810W        W96204  12.483  22.264  11.071
27811W        W96205  16.080  16.536  10.477
27812W        W96206  35.021  18.633   4.685
27813W        W96207  20.494  34.798   0.270
27814W        W96208  20.460  11.232   3.242
27815W        W96209   2.310  32.439  13.132
27816W        W96210  20.146  14.535   4.289
27817W        W96211  44.408  18.666   4.715
27818W        W96212  11.746  26.971   3.198
27819W        W96213  22.531  27.490  13.005
27820W        W96214  10.209  21.023   3.252
27821W        W96215  38.463  24.152  13.333
27822W        W96216  25.111   0.431  11.205
27823W        W96217   2.762   9.373  12.281
27824W        W96218   9.683   2.793   4.593
27825W        W96219  44.903  23.982  14.978
27826W        W96220  16.344  37.114  10.662
27827W        W96221   9.148  13.225  11.130
27828W        W96222  12.820  20.128  13.720
27829W        W96223  13.200  26.846  11.960
27830W        W96224  31.564  31.852   3.947
27831W        W96225  12.462   6.449   5.403
27832W        W96226   2.417  42.987  14.945
27833W        W96227   2.384  30.591   0.870
27834W        W96228   3.933  27.825   2.727
27835W        W96229  15.121  41.592  13.764
27836W        W96230  31.437  38.555   2.869
27837W        W96231  29.606  34.282   0.318
27838W        W96232  35.078  24.668   2.849
27839W        W96233  33.062  34.840   3.673
27840W        W96234  43.293  36.894   1.032
27841W        W96235   9.423  26.737   2.159
27842W        W96236   8.382  17.611  11.975
27843W        W96237  35.469  25.008   2.733
27844W        W96238  23.002  18.572   4.407
27845W        W96239   1.917  16.076  10.648
27846W        W96240  18.705   7.195  10.058
27847W        W96241  24.793   6.689  11.058
27848W        W96242  33.445  18.374   0.105
27849W        W96243  38.977  17.000   2.939
27850W        W96244  39.382  33.253   3.694
27851W        W96245  13.186  38.902   4.262
27852W        W96246  28.110  33.614  11.103
27853W        W96247  34.587   5.289   0.269
27854W        W96248  44.188  34.000   1.263
27855W        W96249   4.810  38.868   1.659
27856W        W96250   0.955  16.073   4.048
27857W        W96251  30.490  38.636   2.638
27858W        W96252  29.365  38.548  11.190
27859W        W96253  42.369  35.929   1.585
27860W        W96254  11.385  23.494   0.866
27861W        W96255  23.874  23.329   3.640
27862W        W96256  15.707  38.767  14.065
27863W        W96257  21.994  41.387  12.003
27864W        W96258  30.540  43.749  12.155
27865W        W96259  11.550  28.027   3.595
27866W        W96260  12.153  19.780   0.857
27867W        W96261   6.170   4.136   2.740
27868W        W96262   2.842  29.927   0.847
27869W        W96263  33.301   2.643  11.929
27870W        W96264  44.434  37.599  12.258
27871W        W96265  23.252  11.233  12.034
27872W        W96266  29.444   5.399   1.400
27873W        W96267  25.974  12.637  12.472
27874W        W96268  33.180  30.551   1.703
27875W        W96269  18.406  24.287  13.292
27876W        W96270  11.814  13.258   2.190
27877W        W96271  30.011  26.934  13.438
27878W        W96272   1.686   9.316   2.420
27879W        W96273  14.287  23.273  12.564
27880W        W96274   2.882  16.011  12.475
27881W        W96275   8.957  22.581  12.862
27882W        W96276   2.437  18.148   1.939
27883W        W96277  32.157  18.187   1.691
27884W        W96278  19.754  32.524  11.273
27885W        W96279  31.854  15.119  11.516
27886W        W96280  24.074  32.963  13.636
27887W        W96281   6.732  29.912   3.349
27888W        W96282  23.620  18.216   0.794
27889W        W96283  12.959  15.490   4.962
27890W        W96284  42.080  35.008   4.230
27891W        W96285  42.977  24.765  12.506
27892W        W96286   1.807  13.649   5.591
27893W        W96287   1.045  17.309   5.259
27894W        W96288  38.038   4.769   2.978
27895W        W96289   3.163  30.598  13.075
27896W        W96290  19.052  31.110   4.191
27897W        W96291  24.206  26.037   1.101
27898W        W96292  15.881  32.829  14.446
27899W        W96293   1.899   5.980  10.726
27900W        W96294  28.973  30.615  13.499
27901W        W96295  41.296  10.217  14.751
27902W        W96296  13.116  12.777   1.909
27903W        W96297  12.680  24.591   0.446
27904W        W96298  36.269  42.603  13.560
27905W        W96299  44.709  44.760  11.560
27906W        W96300   3.904  40.905  11.520
27907W        W96301   7.772   1.737  11.200
27908W        W96302  17.063  44.782  13.113
27909W        W96303  38.479  17.691  11.766
27910W        W96304   4.285  34.036  11.452
27911W        W96305   5.698   9.795   1.854
27912W        W96306   6.257  11.384   2.406
27913W        W96307  34.027   9.336   4.714
27914W        W96308  32.551  25.167  13.448
27915W        W96309  40.407  24.146  13.857
27916W        W96310  34.925  13.925   1.784
27917W        W96311   2.851  15.250   3.687
27918W        W96312  18.138   7.084   5.056
27919W        W96313   7.469   6.878  12.916
27920W        W96314  13.330  35.800  14.988
27921W        W96315  16.547  12.773  12.204
27922W        W96316  16.837   7.298   0.905
27923W        W96317   4.411  39.401  12.140
27924W        W96318  26.958  25.087   5.042
27925W        W96319   0.817  30.379  14.498
27926W        W96320   1.730   4.025   4.480
27927W        W96321   7.555  15.689   0.191
27928W        W96322  17.743  26.593  10.183
27929W        W96323  33.166   3.258  12.548
27930W        W96324   0.490   8.795  13.540
27931W        W96325  42.946  20.296   2.671
27932W        W96326  13.341  27.027  11.493
27933W        W96327   6.391  15.274   2.832
27934W        W96328  25.532  36.765   1.857
27935W        W96329  28.849  29.614   4.707
27936W        W96330   1.700  22.474   4.233
27937W        W96331  41.520   4.727  11.536
27938W        W96332  27.228  24.663  11.155
27939W        W96333   3.589  43.884   4.882
27940W        W96334   5.869  10.640   2.323
27941W        W96335  16.350  35.418   4.969
27942W        W96336  33.789  21.560  13.398
27943W        W96337  39.303   7.380   1.804
27944W        W96338   5.956  16.351  13.395
27945W        W96339  21.006   4.523   4.586
27946W        W96340  15.702  24.512  11.719
27947W        W96341  20.923  31.786  12.479
27948W        W96342  15.570  33.969   1.923
27949W        W96343  17.647  44.750   4.130
27950W        W96344   0.736  28.862   0.323
27951W        W96345  14.105  15.569  10.488
27952W        W96346   0.489  31.720   0.438
27953W        W96347   2.858  41.221  11.465
27954W        W96348  10.206  34.684  11.306
27955W        W96349  17.532  43.314  12.590
27956W        W96350   5.151  27.737  12.960
27957W        W96351  15.918   6.017   3.460
27958W        W96352  33.962  25.565   3.417
27959W        W96353  44.822   2.497  14.804
27960W        W96354  37.062  21.244  13.507
27961W        W96355  27.247  17.304  12.076
27962W        W96356  27.352   8.666   2.937
27963W        W96357  43.898   3.907   2.619
27964W        W96358  15.842  21.110  12.028
27965W        W96359  12.795  23.090  13.899
27966W        W96360  19.291  36.507  12.568
27967W        W96361  22.934   3.277   2.338
27968W        W96362   3.294  28.848  11.649
27969W        W96363  28.702  22.115   0.890
27970W        W96364  43.224  14.614  14.773
27971W        W96365  20.330   1.836  11.500
27972W        W96366   7.292  40.321   0.054
27973W        W96367  27.356  39.486   2.754
27974W        W96368  37.927  28.393  13.735
27975W        W96369  24.215  40.746  10.839
27976W        W96370  14.840  10.197  12.832
27977W        W96371   3.089  28.098  14.284
27978W        W96372   8.460  12.198  13.369
27979W        W96373  37.643   7.883  10.828
27980W        W96374  43.367  36.619  14.561
27981W        W96375   3.470  31.608   1.587
27982W        W96376  19.427  12.558  11.647
27983W        W96377  37.555  35.367  14.568
27984W        W96378  19.361  35.412   1.202
27985W        W96379  17.570  33.890  12.861
27986W        W96380  34.043   1.534  14.741
27987W        W96381   1.665  32.131   5.047
27988W        W96382  29.209  21.090  13.000
27989W        W96383  29.880  28.534  12.074
27990W        W96384  31.116  25.295  10.871
27991W        W96385  21.836  42.767   1.793
27992W        W96386  38.111  10.386  12.053
27993W        W96387  25.148  33.357  11.975
27994W        W96388   2.381  16.138   3.391
27995W        W96389  34.886  26.190  11.600
27996W        W96390  13.335  35.042  11.015
27997W        W96391  27.439   7.131  11.742
27998W        W96392  36.589  23.952  13.118
27999W        W96393  33.424  36.518  13.127
28000W        W96394  30.466  34.608   4.600
28001W        W96395  28.995  21.404  11.411
28002W        W96396  44.530  20.796  14.409
28003W        W96397   5.814  19.290   3.801
28004W        W96398  18.557   9.220  12.590
28005W        W96399  21.174   9.999   3.077
28006W        W96400  29.916   3.370   3.738
28007W        W96401  34.434  29.179   3.738
28008W        W96402  12.273  27.594   0.001
28009W        W96403  29.565  34.317  10.083
28010W        W96404  22.944  10.352  11.896
28011W        W96405  32.441  10.127  11.865
28012W        W96406   6.319  35.526  12.764
28013W        W96407  22.272  22.534   2.151
28014W        W96408  20.678  11.685   3.085
28015W        W96409  26.498   5.908  14.366
28016W        W96410   5.915  19.932   2.328
28017W        W96411  32.560  40.063   1.748
28018W        W96412  42.296  42.506  11.003
28019W        W96413   7.091  43.182   4.657
28020W        W96414  44.792  21.055  10.595
28021W        W96415  17.531  37.580   2.328
28022W        W96416  19.249  36.290   4.913
28023W        W96417  42.099  34.501  13.317
28024W        W96418   5.814  44.576   0.746
28025W        W96419  17.084  23.729   3.374
28026W        W96420  13.267  13.722  14.447
28027W        W96421  15.616  17.670  11.747
28028W        W96422  44.407  23.029   4.105
28029W        W96423  17.517   4.823  12.909
28030W        W96424  43.604  25.535   4.111
28031W        W96425  16.341  43.041  10.757
28032W        W96426  31.631   2.163  13.354
28033W        W96427  27.089  25.930  14.742
28034W        W96428   2.743   4.498   3.669
28035W        W96429  16.754  43.995  14.535
28036W        W96430  29.027  23.069  10.735
28037W        W96431  40.968  27.667  13.624
28038W        W96432  18.917  26.586  13.689
28039W        W96433  33.610  20.117  11.964
28040W        W96434  18.053  39.150   0.310
28041W        W96435  39.875  36.426  12.449
28042W        W96436   2.139  22.962   2.031
28043W        W96437  26.019  25.455  12.820
28044W        W96438   2.400   3.297   1.438
28045W        W96439  30.229   4.444  12.446
28046W        W96440  26.946  19.768  13.733
28047W        W96441  20.930  20.207   1.867
28048W        W96442  25.139  25.757   3.697
28049W        W96443  31.859  20.019   3.217
28050W        W96444   0.149  32.648   3.423
28051W        W96445  33.857  21.014  11.050
28052W        W96446   8.432  18.989   0.741
28053W        W96447  13.810  35.983  14.917
28054W        W96448  37.411   0.058  14.007
28055W        W96449  35.154  31.534   3.692
28056W        W96450  11.621  10.891  11.569
28057W        W96451  28.494  17.151  10.615
28058W        W96452  30.728  23.015  11.212
28059W        W96453  30.525  44.336  13.777
28060W        W96454  16.186  11.584   0.028
28061W        W96455  39.348  28.483   4.261
28062W        W96456  16.573  16.588  14.508
28063W        W96457   6.465  34.704   2.237
28064W        W96458  14.017  23.220  14.798
28065W        W96459  41.360  30.348   0.797
28066W        W96460  10.454   1.332  14.118
28067W        W96461  13.647   7.696  14.055
28068W        W96462  32.433  36.050  11.019
28069W        W96463  32.364  20.656   3.277
28070W        W96464  44.301  26.340  14.877
28071W        W96465  26.578  30.101   2.326
28072W        W96466   6.387  43.451   2.120
28073W        W96467  18.229  17.701  13.913
28074W        W96468  34.572  17.129   4.416
28075W        W96469  39.905  39.901   5.113
28076W        W96470  33.770  34.001  12.818
28077W        W96471  31.258  11.130   4.654
28078W        W96472  41.288  40.976   4.739
28079W        W96473  28.555  42.847   3.228
28080W        W96474   0.294  23.120   2.139
28081W        W96475  25.893  43.974   2.216
28082W        W96476  33.597  23.025   0.922
28083W        W96477   7.889  10.693  10.524
28084W        W96478  26.505  31.402  12.947
28085W        W96479  43.866  16.870   4.583
28086W        W96480  10.955  28.027  13.620
28087W        W96481  20.625  27.975  12.056
28088W        W96482  30.416  38.565  13.019
28089W        W96483   6.107  42.021   3.930
28090W        W96484   4.007  43.846  11.391
28091W        W96485   2.871  29.446  14.957
28092W        W96486  30.390  25.179   0.887
28093W        W96487  21.484   0.632   2.408
28094W        W96488   5.679  14.229  14.508
28095W        W96489  42.576  35.983  10.249
28096W        W96490  18.166   1.114   4.039
28097W        W96491  15.565  33.128   3.195
28098W        W96492  26.263  26.144   3.432
28099W        W96493  10.305   4.203   1.346
28100W        W96494  37.415  15.766  12.048
28101W        W96495   3.249  10.796   3.381
28102W        W96496   0.450  24.504   0.088
28103W        W96497  21.049  31.012  13.056
28104W        W96498  18.283  24.167  14.798
28105W        W96499  44.432  44.371   1.688
28106W        W96500  35.814   0.734   3.651
28107W        W96501  22.788   9.078  13.693
28108W        W96502  40.411  11.349   4.365
28109W        W96503  22.443  19.450   2.202
28110W        W96504  13.668  15.607   2.747
28111W        W96505  10.733  36.446  11.599
28112W        W96506  21.684  37.794  10.978
28113W        W96507  18.510  11.446  14.034
28114W        W96508  23.351  24.425   2.823
28115W        W96509  26.845  25.098   4.549
28116W        W96510  23.050  30.987   3.289
28117W        W96511   8.860   2.507  12.948
28118W        W96512  31.196   9.119   1.303
28119W        W96513  24.471   2.779  13.449
28120W        W96514  27.980  27.636  12.163
28121W        W96515   6.868   4.660   3.983
28122W        W96516  21.597   6.119   1.439
28123W        W96517  29.424  41.018   3.310
28124W        W96518  21.068   3.893   3.685
28125W        W96519  35.336  23.111   1.382
28126W        W96520  22.273  40.059   0.407
28127W        W96521  24.939  34.178   1.418
28128W        W96522  38.152   4.456   1.954
28129W        W96523   2.353  20.258   0.465
28130W        W96524   8.918  23.570   5.029
28131W        W96525  31.099  43.788  12.479
28132W        W96526  24.066  20.163  11.132
28133W        W96527   1.444  43.334   3.200
28134W        W96528  43.411  11.809  10.705
28135W        W96529  19.624   2.420  14.359
28136W        W96530  42.115   1.403  10.927
28137W        W96531  17.833  34.981   0.315
28138W        W96532  43.343  15.428   1.394
28139W        W96533  34.102  30.676  10.575
28140W        W96534  10.150  25.567  14.840
28141W        W96535   4.424  26.183   5.132
28142W        W96536   6.979  34.007   0.509
28143W        W96537  25.715  41.007   0.665
28144W        W96538  42.503   6.184  10.631
28145W        W96539  23.640   4.629   1.848
28146W        W96540   4.824  40.338   4.526
28147W        W96541  26.585  40.368   2.717
28148W        W96542  24.993  18.571   0.288
28149W        W96543  10.658  42.715   0.540
28150W        W96544  44.834  22.485   1.033
28151W        W96545   2.695  17.646  12.221
28152W        W96546   9.249  29.736   2.511
28153W        W96547  15.208  16.544  13.046
28154W        W96548  37.375  36.417  12.530
28155W        W96549  24.955  24.744  12.474
28156W        W96550  24.914  11.035   2.111
28157W        W96551  40.313  35.428  14.376
28158W        W96552  43.160  28.962  10.223
28159W        W96553  40.353  23.442   1.843
28160W        W96554  27.428  16.578  12.997
28161W        W96555   8.832   6.950  11.663
28162W        W96556  22.971   0.925  14.039
28163W        W96557  31.407   7.579   3.345
28164W        W96558  40.287  38.317   3.739
28165W        W96559   2.348  22.679   3.751
28166W        W96560  24.995  38.290  13.844
28167W        W96561  31.042  10.468   0.960
28168W        W96562   8.788   4.278   3.899
28169W        W96563   8.824   5.484   1.332
28170W        W96564  20.079  37.461  14.827
28171W        W96565  43.350  31.001   0.277
28172W        W96566  20.707  10.768  12.383
28173W        W96567   6.270  34.295  11.475
28174W        W96568  28.701  21.428   1.486
28175W        W96569  15.863  36.814  11.457
28176W        W96570  24.560  28.174   4.744
28177W        W96571   4.819  17.464   0.466
28178W        W96572  27.671  17.536  13.042
28179W        W96573   8.198   9.171  10.644
28180W        W96574  26.992  10.261   0.270
28181W        W96575  12.140   9.908  11.028
28182W        W96576  13.676  22.198   0.901
28183W        W96577   0.482  44.153  11.646
28184W        W96578  31.138  15.650   1.804
28185W        W96579  11.417  39.393   1.222
28186W        W96580   6.237   8.360   2.715
28187W        W96581   3.308   2.233   4.153
28188W        W96582   0.779  13.228   2.248
28189W        W96583  16.597  39.956   0.323
28190W        W96584   1.260   2.401   3.709
28191W        W96585   6.054  32.151  11.530
28192W        W96586   4.477   0.744   3.235
28193W        W96587   0.859   7.520  14.452
28194W        W96588  34.890  44.927  14.920
28195W        W96589   2.833  33.846   0.844
28196W        W96590   1.933  24.020   0.312
28197W        W96591   9.382  15.596  14.422
28198W        W96592  37.865   7.656   3.127
28199W        W96593  38.260  28.341   4.310
28200W        W96594  34.702  13.594  14.933
28201W        W96595   1.796  41.700   0.030
28202W        W96596  20.237  40.373  12.997
28203W        W96597  14.946   4.480   2.638
28204W        W96598   9.668  44.369   0.311
28205W        W96599  22.984  24.030  11.013
28206W        W96600  12.043  12.370  14.799
28207W        W96601  40.640   6.941   2.913
28208W        W96602  11.622   5.711   3.576
28209W        W96603  16.843  33.560   0.668
28210W        W96604  39.984  20.550  11.678
28211W        W96605   4.783  23.510  10.200
28212W        W96606  21.195  26.904   0.322
28213W        W96607  42.836  31.113  14.748
28214W        W96608  12.125  12.268  13.841
28215W        W96609  25.526  26.878   0.782
28216W        W96610  37.031  25.453   2.274
28217W        W96611  25.230  42.609   3.774
28218W        W96612  32.795  39.816  12.470
28219W        W96613   7.147  35.631  13.100
28220W        W96614   3.263   4.279  11.729
28221W        W96615   2.384  23.416   2.178
28222W        W96616   9.226  39.033  14.960
28223W        W96617  19.364  32.427  11.671
28224W        W96618   2.969  27.546  11.926
28225W        W96619  28.199  28.886   3.289
28226W        W96620   8.685  29.389   1.809
28227W        W96621   1.019  19.191  12.073
28228W        W96622  23.695  40.848  11.704
28229W        W96623  10.818  28.294   4.055
28230W        W96624  24.690  29.440   0.826
28231W        W96625  44.645  32.075   3.238
28232W        W96626  14.215  44.740   0.717
28233W        W96627  36.882  23.949  14.265
28234W        W96628  36.635  18.553  14.440
28235W        W96629  29.054  28.591   1.439
28236W        W96630   4.333  28.347  13.888
28237W        W96631  31.377  31.613   1.478
28238W        W96632   1.311  18.931  13.871
28239W        W96633  29.717   7.822  11.328
28240W        W96634  22.738  32.712  10.639
28241W        W96635  40.782   3.032  13.903
28242W        W96636   4.171  24.581   0.922
28243W        W96637  14.683  29.020  10.541
28244W        W96638  20.706  13.164  11.577
28245W        W96639  37.508  26.440  14.017
28246W        W96640   1.021  20.123   3.277
28247W        W96641   9.321   7.228   4.445
28248W        W96642  22.803  37.954  13.788
28249W        W96643  22.953  19.776  11.539
28250W        W96644  34.906  14.243  14.232
28251W        W96645  44.266  31.742   3.180
28252W        W96646   0.446  34.053   4.574
28253W        W96647   9.679  10.268  14.953
28254W        W96648   4.291  34.397   2.732
28255W        W96649  39.972  36.979  10.970
28256W        W96650  42.706  25.097  14.333
28257W        W96651   6.867  33.629  10.689
28258W        W96652   0.009   7.294   0.077
28259W        W96653  40.130  36.545  14.329
28260W        W96654  22.714  21.239  14.781
28261W        W96655  34.341  24.142   2.577
28262W        W96656  17.695  35.397  14.467
28263W        W96657  35.944   6.102  14.285
28264W        W96658  40.623  10.559   2.262
28265W        W96659  24.607  25.655  13.439
28266W        W96660  14.696  29.794   2.288
28267W        W96661   1.846  34.088  13.469
28268W        W96662  37.545  18.555  11.652
28269W        W96663  16.805  36.109   0.659
28270W        W96664   7.636  21.655   3.243
28271W        W96665  44.916  18.686   0.613
28272W        W96666  30.281   2.793  13.992
28273W        W96667  42.931  34.392   2.674
28274W        W96668  11.805  39.452  12.314
28275W        W96669  21.047  43.255   3.268
28276W        W96670  44.384  15.466  12.137
28277W        W96671  26.019  30.044  13.885
28278W        W96672   2.335   5.241  11.980
28279W        W96673  15.202  30.889  13.416
28280W        W96674  22.925  16.922   3.700
28281W        W96675  19.363   5.678   0.338
28282W        W96676   3.379  24.139   1.669
28283W        W96677  44.248  21.226  14.412
28284W        W96678  14.060  32.346  14.834
28285W        W96679  10.768  23.921  14.305
28286W        W96680   5.953  11.747   1.204
28287W        W96681  32.401  17.302  11.492
28288W        W96682   0.995  36.169  14.484
28289W        W96683  24.474  15.172   3.768
28290W        W96684  33.093  29.981  12.457
28291W        W96685  39.894  26.745  13.778
28292W        W96686  18.259  33.397  10.640
28293W        W96687  12.913  26.483  14.781
28294W        W96688  29.397  25.115   1.983
28295W        W96689  32.013  28.977  12.035
28296W        W96690  12.881  26.427  11.990
28297W        W96691  32.084  21.662  14.147
28298W        W96692  43.733   9.792   0.315
28299W        W96693   6.815  30.660   2.834
28300W        W96694   9.353  35.541   1.850
28301W        W96695  27.929  17.195   2.528
28302W        W96696  37.686   3.546   3.243
28303W        W96697   0.519  25.961  11.251
28304W        W96698  38.130  36.870   0.975
28305W        W96699   8.900  13.667  11.974
28306W        W96700   6.650  22.193   1.884
28307W        W96701  19.183  16.405   4.561
28308W        W96702  36.019  24.609  11.572
28309W        W96703  19.566  14.753  10.915
28310W        W96704  22.279  10.803  11.607
28311W        W96705  26.684   3.714  14.091
28312W        W96706  21.101  29.549  13.002
28313W        W96707  39.508   6.841  11.141
28314W        W96708  32.467  23.563  12.794
28315W        W96709  36.120  27.954   4.113
28316W        W96710  36.413  31.919  11.551
28317W        W96711  26.730  12.791  12.063
28318W        W96712  41.813  38.343   0.803
28319W        W96713  16.766  40.811  14.863
28320W        W96714  31.836  25.298   1.656
28321W        W96715  43.704  15.194  13.411
28322W        W96716   5.171  28.185   1.106
28323W        W96717  13.782  42.240  13.570
28324W        W96718  10.174  44.348   2.591
28325W        W96719  10.051  14.268   0.950
28326W        W96720  14.226   1.790   2.712
28327W        W96721  33.093  37.032   0.535
28328W        W96722  11.596   6.664  12.944
28329W        W96723   7.219  28.155   4.538
28330W        W96724   0.437  10.668   1.993
28331W        W96725  20.999  10.343   0.881
28332W        W96726   7.831  19.767  13.240
28333W        W96727  25.552  31.979   2.223
28334W        W96728  14.995  35.330  13.054
28335W        W96729  41.399   3.639   3.255
28336W        W96730  36.852  41.944   4.771
28337W        W96731  36.933  14.171   3.532
28338W        W96732  28.483  33.917   1.212
28339W        W96733  21.488  12.748   2.170
28340W        W96734  13.179  32.058   4.604
28341W        W96735  41.926  31.713  11.655
28342W        W96736   3.958  24.678  13.977
28343W        W96737  30.585  12.107   2.795
28344W        W96738  34.230  11.185  13.440
28345W        W96739  40.544  21.016  10.331
28346W        W96740   1.000  37.132   2.193
28347W        W96741   6.181  15.227  14.295
28348W        W96742  14.217  41.976   5.125
28349W        W96743  39.432  25.976   3.591
28350W        W96744  19.054  43.802   4.715
28351W        W96745  43.156   4.254  12.057
28352W        W96746   1.336  21.733   3.124
28353W        W96747  20.433  24.247   4.179
28354W        W96748   1.420   2.964   3.711
28355W        W96749  41.022  31.600  11.133
28356W        W96750   4.544   0.530  10.484
28357W        W96751   9.135  34.370  12.679
28358W        W96752  32.433  40.238   1.200
28359W        W96753  39.008  39.296   1.864
28360W        W96754  28.899  28.662   0.387
28361W        W96755  20.495  32.489   1.795
28362W        W96756  33.080  17.308  14.459
28363W        W96757  10.556  18.222  13.875
28364W        W96758   5.054  13.797  11.886
28365W        W96759  11.518  39.971   4.483
28366W        W96760  18.645   7.041   1.928
28367W        W96761  31.932   7.742   4.334
28368W        W96762  12.356   5.459  10.537
28369W        W96763  14.722  44.693  12.198
28370W        W96764  15.649  35.241  10.094
28371W        W96765   0.260  15.831   0.505
28372W        W96766  39.758  30.034  13.912
28373W        W96767   9.493  27.465   2.748
28374W        W96768  10.883  31.505   3.152
28375W        W96769  43.725   8.046   3.330
28376W        W96770  31.357  16.165   3.320
28377W        W96771  27.512   9.401  14.874
28378W        W96772  10.439  27.010  13.966
28379W        W96773  19.746  20.787  14.205
28380W        W96774  37.999  17.031   0.912
28381W        W96775  25.658  12.722  14.967
28382W        W96776  34.200  23.191  11.665
28383W        W96777   3.192  24.604   3.664
28384W        W96778   5.657  22.094  13.950
28385W        W96779  25.517  29.651  12.622
28386W        W96780  33.390   5.883   0.400
28387W        W96781  27.713  14.122   3.814
28388W        W96782   1.813   9.644   1.778
28389W        W96783   9.217  30.472  12.686
28390W        W96784  28.958  39.412   0.855
28391W        W96785   1.385   6.547   3.598
28392W        W96786  37.497   9.634  10.645
28393W        W96787  23.794   3.677  13.022
28394W        W96788  40.039  43.912  12.487
28395W        W96789  33.032  34.168  12.140
28396W        W96790   8.737  10.990  14.407
28397W        W96791  30.135  36.462  14.722
28398W        W96792  12.193  12.707  13.591
28399W        W96793  26.140  19.489  14.354
28400W        W96794  23.125  38.245  11.978
28401W        W96795   9.883   8.875  14.823
28402W        W96796  37.882  35.363   2.649
28403W        W96797  25.423  11.225   1.450
28404W        W96798  32.429  27.506   3.074
28405W        W96799  30.149   9.447  12.050
28406W        W96800   0.377  10.646   0.438
28407W        W96801  23.072  32.609   1.021
28408W        W96802  41.623  27.263   1.218
28409W        W96803  19.527  23.439  11.422
28410W        W96804  26.585  26.892   0.990
28411W        W96805  32.445   5.990   0.289
28412W        W96806  43.370   8.347   1.185
28413W        W96807  16.376  15.147   1.611
28414W        W96808  40.452  11.478   3.861
28415W        W96809  17.110   2.866  10.714
28416W        W96810  36.902  21.733  13.421
28417W        W96811  34.705  34.374  10.924
28418W        W96812   9.114   1.067   4.254
28419W        W96813   1.962   7.007  14.072
28420W        W96814  37.420   0.246   4.771
28421W        W96815  43.076   7.389   2.641
28422W        W96816  43.924  10.350   1.689
28423W        W96817  17.616   2.470   0.446
28424W        W96818   7.093  44.503  10.876
28425W        W96819  21.497   8.814   4.405
28426W        W96820  38.853  30.022  10.214
28427W        W96821  33.373  10.313   3.636
28428W        W96822  38.440  33.993   0.490
28429W        W96823  33.875   1.788   3.008
28430W        W96824  31.898  19.556   4.139
28431W        W96825  12.893  13.779  13.056
28432W        W96826   0.937  16.719  13.008
28433W        W96827  36.816  19.750   2.279
28434W        W96828  38.379  18.430   1.597
28435W        W96829  36.557  15.572  13.293
28436W        W96830  12.104  44.966   0.880
28437W        W96831  11.800  22.723  12.240
28438W        W96832  29.894  24.633   4.596
28439W        W96833  36.164  17.224   4.981
28440W        W96834  15.096  27.955  13.392
28441W        W96835   0.096  17.679   3.235
28442W        W96836  16.526  40.041   3.287
28443W        W96837   3.369  13.440   2.654
28444W        W96838  19.280  38.273   3.252
28445W        W96839  34.033  27.215   4.516
28446W        W96840  27.064  33.501   1.801
28447W        W96841  24.634  13.727   2.766
28448W        W96842  19.571  23.482  13.934
28449W        W96843  28.976  31.928   0.389
28450W        W96844  27.578  13.454   2.860
28451W        W96845   3.484   5.772  12.920
28452W        W96846   3.172  40.558   1.506
28453W        W96847  32.957   6.145  11.455
28454W        W96848  21.258  41.416   4.188
28455W        W96849   4.751   8.892   0.040
28456W        W96850  42.778   4.324  11.706
28457W        W96851  13.194  32.549   1.308
28458W        W96852  10.574  34.012  13.821
28459W        W96853  24.641  43.930   1.296
28460W        W96854  24.620  11.932   1.792
28461W        W96855  16.626  38.763  13.911
28462W        W96856  38.138  41.463  11.520
28463W        W96857   7.740  43.980   4.128
28464W        W96858  27.638  42.842   2.779
28465W        W96859  44.514  28.655  11.125
28466W        W96860  20.188  23.095   0.032
28467W        W96861  21.227  19.725   1.812
28468W        W96862  17.408  37.826  11.624
28469W        W96863  40.816   7.755   0.258
28470W        W96864  13.130  43.489   2.499
28471W        W96865  37.385  17.990  13.100
28472W        W96866  33.310  22.112   0.280
28473W        W96867  11.257   5.774  11.357
28474W        W96868  17.296  35.828  11.612
28475W        W96869   6.135  22.358  12.451
28476W        W96870  25.925  20.525   1.239
28477W        W96871  39.932  39.342  10.598
28478W        W96872  36.497  41.502   3.285
28479W        W96873  20.886  38.851  10.776
28480W        W96874  26.776  15.167   3.728
28481W        W96875  32.436  33.496   2.316
28482W        W96876   1.881   8.675   3.957
28483W        W96877  43.235  13.282  12.866
28484W        W96878   6.307   1.772   4.674
28485W        W96879   3.362   1.371  13.081
28486W        W96880  34.309  14.866  12.998
28487W        W96881  27.668  35.427   0.884
28488W        W96882  10.797   3.115   0.412
28489W        W96883   5.586   2.190   5.049
28490W        W96884   1.940  32.545  14.905
28491W        W96885  28.763  31.639  10.694
28492W        W96886  28.702  19.650  13.906
28493W        W96887   3.679  24.748   3.106
28494W        W96888  41.605  33.013  13.010
28495W        W96889  23.328  40.024   4.169
28496W        W96890   6.191  12.610  14.618
28497W        W96891  21.796  41.503  11.468
28498W        W96892  37.094  17.613  11.504
28499W        W96893  42.809  15.668  14.352
28500W        W96894   5.868  27.982  13.175
28501W        W96895   7.184  23.363  13.965
28502W        W96896  38.717  23.597  14.477
28503W        W96897  39.813  23.738   0.360
28504W        W96898  20.705  29.780   3.809
28505W        W96899  23.493  29.966   3.267
28506W        W96900  30.189  31.039  14.901
28507W        W96901   6.683  28.675   0.750
28508W        W96902   6.946  43.901  13.336
28509W        W96903   2.184   9.931  11.633
28510W        W96904  15.808   4.256  14.737
28511W        W96905  42.522  44.824   3.368
28512W        W96906  27.750   4.893  13.292
28513W        W96907  33.467  40.516  12.737
28514W        W96908  33.779  20.486   0.948
28515W        W96909  19.500  38.332   1.837
28516W        W96910  36.419  36.507  14.900
28517W        W96911   4.212   8.380   2.671
28518W        W96912   0.949  14.748  14.471
28519W        W96913  33.167  31.507  10.811
28520W        W96914   8.770  17.806  12.568
28521W        W96915  16.367   8.210   0.818
28522W        W96916  38.298  35.668   2.809
28523W        W96917  16.098  41.000  11.012
28524W        W96918  30.609  27.203  14.250
28525W        W96919   6.309  38.997   2.776
28526W        W96920  41.823  34.516   3.588
28527W        W96921  38.200  32.082  12.379
28528W        W96922  42.978  34.663  11.508
28529W        W96923   2.946  14.661  14.405
28530W        W96924  20.076   2.167  12.228
28531W        W96925  44.044  30.298  12.437
28532W        W96926  18.259  17.234   3.183
28533W        W96927  29.214   3.846  11.663
28534W        W96928  12.934   3.766  12.572
28535W        W96929  28.039  21.016   2.459
28536W        W96930  37.020  23.269   3.144
28537W        W96931  43.998  33.168   4.494
28538W        W96932   6.182  34.366  14.290
28539W        W96933  13.651   0.939   0.257
28540W        W96934  10.036  43.832   4.073
28541W        W96935  10.321  16.552   1.332
28542W        W96936  27.747  44.600  13.704
28543W        W96937  20.048  38.574  11.231
28544W        W96938  36.054  40.188   4.057
28545W        W96939  41.198  31.678   4.804
28546W        W96940  35.003   8.800   0.925
28547W        W96941   2.943  30.212   0.379
28548W        W96942  25.324   7.704  10.707
28549W        W96943  27.877  17.420   1.637
28550W        W96944  30.127   8.871   3.810
28551W        W96945  24.227  30.220  10.569
28552W        W96946  43.936  38.737  14.813
28553W        W96947  10.769  42.359   2.364
28554W        W96948   6.149  13.682  13.357
28555W        W96949  20.632  23.959  12.987
28556W        W96950  11.815  44.201   0.907
28557W        W96951  37.984  22.071   0.456
28558W        W96952  12.425  23.173  12.068
28559W        W96953   9.842  10.350   1.424
28560W        W96954  25.763  10.653  12.870
28561W        W96955   3.140   5.731  10.984
28562W        W96956  10.169  28.592   4.346
28563W        W96957  28.032  36.232   4.227
28564W        W96958  41.447  37.633   4.015
28565W        W96959  13.074  11.578   1.848
28566W        W96960  14.502  12.196   2.761
28567W        W96961  26.874  14.909  12.674
28568W        W96962  44.267  39.730   1.292
28569W        W96963  10.641  10.360  13.569
28570W        W96964  26.404  41.230  14.231
28571W        W96965   2.798  37.111  12.929
28572W        W96966  11.635  10.094   1.901
28573W        W96967  38.959  35.901   3.066
28574W        W96968  21.225  16.855  11.345
28575W        W96969  27.060   2.504  10.288
28576W        W96970   3.447  39.520   4.444
28577W        W96971   6.363  30.333  14.424
28578W        W96972  34.964   8.785   3.182
28579W        W96973  43.223  19.756   3.352
28580W        W96974  11.588  44.913  12.808
28581W        W96975  30.001  44.359   0.259
28582W        W96976   8.910   6.308  11.094
28583W        W96977  32.367  32.482   1.419
28584W        W96978  11.315   7.977   4.040
28585W        W96979  15.101  24.214   2.595
28586W        W96980  17.626  14.570   0.032
28587W        W96981  44.669  36.425  14.934
28588W        W96982  41.370   6.244   2.726
28589W        W96983  33.850  13.251   2.731
28590W        W96984  42.541  27.862   1.744
28591W        W96985   9.843   4.193   1.920
28592W        W96986  43.716  15.781   2.791
28593W        W96987  22.415   6.866  11.580
28594W        W96988  37.256   8.357  11.920
28595W        W96989  19.076  18.631  11.869
28596W        W96990   4.585  14.283   4.201
28597W        W96991  40.606  18.686  13.469
28598W        W96992   1.648  23.579   0.327
28599W        W96993  31.186  38.594  14.077
28600W        W96994  15.822  17.407   5.515
28601W        W96995  25.167  23.498   1.624
28602W        W96996  20.512  15.558  11.010
28603W        W96997  24.736  18.875  11.519
28604W        W96998  35.579  38.813  13.957
28605W        W96999  33.059  13.771  12.922
28606W        W97000  38.146  15.328   3.634
28607W        W97001  20.122  39.437  12.031
28608W        W97002  38.020  33.624   3.315
28609W        W97003  43.888  34.020  11.146
28610W        W97004  17.750  39.142  14.802
28611W        W97005   4.198   4.018  13.318
28612W        W97006  42.119  41.050  11.662
28613W        W97007  36.699  22.107  13.163
28614W        W97008  28.120   8.192  14.897
28615W        W97009  39.772   5.994  12.526
28616W        W97010  19.141   5.252   3.092
28617W        W97011  30.566   4.128   5.030
28618W        W97012  24.482  17.360   4.129
28619W        W97013   7.726  14.338  11.177
28620W        W97014   6.157  10.434   3.564
28621W        W97015  39.533  11.171  12.977
28622W        W97016  30.637  31.124   4.154
28623W        W97017   0.245  44.214   2.872
28624W        W97018  11.170  18.757   1.827
28625W        W97019  17.805  40.835  11.208
28626W        W97020  36.609  43.329  12.479
28627W        W97021  13.564  36.820  12.267
28628W        W97022  12.390  23.285   3.925
28629W        W97023  30.203  35.912  13.866
28630W        W97024  40.062   9.332   0.947
28631W        W97025   2.158   5.247  14.371
28632W        W97026  26.446  30.774   5.093
28633W        W97027  13.467  36.018  14.472
28634W        W97028  22.108  32.233   5.159
28635W        W97029  10.898  34.075  11.865
28636W        W97030  31.500  30.660   2.391
28637W        W97031   3.035  27.540  14.337
28638W        W97032  32.632  24.793   1.364
28639W        W97033  34.461  19.363   1.644
28640W        W97034  19.968  35.399  12.651
28641W        W97035  43.047  23.191   2.804
28642W        W97036  42.813  30.753  12.476
28643W        W97037  16.636  17.672  14.981
28644W        W97038  41.777  25.879   2.217
28645W        W97039  14.314  17.212   1.694
28646W        W97040  17.643  30.671  12.599
28647W        W97041  38.473  44.951  14.343
28648W        W97042  25.821  11.814  10.209
28649W        W97043  15.844   7.475   1.002
28650W        W97044  26.677  12.473   3.242
28651W        W97045  23.643  34.516   4.864
28652W        W97046  40.053  32.058   4.599
28653W        W97047  37.831   2.351  11.885
28654W        W97048  12.532  14.775   0.477
28655W        W97049  42.458   0.605   2.869
28656W        W97050  20.030  28.725  12.078
28657W        W97051  34.098   5.898   3.203
28658W        W97052   8.262   4.796   0.205
28659W        W97053   4.943  29.475  14.178
28660W        W97054  24.879   1.813  11.069
28661W        W97055  40.831  28.623   4.356
28662W        W97056  11.037  22.559  13.932
28663W        W97057  23.721  29.349   4.191
28664W        W97058  12.428  17.114   0.776
28665W        W97059  30.891   8.197  13.425
28666W        W97060  20.697  37.417   4.470
28667W        W97061   6.463  35.035   3.276
28668W        W97062  22.368  29.468   2.178
28669W        W97063  36.160  37.865  14.374
28670W        W97064  20.600  40.931  10.429
28671W        W97065  36.377  36.684  12.586
28672W        W97066  34.749   8.145  11.634
28673W        W97067  23.998   8.112  13.830
28674W        W97068  28.167  34.941   3.890
28675W        W97069  11.997  33.015   2.283
28676W        W97070  43.832  27.702  14.216
28677W        W97071  19.169  32.647   4.326
28678W        W97072  42.899  39.926   3.724
28679W        W97073  38.378   7.189  14.389
28680W        W97074  13.821   3.136  14.702
28681W        W97075  10.145  31.749  11.618
28682W        W97076  38.169  42.935   3.721
28683W        W97077  10.102   3.058  13.341
28684W        W97078  31.542   5.332   2.714
28685W        W97079   7.585  27.704  14.859
28686W        W97080  35.827  42.821   4.711
28687W        W97081  39.933  20.059  13.014
28688W        W97082  15.022  36.325  11.888
28689W        W97083  26.326  17.389  11.936
28690W        W97084  39.394  23.771  13.510
28691W        W97085  43.975  40.562   0.300
28692W        W97086  40.218  18.612   0.276
28693W        W97087  42.002  19.142   0.371
28694W        W97088  22.492  15.376   3.203
28695W        W97089  27.700  44.317  11.247
28696W        W97090  43.036   7.401   1.753
28697W        W97091  26.564  40.834  11.579
28698W        W97092  42.504  42.858  11.593
28699W        W97093  10.114  39.075  10.759
28700W        W97094  10.387  11.371  10.765
28701W        W97095   1.976  35.581  12.080
28702W        W97096   8.698  40.070   0.426
28703W        W97097  23.204  26.027  14.421
28704W        W97098  22.464   3.776   2.830
28705W        W97099  40.911  40.965  12.558
28706W        W97100  32.084  41.326  12.499
28707W        W97101  41.912   7.916   2.832
28708W        W97102  43.983  12.818  11.226
28709W        W97103   5.856   0.259   1.469
28710W        W97104  35.070  22.217  13.256
28711W        W97105   9.359   8.238  11.016
28712W        W97106  12.311  16.650  10.759
28713W        W97107  28.968  42.769  12.373
28714W        W97108  41.437  26.447   1.038
28715W        W97109  18.233  41.786  12.573
28716W        W97110  39.717  34.064  14.448
28717W        W97111  14.811   6.856   2.521
28718W        W97112  16.879  16.481   4.589
28719W        W97113  31.745  37.254  13.558
28720W        W97114  37.505  27.462  12.050
28721W        W97115   6.320   1.326  13.987
28722W        W97116   9.699  14.169  11.930
28723W        W97117  26.680  26.429   3.581
28724W        W97118   6.604   3.201  11.648
28725W        W97119  39.321  14.200  13.578
28726W        W97120  11.515   8.740  11.476
28727W        W97121  32.903  28.572   2.216
28728W        W97122  41.958  20.891   3.945
28729W        W97123  11.551  15.192   3.236
28730W        W97124   4.693  27.377   2.636
28731W        W97125  20.731  23.934   1.731
28732W        W97126  27.638  21.904   4.256
28733W        W97127   8.399  16.144   2.704
28734W        W97128  19.812  12.057   1.186
28735W        W97129  20.268   1.867  10.107
28736W        W97130  15.590   6.507   1.360
28737W        W97131  35.348  14.766  11.557
28738W        W97132  17.912  23.985   4.057
28739W        W97133  36.293   3.894  14.347
28740W        W97134   7.450   5.340   4.158
28741W        W97135   6.024  18.803   3.568
28742W        W97136  22.611   4.641  12.228
28743W        W97137  36.447  12.235  12.905
28744W        W97138  38.329   5.420  11.979
28745W        W97139   6.255  41.687   1.619
28746W        W97140  37.888  10.142   1.552
28747W        W97141  38.428  21.279  11.971
28748W        W97142   8.820  26.646   0.783
28749W        W97143  40.668  32.939  11.086
28750W        W97144  42.996   7.573   4.677
28751W        W97145  41.850  44.389   3.189
28752W        W97146  24.506  42.977   2.585
28753W        W97147  36.308  20.591  13.397
28754W        W97148  26.247  36.443  10.507
28755W        W97149  34.840   5.398   0.753
28756W        W97150  34.913   3.836  12.148
28757W        W97151  42.941  27.702   1.465
28758W        W97152   9.686  36.855   3.341
28759W        W97153  31.498   9.325  10.954
28760W        W97154   4.238  43.556   2.004
28761W        W97155  40.472  42.597  11.618
28762W        W97156  31.950  18.739  10.614
28763W        W97157  39.117  11.795  12.444
28764W        W97158  29.045  12.113  11.067
28765W        W97159  17.506  22.034   3.025
28766W        W97160   9.322  30.572  11.654
28767W        W97161  34.986   8.844   4.694
28768W        W97162  17.582   7.936   4.601
28769W        W97163  14.605  42.867   3.695
28770W        W97164  38.163  44.794  12.009
28771W        W97165   6.221  27.717   3.445
28772W        W97166   2.725  12.539   0.487
28773W        W97167  21.735  16.766  13.997
28774W        W97168  42.705  37.118  11.186
28775W        W97169  26.430  30.178  11.352
28776W        W97170  37.994  21.293   4.610
28777W        W97171  34.070  42.805  12.084
28778W        W97172  15.466  15.140   3.372
28779W        W97173  16.586  19.102   4.377
28780W        W97174   3.523   3.834   0.956
28781W        W97175   9.178  11.189   4.035
28782W        W97176  43.981  12.860   2.065
28783W        W97177  18.663  34.400  11.189
28784W        W97178  43.516  42.431  12.105
28785W        W97179  19.496  30.958  12.883
28786W        W97180  21.714  21.164  12.081
28787W        W97181   1.328  20.700  12.095
28788W        W97182   7.465  22.134  11.166
28789W        W97183  32.323  21.733   4.692
28790W        W97184  18.798  34.624   3.443
28791W        W97185  12.039  43.304  11.095
28792W        W97186   9.129  39.491  12.603
28793W        W97187  17.879   6.116  11.894
28794W        W97188  21.541  44.224  13.319
28795W        W97189   4.851  42.360  12.146
28796W        W97190  11.894  28.207   1.754
28797W        W97191  22.607  32.867   4.437
28798W        W97192  41.076  34.147  14.508
28799W        W97193  25.496  22.782   0.435
28800W        W97194  43.488   4.169   2.919
28801W        W97195  42.423  18.504  12.405
28802W        W97196  26.404  32.962  14.943
28803W        W97197  11.942   0.563  14.369
28804W        W97198  32.665   6.104  10.603
28805W        W97199  17.643  21.149  12.543
28806W        W97200  31.524   6.450  14.524
28807W        W97201  37.417  13.079  14.409
28808W        W97202  11.818  41.844   2.264
28809W        W97203  25.643   7.683   3.875
28810W        W97204  34.242  17.816  11.125
28811W        W97205  22.601  22.226  14.917
28812W        W97206  15.645  12.684   0.488
28813W        W97207  28.505  18.364  11.225
28814W        W97208  43.349  12.991   3.378
28815W        W97209  44.146  29.553  14.955
28816W        W97210  15.113  29.389   0.275
28817W        W97211   6.326  23.087  11.623
28818W        W97212  13.605  41.751   2.731
28819W        W97213  34.089   7.175  12.934
28820W        W97214  40.691  10.229   3.576
28821W        W97215  36.523   7.907  13.439
28822W        W97216  17.719  12.156   4.135
28823W        W97217  42.930  11.064  14.221
28824W        W97218  15.145  26.913  14.332
28825W        W97219  16.718  29.592   2.334
28826W        W97220  41.494  28.231   2.384
28827W        W97221  44.963   0.931  13.989
28828W        W97222  42.068   5.590   1.651
28829W        W97223   8.448  27.832   1.335
28830W        W97224  36.916   5.766   4.518
28831W        W97225  42.554   6.135  12.988
28832W        W97226  30.656  21.182   4.513
28833W        W97227  41.112  37.883   2.735
28834W        W97228  27.475  15.189   1.380
28835W        W97229  13.904  36.819   0.973
28836W        W97230   7.910  15.197  11.948
28837W        W97231  13.318  20.017  11.041
28838W        W97232  12.768  19.611  14.485
28839W        W97233  20.270   0.507   4.193
28840W        W97234  26.960  41.335  13.366
28841W        W97235  20.269  35.634  13.074
28842W        W97236  10.736  34.323   1.110
28843W        W97237   8.838  42.788   0.919
28844W        W97238   8.904  11.237   2.777
28845W        W97239  40.536  41.377  14.934
28846W        W97240  32.138  14.792   4.151
28847W        W97241   5.184  27.130   1.748
28848W        W97242   3.222  13.229   4.136
28849W        W97243  18.573   4.445  12.560
28850W        W97244   3.455  41.832   0.762
28851W        W97245  28.443   1.771  14.867
28852W        W97246   0.711  26.939  12.643
28853W        W97247  34.785  25.955  12.489
28854W        W97248  43.988  33.917   3.875
28855W        W97249  27.153  10.531   3.649
28856W        W97250  28.003  15.213   0.482
28857W        W97251  13.685  20.146  12.131
28858W        W97252  12.735  22.749  12.272
28859W        W97253  29.885  29.413   0.703
28860W        W97254  16.116  31.430   0.597
28861W        W97255  34.897  30.967  12.896
28862W        W97256  15.308  37.320  13.771
28863W        W97257   1.005  23.139  13.440
28864W        W97258  17.983  34.908   3.274
28865W        W97259  43.796  38.090   3.485
28866W        W97260  24.656  35.562  13.494
28867W        W97261  17.860  44.849  13.492
28868W        W97262  18.326  24.070   3.698
28869W        W97263  26.293  32.871   4.120
28870W        W97264  15.804   9.509   2.154
28871W        W97265  21.147  18.787  12.927
28872W        W97266  12.620   8.353  14.413
28873W        W97267   4.323  38.335   2.688
28874W        W97268   4.259  29.690   1.754
28875W        W97269  39.343  27.731   3.665
28876W        W97270  29.500  43.271  10.454
28877W        W97271   6.156  24.589  11.900
28878W        W97272   2.403  16.193  13.351
28879W        W97273  33.475  19.301  11.685
28880W        W97274  21.930  10.425  10.653
28881W        W97275  39.295  31.491  12.110
28882W        W97276  22.305  43.908   0.870
28883W        W97277  19.868   2.065   4.846
28884W        W97278  25.447  42.315  11.632
28885W        W97279  38.441  31.679   0.930
28886W        W97280   3.246  31.738   4.108
28887W        W97281  34.454  39.466   1.216
28888W        W97282  11.399  13.762   4.271
28889W        W97283  42.136  20.658   0.332
28890W        W97284  36.475  27.143   4.240
28891W        W97285  39.855  39.320   3.143
28892W        W97286   5.381  23.493  14.682
28893W        W97287  41.435  10.825   2.182
28894W        W97288  44.056  13.146  10.667
28895W        W97289  21.585  42.486  11.586
28896W        W97290   4.912  29.927   2.783
28897W        W97291  18.690  44.344  10.884
28898W        W97292  40.383  20.353   0.758
28899W        W97293  33.685  41.420  11.231
28900W        W97294   5.101   4.699   3.570
28901W        W97295  22.494   3.847   3.384
28902W        W97296   0.803   3.303   2.467
28903W        W97297  29.480  27.674   3.241
28904W        W97298  14.464  12.362   0.877
28905W        W97299  30.155  24.574  14.353
28906W        W97300  15.715   3.844   1.719
28907W        W97301  25.202  27.730  11.367
28908W        W97302  33.612  36.983  12.872
28909W        W97303  39.392   3.979  12.057
28910W        W97304   1.366  19.904   4.974
28911W        W97305  23.826  36.131  10.792
28912W        W97306  43.658  29.952   0.633
28913W        W97307  37.621  24.681   3.635
28914W        W97308  27.963   2.521   0.018
28915W        W97309  24.541  35.536  14.011
28916W        W97310  39.833  31.440  14.336
28917W        W97311  28.805  14.821  12.876
28918W        W97312  18.253  16.153   4.963
28919W        W97313  26.074  13.783  12.912
28920W        W97314  31.758  40.999   2.782
28921W        W97315   5.755  33.707   2.806
28922W        W97316   6.208   3.833   3.190
28923W        W97317   6.402  40.601  14.721
28924W        W97318  41.263  31.523  14.575
28925W        W97319  25.884   9.565  10.816
28926W        W97320  14.724  14.134  12.909
28927W        W97321  37.345  36.027   4.689
28928W        W97322   1.928  33.966   0.753
28929W        W97323  16.322  14.802   2.402
28930W        W97324  13.616  27.592   1.249
28931W        W97325   2.508  12.145  13.778
28932W        W97326  42.655  38.115   4.548
28933W        W97327  25.174   5.925  10.606
28934W        W97328  14.623  41.870   0.837
28935W        W97329  39.922  17.348  10.706
28936W        W97330  44.124   6.549  13.813
28937W        W97331  40.402  43.942  10.735
28938W        W97332  37.424  40.567   0.757
28939W        W97333  43.837  41.075  14.586
28940W        W97334  38.376  38.337   2.235
28941W        W97335  25.487  18.959   3.305
28942W        W97336  15.069  13.241   1.775
28943W        W97337   3.956  24.572   1.421
28944W        W97338  35.216   1.273   3.273
28945W        W97339   5.313  33.460   3.605
28946W        W97340  29.503   4.400  13.859
28947W        W97341  36.683  10.826   2.463
28948W        W97342  35.192  12.380  10.973
28949W        W97343   0.771  12.789  14.411
28950W        W97344  21.173  21.272   4.573
28951W        W97345  36.136  39.862   0.748
28952W        W97346   6.099  17.596  13.816
28953W        W97347  28.437  39.565   0.185
28954W        W97348  34.066  27.411  13.468
28955W        W97349   8.811  22.119  12.537
28956W        W97350   7.976  43.922  13.406
28957W        W97351  41.418  32.320   2.197
28958W        W97352  17.205   1.483   2.340
28959W        W97353   6.459  36.952  14.764
28960W        W97354  13.608   3.811   4.592
28961W        W97355  38.984   8.102   5.005
28962W        W97356   5.797   8.091  10.431
28963W        W97357   8.564  23.608  10.286
28964W        W97358  40.421  41.939   0.024
28965W        W97359   2.708  25.453  12.864
28966W        W97360  37.817  11.922   3.375
28967W        W97361  25.961  18.817   4.638
28968W        W97362   3.187  27.521   0.453
28969W        W97363  17.211  36.453  10.958
28970W        W97364  27.574  44.383   1.958
28971W        W97365   5.325  23.303   0.186
28972W        W97366  40.267  35.935   2.803
28973W        W97367  10.220  33.505   1.444
28974W        W97368  36.980  23.676  12.431
28975W        W97369   7.803   8.676   1.208
28976W        W97370  21.683  16.809   9.797
28977W        W97371   9.301  30.209   0.354
28978W        W97372  14.155  40.288   3.245
28979W        W97373  38.091  37.923   2.351
28980W        W97374  18.045   9.176   0.283
28981W        W97375   3.215  25.899   2.811
28982W        W97376  21.982  12.307  13.476
28983W        W97377  42.719  19.594   4.052
28984W        W97378  17.454  31.748   0.514
28985W        W97379  10.704   8.173   4.262
28986W        W97380  25.427  40.469   4.284
28987W        W97381  41.486  24.930   2.076
28988W        W97382  36.929  18.609   1.813
28989W        W97383  18.135   2.426   0.452
28990W        W97384  14.137  37.006   4.659
28991W        W97385  11.231  19.000   1.283
28992W        W97386  32.937  39.051   0.973
28993W        W97387   1.765  20.724   2.185
28994W        W97388  10.447  27.388  13.093
28995W        W97389  41.305  11.682  13.461
28996W        W97390  38.999  14.459   4.038
28997W        W97391  18.319   5.891   0.328
28998W        W97392  31.944  17.769   3.141
28999W        W97393  22.214  34.345   2.187
29000W        W97394  43.807  30.775   2.622
29001W        W97395  19.143  27.537  13.425
29002W        W97396  19.333  33.568   3.291
29003W        W97397  19.004  27.060   0.689
29004W        W97398  43.248  36.028  13.457
29005W        W97399  12.656   5.748   2.373
29006W        W97400  21.500  31.254  13.508
29007W        W97401   7.892  10.191  10.283
29008W        W97402  29.477   5.896   3.737
29009W        W97403  29.095   8.317  10.824
29010W        W97404  43.040  17.662  12.694
29011W        W97405  40.488   8.617  14.729
29012W        W97406  30.489   6.895   2.199
29013W        W97407  36.425  15.936   3.731
29014W        W97408  44.332  25.174  12.886
29015W        W97409  31.126   1.751   1.259
29016W        W97410  21.261  12.829  12.085
29017W        W97411   5.937  16.105   4.235
29018W        W97412  15.149  28.289   2.033
29019W        W97413  30.766   4.827  10.672
29020W        W97414  31.153   6.743   3.038
29021W        W97415  40.314  14.771  12.527
29022W        W97416  18.877  10.281   3.580
29023W        W97417  42.533  19.001  12.600
29024W        W97418  34.822  23.506  10.387
29025W        W97419  16.709  27.900  13.272
29026W        W97420  10.735  14.623   1.687
29027W        W97421  37.415  25.875  12.160
29028W        W97422   4.119   6.766  14.224
29029W        W97423  32.710  32.260   4.167
29030W        W97424   5.682  26.061   4.571
29031W        W97425  25.442  28.719  11.193
29032W        W97426  32.471   7.929  12.440
29033W        W97427   0.287   3.887   1.309
29034W        W97428  19.125  18.666   0.936
29035W        W97429  17.634  34.026  14.716
29036W        W97430  30.175   4.865  13.822
29037W        W97431  31.934  21.026   4.120
29038W        W97432  37.806  39.113  12.922
29039W        W97433  27.270   3.307  12.964
29040W        W97434  20.194  31.021  13.490
29041W        W97435  19.629  30.016   1.844
29042W        W97436   2.382  44.075  13.154
29043W        W97437  38.386   0.334   3.449
29044W        W97438   5.446  35.690  13.267
29045W        W97439  40.899  26.391  11.275
29046W        W97440  18.523   8.293  12.583
29047W        W97441  36.621  29.858  11.093
29048W        W97442  16.307   4.762  14.460
29049W        W97443  19.290  24.662  12.503
29050W        W97444  22.232  21.035   1.107
29051W        W97445  20.622   1.076   1.418
29052W        W97446  19.234  39.309  12.890
29053W        W97447  15.475  22.551   2.475
29054W        W97448   3.245  23.706   1.953
29055W        W97449  33.062  29.179  10.479
29056W        W97450  41.315  44.854   1.337
29057W        W97451  10.560  16.929  14.518
29058W        W97452  36.747   7.725  11.037
29059W        W97453  39.669   5.519  11.639
29060W        W97454  34.632   2.634   3.197
29061W        W97455   7.300  35.455   4.405
29062W        W97456  22.106  34.100  12.055
29063W        W97457  30.749  26.978  10.543
29064W        W97458  36.341  20.682  12.512
29065W        W97459  29.053  12.189   0.039
29066W        W97460  27.561  16.005   2.096
29067W        W97461  10.277  36.536  11.838
29068W        W97462  40.480   3.953   1.818
29069W        W97463   0.405  23.535   1.803
29070W        W97464   7.608  34.650  10.725
29071W        W97465   4.771  18.894  13.911
29072W        W97466  12.700  20.144   0.693
29073W        W97467   3.293  35.602   3.207
29074W        W97468   8.274  27.118  13.313
29075W        W97469  44.234  35.524   2.782
29076W        W97470  32.344   6.748  12.920
29077W        W97471  25.336  38.427  14.237
29078W        W97472  16.378  35.125   0.287
29079W        W97473  18.237   6.257  10.240
29080W        W97474  27.441  31.932  12.088
29081W        W97475  31.070   2.715  10.520
29082W        W97476  13.968  27.178   4.256
29083W        W97477   1.401   9.633   2.089
29084W        W97478  38.474   8.344  11.348
29085W        W97479  15.355   8.867   1.463
29086W        W97480   1.026  22.184   1.689
29087W        W97481  18.725  26.468  12.667
29088W        W97482  32.220  34.439   2.210
29089W        W97483  13.325  26.444  10.711
29090W        W97484  31.173  44.300  12.421
29091W        W97485  36.699  26.913  11.938
29092W        W97486  34.824  21.700   0.816
29093W        W97487  27.712  43.039   2.124
29094W        W97488   1.170  40.450  12.339
29095W        W97489   1.482   4.232  12.480
29096W        W97490   7.286  42.494  14.594
29097W        W97491  28.375   5.755   2.169
29098W        W97492  21.020  15.749   2.562
29099W        W97493   1.748  28.432  12.437
29100W        W97494  33.652  27.623   1.402
29101W        W97495   2.820  36.836   1.019
29102W        W97496  18.463   3.834  13.961
29103W        W97497  40.636  19.804  14.813
29104W        W97498  17.140   9.415   0.476
29105W        W97499  37.272  19.688   3.004
29106W        W97500   6.075   2.511  12.556
29107W        W97501   9.208  30.130   4.509
29108W        W97502  39.324  34.887   4.517
29109W        W97503   6.474  20.291  13.060
29110W        W97504  28.108   8.784  13.423
29111W        W97505   8.611   6.839   4.799
29112W        W97506  36.586   5.340   3.379
29113W        W97507   9.862  24.576  11.820
29114W        W97508  31.332  35.471   3.989
29115W        W97509   8.840  11.711   0.336
29116W        W97510  37.521  42.265  12.502
29117W        W97511  31.905  18.827  11.535
29118W        W97512  27.909  11.730   0.529
29119W        W97513  44.845  15.096   0.225
29120W        W97514  32.199  10.262   1.339
29121W        W97515  21.324  24.913   0.218
29122W        W97516  22.566  33.986   0.190
29123W        W97517  40.083  23.722  11.071
29124W        W97518  35.078  35.483  11.486
29125W        W97519  17.542   2.649  12.600
29126W        W97520  37.058   0.990  12.516
29127W        W97521  27.494  29.898   2.395
29128W        W97522  13.314  43.564  10.837
29129W        W97523  35.463  31.224  12.013
29130W        W97524  36.468   3.176  10.376
29131W        W97525  41.427  11.012  10.661
29132W        W97526  12.005  42.755   0.217
29133W        W97527   7.706  44.074  12.124
29134W        W97528   1.438  10.608  13.487
29135W        W97529  37.425  41.994  13.894
29136W        W97530   3.005  28.483   1.950
29137W        W97531  10.809   4.042   1.660
29138W        W97532  37.974  18.090   1.841
29139W        W97533  32.197  43.563  12.769
29140W        W97534  43.280  13.603  14.955
29141W        W97535   5.059  16.293  12.072
29142W        W97536  13.783   2.201  10.744
29143W        W97537   2.160  27.332  12.806
29144W        W97538   3.949  10.138  10.612
29145W        W97539  13.369   4.051   4.977
29146W        W97540   6.320  35.456   1.005
29147W        W97541  20.684   6.215  14.433
29148W        W97542  19.593   8.851   4.512
29149W        W97543  25.010   9.406   4.040
29150W        W97544  40.805   5.501  10.654
29151W        W97545  36.467  25.296  13.467
29152W        W97546  12.955  28.161  10.846
29153W        W97547  41.920   7.699   2.359
29154W        W97548   4.365  39.991   1.866
29155W        W97549   2.283  18.555   3.257
29156W        W97550  32.889  39.404   2.255
29157W        W97551  32.686  15.756   2.539
29158W        W97552   9.055   6.971   2.963
29159W        W97553   1.522  18.793   1.284
29160W        W97554  35.193  40.352  14.726
29161W        W97555  26.352  42.012  10.547
29162W        W97556  15.845  33.090   1.392
29163W        W97557  42.356   1.928  14.892
29164W        W97558  28.147  15.643   1.381
29165W        W97559  42.718  29.108   0.523
29166W        W97560  30.403   9.742  14.859
29167W        W97561  41.787  28.699  12.954
29168W        W97562  30.076  18.069   2.180
29169W        W97563   5.400  33.844   3.158
29170W        W97564  31.866  31.755   2.271
29171W        W97565  23.737   5.097  12.704
29172W        W97566  37.430  18.310   0.268
29173W        W97567  31.381   9.273  10.460
29174W        W97568  25.669  12.786   4.390
29175W        W97569   1.295  34.650   4.134
29176W        W97570  40.459   6.380  10.550
29177W        W97571  18.814  44.879  13.569
29178W        W97572  42.945  29.143   3.586
29179W        W97573  41.305   7.454   1.214
29180W        W97574  22.668  16.779  12.534
29181W        W97575  26.499  26.145   2.951
29182W        W97576  27.042  34.073   0.925
29183W        W97577  36.491   5.278  11.048
29184W        W97578   0.259  19.620  11.205
29185W        W97579  17.198   3.532   3.756
29186W        W97580  11.265  24.983   4.007
29187W        W97581  12.125  38.051   2.423
29188W        W97582   8.219   6.664  12.696
29189W        W97583   3.294  43.379  10.958
29190W        W97584  42.337  14.719  12.491
29191W        W97585  24.519  39.752  11.409
29192W        W97586   1.243   6.828  11.975
29193W        W97587  38.840  29.822   2.591
29194W        W97588  43.018  13.395   3.480
29195W        W97589  32.694  39.211   5.053
29196W        W97590  24.204  12.348   4.032
29197W        W97591  17.489  40.399  11.096
29198W        W97592  12.768  20.690   3.077
29199W        W97593  42.815  22.638  10.805
29200W        W97594  14.339  13.818  12.419
29201W        W97595  19.217  31.821   0.729
29202W        W97596  43.674  26.769  12.048
29203W        W97597  23.868  15.480  12.371
29204W        W97598   1.481  11.130  13.475
29205W        W97599  18.036   9.665  13.012
29206W        W97600  16.053  42.399  12.098
29207W        W97601  12.687  29.999   3.246
29208W        W97602  11.606  34.267   2.951
29209W        W97603  12.083   9.135   3.542
29210W        W97604  23.121  18.549  12.071
29211W        W97605   6.415  40.301  12.673
29212W        W97606  14.623  28.565  10.966
29213W        W97607  11.864   0.075  14.246
29214W        W97608   6.700  38.947   3.876
29215W        W97609  28.275  36.828  10.756
29216W        W97610  24.385  11.084  13.033
29217W        W97611  26.539  39.532   2.144
29218W        W97612   6.026  31.517   1.922
29219W        W97613  44.496   7.239  13.110
29220W        W97614  40.770  23.938  13.563
29221W        W97615  21.340  12.751  13.868
29222W        W97616  26.509  30.154  10.843
29223W        W97617  15.810  25.071  12.974
29224W        W97618   1.425  32.137   1.840
29225W        W97619   9.863  24.497  13.080
29226W        W97620  30.616  23.999  12.010
29227W        W97621   3.245  25.716  10.657
29228W        W97622   0.133  31.434   4.440
29229W        W97623  19.247  21.036  11.351
29230W        W97624  16.639   7.204  14.480
29231W        W97625  34.657  44.672   2.833
29232W        W97626  25.562  17.353  13.294
29233W        W97627  35.550  18.118   2.755
29234W        W97628  44.005  23.341   4.081
29235W        W97629   0.972  12.292  14.350
29236W        W97630   5.337  14.127  13.813
29237W        W97631  29.546  29.206   2.787
29238W        W97632  39.607  10.818   1.430
29239W        W97633   7.494   3.824  12.784
29240W        W97634  37.895  37.068   1.795
29241W        W97635   4.859  23.725  10.675
29242W        W97636  29.512  24.920   3.235
29243W        W97637  10.629  35.849  12.488
29244W        W97638  36.446   1.298   0.342
29245W        W97639   0.784   2.655  11.498
29246W        W97640  36.966  36.944  10.816
29247W        W97641   6.693  27.679  10.197
29248W        W97642  24.256  29.616  11.539
29249W        W97643   3.030  35.931  13.462
29250W        W97644  21.949  39.518   5.020
29251W        W97645  36.873  43.045  14.328
29252W        W97646   2.533  20.739  14.341
29253W        W97647   1.875  33.044   2.348
29254W        W97648  10.921   3.222   1.313
29255W        W97649  16.432   6.449  11.769
29256W        W97650  26.726  31.450  13.422
29257W        W97651  27.098  29.709   3.925
29258W        W97652  43.095  13.390   1.792
29259W        W97653  19.076  42.237   2.246
29260W        W97654   9.789   3.233  14.047
29261W        W97655   3.210  38.012  11.532
29262W        W97656  11.062  20.181   1.868
29263W        W97657  34.653  43.521   4.864
29264W        W97658   2.681  31.881  14.797
29265W        W97659   1.769  19.881  12.375
29266W        W97660  40.513  38.912  11.170
29267W        W97661  20.066  29.247   0.081
29268W        W97662   1.680   2.756   0.350
29269W        W97663  35.533  39.564  12.915
29270W        W97664  27.189  20.603  10.674
29271W        W97665   5.206  43.384  13.660
29272W        W97666  36.511  37.381  13.550
29273W        W97667  13.242  12.200  12.555
29274W        W97668  26.644  17.820  12.067
29275W        W97669  18.355  18.290  14.762
29276W        W97670   5.483  37.977  11.129
29277W        W97671  16.964   9.346  13.390
29278W        W97672  22.433  43.435   3.135
29279W        W97673  15.156   0.904  11.165
29280W        W97674  19.771  19.146   4.184
29281W        W97675  34.799  15.226  14.883
29282W        W97676  41.108   7.954   0.629
29283W        W97677  20.730  36.465   2.816
29284W        W97678  10.952  40.531   0.276
29285W        W97679  31.855   7.099   0.844
29286W        W97680   5.690  19.192  14.846
29287W        W97681  15.102  43.941   4.732
29288W        W97682   7.940  26.941   2.328
29289W        W97683   7.021   4.366  13.547
29290W        W97684  31.050  30.858   5.008
29291W        W97685  10.435  24.661   3.693
29292W        W97686  22.181  31.243   1.717
29293W        W97687  25.151  33.256   1.486
29294W        W97688  13.588   3.856  10.778
29295W        W97689   4.188  31.269  13.901
29296W        W97690  39.070  34.999  12.383
29297W        W97691   2.553   7.895  11.646
29298W        W97692  32.858   6.172  14.562
29299W        W97693  17.744  18.400  11.613
29300W        W97694   4.861   0.311  14.012
29301W        W97695  16.211  10.245   2.590
29302W        W97696  26.535  37.135  11.095
29303W        W97697  26.569  31.871   2.705
29304W        W97698   2.320   7.510  11.403
29305W        W97699  21.108  43.563  12.035
29306W        W97700   3.335  41.298  12.779
29307W        W97701  40.833  29.434   1.872
29308W        W97702  23.615  31.564   2.129
29309W        W97703  32.115   9.328  10.543
29310W        W97704  39.995  21.938   4.558
29311W        W97705  22.974   2.818  12.487
29312W        W97706   4.965   1.961   5.017
29313W        W97707  21.741  35.948  13.679
29314W        W97708  21.780  30.551   1.005
29315W        W97709   4.875  15.566   5.455
29316W        W97710   6.359  20.786  11.099
29317W        W97711  42.775  15.712   3.694
29318W        W97712  10.637   2.062   0.745
29319W        W97713  26.834  14.108  11.127
29320W        W97714  26.986   9.799   4.842
29321W        W97715  43.691   4.749   1.691
29322W        W97716  18.800  33.408  14.852
29323W        W97717  42.821  29.573   3.909
29324W        W97718  10.796   9.901   1.358
29325W        W97719  43.869  37.836  13.558
29326W        W97720  14.737  18.707   2.652
29327W        W97721   0.274   2.433  13.869
29328W        W97722  23.479  30.075  13.574
29329W        W97723  40.376  39.865  12.044
29330W        W97724  22.998  16.274  14.026
29331W        W97725  11.359  15.858   4.088
29332W        W97726  24.281  35.512   0.341
29333W        W97727  16.875  34.487  13.526
29334W        W97728  17.192  18.269   0.445
29335W        W97729  27.751  30.916   0.956
29336W        W97730   7.429  10.327   0.222
29337W        W97731  27.932  32.905   0.364
29338W        W97732  23.097  44.379   4.159
29339W        W97733  28.051   1.414  11.700
29340W        W97734  25.097  16.245  13.310
29341W        W97735   0.978  42.343  14.823
29342W        W97736  37.281  25.186   1.810
29343W        W97737  34.870  20.913  10.326
29344W        W97738   3.153  25.819   1.007
29345W        W97739  35.207  17.934  11.256
29346W        W97740  22.088  39.817   2.210
29347W        W97741  18.017  41.450  10.586
29348W        W97742  25.053  17.861  11.930
29349W        W97743  21.160  27.206   0.732
29350W        W97744  35.045   7.890  13.535
29351W        W97745  40.367  10.854  12.610
29352W        W97746  44.459  14.776   0.987
29353W        W97747  12.089   1.099  13.759
29354W        W97748  23.897   1.291  12.560
29355W        W97749  25.729   6.503  11.190
29356W        W97750  36.378  28.950   4.058
29357W        W97751  43.840  17.761   1.013
29358W        W97752   7.236   7.083   4.714
29359W        W97753   0.932   0.816   2.906
29360W        W97754  23.438  32.170   1.228
29361W        W97755  43.800  15.359  14.325
29362W        W97756   5.839  43.247   0.726
29363W        W97757  33.675  33.623   2.891
29364W        W97758  14.405  44.500   3.689
29365W        W97759   5.404  12.097  11.115
29366W        W97760  31.116  19.656   2.251
29367W        W97761   0.870   8.649   4.370
29368W        W97762   6.830   5.339   2.326
29369W        W97763  34.451  38.343   1.239
29370W        W97764  19.805  28.529   1.913
29371W        W97765  28.894  38.770   0.426
29372W        W97766  41.875  18.133   2.340
29373W        W97767  29.675  24.705   1.910
29374W        W97768  39.949  44.587   0.270
29375W        W97769  43.243  37.125   3.572
29376W        W97770  29.670  32.326  11.408
29377W        W97771  32.497  26.179   0.861
29378W        W97772  10.191  43.954   3.391
29379W        W97773  40.333  34.856  13.142
29380W        W97774   8.267  14.836  14.185
29381W        W97775  20.339  15.923  11.555
29382W        W97776  11.831  29.838  10.819
29383W        W97777  20.280  10.886  12.645
29384W        W97778  17.172  24.024  11.071
29385W        W97779  39.575  41.336   0.923
29386W        W97780  23.194   5.780  11.658
29387W        W97781  13.985  22.505   2.973
29388W        W97782  27.853   1.004  13.998
29389W        W97783  16.879  13.636  11.154
29390W        W97784  27.042  29.950   4.512
29391W        W97785  21.039   7.312  14.863
29392W        W97786  20.169  16.120   2.854
29393W        W97787   2.779   4.377  13.707
29394W        W97788  30.892  29.621  14.920
29395W        W97789   3.175  42.561  14.631
29396W        W97790   8.510  18.595   3.468
29397W        W97791  39.945  38.070   1.288
29398W        W97792  37.385  34.160  13.498
29399W        W97793  26.207   3.323   3.198
29400W        W97794  35.508  31.905  12.402
29401W        W97795  36.317  12.071   0.221
29402W        W97796  11.702  44.304  11.105
29403W        W97797  40.046  38.965  14.678
29404W        W97798  21.445   4.285   1.398
29405W        W97799  37.288   4.438   2.069
29406W        W97800  31.911   3.775   4.983
29407W        W97801  33.424   6.762   1.795
29408W        W97802  17.110   3.000  11.203
29409W        W97803  32.532  12.713   1.198
29410W        W97804  16.719   1.810   2.915
29411W        W97805   8.189  14.420  13.384
29412W        W97806  15.248   8.427   2.672
29413W        W97807  13.818  19.809  12.900
29414W        W97808  35.867  18.813  11.089
29415W        W97809   6.354  15.056   3.287
29416W        W97810   2.246  20.512   1.913
29417W        W97811  37.866  34.570  10.136
29418W        W97812  12.352  27.035   1.289
29419W        W97813  32.851   7.679  13.228
29420W        W97814   3.472  17.787  12.448
29421W        W97815  26.718  13.208   0.321
29422W        W97816  11.775  13.080  14.391
29423W        W97817  37.151  40.576   0.308
29424W        W97818  20.186  33.872   4.166
29425W        W97819  44.326  29.110   3.037
29426W        W97820  10.267   0.296   2.709
29427W        W97821  26.505  16.005   0.012
29428W        W97822  14.717  17.992   4.790
29429W        W97823  36.452  24.220  14.479
29430W        W97824  34.759   9.145  11.211
29431W        W97825  40.008  14.182   1.721
29432W        W97826  39.312   1.959   1.764
29433W        W97827  16.190  41.387   3.378
29434W        W97828   0.727  38.045  12.532
29435W        W97829  15.178  17.410  13.457
29436W        W97830   5.234  36.784   4.687
29437W        W97831  31.007  20.065  11.906
29438W        W97832  19.120  37.535  13.514
29439W        W97833  29.566  28.912  13.323
29440W        W97834  13.120  30.919   3.131
29441W        W97835  34.144   7.923   0.803
29442W        W97836  16.804  14.781   0.411
29443W        W97837  23.292  26.556  14.818
29444W        W97838  39.267  26.219  14.329
29445W        W97839  18.453  19.322  11.322
29446W        W97840  21.955  25.196   4.155
29447W        W97841  31.785  28.160   5.095
29448W        W97842   9.330  25.340   3.340
29449W        W97843  33.554  30.123  11.456
29450W        W97844  28.557  12.851  12.676
29451W        W97845  13.903  25.960   1.907
29452W        W97846   4.798  19.598   0.909
29453W        W97847   0.180  43.678  13.936
29454W        W97848  29.704  21.294  12.924
29455W        W97849  39.362  32.786  10.750
29456W        W97850  10.057  31.648   4.173
29457W        W97851   1.005  13.781  14.233
29458W        W97852  33.350  41.947   0.022
29459W        W97853  27.246  39.449  12.497
29460W        W97854  22.590  42.029   1.633
29461W        W97855  31.586  25.118   4.630
29462W        W97856  31.638   8.157   3.752
29463W        W97857  26.233  35.512  13.689
29464W        W97858   6.691  41.335   2.351
29465W        W97859  28.265  11.724  10.585
29466W        W97860  19.583   5.780   0.872
29467W        W97861   4.928  28.960   4.310
29468W        W97862  27.977  10.791   0.874
29469W        W97863  31.429   6.623  12.920
29470W        W97864  11.183  44.142  13.770
29471W        W97865  13.378  32.270  11.186
29472W        W97866  25.690  25.605   4.538
29473W        W97867  37.342  21.661   3.696
29474W        W97868  38.056   9.986  12.492
29475W        W97869   2.155  11.665   1.864
29476W        W97870   8.711  10.751   2.824
29477W        W97871   9.906  16.758  13.041
29478W        W97872  26.114  33.076  13.765
29479W        W97873  22.239  12.237   0.696
29480W        W97874   0.035  30.896  11.575
29481W        W97875  24.275  35.966   0.984
29482W        W97876   8.076  25.199   3.644
29483W        W97877   2.788  21.564   3.779
29484W        W97878  20.902   5.537   1.475
29485W        W97879  24.753  19.694  13.392
29486W        W97880  37.892  25.199  11.088
29487W        W97881   2.697  37.212   0.656
29488W        W97882  30.950  36.449   2.215
29489W        W97883  36.912  30.930  13.746
29490W        W97884   8.323  26.425   1.291
29491W        W97885  38.964  15.317  14.679
29492W        W97886  31.984  11.352   2.597
29493W        W97887  14.188  12.999  10.464
29494W        W97888  14.254   6.738  14.427
29495W        W97889  21.209  44.729   0.472
29496W        W97890  15.792  15.699   5.067
29497W        W97891  11.585  14.906   4.594
29498W        W97892  40.057  37.744   0.729
29499W        W97893  18.748  41.280  13.116
29500W        W97894  11.525  24.443  11.166
29501W        W97895   2.613  39.365   4.285
29502W        W97896   9.238  12.573  14.994
29503W        W97897  16.864  36.083  10.926
29504W        W97898  32.359  29.076   4.638
29505W        W97899  27.520  24.613   4.287
29506W        W97900  12.268  26.209   3.416
29507W        W97901  15.101  26.799  12.973
29508W        W97902  25.080  40.860   4.344
29509W        W97903  38.032  10.164  11.188
29510W        W97904  26.972  38.415   2.252
29511W        W97905  16.154  37.036   0.679
29512W        W97906  25.901   4.859  11.934
29513W        W97907  41.225  27.637   3.792
29514W        W97908   3.511  31.523  11.557
29515W        W97909   5.377  24.433  13.015
29516W        W97910   5.627   2.554  13.535
29517W        W97911   5.416   5.165  11.946
29518W        W97912  29.627  14.209  13.293
29519W        W97913   1.753  23.230  12.916
29520W        W97914  29.134  13.787  14.508
29521W        W97915  14.361  16.267   0.738
29522W        W97916   8.484   6.386   3.698
29523W        W97917  17.669  43.704  13.990
29524W        W97918  25.887  26.505  13.513
29525W        W97919   0.702  11.854   1.987
29526W        W97920  39.040  17.555   3.722
29527W        W97921   9.119   2.804  11.965
29528W        W97922  25.022  26.600  12.058
29529W        W97923  31.130   0.656  11.134
29530W        W97924  36.063  12.806   4.085
29531W        W97925   7.337  15.514  13.127
29532W        W97926  18.335  26.180  14.030
29533W        W97927  40.312  37.665  14.715
29534W        W97928   4.849  25.155   3.646
29535W        W97929  34.838  26.171   3.913
29536W        W97930  21.968   1.201   1.381
29537W        W97931  35.325  21.935   2.567
29538W        W97932   6.282   1.985  13.808
29539W        W97933  19.258  27.685  12.598
29540W        W97934  25.715  11.139  12.061
29541W        W97935  22.495  12.669   0.825
29542W        W97936  33.102  29.655  10.267
29543W        W97937  37.049  31.770  13.147
29544W        W97938  37.071   1.408  10.521
29545W        W97939   4.828   7.406  11.956
29546W        W97940  38.263   2.675   4.765
29547W        W97941  23.748  16.721   1.180
29548W        W97942   8.562  11.811  13.048
29549W        W97943  20.589  26.523  12.340
29550W        W97944  33.333   2.176  11.563
29551W        W97945  35.105   4.419   4.333
29552W        W97946   7.737   6.961   4.538
29553W        W97947  37.556   1.953  11.617
29554W        W97948  16.028  41.986  11.270
29555W        W97949   0.719   8.260  10.638
29556W        W97950  19.385  28.909   2.806
29557W        W97951  38.941   9.065   4.872
29558W        W97952  32.099  42.403   1.279
29559W        W97953  39.171   9.630   3.681
29560W        W97954  34.328  23.522   0.863
29561W        W97955  16.254  33.876   3.204
29562W        W97956  23.439   3.918   3.724
29563W        W97957  17.574  32.924  11.909
29564W        W97958  34.029  44.883   1.845
29565W        W97959  39.850  28.095   3.103
29566W        W97960   0.849  22.319   4.292
29567W        W97961  41.286  26.639  11.519
29568W        W97962  14.756  10.301  11.431
29569W        W97963  41.965  25.592  13.387
29570W        W97964   5.444  26.148   0.514
29571W        W97965   1.058   3.724   2.275
29572W        W97966  44.743   6.915   1.313
29573W        W97967  43.457  16.324   0.204
29574W        W97968   3.720   5.522  12.513
29575W        W97969   0.502  13.353  12.125
29576W        W97970  33.542   4.448  11.941
29577W        W97971  30.353  13.050  12.283
29578W        W97972   6.932   1.278  10.206
29579W        W97973   6.243  24.611   4.159
29580W        W97974  29.549   7.414   9.713
29581W        W97975  29.875  40.771  12.395
29582W        W97976   9.392  10.785  13.852
29583W        W97977   5.740  43.030   0.271
29584W        W97978  36.704   3.478   5.363
29585W        W97979   2.545  41.512  10.629
29586W        W97980   0.273  32.180  14.060
29587W        W97981  23.623  39.282  13.459
29588W        W97982  44.777  20.700  13.959
29589W        W97983  26.171  32.145   3.467
29590W        W97984  36.877  32.481   4.567
29591W        W97985  26.793  43.572  13.485
29592W        W97986  42.240  30.800   1.221
29593W        W97987   4.679   3.278  11.018
29594W        W97988  15.644  14.285   4.398
29595W        W97989   0.194  44.770   2.869
29596W        W97990  26.563  23.259   0.580
29597W        W97991  20.528  33.425   1.818
29598W        W97992   9.608  20.618  10.533
29599W        W97993  39.950   5.604   1.350
29600W        W97994  10.304  19.974   3.161
29601W        W97995  25.893  29.037  14.488
29602W        W97996  36.814  43.796   0.852
29603W        W97997   0.742  26.397  12.672
29604W        W97998  12.595  42.091  13.020
29605W        W97999  10.940  28.891   4.495
29606W        W98000  20.970   8.377   0.921
29607W        W98001  10.631   4.826  13.427
29608W        W98002   6.141  40.259   2.628
29609W        W98003  33.410  32.634   1.330
29610W        W98004   8.035  23.874  13.805
29611W        W98005  42.934  16.215  10.426
29612W        W98006  21.278  16.139  14.509
29613W        W98007   3.989  40.289   4.167
29614W        W98008  44.966  26.509   1.404
29615W        W98009  14.078  42.594  11.084
29616W        W98010  10.362  20.667   1.774
29617W        W98011  10.868   9.527   0.356
29618W        W98012   0.744  37.303   1.777
29619W        W98013  40.470  31.918   4.299
29620W        W98014  11.381   7.143  12.990
29621W        W98015  23.637   7.254  12.183
29622W        W98016  13.568  34.947  14.157
29623W        W98017  30.181   9.701   4.414
29624W        W98018  15.171   8.105  11.566
29625W        W98019  19.122   9.634   1.336
29626W        W98020   9.311   0.643  14.016
29627W        W98021  37.344  10.405  12.496
29628W        W98022  36.951  40.118   0.434
29629W        W98023   5.802  44.091   4.930
29630W        W98024  29.097  12.389  12.004
29631W        W98025  10.092   2.919   2.668
29632W        W98026  40.453  13.855  13.917
29633W        W98027  43.341  28.977  12.242
29634W        W98028  22.398  19.649   3.893
29635W        W98029  16.759   4.992  14.516
29636W        W98030  10.919  15.742   0.854
29637W        W98031  42.165  31.175   2.708
29638W        W98032  22.071  25.616  14.917
29639W        W98033  13.472   7.805   5.031
29640W        W98034  18.772  37.806   3.683
29641W        W98035  24.054   6.738  10.447
29642W        W98036  10.123   4.497  13.556
29643W        W98037   1.110  31.238  10.386
29644W        W98038   9.921  27.762   4.170
29645W        W98039  20.041  18.138  12.601
29646W        W98040  11.885  35.488   4.293
29647W        W98041  25.747  39.862   3.057
29648W        W98042  11.630  22.489  11.225
29649W        W98043  39.352  38.870  12.816
29650W        W98044   7.349  38.611  10.854
29651W        W98045  11.360   2.495  10.836
29652W        W98046   3.526  32.887   0.276
29653W        W98047  32.547  19.823   5.105
29654W        W98048  22.996  16.870  13.215
29655W        W98049  40.519  10.402   4.544
29656W        W98050  18.547  11.457   0.343
29657W        W98051  20.587  23.449  12.849
29658W        W98052  29.717  36.625  10.789
29659W        W98053  26.166  42.778  10.168
29660W        W98054  28.952  25.058   0.501
29661W        W98055  41.306  14.579  12.460
29662W        W98056   8.343   7.424   3.877
29663W        W98057  39.404   3.846   0.959
29664W        W98058  27.824   0.472   0.286
29665W        W98059   9.125  36.118  12.521
29666W        W98060  21.213  32.799  11.920
29667W        W98061   5.641  16.851  14.895
29668W        W98062  44.915   2.609  11.082
29669W        W98063  28.960   3.698   1.282
29670W        W98064  12.808  28.992   2.427
29671W        W98065   8.373  31.250  14.803
29672W        W98066  32.894  30.193   1.398
29673W        W98067  14.738  10.629   3.794
29674W        W98068  24.623  18.146  11.939
29675W        W98069  36.509  35.792  11.200
29676W        W98070  29.135   0.119  13.430
29677W        W98071  16.979  39.051   3.251
29678W        W98072  19.548  30.446  11.540
29679W        W98073  40.778  43.873  14.746
29680W        W98074  27.748  17.599   4.241
29681W        W98075  26.365   1.471   4.216
29682W        W98076   4.015   3.811  11.707
29683W        W98077  15.085  25.143  11.983
29684W        W98078  19.723  15.288   4.184
29685W        W98079  18.724  31.501   3.944
29686W        W98080  34.757   9.867  11.042
29687W        W98081  31.581  32.759   0.398
29688W        W98082  26.208   0.853   3.206
29689W        W98083   7.642  18.644  11.478
29690W        W98084  11.453  38.261   2.797
29691W        W98085   0.537  42.639  14.767
29692W        W98086   0.123  11.258   2.571
29693W        W98087  26.621   8.730   4.549
29694W        W98088  27.501  33.205   0.365
29695W        W98089  28.529  20.812   2.368
29696W        W98090  15.735  37.042   0.327
29697W        W98091   8.434  34.471   9.709
29698W        W98092  27.394  44.021   2.336
29699W        W98093   8.818  25.424   0.230
29700W        W98094   2.962  31.497   1.506
29701W        W98095  18.408  13.344  12.053
29702W        W98096  27.132  41.621   3.705
29703W        W98097  28.123   4.412   9.869
29704W        W98098  44.694   2.163  11.508
29705W        W98099  15.262  43.348   3.861
29706W        W98100  16.076  10.650  13.551
29707W        W98101  21.064   2.111   3.982
29708W        W98102  22.693   1.417  14.053
29709W        W98103  22.990   7.749  14.525
29710W        W98104  32.385  43.391  11.465
29711W        W98105  24.734  24.745  13.862
29712W        W98106   3.322  33.433   1.204
29713W        W98107  23.609   1.740   2.961
29714W        W98108  20.290   9.390   4.206
29715W        W98109  30.474   4.187   1.734
29716W        W98110   6.595  14.255   3.670
29717W        W98111  23.661   9.168  12.195
29718W        W98112  18.984   7.763  11.993
29719W        W98113   1.319  42.706  12.158
29720W        W98114   3.937  13.392  14.910
29721W        W98115  29.655  20.600   2.692
29722W        W98116  30.475  44.997  10.735
29723W        W98117  30.862   6.082  14.764
29724W        W98118  27.878  11.419  14.784
29725W        W98119  34.895  17.325  13.882
29726W        W98120  39.017  14.523   1.710
29727W        W98121  40.492  18.287   1.888
29728W        W98122   9.324  17.967   3.327
29729W        W98123  16.790  32.872   1.805
29730W        W98124  29.140  35.171   3.852
29731W        W98125  11.071  27.207  13.370
29732W        W98126  13.770   9.294   3.186
29733W        W98127  12.187  30.948  12.856
29734W        W98128  42.294  37.404   1.727
29735W        W98129  25.713  15.205   2.880
29736W        W98130  22.733   5.919   0.756
29737W        W98131  43.073  39.547   2.952
29738W        W98132  36.474   4.739   0.334
29739W        W98133  41.340  11.011   1.269
29740W        W98134  42.773  29.490  12.956
29741W        W98135  43.887  19.721  11.883
29742W        W98136  38.082   8.161  11.076
29743W        W98137  13.588  41.472  10.648
29744W        W98138  11.048  29.895   3.785
29745W        W98139  35.417   2.008  13.466
29746W        W98140  23.733   6.319   2.130
29747W        W98141  40.946  33.139  11.511
29748W        W98142  11.795   3.879   0.410
29749W        W98143  34.621  19.680   0.703
29750W        W98144  22.607  35.598   0.831
29751W        W98145   6.984  28.555   1.156
29752W        W98146  42.899  26.647  11.528
29753W        W98147  43.345  42.931   3.182
29754W        W98148  11.509  35.185   4.154
29755W        W98149  24.543  31.642  12.049
29756W        W98150  36.917  25.136   1.318
29757W        W98151  12.571  11.621   1.738
29758W        W98152  35.523  10.222   3.381
29759W        W98153   1.230  42.938  13.039
29760W        W98154  40.342   8.814  13.316
29761W        W98155  38.362  24.469  10.580
29762W        W98156   9.884   7.377   0.299
29763W        W98157   6.288  19.793  13.862
29764W        W98158  34.346   4.437  11.005
29765W        W98159  12.619   8.679  12.915
29766W        W98160  17.865  40.114   4.128
29767W        W98161  36.873   0.261  11.452
29768W        W98162  22.324  42.361  11.025
29769W        W98163   9.253  16.690   1.631
29770W        W98164   3.980   8.820   2.470
29771W        W98165  14.190  29.477   2.273
29772W        W98166   6.389  10.569   0.332
29773W        W98167  10.574  16.146   3.782
29774W        W98168  10.579  14.641   1.194
29775W        W98169   7.828  33.067  10.806
29776W        W98170  28.997  25.173  12.064
29777W        W98171  29.554  39.030  14.864
29778W        W98172  33.495  38.811   1.831
29779W        W98173  15.226  25.447   1.772
29780W        W98174   8.522  34.586  11.014
29781W        W98175  28.183  38.599   4.399
29782W        W98176  26.572  20.495   4.335
29783W        W98177  41.935  19.221  13.388
29784W        W98178  26.139  41.749  12.756
29785W        W98179  42.387  29.605   2.243
29786W        W98180  28.456   1.681   3.195
29787W        W98181   9.322  23.135   1.425
29788W        W98182  22.762  41.287  11.646
29789W        W98183  28.038  30.364  14.159
29790W        W98184   3.552  32.603  12.545
29791W        W98185  24.742  21.080  13.161
29792W        W98186  20.863  32.017   4.555
29793W        W98187  20.178   1.209   0.245
29794W        W98188  25.930  27.146   3.814
29795W        W98189  15.653   2.336  12.058
29796W        W98190   2.249  18.153   1.452
29797W        W98191  14.040   0.903  12.962
29798W        W98192  17.636  23.234   4.946
29799W        W98193  30.203  15.635   2.832
29800W        W98194   0.177  23.122  11.987
29801W        W98195  41.584  41.414   4.610
29802W        W98196  20.642  20.602  14.757
29803W        W98197  37.568   0.999   2.028
29804W        W98198   4.901   2.089  11.615
29805W        W98199  38.360  39.494  13.575
29806W        W98200  22.642  36.524   2.691
29807W        W98201  34.518  41.977  11.883
29808W        W98202  16.049  18.481   5.004
29809W        W98203  29.441  42.947  12.580
29810W        W98204  36.345  37.053   3.949
29811W        W98205  44.274  35.822   2.336
29812W        W98206  32.959  12.212   2.462
29813W        W98207  10.361  16.699   4.838
29814W        W98208  43.831  35.475  11.234
29815W        W98209  43.247  34.321  12.481
29816W        W98210  44.812   5.587  14.914
29817W        W98211  35.320   0.953   3.665
29818W        W98212  31.006   5.330  14.318
29819W        W98213  33.485  41.916   0.939
29820W        W98214  18.129   6.750   0.798
29821W        W98215   9.415  14.521  13.529
29822W        W98216  43.911  32.411   1.257
29823W        W98217  27.481  13.099  14.068
29824W        W98218   9.214   2.888   9.735
29825W        W98219  29.639  23.923   0.040
29826W        W98220   7.198   7.102  13.294
29827W        W98221  43.776   6.367   2.692
29828W        W98222  32.668  24.496  12.561
29829W        W98223   9.607  15.566   4.748
29830W        W98224   4.171   5.475  14.533
29831W        W98225  18.484  16.041   5.436
29832W        W98226  33.363  12.626   1.715
29833W        W98227  41.171   9.267   1.905
29834W        W98228  41.378  16.777  10.733
29835W        W98229  25.586  21.552  12.502
29836W        W98230   2.908  21.033  12.069
29837W        W98231  34.401   4.686  13.877
29838W        W98232  31.398  36.987  11.973
29839W        W98233   4.885  12.325  11.153
29840W        W98234  22.930  34.134   2.428
29841W        W98235   0.685  39.539   4.258
29842W        W98236  15.651  44.781   0.002
29843W        W98237   5.720  31.004  12.098
29844W        W98238  15.345  20.898  10.252
29845W        W98239  24.996   7.848  11.079
29846W        W98240  33.692  11.832  11.016
29847W        W98241  33.137  29.938   3.361
29848W        W98242  41.973  17.299  11.504
29849W        W98243  42.517  40.278   2.864
29850W        W98244  14.675   4.809  13.434
29851W        W98245   5.759  41.104   0.281
29852W        W98246  22.227  20.050  13.810
29853W        W98247  13.847   8.827  12.517
29854W        W98248  38.517   3.984  11.618
29855W        W98249  43.366  21.741  10.673
29856W        W98250  40.818  35.682   3.831
29857W        W98251   7.342  36.559  11.613
29858W        W98252  18.022   8.744   1.955
29859W        W98253  35.318   8.343  12.509
29860W        W98254  12.192  30.372  12.219
29861W        W98255  12.618   5.407   5.017
29862W        W98256   7.817   9.116  12.634
29863W        W98257  22.192  26.388  12.085
29864W        W98258  20.915  13.565   0.910
29865W        W98259  43.908   1.952  14.882
29866W        W98260  27.920  23.294   0.942
29867W        W98261   9.538  22.779  11.104
29868W        W98262  12.112  16.752  14.543
29869W        W98263  31.510   7.940   0.048
29870W        W98264  15.994   8.771   4.060
29871W        W98265  29.539  22.010   4.324
29872W        W98266  23.575  44.120  14.595
29873W        W98267  37.942  20.148  13.488
29874W        W98268  37.549  31.457  13.773
29875W        W98269  21.896  35.677  12.069
29876W        W98270  28.435  33.540  11.489
29877W        W98271  40.570  19.282   2.282
29878W        W98272  15.536  23.794   3.817
29879W        W98273  12.625  30.269  12.818
29880W        W98274  23.202  30.329  14.833
29881W        W98275  24.983  24.410   3.388
29882W        W98276  11.899   6.750   2.364
29883W        W98277  15.094   7.803   2.075
29884W        W98278  21.562  15.333  13.923
29885W        W98279  44.357  29.053  14.967
29886W        W98280   8.021  13.567  14.788
29887W        W98281  13.633  26.532   4.344
29888W        W98282   5.811  41.532  12.332
29889W        W98283   1.582  42.580  11.687
29890W        W98284  12.564  27.287   4.256
29891W        W98285  22.454  39.805   2.588
29892W        W98286   4.937  17.638   0.936
29893W        W98287  20.185  22.992   3.630
29894W        W98288  21.193  15.706  13.784
29895W        W98289   5.847  36.475   1.321
29896W        W98290   9.826  22.635   4.006
29897W        W98291   0.986  39.644  11.209
29898W        W98292   3.364   6.984  13.440
29899W        W98293   2.742  41.883  14.538
29900W        W98294  16.767   4.305  12.828
29901W        W98295  10.216   4.294   0.007
29902W        W98296  16.568   9.418   3.716
29903W        W98297  13.860  42.126   4.042
29904W        W98298  18.340  28.658   4.109
29905W        W98299  39.623  29.541   4.485
29906W        W98300  17.502  20.217  11.138
29907W        W98301  15.273   4.634   5.044
29908W        W98302  17.412  32.142   0.878
29909W        W98303  29.948  43.526  12.124
29910W        W98304  28.975  28.672  12.437
29911W        W98305   9.146  28.471  12.353
29912W        W98306   6.374  11.780  13.479
29913W        W98307   3.889   5.175  14.162
29914W        W98308  39.341   8.751  13.535
29915W        W98309   0.747  25.240  10.484
29916W        W98310  38.772   6.872   2.220
29917W        W98311  18.528  19.171   0.950
29918W        W98312  16.654  27.055   1.178
29919W        W98313  25.126   5.510  11.627
29920W        W98314  27.449  35.634   4.667
29921W        W98315  22.033  27.686  13.345
29922W        W98316   1.448  23.057  12.518
29923W        W98317  37.007  18.180  13.728
29924W        W98318  23.906  10.568   0.228
29925W        W98319   4.767  16.257  14.805
29926W        W98320  40.955  36.355  14.801
29927W        W98321  10.857  38.930   0.977
29928W        W98322  37.467  29.348   0.288
29929W        W98323  24.496  40.347  12.081
29930W        W98324  11.870   7.616   3.443
29931W        W98325  42.333  30.478  11.093
29932W        W98326   7.997  36.790   3.672
29933W        W98327  26.256   4.467  12.020
29934W        W98328  27.765  29.457  13.929
29935W        W98329  19.906  16.242   4.112
29936W        W98330  15.676  14.366  13.980
29937W        W98331  18.312  15.125  11.233
29938W        W98332  37.894  33.628  14.990
29939W        W98333  19.493  40.062   2.383
29940W        W98334  26.590  25.965  14.540
29941W        W98335   2.313  33.899   0.037
29942W        W98336  33.057  32.287   3.307
29943W        W98337   0.245   2.693   1.186
29944W        W98338  27.152   8.043  12.895
29945W        W98339  28.214  36.339   2.605
29946W        W98340  24.162   6.297   2.426
29947W        W98341   1.780  29.746   4.263
29948W        W98342  37.831  23.532   2.766
29949W        W98343  20.707   1.355   0.455
29950W        W98344  18.352  17.091  14.356
29951W        W98345  34.736  12.592  11.042
29952W        W98346  35.182  13.191   3.227
29953W        W98347  44.597   8.190  12.101
29954W        W98348  15.693  16.693  13.252
29955W        W98349  10.294  36.528   1.736
29956W        W98350  23.167  32.401  10.552
29957W        W98351  12.593  39.002  13.335
29958W        W98352   0.626  42.128   4.205
29959W        W98353   0.193  25.215   2.002
29960W        W98354  22.156   0.439   4.562
29961W        W98355   8.245  16.038  13.059
29962W        W98356  24.756  27.953   4.324
29963W        W98357  41.386   6.249   4.651
29964W        W98358  27.101   6.228  10.190
29965W        W98359  40.065  28.953   0.452
29966W        W98360  13.846  44.881  12.089
29967W        W98361   2.492   8.406  12.060
29968W        W98362  29.129  35.634  11.574
29969W        W98363  35.126  15.031   3.196
29970W        W98364  10.564  21.441  11.037
29971W        W98365   6.417   8.244   0.982
29972W        W98366  32.695  14.224  11.148
29973W        W98367   0.514  17.187   0.343
29974W        W98368  37.816   2.185   2.684
29975W        W98369  18.186  29.803   1.395
29976W        W98370   6.908  10.287  13.809
29977W        W98371   0.709  24.533   4.946
29978W        W98372  19.488  22.776   1.814
29979W        W98373  34.980  43.271  14.315
29980W        W98374   9.741  43.066   2.082
29981W        W98375   3.826  18.578   2.867
29982W        W98376  26.209   6.446  14.724
29983W        W98377  32.081  19.704  10.074
29984W        W98378  31.645  41.056   4.119
29985W        W98379   5.273   8.770  13.227
29986W        W98380   6.089  16.418  10.207
29987W        W98381  34.396  41.979  11.372
29988W        W98382   8.199   7.500  13.824
29989W        W98383  30.426  28.754  10.425
29990W        W98384  36.547  31.797   0.814
29991W        W98385  25.023  32.457  11.384
29992W        W98386  11.969  22.233  12.782
29993W        W98387  19.503  21.480   0.375
29994W        W98388  41.012  10.566  13.742
29995W        W98389  13.280  25.175  11.260
29996W        W98390  12.063  35.038   0.005
29997W        W98391  29.137  14.881   4.654
29998W        W98392  28.056  12.512  13.813
29999W        W98393  36.132  13.046   3.625
30000W        W98394   6.811  40.521  12.392
30001W        W98395   3.864  34.931   3.133
30002W        W98396  28.673  44.283   3.288
30003W        W98397  15.644  12.859  13.753
30004W        W98398  21.669  21.754   0.003
30005W        W98399  11.620  37.478  10.549
30006W        W98400  26.264  24.102   3.175
30007W        W98401  21.607  39.506   4.652
30008W        W98402  11.612   2.801  11.644
30009W        W98403   9.376  32.941  11.026
30010W        W98404  39.308  28.793  12.307
30011W        W98405   6.533  15.735   2.651
30012W        W98406  20.642  42.728   1.755
30013W        W98407  11.603  36.085   0.838
30014W        W98408  35.091  11.857  14.883
30015W        W98409  17.426  15.824   5.059
30016W        W98410  33.073  13.766  14.845
30017W        W98411   4.524   1.555   1.885
30018W        W98412   1.349  35.167  13.512
30019W        W98413  18.806  36.302   0.855
30020W        W98414  10.887   1.137  13.916
30021W        W98415  36.550  24.471   4.422
30022W        W98416  24.741   3.447  10.975
30023W        W98417  29.564  28.937  12.033
30024W        W98418   9.184  31.702  14.309
30025W        W98419  21.069  21.655  14.276
30026W        W98420  19.728  14.597   4.581
30027W        W98421   5.727  29.866  14.677
30028W        W98422   0.511   0.694   2.606
30029W        W98423  41.719   8.594   1.969
30030W        W98424  33.965   5.745  12.270
30031W        W98425  42.772  32.305  12.619
30032W        W98426  15.578  10.565   3.764
30033W        W98427  19.175  27.934  14.393
30034W        W98428  40.632  41.952  12.353
30035W        W98429   3.489  21.539  14.727
30036W        W98430  18.587  30.586   3.376
30037W        W98431  27.146  39.796   1.439
30038W        W98432  24.712   1.770   0.859
30039W        W98433  21.680  17.068  14.424
30040W        W98434  20.744  39.022  11.757
30041W        W98435   6.931  27.072  12.447
30042W        W98436  26.030  21.783  12.555
30043W        W98437  17.108  27.124  10.703
30044W        W98438  20.734  40.283   4.616
30045W        W98439   3.806  22.752   0.315
30046W        W98440  40.924  28.026   4.722
30047W        W98441   2.539   7.091   4.095
30048W        W98442  10.859  21.651   0.076
30049W        W98443  35.117  33.106   1.363
30050W        W98444  35.657  13.766   3.752
30051W        W98445   6.769  42.277  14.569
30052W        W98446   5.918  12.426  12.034
30053W        W98447  18.272  19.161  13.229
30054W        W98448  18.336  26.535  12.349
30055W        W98449  36.470  29.871   4.209
30056W        W98450  21.798   1.639   4.160
30057W        W98451  17.726  19.601  10.177
30058W        W98452  19.290  12.615  13.975
30059W        W98453  44.557  30.538  11.997
30060W        W98454  14.603  34.067   2.878
30061W        W98455  41.902   6.195   3.629
30062W        W98456   8.631  10.814  12.049
30063W        W98457  33.668  43.294  14.769
30064W        W98458  37.071  37.667   2.391
30065W        W98459  37.514  13.294  14.868
30066W        W98460  32.911  11.205  11.154
30067W        W98461  37.392  38.633   4.896
30068W        W98462  41.021  21.576  12.645
30069W        W98463  15.967  27.667  13.844
30070W        W98464  18.635  36.835   2.770
30071W        W98465   8.753  39.447   0.855
30072W        W98466   1.823  28.222   1.339
30073W        W98467  30.457   2.267  11.755
30074W        W98468  20.175  28.395   3.874
30075W        W98469  44.509   4.894   3.234
30076W        W98470  40.435  10.259   2.637
30077W        W98471  42.815   1.589   4.270
30078W        W98472  39.834   7.899  13.545
30079W        W98473  36.928  13.164   0.693
30080W        W98474  27.448   7.886  12.015
30081W        W98475   0.852  20.056   9.994
30082W        W98476  43.746  23.606   3.323
30083W        W98477  19.271  10.573  14.885
30084W        W98478  21.551  28.284  11.113
30085W        W98479  31.894  30.412  11.442
30086W        W98480   1.412  44.320   1.142
30087W        W98481  44.138  32.780  11.103
30088W        W98482   9.469  12.100  14.915
30089W        W98483   3.287  31.118  12.505
30090W        W98484  26.270  29.593  13.954
30091W        W98485  40.846  39.757   4.700
30092W        W98486  39.978  39.043   9.636
30093W        W98487   8.926  28.764  12.014
30094W        W98488  11.742  22.269   1.431
30095W        W98489  44.470  29.018   2.187
30096W        W98490  22.995  29.704   3.723
30097W        W98491  17.139  29.664   1.246
30098W        W98492   7.721  12.903  11.960
30099W        W98493  41.766  41.665  13.860
30100W        W98494   5.581  11.660   0.178
30101W        W98495  35.613  37.040   2.755
30102W        W98496  10.422  35.008   3.174
30103W        W98497  27.249   4.338  12.168
30104W        W98498  30.658  36.729   3.792
30105W        W98499  14.831  38.280  11.554
30106W        W98500  37.442  21.528  10.589
30107W        W98501   1.132  11.914   2.389
30108W        W98502  32.838   6.224   3.807
30109W        W98503   1.175  22.396   1.224
30110W        W98504   1.211  29.377   3.105
30111W        W98505  23.023  13.739  10.670
30112W        W98506  35.472   1.384   0.562
30113W        W98507  28.583  21.741  14.012
30114W        W98508  13.038  29.620   3.196
30115W        W98509  18.391   1.266   0.878
30116W        W98510   5.848  12.657   1.455
30117W        W98511  24.006  16.833  11.185
30118W        W98512   4.329  12.594   4.611
30119W        W98513  30.190  42.007   1.243
30120W        W98514   3.341  25.262   0.151
30121W        W98515  28.440  33.117   3.129
30122W        W98516  17.140  16.629  14.957
30123W        W98517  27.577  27.142  12.680
30124W        W98518  25.613  43.508   2.417
30125W        W98519   6.064   2.650   0.396
30126W        W98520  11.242  25.614   4.745
30127W        W98521  28.531  37.465  14.388
30128W        W98522  30.414  35.811  11.864
30129W        W98523  27.665  29.806  12.100
30130W        W98524  19.033  18.219  12.627
30131W        W98525  22.546   8.716  13.323
30132W        W98526  29.568  28.365   9.728
30133W        W98527   7.842   3.273   0.907
30134W        W98528  26.736  15.801   0.426
30135W        W98529   4.124  24.191  14.056
30136W        W98530  25.213   0.463  12.938
30137W        W98531   2.456  13.570   9.957
30138W        W98532  26.451  41.363  11.095
30139W        W98533   2.015  44.251  13.823
30140W        W98534  28.898   5.942   4.598
30141W        W98535  15.097  26.050  12.453
30142W        W98536   0.809  20.550   4.771
30143W        W98537  36.372   0.442   3.187
30144W        W98538   5.281  34.183   1.112
30145W        W98539  14.799  38.736   4.657
30146W        W98540  24.011  42.320   0.700
30147W        W98541  22.851  23.116   3.766
30148W        W98542  41.777  29.543   4.203
30149W        W98543  41.747  19.063   0.876
30150W        W98544  22.039  30.096   3.174
30151W        W98545  19.664  44.869  11.755
30152W        W98546  36.625  11.747   2.008
30153W        W98547   7.290  17.653   2.912
30154W        W98548   9.900  34.350   2.607
30155W        W98549  19.794   2.421  13.860
30156W        W98550   6.080  20.677  13.068
30157W        W98551  37.161  22.481  14.859
30158W        W98552  44.937  26.321  11.645
30159W        W98553  24.125   4.933   3.730
30160W        W98554  30.337  24.493  12.195
30161W        W98555  40.821  31.771   2.743
30162W        W98556  42.841  23.467   2.410
30163W        W98557  21.439   0.403   1.055
30164W        W98558   6.947  33.000  14.136
30165W        W98559  34.610  14.830  11.901
30166W        W98560  39.284   1.846  11.165
30167W        W98561  22.617  22.597   0.410
30168W        W98562  41.451  38.882   2.659
30169W        W98563  24.223   9.724   5.061
30170W        W98564   7.615  12.127   4.890
30171W        W98565  18.137  10.136   4.531
30172W        W98566  38.323   4.868   0.265
30173W        W98567  21.660   7.345  13.345
30174W        W98568  43.029  41.174  11.537
30175W        W98569  33.236  22.635  13.475
30176W        W98570  18.998   3.211   1.651
30177W        W98571  37.773  22.797   4.876
30178W        W98572  14.636  26.962   0.507
30179W        W98573  37.856   4.878   3.851
30180W        W98574  39.505   9.218   0.247
30181W        W98575   1.345  14.288  10.950
30182W        W98576  32.571   8.767  12.141
30183W        W98577  43.437  32.683  11.573
30184W        W98578  24.476   9.277  12.982
30185W        W98579   9.422  31.152  13.277
30186W        W98580  14.677  40.445   3.192
30187W        W98581  17.396  30.040   2.651
30188W        W98582  35.407  35.114   0.914
30189W        W98583   3.713  34.008  10.737
30190W        W98584  31.386  39.480  12.552
30191W        W98585  32.542  29.532  12.612
30192W        W98586   8.844  40.389  14.106
30193W        W98587  41.040  22.151  14.353
30194W        W98588   6.504  39.344   3.130
30195W        W98589  43.118   5.847  14.439
30196W        W98590  20.182   4.194   2.864
30197W        W98591  20.080  42.974  14.874
30198W        W98592  20.739  23.014   3.492
30199W        W98593   3.005  25.049   3.191
30200W        W98594  19.198  36.498  13.473
30201W        W98595   1.357  34.160   1.943
30202W        W98596   5.802  34.186   4.443
30203W        W98597  38.359  13.194  12.352
30204W        W98598   7.327  42.288   4.250
30205W        W98599   9.159  27.766  12.818
30206W        W98600  35.114  40.705  14.017
30207W        W98601   0.402  15.154   0.058
30208W        W98602  19.204   7.143  12.710
30209W        W98603  38.084  22.401  13.013
30210W        W98604   3.715  17.548  12.849
30211W        W98605  13.068  41.348  13.793
30212W        W98606  32.146  31.900  13.529
30213W        W98607  16.589  31.830  13.362
30214W        W98608  13.518   1.615   1.815
30215W        W98609   1.511  19.939  14.065
30216W        W98610  10.314  31.818   0.454
30217W        W98611  26.079  17.969  13.005
30218W        W98612  25.038  44.719  13.444
30219W        W98613  30.624  20.756   1.937
30220W        W98614  11.113  21.070   3.692
30221W        W98615  21.538  24.887   4.655
30222W        W98616   0.194   5.473  11.982
30223W        W98617  30.982  18.142   3.736
30224W        W98618  33.463   6.705  11.680
30225W        W98619  28.961   7.422  13.739
30226W        W98620   4.062  20.766   4.290
30227W        W98621  24.355  29.697  10.689
30228W        W98622  43.293   6.888   3.428
30229W        W98623  28.695  36.961   0.267
30230W        W98624   4.701   4.784  14.478
30231W        W98625  24.590  15.796  10.742
30232W        W98626  32.233   1.704   1.764
30233W        W98627   1.785  32.663  14.057
30234W        W98628   6.964  34.031  13.128
30235W        W98629  14.655  39.059   4.244
30236W        W98630  38.499  30.891   1.378
30237W        W98631  14.290  18.822   4.763
30238W        W98632  31.900  24.317   2.727
30239W        W98633  39.639  29.128  11.635
30240W        W98634  43.147   2.192   2.890
30241W        W98635  42.069   3.276   4.253
30242W        W98636  20.195   5.923   2.205
30243W        W98637   9.969  15.781  11.231
30244W        W98638  13.594  12.711  13.079
30245W        W98639   7.382  41.421   4.563
30246W        W98640   7.909  26.436   2.301
30247W        W98641  38.872  27.046  11.231
30248W        W98642   1.398   0.476   1.282
30249W        W98643  22.372  10.834   0.789
30250W        W98644   8.898  20.044   2.714
30251W        W98645  44.365  11.874  13.515
30252W        W98646  39.335  19.133  14.372
30253W        W98647  17.693  25.494   1.347
30254W        W98648  28.200  43.440   5.013
30255W        W98649  13.258  11.125  14.740
30256W        W98650  30.452  34.004  13.044
30257W        W98651   1.769  16.293  12.505
30258W        W98652  35.882  16.020  12.858
30259W        W98653  43.819  39.521  11.429
30260W        W98654  12.486  32.438   3.287
30261W        W98655   8.698   4.239  12.980
30262W        W98656   5.333  38.951   1.662
30263W        W98657  24.891  28.085  10.997
30264W        W98658  38.828  27.147  13.675
30265W        W98659  31.783   3.155  12.755
30266W        W98660  14.792   3.857   1.656
30267W        W98661  43.945   7.874   2.895
30268W        W98662   0.759  42.572  13.589
30269W        W98663  36.663  18.256   0.273
30270W        W98664  11.614  19.455  14.040
30271W        W98665  33.544  22.178  14.002
30272W        W98666  26.647  11.796   0.879
30273W        W98667  39.264  10.708  10.650
30274W        W98668  41.394   0.526   4.495
30275W        W98669  12.946   3.613   2.626
30276W        W98670  40.569  21.354   4.286
30277W        W98671  29.546  22.747  11.046
30278W        W98672  20.223  26.794   2.749
30279W        W98673   2.732  12.616  10.915
30280W        W98674  32.070  22.448   4.543
30281W        W98675   4.640  39.262   1.372
30282W        W98676  39.307  22.109   3.195
30283W        W98677  34.937  11.379   3.284
30284W        W98678  40.797   4.322  14.451
30285W        W98679  41.913  15.569   1.413
30286W        W98680  35.841  19.125  14.461
30287W        W98681  22.654  22.975  14.417
30288W        W98682  25.123   2.417   0.372
30289W        W98683  11.039  10.647  12.203
30290W        W98684  30.197  26.036   2.170
30291W        W98685  40.401  14.206  13.446
30292W        W98686   3.227  29.357  11.561
30293W        W98687  25.428  11.112  12.907
30294W        W98688  44.899   7.811   3.623
30295W        W98689  12.475  42.225   0.692
30296W        W98690   7.640  30.975   2.842
30297W        W98691   8.634  23.758   0.972
30298W        W98692  19.137  18.149  11.680
30299W        W98693  30.819  31.065  12.899
30300W        W98694  11.500  25.773   2.357
30301W        W98695   7.928  39.412   4.707
30302W        W98696  40.864   1.421   0.809
30303W        W98697  42.968  29.118   0.972
30304W        W98698   6.421  39.000  12.161
30305W        W98699  19.203  42.977   1.816
30306W        W98700   0.034   7.176  10.903
30307W        W98701  22.483  19.303  12.336
30308W        W98702   4.188  43.352  14.295
30309W        W98703   3.168  41.310  13.976
30310W        W98704  37.151   5.765  11.717
30311W        W98705   8.877  42.816   1.915
30312W        W98706  30.867  37.117   0.676
30313W        W98707  20.055  35.862  11.634
30314W        W98708  35.233  26.407  14.671
30315W        W98709  40.834  15.206   2.891
30316W        W98710  44.480  44.705  10.666
30317W        W98711   2.360  37.541   2.777
30318W        W98712  41.893  41.565   1.611
30319W        W98713   9.789  22.808   4.624
30320W        W98714  12.648  16.150  10.648
30321W        W98715  10.078  34.402  14.509
30322W        W98716  32.958  33.950   2.778
30323W        W98717  28.647  36.982  12.489
30324W        W98718  39.936  28.278  10.591
30325W        W98719   9.784  37.919   3.220
30326W        W98720  27.966  42.900  12.056
30327W        W98721  34.363  32.048   0.579
30328W        W98722  15.736   7.628   2.823
30329W        W98723  14.556   9.108   2.583
30330W        W98724  44.303  37.497   1.867
30331W        W98725  21.569  29.359   5.025
30332W        W98726  32.872  29.315   0.176
30333W        W98727   6.035  23.157   3.310
30334W        W98728  29.152  15.085   3.832
30335W        W98729   5.462   9.972   3.581
30336W        W98730  22.553  37.926  14.783
30337W        W98731  36.978  13.221   1.697
30338W        W98732  15.504   5.910   3.743
30339W        W98733  22.469  14.571  12.884
30340W        W98734  13.218   6.652   1.697
30341W        W98735  39.357  29.704   4.074
30342W        W98736  29.064  40.305   1.746
30343W        W98737  44.363  14.000  12.483
30344W        W98738   8.848  33.016  13.263
30345W        W98739  20.974  12.256  12.412
30346W        W98740  17.063   2.587   4.108
30347W        W98741   3.703  15.357  12.918
30348W        W98742  15.403  40.454   2.573
30349W        W98743   0.445  18.776  11.648
30350W        W98744  25.061  37.359   1.355
30351W        W98745  30.918  38.082   0.857
30352W        W98746  18.298  19.741  10.036
30353W        W98747  22.215  11.635   4.895
30354W        W98748  22.231   0.977  14.693
30355W        W98749  23.552  37.020   0.461
30356W        W98750  34.059  14.227   0.277
30357W        W98751   4.367  18.642   4.607
30358W        W98752  31.032  14.905   0.823
30359W        W98753  44.858  15.758   1.417
30360W        W98754  35.112   4.899   4.158
30361W        W98755  43.165  18.323  13.868
30362W        W98756   6.875  11.720  13.655
30363W        W98757  33.898  36.498  14.707
30364W        W98758  19.569  15.298  13.578
30365W        W98759  26.563  38.521  11.181
30366W        W98760  33.013  21.126   3.237
30367W        W98761  37.332  15.729   0.699
30368W        W98762  41.312   8.890   0.310
30369W        W98763  25.204   7.250  14.779
30370W        W98764   3.438  25.359   1.003
30371W        W98765   4.464  33.912  14.325
30372W        W98766  41.415  29.558   2.355
30373W        W98767  29.120  34.994   1.833
30374W        W98768  19.984  41.075  13.553
30375W        W98769  39.473  34.525   1.203
30376W        W98770  30.122  16.686   2.447
30377W        W98771  30.932   9.396  13.348
30378W        W98772   7.429   8.642   0.810
30379W        W98773  28.099  40.571  13.541
30380W        W98774  35.766   1.114   4.885
30381W        W98775   3.982  11.127   0.430
30382W        W98776  17.587  43.558  12.147
30383W        W98777   5.017  33.448   3.198
30384W        W98778   6.489  20.866   1.910
30385W        W98779  43.353   4.604  10.842
30386W        W98780  24.574  18.145   1.738
30387W        W98781  16.199  23.954  13.059
30388W        W98782   2.886  13.002   3.340
30389W        W98783  31.316  41.125  11.960
30390W        W98784  15.647  43.402   4.174
30391W        W98785   4.850  17.230  13.604
30392W        W98786  44.193  17.046   1.664
30393W        W98787  17.240   6.290   4.642
30394W        W98788   5.252  24.379  11.395
30395W        W98789  38.791  29.867   1.751
30396W        W98790  12.641  32.379  10.779
30397W        W98791   0.840  18.723  13.925
30398W        W98792  33.813  44.929  11.268
30399W        W98793  36.977   4.818   0.903
30400W        W98794  22.025  16.051  13.360
30401W        W98795  22.243   7.073  11.133
30402W        W98796  22.552  30.596  11.405
30403W        W98797  42.343   1.251   3.901
30404W        W98798   4.050  22.258   3.304
30405W        W98799   6.359  23.376  12.635
30406W        W98800  43.091  39.973  10.555
30407W        W98801   8.402   3.067   0.306
30408W        W98802  40.939  24.091   4.203
30409W        W98803  24.737   2.385   3.329
30410W        W98804  15.530  12.447   2.859
30411W        W98805  20.225  22.303  12.634
30412W        W98806  37.997  44.426   4.637
30413W        W98807  38.576  34.430  12.843
30414W        W98808   2.379  32.638  11.627
30415W        W98809   2.794  26.614  14.501
30416W        W98810   3.449  28.778   1.830
30417W        W98811  15.260   8.415  12.785
30418W        W98812   9.359  43.904   2.782
30419W        W98813   7.149  26.942   0.914
30420W        W98814  18.086  40.558  14.786
30421W        W98815   9.716  35.548   3.107
30422W        W98816  34.998  38.432   3.771
30423W        W98817  23.757  42.865   0.175
30424W        W98818   7.688  32.449   2.881
30425W        W98819  28.216   2.368   1.353
30426W        W98820  35.385   7.893   2.343
30427W        W98821  16.210  29.912  12.572
30428W        W98822  11.772  31.402  13.474
30429W        W98823  11.699  41.285  12.622
30430W        W98824   5.029  44.824  11.461
30431W        W98825  36.508  44.988  11.179
30432W        W98826  40.294  18.466  12.150
30433W        W98827  39.719  43.799   3.808
30434W        W98828   2.475   9.827  12.995
30435W        W98829  13.358  21.308   3.226
30436W        W98830   1.896  42.303  10.877
30437W        W98831  42.513  28.003  12.067
30438W        W98832  40.050  32.469  12.278
30439W        W98833  15.822  34.949   1.673
30440W        W98834  22.780  27.505  11.474
30441W        W98835  33.428  39.958  13.011
30442W        W98836  29.934  17.367  10.910
30443W        W98837   0.693   6.237   0.025
30444W        W98838  26.171  44.239   1.849
30445W        W98839   4.716  28.646   2.396
30446W        W98840  41.050  21.187   1.187
30447W        W98841  38.778  28.157   3.164
30448W        W98842  21.797   3.909  14.299
30449W        W98843  35.845  20.795   0.325
30450W        W98844   2.730  41.537  13.135
30451W        W98845  25.532  37.462  12.110
30452W        W98846   3.943   8.777  14.401
30453W        W98847   0.166  32.429   2.448
30454W        W98848  36.095  23.756  11.486
30455W        W98849  34.322  20.057  13.391
30456W        W98850  39.367  36.020  13.097
30457W        W98851  19.649  11.325  13.162
30458W        W98852  21.056  23.730   1.396
30459W        W98853  38.521  14.308   1.697
30460W        W98854  26.619  43.065  13.459
30461W        W98855  20.511  41.883   4.511
30462W        W98856  25.500   0.379  14.253
30463W        W98857  37.630  12.406   0.245
30464W        W98858  15.776  39.287   2.809
30465W        W98859   2.770  43.747   2.351
30466W        W98860  17.775   0.885  12.770
30467W        W98861  14.885  25.387   4.337
30468W        W98862   2.075  44.276  11.626
30469W        W98863  17.167  12.368   3.903
30470W        W98864  22.658   4.353   3.245
30471W        W98865  37.776  34.895  13.857
30472W        W98866  43.987  40.026   0.292
30473W        W98867   2.500  35.775  14.288
30474W        W98868  13.891  33.094  12.465
30475W        W98869   8.175  17.076  10.601
30476W        W98870   9.649  33.142   0.319
30477W        W98871  23.993   8.270   0.363
30478W        W98872  35.351  10.374   3.851
30479W        W98873  26.236  43.998   1.341
30480W        W98874  38.259   3.429   2.721
30481W        W98875   9.889  25.442   2.144
30482W        W98876  21.452  28.150   0.067
30483W        W98877   0.526  38.544   2.622
30484W        W98878  19.033  42.111   4.224
30485W        W98879  19.207  29.399  12.298
30486W        W98880  36.281  39.404   3.663
30487W        W98881  17.672  17.618   3.398
30488W        W98882  38.994  13.080  11.985
30489W        W98883  24.033  35.330  14.911
30490W        W98884  38.624  26.215   2.452
30491W        W98885   9.285  16.644  14.546
30492W        W98886   1.273  42.528   1.713
30493W        W98887  39.724  27.037  12.934
30494W        W98888  24.078   1.361   3.669
30495W        W98889  19.619   5.195   0.362
30496W        W98890  11.216   4.152   3.059
30497W        W98891  30.032  23.646  13.010
30498W        W98892  15.086  27.156   0.724
30499W        W98893  25.939  12.498   2.260
30500W        W98894  18.540  34.163   1.497
30501W        W98895  11.846  14.290  10.724
30502W        W98896  15.602  28.393   2.350
30503W        W98897  28.485  18.719  11.600
30504W        W98898  31.428   3.003  10.787
30505W        W98899  39.944  20.351  12.568
30506W        W98900   6.494  22.178   2.486
30507W        W98901   7.629   6.784   0.731
30508W        W98902   7.225  24.249  13.503
30509W        W98903  34.574  25.196  12.026
30510W        W98904  32.129  23.973   4.744
30511W        W98905  37.919  41.222   4.071
30512W        W98906  25.669   3.459  14.581
30513W        W98907  26.029  39.789   3.496
30514W        W98908  38.624  21.399   2.763
30515W        W98909  28.239  13.001   9.819
30516W        W98910  40.472   2.732  14.759
30517W        W98911  12.317  35.418  11.553
30518W        W98912  16.739  43.777   2.925
30519W        W98913  29.072  31.205   3.311
30520W        W98914  32.084   0.319  14.288
30521W        W98915  20.864  30.534  12.041
30522W        W98916  37.842  13.456   4.363
30523W        W98917  20.335  38.353  12.021
30524W        W98918  34.588   3.706  11.541
30525W        W98919  39.135  28.612   0.560
30526W        W98920  15.173   0.980   2.422
30527W        W98921  20.512   7.301   1.458
30528W        W98922  37.596  23.973  13.815
30529W        W98923  21.710  34.896  14.701
30530W        W98924  15.773  26.157   3.654
30531W        W98925  30.446  20.021  10.712
30532W        W98926  40.277  22.277  13.323
30533W        W98927  28.941   7.243  11.283
30534W        W98928  12.678   2.935   2.100
30535W        W98929  35.813   0.974  12.499
30536W        W98930  25.682  32.172   0.657
30537W        W98931  43.106  29.522   1.267
30538W        W98932  23.193  23.497  11.144
30539W        W98933   2.161   3.927  11.939
30540W        W98934  31.579  42.314   3.624
30541W        W98935  24.446  20.081  10.748
30542W        W98936   1.129  23.815   1.389
30543W        W98937  39.386   1.053  12.450
30544W        W98938  25.264  19.053  13.797
30545W        W98939  14.571  38.510  10.385
30546W        W98940  43.217   1.860   2.245
30547W        W98941  17.836  13.616  12.478
30548W        W98942   7.717  26.940   9.856
30549W        W98943  39.278  43.326  13.429
30550W        W98944  35.564  36.658  12.958
30551W        W98945  12.683  28.768  12.408
30552W        W98946   2.340  23.891   1.975
30553W        W98947   9.421  31.126  11.542
30554W        W98948  27.149  36.089  10.720
30555W        W98949  24.648   6.234   3.761
30556W        W98950  24.794  13.750   1.785
30557W        W98951  30.108  21.819  13.464
30558W        W98952  11.810  25.180   3.162
30559W        W98953  13.701   8.734   4.538
30560W        W98954  18.272  22.784   4.960
30561W        W98955   8.479  14.864  13.253
30562W        W98956  13.616   5.892   9.839
30563W        W98957  16.412  35.495   2.002
30564W        W98958  19.428  31.465  12.489
30565W        W98959  26.855  11.976   3.205
30566W        W98960  33.972   3.226   2.649
30567W        W98961  31.666   0.640   4.294
30568W        W98962   7.868  36.981  13.306
30569W        W98963  32.492  40.337  11.072
30570W        W98964  23.108  28.978   0.906
30571W        W98965  10.303  17.558  10.681
30572W        W98966  24.441   3.915  11.487
30573W        W98967  28.970  18.073   2.793
30574W        W98968  36.907  36.443  14.697
30575W        W98969  30.845  43.000   2.818
30576W        W98970  42.549  28.531   0.061
30577W        W98971  18.500  15.844   3.278
30578W        W98972   0.419  12.138  12.352
30579W        W98973  28.437  17.508   0.870
30580W        W98974  11.862  40.969  14.106
30581W        W98975  35.993  41.220   3.821
30582W        W98976  33.350   9.842  11.950
30583W        W98977  20.608  30.566   3.113
30584W        W98978   0.975  41.220  11.542
30585W        W98979  36.436  19.783  10.798
30586W        W98980  35.376  37.796  13.830
30587W        W98981  21.823  33.060   2.794
30588W        W98982  43.348  19.056  11.926
30589W        W98983  41.204  30.431   4.221
30590W        W98984  31.388  28.738  12.035
30591W        W98985  16.799   9.454   4.578
30592W        W98986  32.671   4.231  14.889
30593W        W98987  19.459   0.776   3.618
30594W        W98988  34.504  40.108  13.996
30595W        W98989   3.711  15.721   0.904
30596W        W98990  13.603   7.404   2.360
30597W        W98991  21.018  41.447   0.355
30598W        W98992   5.040  15.496   0.440
30599W        W98993   5.401  14.355  12.961
30600W        W98994  13.653  36.845  11.281
30601W        W98995  32.899  42.547   0.130
30602W        W98996  11.764   4.810   2.425
30603W        W98997  32.526  13.735   0.830
30604W        W98998  44.323  12.330  11.488
30605W        W98999  17.726   6.870   2.193
30606W        W99000  39.562  20.539  11.290
30607W        W99001  24.693  40.082   2.448
30608W        W99002   3.173  38.416  14.408
30609W        W99003   6.412  29.670   2.715
30610W        W99004  44.144  33.311   3.865
30611W        W99005  42.314  11.563   3.245
30612W        W99006  27.417  38.557  14.012
30613W        W99007   2.205  40.021   2.816
30614W        W99008  12.337  17.278  14.437
30615W        W99009   3.561  41.749   2.745
30616W        W99010  19.313  29.910  12.136
30617W        W99011  31.502  44.747   4.145
30618W        W99012  41.973  11.809   1.373
30619W        W99013  16.921  22.596  14.596
30620W        W99014  44.882  42.525  10.771
30621W        W99015  15.601   3.700   5.291
30622W        W99016   6.868  39.070   3.412
30623W        W99017  13.570  42.024  14.367
30624W        W99018   0.290  17.284   4.736
30625W        W99019   0.971  23.304   3.364
30626W        W99020   0.369   8.259  14.831
30627W        W99021   7.966  23.270   0.418
30628W        W99022  13.357  22.623  14.893
30629W        W99023  30.151  25.992   4.501
30630W        W99024  34.682   1.242   1.663
30631W        W99025  19.733  27.928  11.546
30632W        W99026  26.984  33.553   2.730
30633W        W99027  35.718  34.639  11.198
30634W        W99028  12.769  15.602   0.229
30635W        W99029  17.222  14.109  11.189
30636W        W99030   5.252   7.794  14.822
30637W        W99031   6.184  39.334  13.787
30638W        W99032  29.511  18.661  11.613
30639W        W99033  10.951  24.785   3.614
30640W        W99034  38.101  33.475   4.656
30641W        W99035  15.250  26.075   2.943
30642W        W99036  40.024   4.481  12.573
30643W        W99037   1.467  11.264   4.572
30644W        W99038  25.777  26.567   0.436
30645W        W99039  15.601  10.355   3.289
30646W        W99040  11.706  21.542   2.940
30647W        W99041  14.202  34.494  11.069
30648W        W99042   7.874  11.402  14.531
30649W        W99043  20.834  26.255   0.884
30650W        W99044   7.295  31.423   4.925
30651W        W99045  14.315   4.975  13.107
30652W        W99046  20.128  36.444   4.842
30653W        W99047   0.653  19.665   1.656
30654W        W99048  24.206  38.238   3.286
30655W        W99049  43.649  13.869  11.916
30656W        W99050   1.343  30.187  11.094
30657W        W99051   2.501   1.738  12.260
30658W        W99052  40.312  11.743  10.316
30659W        W99053   7.744  27.262   0.126
30660W        W99054  34.459  35.040   1.748
30661W        W99055  37.065  28.256  12.054
30662W        W99056  24.419   0.115   5.108
30663W        W99057   3.274  20.642   1.299
30664W        W99058  28.135  25.042  13.684
30665W        W99059  12.244  40.964   4.009
30666W        W99060  15.717  36.062  14.688
30667W        W99061  35.707   5.152  12.844
30668W        W99062   0.014  27.226  11.668
30669W        W99063  38.402   3.425   0.205
30670W        W99064  22.668  22.238   3.300
30671W        W99065  17.163  29.975  10.453
30672W        W99066  42.051   2.338   4.405
30673W        W99067  32.921  21.599  12.915
30674W        W99068  14.264  15.588   0.010
30675W        W99069  15.361  22.626  13.263
30676W        W99070  36.543  20.405  12.973
30677W        W99071  29.786  13.502   2.221
30678W        W99072   7.284  29.087   1.744
30679W        W99073   8.205  15.107   2.677
30680W        W99074   8.716  31.603   2.748
30681W        W99075  22.754   0.542  14.367
30682W        W99076   2.941  26.402   3.217
30683W        W99077  40.841   5.265  11.104
30684W        W99078  37.498  11.315   0.728
30685W        W99079  39.377  21.160  10.521
30686W        W99080   2.379  41.947   1.954
30687W        W99081  38.512  37.369   2.232
30688W        W99082   2.794  34.603  14.912
30689W        W99083  44.226  13.307   1.186
30690W        W99084  21.970   1.876  10.686
30691W        W99085   8.866  17.833   3.112
30692W        W99086  32.252  39.975   4.881
30693W        W99087  31.740  39.835  13.899
30694W        W99088   6.908  18.039   4.545
30695W        W99089   1.056  24.417  11.539
30696W        W99090  26.573   9.972  11.559
30697W        W99091  43.619  38.509  14.132
30698W        W99092   0.402  41.913   1.787
30699W        W99093  11.649  28.677   0.476
30700W        W99094   6.518  23.914   3.683
30701W        W99095  11.736  34.396   0.934
30702W        W99096   6.356  19.993   0.488
30703W        W99097  21.430  12.772  10.587
30704W        W99098  26.079  16.023   1.910
30705W        W99099  21.389   9.129   3.569
30706W        W99100  43.080  23.818   4.575
30707W        W99101  17.571  35.538   4.222
30708W        W99102   6.882  15.881   3.569
30709W        W99103  24.062  11.533  12.545
30710W        W99104  22.538   8.224  10.848
30711W        W99105  25.130  20.278  14.987
30712W        W99106  17.840  14.335   0.433
30713W        W99107  36.981  23.212  13.871
30714W        W99108  29.749   7.907   0.865
30715W        W99109   4.381   3.300   3.231
30716W        W99110  28.265   8.707  11.532
30717W        W99111  20.471   8.265   2.685
30718W        W99112  38.374  26.957   4.129
30719W        W99113  12.308  14.567  13.491
30720W        W99114  34.287   0.274   3.229
30721W        W99115  25.943  28.945   4.168
30722W        W99116   6.704   1.380   3.709
30723W        W99117  29.040  10.918   1.458
30724W        W99118  35.666  13.540  14.007
30725W        W99119  23.187  39.505  14.807
30726W        W99120  18.561  10.931  11.879
30727W        W99121   7.714  20.849  12.537
30728W        W99122  12.582  27.078   3.309
30729W        W99123  12.349  39.386  14.542
30730W        W99124  13.163  29.487  10.464
30731W        W99125  16.856  43.214  10.803
30732W        W99126  10.718  17.223   4.891
30733W        W99127  10.259  33.454   4.638
30734W        W99128  19.569  39.362   2.171
30735W        W99129   6.249   1.049   1.309
30736W        W99130  31.065  27.454   0.277
30737W        W99131  19.591  36.463   2.052
30738W        W99132   6.518  38.509  14.378
30739W        W99133  42.033  12.704  13.885
30740W        W99134  23.403  17.107   1.381
30741W        W99135  38.502  19.045  11.526
30742W        W99136  38.757  25.956   2.880
30743W        W99137  19.678  18.305   9.514
30744W        W99138   4.091  33.575  11.512
30745W        W99139  30.501  30.102   4.121
30746W        W99140  18.656   8.707   3.298
30747W        W99141  21.323   5.538  14.854
30748W        W99142  14.348  22.824  14.806
30749W        W99143  15.503  21.808   1.452
30750W        W99144  20.571  28.957   3.278
30751W        W99145   9.178   3.200  12.320
30752W        W99146  27.552  19.311  14.315
30753W        W99147  11.231  26.092  11.680
30754W        W99148  14.655  27.655   3.395
30755W        W99149  21.194  10.393   3.461
30756W        W99150  41.619  32.637   3.123
30757W        W99151  29.168  27.487   0.005
30758W        W99152  21.136  40.316  11.538
30759W        W99153  41.313  44.773  11.211
30760W        W99154  31.134  36.636   5.036
30761W        W99155  11.355  16.581   2.758
30762W        W99156  41.115   9.348   3.290
30763W        W99157  15.806   4.518  13.800
30764W        W99158   8.151  28.021  13.827
30765W        W99159  31.445   2.713   4.187
30766W        W99160   0.526   1.858  13.973
30767W        W99161  24.171  32.557  10.828
30768W        W99162  11.632   0.339  10.718
30769W        W99163  40.170   6.819  13.814
30770W        W99164  11.656   6.194  14.915
30771W        W99165  14.219  30.162   0.193
30772W        W99166   4.719  11.610   4.530
30773W        W99167   7.694  36.979   4.587
30774W        W99168  19.479  16.034   0.743
30775W        W99169  38.046   3.273  10.645
30776W        W99170  20.618  23.290  14.298
30777W        W99171  31.590  14.352  12.010
30778W        W99172   1.659  24.494   0.364
30779W        W99173  22.292  32.982  10.526
30780W        W99174   9.004  24.638  11.649
30781W        W99175  11.819  20.247   3.701
30782W        W99176  31.415   3.029   2.990
30783W        W99177  11.517  18.911   5.146
30784W        W99178  11.368  23.975  12.860
30785W        W99179  28.928  19.880   4.033
30786W        W99180   1.123  24.936  14.119
30787W        W99181  31.518   9.702   3.679
30788W        W99182  14.327   1.357   2.150
30789W        W99183  26.097  34.306  12.380
30790W        W99184  44.241  28.824  10.699
30791W        W99185   4.267  22.564   2.778
30792W        W99186  29.698  20.195   4.028
30793W        W99187  18.360  25.006   3.618
30794W        W99188  10.649   9.459   3.719
30795W        W99189  36.055  17.317  11.193
30796W        W99190   1.476   3.248   4.510
30797W        W99191  23.049  24.477   0.097
30798W        W99192  25.343  12.430   5.104
30799W        W99193   2.847   5.277   4.377
30800W        W99194   7.794  34.983  11.077
30801W        W99195  11.950   3.397  12.939
30802W        W99196  21.571   9.603   2.377
30803W        W99197  36.998  27.790   4.160
30804W        W99198  12.692  18.432   3.662
30805W        W99199   6.866  43.967   3.126
30806W        W99200  32.106  22.788   2.698
30807W        W99201   4.870   5.786   2.267
30808W        W99202  28.566   2.368   3.218
30809W        W99203  21.530  44.485   4.968
30810W        W99204   7.202   3.950   0.235
30811W        W99205  44.357  27.894   2.332
30812W        W99206  20.198  37.350   4.468
30813W        W99207   9.133  13.037   0.267
30814W        W99208  35.404  43.371   4.138
30815W        W99209   6.633  34.376  11.112
30816W        W99210  35.776  15.286   4.185
30817W        W99211  32.671  18.467   3.268
30818W        W99212  18.092   7.984   3.641
30819W        W99213  12.151  17.148   0.321
30820W        W99214   5.876   4.232  12.699
30821W        W99215  39.089  18.848  12.826
30822W        W99216  30.225  19.082  12.674
30823W        W99217  31.865  12.681  13.388
30824W        W99218   4.164   1.929   3.348
30825W        W99219   6.177  21.200   3.613
30826W        W99220  44.238  20.442   1.444
30827W        W99221   0.795   6.211  13.141
30828W        W99222  39.678  10.093   0.321
30829W        W99223  31.677  19.170   3.812
30830W        W99224   7.837  13.565  11.007
30831W        W99225  16.710  19.502  14.265
30832W        W99226  17.252  11.883  11.547
30833W        W99227  38.313  18.065  10.452
30834W        W99228  40.759  18.146  13.523
30835W        W99229  34.421  36.601  13.931
30836W        W99230  17.737  20.811  11.873
30837W        W99231   1.528  22.728   3.155
30838W        W99232  42.103  42.408   1.353
30839W        W99233  29.135  11.923  11.568
30840W        W99234   8.188  34.566  10.600
30841W        W99235  31.554   5.249  10.666
30842W        W99236  32.740  18.502  13.284
30843W        W99237  22.314  12.104   2.735
30844W        W99238   5.806  33.205   2.728
30845W        W99239  30.388   9.425  13.328
30846W        W99240  34.945   9.107   2.793
30847W        W99241  21.904   6.154  11.201
30848W        W99242  35.943  38.797  14.337
30849W        W99243  11.888  35.522  14.956
30850W        W99244   0.410   3.038   0.768
30851W        W99245  22.599  11.303  11.816
30852W        W99246  30.990  10.639  11.111
30853W        W99247   7.774  12.129   0.151
30854W        W99248  40.459  27.083  11.011
30855W        W99249   2.266  28.554   2.623
30856W        W99250  12.627   1.383  11.157
30857W        W99251  42.799  24.943   2.027
30858W        W99252   1.458  24.831   0.039
30859W        W99253  10.281  22.267   1.463
30860W        W99254  24.225  34.626   1.266
30861W        W99255  30.623   3.795  12.541
30862W        W99256  34.110   9.879  12.574
30863W        W99257  32.758  19.285   1.681
30864W        W99258  16.099  19.757   4.966
30865W        W99259  35.833  29.526   1.706
30866W        W99260  29.933  12.452   2.266
30867W        W99261  10.390  24.328   1.805
30868W        W99262  30.163  38.703   3.768
30869W        W99263  27.956   1.649   3.324
30870W        W99264  36.579   7.237  11.165
30871W        W99265   4.332  10.405  11.370
30872W        W99266   9.418  22.811  12.088
30873W        W99267  40.640  40.046   1.844
30874W        W99268   3.736   5.769   1.862
30875W        W99269  25.820  10.418   3.758
30876W        W99270  16.650  31.372   4.842
30877W        W99271  34.336  37.301   2.000
30878W        W99272  27.444   1.428  12.537
30879W        W99273  30.462  18.092  14.218
30880W        W99274  41.733  15.702   2.848
30881W        W99275  41.394  18.806   1.876
30882W        W99276  10.190  44.003  10.696
30883W        W99277  12.027  42.416   4.154
30884W        W99278  37.626  17.012   9.913
30885W        W99279  21.185  10.381   2.110
30886W        W99280  34.285   9.800  10.713
30887W        W99281  40.423  26.695   5.280
30888W        W99282   8.625  29.985  14.549
30889W        W99283  12.673   4.633   1.292
30890W        W99284  21.945  12.676  11.600
30891W        W99285  13.603   5.322   3.712
30892W        W99286  42.534   9.347   2.662
30893W        W99287  42.288  40.518  10.843
30894W        W99288  16.707  35.349   1.038
30895W        W99289  26.756  43.836   3.689
30896W        W99290   6.170   2.407  10.188
30897W        W99291  10.940  24.325  11.048
30898W        W99292  28.629  33.792  12.198
30899W        W99293   5.220  21.170  14.755
30900W        W99294   0.827  39.629   0.170
30901W        W99295  33.669  34.400  10.980
30902W        W99296  24.140  10.742   1.196
30903W        W99297  14.232  25.173   0.352
30904W        W99298  36.075   3.566   4.404
30905W        W99299  13.234  22.151  14.036
30906W        W99300  28.724  39.381  13.342
30907W        W99301  36.792   3.358  14.837
30908W        W99302  41.774  19.349   1.739
30909W        W99303  13.731  25.230   0.911
30910W        W99304  20.692  32.058  12.858
30911W        W99305  36.915   3.535  11.096
30912W        W99306   4.720  36.968   4.840
30913W        W99307   3.948  39.405  11.388
30914W        W99308  41.010  26.635  10.551
30915W        W99309  27.314  40.532   1.696
30916W        W99310  26.589   6.841   4.355
30917W        W99311  33.683  16.636   2.698
30918W        W99312  28.582  32.615  14.340
30919W        W99313  41.794  23.965   3.880
30920W        W99314  39.617  39.100  12.444
30921W        W99315  40.242  44.875   0.637
30922W        W99316  30.482  10.657   4.759
30923W        W99317  16.401   4.314   1.333
30924W        W99318  20.194  12.368  12.639
30925W        W99319  38.202  12.548   4.866
30926W        W99320   4.374  21.080   3.542
30927W        W99321  33.555  18.201   1.834
30928W        W99322   4.237  20.114   0.618
30929W        W99323  41.833  31.149  12.486
30930W        W99324  32.201  30.772  12.996
30931W        W99325   3.965  31.790  12.649
30932W        W99326  31.224  28.948   1.910
30933W        W99327   1.261   0.303   2.185
30934W        W99328   2.886  14.854   1.808
30935W        W99329  18.010  13.583   0.458
30936W        W99330  33.926  18.285   4.202
30937W        W99331   3.753  27.552   2.350
30938W        W99332   5.280  15.717   3.695
30939W        W99333  20.252   3.489   4.938
30940W        W99334  22.664   0.580  12.101
30941W        W99335  13.688  21.577   1.740
30942W        W99336  39.302  38.407  14.362
30943W        W99337   3.836  29.733   4.632
30944W        W99338   3.717  42.458  14.824
30945W        W99339  35.485  36.558   2.741
30946W        W99340  17.663   6.384  13.917
30947W        W99341  42.834  22.972  12.960
30948W        W99342  24.501  14.098   3.302
30949W        W99343  10.954  25.729   2.256
30950W        W99344  32.072  40.888   1.423
30951W        W99345   6.216   3.106   3.462
30952W        W99346  22.119  24.504   0.633
30953W        W99347  19.575  14.341   0.871
30954W        W99348   7.938  11.237  11.534
30955W        W99349   4.402  42.950   4.856
30956W        W99350  41.637  34.198  14.742
30957W        W99351  29.323  13.034  10.902
30958W        W99352  20.599  28.901  13.284
30959W        W99353  14.568  25.178  14.272
30960W        W99354  30.476  13.854  13.859
30961W        W99355   6.804  29.685  13.746
30962W        W99356  36.889  26.242   4.805
30963W        W99357  17.662  23.670   1.710
30964W        W99358  20.641  30.115   3.405
30965W        W99359  31.505  18.126  13.087
30966W        W99360  14.595  34.925   2.143
30967W        W99361   4.330  20.914  12.942
30968W        W99362  18.113  30.834  12.826
30969W        W99363  19.483   0.742   1.289
30970W        W99364  26.098   1.956  11.619
30971W        W99365  13.919  13.691  13.056
30972W        W99366  39.800   2.535  11.555
30973W        W99367   1.866   8.900   1.470
30974W        W99368  28.271  19.063   0.989
30975W        W99369  36.286  36.092  10.825
30976W        W99370   7.247   9.241   4.402
30977W        W99371  14.729  26.651  14.528
30978W        W99372  38.895  43.995  11.490
30979W        W99373  25.555   4.740  13.402
30980W        W99374  26.216  10.321   4.546
30981W        W99375  20.570  23.371   4.901
30982W        W99376  32.586  38.585   1.902
30983W        W99377   6.348  39.603   4.072
30984W        W99378  28.094  30.946  13.539
30985W        W99379  10.730   8.020  11.550
30986W        W99380   3.874  29.232   2.489
30987W        W99381  38.303   7.662  13.466
30988W        W99382  32.356  18.293  13.006
30989W        W99383   4.315  21.069  11.918
30990W        W99384  20.031  30.940  12.973
30991W        W99385  16.192  19.964   1.237
30992W        W99386   4.335  28.502  12.450
30993W        W99387  31.959  25.545   2.097
30994W        W99388  44.855  36.935   1.221
30995W        W99389  32.507   3.798   0.084
30996W        W99390  11.172  22.131   2.309
30997W        W99391  22.466  20.579   3.747
30998W        W99392  22.379  38.978   3.164
30999W        W99393  28.030  42.000  11.316
31000W        W99394  42.987   2.578  13.568
31001W        W99395  40.733   0.922   2.877
31002W        W99396  15.545  29.634   0.467
31003W        W99397  20.651   9.957   1.768
31004W        W99398  10.857  13.863  12.886
31005W        W99399  24.065  41.521   4.602
31006W        W99400  11.037   7.704   2.726
31007W        W99401  20.127  28.731   0.184
31008W        W99402  12.758   7.314   0.923
31009W        W99403   6.846  34.469   0.779
31010W        W99404  19.503  35.941   1.237
31011W        W99405  13.435  44.412  11.506
31012W        W99406  38.862  44.917   1.723
31013W        W99407   6.278  14.060   1.217
31014W        W99408  22.907   5.448   1.665
31015W        W99409  42.934  41.544   0.984
31016W        W99410  27.628  21.448   1.332
31017W        W99411  20.985   7.100  10.896
31018W        W99412   5.306  42.288  11.366
31019W        W99413  34.903  16.717   3.812
31020W        W99414  27.699  29.137   0.281
31021W        W99415  13.837  13.228   2.151
31022W        W99416  40.376  17.078   4.273
31023W        W99417  26.109  16.059  14.335
31024W        W99418  26.905   4.178  14.042
31025W        W99419  21.581   6.617  13.363
31026W        W99420  20.257  43.086   3.235
31027W        W99421  36.982  10.277  13.466
31028W        W99422  43.736   1.231  12.782
31029W        W99423  19.923  31.629  12.396
31030W        W99424  41.013  26.183   1.812
31031W        W99425  17.400  29.145   3.833
31032W        W99426  13.281   1.730  14.806
31033W        W99427  44.848   1.203   4.180
31034W        W99428  24.690   3.844   1.978
31035W        W99429  15.732  30.162   4.524
31036W        W99430  27.595  22.994   3.245
31037W        W99431  41.898   0.887   1.876
31038W        W99432  34.416  31.721  14.523
31039W        W99433  13.007  37.476  14.489
31040W        W99434   1.974   9.402   1.327
31041W        W99435  35.112  24.706   1.855
31042W        W99436  44.658  16.693  11.472
31043W        W99437   2.902  34.738   3.277
31044W        W99438  23.140  35.180  13.922
31045W        W99439  23.063  25.285   3.170
31046W        W99440  13.378   0.404  11.712
31047W        W99441   4.772   5.448   0.690
31048W        W99442  34.763  37.552  12.458
31049W        W99443  32.389  23.736  12.008
31050W        W99444  42.412   7.922  11.339
31051W        W99445  21.502   3.518   2.386
31052W        W99446  41.643  13.114   2.730
31053W        W99447  15.352  33.459   0.724
31054W        W99448  39.486  40.078   4.550
31055W        W99449  22.435   7.231   0.234
31056W        W99450  29.418   2.351  11.531
31057W        W99451  44.848  29.194  14.261
31058W        W99452  38.933  30.692  12.474
31059W        W99453  26.688  40.060   2.200
31060W        W99454  32.422  20.471   4.181
31061W        W99455  28.551  38.779  12.714
31062W        W99456  28.943  12.579  12.471
31063W        W99457  21.736   7.880   3.323
31064W        W99458  38.455  13.837   1.866
31065W        W99459  35.575   6.269  11.238
31066W        W99460  27.828  32.125  10.716
31067W        W99461  31.889  37.625  12.562
31068W        W99462  32.141  32.068  13.007
31069W        W99463  31.403  33.017   2.591
31070W        W99464  19.171  35.355  14.193
31071W        W99465  20.198  40.134  12.542
31072W        W99466  31.865  22.241  11.110
31073W        W99467  11.532  38.771   2.824
31074W        W99468  34.166  24.650   1.438
31075W        W99469  43.311  10.331   4.204
31076W        W99470   9.560  31.319  14.942
31077W        W99471  12.850  42.642  14.837
31078W        W99472  11.245  16.840  12.886
31079W        W99473   1.283  26.597   0.015
31080W        W99474  37.126  26.110  13.773
31081W        W99475  25.111  23.782  10.587
31082W        W99476  12.709  15.909   4.502
31083W        W99477  11.367  23.443  11.193
31084W        W99478  36.357  44.916   2.782
31085W        W99479  27.836  36.248  13.512
31086W        W99480  14.397  27.150   1.862
31087W        W99481  28.077  21.052  13.739
31088W        W99482   8.145   6.118   3.302
31089W        W99483  11.675  19.289   2.718
31090W        W99484  22.923   4.208   1.414
31091W        W99485   6.611  44.455   2.921
31092W        W99486   3.174  37.957   4.879
31093W        W99487   2.525  27.947   1.658
31094W        W99488  37.551   9.829   1.788
31095W        W99489   4.572  35.472   2.017
31096W        W99490  11.406   2.015  12.120
31097W        W99491  10.863  36.344   4.159
31098W        W99492   7.445  19.544   4.473
31099W        W99493  33.551   1.648   0.005
31100W        W99494  28.728  12.596   2.755
31101W        W99495  33.364  35.072  10.776
31102W        W99496  25.610   7.357  14.467
31103W        W99497  12.742  19.045   4.403
31104W        W99498   9.743  26.472  14.229
31105W        W99499  25.262  14.757   3.222
31106W        W99500   6.034  36.838  14.484
31107W        W99501  10.310  16.125  14.596
31108W        W99502  26.525  17.691  14.675
31109W        W99503   7.635  23.577   1.741
31110W        W99504  27.547   6.339   0.831
31111W        W99505  43.940  18.595   3.211
31112W        W99506  25.573  38.614  11.073
31113W        W99507  41.379   6.333   3.707
31114W        W99508   0.318  13.783   4.857
31115W        W99509  29.738  15.715   5.273
31116W        W99510   2.824  32.013  12.016
31117W        W99511  37.089  16.700   4.024
31118W        W99512  28.770  16.905  12.410
31119W        W99513   9.016   8.302   1.183
31120W        W99514   4.630  20.240  12.822
31121W        W99515  35.017  38.740   4.185
31122W        W99516  30.390  28.201  13.348
31123W        W99517   9.058  27.393   9.709
31124W        W99518   5.366  30.540  10.489
31125W        W99519  38.338  38.854   0.465
31126W        W99520   0.653  21.107   2.530
31127W        W99521  24.996  34.459  14.948
31128W        W99522  29.475  37.896  11.499
31129W        W99523  34.007  16.049  10.795
31130W        W99524  21.993  38.088   1.767
31131W        W99525   4.871  17.745   3.236
31132W        W99526  33.139  10.045   3.275
31133W        W99527  37.573  29.965  11.056
31134W        W99528  14.800  19.766  11.553
31135W        W99529  39.503  32.029   2.782
31136W        W99530  21.178  29.656  11.211
31137W        W99531  17.000   4.974   4.123
31138W        W99532   8.360  38.928  10.804
31139W        W99533   8.413  24.087   1.868
31140W        W99534  44.472  13.630   3.307
31141W        W99535  16.713  19.878   0.024
31142W        W99536  38.022  39.514   3.795
31143W        W99537  16.538  26.600  14.528
31144W        W99538  25.001  34.199  14.496
31145W        W99539   3.553  33.840  13.881
31146W        W99540   5.897  38.723   1.208
31147W        W99541  38.506  32.310  10.711
31148W        W99542  22.031   8.062  12.006
31149W        W99543  28.101  13.130  12.123
31150W        W99544   5.865   7.148  11.719
31151W        W99545  39.546  26.590  14.114
31152W        W99546   6.164  19.272  14.013
31153W        W99547  19.518  33.119  12.877
31154W        W99548  16.252  43.942   2.733
31155W        W99549  41.455   8.222  14.778
31156W        W99550  19.130  19.103  12.090
31157W        W99551  29.241  31.647   2.538
31158W        W99552  13.265  35.121   1.934
31159W        W99553  24.125  44.201   1.280
31160W        W99554   4.164  36.147   0.442
31161W        W99555   4.855  18.807  10.612
31162W        W99556  31.584  12.059  10.676
31163W        W99557  27.010  22.176   0.321
31164W        W99558  23.358  29.480   4.559
31165W        W99559  24.919  31.379   2.449
31166W        W99560  41.175  18.604   1.457
31167W        W99561  38.839  12.791  12.993
31168W        W99562  15.211  40.585   4.533
31169W        W99563  25.475   2.819  11.894
31170W        W99564  26.122   8.728  10.509
31171W        W99565   1.665  30.627  13.077
31172W        W99566  38.494  25.534  11.754
31173W        W99567  41.731   7.204  12.574
31174W        W99568  18.231  29.087  14.062
31175W        W99569  13.839  40.862  11.144
31176W        W99570   0.107  10.718  11.623
31177W        W99571   1.429  41.539  11.585
31178W        W99572  40.815  44.751   1.261
31179W        W99573  21.969  26.978   0.346
31180W        W99574  37.107  29.458   1.292
31181W        W99575  17.324  41.724   5.314
31182W        W99576   1.928  25.297   2.168
31183W        W99577   4.545  39.322   2.805
31184W        W99578  36.026  12.351   1.779
31185W        W99579  17.970   4.531   3.199
31186W        W99580  38.331  33.919   2.488
31187W        W99581  18.775  10.203  14.068
31188W        W99582  25.752  20.597   0.322
31189W        W99583  35.235   5.966   3.439
31190W        W99584  34.354  31.899   0.022
31191W        W99585  40.486  16.343  14.281
31192W        W99586  25.994  27.846   1.317
31193W        W99587  44.579  21.136  11.331
31194W        W99588  36.065  28.366  11.001
31195W        W99589  27.858  32.021  11.509
31196W        W99590  12.859   2.174  13.574
31197W        W99591  10.809   8.882   4.123
31198W        W99592  25.003  14.872  13.002
31199W        W99593  25.983  24.257  12.599
31200W        W99594  10.101  12.976   4.967
31201W        W99595  10.344  43.412   3.323
31202W        W99596   6.702   4.736  14.400
31203W        W99597  44.918  20.140  10.678
31204W        W99598  29.957  26.088   3.548
31205W        W99599  11.887   1.470   0.754
31206W        W99600  13.777  28.806   1.402
31207W        W99601  43.473  11.307  13.042
31208W        W99602  33.515  30.907   0.931
31209W        W99603   7.968  18.966  11.247
31210W        W99604  44.835  16.232   4.246
31211W        W99605  16.259  43.058   1.470
31212W        W99606  38.352  29.037  12.215
31213W        W99607  39.455  28.112  12.083
31214W        W99608  27.122  18.093  13.839
31215W        W99609   8.108   5.563  14.804
31216W        W99610  29.145  36.941   4.696
31217W        W99611  23.626  31.034  13.944
31218W        W99612  32.516  39.434   4.550
31219W        W99613  20.759  26.344   9.782
31220W        W99614  40.843  20.532  12.950
31221W        W99615  17.853   5.988  10.049
31222W        W99616  41.827  37.011   3.660
31223W        W99617   3.749   1.819  11.296
31224W        W99618  19.631   8.143   1.585
31225W        W99619  43.105   0.822   1.434
31226W        W99620  12.558  30.621  14.480
31227W        W99621   5.798  44.828   2.832
31228W        W99622   1.793  14.334   3.122
31229W        W99623  22.841   0.493   2.720
31230W        W99624  23.737  15.995  11.181
31231W        W99625  30.738  29.365  13.678
31232W        W99626  41.656  34.686  12.194
31233W        W99627   4.786  30.077  12.979
31234W        W99628   1.698   1.371   1.894
31235W        W99629  28.989  39.572  10.961
31236W        W99630  23.048  24.978   1.849
31237W        W99631   0.284  28.371  12.159
31238W        W99632  12.326  23.573  11.562
31239W        W99633  20.551  16.761   0.352
31240W        W99634   1.130  41.965  12.790
31241W        W99635  41.386   5.940  12.257
31242W        W99636  42.444  24.756   1.689
31243W        W99637  39.799  35.600   2.792
31244W        W99638  11.282   7.776  13.555
31245W        W99639  19.037  26.174   3.648
31246W        W99640   7.812   7.697   1.949
31247W        W99641  42.989  20.783  14.636
31248W        W99642  10.398  14.046  11.210
31249W        W99643  39.906  18.524  12.898
31250W        W99644  14.660   0.538   2.195
31251W        W99645  24.561  24.238  11.941
31252W        W99646  16.292  13.356   0.690
31253W        W99647  10.420  18.687  12.106
31254W        W99648  15.789  30.155   1.221
31255W        W99649  22.657  43.416  14.989
31256W        W99650  21.758  25.792   4.270
31257W        W99651   0.316  10.687  10.699
31258W        W99652  12.695  13.610   2.409
31259W        W99653  36.597   1.273   3.241
31260W        W99654   5.946  32.189  14.849
31261W        W99655   1.942  39.194  13.339
31262W        W99656  34.480  36.110  14.829
31263W        W99657  36.807  13.219   4.115
31264W        W99658  42.920  16.179  12.652
31265W        W99659  24.248  31.926   0.755
31266W        W99660  13.694  43.663  10.484
31267W        W99661   4.199   5.021   1.269
31268W        W99662  43.523  10.335  10.724
31269W        W99663  40.233  22.587   1.717
31270W        W99664  25.949   5.671   1.923
31271W        W99665  10.512   5.240  14.849
31272W        W99666  38.790  36.348   3.296
31273W        W99667  15.783  18.519   1.367
31274W        W99668   5.686  10.162   1.131
31275W        W99669   1.229   6.987   3.354
31276W        W99670  34.094   8.812   4.770
31277W        W99671  40.903  40.347  11.677
31278W        W99672  13.773   4.259  12.318
31279W        W99673  31.225  25.978   2.215
31280W        W99674  15.295  38.508   4.658
31281W        W99675  27.242   0.849   5.419
31282W        W99676   1.187   7.825   0.827
31283W        W99677  20.677  33.787  11.602
31284W        W99678  19.156   3.741  11.021
31285W        W99679  42.436  35.108   0.922
31286W        W99680  34.000  13.192  11.987
31287W        W99681  31.190  33.121   1.294
31288W        W99682  30.557  16.948   1.758
31289W        W99683  20.600  25.513  11.471
31290W        W99684  41.327  42.283   2.680
31291W        W99685  25.728  23.163  14.011
31292W        W99686  23.928  14.706   4.435
31293W        W99687  17.314  15.320  10.740
31294W        W99688  19.606  43.060   0.075
31295W        W99689   7.793  12.653  12.435
31296W        W99690  28.750   7.607  11.590
31297W        W99691  24.590  12.681   4.037
31298W        W99692  14.954  23.529   3.002
31299W        W99693  41.841  14.582  12.540
31300W        W99694  34.001  42.997   4.700
31301W        W99695  41.975  10.820  11.343
31302W        W99696   7.829  39.948  13.089
31303W        W99697   9.771  31.481   4.600
31304W        W99698  18.856  21.620  13.481
31305W        W99699  37.046  38.951  14.968
31306W        W99700  22.964  21.002   4.930
31307W        W99701   6.660  24.579  11.930
31308W        W99702  42.038  41.455  13.454
31309W        W99703   5.320   2.851   4.559
31310W        W99704   3.845  34.980   1.842
31311W        W99705   3.977  27.534  11.033
31312W        W99706   0.702  14.066  13.928
31313W        W99707  37.049  37.855   1.262
31314W        W99708  44.410  42.824  13.808
31315W        W99709  16.551  25.705   1.000
31316W        W99710  21.285  42.394  11.172
31317W        W99711  30.865  12.060  14.016
31318W        W99712   4.097  29.130  14.512
31319W        W99713  43.847  42.949  11.922
31320W        W99714  10.964  41.290   3.220
31321W        W99715  34.724   7.125  11.563
31322W        W99716  24.049  24.579  14.410
31323W        W99717  15.613   2.927   2.936
31324W        W99718  44.608  13.859   1.576
31325W        W99719  35.519  23.160   4.630
31326W        W99720  13.332  26.727  13.811
31327W        W99721  34.009  15.327   4.575
31328W        W99722  41.796  42.019   2.595
31329W        W99723  20.329  37.024  14.047
31330W        W99724  10.995   5.267   0.892
31331W        W99725  23.074  26.500   0.346
31332W        W99726   9.335   0.798   4.638
31333W        W99727  22.749  14.758  11.064
31334W        W99728  22.184   2.194  13.761
31335W        W99729  26.122  41.088  11.407
31336W        W99730  29.589  36.420   3.314
31337W        W99731  19.098   7.805   1.003
31338W        W99732  28.383  42.061  12.539
31339W        W99733   2.446  43.088  13.425
31340W        W99734   6.744  37.570   4.959
31341W        W99735  42.701  23.880  13.821
31342W        W99736  14.094  30.517  11.189
31343W        W99737   3.836  44.383  14.951
31344W        W99738  44.464  12.434   2.866
31345W        W99739  27.920  10.972  12.381
31346W        W99740  20.589  25.483  14.403
31347W        W99741  37.559  26.776  13.375
31348W        W99742  11.145  16.286   0.823
31349W        W99743  15.535  21.493   0.336
31350W        W99744  30.480  11.630  14.702
31351W        W99745  17.701  41.924  14.679
31352W        W99746  26.662  38.370  10.702
31353W        W99747   2.685  18.058  13.308
31354W        W99748  41.463  31.388   2.217
31355W        W99749   3.516  43.892   4.375
31356W        W99750  38.451  13.141  12.854
31357W        W99751   2.379  21.516  10.447
31358W        W99752   9.802  18.595  12.930
31359W        W99753  32.067   8.157  10.776
31360W        W99754   4.187   6.304  12.550
31361W        W99755  22.992  15.541  11.665
31362W        W99756   5.883  10.705   0.314
31363W        W99757  38.860   3.248  14.970
31364W        W99758  37.844  16.078   1.846
31365W        W99759   1.704  19.365  12.460
31366W        W99760  16.851  15.596   4.261
31367W        W99761  30.711  44.794   3.965
31368W        W99762  13.291  34.694  10.241
31369W        W99763   8.600  35.974  10.600
31370W        W99764  16.710  31.201   4.359
31371W        W99765  20.532  21.685   1.291
31372W        W99766  41.344   7.005   1.449
31373W        W99767  31.427  19.509   1.674
31374W        W99768  30.445   3.410   2.761
31375W        W99769  23.516  15.829  12.300
31376W        W99770  23.911   6.160  11.127
31377W        W99771  43.418  23.447  12.587
31378W        W99772  42.261  27.215   0.443
31379W        W99773  21.062  18.129  12.505
31380W        W99774   1.742   0.936   1.337
31381W        W99775  10.318  40.439   5.246
31382W        W99776   1.939  42.740  14.928
31383W        W99777  32.160  24.433   4.976
31384W        W99778  43.998  44.170   1.919
31385W        W99779  14.297  42.440   3.616
31386W        W99780  24.748  30.419  11.348
31387W        W99781   3.904  14.296   3.022
31388W        W99782  44.408  28.725   0.381
31389W        W99783   5.737   1.075   1.107
31390W        W99784  41.305  10.918   4.127
31391W        W99785   6.202   8.135   3.864
31392W        W99786  24.701   9.723   1.657
31393W        W99787  10.152  11.627  12.511
31394W        W99788  31.199   4.261   4.011
31395W        W99789  39.863   0.977  12.673
31396W        W99790  14.048   9.408   3.633
31397W        W99791   6.202   5.261   1.109
31398W        W99792   6.397  44.464  13.963
31399W        W99793  22.760  39.487  10.533
31400W        W99794  27.083  30.407   1.276
31401W        W99795  22.725  23.086   0.258
31402W        W99796  34.422  23.711   0.235
31403W        W99797  24.392  26.532   3.293
31404W        W99798  20.926  22.562  11.419
31405W        W99799  40.706  36.544   0.222
31406W        W99800   1.509   4.113   1.445
31407W        W99801  30.196  21.501  13.011
31408W        W99802  13.275  18.002   3.282
31409W        W99803  18.069  23.764  11.967
31410W        W99804   3.088  16.684   3.324
31411W        W99805   4.322  10.264  12.907
31412W        W99806  11.603  27.977  11.032
31413W        W99807  11.833  34.430  13.835
31414W        W99808  43.372  34.618   2.858
31415W        W99809  40.334  23.713   0.533
31416W        W99810  12.744  33.918   1.748
31417W        W99811  11.710  12.361  10.550
31418W        W99812   5.272  12.066   2.796
31419W        W99813  10.353  41.290  13.930
31420W        W99814  33.932   9.980  11.054
31421W        W99815   1.503  40.876   4.068
31422W        W99816  20.162   3.795  13.924
31423W        W99817  11.744  29.252  11.496
31424W        W99818  13.581  25.966   4.801
31425W        W99819  20.224  36.537  12.355
31426W        W99820  11.464  40.546   0.459
31427W        W99821   3.277  24.248  14.202
31428W        W99822  39.826  17.111  13.100
31429W        W99823  33.616  25.528  12.193
31430W        W99824  11.736   8.477   2.795
31431W        W99825   9.809   3.701   1.752
31432W        W99826  39.523  34.068   3.968
31433W        W99827   0.917  32.666   4.785
31434W        W99828   2.677  39.659  13.944
31435W        W99829  38.545   6.398   2.170
31436W        W99830  36.407  28.877  11.932
31437W        W99831  31.380  11.674  13.172
31438W        W99832  43.221  30.610  14.509
31439W        W99833  12.127  15.320  10.358
31440W        W99834  43.520   9.651  14.822
31441W        W99835  38.578  40.466   0.721
31442W        W99836  20.562  20.774   2.289
31443W        W99837  15.496  40.819  13.432
31444W        W99838  23.402  17.494  13.867
31445W        W99839  41.819  27.265  13.148
31446W        W99840  23.006   8.936   3.730
31447W        W99841  42.095  29.986  12.571
31448W        W99842   3.442   1.842  12.091
31449W        W99843  31.720   3.841   1.946
31450W        W99844  21.796  33.911  12.828
31451W        W99845  14.944   5.223  13.326
31452W        W99846   9.696  16.875   1.400
31453W        W99847   0.341  29.422   1.832
31454W        W99848  32.797  12.849   1.754
31455W        W99849  40.522  32.400  12.096
31456W        W99850  33.489  38.033  12.523
31457W        W99851  33.523  43.585  10.927
31458W        W99852  43.253  29.116   2.194
31459W        W99853  18.682   3.553  12.219
31460W        W99854  19.845  18.610  10.810
31461W        W99855   4.729  34.138  11.652
31462W        W99856  11.821  43.018  10.713
31463W        W99857  23.707  25.564  12.546
31464W        W99858  16.177  22.250  12.346
31465W        W99859  26.097  19.796   3.667
31466W        W99860  12.340  39.406  13.550
31467W        W99861  13.806  10.325   1.315
31468W        W99862   6.907  19.176   0.929
31469W        W99863  10.926  16.001  12.514
31470W        W99864   5.146   9.336  13.876
31471W        W99865  30.561  31.095   5.103
31472W        W99866  42.766  40.045  12.060
31473W        W99867  20.183  10.367   2.383
31474W        W99868  33.616   0.371  11.401
31475W        W99869  28.405  39.654   1.606
31476W        W99870  18.271  42.783  11.535
31477W        W99871   3.027  39.387  11.368
31478W        W99872  20.768   2.062   2.302
31479W        W99873  38.965  28.104   3.676
31480W        W99874  39.903  33.548  14.493
31481W        W99875  34.373  20.596  12.592
31482W        W99876   4.102  17.157   4.058
31483W        W99877  27.204  17.533  11.029
31484W        W99878  20.379  33.640  10.280
31485W        W99879  35.018  43.873  11.215
31486W        W99880   8.920   9.394  11.188
31487W        W99881  19.581  12.597   0.319
31488W        W99882  19.593  26.668  12.575
31489W        W99883   9.727  22.421  12.286
31490W        W99884   6.782  37.996  11.425
31491W        W99885  11.363  36.833   0.396
31492W        W99886   5.230  42.446   1.943
31493W        W99887   2.324  40.981  13.775
31494W        W99888  17.517  39.855   0.233
31495W        W99889  42.395  36.812  13.045
31496W        W99890  41.037  16.644  11.134
31497W        W99891  23.752  12.739   1.339
31498W        W99892  33.289   4.879   1.180
31499W        W99893   4.611  13.133   0.361
31500W        W99894  32.201  41.916   1.421
31501W        W99895  37.547  35.107   4.103
31502W        W99896  33.367  19.070  12.991
31503W        W99897  32.999  13.232  11.931
31504W        W99898   6.270  23.256  12.133
31505W        W99899  26.940  38.464   4.501
31506W        W99900  25.239   0.920   1.401
31507W        W99901  26.983  18.173   1.868
31508W        W99902   1.460  21.796   2.230
31509W        W99903  33.251  20.792   3.605
31510W        W99904  30.456  16.984  13.524
31511W        W99905   9.910  31.520  13.124
31512W        W99906  18.857  19.084  12.605
31513W        W99907  32.941  17.590   2.185
31514W        W99908  16.143  31.857   3.228
31515W        W99909  34.010  25.714  14.070
31516W        W99910  12.933  22.863   4.697
31517W        W99911  12.064  44.990  11.942
31518W        W99912  44.899  34.929  14.892
31519W        W99913  12.582  21.841   2.611
31520W        W99914  27.211  44.825   4.106
31521W        W99915   5.203  17.102  14.745
31522W        W99916  15.083  27.223  14.771
31523W        W99917  22.001  30.714   4.211
31524W        W99918  29.158  13.411  10.607
31525W        W99919  41.131  44.908   2.664
31526W        W99920  11.666   9.681  11.083
31527W        W99921  24.720  23.646  14.112
31528W        W99922  19.205  24.114  10.576
31529W        W99923  24.078  12.027   4.943
31530W        W99924  42.196   0.718  12.701
31531W        W99925   4.874  25.204  13.344
31532W        W99926  18.064  35.531  11.978
31533W        W99927  25.452  18.264  12.358
31534W        W99928  31.979  17.677   0.005
31535W        W99929  12.523  33.338   1.312
31536W        W99930  37.062   9.666   3.800
31537W        W99931  32.125  10.636  14.837
31538W        W99932  11.783  38.457  10.773
31539W        W99933  35.119  33.030   0.483
31540W        W99934   7.241   2.183  13.956
31541W        W99935  29.497  31.133  11.995
31542W        W99936   7.256  21.622  12.815
31543W        W99937  23.495  26.593  10.274
31544W        W99938  26.462  25.189   4.875
31545W        W99939  26.990  39.856   2.870
31546W        W99940  27.078  31.016  14.055
31547W        W99941  32.598   3.610   1.946
31548W        W99942  31.018   0.559   4.916
31549W        W99943  41.442  39.748   2.860
31550W        W99944  19.624  29.005  14.321
31551W        W99945  41.045  39.962  13.506
31552W        W99946   8.865   5.393  14.514
31553W        W99947   4.292  28.342   4.060
31554W        W99948   5.968  24.843   2.874
31555W        W99949  17.791   3.287   2.382
31556W        W99950  40.280  44.817  12.860
31557W        W99951  44.127   2.279   4.041
31558W        W99952  34.592  23.434  11.162
31559W        W99953   4.460  38.709   4.551
31560W        W99954  42.571  21.576   1.250
31561W        W99955  13.848   7.467  10.188
31562W        W99956  20.279  37.139   2.277
31563W        W99957  43.751  26.830  14.350
31564W        W99958  19.768  22.506   4.224
31565W        W99959  40.352   2.741  10.733
31566W        W99960  20.374  32.877   4.184
31567W        W99961  19.680  14.829  11.859
31568W        W99962  21.690  26.762   4.134
31569W        W99963  18.164  11.044  12.355
31570W        W99964  34.013  40.411  12.037
31571W        W99965  37.256  25.614   2.775
31572W        W99966  10.757  14.763   2.188
31573W        W99967  20.358  18.973  14.472
31574W        W99968   3.668  15.158   2.630
31575W        W99969  38.413   4.329   0.038
31576W        W99970   4.255  13.866  12.088
31577W        W99971  28.921  37.128  12.085
31578W        W99972   3.141   0.979   1.249
31579W        W99973  23.734  26.627   0.079
31580W        W99974  39.519  31.758   4.015
31581W        W99975  20.556  26.203  13.815
31582W        W99976  39.387  32.617   0.841
31583W        W99977  11.799   2.448   2.179
31584W        W99978   8.193  44.805  13.598
31585W        W99979  19.491  22.142  13.841
31586W        W99980  36.433  40.353  10.739
31587W        W99981  41.247   0.417  10.760
31588W        W99982  38.058  22.232  11.284
31589W        W99983   2.679  28.570   2.331
31590W        W99984  42.506  30.939   1.660
31591W        W99985  16.721  33.224  11.246
31592W        W99986  14.418  29.440  13.090
31593W        W99987  19.615  23.208   0.520
31594W        W99988   0.416   6.092   2.363
31595W        W99989   8.836  21.693  12.831
31596W        W99990  21.784   5.356   0.012
31597W        W99991  27.183   7.194   2.556
31598W        W99992  20.510  20.240   1.531
31599W        W99993  15.795  27.452  10.687
31600W        W99994   8.939  24.176  14.695
31601W        W99995   9.419  26.453   0.039
31602W        W99996  34.116  23.042   0.904
31603W        W99997  14.108  12.674  13.096
31604W        W99998   7.802  11.563   1.405
31605W        W99999   4.220  37.059  11.636
31606W        W    0  12.347  39.086  11.959
31607W        W    1   1.382  19.657   4.031
31608W        W    2   9.080   1.437   0.768
31609W        W    3  42.389  30.120  12.974
31610W        W    4  31.646  40.455   2.730
31611W        W    5  16.572  29.404  14.068
31612W        W    6  14.702  30.761  13.472
31613W        W    7  17.537  14.763  13.668
31614W        W    8  41.403   4.536   4.548
31615W        W    9  10.915  29.232   4.094
31616W        W   10  18.353  44.781  14.493
31617W        W   11  26.653  43.478   0.853
31618W        W   12  42.914  41.311   1.472
31619W        W   13  35.270  35.955   9.822
31620W        W   14  13.100  17.100  13.775
31621W        W   15  27.419  36.329  12.538
31622W        W   16  17.760  25.346   4.150
31623W        W   17  39.723  39.360  14.514
31624W        W   18  13.766   7.157   1.938
31625W        W   19  19.271  43.319   1.414
31626W        W   20  41.824  27.467   3.852
31627W        W   21  30.017  11.020   0.983
31628W        W   22   6.142  32.968  10.543
31629W        W   23   0.781   5.000   1.899
31630W        W   24  22.080  33.181  12.193
31631W        W   25  31.345   0.187  11.051
31632W        W   26  18.181   2.889   0.706
31633W        W   27  40.799  38.364  13.401
31634W        W   28  29.466  26.474   0.971
31635W        W   29  30.621  23.514  11.148
31636W        W   30  29.078   3.361   2.860
31637W        W   31  15.014   7.872  13.474
31638W        W   32   1.334   5.362  13.902
31639W        W   33  22.497  41.583   3.715
31640W        W   34  12.002  17.595   3.313
31641W        W   35  30.817  20.336  10.973
31642W        W   36  23.741   5.361  11.551
31643W        W   37  17.552  41.053  13.363
31644W        W   38  30.057  28.101  11.311
31645W        W   39  44.716  42.427   0.269
31646W        W   40  14.809  15.427   4.174
31647W        W   41   9.219  12.382   3.341
31648W        W   42  43.839  14.158   4.842
31649W        W   43  24.676  17.598  13.408
31650W        W   44  27.528   6.129  14.715
31651W        W   45   8.645  14.603  12.005
31652W        W   46  41.688  16.334   1.877
31653W        W   47   9.051  13.780  13.273
31654W        W   48   6.658  33.415   1.248
31655W        W   49   7.665  17.924  14.059
31656W        W   50  19.725  24.083  10.611
31657W        W   51  31.126  13.564   1.889
31658W        W   52  13.082  29.599   4.531
31659W        W   53  17.781   2.217  10.890
31660W        W   54   7.194  15.881  14.864
31661W        W   55  26.651  10.302  10.989
31662W        W   56  16.358  13.607  14.933
31663W        W   57  37.579   1.407  11.607
31664W        W   58  25.547  26.706  10.347
31665W        W   59  14.429  30.578  10.769
31666W        W   60  28.968  39.923   0.940
31667W        W   61  43.313  41.200  11.111
31668W        W   62  23.076  40.096   2.867
31669W        W   63   9.872   7.664  13.462
31670W        W   64  17.574  36.792   2.664
31671W        W   65   0.769  32.664   1.723
31672W        W   66  15.118   5.187   2.081
31673W        W   67  34.826   7.149   2.715
31674W        W   68  33.470  37.334  11.816
31675W        W   69  30.177  29.266   3.576
31676W        W   70   3.775  26.750  14.310
31677W        W   71  31.527   2.500   2.227
31678W        W   72  11.104  13.202  12.104
31679W        W   73  31.732  29.069   2.678
31680W        W   74  11.719  32.212   4.555
31681W        W   75  29.192  36.040   4.629
31682W        W   76  28.933  24.746  12.899
31683W        W   77  33.205  26.085  14.046
31684W        W   78  39.825   7.196  14.070
31685W        W   79  14.707  27.259   3.848
31686W        W   80  39.973  21.729   1.744
31687W        W   81   7.834   0.939   3.322
31688W        W   82   2.723   5.888   4.265
31689W        W   83  24.265  22.697  12.984
31690W        W   84   2.204   7.846   1.731
31691W        W   85  42.900   8.245  14.042
31692W        W   86   9.864  32.533   3.293
31693W        W   87  19.727  11.534  10.721
31694W        W   88   7.219  10.954  12.487
31695W        W   89  22.738   2.710   3.323
31696W        W   90  15.518  37.565   2.472
31697W        W   91   4.255  28.846  13.050
31698W        W   92  39.305  39.347   1.272
31699W        W   93  21.646  11.325   1.684
31700W        W   94  13.587  20.134   3.147
31701W        W   95  18.378  43.879  12.070
31702W        W   96  23.120  14.436  12.963
31703W        W   97  20.600  19.107   2.614
31704W        W   98  44.863  15.598   1.894
31705W        W   99   6.711   1.771   4.083
31706W        W  100  14.222   2.795   2.670
31707W        W  101  37.901  26.047   4.322
31708W        W  102  17.993  23.099  14.858
31709W        W  103  42.059   8.119  12.866
31710W        W  104  34.181  42.004  12.497
31711W        W  105   7.209   0.996  11.579
31712W        W  106  11.060  14.909  10.510
31713W        W  107  21.418  38.998  10.743
31714W        W  108  10.810  39.001   4.620
31715W        W  109  15.578  43.947   4.467
31716W        W  110  37.276  15.224   2.719
31717W        W  111  18.528  35.336  12.181
31718W        W  112  38.673  16.382   5.008
31719W        W  113  24.602  14.650   3.790
31720W        W  114  33.564   6.260  13.518
31721W        W  115  25.189  42.844  11.191
31722W        W  116  36.831  14.111   0.322
31723W        W  117  34.452  20.737   1.417
31724W        W  118  41.596  44.682   2.338
31725W        W  119  43.180  44.322  14.297
31726W        W  120  44.798  10.214   0.858
31727W        W  121  19.624  12.819   0.802
31728W        W  122  23.631   6.730  12.162
31729W        W  123  12.075  10.606  14.383
31730W        W  124  38.694  38.455   0.518
31731W        W  125   3.417   1.416   0.463
31732W        W  126  12.080  23.010  10.627
31733W        W  127  17.756  27.981   0.501
31734W        W  128   5.332  24.076   2.548
31735W        W  129  18.158  13.138   3.940
31736W        W  130  31.834  18.743  14.314
31737W        W  131  12.162   4.853   0.621
31738W        W  132  17.239  15.749   0.594
31739W        W  133  10.718  20.290   3.214
31740W        W  134  36.563  41.406   0.427
31741W        W  135  21.722   2.983  10.671
31742W        W  136  11.134  21.287  12.525
31743W        W  137   4.387  37.150  12.587
31744W        W  138  38.591  29.456   2.285
31745W        W  139  25.281  39.513  11.381
31746W        W  140  42.375  30.394  13.419
31747W        W  141  26.809  33.660  12.081
31748W        W  142  38.780  22.518  14.042
31749W        W  143  41.193   1.528  13.943
31750W        W  144  34.474  40.374   0.984
31751W        W  145   0.316  29.007   4.639
31752W        W  146  31.953  13.487  12.031
31753W        W  147  14.650  26.586   2.402
31754W        W  148  15.085  32.000  13.016
31755W        W  149  37.796  10.136   1.051
31756W        W  150  11.772  32.153  11.517
31757W        W  151  23.168   7.682   0.061
31758W        W  152  43.711  36.881   1.851
31759W        W  153  29.466  41.799   1.805
31760W        W  154  38.345  43.869  14.574
31761W        W  155   7.697   3.239   4.611
31762W        W  156   1.064  34.906   4.759
31763W        W  157  21.257  43.150   5.101
31764W        W  158  41.911  39.097   2.518
31765W        W  159  30.311  34.587  11.672
31766W        W  160  34.877   7.285   4.639
31767W        W  161  19.168  25.617   5.403
31768W        W  162  10.489  23.610   1.313
31769W        W  163  44.277  41.707  12.687
31770W        W  164   3.391  35.366   3.669
31771W        W  165  21.537   3.518   9.867
31772W        W  166   2.439  14.662  14.536
31773W        W  167  44.202  35.744  14.834
31774W        W  168   3.699   1.247   4.591
31775W        W  169  18.112  19.087   1.219
31776W        W  170  30.960   0.951  13.374
31777W        W  171  30.649  20.116  14.992
31778W        W  172  33.088  23.540   3.976
31779W        W  173  38.411  10.455  11.375
31780W        W  174  14.027  29.697  14.499
31781W        W  175   7.417  33.831  12.415
31782W        W  176   3.184  37.063   3.099
31783W        W  177  22.298  17.724  12.916
31784W        W  178  12.658  41.637  14.893
31785W        W  179  39.031  13.218  12.488
31786W        W  180  34.586  19.782   2.851
31787W        W  181   8.673  41.163   4.372
31788W        W  182  27.538   7.338  12.646
31789W        W  183  14.118  19.800  11.964
31790W        W  184  36.575  11.727  14.847
31791W        W  185  44.993  40.794   2.242
31792W        W  186  26.110   1.016  13.782
31793W        W  187  19.065  39.611   3.440
31794W        W  188  13.388  33.838   3.185
31795W        W  189  36.047  44.976   0.584
31796W        W  190  38.473  19.541   3.754
31797W        W  191   3.966  41.887   0.973
31798W        W  192  24.437  10.210  11.581
31799W        W  193   4.199  22.521  11.184
31800W        W  194  25.658  21.124   4.088
31801W        W  195  15.028  29.455  10.831
31802W        W  196  19.058   8.797   4.509
31803W        W  197  27.927   5.939   1.878
31804W        W  198  23.080  31.063   1.741
31805W        W  199  30.446  27.112  11.504
31806W        W  200  23.987   1.858  13.590
31807W        W  201  39.336   9.775   4.549
31808W        W  202   0.823  30.702  14.112
31809W        W  203   8.830  14.541  14.861
31810W        W  204   2.667  35.445  14.917
31811W        W  205  11.558  42.844   3.845
31812W        W  206  14.055   8.227  11.235
31813W        W  207   4.172  33.073   2.366
31814W        W  208   9.793   1.010   0.865
31815W        W  209  11.780  20.999   4.179
31816W        W  210  17.523  28.031   3.290
31817W        W  211  17.120  39.533   3.358
31818W        W  212  24.550  35.078   2.856
31819W        W  213  34.932  24.066   2.255
31820W        W  214   2.420  23.171   4.043
31821W        W  215  41.280  44.328  10.987
31822W        W  216  24.590  39.455  14.724
31823W        W  217  39.074  10.938  12.846
31824W        W  218  30.738   3.367   2.349
31825W        W  219  42.809  35.778   2.388
31826W        W  220  27.353   9.292   9.722
31827W        W  221   9.798  20.555   0.647
31828W        W  222  44.615  38.976   1.715
31829W        W  223  25.098  43.759   4.129
31830W        W  224  10.902   8.464  12.071
31831W        W  225   3.227  20.571  14.904
31832W        W  226   2.625  38.289   3.187
31833W        W  227  30.528   2.352  14.827
31834W        W  228  28.215   1.223   3.207
31835W        W  229  20.978  31.468   2.689
31836W        W  230  25.768  15.963   3.982
31837W        W  231  25.049  44.334  14.464
31838W        W  232  43.280   6.474  12.018
31839W        W  233   8.940  23.462   1.257
31840W        W  234  10.903  13.643   3.003
31841W        W  235   6.694  14.496  11.957
31842W        W  236  28.006  23.004  11.634
31843W        W  237  31.659  14.926   4.013
31844W        W  238   4.740  39.421  10.741
31845W        W  239   8.828   2.473   4.715
31846W        W  240   4.828   1.674   2.277
31847W        W  241  16.080  12.624  12.063
31848W        W  242  13.914  30.185   3.872
31849W        W  243  38.272  11.785  12.029
31850W        W  244  28.995  39.105   4.228
31851W        W  245  41.895  19.075   3.246
31852W        W  246  16.542  34.525   2.373
31853W        W  247  37.162  25.516  13.611
31854W        W  248  38.993  37.974   1.310
31855W        W  249  19.185  20.399  10.306
31856W        W  250  44.314  32.688  11.625
31857W        W  251  25.650  21.769   2.892
31858W        W  252  35.914  42.229   0.881
31859W        W  253  20.978   2.722  12.568
31860W        W  254  31.151  44.530  13.831
31861W        W  255   2.439  22.014   2.298
31862W        W  256  42.301  13.271   4.532
31863W        W  257  10.699  12.736  10.867
31864W        W  258  32.876  28.746   1.314
31865W        W  259  19.596  42.911  14.114
31866W        W  260  30.915  33.099  14.591
31867W        W  261  12.425  27.135  13.990
31868W        W  262   6.137  13.224   4.569
31869W        W  263  44.751  12.526  14.218
31870W        W  264  11.295  18.527  11.683
31871W        W  265  34.475   1.850   0.868
31872W        W  266  33.367  37.643  11.372
31873W        W  267  11.837  33.330   2.651
31874W        W  268   2.425  34.970  14.956
31875W        W  269  17.486  21.340  13.557
31876W        W  270   7.761  19.947  11.190
31877W        W  271  16.549  36.517   0.428
31878W        W  272   6.338   7.578   4.109
31879W        W  273  40.463  26.001   0.782
31880W        W  274   1.980  12.755  11.569
31881W        W  275  12.842  25.731   2.360
31882W        W  276   9.851  30.533  10.639
31883W        W  277   9.083   4.636  11.414
31884W        W  278   9.325  27.106  12.556
31885W        W  279   0.248  38.072  13.298
31886W        W  280  24.386  41.373  13.844
31887W        W  281  29.396  32.845   0.387
31888W        W  282   1.957  32.054   2.605
31889W        W  283  33.985  25.087   1.193
31890W        W  284  22.005  31.018  14.366
31891W        W  285  35.358   2.654  11.148
31892W        W  286  38.900  31.439  14.323
31893W        W  287  33.442  41.814  12.965
31894W        W  288  19.309  21.504  12.479
31895W        W  289   2.928   3.299  13.459
31896W        W  290   3.759  38.542  10.747
31897W        W  291  23.993   6.705  13.475
31898W        W  292  22.308  15.333  12.153
31899W        W  293   8.383  40.281  10.593
31900W        W  294  35.358  10.114   2.903
31901W        W  295   9.385  31.569  12.464
31902W        W  296   6.691   5.213   0.338
31903W        W  297  24.520   0.712   3.202
31904W        W  298  35.472  34.124   0.546
31905W        W  299  31.721  13.145   4.193
31906W        W  300  40.261  38.108   2.766
31907W        W  301  24.567  17.184  13.091
31908W        W  302  12.145   4.272  13.891
31909W        W  303  25.097  33.322   5.211
31910W        W  304  34.878  20.069  10.732
31911W        W  305  20.562   2.887  11.579
31912W        W  306  42.856  13.303  14.088
31913W        W  307  27.060  10.613   1.745
31914W        W  308  17.650  13.886  10.786
31915W        W  309  27.920  17.553  12.575
31916W        W  310   6.053  30.567  11.232
31917W        W  311  33.033  25.221   4.384
31918W        W  312  28.022  43.920  14.757
31919W        W  313  33.106  38.855  14.383
31920W        W  314  38.092   5.866  11.947
31921W        W  315  35.448  10.425  14.713
31922W        W  316  11.787  22.035   0.939
31923W        W  317   1.770  27.997   4.686
31924W        W  318  13.828  29.669   3.799
31925W        W  319  39.052  27.634  13.823
31926W        W  320  19.372  11.710   5.010
31927W        W  321  15.891  22.457   3.256
31928W        W  322  20.224   0.485  12.879
31929W        W  323  19.218  30.562  11.065
31930W        W  324  27.518  34.195  14.687
31931W        W  325  14.304  25.262  11.216
31932W        W  326  41.397  44.306   1.935
31933W        W  327   4.122  27.121  12.370
31934W        W  328   5.048  35.611  13.566
31935W        W  329  19.380  38.798   1.398
31936W        W  330  12.120   0.267  12.525
31937W        W  331  24.023  27.610   0.904
31938W        W  332  33.560  31.393  12.176
31939W        W  333  10.285  11.965  14.335
31940W        W  334  43.991  39.164   4.417
31941W        W  335  17.340   0.025  12.716
31942W        W  336  40.697  13.985   0.792
31943W        W  337  31.889  34.962   0.911
31944W        W  338  17.645  15.509   9.883
31945W        W  339  22.099  32.180  12.556
31946W        W  340  27.056   5.995  11.520
31947W        W  341  28.481   2.283  14.049
31948W        W  342  25.720   0.638   1.935
31949W        W  343  38.356   4.260   4.699
31950W        W  344   5.761   1.294  13.815
31951W        W  345  26.795  41.450   2.827
31952W        W  346  43.905  43.036   3.273
31953W        W  347  12.120  35.906  12.399
31954W        W  348   9.584   0.864  14.410
31955W        W  349  31.418  34.065  14.906
31956W        W  350  19.202  19.871   4.713
31957W        W  351  15.556  35.568  13.491
31958W        W  352   1.784   3.817   2.758
31959W        W  353  20.269   6.954  14.418
31960W        W  354  27.227  11.582  10.602
31961W        W  355  41.019  26.777   1.774
31962W        W  356  34.805  24.043   0.031
31963W        W  357  34.386  40.873   0.167
31964W        W  358  20.319  20.930  12.996
31965W        W  359  44.819   7.351   2.663
31966W        W  360  28.487  24.977   3.252
31967W        W  361  15.689  33.565  12.019
31968W        W  362  19.250   6.135  13.118
31969W        W  363  30.140  12.621   4.267
31970W        W  364  23.539  25.267  13.499
31971W        W  365  21.436  24.071  14.084
31972W        W  366  33.487   9.602   0.326
31973W        W  367   4.797  32.642  13.984
31974W        W  368  33.105  38.889  11.248
31975W        W  369  30.103  33.200  11.688
31976W        W  370  31.115   1.523   2.154
31977W        W  371   0.291  33.352   0.748
31978W        W  372  15.689  34.999   3.037
31979W        W  373  27.999   4.261  11.171
31980W        W  374  22.255  41.022   2.708
31981W        W  375  17.226  17.571   2.705
31982W        W  376  20.658   1.521   2.323
31983W        W  377   0.974  33.403  14.834
31984W        W  378  44.867  35.136  12.031
31985W        W  379  44.567  26.101  13.910
31986W        W  380  14.093   5.714  14.553
31987W        W  381  37.465   7.748   2.790
31988W        W  382  37.850  16.535  11.116
31989W        W  383   3.176  41.415  12.291
31990W        W  384  19.454  18.946  11.706
31991W        W  385  39.367  11.890  11.252
31992W        W  386  18.272  26.097  11.539
31993W        W  387  37.371   9.400  14.361
31994W        W  388  17.771  17.136   1.426
31995W        W  389   0.872  20.752  13.345
31996W        W  390  11.772  16.081  10.610
31997W        W  391  44.076  13.983  13.442
31998W        W  392  38.253  33.125   0.823
31999W        W  393  15.258  14.124   2.554
32000W        W  394  30.701  40.005   4.259
32001W        W  395  33.650   2.653   0.880
32002W        W  396  11.425  14.103   0.037
32003W        W  397   0.451  24.680   1.303
32004W        W  398  37.116  32.595  10.669
32005W        W  399  30.064  10.356  10.445
32006W        W  400  42.955  31.924  14.469
32007W        W  401  44.202  13.420   3.714
32008W        W  402   9.082  41.626  11.073
32009W        W  403  29.877  17.644  12.293
32010W        W  404  16.583  25.307  12.049
32011W        W  405  28.194  20.503   4.289
32012W        W  406  38.787  10.471  10.566
32013W        W  407   0.294  21.081  12.577
32014W        W  408  30.491  17.759   2.245
32015W        W  409  19.972  22.696   4.639
32016W        W  410  22.297  32.921   2.143
32017W        W  411  31.306  32.440   3.308
32018W        W  412  14.107  17.961  11.625
32019W        W  413  24.602  28.404  14.791
32020W        W  414  33.671  44.487  11.065
32021W        W  415  19.544  30.871   4.916
32022W        W  416  19.158  41.776   3.568
32023W        W  417  37.467  28.978   1.197
32024W        W  418  43.420  40.062   3.691
32025W        W  419   6.645   7.822   3.743
32026W        W  420  10.833  31.671   2.223
32027W        W  421  13.728  39.967  14.083
32028W        W  422  14.542  41.419  14.973
32029W        W  423  29.593  13.230   3.447
32030W        W  424  24.737  35.486   2.224
32031W        W  425   5.709  27.091  11.591
32032W        W  426  33.439  23.735   1.431
32033W        W  427  12.628  30.048   1.342
32034W        W  428  34.154  36.837  11.678
32035W        W  429  42.883  43.499   1.449
32036W        W  430  22.668  37.059   0.313
32037W        W  431  19.753  16.169  11.001
32038W        W  432  12.702  41.107  14.996
32039W        W  433  44.984  19.360   0.436
32040W        W  434  41.997  28.279   3.759
32041W        W  435  35.712  15.219  12.570
32042W        W  436  30.873  37.922   3.082
32043W        W  437  37.070  32.877   0.332
32044W        W  438  39.879   5.241   0.243
32045W        W  439   4.473  42.798  12.625
32046W        W  440  25.386  19.591  11.286
32047W        W  441  20.137   3.941   3.318
32048W        W  442  19.028  35.181   2.591
32049W        W  443  30.148  15.084  12.028
32050W        W  444   6.168  16.992   1.205
32051W        W  445   8.904  28.039   2.045
32052W        W  446  12.652   9.936   0.779
32053W        W  447  28.596  17.890  14.441
32054W        W  448  12.557   3.383   1.655
32055W        W  449  41.105  14.928   3.224
32056W        W  450  16.608  31.643   3.203
32057W        W  451  31.914   8.271   4.217
32058W        W  452  25.554  12.978   2.086
32059W        W  453  15.358  21.774  11.986
32060W        W  454   5.021  24.065  12.456
32061W        W  455  40.964  43.909   3.402
32062W        W  456  28.016  34.923   1.500
32063W        W  457  33.016  14.055   4.623
32064W        W  458   9.141   4.648   0.258
32065W        W  459  21.759  16.219   4.057
32066W        W  460  12.103  30.352  10.969
32067W        W  461  24.258  28.661   3.745
32068W        W  462  21.312   7.718   1.261
32069W        W  463  22.609   8.930   1.467
32070W        W  464  13.361  37.479  10.230
32071W        W  465  30.709   6.990  11.074
32072W        W  466  41.343  39.670  12.562
32073W        W  467  13.019  27.659  12.958
32074W        W  468  37.583  25.083   0.304
32075W        W  469  24.253  22.259  14.286
32076W        W  470  33.348  35.363   1.424
32077W        W  471  34.482  24.639  11.746
32078W        W  472  20.539  13.284   3.342
32079W        W  473  38.315   1.243  13.631
32080W        W  474  43.855   0.760  12.957
32081W        W  475  39.980  21.779   0.154
32082W        W  476  23.500  35.359  14.887
32083W        W  477  11.659   4.256  12.981
32084W        W  478  26.860  44.768   4.476
32085W        W  479  33.681  42.416   2.852
32086W        W  480  44.699  15.470   2.835
32087W        W  481   7.388   3.015   2.771
32088W        W  482  29.239  37.932  11.042
32089W        W  483  31.879  29.538   2.130
32090W        W  484  32.084  15.953   4.607
32091W        W  485  13.252  23.661  12.775
32092W        W  486  38.076  28.578  14.762
32093W        W  487  24.516  12.682   2.996
32094W        W  488   8.443  10.237   2.207
32095W        W  489  41.008  14.764   2.038
32096W        W  490  13.203  31.694   3.763
32097W        W  491  24.613   0.138  10.070
32098W        W  492  28.770  19.402  14.388
32099W        W  493  29.458  35.898  14.530
32100W        W  494  12.107  21.057   1.507
32101W        W  495  35.361  13.135  11.274
32102W        W  496  19.699  19.279  13.823
32103W        W  497  12.670  28.214   4.457
32104W        W  498  22.585   7.740  10.613
32105W        W  499   1.771   0.536  11.772
32106W        W  500   9.764  22.543  10.587
32107W        W  501  40.564  16.605  12.270
32108W        W  502  33.630  40.652   1.372
32109W        W  503  26.945  17.391   5.260
32110W        W  504  11.569  30.427  14.463
32111W        W  505   5.531   5.830  11.633
32112W        W  506  21.187  32.087   5.039
32113W        W  507  34.148   0.702  11.171
32114W        W  508  36.371  43.602   4.138
32115W        W  509  28.422  29.599   0.233
32116W        W  510  38.759  27.543   4.706
32117W        W  511  39.604  12.402  11.719
32118W        W  512  21.794   5.342   1.457
32119W        W  513  26.026  19.800  14.770
32120W        W  514  24.641   8.400   0.027
32121W        W  515   7.777  33.364  14.481
32122W        W  516   3.008  14.262   1.199
32123W        W  517  24.646  12.229   3.766
32124W        W  518  19.201   9.074   0.452
32125W        W  519  36.127   4.271  10.871
32126W        W  520  42.202  15.817  10.801
32127W        W  521  35.081  33.530  11.130
32128W        W  522   0.221  27.496  14.001
32129W        W  523   5.756  13.534  12.636
32130W        W  524   0.171  39.482  14.457
32131W        W  525   1.012  37.826  12.946
32132W        W  526  26.731  44.307  13.541
32133W        W  527  29.824   0.356  10.059
32134W        W  528  16.046  36.439  11.741
32135W        W  529   5.773  33.623  13.978
32136W        W  530   1.308  16.249  12.258
32137W        W  531  15.359  27.781  10.588
32138W        W  532  21.163  16.713   1.409
32139W        W  533  23.482   0.447  10.573
32140W        W  534  37.310  12.228  14.882
32141W        W  535  34.532  26.779  12.189
32142W        W  536  17.635  18.788  12.587
32143W        W  537   2.856  12.097   3.531
32144W        W  538  25.981  18.492  12.985
32145W        W  539  14.193  14.108  12.890
32146W        W  540  44.873  31.826   3.630
32147W        W  541   1.764   5.714  14.361
32148W        W  542  23.694  17.682   0.213
32149W        W  543  44.469  39.160  12.955
32150W        W  544   0.860   3.778   1.804
32151W        W  545  40.966  16.443  10.663
32152W        W  546  33.619   5.456   2.411
32153W        W  547   7.401  10.737  14.940
32154W        W  548   2.510   6.791   2.762
32155W        W  549   9.746  36.868   3.863
32156W        W  550  19.148  15.938  12.833
32157W        W  551  34.561   0.725  12.047
32158W        W  552  16.546  25.530  12.963
32159W        W  553   6.640  16.228   2.257
32160W        W  554  21.736   8.805  10.986
32161W        W  555  32.509  28.899   4.169
32162W        W  556  34.095  33.323   2.744
32163W        W  557  39.933  27.214   1.824
32164W        W  558  13.917  24.822  13.029
32165W        W  559  36.536  16.576   4.158
32166W        W  560  31.168  38.977   2.415
32167W        W  561  20.638  24.955  11.566
32168W        W  562   0.755  13.309  14.342
32169W        W  563  24.403  18.119  11.102
32170W        W  564  19.907  33.025  14.818
32171W        W  565  44.258  14.536  12.437
32172W        W  566   9.814  39.753   1.218
32173W        W  567  20.114  16.178  14.996
32174W        W  568  19.607  29.121  13.464
32175W        W  569  37.593  43.974   0.300
32176W        W  570  22.076  17.052  13.699
32177W        W  571  16.170   7.412  12.783
32178W        W  572  20.505  27.258   2.737
32179W        W  573  29.790   0.207   1.359
32180W        W  574  42.829   6.374  12.266
32181W        W  575  22.446  25.534   5.024
32182W        W  576  34.005  29.980  14.723
32183W        W  577  14.641   8.184  10.100
32184W        W  578  24.150  30.579   4.744
32185W        W  579   9.708  12.541   1.363
32186W        W  580  31.691  26.563  14.019
32187W        W  581   2.422  43.099  10.917
32188W        W  582  41.028  11.854   3.187
32189W        W  583  20.766  36.216  11.970
32190W        W  584   7.245   8.262  12.602
32191W        W  585  32.033   0.818   1.216
32192W        W  586   3.523  35.455  14.479
32193W        W  587  32.853  34.327   1.209
32194W        W  588   1.839  20.225  14.375
32195W        W  589   9.806  42.901  14.449
32196W        W  590  32.380  21.316   5.014
32197W        W  591   3.376   3.281  10.699
32198W        W  592   5.924  37.392   4.865
32199W        W  593  14.294   2.212  14.799
32200W        W  594  10.856  21.179   2.131
32201W        W  595  31.844  26.529  11.233
32202W        W  596  39.501  42.505   3.672
32203W        W  597  34.502  20.060   0.308
32204W        W  598   3.913  22.139  10.937
32205W        W  599  20.223  11.374   1.183
32206W        W  600  25.256  16.120   2.614
32207W        W  601  25.699  42.413   0.911
32208W        W  602  11.967  37.738  12.113
32209W        W  603   0.761   7.079   3.160
32210W        W  604  39.290   2.296  10.656
32211W        W  605   6.054  40.985  13.977
32212W        W  606  12.868  29.838  12.685
32213W        W  607  21.495  35.070   1.522
32214W        W  608   3.814  14.984   2.117
32215W        W  609  19.677  39.642  12.943
32216W        W  610   9.743   9.414  10.494
32217W        W  611  15.870  16.705   0.420
32218W        W  612  39.872   0.734   1.887
32219W        W  613  38.384  43.952  10.582
32220W        W  614  41.565   9.273  10.979
32221W        W  615  43.501  11.356   3.530
32222W        W  616  34.279  21.287   2.834
32223W        W  617  31.885  24.266   1.864
32224W        W  618  28.497  25.194  12.023
32225W        W  619  26.950  42.514  10.637
32226W        W  620  33.050  36.324   4.351
32227W        W  621   4.392  13.116  14.883
32228W        W  622  33.022  33.328   1.830
32229W        W  623  37.215  22.912  13.538
32230W        W  624  31.349  15.075   4.405
32231W        W  625  37.035  35.592  10.680
32232W        W  626  34.051  14.181  10.916
32233W        W  627   5.746  37.478   0.729
32234W        W  628  44.637  14.080   4.119
32235W        W  629  18.564  19.819   5.466
32236W        W  630  35.820   1.241  12.020
32237W        W  631  28.230  43.756   2.637
32238W        W  632   3.437  40.468  12.422
32239W        W  633  40.584  43.769  13.365
32240W        W  634  38.477  28.973  13.191
32241W        W  635  32.526  27.680  10.701
32242W        W  636  42.560   0.797  12.306
32243W        W  637  11.415   8.534  11.954
32244W        W  638  29.159  44.335  14.926
32245W        W  639  19.054   7.871  11.114
32246W        W  640  42.886  25.282   0.372
32247W        W  641   8.058  36.298   3.270
32248W        W  642  31.614  34.121  13.457
32249W        W  643  41.475  42.819  11.420
32250W        W  644  24.214   9.354  14.820
32251W        W  645  36.382  18.621  10.861
32252W        W  646  11.377  31.103   2.165
32253W        W  647  13.163  33.176   0.387
32254W        W  648  20.578  28.407  11.116
32255W        W  649  32.385   3.873   3.441
32256W        W  650   7.601   0.232  12.897
32257W        W  651   5.849  34.323  13.393
32258W        W  652  27.552  32.897  12.591
32259W        W  653  32.647  41.806   0.546
32260W        W  654  12.151  19.381  12.496
32261W        W  655  14.590  11.840   2.318
32262W        W  656  28.687  16.096   3.328
32263W        W  657  38.278   0.652  14.956
32264W        W  658  21.315  34.313  14.070
32265W        W  659  35.447  27.165   1.430
32266W        W  660  38.363  35.977   4.586
32267W        W  661  39.594   7.312   2.242
32268W        W  662   2.432  32.345  11.179
32269W        W  663   7.453  17.252  13.028
32270W        W  664  23.265  36.965  14.463
32271W        W  665  18.897  14.420  13.378
32272W        W  666   1.024  33.271  11.097
32273W        W  667  33.966   2.018   0.955
32274W        W  668  11.753  13.425   4.176
32275W        W  669  36.942  24.216  12.446
32276W        W  670  42.443  33.477  14.977
32277W        W  671   1.002  30.391   2.392
32278W        W  672  37.981   0.234   0.050
32279W        W  673  22.183  44.619   4.149
32280W        W  674  37.933  17.784  11.877
32281W        W  675   7.374  17.610  12.656
32282W        W  676  39.059  18.710  14.429
32283W        W  677   7.411  32.598   0.428
32284W        W  678  36.371   9.452   1.194
32285W        W  679  39.696  25.560   4.111
32286W        W  680  28.760   2.402  14.488
32287W        W  681   6.402  33.393  13.984
32288W        W  682   9.110  24.730  11.120
32289W        W  683  10.404  26.969   3.657
32290W        W  684   0.729  29.916   2.381
32291W        W  685   2.383  29.790  10.160
32292W        W  686  22.086  17.843  11.232
32293W        W  687  41.538  20.686  12.704
32294W        W  688   6.319   7.382   2.413
32295W        W  689  30.083   9.553   1.274
32296W        W  690   7.930  35.606   2.529
32297W        W  691   2.322  30.933   0.334
32298W        W  692   3.904   8.384   3.329
32299W        W  693   8.940  14.142  11.114
32300W        W  694  15.204  22.831  12.005
32301W        W  695   4.308  34.146  13.375
32302W        W  696  17.732  43.875   1.876
32303W        W  697   8.207  33.440  11.908
32304W        W  698  26.025  33.709   3.193
32305W        W  699  30.962   8.148   1.384
32306W        W  700   0.056  17.682   1.320
32307W        W  701   8.519   6.307   0.814
32308W        W  702  19.622  22.131   2.174
32309W        W  703  26.050   0.035   3.905
32310W        W  704   3.906  18.793  11.988
32311W        W  705   9.238   2.370   0.182
32312W        W  706  26.870  22.548   1.742
32313W        W  707  24.059   3.112  12.620
32314W        W  708   2.961  32.736   4.510
32315W        W  709  44.917  27.048   0.975
32316W        W  710  27.876  10.155   1.398
32317W        W  711  33.204   6.485  14.858
32318W        W  712  21.025   8.870  13.409
32319W        W  713  40.750  24.433  11.735
32320W        W  714   2.362  12.740   5.053
32321W        W  715   0.053   6.188  14.017
32322W        W  716  37.840  16.168   4.452
32323W        W  717  43.324  11.558  12.596
32324W        W  718  16.748  26.990  13.765
32325W        W  719  38.444  26.949  14.971
32326W        W  720   6.203  27.443   4.244
32327W        W  721  11.264  14.275  11.444
32328W        W  722  18.994  22.438   0.888
32329W        W  723  24.009  15.854   2.148
32330W        W  724   9.700  30.604  12.965
32331W        W  725   9.339   7.355  12.076
32332W        W  726  24.634  44.766  13.855
32333W        W  727  34.001   5.674   2.730
32334W        W  728  32.894  40.981   0.201
32335W        W  729  41.967  39.036   1.814
32336W        W  730  28.474  22.218   3.997
32337W        W  731  11.005  16.507   1.358
32338W        W  732  20.114  38.168  11.517
32339W        W  733   3.150  37.990  13.406
32340W        W  734  25.947  37.981  12.041
32341W        W  735  19.133  14.114   1.746
32342W        W  736  33.409   3.065   1.752
32343W        W  737  43.852  34.544  11.208
32344W        W  738  10.913  30.984   2.410
32345W        W  739   7.928  29.683  12.352
32346W        W  740  34.825   1.387  11.144
32347W        W  741   5.090   3.530   1.515
32348W        W  742  21.092   6.298   2.368
32349W        W  743   7.760  31.171  12.005
32350W        W  744  21.302  37.894   1.059
32351W        W  745   5.304  40.479   3.761
32352W        W  746  32.615  22.752   3.823
32353W        W  747  22.089  35.659   4.531
32354W        W  748  38.241   5.459   2.518
32355W        W  749  22.999  39.034  14.998
32356W        W  750   1.747  43.808  13.963
32357W        W  751   5.425   7.034  10.578
32358W        W  752   5.341   5.279  10.697
32359W        W  753   0.631  26.063   1.633
32360W        W  754  21.753   7.068   1.089
32361W        W  755   5.826  44.859   4.305
32362W        W  756  23.631  27.946   1.455
32363W        W  757   0.985   7.293  12.087
32364W        W  758  22.966  40.837   3.853
32365W        W  759  42.790  11.058   0.509
32366W        W  760  41.346  28.613   2.071
32367W        W  761  37.021  22.293   4.679
32368W        W  762   0.842   1.747  12.531
32369W        W  763  36.314   3.137   1.594
32370W        W  764  42.357  32.624   0.918
32371W        W  765  30.675   0.492  11.385
32372W        W  766  27.004  14.200  10.257
32373W        W  767   1.312  19.289   2.226
32374W        W  768   0.571   3.876   0.895
32375W        W  769  30.507  30.572   0.793
32376W        W  770  23.429  16.819   3.755
32377W        W  771  30.585  15.875   3.143
32378W        W  772  11.816  15.287  13.266
32379W        W  773  13.352  21.956   1.680
32380W        W  774  36.268   8.316   4.797
32381W        W  775  16.335  44.012  13.747
32382W        W  776  40.340  35.867   4.986
32383W        W  777   5.755  17.280   1.404
32384W        W  778  40.059   1.357  10.620
32385W        W  779  11.166  11.952   0.766
32386W        W  780  21.238   4.291   4.978
32387W        W  781  38.889   3.177  14.461
32388W        W  782   6.359  26.468   1.088
32389W        W  783  19.844  16.757   4.114
32390W        W  784  24.238   2.253  12.483
32391W        W  785  28.934  29.513  11.230
32392W        W  786  17.394  33.335  11.613
32393W        W  787  10.076  38.038   4.412
32394W        W  788  42.816   8.861   2.728
32395W        W  789   8.180  21.890  11.638
32396W        W  790   5.903  44.810  12.615
32397W        W  791  27.905  27.857  13.665
32398W        W  792  30.258  34.737   2.473
32399W        W  793  22.269  27.942  14.858
32400W        W  794   0.505  30.028  11.555
32401W        W  795  22.139  19.950   4.529
32402W        W  796  34.020  40.078   3.732
32403W        W  797  32.044  25.235  11.568
32404W        W  798  24.537  40.822   4.148
32405W        W  799  36.820  34.149  13.503
32406W        W  800  22.999  33.177  13.886
32407W        W  801  20.421  24.211   1.452
32408W        W  802  26.628  43.168  14.361
32409W        W  803   6.588  31.582  13.645
32410W        W  804  27.027   9.232  14.830
32411W        W  805  15.054  14.003  14.560
32412W        W  806   4.220  37.640  14.052
32413W        W  807  17.307  41.739  14.334
32414W        W  808  10.674  44.813   2.119
32415W        W  809   9.510  39.210   1.028
32416W        W  810  14.045   5.768   4.054
32417W        W  811   4.897  39.180  11.186
32418W        W  812  36.920  17.804  13.348
32419W        W  813  28.069  21.253   1.545
32420W        W  814  32.470  42.823   2.185
32421W        W  815   1.723  39.428   4.097
32422W        W  816  27.143  27.432   3.644
32423W        W  817  28.980  26.649  12.019
32424W        W  818  14.158   1.915  10.935
32425W        W  819  34.679  42.986  11.847
32426W        W  820  38.838  23.958  14.133
32427W        W  821  17.060  25.562  12.985
32428W        W  822  12.610   3.711  14.375
32429W        W  823  18.480  23.440   1.470
32430W        W  824  16.400  27.040  13.362
32431W        W  825  40.783  38.407  14.821
32432W        W  826  14.882  43.390  12.524
32433W        W  827  39.389  28.922  14.794
32434W        W  828   7.347  32.686  14.004
32435W        W  829  11.630   6.951   2.878
32436W        W  830  39.576  37.837  14.089
32437W        W  831  41.066  15.557   1.588
32438W        W  832   3.310   6.244  13.894
32439W        W  833  34.946  15.755   5.216
32440W        W  834  26.685  17.355   3.899
32441W        W  835  20.477  41.049  12.436
32442W        W  836   4.236  31.054   1.903
32443W        W  837   2.974   6.067   0.488
32444W        W  838  32.465   3.192   2.232
32445W        W  839   0.012  42.166  11.573
32446W        W  840  35.925   9.264  14.970
32447W        W  841   0.342   5.593   4.220
32448W        W  842  17.650  17.611   3.904
32449W        W  843   0.305  40.366  12.145
32450W        W  844  17.704  29.448  13.313
32451W        W  845  41.078  33.122   0.307
32452W        W  846  43.798  27.298  14.540
32453W        W  847  17.514  39.276   3.125
32454W        W  848  10.684  22.525  12.447
32455W        W  849  32.652  36.046  11.490
32456W        W  850   9.650  20.193  11.104
32457W        W  851  21.490  43.992   3.380
32458W        W  852  34.210  34.113  13.598
32459W        W  853  19.462  24.560  10.683
32460W        W  854  15.179  44.382  11.529
32461W        W  855   1.062  43.381  14.955
32462W        W  856  16.702  38.923  12.467
32463W        W  857  35.810   7.100   2.414
32464W        W  858  23.027  44.416  10.519
32465W        W  859  32.065  31.438   0.809
32466W        W  860  30.533  30.397   2.814
32467W        W  861  19.968  10.894  13.919
32468W        W  862  44.466  28.574   3.106
32469W        W  863  15.155  38.308  14.225
32470W        W  864  34.661  43.878  11.602
32471W        W  865  40.416   8.677   2.204
32472W        W  866  13.743  23.662  14.803
32473W        W  867   7.370   3.712  13.947
32474W        W  868  26.077   8.690   0.387
32475W        W  869   4.172  27.312  13.806
32476W        W  870  29.116  35.436   0.649
32477W        W  871  23.470  26.272  11.189
32478W        W  872   7.659  20.860   5.055
32479W        W  873  17.737  13.445  14.552
32480W        W  874   5.177  36.577  14.066
32481W        W  875  24.219  24.707  13.927
32482W        W  876  40.422   3.418   2.652
32483W        W  877  33.955   5.220   3.297
32484W        W  878   6.688  19.510  14.824
32485W        W  879  16.637  28.462   2.762
32486W        W  880  42.603  23.609  10.848
32487W        W  881   2.963  17.750  13.651
32488W        W  882  14.361  44.709  13.805
32489W        W  883  20.145  30.223   4.585
32490W        W  884  34.727  33.409  13.736
32491W        W  885  31.664  33.202  14.507
32492W        W  886  13.281   8.177   0.917
32493W        W  887  22.283  20.147   4.061
32494W        W  888  26.976  25.520  10.666
32495W        W  889  29.697   5.567  14.592
32496W        W  890  14.149  29.075  12.839
32497W        W  891  42.482  23.146   4.405
32498W        W  892   9.638  13.263   2.011
32499W        W  893  25.074  37.337  12.906
32500W        W  894   8.026   9.935  11.995
32501W        W  895  14.182  38.246   3.165
32502W        W  896  31.654   1.287   2.872
32503W        W  897   4.394  39.282  11.137
32504W        W  898   1.386   2.764  10.694
32505W        W  899  39.307  23.773   0.531
32506W        W  900  26.978  31.612  12.974
32507W        W  901  25.060  32.106  13.828
32508W        W  902  39.245  44.313   2.722
32509W        W  903  14.828  41.355  10.194
32510W        W  904  40.506  22.928   1.999
32511W        W  905  12.308  34.172  12.041
32512W        W  906  19.476  44.014  10.586
32513W        W  907  34.930  18.075  14.555
32514W        W  908   0.223  38.962  12.453
32515W        W  909  23.633  41.107   0.439
32516W        W  910  36.120  30.132  13.390
32517W        W  911  44.631  39.193  13.790
32518W        W  912  38.649  36.099  14.852
32519W        W  913  33.009  10.124   4.848
32520W        W  914  18.286  40.082   2.863
32521W        W  915  30.477   5.308  13.600
32522W        W  916  14.322  38.492   4.717
32523W        W  917  12.660   6.262   2.328
32524W        W  918  19.628  37.436  12.892
32525W        W  919  16.378  24.451   1.432
32526W        W  920  15.692  24.914   2.221
32527W        W  921  14.321  22.672  13.366
32528W        W  922  40.388  10.074  12.119
32529W        W  923  26.251  13.381  11.590
32530W        W  924  36.321  25.380   4.651
32531W        W  925  29.611  39.318  13.927
32532W        W  926  15.963  15.275  10.859
32533W        W  927  17.964  21.583  12.870
32534W        W  928  26.488  10.746  12.118
32535W        W  929   1.839   8.578   2.826
32536W        W  930  13.274  34.920   1.024
32537W        W  931   1.472   9.242  13.623
32538W        W  932   4.187   5.404  13.398
32539W        W  933  10.545   8.786   1.887
32540W        W  934  17.822  35.144  11.271
32541W        W  935  21.640   1.182   2.411
32542W        W  936  19.755  24.461   4.711
32543W        W  937  41.990  24.274   0.344
32544W        W  938  19.379  40.688  10.327
32545W        W  939  18.135  17.555   4.071
32546W        W  940   5.666  16.861  12.561
32547W        W  941  19.938  43.656  14.230
32548W        W  942   4.438  17.798   2.043
32549W        W  943  27.464  18.386   2.504
32550W        W  944   6.140  39.962   1.974
32551W        W  945   3.185  24.283   5.122
32552W        W  946  37.763   6.366   2.616
32553W        W  947  37.550  22.368  12.909
32554W        W  948   7.130  43.500  10.638
32555W        W  949   5.811  34.324   1.737
32556W        W  950  20.378  16.766  11.363
32557W        W  951   2.497   6.281   2.612
32558W        W  952  39.643   7.318  13.588
32559W        W  953  19.310   1.648   0.343
32560W        W  954   6.375   3.380  12.123
32561W        W  955  29.628  21.174   0.930
32562W        W  956  30.906  26.711  14.339
32563W        W  957   2.244  10.590   4.220
32564W        W  958  28.955  42.261  14.967
32565W        W  959  21.777  27.116   1.252
32566W        W  960  29.687  16.576   4.288
32567W        W  961  36.112   9.241  12.161
32568W        W  962  28.021   5.307   1.175
32569W        W  963   3.555   5.378  14.509
32570W        W  964  41.594  24.561   1.679
32571W        W  965  44.076  36.364  10.229
32572W        W  966  32.711   7.156  11.171
32573W        W  967  11.361  11.803   5.189
32574W        W  968   2.873  41.048   1.637
32575W        W  969   3.463  10.828   4.733
32576W        W  970  25.930  37.934   1.411
32577W        W  971  11.300  20.621  14.848
32578W        W  972   9.696  26.106   0.292
32579W        W  973  38.560   8.201   2.228
32580W        W  974  20.588  28.945   0.245
32581W        W  975  13.039  31.889  11.233
32582W        W  976   0.341  27.736   1.691
32583W        W  977  10.267  32.983  11.886
32584W        W  978   6.534  26.715  13.727
32585W        W  979  20.698   4.003   2.626
32586W        W  980  22.540  32.429  14.258
32587W        W  981  39.458  15.849   0.400
32588W        W  982  20.126  10.642  13.491
32589W        W  983  32.931   9.826  12.466
32590W        W  984   1.035   7.248  11.124
32591W        W  985  27.120  25.168   1.163
32592W        W  986  25.413   8.287  14.040
32593W        W  987  36.971  35.529   1.232
32594W        W  988  27.088   7.158   1.801
32595W        W  989  20.027  41.175   4.480
32596W        W  990  13.383  10.651  14.979
32597W        W  991  22.537   7.279   1.852
32598W        W  992  30.733  31.753  14.606
32599W        W  993  14.345  11.677   4.126
32600W        W  994  40.877  42.528   2.724
32601W        W  995  19.588  30.777   1.180
32602W        W  996  43.002  18.509   3.204
32603W        W  997  40.360  38.906  12.017
32604W        W  998  40.819  28.924   3.363
32605W        W  999  39.505  12.697  10.938
32606W        W 1000   8.743  32.158   0.933
32607W        W 1001  29.068  34.651  11.392
32608W        W 1002  13.401   8.163   1.812
32609W        W 1003   8.598  33.779  13.113
32610W        W 1004  15.538  17.119   0.323
32611W        W 1005  36.343   8.902  13.526
32612W        W 1006  18.017  42.304   0.360
32613W        W 1007  33.080  42.862   0.935
32614W        W 1008  40.684   0.516  10.058
32615W        W 1009   3.260   5.760   2.371
32616W        W 1010  35.860  39.121   4.248
32617W        W 1011  38.006  34.510  11.551
32618W        W 1012  35.933  21.750  12.577
32619W        W 1013  37.990   4.135  14.824
32620W        W 1014  20.081  31.030  12.089
32621W        W 1015  28.762   9.843  12.883
32622W        W 1016  31.142  41.955  10.624
32623W        W 1017   7.392  13.487  12.408
32624W        W 1018  28.546  44.827  10.252
32625W        W 1019   5.631  22.310  11.521
32626W        W 1020   4.826   2.795  11.098
32627W        W 1021  10.133  16.773  14.278
32628W        W 1022   5.235  11.378   0.467
32629W        W 1023  14.788   9.290  11.916
32630W        W 1024   6.182  28.037  10.698
32631W        W 1025  18.994  21.775   1.406
32632W        W 1026   1.035   6.253   4.583
32633W        W 1027  12.632  15.255  11.689
32634W        W 1028   9.321  21.041  10.655
32635W        W 1029  34.345  17.400   3.232
32636W        W 1030   0.337  22.428  13.828
32637W        W 1031   7.680  24.578  12.656
32638W        W 1032  40.173  23.450  12.008
32639W        W 1033  31.082  21.325  12.991
32640W        W 1034  22.781  38.461   2.343
32641W        W 1035  43.346  33.372  14.901
32642W        W 1036  39.985   4.702   1.684
32643W        W 1037  28.715  26.526   0.504
32644W        W 1038  12.253   5.235   1.787
32645W        W 1039  18.660  32.898  13.500
32646W        W 1040  12.171  17.132   1.236
32647W        W 1041  18.152  32.683  13.344
32648W        W 1042  19.375   2.129  10.646
32649W        W 1043  17.152  24.222   1.123
32650W        W 1044  26.507  26.935   4.314
32651W        W 1045   2.043  32.675   1.473
32652W        W 1046   3.819   5.356   4.017
32653W        W 1047  37.398  32.223   3.429
32654W        W 1048  17.312  38.859   0.949
32655W        W 1049  11.342   7.425   1.783
32656W        W 1050  39.669  38.848  11.443
32657W        W 1051  44.022  12.259   4.330
32658W        W 1052  16.996   7.931  14.489
32659W        W 1053  20.454  11.951  11.053
32660W        W 1054  26.767  25.551   1.235
32661W        W 1055  28.420  10.455  13.608
32662W        W 1056  15.281  34.870   4.399
32663W        W 1057  16.201  12.881  12.555
32664W        W 1058  35.127   3.366  12.029
32665W        W 1059  41.827  32.127  14.785
32666W        W 1060  37.550  21.136  13.362
32667W        W 1061  18.627   1.738   0.839
32668W        W 1062  26.358   7.957  10.764
32669W        W 1063  11.833  16.726   1.231
32670W        W 1064  44.942  22.742  10.551
32671W        W 1065  36.476  12.639   2.877
32672W        W 1066  42.885  38.545  12.956
32673W        W 1067   7.438   2.451  13.566
32674W        W 1068  41.109   9.070   2.379
32675W        W 1069  28.824  19.518   2.667
32676W        W 1070  41.598  22.197  11.238
32677W        W 1071  38.711  37.391   0.085
32678W        W 1072  28.688   3.279   1.453
32679W        W 1073  43.018  37.646  12.149
32680W        W 1074   9.076   8.922   2.220
32681W        W 1075  40.846  39.994  14.379
32682W        W 1076  17.048  21.334  13.826
32683W        W 1077   8.297  31.320  10.443
32684W        W 1078  35.027  31.656   2.811
32685W        W 1079   7.660  42.478   0.015
32686W        W 1080  38.275   3.971   0.772
32687W        W 1081  34.404  19.022   2.629
32688W        W 1082   6.041  38.219   4.190
32689W        W 1083  20.745  21.728   0.374
32690W        W 1084  18.225  25.792   1.261
32691W        W 1085   4.501  43.001   3.764
32692W        W 1086  42.615  14.822  13.474
32693W        W 1087  23.879   1.765   0.463
32694W        W 1088  26.592  22.056  14.007
32695W        W 1089  37.585  44.064  13.095
32696W        W 1090  10.872  41.992  14.345
32697W        W 1091  26.264  26.670  13.836
32698W        W 1092  38.129  11.316  11.801
32699W        W 1093  16.103  41.975   4.125
32700W        W 1094  17.075  25.212  13.454
32701W        W 1095   3.391  32.763   4.190
32702W        W 1096   6.458  17.641   2.332
32703W        W 1097  30.069  28.751  12.508
32704W        W 1098  30.479  12.840   2.233
32705W        W 1099   9.720   8.361  10.632
32706W        W 1100   9.246  34.887  12.840
32707W        W 1101  16.333  22.776   4.420
32708W        W 1102  30.819   6.004   2.770
32709W        W 1103  21.764  21.919  12.361
32710W        W 1104  23.389  10.274  11.623
32711W        W 1105   6.787   2.977  13.748
32712W        W 1106  33.254  20.776  11.619
32713W        W 1107  35.800  41.478  12.020
32714W        W 1108  25.489   8.927   1.878
32715W        W 1109  12.818  30.664   2.772
32716W        W 1110  10.242  10.679  12.098
32717W        W 1111  43.114   5.355  11.598
32718W        W 1112   2.774   7.742  12.079
32719W        W 1113  22.961   8.525  13.081
32720W        W 1114  31.983  17.600  11.925
32721W        W 1115  25.413  34.511   3.350
32722W        W 1116  44.462  13.912  14.369
32723W        W 1117   8.541  43.040   4.281
32724W        W 1118   0.742  18.227  13.386
32725W        W 1119  39.601  28.091   4.507
32726W        W 1120   6.645  29.173   4.106
32727W        W 1121  39.221  32.370   0.384
32728W        W 1122  39.142  15.520  11.478
32729W        W 1123  28.101   1.677  14.442
32730W        W 1124  21.497   7.687   3.735
32731W        W 1125  32.523  40.892  13.363
32732W        W 1126   6.901   1.892  12.486
32733W        W 1127  23.977  12.416  10.011
32734W        W 1128  15.115  15.273  14.322
32735W        W 1129  30.371  14.335  11.212
32736W        W 1130  21.150   5.808   3.132
32737W        W 1131   8.462  31.920  13.003
32738W        W 1132  26.378  34.128   3.196
32739W        W 1133  36.826  40.517  12.332
32740W        W 1134  42.967   0.793  13.218
32741W        W 1135  35.943  44.304   0.739
32742W        W 1136  41.797  43.951  14.501
32743W        W 1137   1.838  41.176  12.843
32744W        W 1138   3.969  22.971   2.737
32745W        W 1139  11.330  19.158  12.505
32746W        W 1140  26.423  21.502   1.725
32747W        W 1141  24.020  12.286   4.498
32748W        W 1142  32.433  38.116   1.759
32749W        W 1143  22.567  25.119   3.264
32750W        W 1144  19.251  22.985  12.939
32751W        W 1145   1.889  19.364   3.322
32752W        W 1146  41.763   8.846   2.851
32753W        W 1147   2.925  23.548  14.007
32754W        W 1148  27.226  23.670  12.187
32755W        W 1149  29.366  28.990   2.338
32756W        W 1150  23.650  24.632   0.357
32757W        W 1151   0.735  24.155   1.265
32758W        W 1152  28.504   4.362  11.406
32759W        W 1153  19.731  35.982   1.872
32760W        W 1154  11.687   1.271   1.242
32761W        W 1155   2.901  12.176  10.688
32762W        W 1156  44.565   6.718  14.682
32763W        W 1157  19.757   3.703   1.975
32764W        W 1158  19.304  28.455   2.086
32765W        W 1159  33.631  24.109  12.898
32766W        W 1160  17.749  30.739  11.021
32767W        W 1161  34.446  25.687   2.316
32768W        W 1162  35.517  17.504  13.361
32769W        W 1163   2.471  32.573  14.890
32770W        W 1164   0.494  29.398  13.868
32771W        W 1165  37.572  40.805  14.143
32772W        W 1166   7.823   9.420   3.262
32773W        W 1167  41.837  34.122  13.547
32774W        W 1168  37.354  26.254  12.506
32775W        W 1169  40.455  26.262  11.612
32776W        W 1170  14.732  18.934  13.523
32777W        W 1171  35.603  44.938  11.638
32778W        W 1172  30.550  15.675   0.043
32779W        W 1173  39.845   3.503   3.419
32780W        W 1174  30.662  17.790  13.134
32781W        W 1175  36.751  19.164  14.313
32782W        W 1176  42.097  27.977  14.472
32783W        W 1177  20.618  29.055   4.578
32784W        W 1178  14.302  39.909   4.181
32785W        W 1179  21.436  10.647   9.840
32786W        W 1180   4.760  20.084   0.683
32787W        W 1181  31.324  41.140  10.345
32788W        W 1182  22.804  13.843   2.581
32789W        W 1183   2.929   0.454   3.869
32790W        W 1184  41.567   4.426  13.537
32791W        W 1185  14.819  43.571   1.350
32792W        W 1186  15.340  23.451   0.517
32793W        W 1187   6.495   6.273   2.096
32794W        W 1188  35.465  38.520   4.025
32795W        W 1189  39.431  34.696  12.601
32796W        W 1190  44.379  10.782   1.278
32797W        W 1191   4.847  30.841   3.224
32798W        W 1192   2.378   1.448  12.958
32799W        W 1193   0.467  40.476  14.568
32800W        W 1194  27.790   4.761   3.625
32801W        W 1195  15.371  10.283   2.221
32802W        W 1196  42.778  35.427  11.705
32803W        W 1197  25.283   9.692  12.925
32804W        W 1198   8.891   3.730   1.739
32805W        W 1199  11.078  40.523   2.753
32806W        W 1200  20.237  12.193   4.700
32807W        W 1201  36.436   7.859   1.647
32808W        W 1202  18.124  18.297   0.225
32809W        W 1203  25.147  12.749   0.658
32810W        W 1204  40.065  33.507   1.807
32811W        W 1205  38.203  42.706   4.201
32812W        W 1206   8.354   8.209  11.440
32813W        W 1207  40.606  26.090  10.501
32814W        W 1208   7.819  44.534   4.582
32815W        W 1209  44.764  33.034  12.598
32816W        W 1210   3.249  40.534   1.998
32817W        W 1211  38.602  31.834  10.502
32818W        W 1212  12.320  20.480   0.288
32819W        W 1213  26.949   4.712   4.135
32820W        W 1214  10.381  25.677  13.249
32821W        W 1215  26.467  35.116   1.555
32822W        W 1216   7.650   6.706  13.832
32823W        W 1217  16.255  23.385   3.712
32824W        W 1218  40.943  15.852   3.991
32825W        W 1219   2.378  33.961   4.639
32826W        W 1220  40.251  27.601  12.460
32827W        W 1221  19.836  44.437  10.609
32828W        W 1222  21.363  20.448  12.401
32829W        W 1223  37.614  39.429   3.394
32830W        W 1224   4.200   9.023  10.987
32831W        W 1225   6.160  13.571   4.143
32832W        W 1226  11.598  33.026   1.965
32833W        W 1227  28.924  26.057   2.716
32834W        W 1228  18.795  24.235   2.555
32835W        W 1229   0.158   9.276   2.179
32836W        W 1230  29.261   7.737   0.876
32837W        W 1231  33.276  44.447  14.383
32838W        W 1232  24.234  29.064  11.588
32839W        W 1233  29.669  19.733  10.772
32840W        W 1234  32.482   9.222  10.884
32841W        W 1235  14.239  21.717  12.523
32842W        W 1236  34.936  12.732  14.483
32843W        W 1237  43.819  27.688   2.349
32844W        W 1238   1.862  36.332  13.614
32845W        W 1239   8.454  28.863  11.476
32846W        W 1240  10.255  31.695  10.916
32847W        W 1241  30.011  34.329  13.025
32848W        W 1242  16.528  35.677   0.642
32849W        W 1243  13.233   5.831  12.381
32850W        W 1244  15.106  10.750   0.320
32851W        W 1245  15.577  11.309  12.864
32852W        W 1246  19.752  33.996  13.410
32853W        W 1247   7.049   5.956  12.881
32854W        W 1248   4.279   3.301  12.472
32855W        W 1249  10.817   6.873  12.564
32856W        W 1250  43.871  23.667  12.469
32857W        W 1251  39.006  22.109  13.809
32858W        W 1252   5.594  34.546   2.313
32859W        W 1253  22.190  20.721   1.508
32860W        W 1254  37.614  29.404   2.135
32861W        W 1255  12.226   6.415  12.184
32862W        W 1256  15.959  11.708  11.072
32863W        W 1257  30.631  24.727  13.968
32864W        W 1258  42.869  18.649  14.121
32865W        W 1259  36.305  14.743   4.680
32866W        W 1260  24.590  39.906  14.998
32867W        W 1261   1.892  29.205   1.321
32868W        W 1262  22.063  27.846   2.193
32869W        W 1263  44.019   9.147  11.613
32870W        W 1264  41.451  15.732  10.872
32871W        W 1265  22.082  10.063  11.977
32872W        W 1266  30.836  25.522  11.882
32873W        W 1267   8.088  18.238  14.029
32874W        W 1268  16.839   1.846  11.511
32875W        W 1269  26.546   6.840  13.285
32876W        W 1270  28.538  16.373   2.924
32877W        W 1271  32.668  13.741  12.583
32878W        W 1272  23.169   8.164  14.822
32879W        W 1273  25.988  12.607  10.655
32880W        W 1274  44.604  12.171   3.308
32881W        W 1275   8.796  16.231  10.541
32882W        W 1276  20.939   1.717   1.944
32883W        W 1277  33.053  40.849  14.287
32884W        W 1278   3.140  29.342  13.692
32885W        W 1279  40.846  21.703   1.976
32886W        W 1280  15.570   8.159  12.438
32887W        W 1281  42.921  29.229  11.914
32888W        W 1282  21.631   2.873   0.281
32889W        W 1283  23.262   9.064  10.169
32890W        W 1284  14.864  11.294  13.541
32891W        W 1285   6.813  35.552   2.227
32892W        W 1286  39.828   2.950   0.402
32893W        W 1287  17.406  27.853   2.828
32894W        W 1288  34.104   8.612   1.432
32895W        W 1289  20.566  28.931  11.174
32896W        W 1290  38.914   8.815  10.120
32897W        W 1291  35.799  19.696  14.429
32898W        W 1292  20.623  32.010  12.070
32899W        W 1293  27.589  26.056   1.981
32900W        W 1294   0.801  34.923   1.935
32901W        W 1295   0.438   1.161   2.368
32902W        W 1296  38.895   9.689  11.005
32903W        W 1297  13.761  42.800  10.729
32904W        W 1298  39.520  41.347   5.004
32905W        W 1299  30.983  25.533   2.113
32906W        W 1300   7.169  42.940   2.749
32907W        W 1301  17.390   2.925   0.490
32908W        W 1302  17.474   6.807  13.084
32909W        W 1303  44.691  44.383   0.926
32910W        W 1304  41.596   3.423   1.183
32911W        W 1305  34.035  22.030  13.449
32912W        W 1306  14.197  19.483  13.778
32913W        W 1307  24.122  13.195   1.926
32914W        W 1308  17.632  43.882  13.486
32915W        W 1309   9.977   0.332   0.400
32916W        W 1310  37.632  24.831   1.894
32917W        W 1311  24.231  12.492  10.444
32918W        W 1312  43.326  27.599   1.800
32919W        W 1313   6.997  16.592   3.098
32920W        W 1314  39.155   1.704   2.332
32921W        W 1315   2.779  34.470  12.498
32922W        W 1316  27.976  44.013   3.057
32923W        W 1317   5.347  10.304  13.555
32924W        W 1318  42.619  13.731  13.379
32925W        W 1319  41.747  11.683   4.344
32926W        W 1320  22.154   9.590   3.705
32927W        W 1321  22.000  40.903  10.385
32928W        W 1322  24.904   0.530   1.322
32929W        W 1323  15.033  35.069   4.806
32930W        W 1324  35.005  42.821  13.037
32931W        W 1325   1.831  25.472   2.661
32932W        W 1326   8.852  34.077   0.825
32933W        W 1327  36.303  31.111  13.029
32934W        W 1328  31.106  23.242   0.854
32935W        W 1329  35.692   8.160   2.877
32936W        W 1330  34.390  27.550   0.331
32937W        W 1331  23.044  15.294   1.373
32938W        W 1332  24.664   8.795   5.277
32939W        W 1333  33.912  17.563   2.243
32940W        W 1334  21.998  33.942  14.462
32941W        W 1335  28.922  34.954  13.510
32942W        W 1336  20.717  34.478   2.382
32943W        W 1337  21.119  38.163  13.533
32944W        W 1338   1.755  22.713  12.247
32945W        W 1339  39.575  28.402  13.371
32946W        W 1340   9.009  38.789   0.405
32947W        W 1341  29.973  18.774   2.840
32948W        W 1342  25.692  33.664  13.000
32949W        W 1343   9.618  26.514  13.359
32950W        W 1344  25.634  20.173  13.808
32951W        W 1345  25.734  28.945   2.811
32952W        W 1346   2.944  28.994   0.206
32953W        W 1347  27.019  21.187   3.842
32954W        W 1348   0.830   8.146  11.132
32955W        W 1349  19.646  21.261   1.728
32956W        W 1350  17.965  15.974   5.358
32957W        W 1351  32.036  23.937  14.470
32958W        W 1352   3.024  31.095  12.953
32959W        W 1353   2.392  38.566   4.860
32960W        W 1354  22.496  19.133   0.876
32961W        W 1355  11.211   9.780   3.739
32962W        W 1356   2.541   3.782   0.807
32963W        W 1357  39.465   8.162   2.894
32964W        W 1358  13.200  34.937   2.961
32965W        W 1359  42.846  17.122  13.450
32966W        W 1360   7.776  19.030   2.838
32967W        W 1361  29.613  19.777   3.060
32968W        W 1362  28.499  13.988  14.830
32969W        W 1363   8.858  25.203  14.763
32970W        W 1364  40.936  24.565   0.267
32971W        W 1365   4.452   2.766  11.951
32972W        W 1366  39.429  44.387  11.926
32973W        W 1367  39.800   0.480   0.312
32974W        W 1368  36.958  14.202  10.641
32975W        W 1369  12.806  20.849  12.054
32976W        W 1370   4.274  41.268   0.171
32977W        W 1371  22.088  44.253   0.402
32978W        W 1372   4.850  20.324   3.896
32979W        W 1373  13.781  36.904   4.185
32980W        W 1374  12.199  35.005   2.800
32981W        W 1375  21.881  20.541  11.495
32982W        W 1376  26.020  10.093   4.101
32983W        W 1377  37.673  20.321  12.520
32984W        W 1378  14.337  34.964  10.857
32985W        W 1379  17.086   5.796   3.149
32986W        W 1380  36.548  43.247  11.980
32987W        W 1381   8.342   5.754   1.304
32988W        W 1382  29.176  12.920  12.981
32989W        W 1383  15.882  29.164   2.701
32990W        W 1384  14.339  32.101  10.674
32991W        W 1385  41.993  38.518  10.971
32992W        W 1386  15.734  44.417  13.600
32993W        W 1387  38.582  11.640   3.919
32994W        W 1388  16.290  17.707   0.440
32995W        W 1389   6.249  18.532   1.285
32996W        W 1390  21.293  37.691   2.840
32997W        W 1391  34.421  23.228   1.353
32998W        W 1392   1.918  15.262  13.546
32999W        W 1393  14.032  18.213   1.261
33000W        W 1394  15.592  40.007   2.275
33001W        W 1395  35.892  13.341   1.291
33002W        W 1396  14.994  31.228  11.603
33003W        W 1397  33.712  25.486   0.929
33004W        W 1398  14.602  37.014   0.372
33005W        W 1399  11.190   2.131  12.609
33006W        W 1400  13.358  40.105  11.046
33007W        W 1401  20.702   2.009   3.196
33008W        W 1402  35.362  34.179  14.091
33009W        W 1403  15.313  16.499  11.514
33010W        W 1404   5.181   4.682  13.630
33011W        W 1405  22.282  24.099   2.161
33012W        W 1406  37.552  32.985  10.739
33013W        W 1407   8.785  11.683   0.864
33014W        W 1408   3.796   6.970  13.863
33015W        W 1409   2.167  43.994   1.873
33016W        W 1410  24.101  43.046   2.938
33017W        W 1411  28.890  42.294   0.886
33018W        W 1412  17.308  34.222  11.167
33019W        W 1413  26.224  27.890   0.426
33020W        W 1414  15.891  18.693  14.734
33021W        W 1415   3.718  44.215  14.436
33022W        W 1416  15.490  18.426  14.914
33023W        W 1417  21.541  37.287  14.880
33024W        W 1418   7.091  24.774   3.079
33025W        W 1419   4.063  15.069  14.702
33026W        W 1420  16.854  25.269   3.882
33027W        W 1421   8.892  22.679   4.036
33028W        W 1422   6.968  30.929  13.435
33029W        W 1423  39.534   8.775   4.050
33030W        W 1424  43.351   4.552   2.489
33031W        W 1425   7.312  42.251   3.185
33032W        W 1426  36.871  41.805  10.733
33033W        W 1427  33.422  40.267  14.146
33034W        W 1428  32.906   9.256  11.209
33035W        W 1429   0.088   4.183  13.364
33036W        W 1430  33.854   9.620  13.195
33037W        W 1431   6.867  15.253  10.936
33038W        W 1432   7.619  22.184   3.280
33039W        W 1433  10.704  20.557  11.631
33040W        W 1434  11.164   6.380   4.516
33041W        W 1435  44.495  38.168  13.765
33042W        W 1436  20.923  30.956   3.317
33043W        W 1437  44.250  15.320   0.902
33044W        W 1438  23.550  42.271  10.354
33045W        W 1439  39.798  19.298   3.674
33046W        W 1440  21.102  28.860   4.487
33047W        W 1441  12.202  27.636   4.152
33048W        W 1442   1.596  37.015   3.866
33049W        W 1443  30.475  35.835  11.357
33050W        W 1444   2.995  15.871   3.665
33051W        W 1445  14.571   0.485   1.192
33052W        W 1446  38.924   1.427   0.095
33053W        W 1447  13.590  44.701   4.075
33054W        W 1448  39.248  37.186   1.820
33055W        W 1449   8.061  27.248   0.729
33056W        W 1450  21.601   1.707   3.264
33057W        W 1451  28.678  12.172  13.032
33058W        W 1452   5.092  30.345  11.925
33059W        W 1453  15.275  31.566   3.663
33060W        W 1454  33.850  26.084   0.459
33061W        W 1455  12.218   2.722  14.754
33062W        W 1456  19.202  15.903   4.513
33063W        W 1457   7.430  36.412   4.488
33064W        W 1458  17.518   3.958  11.090
33065W        W 1459   0.881  16.478  12.444
33066W        W 1460  42.498  41.494  13.842
33067W        W 1461  35.390  33.492  12.451
33068W        W 1462  20.187  38.381  14.949
33069W        W 1463   6.883   1.355   2.709
33070W        W 1464  26.912  33.560   0.903
33071W        W 1465  44.996   3.817  14.836
33072W        W 1466  20.941  12.706  11.673
33073W        W 1467  44.433  29.880  13.012
33074W        W 1468   8.351  29.529  14.049
33075W        W 1469   0.429   7.324   4.207
33076W        W 1470  16.158  12.815   5.065
33077W        W 1471  40.753  20.100  11.010
33078W        W 1472  33.565  10.111  10.714
33079W        W 1473   5.147  19.450   2.281
33080W        W 1474   0.434  34.852  14.384
33081W        W 1475   4.262  41.948   1.395
33082W        W 1476  35.635   1.483  10.740
33083W        W 1477  22.503  36.512  13.431
33084W        W 1478  38.474  37.998   0.401
33085W        W 1479   9.404  31.796   3.307
33086W        W 1480  29.056  21.197   2.128
33087W        W 1481  18.278  14.537   4.019
33088W        W 1482  19.844  41.324   0.651
33089W        W 1483  39.926  37.514  13.866
33090W        W 1484  12.299  33.790   1.358
33091W        W 1485   6.310  40.646   5.009
33092W        W 1486   5.266  31.417   0.236
33093W        W 1487   4.332  20.210   4.050
33094W        W 1488  12.233   6.740  14.364
33095W        W 1489  15.210  12.646  12.040
33096W        W 1490  25.013  25.689  13.752
33097W        W 1491  18.171  27.473   3.337
33098W        W 1492  44.231   7.747  13.315
33099W        W 1493   0.735   4.264  11.943
33100W        W 1494  28.762   1.549  11.525
33101W        W 1495  37.338  38.176  12.956
33102W        W 1496  40.042  25.392  12.288
33103W        W 1497  31.577  34.000   1.431
33104W        W 1498  12.741  41.266   0.859
33105W        W 1499  11.727  42.757  13.443
33106W        W 1500   9.703   5.517  11.120
33107W        W 1501  30.336  31.928   4.462
33108W        W 1502  26.356  11.757  10.204
33109W        W 1503   5.231  32.139  13.320
33110W        W 1504  11.130   0.929   2.774
33111W        W 1505  20.407  18.922  13.188
33112W        W 1506  20.077  11.886  12.763
33113W        W 1507  13.305  30.629  14.083
33114W        W 1508  17.570  44.407  13.494
33115W        W 1509   3.127  29.673   1.361
33116W        W 1510  17.806  23.210  12.563
33117W        W 1511  27.438  25.079   4.059
33118W        W 1512  10.846   0.794   4.734
33119W        W 1513  18.837  21.690   4.566
33120W        W 1514  44.160  39.521   4.059
33121W        W 1515   1.733  33.362   4.479
33122W        W 1516   1.928   2.168   4.946
33123W        W 1517  34.097  25.613   3.905
33124W        W 1518  26.632  13.872   4.394
33125W        W 1519  38.031  32.439  12.908
33126W        W 1520   6.530   7.746  14.383
33127W        W 1521   8.059  44.386   4.138
33128W        W 1522  26.153   7.191  13.285
33129W        W 1523  30.123  36.967  10.716
33130W        W 1524   9.533  21.185   3.727
33131W        W 1525  31.413  13.882  11.261
33132W        W 1526  31.003   7.293   4.156
33133W        W 1527  22.301  20.219   3.274
33134W        W 1528  29.691  17.587  13.802
33135W        W 1529   5.124   8.785   4.324
33136W        W 1530  29.825  27.803  12.574
33137W        W 1531  31.965  27.887   2.917
33138W        W 1532  28.619  14.265   4.908
33139W        W 1533  40.091   7.596  13.863
33140W        W 1534   4.671  11.006  14.634
33141W        W 1535  26.273  25.156  13.453
33142W        W 1536  41.120  18.747  14.261
33143W        W 1537  23.060  38.155   4.846
33144W        W 1538   6.828   0.538  14.977
33145W        W 1539  26.137   0.494  13.819
33146W        W 1540  12.751  29.986   4.562
33147W        W 1541  19.023  26.010  10.695
33148W        W 1542  20.154  29.994   4.112
33149W        W 1543  36.537  35.748  12.387
33150W        W 1544   9.097  38.203   2.881
33151W        W 1545  11.292  43.195  13.988
33152W        W 1546  33.935  37.851   1.677
33153W        W 1547  18.030   4.840  11.947
33154W        W 1548  16.086  10.300   2.088
33155W        W 1549  38.879  40.543   1.467
33156W        W 1550  29.633  38.023   3.281
33157W        W 1551   3.499  12.257   2.292
33158W        W 1552  29.561   1.335  14.921
33159W        W 1553   6.977  44.652  11.375
33160W        W 1554   6.686  13.830   1.017
33161W        W 1555  27.418  33.174  11.612
33162W        W 1556  14.573  14.155  11.141
33163W        W 1557  31.183  34.089  14.410
33164W        W 1558  32.533   8.615  13.031
33165W        W 1559   6.545  33.279  13.476
33166W        W 1560  18.811  37.699  11.560
33167W        W 1561  43.370  34.874   5.044
33168W        W 1562  31.963  34.989  11.374
33169W        W 1563  34.547   9.117   4.803
33170W        W 1564  14.721  14.120   4.713
33171W        W 1565  15.992  40.508  11.155
33172W        W 1566  26.035  40.184   3.815
33173W        W 1567  27.297  41.939   2.256
33174W        W 1568  39.296   5.295  10.488
33175W        W 1569  29.831  29.677   4.149
33176W        W 1570  28.834  10.334   4.115
33177W        W 1571  27.965  13.720  14.093
33178W        W 1572  15.343  25.234  11.533
33179W        W 1573  41.891  22.276   0.394
33180W        W 1574  11.558  14.257   5.069
33181W        W 1575   1.391  33.080  10.499
33182W        W 1576  25.146  15.179   4.916
33183W        W 1577  15.253  39.060  10.219
33184W        W 1578  18.991  24.071   4.361
33185W        W 1579  24.111  39.485  14.874
33186W        W 1580  35.897  19.036   1.394
33187W        W 1581   7.187  37.323  10.366
33188W        W 1582   0.469  36.487  13.341
33189W        W 1583  32.819  14.297  12.463
33190W        W 1584  27.252   8.956  10.124
33191W        W 1585   3.520   9.729   2.399
33192W        W 1586  37.100   5.264   3.491
33193W        W 1587  25.501   0.002  13.365
33194W        W 1588  33.397  25.880  13.606
33195W        W 1589  30.045  11.328   1.417
33196W        W 1590  17.188   6.014  12.446
33197W        W 1591  14.557  29.700  14.447
33198W        W 1592  40.023  37.002  13.996
33199W        W 1593  13.316  12.675   1.431
33200W        W 1594  20.922  17.076   1.053
33201W        W 1595  11.667  31.625   1.230
33202W        W 1596   1.166   9.279   3.315
33203W        W 1597   3.552   1.899   2.706
33204W        W 1598  44.555  21.884  11.128
33205W        W 1599  21.944  11.698  13.820
33206W        W 1600  10.252   5.794   3.198
33207W        W 1601  22.595  33.788  12.583
33208W        W 1602  36.138   8.262   0.256
33209W        W 1603  44.346   3.344   0.966
33210W        W 1604  33.547  42.045   3.215
33211W        W 1605  11.679  41.583   0.367
33212W        W 1606   9.269  28.189   2.391
33213W        W 1607  28.878  18.561   0.325
33214W        W 1608  39.797  10.348   2.061
33215W        W 1609   2.875  18.256   2.234
33216W        W 1610  30.081  21.814  14.763
33217W        W 1611  15.366  20.553  11.556
33218W        W 1612   2.332  32.175  11.849
33219W        W 1613   0.789  44.826   2.812
33220W        W 1614  36.782  31.115  11.914
33221W        W 1615   8.677  37.538   3.211
33222W        W 1616  44.930  18.666   4.607
33223W        W 1617  17.966  11.803  14.822
33224W        W 1618  12.146   7.227   3.751
33225W        W 1619   0.733  30.881   4.554
33226W        W 1620  24.923  42.776  13.486
33227W        W 1621  41.970  10.619   0.879
33228W        W 1622  41.388  16.005   4.181
33229W        W 1623  12.379  15.931  14.997
33230W        W 1624  43.096  34.334  13.361
33231W        W 1625   1.403  35.535   0.445
33232W        W 1626  35.867   3.295   4.824
33233W        W 1627  40.476  38.020  12.598
33234W        W 1628  42.453   4.848  11.189
33235W        W 1629  24.408  31.357   1.431
33236W        W 1630  14.061  24.310   0.302
33237W        W 1631   0.669  38.325  12.951
33238W        W 1632  34.120  11.586  11.155
33239W        W 1633  36.485  23.324   0.901
33240W        W 1634  39.513   3.307   1.057
33241W        W 1635  26.203  30.034   1.775
33242W        W 1636   4.093  23.646   4.375
33243W        W 1637  28.536  13.294  12.386
33244W        W 1638  40.285  19.569  11.552
33245W        W 1639  16.537  33.636  12.085
33246W        W 1640  11.690  44.471   3.969
33247W        W 1641  21.713  28.239  13.673
33248W        W 1642   4.859  19.600   4.529
33249W        W 1643  39.491   3.770  13.454
33250W        W 1644  36.490  21.639  11.478
33251W        W 1645   1.997   4.384  14.357
33252W        W 1646  21.602  25.418   3.819
33253W        W 1647   1.159  43.255   4.207
33254W        W 1648  43.774   8.779  10.686
33255W        W 1649  14.801  39.766   0.919
33256W        W 1650   2.950  16.099  10.652
33257W        W 1651  24.500   0.743   1.034
33258W        W 1652  35.954  13.060   0.290
33259W        W 1653  37.342  20.266   0.286
33260W        W 1654  33.087  41.350   1.435
33261W        W 1655  44.667  23.266  11.976
33262W        W 1656  24.250  31.575   4.428
33263W        W 1657  16.241   2.823   4.320
33264W        W 1658   4.372   0.240  11.401
33265W        W 1659   6.486   1.002   3.368
33266W        W 1660  20.977  33.107  13.542
33267W        W 1661  18.703   1.070  11.407
33268W        W 1662  21.522  16.766  12.442
33269W        W 1663  28.394   8.297   2.711
33270W        W 1664  28.540   5.938  13.963
33271W        W 1665  12.232  31.462  12.935
33272W        W 1666  15.156  41.111  11.961
33273W        W 1667  22.641  24.741   2.325
33274W        W 1668   7.337  35.639   3.282
33275W        W 1669   4.850  34.016   1.396
33276W        W 1670   8.410   2.793   3.260
33277W        W 1671   5.376   1.236   4.770
33278W        W 1672  16.872   7.304  11.642
33279W        W 1673  10.283  35.316   4.391
33280W        W 1674  33.345  24.073  11.213
33281W        W 1675   7.051  31.397  14.877
33282W        W 1676  40.345  24.742  11.609
33283W        W 1677  38.945   1.918  10.761
33284W        W 1678  40.651  35.133   1.857
33285W        W 1679  29.994  22.810  14.725
33286W        W 1680  21.028  41.922  12.501
33287W        W 1681  32.387  18.744   1.938
33288W        W 1682  18.594   9.715  14.263
33289W        W 1683  29.925  16.259   2.672
33290W        W 1684  30.912  26.685   0.959
33291W        W 1685  17.843  24.973   4.524
33292W        W 1686   9.013  20.038  13.854
33293W        W 1687   0.335  40.388  11.644
33294W        W 1688  28.881  19.885  14.342
33295W        W 1689   8.106  37.302  13.922
33296W        W 1690  42.156  37.647   2.166
33297W        W 1691  24.328  34.101  11.125
33298W        W 1692  11.050  10.138  13.306
33299W        W 1693  10.720   1.338   1.816
33300W        W 1694  32.466   4.818   0.932
33301W        W 1695   9.431   7.890  10.609
33302W        W 1696  30.635   3.004  10.510
33303W        W 1697  29.948  16.119  13.621
33304W        W 1698  43.782  43.934   1.125
33305W        W 1699  21.129  36.139  14.403
33306W        W 1700  42.336  20.940  13.853
33307W        W 1701  12.155   8.680  10.646
33308W        W 1702  26.889  28.501   3.017
33309W        W 1703   2.424   3.766   4.558
33310W        W 1704  12.735  14.379   3.845
33311W        W 1705   3.222   3.874   1.872
33312W        W 1706  41.980  28.504  11.064
33313W        W 1707  37.938  11.445  12.259
33314W        W 1708  18.299  38.706   0.401
33315W        W 1709  12.332  17.491  14.972
33316W        W 1710  33.213  28.041  14.581
33317W        W 1711   0.007  39.650  11.995
33318W        W 1712   5.499   2.701   5.038
33319W        W 1713   7.345   4.421   2.774
33320W        W 1714   3.352  31.144   4.944
33321W        W 1715  22.308  33.944  13.024
33322W        W 1716  16.174   0.739  10.703
33323W        W 1717  39.148  41.779   2.649
33324W        W 1718  20.523  29.962  12.579
33325W        W 1719   9.391   5.660   3.635
33326W        W 1720  42.992  30.476  12.951
33327W        W 1721  44.472  20.765   1.809
33328W        W 1722  37.536  11.110   4.341
33329W        W 1723   7.880   2.334   4.564
33330W        W 1724  28.619  21.129   3.689
33331W        W 1725  29.110   3.426  14.753
33332W        W 1726  37.377   7.272  10.688
33333W        W 1727  38.554  11.829   1.437
33334W        W 1728  16.815  36.400   1.771
33335W        W 1729   2.799   4.464  11.934
33336W        W 1730  13.754  38.432  11.338
33337W        W 1731   9.188  27.166  13.476
33338W        W 1732  13.063  37.457  11.102
33339W        W 1733  25.148  21.715   2.697
33340W        W 1734  30.904   4.257   2.359
33341W        W 1735  29.220   8.486   1.414
33342W        W 1736   5.691  25.582   1.758
33343W        W 1737  31.983  12.838   4.585
33344W        W 1738  34.566  16.119  10.715
33345W        W 1739   9.677  42.461  14.906
33346W        W 1740   3.501  32.367  14.817
33347W        W 1741  31.002  20.816  12.940
33348W        W 1742   9.459  13.320   3.343
33349W        W 1743  34.119   1.258  13.852
33350W        W 1744  43.382   3.282  10.889
33351W        W 1745  39.991  11.116  14.241
33352W        W 1746  34.403  36.543  12.025
33353W        W 1747  10.288  30.825  10.642
33354W        W 1748   2.495  12.451  14.307
33355W        W 1749  16.423   5.876  14.405
33356W        W 1750   7.417  19.046   0.349
33357W        W 1751  26.202  39.364   0.449
33358W        W 1752  43.285  27.773   3.738
33359W        W 1753   4.204  34.089  10.590
33360W        W 1754  20.520  23.732   4.105
33361W        W 1755  18.956   6.705   3.308
33362W        W 1756   3.367  27.279   4.023
33363W        W 1757  24.320  26.166   2.483
33364W        W 1758   7.015  30.266  11.145
33365W        W 1759  17.002   2.861   2.292
33366W        W 1760   8.586  10.687  12.540
33367W        W 1761   9.519  38.549   2.182
33368W        W 1762  15.110  30.005  13.054
33369W        W 1763  11.108  27.047   0.793
33370W        W 1764  31.794  44.056   2.273
33371W        W 1765  20.520  23.876   4.993
33372W        W 1766  38.848  31.967  11.500
33373W        W 1767  26.163  16.536   1.917
33374W        W 1768  20.573  33.075  14.186
33375W        W 1769  11.548  26.846   4.236
33376W        W 1770  42.458   4.699   4.127
33377W        W 1771  17.281  40.176   5.352
33378W        W 1772   8.210  15.042   4.593
33379W        W 1773  15.565  25.505  11.946
33380W        W 1774  32.401  36.535  14.543
33381W        W 1775  23.739  38.463   2.339
33382W        W 1776  25.055  24.896   3.267
33383W        W 1777   6.885  26.578  10.286
33384W        W 1778  34.914  30.546   1.185
33385W        W 1779  13.695  28.340  14.469
33386W        W 1780  42.342  44.924  11.223
33387W        W 1781  16.065   5.950  13.135
33388W        W 1782  33.672  23.398  12.309
33389W        W 1783   1.914   9.502  11.786
33390W        W 1784  29.628  14.059  12.820
33391W        W 1785  43.364  39.539  11.686
33392W        W 1786  41.851  28.129  13.304
33393W        W 1787  26.620   4.734   1.858
33394W        W 1788  16.213  22.882   3.635
33395W        W 1789   3.322  32.371  11.219
33396W        W 1790  21.106  36.375  13.051
33397W        W 1791  12.845   3.967   0.846
33398W        W 1792  42.939  13.885   0.850
33399W        W 1793  17.908  28.568  11.586
33400W        W 1794   6.163  13.380  10.562
33401W        W 1795  33.623  24.563   3.826
33402W        W 1796  15.773  12.791  11.198
33403W        W 1797  26.658  42.845   9.982
33404W        W 1798   6.230   6.192  11.892
33405W        W 1799   2.335   7.589  10.391
33406W        W 1800  29.468   4.045  12.082
33407W        W 1801  19.547   8.811  12.076
33408W        W 1802   9.681  26.571  10.622
33409W        W 1803  23.314  32.496  14.964
33410W        W 1804  17.707  38.120  14.995
33411W        W 1805  26.217  10.544  10.848
33412W        W 1806   1.578  13.230   5.035
33413W        W 1807  34.154  23.681  11.024
33414W        W 1808  39.432  38.703   4.285
33415W        W 1809   2.292  18.087   4.191
33416W        W 1810  30.057  17.257  13.091
33417W        W 1811  38.070  29.339  12.559
33418W        W 1812  39.458  10.211   3.129
33419W        W 1813  39.777  15.584  14.555
33420W        W 1814  37.330   2.002   2.759
33421W        W 1815  12.442  34.688  11.929
33422W        W 1816  21.420  30.570   1.971
33423W        W 1817  20.698  40.863   0.480
33424W        W 1818  21.323  42.603   1.761
33425W        W 1819  28.877  29.063  13.507
33426W        W 1820  27.663  27.521   3.712
33427W        W 1821  41.237  10.452  12.890
33428W        W 1822   6.817   3.237   0.834
33429W        W 1823  19.230  13.086  12.329
33430W        W 1824  43.498  18.199  13.480
33431W        W 1825  27.493  34.895   2.883
33432W        W 1826  14.230   3.949  13.067
33433W        W 1827  20.583   9.099  13.900
33434W        W 1828   2.324  41.458  13.948
33435W        W 1829  44.295  13.148  12.076
33436W        W 1830   1.252  17.036   2.200
33437W        W 1831  24.035   7.449  11.183
33438W        W 1832  20.202   5.173  12.287
33439W        W 1833  33.016  10.660   4.795
33440W        W 1834  18.699  25.058   4.064
33441W        W 1835  11.271  12.691  12.010
33442W        W 1836  44.462   0.673  12.116
33443W        W 1837  32.183  21.970   1.319
33444W        W 1838  15.758  29.361  12.957
33445W        W 1839  18.084   9.644  13.988
33446W        W 1840  14.775  15.967   2.294
33447W        W 1841  20.103  32.384   2.731
33448W        W 1842   8.911  36.132   3.297
33449W        W 1843  17.901  36.302  12.529
33450W        W 1844  28.917  26.734  12.906
33451W        W 1845   4.686  32.696   4.629
33452W        W 1846  11.840   1.246  13.319
33453W        W 1847  35.954  14.608   0.423
33454W        W 1848  39.478  12.611  10.438
33455W        W 1849   5.880  21.263   9.926
33456W        W 1850  13.230   9.295   1.175
33457W        W 1851  12.678   0.262   4.477
33458W        W 1852  18.532  31.383   1.303
33459W        W 1853  30.314  20.378   5.092
33460W        W 1854  34.875  44.863   0.853
33461W        W 1855  16.770  12.135  11.530
33462W        W 1856  31.414   8.196   2.247
33463W        W 1857   4.943  37.847   0.307
33464W        W 1858  34.485   5.751  10.634
33465W        W 1859   8.696  28.697   4.640
33466W        W 1860   0.722  23.190   4.348
33467W        W 1861  29.174  42.553   1.495
33468W        W 1862  41.979  41.269  11.215
33469W        W 1863  16.660  32.736   0.435
33470W        W 1864  22.444  33.582  13.873
33471W        W 1865  17.624   9.477   0.296
33472W        W 1866  15.173  42.383   4.869
33473W        W 1867  43.988  30.625  13.074
33474W        W 1868  44.410  30.935   4.094
33475W        W 1869  43.275  38.648   1.345
33476W        W 1870   4.698  35.091   1.642
33477W        W 1871   8.635  27.189  14.249
33478W        W 1872  19.398  13.425  11.133
33479W        W 1873   0.999  16.862  14.978
33480W        W 1874  24.854  13.433  12.566
33481W        W 1875  42.863   4.875   4.999
33482W        W 1876  13.757  39.567  14.984
33483W        W 1877  37.940  43.847  14.898
33484W        W 1878  31.562  43.798   0.730
33485W        W 1879  41.898  18.702  11.164
33486W        W 1880  43.151   5.551  14.014
33487W        W 1881   8.349  21.798   3.658
33488W        W 1882  18.632  28.688   2.324
33489W        W 1883  40.045   3.894   3.143
33490W        W 1884  28.981  10.777   0.025
33491W        W 1885  36.385  44.229   1.434
33492W        W 1886   9.187  41.354  14.015
33493W        W 1887  19.010  32.194  14.396
33494W        W 1888  25.063  37.694  11.908
33495W        W 1889  40.994  25.618   4.698
33496W        W 1890  36.430   2.891   2.020
33497W        W 1891   1.369  35.360  12.929
33498W        W 1892  17.814   5.186  14.003
33499W        W 1893   3.385  43.515  13.787
33500W        W 1894   8.474  33.640  14.809
33501W        W 1895   2.871  25.889   3.218
33502W        W 1896  36.414  21.638  10.979
33503W        W 1897  33.457  24.177   2.253
33504W        W 1898  44.691  34.656  11.921
33505W        W 1899  26.246  28.509  10.754
33506W        W 1900  36.177  22.560  11.534
33507W        W 1901  27.116  17.432   4.188
33508W        W 1902  24.041  31.425   3.158
33509W        W 1903   4.698  28.514  11.171
33510W        W 1904  26.477  26.388   1.056
33511W        W 1905  13.630  30.954  10.516
33512W        W 1906  24.728   5.303  11.342
33513W        W 1907  44.542  26.455   4.665
33514W        W 1908   6.711  17.018   3.823
33515W        W 1909   5.680  26.935   3.254
33516W        W 1910   7.165  37.344   0.355
33517W        W 1911  18.843   5.311  13.112
33518W        W 1912  37.729  42.607  13.104
33519W        W 1913  30.059  10.600  11.198
33520W        W 1914  28.902  34.334   4.185
33521W        W 1915  11.308   6.255  13.141
33522W        W 1916  21.356   9.452   1.740
33523W        W 1917  24.151  21.255  14.317
33524W        W 1918   8.156  21.664   0.333
33525W        W 1919   1.798  30.652   4.123
33526W        W 1920  35.617  29.265   0.367
33527W        W 1921  10.774  35.366   2.687
33528W        W 1922  41.135   2.788   2.773
33529W        W 1923  44.769  39.336   0.815
33530W        W 1924  15.972  36.968  14.288
33531W        W 1925   4.096  44.413  12.543
33532W        W 1926   7.497  12.633  11.447
33533W        W 1927  22.745   1.973  14.082
33534W        W 1928  32.711  27.974  14.786
33535W        W 1929  20.091  22.501   1.271
33536W        W 1930  36.124  29.324   0.474
33537W        W 1931   1.463  21.765  13.040
33538W        W 1932  39.901  41.390   3.912
33539W        W 1933  25.135  31.924  14.797
33540W        W 1934  29.665  13.090   3.924
33541W        W 1935  27.112  24.041  14.318
33542W        W 1936  35.600  30.080   0.792
33543W        W 1937  40.142  36.656   9.782
33544W        W 1938  32.994  37.272  12.466
33545W        W 1939  35.292   3.005   0.809
33546W        W 1940  31.844  41.026  11.171
33547W        W 1941   4.445  33.054   0.350
33548W        W 1942  19.849  12.159  13.619
33549W        W 1943  39.429  44.578  11.062
33550W        W 1944  32.710   2.007   3.660
33551W        W 1945  28.620  27.085  10.709
33552W        W 1946  43.846  12.750  11.840
33553W        W 1947  18.601  33.041   3.778
33554W        W 1948  25.451   4.422   3.140
33555W        W 1949  37.082  30.555  12.651
33556W        W 1950  19.212  15.615  11.998
33557W        W 1951  41.394   7.127  14.009
33558W        W 1952  22.717  19.721  14.943
33559W        W 1953   9.103  36.897  14.799
33560W        W 1954  42.073  31.855   3.734
33561W        W 1955  17.073  22.279   1.085
33562W        W 1956  12.942   5.903  11.259
33563W        W 1957  10.451  32.709   1.630
33564W        W 1958  26.416  44.774   3.620
33565W        W 1959  28.550  20.660  13.043
33566W        W 1960   6.273  31.889   5.007
33567W        W 1961  43.210  38.828   3.077
33568W        W 1962  22.491   9.438  13.445
33569W        W 1963  44.806  12.729  10.661
33570W        W 1964  28.178  39.812  13.006
33571W        W 1965  16.791  28.668  11.984
33572W        W 1966  15.838  23.704   1.588
33573W        W 1967  16.893   5.770   3.617
33574W        W 1968  15.327  41.390  14.542
33575W        W 1969  17.501  41.895   3.794
33576W        W 1970  19.353   5.355  14.924
33577W        W 1971  25.657  27.566   3.643
33578W        W 1972   2.418  10.278   2.789
33579W        W 1973   6.818  26.507   0.835
33580W        W 1974   8.945  32.352   4.587
33581W        W 1975  29.521  25.963   0.277
33582W        W 1976  32.986  21.091   0.509
33583W        W 1977   0.905  19.868   2.798
33584W        W 1978   1.960  34.565  13.603
33585W        W 1979  16.014  44.692  10.865
33586W        W 1980  41.961  33.905   2.851
33587W        W 1981  36.988  33.456  12.035
33588W        W 1982  26.271  33.517   4.063
33589W        W 1983  17.251  12.769   3.581
33590W        W 1984  33.323   5.067  12.920
33591W        W 1985  32.496  28.566   4.566
33592W        W 1986  23.253   8.657  13.475
33593W        W 1987  37.464  37.452   0.737
33594W        W 1988  20.999  39.345  13.155
33595W        W 1989  22.917  27.539  10.980
33596W        W 1990  18.695  20.189   4.069
33597W        W 1991  13.080  43.229  14.068
33598W        W 1992   3.554  20.709   0.839
33599W        W 1993  12.581  39.833  14.463
33600W        W 1994  32.302  20.356  11.610
33601W        W 1995  14.046  42.032   2.677
33602W        W 1996  37.616  37.141  13.960
33603W        W 1997  14.273   8.837   4.610
33604W        W 1998  14.231  40.340   2.337
33605W        W 1999   2.694  24.835  14.589
33606W        W 2000  31.092  23.283   3.702
33607W        W 2001  11.302  30.348  12.912
33608W        W 2002  35.925  26.627   3.130
33609W        W 2003  31.098  42.515  11.964
33610W        W 2004  43.077  30.277   2.643
33611W        W 2005   9.040  31.100   4.673
33612W        W 2006  17.797  39.310   4.431
33613W        W 2007  25.961   9.579   4.105
33614W        W 2008  28.055  22.625  11.960
33615W        W 2009  15.771  34.641   3.398
33616W        W 2010  18.871   4.274   3.379
33617W        W 2011  28.121   4.695   2.690
33618W        W 2012  32.202  26.179  14.097
33619W        W 2013  35.447  19.678  14.043
33620W        W 2014   9.017  37.855  11.140
33621W        W 2015  20.801  12.051  10.660
33622W        W 2016  13.788  21.464  11.272
33623W        W 2017  24.838  18.298   3.238
33624W        W 2018  15.086  29.164  11.507
33625W        W 2019   0.834   0.418  10.829
33626W        W 2020   7.350  12.130  14.797
33627W        W 2021  39.191  12.248   3.215
33628W        W 2022  27.931  26.708   3.269
33629W        W 2023   6.195  39.853  10.430
33630W        W 2024  23.550  43.899   2.892
33631W        W 2025  39.912  31.839   1.245
33632W        W 2026  23.978  17.127   3.351
33633W        W 2027  17.569  12.384  12.817
33634W        W 2028  17.750  20.330   4.146
33635W        W 2029  32.940  32.939   2.724
33636W        W 2030  31.117  33.150  10.766
33637W        W 2031  37.089  42.569  12.558
33638W        W 2032  27.955  28.003   4.474
33639W        W 2033  29.549  14.228   0.442
33640W        W 2034  38.081  20.112   4.214
33641W        W 2035  26.000   7.785  12.598
33642W        W 2036   7.933  20.531  13.861
33643W        W 2037  19.728   7.598  11.500
33644W        W 2038   1.184  11.368  10.812
33645W        W 2039   9.928  27.613   2.988
33646W        W 2040  24.203   9.953   4.559
33647W        W 2041  16.934  43.159  13.840
33648W        W 2042  19.910  15.772  14.293
33649W        W 2043   7.855  42.041  10.622
33650W        W 2044  43.545  22.015  11.953
33651W        W 2045  12.510  15.130   0.005
33652W        W 2046   5.897  29.703   2.805
33653W        W 2047  44.017  27.962   1.944
33654W        W 2048  16.119  41.522  11.047
33655W        W 2049   7.721  18.266   2.359
33656W        W 2050   3.257  18.216  14.428
33657W        W 2051  21.662  28.913   0.455
33658W        W 2052  28.433  10.861   2.178
33659W        W 2053  43.680  19.960   3.129
33660W        W 2054  11.812  15.414   1.472
33661W        W 2055  24.781   0.826   4.579
33662W        W 2056  28.146   8.404   2.247
33663W        W 2057  39.875  40.409   3.749
33664W        W 2058  18.028  15.429  11.590
33665W        W 2059  24.314   3.135   0.676
33666W        W 2060  43.349  39.011   4.643
33667W        W 2061  41.977  42.035  12.567
33668W        W 2062  41.382  10.148   0.679
33669W        W 2063  19.150  30.226   1.885
33670W        W 2064   5.792  15.929  12.109
33671W        W 2065  24.472  11.938  14.847
33672W        W 2066  33.120  20.703   5.041
33673W        W 2067   0.219  21.668   2.720
33674W        W 2068  25.185  17.551   0.200
33675W        W 2069   3.369  17.792   1.851
33676W        W 2070  35.232  35.772   3.145
33677W        W 2071   2.879  23.962  11.685
33678W        W 2072  11.424  15.852  10.914
33679W        W 2073  34.570  18.996   0.210
33680W        W 2074  17.726   2.405  14.472
33681W        W 2075  35.355  16.088  13.370
33682W        W 2076  37.567   2.239   1.644
33683W        W 2077  31.278  33.392  14.831
33684W        W 2078  35.394  35.494  14.384
33685W        W 2079  26.448  25.184   1.916
33686W        W 2080   6.837  27.944   4.265
33687W        W 2081  39.511  20.604   3.205
33688W        W 2082   8.640   2.269   5.138
33689W        W 2083  19.768   6.137  13.121
33690W        W 2084   7.877  28.731   4.269
33691W        W 2085  38.430  44.604  12.965
33692W        W 2086  16.274  44.478   1.424
33693W        W 2087   9.090  13.267  13.439
33694W        W 2088  35.090  18.555   1.292
33695W        W 2089  13.123  24.508  13.380
33696W        W 2090  26.900  23.973   4.350
33697W        W 2091   8.379  28.056  10.901
33698W        W 2092  19.651   9.182  11.177
33699W        W 2093  23.064  23.246  12.338
33700W        W 2094  44.067   5.379  11.585
33701W        W 2095  24.560  36.387  11.097
33702W        W 2096  30.283  38.796   2.167
33703W        W 2097   5.087  34.872  11.225
33704W        W 2098  17.638  25.320  13.349
33705W        W 2099  15.959  13.555   1.552
33706W        W 2100  14.302  29.081  14.899
33707W        W 2101   7.732  18.646  10.431
33708W        W 2102  14.347  36.281   4.139
33709W        W 2103  33.394  12.433   0.045
33710W        W 2104   6.188  43.285  11.648
33711W        W 2105  43.604   9.662  13.267
33712W        W 2106  12.805  37.095   1.174
33713W        W 2107  29.570  29.735   2.727
33714W        W 2108  35.610  20.137  13.877
33715W        W 2109  11.595   9.196   1.059
33716W        W 2110  12.505   8.205   3.751
33717W        W 2111   7.391  33.391   1.774
33718W        W 2112  42.127  14.124   0.427
33719W        W 2113  19.113  32.873  10.828
33720W        W 2114  23.523   0.473  13.340
33721W        W 2115  11.317  38.805  12.304
33722W        W 2116  25.238  42.469   1.486
33723W        W 2117   0.503   0.255   2.940
33724W        W 2118  24.498  31.870   1.332
33725W        W 2119  38.373  29.382   4.269
33726W        W 2120  34.870  39.514  10.828
33727W        W 2121  12.199   6.839   3.409
33728W        W 2122  12.325   4.991  12.109
33729W        W 2123  27.714  41.259  13.896
33730W        W 2124  40.046   3.526  11.701
33731W        W 2125   2.543  31.420   0.087
33732W        W 2126  40.895  37.300  13.430
33733W        W 2127  15.646   9.827  13.929
33734W        W 2128   9.777  29.137   0.143
33735W        W 2129   8.872   8.643   2.847
33736W        W 2130   0.449  27.966  13.502
33737W        W 2131  15.681   0.050  12.332
33738W        W 2132  15.979  30.533  12.071
33739W        W 2133  37.522  30.045   3.090
33740W        W 2134   1.755  21.094   3.612
33741W        W 2135  32.404  36.236  11.892
33742W        W 2136   4.276   5.291   0.616
33743W        W 2137  31.447  13.181   3.737
33744W        W 2138  37.937  26.138  10.745
33745W        W 2139  12.443  22.698   4.620
33746W        W 2140  10.764  33.499   4.939
33747W        W 2141  44.639  21.037  13.583
33748W        W 2142   7.225  16.233   3.359
33749W        W 2143   8.013   3.299   4.167
33750W        W 2144  22.695  37.314  10.503
33751W        W 2145  16.683  34.415  14.011
33752W        W 2146  21.206   8.580   2.784
33753W        W 2147  36.925  27.755   0.785
33754W        W 2148  39.931   5.217   1.709
33755W        W 2149  32.261  34.648  10.080
33756W        W 2150  13.477  32.629  14.144
33757W        W 2151  24.567  33.930  11.567
33758W        W 2152   3.006  32.352  13.516
33759W        W 2153   2.609  16.169  12.879
33760W        W 2154  24.961   2.484  14.847
33761W        W 2155  26.101  31.966   4.524
33762W        W 2156  23.627  33.031  14.607
33763W        W 2157  36.663  21.698   2.589
33764W        W 2158  44.731  14.595   2.805
33765W        W 2159   3.933   6.180   4.890
33766W        W 2160   8.725  11.426   1.356
33767W        W 2161  31.629  12.504   0.256
33768W        W 2162  39.115  13.088   1.683
33769W        W 2163  43.425   7.223  14.506
33770W        W 2164  32.693  13.829  14.447
33771W        W 2165  20.646  16.783   3.135
33772W        W 2166  44.222  20.734  14.827
33773W        W 2167  39.389  42.832  13.364
33774W        W 2168   6.787  18.772   4.747
33775W        W 2169  14.319  33.421   3.076
33776W        W 2170  28.730   3.470  11.078
33777W        W 2171  25.772  43.920   0.655
33778W        W 2172  38.797  43.574  14.135
33779W        W 2173  24.595   3.290   1.886
33780W        W 2174   4.613   5.275  14.321
33781W        W 2175  24.037   1.439  11.276
33782W        W 2176   0.784  35.564   2.174
33783W        W 2177  27.940   4.963   4.692
33784W        W 2178  20.114  39.337  12.888
33785W        W 2179  20.793  41.891   4.965
33786W        W 2180  15.856  17.758  11.264
33787W        W 2181  23.832   2.834  11.922
33788W        W 2182  22.016  37.618  14.278
33789W        W 2183  17.206  36.119  14.076
33790W        W 2184  22.552  26.190  13.328
33791W        W 2185   7.821  15.414   3.657
33792W        W 2186  15.006  12.328   1.861
33793W        W 2187   1.936   9.294   0.446
33794W        W 2188  34.467  32.052   3.099
33795W        W 2189  21.661  29.686   3.752
33796W        W 2190  17.227  25.105  14.996
33797W        W 2191   9.976  39.457  11.515
33798W        W 2192  12.726  27.586   3.302
33799W        W 2193  22.637  23.982  13.463
33800W        W 2194  23.444   2.663  12.647
33801W        W 2195   0.456  31.245   0.220
33802W        W 2196  41.231  14.696  13.372
33803W        W 2197   7.816  35.992  12.965
33804W        W 2198  17.300  10.178  13.024
33805W        W 2199  25.577  43.426  14.499
33806W        W 2200   9.166  15.544  10.834
33807W        W 2201  15.066  40.332  10.713
33808W        W 2202   2.361   6.648   2.261
33809W        W 2203   8.291  30.204   1.746
33810W        W 2204  20.804  43.836   0.648
33811W        W 2205  22.715   7.809  11.114
33812W        W 2206   4.108   8.828  10.528
33813W        W 2207   5.302  18.204   3.585
33814W        W 2208   8.486  26.999   4.248
33815W        W 2209  41.367  43.894  12.679
33816W        W 2210  34.859  19.239  14.444
33817W        W 2211  43.834  24.650   2.150
33818W        W 2212  41.439  30.680   4.627
33819W        W 2213  43.876  44.751  12.874
33820W        W 2214  28.608  28.704   1.949
33821W        W 2215  34.302  39.552  11.540
33822W        W 2216  39.466  42.006   3.264
33823W        W 2217   4.721  10.425  12.575
33824W        W 2218  40.767   6.690  11.886
33825W        W 2219  19.630  14.798  12.866
33826W        W 2220   6.848  42.816   2.332
33827W        W 2221  17.729   7.180   4.045
33828W        W 2222  24.824  19.689   4.681
33829W        W 2223  40.842   4.725   1.693
33830W        W 2224  23.018  34.118  13.494
33831W        W 2225  33.562   2.298   2.702
33832W        W 2226  19.021  35.433  14.696
33833W        W 2227   7.840  26.244   3.991
33834W        W 2228   9.169   2.486   4.321
33835W        W 2229  10.620  10.840  12.414
33836W        W 2230  28.506  16.675   4.025
33837W        W 2231  37.488  26.514   5.050
33838W        W 2232  10.349  11.615  11.215
33839W        W 2233  20.036  11.338  12.814
33840W        W 2234  26.730  11.890   4.910
33841W        W 2235   5.556  24.272  11.808
33842W        W 2236  27.866  19.484   3.298
33843W        W 2237  32.392  10.361  13.876
33844W        W 2238   1.179  27.219   3.552
33845W        W 2239  25.014   9.896  14.262
33846W        W 2240   1.452  30.206   3.284
33847W        W 2241  16.636  26.080   2.223
33848W        W 2242  14.810  42.480  13.497
33849W        W 2243  26.765   4.443  12.073
33850W        W 2244  21.091   1.404  11.154
33851W        W 2245  17.652  18.448   4.596
33852W        W 2246   5.787  22.856   2.988
33853W        W 2247   7.620   5.435   4.646
33854W        W 2248  15.812  12.761  10.353
33855W        W 2249  20.539  17.613   3.682
33856W        W 2250   8.250  26.249   3.647
33857W        W 2251  32.145  11.116   2.146
33858W        W 2252  39.732  31.503   2.649
33859W        W 2253  33.036  17.373   4.824
33860W        W 2254  16.091   9.669   4.188
33861W        W 2255  42.242  28.852  14.297
33862W        W 2256  37.977  19.120   3.172
33863W        W 2257  44.754  36.151  10.666
33864W        W 2258  29.702   7.740  14.767
33865W        W 2259   0.872  11.463   2.296
33866W        W 2260  26.989  21.137   5.181
33867W        W 2261  21.568  20.814  14.735
33868W        W 2262  13.317  22.789  11.150
33869W        W 2263  40.429  40.420  13.858
33870W        W 2264  11.224   8.927   4.949
33871W        W 2265  26.383  23.720   3.538
33872W        W 2266  35.345  16.145   2.790
33873W        W 2267  10.239  16.680   0.360
33874W        W 2268  33.063  28.935   1.907
33875W        W 2269   3.185   2.428   3.626
33876W        W 2270  40.773  32.621  14.018
33877W        W 2271  27.176  17.828  11.944
33878W        W 2272  19.308   1.240   1.311
33879W        W 2273  39.658  27.499  11.237
33880W        W 2274  24.171  23.608  10.936
33881W        W 2275   0.028  12.266  10.692
33882W        W 2276  11.880  35.068   1.869
33883W        W 2277  38.070  42.009  14.333
33884W        W 2278   1.765  42.833   1.731
33885W        W 2279  23.233  33.529  10.747
33886W        W 2280  42.121  44.134  10.762
33887W        W 2281   8.951  11.506  11.593
33888W        W 2282   5.442  13.599  11.172
33889W        W 2283  11.396  34.268  13.539
33890W        W 2284   7.885  41.500   4.575
33891W        W 2285  41.781  33.437   4.292
33892W        W 2286  41.577  31.581   0.444
33893W        W 2287  40.095  10.087   4.374
33894W        W 2288   4.352   2.374   3.117
33895W        W 2289  15.110  37.512  14.246
33896W        W 2290  26.585  18.449   0.948
33897W        W 2291  23.597  16.309   3.300
33898W        W 2292  36.576  29.837   4.701
33899W        W 2293  13.622  34.385  10.551
33900W        W 2294   3.638  18.232  13.609
33901W        W 2295   5.896  19.624   1.884
33902W        W 2296   3.651  36.488   4.952
33903W        W 2297   6.445  18.516  11.060
33904W        W 2298  12.662  41.929  12.005
33905W        W 2299  41.026  33.543  12.975
33906W        W 2300  10.179  38.595   4.206
33907W        W 2301  20.541  27.436   0.248
33908W        W 2302   1.067  15.732  12.094
33909W        W 2303  20.350  27.125  11.408
33910W        W 2304  13.777  26.182  10.651
33911W        W 2305  38.809   5.173  11.289
33912W        W 2306  44.543  17.443  10.064
33913W        W 2307  31.058  24.952  13.029
33914W        W 2308  24.189  25.249  14.966
33915W        W 2309  36.400  32.416  11.511
33916W        W 2310  12.649   6.578   9.572
33917W        W 2311  22.285  16.781  10.518
33918W        W 2312  29.409   9.715   4.766
33919W        W 2313   7.465  21.266  13.736
33920W        W 2314  34.532  38.297   3.548
33921W        W 2315  23.227  44.310   1.756
33922W        W 2316  31.897  15.552  11.804
33923W        W 2317  43.024  21.629  12.558
33924W        W 2318  20.808  28.269   5.452
33925W        W 2319  33.210  15.084   0.215
33926W        W 2320  38.988  40.793  10.782
33927W        W 2321  29.223   9.924  14.403
33928W        W 2322   9.371  21.406  14.344
33929W        W 2323  22.106  27.110  13.826
33930W        W 2324   6.584  12.305  10.808
33931W        W 2325   2.892  13.332   9.725
33932W        W 2326  34.595   7.293   4.184
33933W        W 2327  29.187  20.451   2.916
33934W        W 2328   5.148  43.878   2.318
33935W        W 2329  30.523  16.980   2.713
33936W        W 2330  37.551  21.718   0.492
33937W        W 2331  35.486  40.031   1.919
33938W        W 2332  15.832  42.151  11.708
33939W        W 2333   8.691  29.649   3.682
33940W        W 2334  30.769  17.437   4.303
33941W        W 2335  31.128  44.545   4.945
33942W        W 2336   0.976  42.179  13.232
33943W        W 2337  32.064  30.319   2.411
33944W        W 2338  24.683   5.798  11.523
33945W        W 2339   4.038  32.153  11.665
33946W        W 2340  34.042   8.878   0.432
33947W        W 2341  18.462  17.848   1.810
33948W        W 2342  25.742  26.615  13.994
33949W        W 2343  35.535  36.045   2.665
33950W        W 2344  23.756   9.583   9.883
33951W        W 2345  40.901  26.233   2.651
33952W        W 2346  41.050  36.167  14.278
33953W        W 2347   8.625   9.793   0.481
33954W        W 2348   9.746  42.381   0.851
33955W        W 2349  33.982  15.167  10.612
33956W        W 2350   9.262   7.859   3.644
33957W        W 2351  41.986  38.485  12.454
33958W        W 2352  26.818   9.455   1.168
33959W        W 2353  42.227  41.888   1.314
33960W        W 2354   9.336  24.817   3.268
33961W        W 2355  32.017  37.655  14.351
33962W        W 2356   6.112  12.669   0.959
33963W        W 2357  44.216  29.553   4.087
33964W        W 2358  24.280  17.603   2.601
33965W        W 2359   2.893  36.654   3.838
33966W        W 2360  17.339  31.950  11.608
33967W        W 2361  42.544   7.804   4.504
33968W        W 2362  36.670  16.985   0.832
33969W        W 2363  13.345  24.435   2.632
33970W        W 2364  43.652   2.528  13.038
33971W        W 2365  38.588  31.577   1.791
33972W        W 2366  19.388   0.911  11.075
33973W        W 2367   5.514   3.285  11.621
33974W        W 2368  18.120  25.544  12.132
33975W        W 2369  33.556  39.793   0.026
33976W        W 2370  17.799  39.468  11.586
33977W        W 2371   5.676  33.337  11.150
33978W        W 2372  43.997  40.421  10.805
33979W        W 2373  30.114   9.212   3.094
33980W        W 2374   4.282   9.544  12.317
33981W        W 2375  36.853  19.528   2.737
33982W        W 2376   1.857  36.845   4.546
33983W        W 2377  35.622  24.352  14.672
33984W        W 2378   9.399  10.392  11.575
33985W        W 2379  13.899  20.743  14.479
33986W        W 2380  34.954  31.028  10.997
33987W        W 2381  35.145  44.198   4.147
33988W        W 2382  37.990  16.431   0.190
33989W        W 2383  33.495  10.446   3.108
33990W        W 2384   6.255  29.607   0.814
33991W        W 2385  36.042   2.298   4.520
33992W        W 2386   7.979  24.641   1.830
33993W        W 2387  22.111  22.981  14.904
33994W        W 2388   8.825  33.118  14.917
33995W        W 2389  35.124   6.797  13.494
33996W        W 2390  29.229  44.922  11.211
33997W        W 2391  14.172  42.309  12.792
33998W        W 2392  14.150  34.891   2.439
33999W        W 2393  21.171  33.149  12.267
34000W        W 2394  23.385  19.295  11.987
34001W        W 2395  30.568  26.318  14.476
34002W        W 2396  28.876  28.409  11.985
34003W        W 2397  13.217  24.928  10.816
34004W        W 2398  28.069  11.287  10.774
34005W        W 2399  26.950  35.910  14.768
34006W        W 2400  26.078  15.331  14.044
34007W        W 2401   2.696  32.038   3.220
34008W        W 2402  14.668  21.646   0.818
34009W        W 2403  23.519  27.993   2.818
34010W        W 2404  26.446  23.212   2.810
34011W        W 2405   2.944  24.734   5.216
34012W        W 2406  22.177  27.901  10.733
34013W        W 2407  30.045  34.529  11.242
34014W        W 2408  44.445  23.056  13.871
34015W        W 2409  24.731  10.185   2.818
34016W        W 2410  17.144  33.305   3.044
34017W        W 2411  14.259  11.136   1.670
34018W        W 2412  12.342  24.122  10.843
34019W        W 2413   3.303  36.544   4.553
34020W        W 2414   1.296  38.338   3.822
34021W        W 2415  12.418   6.066   3.286
34022W        W 2416  18.253  14.180   3.640
34023W        W 2417  20.713  15.557   3.306
34024W        W 2418  24.589  32.711  11.095
34025W        W 2419  16.686  21.800  13.136
34026W        W 2420  38.532  19.561   2.854
34027W        W 2421  19.233  41.535  13.002
34028W        W 2422   9.958  22.709   0.871
34029W        W 2423   4.919  19.828   4.025
34030W        W 2424   4.811  29.793  12.451
34031W        W 2425  23.760  12.891  13.506
34032W        W 2426   1.460  41.728  11.114
34033W        W 2427  42.477  23.016  11.559
34034W        W 2428  40.927  44.508  12.125
34035W        W 2429  30.106  20.193  12.090
34036W        W 2430  30.843   8.950  14.904
34037W        W 2431  30.884  34.950   0.736
34038W        W 2432  37.445  42.966  14.041
34039W        W 2433  38.441  17.404   0.335
34040W        W 2434   9.738  42.548   3.402
34041W        W 2435  21.498   6.905  12.012
34042W        W 2436  39.388   7.843   4.164
34043W        W 2437  12.328  21.590  12.103
34044W        W 2438   4.395  30.919  11.827
34045W        W 2439   9.740   8.239   3.792
34046W        W 2440   0.892   3.807   3.558
34047W        W 2441  10.350  41.891   3.245
34048W        W 2442   6.347   8.804  11.503
34049W        W 2443  21.037   2.234   2.787
34050W        W 2444  23.111   3.969   1.869
34051W        W 2445   6.915  37.503   1.760
34052W        W 2446   6.817  16.241  13.008
34053W        W 2447   1.338  30.673  14.361
34054W        W 2448  14.690  15.635   3.694
34055W        W 2449   2.797  32.372   3.639
34056W        W 2450  34.971  35.538  10.635
34057W        W 2451   4.469  19.499   5.088
34058W        W 2452  31.079   6.584  14.811
34059W        W 2453  16.072  17.270   3.614
34060W        W 2454  31.698  31.141  12.687
34061W        W 2455   3.926   9.324  12.608
34062W        W 2456   8.601  42.981  12.135
34063W        W 2457  21.253  33.596   3.319
34064W        W 2458  43.360  21.648   1.683
34065W        W 2459  42.503  25.551   2.300
34066W        W 2460  44.310  20.257   4.588
34067W        W 2461  14.685  37.516  14.585
34068W        W 2462   6.399  11.283  11.588
34069W        W 2463  29.622  32.786   1.923
34070W        W 2464   1.817   0.125   0.264
34071W        W 2465  33.307   1.007  10.116
34072W        W 2466  43.058  42.053  12.977
34073W        W 2467  29.659  19.815   0.276
34074W        W 2468  44.487  13.721   4.482
34075W        W 2469  24.789  23.623   1.255
34076W        W 2470  33.760  41.183  13.740
34077W        W 2471  42.803  43.934   4.386
34078W        W 2472  13.723  11.807   1.326
34079W        W 2473   6.179  37.550  13.957
34080W        W 2474  33.450  44.898   3.205
34081W        W 2475   4.146  11.666  11.168
34082W        W 2476  31.811  32.409   3.148
34083W        W 2477   8.512   8.193   1.269
34084W        W 2478   5.641  35.094   1.329
34085W        W 2479   3.396  33.127  13.424
34086W        W 2480  21.635  10.302  12.000
34087W        W 2481   6.775  19.114  12.633
34088W        W 2482  14.665   2.266   0.226
34089W        W 2483   3.299  44.953  12.816
34090W        W 2484  17.525  18.244  11.165
34091W        W 2485  13.829  24.233  11.162
34092W        W 2486  10.368  18.198   4.692
34093W        W 2487   9.983  14.335  11.006
34094W        W 2488   4.516  12.523   5.078
34095W        W 2489  37.460  21.889   3.224
34096W        W 2490  43.970  31.919   4.098
34097W        W 2491  44.738  43.454  10.834
34098W        W 2492  41.524  41.925  11.008
34099W        W 2493  32.985  36.361  12.871
34100W        W 2494   0.790   7.207  10.657
34101W        W 2495  35.341   7.871   3.221
34102W        W 2496  28.186  23.071   0.580
34103W        W 2497  30.348   8.805   3.317
34104W        W 2498  37.763  21.239  12.391
34105W        W 2499   8.703  17.107  10.674
34106W        W 2500   3.019  40.054   1.710
34107W        W 2501  32.073  11.718  13.819
34108W        W 2502  30.140   6.140   2.158
34109W        W 2503   4.327  37.349  13.540
34110W        W 2504   4.840  11.321   2.628
34111W        W 2505  25.069   6.512   4.029
34112W        W 2506  28.440   3.501   1.838
34113W        W 2507  28.648  10.395  14.902
34114W        W 2508  44.562  33.925   0.804
34115W        W 2509  40.952  12.850   2.312
34116W        W 2510  23.064  20.802  13.022
34117W        W 2511   2.009  30.271   3.834
34118W        W 2512  24.163  16.715   3.118
34119W        W 2513  12.564  19.668  12.997
34120W        W 2514   4.957  21.702  14.313
34121W        W 2515  22.511  40.570   3.632
34122W        W 2516  44.470  14.641   4.137
34123W        W 2517   8.130  29.159   2.639
34124W        W 2518  30.447  25.702   3.347
34125W        W 2519  33.811  44.385  14.313
34126W        W 2520  13.602  13.494  12.683
34127W        W 2521   8.646   4.710   5.215
34128W        W 2522  20.197  23.328  13.979
34129W        W 2523  15.470  43.204  11.895
34130W        W 2524  19.490  27.416  13.003
34131W        W 2525   0.859   1.875  10.463
34132W        W 2526  11.701  19.712   4.643
34133W        W 2527  26.692  14.732   1.232
34134W        W 2528  41.276  21.281  12.337
34135W        W 2529   5.347  30.844  12.853
34136W        W 2530  12.366  17.973   3.808
34137W        W 2531   0.361  35.172   1.729
34138W        W 2532  29.511   3.177  14.951
34139W        W 2533  10.286   1.981   4.136
34140W        W 2534  35.094  19.756  12.230
34141W        W 2535  11.330  41.056   1.860
34142W        W 2536  37.071  41.241   4.328
34143W        W 2537  32.645  37.815  10.387
34144W        W 2538  42.814  10.263   0.858
34145W        W 2539  30.541  10.230   5.066
34146W        W 2540  29.343  28.113   1.250
34147W        W 2541  43.695  21.441  11.191
34148W        W 2542  23.113  33.167   1.956
34149W        W 2543  12.371  31.011   2.460
34150W        W 2544  25.691  23.054  11.580
34151W        W 2545   9.028   5.125   5.033
34152W        W 2546  35.785  20.172   2.881
34153W        W 2547  23.570   2.007  10.608
34154W        W 2548   2.468  44.411   4.676
34155W        W 2549   9.753  23.489  14.333
34156W        W 2550  21.722  24.733   4.185
34157W        W 2551  22.118  27.387  12.043
34158W        W 2552  26.151   3.888  13.364
34159W        W 2553   3.757   2.610  10.292
34160W        W 2554  25.256  33.661   0.266
34161W        W 2555  35.444  18.206  13.822
34162W        W 2556   2.404  13.179   3.323
34163W        W 2557  14.336  41.734   2.108
34164W        W 2558   1.480  14.113  12.864
34165W        W 2559  38.509  16.287   0.879
34166W        W 2560   9.483   4.910   4.099
34167W        W 2561   6.972  38.481   1.347
34168W        W 2562  32.754  36.366  13.864
34169W        W 2563  27.011  38.081   3.593
34170W        W 2564  38.250  28.048  13.006
34171W        W 2565  17.216   5.292  11.013
34172W        W 2566  19.296  28.691  13.506
34173W        W 2567  12.245  39.622   2.303
34174W        W 2568  32.456  38.578  13.435
34175W        W 2569  14.321  13.396  11.379
34176W        W 2570  41.793   0.016  14.099
34177W        W 2571   9.559  38.525  13.802
34178W        W 2572  35.449  12.255   0.562
34179W        W 2573  33.221  13.128  10.560
34180W        W 2574  44.554  44.099   4.575
34181W        W 2575   7.423  36.961  12.017
34182W        W 2576  21.525  43.711  13.310
34183W        W 2577   2.700  43.267   4.158
34184W        W 2578   3.197   3.348   1.778
34185W        W 2579  33.535   8.609   4.260
34186W        W 2580  15.911  19.780  14.963
34187W        W 2581  36.406  38.115  11.423
34188W        W 2582  29.544  12.253  11.540
34189W        W 2583  42.504  44.451  12.932
34190W        W 2584  23.977  10.908   4.488
34191W        W 2585  11.297  38.462  11.476
34192W        W 2586   9.418  21.519   4.216
34193W        W 2587   9.407  24.551   3.699
34194W        W 2588  29.724  30.448   4.627
34195W        W 2589  33.643  23.490   2.290
34196W        W 2590  31.261  23.947  13.940
34197W        W 2591   1.533   9.361  11.460
34198W        W 2592  22.689  38.843  11.222
34199W        W 2593  28.221  23.385   2.298
34200W        W 2594  40.412  23.247  12.801
34201W        W 2595   6.283  19.412  11.335
34202W        W 2596  14.855   8.401   0.820
34203W        W 2597  24.660  19.395  11.503
34204W        W 2598   4.276  39.005   1.694
34205W        W 2599  23.912  30.401  11.906
34206W        W 2600  21.335   1.951  14.489
34207W        W 2601  32.531   2.246  13.506
34208W        W 2602  36.438  13.055   0.522
34209W        W 2603  11.897  37.988  13.544
34210W        W 2604  12.620  31.383  14.091
34211W        W 2605  19.269   4.279   2.444
34212W        W 2606   6.682   0.777   1.990
34213W        W 2607  30.500  42.241  13.219
34214W        W 2608  25.119  18.711   1.414
34215W        W 2609  16.725  36.519  13.362
34216W        W 2610   7.156  22.190   1.691
34217W        W 2611  16.548  25.242  13.415
34218W        W 2612  25.494  43.292   0.904
34219W        W 2613   5.343  42.252  10.870
34220W        W 2614   7.112   7.044   2.746
34221W        W 2615  12.416  43.317  13.419
34222W        W 2616  30.644  28.537   2.007
34223W        W 2617  39.485  16.796   2.962
34224W        W 2618  17.299  12.435   4.855
34225W        W 2619  29.257   8.649  11.564
34226W        W 2620   0.275   9.385   1.228
34227W        W 2621  29.255  43.922   4.235
34228W        W 2622   6.660  14.156   0.220
34229W        W 2623  39.583  36.178  14.924
34230W        W 2624   4.825  25.970   2.600
34231W        W 2625  11.845  26.576  14.780
34232W        W 2626  18.638  25.690  12.041
34233W        W 2627  25.263  26.591  11.593
34234W        W 2628  12.762  14.665  11.005
34235W        W 2629   8.909  26.720   4.217
34236W        W 2630   2.391   9.424  11.577
34237W        W 2631   8.186  35.032   1.204
34238W        W 2632  33.728  39.088   2.226
34239W        W 2633  30.902  35.853   1.781
34240W        W 2634  10.069   3.554  10.707
34241W        W 2635   1.918  30.036  11.939
34242W        W 2636   0.355  24.721  12.358
34243W        W 2637  27.236   9.715   1.005
34244W        W 2638  44.437  44.027  12.892
34245W        W 2639  19.107  22.523  14.492
34246W        W 2640  30.505  32.131  14.331
34247W        W 2641   7.747   5.931  14.988
34248W        W 2642  26.430  19.534   0.489
34249W        W 2643  30.965  20.559  11.988
34250W        W 2644  36.131  16.534  11.521
34251W        W 2645   4.204  41.340  11.404
34252W        W 2646   1.790  17.785   1.715
34253W        W 2647  22.975  20.191   1.841
34254W        W 2648   2.190  27.002  11.028
34255W        W 2649   9.238  23.741   4.133
34256W        W 2650  31.618  34.240  12.424
34257W        W 2651  40.572  39.229   2.769
34258W        W 2652  11.541  22.032  12.587
34259W        W 2653  27.276  22.814   0.521
34260W        W 2654  26.987  23.210  11.726
34261W        W 2655  31.651   2.735  14.954
34262W        W 2656  33.910  16.077   4.180
34263W        W 2657  13.424  15.092  14.012
34264W        W 2658   8.262  17.757   1.895
34265W        W 2659  21.769  27.133  14.884
34266W        W 2660   1.674  44.845  11.047
34267W        W 2661  12.271   9.917   4.073
34268W        W 2662  25.662  43.848  14.149
34269W        W 2663  12.382  26.512   0.675
34270W        W 2664  42.891  16.722  14.715
34271W        W 2665   1.883  21.069  11.038
34272W        W 2666  38.097  16.567   0.665
34273W        W 2667   8.216  31.267  13.405
34274W        W 2668  38.903  32.899  10.957
34275W        W 2669  14.032   2.700  12.621
34276W        W 2670  22.605  38.713   4.134
34277W        W 2671  13.816  44.043  11.481
34278W        W 2672  12.225  21.180   2.003
34279W        W 2673  18.699  27.434   1.812
34280W        W 2674  24.975  38.088  14.931
34281W        W 2675  29.346  25.731  10.426
34282W        W 2676  10.888  12.804  14.317
34283W        W 2677  22.885  18.196   2.102
34284W        W 2678   1.149  24.593   4.674
34285W        W 2679  25.602  22.266  10.560
34286W        W 2680  16.687   7.157  12.550
34287W        W 2681   6.660  26.056  11.617
34288W        W 2682   3.588  37.253   2.799
34289W        W 2683  22.365  39.312   4.794
34290W        W 2684  35.097   3.441  13.520
34291W        W 2685  21.268  23.363   2.802
34292W        W 2686   8.458  30.673   4.359
34293W        W 2687  34.882  12.908   1.775
34294W        W 2688  38.992  14.643   3.222
34295W        W 2689  30.716   8.912   1.411
34296W        W 2690  20.524   9.893  11.680
34297W        W 2691  26.684   9.329  10.953
34298W        W 2692  17.071  30.580   4.805
34299W        W 2693  34.284  39.544  12.561
34300W        W 2694  44.267  44.952   1.033
34301W        W 2695  39.054  26.248  11.586
34302W        W 2696   5.828  42.573  12.086
34303W        W 2697  24.069   0.440   4.887
34304W        W 2698   2.317   5.430   3.629
34305W        W 2699  41.667  19.750   4.209
34306W        W 2700  37.110  25.946  14.679
34307W        W 2701  31.139  28.946   0.418
34308W        W 2702  29.182  44.339   4.562
34309W        W 2703  17.471  17.344  14.437
34310W        W 2704  11.736  24.666  13.480
34311W        W 2705   9.786   0.131  14.101
34312W        W 2706  23.147  28.682   0.462
34313W        W 2707   4.250  16.006   2.741
34314W        W 2708  40.277   4.213   2.389
34315W        W 2709  21.394  32.541   2.244
34316W        W 2710  21.688  40.293  10.859
34317W        W 2711  32.509  44.782  11.174
34318W        W 2712   8.939   4.237   1.771
34319W        W 2713  26.076   8.362   2.203
34320W        W 2714  18.659  14.600  11.430
34321W        W 2715  32.591  16.264  12.940
34322W        W 2716  32.309   6.210   3.660
34323W        W 2717  35.265  28.525  11.473
34324W        W 2718   5.906  15.579  13.943
34325W        W 2719  34.980  30.229   4.279
34326W        W 2720  43.424  18.713   4.447
34327W        W 2721  14.355  20.367   0.224
34328W        W 2722  27.707  14.278   4.364
34329W        W 2723   7.652  43.426   3.004
34330W        W 2724  16.689  31.494   3.933
34331W        W 2725  17.021   4.782  12.042
34332W        W 2726  18.283  40.601   0.271
34333W        W 2727  25.166   9.711  14.858
34334W        W 2728  22.645  35.503  11.499
34335W        W 2729  33.211  17.678   4.027
34336W        W 2730  13.924  34.511   1.588
34337W        W 2731  28.437  26.178   1.822
34338W        W 2732  28.471  13.127   0.814
34339W        W 2733  39.773  21.605  11.706
34340W        W 2734  36.805   7.941   1.264
34341W        W 2735  13.017   3.252   4.108
34342W        W 2736  37.823  21.799   0.046
34343W        W 2737  44.858  13.132  11.398
34344W        W 2738  36.645  42.880   5.093
34345W        W 2739   6.616  42.056  11.680
34346W        W 2740  30.898  39.038   1.942
34347W        W 2741  18.162  36.501  14.471
34348W        W 2742  27.678  18.970   1.673
34349W        W 2743   0.266  40.925  11.358
34350W        W 2744  27.445  10.211   2.376
34351W        W 2745   2.497  36.618   1.959
34352W        W 2746  41.001  10.812   0.919
34353W        W 2747   4.364  42.351   2.756
34354W        W 2748   8.098  41.081  13.025
34355W        W 2749  16.007   7.691  11.622
34356W        W 2750  19.279  23.985   3.940
34357W        W 2751  37.015  43.900  14.886
34358W        W 2752  20.709  30.918  14.215
34359W        W 2753  20.720   5.790   2.145
34360W        W 2754   3.803  21.984  14.757
34361W        W 2755  16.447  17.054   2.653
34362W        W 2756  36.544  44.987   0.736
34363W        W 2757  19.748  13.687   4.382
34364W        W 2758  28.110  14.268   3.071
34365W        W 2759   7.648  40.846  12.923
34366W        W 2760   9.349   6.308  14.379
34367W        W 2761  26.489  33.682   0.421
34368W        W 2762  14.911  16.039  11.977
34369W        W 2763   9.644  15.078   3.595
34370W        W 2764  12.874  16.336  14.062
34371W        W 2765  40.324  13.775   1.734
34372W        W 2766   0.701   6.893  11.951
34373W        W 2767  17.208   0.260  14.481
34374W        W 2768  29.025  10.078   4.874
34375W        W 2769   1.423  13.364  14.871
34376W        W 2770  25.452  34.359  11.991
34377W        W 2771   9.028  25.259  13.336
34378W        W 2772  20.244  21.231   3.596
34379W        W 2773  35.391  14.611   4.324
34380W        W 2774  35.588  31.379  13.440
34381W        W 2775  16.740  40.985  11.196
34382W        W 2776  23.018  39.250  12.961
34383W        W 2777  21.447  27.674   3.891
34384W        W 2778   9.808  23.542   3.163
34385W        W 2779   0.824   3.760   0.461
34386W        W 2780  15.925  21.809  13.276
34387W        W 2781  25.845  39.797  13.393
34388W        W 2782  37.059  21.249  14.023
34389W        W 2783  23.726  35.468  13.527
34390W        W 2784   5.518  35.583  13.779
34391W        W 2785  24.554  40.362  14.724
34392W        W 2786   9.506  26.451  11.133
34393W        W 2787   4.385   9.998  13.776
34394W        W 2788  25.270  43.845  11.074
34395W        W 2789   8.170  40.033   0.275
34396W        W 2790  16.256  30.540   2.349
34397W        W 2791   1.904   2.544  11.516
34398W        W 2792  15.568  38.265  12.958
34399W        W 2793  25.411   4.844  11.098
34400W        W 2794  22.498  15.478  14.990
34401W        W 2795  38.401   3.213   2.173
34402W        W 2796   1.819  38.365  14.894
34403W        W 2797  21.454  25.716  11.945
34404W        W 2798  28.872  28.194  12.508
34405W        W 2799  21.222  38.929  14.390
34406W        W 2800  42.117  36.846  12.603
34407W        W 2801  32.664  43.334  14.569
34408W        W 2802   8.971  21.567  11.835
34409W        W 2803  24.168  27.891  13.318
34410W        W 2804  37.053  18.560  10.567
34411W        W 2805  19.035  44.025   0.712
34412W        W 2806  21.510  30.922   4.239
34413W        W 2807  12.821  28.541  11.933
34414W        W 2808  23.283   0.523   0.459
34415W        W 2809  41.816   5.235   1.371
34416W        W 2810  34.888  30.141   0.238
34417W        W 2811  25.743  28.546   1.785
34418W        W 2812   4.256  22.176  11.570
34419W        W 2813  38.487  21.808  12.011
34420W        W 2814  30.180  23.653   4.620
34421W        W 2815  12.779  28.534   2.158
34422W        W 2816  12.246  21.736   0.823
34423W        W 2817  43.273   7.664  10.810
34424W        W 2818  31.388  29.866   3.658
34425W        W 2819  40.945  16.888  12.996
34426W        W 2820   1.749  38.396   3.561
34427W        W 2821  16.211   6.227   1.723
34428W        W 2822  39.908  10.914   0.121
34429W        W 2823   3.870  27.244   2.807
34430W        W 2824  40.097  19.346   3.235
34431W        W 2825  18.254  30.403   4.011
34432W        W 2826  36.579  17.142  11.858
34433W        W 2827  24.723   5.880  12.616
34434W        W 2828   0.040  37.430   1.291
34435W        W 2829  19.313  20.264   3.391
34436W        W 2830  30.960  35.386   1.548
34437W        W 2831  19.767  40.110  14.536
34438W        W 2832  27.581  19.798   2.383
34439W        W 2833   2.773  27.126  11.136
34440W        W 2834   7.951   5.244   4.287
34441W        W 2835  10.901  33.030   2.486
34442W        W 2836  10.165  36.810   3.573
34443W        W 2837  29.592   2.717  14.713
34444W        W 2838  43.864  31.949  11.206
34445W        W 2839  35.383  34.340   2.147
34446W        W 2840  10.247  35.401   0.844
34447W        W 2841  14.246  23.335   4.045
34448W        W 2842  27.224  18.033  10.908
34449W        W 2843  42.805  29.689   1.945
34450W        W 2844  41.361  22.657   3.177
34451W        W 2845  27.907  43.348   4.586
34452W        W 2846  33.415  39.466   1.339
34453W        W 2847  37.682  18.343  12.880
34454W        W 2848  18.173   2.736  11.849
34455W        W 2849   1.367  39.113   1.697
34456W        W 2850   8.125  10.307   1.797
34457W        W 2851  22.567  19.836  14.109
34458W        W 2852  17.862  22.249  12.366
34459W        W 2853  18.397  43.047   3.169
34460W        W 2854  17.723  35.384   3.745
34461W        W 2855   2.389  12.741  11.267
34462W        W 2856   4.917  40.897   5.076
34463W        W 2857  38.924  17.344   0.986
34464W        W 2858  38.356  10.780   2.883
34465W        W 2859   1.814  21.973   4.103
34466W        W 2860   9.897  10.390  12.326
34467W        W 2861  16.807   2.283  13.952
34468W        W 2862  16.136  34.319  11.629
34469W        W 2863  21.022  10.064  11.535
34470W        W 2864   3.198  18.944  10.819
34471W        W 2865   1.179  16.550  14.555
34472W        W 2866  12.551  17.243  10.435
34473W        W 2867  24.705   7.805   4.323
34474W        W 2868  35.790  15.273   1.690
34475W        W 2869   1.871  19.521  12.001
34476W        W 2870  16.056  31.173   3.728
34477W        W 2871  10.769  31.633  12.580
34478W        W 2872  30.630  18.596  13.527
34479W        W 2873  32.081  25.788  11.672
34480W        W 2874  28.856  37.376   4.884
34481W        W 2875  44.307  15.339  11.211
34482W        W 2876  28.503  37.795   2.253
34483W        W 2877  29.928  29.894   2.340
34484W        W 2878  21.197   2.433  13.405
34485W        W 2879  13.895  36.058  12.925
34486W        W 2880  37.434  16.700  14.518
34487W        W 2881  19.589  31.651   4.431
34488W        W 2882  32.596  26.085   1.725
34489W        W 2883  12.193  10.528   4.690
34490W        W 2884  39.242  43.949   3.689
34491W        W 2885  19.207  35.826  12.812
34492W        W 2886   9.129   9.630  14.801
34493W        W 2887  25.039  32.180   3.606
34494W        W 2888   1.640  40.948   1.442
34495W        W 2889  38.655  31.123  14.750
34496W        W 2890  12.413   1.940  12.367
34497W        W 2891   6.910  43.850  11.631
34498W        W 2892   3.433  13.947   3.638
34499W        W 2893   1.040  28.547  14.490
34500W        W 2894  23.696  25.197  14.801
34501W        W 2895  28.401  12.982   2.697
34502W        W 2896  18.101  16.777  10.306
34503W        W 2897   2.301   1.915  14.516
34504W        W 2898  42.468  13.571  13.861
34505W        W 2899   8.041  21.211   3.854
34506W        W 2900  44.526  33.297  13.981
34507W        W 2901   7.427   4.598  13.338
34508W        W 2902  26.863  21.015   0.749
34509W        W 2903  17.187  23.755  10.636
34510W        W 2904  42.742  16.236   1.949
34511W        W 2905  16.339   0.490   0.940
34512W        W 2906  34.062  42.907  12.605
34513W        W 2907   5.698  20.839  11.593
34514W        W 2908  37.492  36.060   0.742
34515W        W 2909   3.192   7.144   1.422
34516W        W 2910   1.287  43.026  10.798
34517W        W 2911   5.928  44.750  11.129
34518W        W 2912  35.340  22.298   0.561
34519W        W 2913  25.362  21.008   4.505
34520W        W 2914  27.663   6.015   3.946
34521W        W 2915  19.583  17.231  13.337
34522W        W 2916  27.931  34.094   0.917
34523W        W 2917   4.956  40.202   4.039
34524W        W 2918  13.743   7.976  13.284
34525W        W 2919  24.402  17.679   1.585
34526W        W 2920  44.334   1.856  12.941
34527W        W 2921  11.856  44.936   2.138
34528W        W 2922  42.598  34.368  13.247
34529W        W 2923   0.313   4.364   0.883
34530W        W 2924   2.413  14.139  13.111
34531W        W 2925  40.359  11.825  10.809
34532W        W 2926  16.538  23.034   3.989
34533W        W 2927  30.621   7.134  14.087
34534W        W 2928  32.928  29.471  11.847
34535W        W 2929  38.835  39.242  10.682
34536W        W 2930  37.732  32.034  11.070
34537W        W 2931  20.036   9.470  11.056
34538W        W 2932  32.146   6.431   2.787
34539W        W 2933   5.871  34.831   1.704
34540W        W 2934  19.702  10.582  14.583
34541W        W 2935  18.054   3.181   1.926
34542W        W 2936   7.167  21.936   3.233
34543W        W 2937  19.688  14.997   3.189
34544W        W 2938   7.430   5.880  11.552
34545W        W 2939  12.773  40.739   0.956
34546W        W 2940  43.753  26.376   3.732
34547W        W 2941  42.561  30.477   3.784
34548W        W 2942   7.778  27.670  13.882
34549W        W 2943  40.013  11.112  11.547
34550W        W 2944  10.711  21.597   0.563
34551W        W 2945  37.587  15.274   1.387
34552W        W 2946  10.474  29.409   2.288
34553W        W 2947  22.228   2.496   3.113
34554W        W 2948  17.081  43.893  10.777
34555W        W 2949   8.815  44.289   1.673
34556W        W 2950  17.429  44.309  11.684
34557W        W 2951   8.337  18.460  14.839
34558W        W 2952  44.203  13.347   4.723
34559W        W 2953   8.679  16.780  12.355
34560W        W 2954  40.464  16.641  10.649
34561W        W 2955   0.937   6.385  11.250
34562W        W 2956  41.253   4.211   0.971
34563W        W 2957  27.883  19.014  13.932
34564W        W 2958  37.543  23.135   4.528
34565W        W 2959  12.377  43.748  10.931
34566W        W 2960  27.731  29.099   3.416
34567W        W 2961  35.715  29.785   0.335
34568W        W 2962  41.749   0.538  10.774
34569W        W 2963  36.043  10.811  13.590
34570W        W 2964  43.000  22.967   2.303
34571W        W 2965  17.617  30.633   1.904
34572W        W 2966  35.448   4.211  14.528
34573W        W 2967   5.414  21.008  14.298
34574W        W 2968  12.618  17.526  11.116
34575W        W 2969  22.052  21.496  12.282
34576W        W 2970  29.618  21.199   3.709
34577W        W 2971  36.206  16.042  11.683
34578W        W 2972   3.551  40.922   0.867
34579W        W 2973   3.315  15.338   2.269
34580W        W 2974  23.744   4.466  14.720
34581W        W 2975  17.431  26.571  10.600
34582W        W 2976  41.862  19.729   2.391
34583W        W 2977   8.671  24.215   3.124
34584W        W 2978  43.382  41.342   1.702
34585W        W 2979   4.843  43.970   1.309
34586W        W 2980  40.454  23.406  14.571
34587W        W 2981   4.552  41.726   2.400
34588W        W 2982  42.621   2.144  12.395
34589W        W 2983  14.743  23.426   4.165
34590W        W 2984  21.034  31.505  11.401
34591W        W 2985   8.112  23.237   0.941
34592W        W 2986   5.306  17.752   4.942
34593W        W 2987  44.320  35.032   0.555
34594W        W 2988  38.983   8.445  10.736
34595W        W 2989   7.250   8.427  13.978
34596W        W 2990  32.601  15.116  12.034
34597W        W 2991   7.268  12.652  11.901
34598W        W 2992   5.313   7.575   3.743
34599W        W 2993  30.594  14.482   3.147
34600W        W 2994  30.189   7.834   2.760
34601W        W 2995  20.799  23.360   1.178
34602W        W 2996  21.247  19.573  10.670
34603W        W 2997  17.079  11.167  12.190
34604W        W 2998  22.058  15.630   3.114
34605W        W 2999  43.367  35.625  13.790
34606W        W 3000  42.761  11.808   4.118
34607W        W 3001  29.575  32.461  14.768
34608W        W 3002  22.998  18.827  11.088
34609W        W 3003  40.425  40.107  10.614
34610W        W 3004  25.044  25.646  14.265
34611W        W 3005   8.921  30.065  14.998
34612W        W 3006  42.544  24.758  13.174
34613W        W 3007  43.505  22.927   2.895
34614W        W 3008   7.375   7.862  11.690
34615W        W 3009  43.620  39.514   4.572
34616W        W 3010  37.785  14.612  13.585
34617W        W 3011  38.143  40.259  14.911
34618W        W 3012  10.723  16.293  12.097
34619W        W 3013  42.921  15.241   2.297
34620W        W 3014   9.304  42.536  12.085
34621W        W 3015  30.155  14.842  12.930
34622W        W 3016  24.057   5.287   2.623
34623W        W 3017  13.384  11.278   4.230
34624W        W 3018  23.149  24.097  13.418
34625W        W 3019  44.389  11.081  14.903
34626W        W 3020  17.829   4.674  11.513
34627W        W 3021  42.114  32.273  14.380
34628W        W 3022   0.936  40.151   2.299
34629W        W 3023  41.487  32.998  14.059
34630W        W 3024  44.589  43.780   2.409
34631W        W 3025  35.458  37.965   4.007
34632W        W 3026  32.852  26.636  10.964
34633W        W 3027   9.227  16.744   2.177
34634W        W 3028  30.543  25.168   2.124
34635W        W 3029   0.925  27.637   3.323
34636W        W 3030  34.065  40.357   1.387
34637W        W 3031  38.854  28.188   0.777
34638W        W 3032  38.815  14.841  13.286
34639W        W 3033  43.812  21.084   3.867
34640W        W 3034   0.478  18.321   3.803
34641W        W 3035  44.609  40.418  14.912
34642W        W 3036  42.460  38.352   0.061
34643W        W 3037  25.885   4.413  13.117
34644W        W 3038  21.741  32.401  10.576
34645W        W 3039  26.237   0.889  12.784
34646W        W 3040  44.303  20.000   0.446
34647W        W 3041   9.831  13.126  13.334
34648W        W 3042  36.916  24.827   0.717
34649W        W 3043  14.230  10.270   3.257
34650W        W 3044  44.792  40.744   3.201
34651W        W 3045  11.279   0.074  14.140
34652W        W 3046  12.268  18.394  13.541
34653W        W 3047  38.339   4.694   3.831
34654W        W 3048  20.798  26.984   1.034
34655W        W 3049  20.195   6.444  14.441
34656W        W 3050  12.816  11.118  14.366
34657W        W 3051  15.255   8.655  11.648
34658W        W 3052   0.255   3.735   4.174
34659W        W 3053  14.805   6.287  11.862
34660W        W 3054  38.369  26.887  11.867
34661W        W 3055  12.097  20.849  12.390
34662W        W 3056   2.287   4.470  14.800
34663W        W 3057   6.408  15.390   4.554
34664W        W 3058  21.222  34.852  14.898
34665W        W 3059  19.486  32.647   2.947
34666W        W 3060   7.482   8.728  12.568
34667W        W 3061  24.010  35.139  10.583
34668W        W 3062  16.066  29.526  14.019
34669W        W 3063  10.882  44.249   0.348
34670W        W 3064  42.029  40.506   3.684
34671W        W 3065  40.322  23.817   4.939
34672W        W 3066  34.579  14.344   1.931
34673W        W 3067   6.736  26.102  12.494
34674W        W 3068   2.909  18.758   2.320
34675W        W 3069  19.309   2.853   1.846
34676W        W 3070  20.634  27.021  12.176
34677W        W 3071  29.350  34.109   4.308
34678W        W 3072  22.070  24.091  11.022
34679W        W 3073  38.591   6.856   0.760
34680W        W 3074  36.759  18.426   4.187
34681W        W 3075  21.578  40.853  10.767
34682W        W 3076   0.348  23.021   2.660
34683W        W 3077  37.577  33.564   4.658
34684W        W 3078   6.681  37.731  12.960
34685W        W 3079  11.858  44.015  14.540
34686W        W 3080  20.055  20.807   2.376
34687W        W 3081  44.577  38.414  14.434
34688W        W 3082  37.035   0.245  14.337
34689W        W 3083  21.415  17.499   3.260
34690W        W 3084  19.630  26.140  12.044
34691W        W 3085  10.981  25.937   3.654
34692W        W 3086  35.964  44.815  10.424
34693W        W 3087  20.866   8.191   1.410
34694W        W 3088  23.364  39.396  13.901
34695W        W 3089   0.191   6.005  11.945
34696W        W 3090  10.618   9.812  11.600
34697W        W 3091  14.923  16.770  12.668
34698W        W 3092  10.265  43.927  11.209
34699W        W 3093  38.287  24.428   4.181
34700W        W 3094   5.397  41.987   1.721
34701W        W 3095  15.732  17.192  10.935
34702W        W 3096  35.601   4.865   2.710
34703W        W 3097  26.755  12.556  10.234
34704W        W 3098  17.136  26.338  10.947
34705W        W 3099   8.754  30.467   0.919
34706W        W 3100   8.696  36.635   2.445
34707W        W 3101  44.556  42.889   3.657
34708W        W 3102   3.806   4.343   4.269
34709W        W 3103  44.426  43.902  10.113
34710W        W 3104  28.136  26.182  12.608
34711W        W 3105  10.641  13.686   3.884
34712W        W 3106  27.250  19.086   0.427
34713W        W 3107   0.521   8.321   4.627
34714W        W 3108  12.855  43.340  10.792
34715W        W 3109   8.189  44.923   0.475
34716W        W 3110  26.688  22.361  12.120
34717W        W 3111   8.674  28.668  12.463
34718W        W 3112  18.566  35.785   4.130
34719W        W 3113  16.764  38.365   2.416
34720W        W 3114  27.676   2.646   4.197
34721W        W 3115  20.980   0.690   3.708
34722W        W 3116  20.038  13.617  13.655
34723W        W 3117  38.972   3.171  10.676
34724W        W 3118   8.432  21.004   3.181
34725W        W 3119  38.633  12.948   1.777
34726W        W 3120  28.377  14.497  14.756
34727W        W 3121   1.948  12.795   4.092
34728W        W 3122  24.528  11.305   1.242
34729W        W 3123  15.950  31.031   0.972
34730W        W 3124  29.169  25.303  10.659
34731W        W 3125  21.369  12.802  13.016
34732W        W 3126  17.663  39.619   2.166
34733W        W 3127  35.523  31.516   0.700
34734W        W 3128   9.885  38.111  11.564
34735W        W 3129  25.375   9.691  10.709
34736W        W 3130  33.339  17.120  14.048
34737W        W 3131   6.285  20.723  14.602
34738W        W 3132  28.806  42.433   2.650
34739W        W 3133   8.230  14.096   4.428
34740W        W 3134  29.130  19.981  13.882
34741W        W 3135  17.794   1.985   0.385
34742W        W 3136   3.850   0.411   0.888
34743W        W 3137  27.444  27.026   3.599
34744W        W 3138  37.391  36.458  14.924
34745W        W 3139  17.346   0.659   4.069
34746W        W 3140  17.716  37.292   2.737
34747W        W 3141  26.252  30.494  13.766
34748W        W 3142  22.926  11.897   3.547
34749W        W 3143  21.973  20.930   2.168
34750W        W 3144  22.037  12.052  11.969
34751W        W 3145   9.662  37.643   0.361
34752W        W 3146  34.627  34.138   4.175
34753W        W 3147  18.844  33.605  14.370
34754W        W 3148  43.522  42.063   2.179
34755W        W 3149  25.160  38.453  13.372
34756W        W 3150  30.444  36.531   2.420
34757W        W 3151  44.238  13.236  12.906
34758W        W 3152  35.402  22.265   2.138
34759W        W 3153  25.050   3.790   3.630
34760W        W 3154   0.387  16.862   3.672
34761W        W 3155  15.903  16.543   3.419
34762W        W 3156   8.651  14.403  13.130
34763W        W 3157  21.017  11.254  13.599
34764W        W 3158  32.020  41.729  10.699
34765W        W 3159  21.581  14.422   0.014
34766W        W 3160   0.305  11.419  13.844
34767W        W 3161  41.248   2.486  10.727
34768W        W 3162  14.287  21.621  11.176
34769W        W 3163  16.163  14.668  10.387
34770W        W 3164  29.272  36.479   4.319
34771W        W 3165  13.238  38.375  10.610
34772W        W 3166  37.372  12.730   2.860
34773W        W 3167  17.751  35.489   1.412
34774W        W 3168  42.074  30.344   1.477
34775W        W 3169  31.463  37.591   2.472
34776W        W 3170  11.200  39.813  10.320
34777W        W 3171   8.220  12.415  12.744
34778W        W 3172  41.806  36.431  12.508
34779W        W 3173   7.995  37.100  12.818
34780W        W 3174   3.814   3.409   4.330
34781W        W 3175   4.611   8.263   2.294
34782W        W 3176  21.100  29.773  13.472
34783W        W 3177  18.778  25.540   2.781
34784W        W 3178  21.689  22.208  14.659
34785W        W 3179   2.002   9.825  14.757
34786W        W 3180  11.030  44.636  13.983
34787W        W 3181   6.318  13.526   1.276
34788W        W 3182  15.048  33.862  12.906
34789W        W 3183  21.575  34.928   4.670
34790W        W 3184  15.058  18.243   3.705
34791W        W 3185   0.959  11.829  11.678
34792W        W 3186   9.101  10.481   3.990
34793W        W 3187  10.692   2.824  14.993
34794W        W 3188  37.333  34.862  12.011
34795W        W 3189  24.546  35.552   1.741
34796W        W 3190  43.312  40.114   0.659
34797W        W 3191  25.330  19.634  10.776
34798W        W 3192  15.273  17.326   9.929
34799W        W 3193  34.778   2.840   1.765
34800W        W 3194   2.510  19.505   1.945
34801W        W 3195   0.831  19.714   0.355
34802W        W 3196  16.124  27.340  14.314
34803W        W 3197  24.081  25.483  13.111
34804W        W 3198   0.711  26.178  13.354
34805W        W 3199  33.593  44.033  13.111
34806W        W 3200  33.402  34.842   0.922
34807W        W 3201  42.228  27.565  12.601
34808W        W 3202  27.668   6.216   0.333
34809W        W 3203  16.558  20.744  13.725
34810W        W 3204  34.612  18.056   2.685
34811W        W 3205  38.584  10.430  11.862
34812W        W 3206  36.863  30.559   2.888
34813W        W 3207  21.271   4.918  10.384
34814W        W 3208  32.995  24.026   4.117
34815W        W 3209  44.488  27.545  13.472
34816W        W 3210  21.619  24.542   0.428
34817W        W 3211  15.814  31.545   2.951
34818W        W 3212  30.035   1.839  11.095
34819W        W 3213   6.497  32.867  10.901
34820W        W 3214  34.095  14.166   1.771
34821W        W 3215  12.188  33.589  10.767
34822W        W 3216  39.778  21.491   4.801
34823W        W 3217   2.829  26.126  14.323
34824W        W 3218  23.936  14.592   0.854
34825W        W 3219   5.308  42.430  13.420
34826W        W 3220  39.849  40.933   0.184
34827W        W 3221  31.971  40.020  13.491
34828W        W 3222  10.152   2.879   0.848
34829W        W 3223  38.030  18.088   2.854
34830W        W 3224  31.475  18.990  13.115
34831W        W 3225  33.143  11.748  13.914
34832W        W 3226  13.940   1.849   4.599
34833W        W 3227  22.901   6.756  11.663
34834W        W 3228  24.667   6.374   2.322
34835W        W 3229  28.199  23.703   3.218
34836W        W 3230  23.229  15.218   4.127
34837W        W 3231  37.059   1.558   4.041
34838W        W 3232  26.632  31.811   0.677
34839W        W 3233  14.601   5.583  13.242
34840W        W 3234   0.439   0.415  11.670
34841W        W 3235  37.572  43.468   4.275
34842W        W 3236   8.782   8.130   0.352
34843W        W 3237   6.245  35.511  10.736
34844W        W 3238  30.204  25.493   2.834
34845W        W 3239  11.323  16.324  10.651
34846W        W 3240  37.557   5.974   1.388
34847W        W 3241   9.194   4.157  12.719
34848W        W 3242  42.501  12.463  14.622
34849W        W 3243  21.273  28.951  10.701
34850W        W 3244  24.225   4.864  13.856
34851W        W 3245  18.657  32.101  14.005
34852W        W 3246  28.486  36.009  14.289
34853W        W 3247   9.419  36.955  12.886
34854W        W 3248  21.570   9.019   0.674
34855W        W 3249  40.799  36.020   5.189
34856W        W 3250  27.889  27.982   3.588
34857W        W 3251  10.729  36.843  10.239
34858W        W 3252  40.948   7.737   2.568
34859W        W 3253  35.801  26.547   4.127
34860W        W 3254  35.777  19.745  11.649
34861W        W 3255  42.294  32.367  14.874
34862W        W 3256  17.790   3.377  13.734
34863W        W 3257  10.866  38.353   1.669
34864W        W 3258  38.780  37.502   3.265
34865W        W 3259  11.069  25.463  13.110
34866W        W 3260  26.645  11.564   2.923
34867W        W 3261  33.410  20.139  13.619
34868W        W 3262  42.418  32.386   4.634
34869W        W 3263  27.536   8.373  12.910
34870W        W 3264   1.473   1.993  14.338
34871W        W 3265  31.483  19.807  12.625
34872W        W 3266  27.075  28.564  11.601
34873W        W 3267   5.253  22.525  10.770
34874W        W 3268  40.479  26.049  13.909
34875W        W 3269  29.050  44.900  10.254
34876W        W 3270  35.198  29.708   0.295
34877W        W 3271  12.141  43.966  14.027
34878W        W 3272  42.376  28.858   1.828
34879W        W 3273  29.337  21.655   2.147
34880W        W 3274  26.165  36.973   1.260
34881W        W 3275  13.397  44.393   1.672
34882W        W 3276  35.094   8.006  14.086
34883W        W 3277  29.443   8.799   1.961
34884W        W 3278  34.063  31.615   0.678
34885W        W 3279  34.143  36.474   4.154
34886W        W 3280  27.159  27.902  13.062
34887W        W 3281  26.427  25.144   3.918
34888W        W 3282  16.061  16.776  14.509
34889W        W 3283  23.192  13.876   3.215
34890W        W 3284  42.299  36.942   0.050
34891W        W 3285  12.297  35.546   2.722
34892W        W 3286  17.477   2.503  11.793
34893W        W 3287  25.257   6.541  11.384
34894W        W 3288  32.616   4.713  12.461
34895W        W 3289   4.171  38.991  11.605
34896W        W 3290  24.000   4.440  10.642
34897W        W 3291  31.910  40.472   3.707
34898W        W 3292  27.879   8.247   1.798
34899W        W 3293   2.798  22.683  12.691
34900W        W 3294  16.123  12.308   4.382
34901W        W 3295  30.709  16.141   1.483
34902W        W 3296  10.183  14.843  13.957
34903W        W 3297  20.368  15.817   9.770
34904W        W 3298  40.702  21.131   0.216
34905W        W 3299  36.059  10.365   4.137
34906W        W 3300  38.021  28.666   4.640
34907W        W 3301  24.809  41.779  13.138
34908W        W 3302   8.650   0.906   2.646
34909W        W 3303  44.229  31.939   0.102
34910W        W 3304  22.201  12.795  13.551
34911W        W 3305  41.885  16.970  11.103
34912W        W 3306  32.444   6.956  11.560
34913W        W 3307  13.281  15.738  12.165
34914W        W 3308   3.252  34.646  13.426
34915W        W 3309  23.601  31.358   4.607
34916W        W 3310  24.389  25.645   3.232
34917W        W 3311   1.001  36.512  13.438
34918W        W 3312  39.717  39.073   1.364
34919W        W 3313  22.388  43.137  14.618
34920W        W 3314  35.903  29.618  11.693
34921W        W 3315  26.594  42.697   5.027
34922W        W 3316  25.428  13.199  14.839
34923W        W 3317  19.012  26.594   1.008
34924W        W 3318  10.401  42.262   4.076
34925W        W 3319  39.214   7.838  14.574
34926W        W 3320  33.996  36.082  14.990
34927W        W 3321  12.276  36.830   0.476
34928W        W 3322  18.526   7.867  11.806
34929W        W 3323  11.873  34.445  13.304
34930W        W 3324   4.223   3.480  11.204
34931W        W 3325  21.268  29.626  14.853
34932W        W 3326  13.357  33.073   1.175
34933W        W 3327  13.758  39.924   3.351
34934W        W 3328  40.559  14.870  13.897
34935W        W 3329  41.284  40.021   2.443
34936W        W 3330  22.985  16.206   1.328
34937W        W 3331  40.950  18.330   3.805
34938W        W 3332  35.473  42.215  14.608
34939W        W 3333  42.535   2.439  14.979
34940W        W 3334  29.645  35.538   2.846
34941W        W 3335  19.733  30.482  13.070
34942W        W 3336  16.207   4.520  14.935
34943W        W 3337  27.986  20.981   3.417
34944W        W 3338  26.689   5.221  11.537
34945W        W 3339  23.373  43.862   0.472
34946W        W 3340  32.256  19.654  10.662
34947W        W 3341  41.932  44.158   0.950
34948W        W 3342  43.484   2.416  11.136
34949W        W 3343  26.042   1.765   1.789
34950W        W 3344  35.488  42.924   1.408
34951W        W 3345  10.431  12.257   4.067
34952W        W 3346  43.519   9.264   0.426
34953W        W 3347  31.449  41.652  11.912
34954W        W 3348  10.425  13.791   4.583
34955W        W 3349  11.747  20.955   1.888
34956W        W 3350  10.799  29.017  13.885
34957W        W 3351  27.429  23.151  12.454
34958W        W 3352  17.557  24.362   3.977
34959W        W 3353  15.821  36.423  13.945
34960W        W 3354  31.622  19.601   2.228
34961W        W 3355  29.210  32.149  12.065
34962W        W 3356  23.142  40.891   1.573
34963W        W 3357  13.951  28.262   1.260
34964W        W 3358  19.032  38.379  10.880
34965W        W 3359  15.080  41.378   1.728
34966W        W 3360  34.166  40.353  13.043
34967W        W 3361   8.055  28.635  11.694
34968W        W 3362  34.827  29.217  12.494
34969W        W 3363  44.853  18.173   4.438
34970W        W 3364  20.040  18.155   2.825
34971W        W 3365  14.602  39.013   1.800
34972W        W 3366  28.107  30.341  11.938
34973W        W 3367  44.334  27.131   3.667
34974W        W 3368  27.146  11.409  14.423
34975W        W 3369  42.646  29.567   1.467
34976W        W 3370  13.133  14.217   4.187
34977W        W 3371   6.572  15.672  13.580
34978W        W 3372  34.456  31.231  12.116
34979W        W 3373  33.437  35.065   1.906
34980W        W 3374  25.222  40.887   0.785
34981W        W 3375  19.621  39.924  13.536
34982W        W 3376   6.807  13.786  12.576
34983W        W 3377  12.184   0.718   3.331
34984W        W 3378  28.194  43.749   1.833
34985W        W 3379  20.006  39.476   3.884
34986W        W 3380  35.828  27.007   4.360
34987W        W 3381  34.865  22.591  11.901
34988W        W 3382  16.723   7.281   2.275
34989W        W 3383  21.908  11.399   3.270
34990W        W 3384   7.104  36.926   1.328
34991W        W 3385  15.535  35.105  14.922
34992W        W 3386  33.703  27.208  12.483
34993W        W 3387  27.283  24.803  13.206
34994W        W 3388  11.577  37.484   0.742
34995W        W 3389  12.367   3.283  11.211
34996W        W 3390   2.870  11.912  13.462
34997W        W 3391  34.880  20.389  12.542
34998W        W 3392  36.765  20.437   2.883
34999W        W 3393  40.911  38.687   3.321
35000W        W 3394  15.839  43.961  13.884
35001W        W 3395  34.964   5.513  12.605
35002W        W 3396  34.848  34.017  11.384
35003W        W 3397   5.764  24.975   3.651
35004W        W 3398  19.805  30.706   0.306
35005W        W 3399  43.767  22.251   4.019
35006W        W 3400  42.595  11.367   3.689
35007W        W 3401  42.936   5.837  11.443
35008W        W 3402  35.774  14.303   2.763
35009W        W 3403   8.507  42.454   2.634
35010W        W 3404  32.181  21.519   1.547
35011W        W 3405   0.749  13.120  11.477
35012W        W 3406  36.358  29.601   0.837
35013W        W 3407  19.672  37.141  14.900
35014W        W 3408  43.393  19.511  12.172
35015W        W 3409  36.997  41.037   1.968
35016W        W 3410   1.353  28.435  13.329
35017W        W 3411  33.736  37.854   4.241
35018W        W 3412  34.226  40.632   0.595
35019W        W 3413  42.022  25.070  14.807
35020W        W 3414   7.924  21.941   1.274
35021W        W 3415  29.534  18.536   2.728
35022W        W 3416  26.903  23.659   3.637
35023W        W 3417  19.585  42.393  11.493
35024W        W 3418   1.733   6.738  14.450
35025W        W 3419  10.545   9.859   4.386
35026W        W 3420  20.190  20.194   0.259
35027W        W 3421   8.389  20.575  12.107
35028W        W 3422  16.039  40.469  12.158
35029W        W 3423  24.172  40.249  12.494
35030W        W 3424  31.051   5.636   2.442
35031W        W 3425  44.124  24.468   3.595
35032W        W 3426   7.696  19.790  14.846
35033W        W 3427  22.663  16.670  12.026
35034W        W 3428   7.329  30.880   1.497
35035W        W 3429   3.762  22.484   2.699
35036W        W 3430  37.052  26.873   0.029
35037W        W 3431  37.058   8.078   2.890
35038W        W 3432  33.585   4.661  14.821
35039W        W 3433  31.659   9.312   1.476
35040W        W 3434  43.248  36.099   1.726
35041W        W 3435  10.766  33.405   3.444
35042W        W 3436  32.616   8.795   4.620
35043W        W 3437   1.291   5.957  13.409
35044W        W 3438  19.971   0.760   1.909
35045W        W 3439  19.163   1.515   2.769
35046W        W 3440  30.140  15.798   4.878
35047W        W 3441  38.416  21.584   4.421
35048W        W 3442  32.162  41.032  12.098
35049W        W 3443  37.788  10.818  11.930
35050W        W 3444  12.282   6.717   0.272
35051W        W 3445  20.032  38.590  12.348
35052W        W 3446  14.623  11.800  10.357
35053W        W 3447  34.861   8.271   3.197
35054W        W 3448   4.208  33.408   4.069
35055W        W 3449  40.208  38.368   5.021
35056W        W 3450  15.489   8.723   2.271
35057W        W 3451  31.096  42.130   0.585
35058W        W 3452  26.129  10.022  10.831
35059W        W 3453  39.023  14.718   1.234
35060W        W 3454  28.921  42.905  13.275
35061W        W 3455  30.321   4.056   4.172
35062W        W 3456  28.576  42.694   0.794
35063W        W 3457   7.828  14.922   1.338
35064W        W 3458  24.424   9.358   2.447
35065W        W 3459  18.125   2.458  13.495
35066W        W 3460  14.752   0.148   0.347
35067W        W 3461  30.051  29.890   1.180
35068W        W 3462  14.173  36.853   1.431
35069W        W 3463   0.820  30.597  12.139
35070W        W 3464   4.362   6.751   2.374
35071W        W 3465  28.850  21.748   0.518
35072W        W 3466  19.144  12.376   3.676
35073W        W 3467  23.746   9.200   3.981
35074W        W 3468  29.582  14.067  11.590
35075W        W 3469  15.177  26.451   0.293
35076W        W 3470  13.801  24.123   3.036
35077W        W 3471   6.891   8.150  14.310
35078W        W 3472   9.231  26.480   2.644
35079W        W 3473  30.382   6.677  10.622
35080W        W 3474  36.561   4.747   2.617
35081W        W 3475  31.663  26.475   4.599
35082W        W 3476  14.057   8.089   2.947
35083W        W 3477  11.163  29.237  14.428
35084W        W 3478  26.268  10.352   5.047
35085W        W 3479  22.264  17.140   2.687
35086W        W 3480  24.942  20.293  11.643
35087W        W 3481   7.126  40.046  10.700
35088W        W 3482  39.632   7.631  13.166
35089W        W 3483  20.396  15.656  13.372
35090W        W 3484  11.381  44.525  13.058
35091W        W 3485  43.775  22.769   2.464
35092W        W 3486   1.817   5.795   2.333
35093W        W 3487   4.954  12.329  12.046
35094W        W 3488  42.029   8.396   0.337
35095W        W 3489  36.498  34.234  10.093
35096W        W 3490  31.191  14.271   0.010
35097W        W 3491   1.529  40.424  14.292
35098W        W 3492  44.929  41.516  12.137
35099W        W 3493  41.432  28.885   0.267
35100W        W 3494  11.068   9.302  12.425
35101W        W 3495  20.700  17.915   1.843
35102W        W 3496  35.098   3.317   0.370
35103W        W 3497   2.879  19.558   2.753
35104W        W 3498  15.663  16.020   2.215
35105W        W 3499  39.557  25.914  12.916
35106W        W 3500  17.848   1.345   3.615
35107W        W 3501   1.953   0.922   0.018
35108W        W 3502  35.029   5.869  14.521
35109W        W 3503   8.857  20.489   0.250
35110W        W 3504  13.848  32.311  11.974
35111W        W 3505  25.602  13.705   4.876
35112W        W 3506  12.381  40.352   2.870
35113W        W 3507  31.081  14.129  12.029
35114W        W 3508  13.855  26.000   0.429
35115W        W 3509  20.629  14.043  11.376
35116W        W 3510   2.477  31.848   2.714
35117W        W 3511  10.075  44.136   0.056
35118W        W 3512  18.530   1.169  12.348
35119W        W 3513   1.498  18.178   3.766
35120W        W 3514  28.068  17.124  12.837
35121W        W 3515  42.844  31.434  14.314
35122W        W 3516  15.829  19.313   1.785
35123W        W 3517  16.811  34.883  12.407
35124W        W 3518   9.144  29.239   4.157
35125W        W 3519  16.756  26.596   1.455
35126W        W 3520  20.336  15.728   1.530
35127W        W 3521  24.822   6.965  13.947
35128W        W 3522  33.680  27.750  13.316
35129W        W 3523  44.768  10.317   2.334
35130W        W 3524  20.796  26.083   2.544
35131W        W 3525   9.635  22.008  10.622
35132W        W 3526   1.440   6.243  11.894
35133W        W 3527  37.511  24.331   1.871
35134W        W 3528  39.387  44.749   2.965
35135W        W 3529  36.947  27.396  14.957
35136W        W 3530  43.225  33.880   1.173
35137W        W 3531  28.633  12.663   2.221
35138W        W 3532   8.874   5.196  13.158
35139W        W 3533   8.455  38.354  11.605
35140W        W 3534  35.983   5.589  14.217
35141W        W 3535  23.773  34.820   2.288
35142W        W 3536  39.334  11.332  12.500
35143W        W 3537  12.790  35.484   4.324
35144W        W 3538   9.907  18.640   4.221
35145W        W 3539  22.029  33.194  11.185
35146W        W 3540   4.960   3.196  14.273
35147W        W 3541   0.094  40.730  12.456
35148W        W 3542  32.464  42.767   3.822
35149W        W 3543   5.360  23.316  12.005
35150W        W 3544  41.366   4.203  10.993
35151W        W 3545  41.176  21.987  11.456
35152W        W 3546  39.821  22.982  10.614
35153W        W 3547  27.014  15.703   0.861
35154W        W 3548   3.760  14.920  13.440
35155W        W 3549  42.537   2.976   1.939
35156W        W 3550  27.013  25.469  14.401
35157W        W 3551   1.003  37.104  14.399
35158W        W 3552  16.666  18.044  13.623
35159W        W 3553  22.535  18.101   2.468
35160W        W 3554   5.878  35.551   0.750
35161W        W 3555  16.476  38.900   1.230
35162W        W 3556  16.729  39.753  13.781
35163W        W 3557  13.265  14.032   3.729
35164W        W 3558  10.392  30.011  13.915
35165W        W 3559  33.931  43.671  14.553
35166W        W 3560  34.954  17.281  10.309
35167W        W 3561  35.360   1.993   1.777
35168W        W 3562   1.762  38.213   4.439
35169W        W 3563  40.755   3.719  11.458
35170W        W 3564   2.718  19.068  14.024
35171W        W 3565  23.905   2.193   1.755
35172W        W 3566  37.179  36.939  14.989
35173W        W 3567  37.651   9.982   0.026
35174W        W 3568   8.126  39.844  10.678
35175W        W 3569  43.493  21.685   3.201
35176W        W 3570   7.422   0.080   3.112
35177W        W 3571   6.378  12.414   0.107
35178W        W 3572  18.539  23.698  13.872
35179W        W 3573  34.830   7.971   1.328
35180W        W 3574   9.902  26.466   1.901
35181W        W 3575   9.794  31.343  13.589
35182W        W 3576  22.373  34.631   3.430
35183W        W 3577   1.650  43.825   3.173
35184W        W 3578  35.612  39.771  11.494
35185W        W 3579   3.715  14.335  11.243
35186W        W 3580   0.181  17.195  12.998
35187W        W 3581  19.554  30.448  13.981
35188W        W 3582  28.665  40.979   1.637
35189W        W 3583  40.278  29.791  11.068
35190W        W 3584  28.484  28.953   2.385
35191W        W 3585  31.392  39.249   2.045
35192W        W 3586  27.075   7.326  14.407
35193W        W 3587  41.317  36.288  13.802
35194W        W 3588   2.996  44.375   4.575
35195W        W 3589  42.872  24.451   2.212
35196W        W 3590  10.651  41.690   0.691
35197W        W 3591  40.374   1.525   0.495
35198W        W 3592  41.417  18.238   1.787
35199W        W 3593  31.555  44.837   2.175
35200W        W 3594  29.923  12.859   0.522
35201W        W 3595  29.732  31.582  10.245
35202W        W 3596   9.196  24.183  11.448
35203W        W 3597   7.237  42.813   0.039
35204W        W 3598  30.887  35.807   4.428
35205W        W 3599  11.027  38.558   2.701
35206W        W 3600  33.988  41.765   0.874
35207W        W 3601  31.813  42.858   4.629
35208W        W 3602  17.396  33.561   2.118
35209W        W 3603  25.618   5.735  14.790
35210W        W 3604  32.021   2.425   3.146
35211W        W 3605  11.004   0.824  11.552
35212W        W 3606  29.178   3.710  13.950
35213W        W 3607  10.496   5.445  11.967
35214W        W 3608  41.312  41.017  13.812
35215W        W 3609  27.280   9.117   1.864
35216W        W 3610  33.549  26.031   0.930
35217W        W 3611  26.089  43.289  11.058
35218W        W 3612  36.842  11.212   0.515
35219W        W 3613  15.701  17.196  11.882
35220W        W 3614  40.579  26.257   3.767
35221W        W 3615   6.362  39.941  13.058
35222W        W 3616   3.402  12.215  14.389
35223W        W 3617  13.233  18.870   2.763
35224W        W 3618   7.231  12.389  13.787
35225W        W 3619  10.786  42.166  11.235
35226W        W 3620  24.922  35.131  14.517
35227W        W 3621  41.641  28.952   3.092
35228W        W 3622  42.968  13.653  11.140
35229W        W 3623  26.061   5.416  11.626
35230W        W 3624  34.627  22.918  11.119
35231W        W 3625  40.832  22.206   4.396
35232W        W 3626  32.431  36.542   4.598
35233W        W 3627  15.508   2.351  12.543
35234W        W 3628  22.348  21.804   1.005
35235W        W 3629  28.612   7.964  14.123
35236W        W 3630   0.549   5.900  13.981
35237W        W 3631  20.279  16.286  12.377
35238W        W 3632  24.782  21.756  11.620
35239W        W 3633  31.599  14.635  14.850
35240W        W 3634   5.808  15.950  14.860
35241W        W 3635  33.611  34.978   0.461
35242W        W 3636  18.511  27.068   0.473
35243W        W 3637   4.765  41.353   1.266
35244W        W 3638  26.170  35.037  10.610
35245W        W 3639  20.946  38.777  13.961
35246W        W 3640   1.007  33.116  14.408
35247W        W 3641  40.547  19.094   1.300
35248W        W 3642  25.235  27.161  12.801
35249W        W 3643  14.471  20.147   0.673
35250W        W 3644   6.007  22.583   4.645
35251W        W 3645   8.587  19.735  14.007
35252W        W 3646  38.724  15.322   2.981
35253W        W 3647   3.567   7.575  12.479
35254W        W 3648  27.034  22.073  10.468
35255W        W 3649  20.632  17.177   5.023
35256W        W 3650  11.715  43.860   2.752
35257W        W 3651  23.637   0.993  13.269
35258W        W 3652  41.254  26.109  14.279
35259W        W 3653  37.718  36.411   4.186
35260W        W 3654  27.727  36.657  10.750
35261W        W 3655  23.726  20.458   1.380
35262W        W 3656  34.599  41.070  13.682
35263W        W 3657  34.003  16.598   4.111
35264W        W 3658  19.616   6.450  14.849
35265W        W 3659  44.888   8.108   0.355
35266W        W 3660  24.031  20.303  14.303
35267W        W 3661  14.685  27.994  12.569
35268W        W 3662  12.092  27.063  14.951
35269W        W 3663  30.702  32.849  14.991
35270W        W 3664  11.207   4.289  11.630
35271W        W 3665  36.836   6.488   4.136
35272W        W 3666   7.712  16.009  14.840
35273W        W 3667  18.604  30.746   2.312
35274W        W 3668  19.498  32.164  13.503
35275W        W 3669   5.392  27.064   5.018
35276W        W 3670   3.024  13.023  11.059
35277W        W 3671  41.926  20.145  11.595
35278W        W 3672  33.910  12.381   4.415
35279W        W 3673   4.362  20.579  13.439
35280W        W 3674  32.512  34.151   0.858
35281W        W 3675  17.676  24.741  11.017
35282W        W 3676  26.189  33.018  12.256
35283W        W 3677   2.779  34.913  13.470
35284W        W 3678  12.377  24.132  13.157
35285W        W 3679  29.888   4.309   4.307
35286W        W 3680  40.778  19.529  13.929
35287W        W 3681   7.353  31.142   2.447
35288W        W 3682  40.387  24.568   4.539
35289W        W 3683  38.458  42.043   3.200
35290W        W 3684  22.280  34.890   4.948
35291W        W 3685  10.088   6.756   3.232
35292W        W 3686  36.117  36.962   2.842
35293W        W 3687  32.636  29.882  13.956
35294W        W 3688  20.739  13.363  14.763
35295W        W 3689  30.849  38.293  14.331
35296W        W 3690   5.147  25.450   5.026
35297W        W 3691  24.387   4.762  11.062
35298W        W 3692  41.628   4.897  10.566
35299W        W 3693  36.307  13.162   1.028
35300W        W 3694  42.888  30.147   4.054
35301W        W 3695   0.633   5.483   1.933
35302W        W 3696   4.329  17.366   0.284
35303W        W 3697   2.243  11.845   3.417
35304W        W 3698  13.521   6.792  14.969
35305W        W 3699  32.504  26.439  14.465
35306W        W 3700   8.675   9.761   2.259
35307W        W 3701   9.084  43.302   0.674
35308W        W 3702  20.781  13.340   2.861
35309W        W 3703  36.551  14.530  13.189
35310W        W 3704   2.800  35.459  12.613
35311W        W 3705  37.854   3.784  13.423
35312W        W 3706  20.569   1.818  10.562
35313W        W 3707  23.832  34.322   2.181
35314W        W 3708  41.388  16.523  12.983
35315W        W 3709  29.924  29.167  14.082
35316W        W 3710  37.824   1.293   3.673
35317W        W 3711  43.354  18.833  12.765
35318W        W 3712  35.440  11.376  11.610
35319W        W 3713  39.602  33.045   4.180
35320W        W 3714  17.433  35.031  14.987
35321W        W 3715  20.199   7.952  11.196
35322W        W 3716  27.574  40.563   1.249
35323W        W 3717  28.393  21.724  12.092
35324W        W 3718  20.974  34.935  11.531
35325W        W 3719  44.607  37.100   0.286
35326W        W 3720  29.123   6.611  14.025
35327W        W 3721  11.873  14.070  14.299
35328W        W 3722  44.181   9.920  11.361
35329W        W 3723  16.321  40.201   2.304
35330W        W 3724  39.285  24.560  12.115
35331W        W 3725   5.855   9.353   2.204
35332W        W 3726  19.791  33.413  14.034
35333W        W 3727  39.940   8.032  13.080
35334W        W 3728  44.901  27.169   3.728
35335W        W 3729   5.079  16.799  13.421
35336W        W 3730  29.406  23.400   3.413
35337W        W 3731   8.960  25.707   3.177
35338W        W 3732  34.976  32.597   4.120
35339W        W 3733  15.343  17.750  10.321
35340W        W 3734  26.092  31.611   4.102
35341W        W 3735   2.086  33.547   4.828
35342W        W 3736  16.260  43.608  14.658
35343W        W 3737  13.856  29.385  14.939
35344W        W 3738  37.367  24.201   3.682
35345W        W 3739  37.451  23.058  14.023
35346W        W 3740   0.997   3.444  11.614
35347W        W 3741  43.538  36.195  11.703
35348W        W 3742  13.742  31.885   0.209
35349W        W 3743  21.694  44.704  10.111
35350W        W 3744  36.936  20.072  12.866
35351W        W 3745  16.621   7.596   2.674
35352W        W 3746  21.797  21.319  13.163
35353W        W 3747   6.076  30.082   5.031
35354W        W 3748  12.913  10.220   3.845
35355W        W 3749   3.552  36.001   1.321
35356W        W 3750  35.542  44.683  11.200
35357W        W 3751   9.788  37.837  10.732
35358W        W 3752  19.841  35.137   2.278
35359W        W 3753   2.232   4.502   3.800
35360W        W 3754   9.380  19.636   0.412
35361W        W 3755  42.745  13.139  13.056
35362W        W 3756  41.790  31.920   2.876
35363W        W 3757   8.264  26.667   0.457
35364W        W 3758   4.748  25.495   9.666
35365W        W 3759  21.129  20.728  13.926
35366W        W 3760   0.859  38.567   0.025
35367W        W 3761  37.086  43.527   2.340
35368W        W 3762  26.557  19.573   5.347
35369W        W 3763   5.524  40.972  13.899
35370W        W 3764   9.812  15.495   3.874
35371W        W 3765  34.610  33.898   3.348
35372W        W 3766  24.970   3.633  14.027
35373W        W 3767   9.097   3.081  11.532
35374W        W 3768  36.784  38.718   1.378
35375W        W 3769  11.236  19.012   2.682
35376W        W 3770  20.792  26.403   4.922
35377W        W 3771  12.033  10.015  12.035
35378W        W 3772   3.251  33.062   2.236
35379W        W 3773  36.446   9.054  10.695
35380W        W 3774  19.759  38.528   3.179
35381W        W 3775  28.081   4.577   1.711
35382W        W 3776  41.728  32.219  12.454
35383W        W 3777  38.378  25.957  12.014
35384W        W 3778  25.584   8.233   1.027
35385W        W 3779   5.616  31.503  14.850
35386W        W 3780  27.878   2.465   3.710
35387W        W 3781  18.833   7.103   1.050
35388W        W 3782  21.055   4.168   2.265
35389W        W 3783   4.387  33.397   0.741
35390W        W 3784   9.238  40.587  13.515
35391W        W 3785  29.707  34.361   3.233
35392W        W 3786   4.677  41.916  13.547
35393W        W 3787  34.538  13.091  12.001
35394W        W 3788  21.054  28.615   2.611
35395W        W 3789  29.601  40.658   4.275
35396W        W 3790  25.209  40.556  14.039
35397W        W 3791   8.340  39.609   0.553
35398W        W 3792  18.706  37.986  13.477
35399W        W 3793   2.792  20.264  11.658
35400W        W 3794   6.717   6.003  12.028
35401W        W 3795  38.506  42.166   4.760
35402W        W 3796   4.879  18.544   4.553
35403W        W 3797  39.308  42.546  12.054
35404W        W 3798  25.294  31.651  13.904
35405W        W 3799   3.899   0.890   0.020
35406W        W 3800  43.419   9.219   2.535
35407W        W 3801  10.344  18.659   2.280
35408W        W 3802  15.205  24.232  14.807
35409W        W 3803   9.661  27.678  13.930
35410W        W 3804   6.131   3.081   3.992
35411W        W 3805  14.346  21.009   4.118
35412W        W 3806  17.728  44.401   3.753
35413W        W 3807  33.976  37.899  12.668
35414W        W 3808  14.297  39.373   4.015
35415W        W 3809  32.130  37.576   3.328
35416W        W 3810  10.198   2.481   4.238
35417W        W 3811  21.222  26.940   2.090
35418W        W 3812  28.447  27.124   4.491
35419W        W 3813  10.729  34.556   2.158
35420W        W 3814  23.564   6.959   1.350
35421W        W 3815  31.511   4.301   1.705
35422W        W 3816   9.045  22.240   4.754
35423W        W 3817  29.989  21.059   2.382
35424W        W 3818   1.312  11.829  12.519
35425W        W 3819  28.018  39.361   0.441
35426W        W 3820  20.543  32.581   0.423
35427W        W 3821   7.774   8.251  12.599
35428W        W 3822  33.273  27.476  11.968
35429W        W 3823  40.538  18.571   2.666
35430W        W 3824   5.444  26.263  12.907
35431W        W 3825  24.883  44.965  10.684
35432W        W 3826  33.475  39.098  14.673
35433W        W 3827  30.476  36.979   2.136
35434W        W 3828  35.118  43.985   3.103
35435W        W 3829   9.654   4.623  11.959
35436W        W 3830  25.426  14.605  14.340
35437W        W 3831  21.980  43.799   3.220
35438W        W 3832   5.752  19.278  10.563
35439W        W 3833  35.066   5.750   2.996
35440W        W 3834  34.509  28.681   3.647
35441W        W 3835  22.286  44.956   1.184
35442W        W 3836  23.254  33.148   0.992
35443W        W 3837  36.497  19.480  11.233
35444W        W 3838  16.038  32.016  11.878
35445W        W 3839  17.535  25.992   2.157
35446W        W 3840  43.054  29.678  10.686
35447W        W 3841   3.908   4.629  10.677
35448W        W 3842  44.912  14.522  11.003
35449W        W 3843  16.717  35.863  10.491
35450W        W 3844  30.081  39.992  11.484
35451W        W 3845  39.133  18.751   2.870
35452W        W 3846  14.639  17.227  12.937
35453W        W 3847  16.792  14.192  12.509
35454W        W 3848  19.087  25.518   2.336
35455W        W 3849  26.252   2.420  14.340
35456W        W 3850  21.736  44.221  11.060
35457W        W 3851   9.381  10.295   2.411
35458W        W 3852  44.371  11.033  14.010
35459W        W 3853  28.482  14.755  10.713
35460W        W 3854  42.460  35.576   0.743
35461W        W 3855  25.458  17.028   3.269
35462W        W 3856   6.211  27.492  12.632
35463W        W 3857  27.375  20.289  13.310
35464W        W 3858  28.909   2.683  14.051
35465W        W 3859  25.784  15.415  11.924
35466W        W 3860  29.265  13.740   2.847
35467W        W 3861  43.588   2.276   3.176
35468W        W 3862  40.379  22.137  11.105
35469W        W 3863  37.042  44.431  14.828
35470W        W 3864  19.830  31.983  10.744
35471W        W 3865  39.504  16.667   0.731
35472W        W 3866   4.196  37.012   3.334
35473W        W 3867  44.266   3.638   2.851
35474W        W 3868  28.178  23.701  13.293
35475W        W 3869  13.583  21.648  11.704
35476W        W 3870   4.743  39.774   1.450
35477W        W 3871  11.130  23.106   4.295
35478W        W 3872  31.014   0.893   4.533
35479W        W 3873   5.221  37.594  13.061
35480W        W 3874   9.832  38.447   0.475
35481W        W 3875  20.122   1.884   2.413
35482W        W 3876  20.540   3.810  12.130
35483W        W 3877  25.906  37.378  11.149
35484W        W 3878   1.511  33.004  14.378
35485W        W 3879  29.062  16.873  11.634
35486W        W 3880   0.669   9.319   2.242
35487W        W 3881  19.025  17.860  14.803
35488W        W 3882  28.357  41.541  13.472
35489W        W 3883  40.071  35.992   1.866
35490W        W 3884  29.467  44.122  10.488
35491W        W 3885   0.449  22.904  10.700
35492W        W 3886  11.227   8.483  14.083
35493W        W 3887   2.012  26.849  11.509
35494W        W 3888   2.683  14.232  14.280
35495W        W 3889  10.151  19.082   3.335
35496W        W 3890  23.241  26.199   4.220
35497W        W 3891  36.513  44.005  11.151
35498W        W 3892  29.894   6.996   0.932
35499W        W 3893  39.768  29.015  12.149
35500W        W 3894  27.575   3.066   4.765
35501W        W 3895  24.031  38.849  14.809
35502W        W 3896  36.407   8.675   2.829
35503W        W 3897   1.653  12.872  14.882
35504W        W 3898  38.386  19.837  13.845
35505W        W 3899   3.391  43.711  12.426
35506W        W 3900  23.153  37.839  13.251
35507W        W 3901  12.256   9.682  12.396
35508W        W 3902  19.709  29.997  10.627
35509W        W 3903  33.026  21.251   5.027
35510W        W 3904  29.697   0.367   2.261
35511W        W 3905  26.974  20.592   2.163
35512W        W 3906  30.029   9.208   0.914
35513W        W 3907   2.231  13.524   4.546
35514W        W 3908  19.049   5.495   4.068
35515W        W 3909   4.370  26.513   0.974
35516W        W 3910   1.723  37.881   4.844
35517W        W 3911  41.957  35.430  12.643
35518W        W 3912  12.251  19.902  13.383
35519W        W 3913  22.166  14.305   3.672
35520W        W 3914  30.772  22.545  14.488
35521W        W 3915  39.840  33.279   3.386
35522W        W 3916  14.239  17.824  14.928
35523W        W 3917  36.985   3.009  11.106
35524W        W 3918  21.214   9.783  14.626
35525W        W 3919   4.997   2.928   0.916
35526W        W 3920   5.348  35.455   4.208
35527W        W 3921  39.064   7.874  14.041
35528W        W 3922   2.291   7.909   3.605
35529W        W 3923  40.335   9.980   4.812
35530W        W 3924  32.241  13.113   4.219
35531W        W 3925  33.108  27.753   1.386
35532W        W 3926  22.608   3.206   1.958
35533W        W 3927  12.284  44.964   1.885
35534W        W 3928   6.835  13.368  14.347
35535W        W 3929  25.491  44.041   3.151
35536W        W 3930  40.776  14.075  11.260
35537W        W 3931  28.191  18.125  14.670
35538W        W 3932  20.945  38.042   4.217
35539W        W 3933  26.069  14.701  12.139
35540W        W 3934  25.524   3.226  11.520
35541W        W 3935   2.954  42.354   4.581
35542W        W 3936  32.021   6.135  11.651
35543W        W 3937   3.117   0.554  11.596
35544W        W 3938  43.416   3.223   0.436
35545W        W 3939   6.726  40.008  12.355
35546W        W 3940  23.796  34.572  13.616
35547W        W 3941  19.737  43.469   0.415
35548W        W 3942  25.471   0.388   3.313
35549W        W 3943  25.542  28.159   1.400
35550W        W 3944  33.575  30.981  11.700
35551W        W 3945   6.119  29.368  11.176
35552W        W 3946  25.507  18.191   1.963
35553W        W 3947  39.813  14.332  11.955
35554W        W 3948  42.922   3.260   0.268
35555W        W 3949  29.292  32.565   2.947
35556W        W 3950  22.016   3.023  13.462
35557W        W 3951   6.009  22.757   3.662
35558W        W 3952  16.364  25.270  12.530
35559W        W 3953  40.315  33.288  11.969
35560W        W 3954  32.008   2.487   0.753
35561W        W 3955  28.434  39.299  12.005
35562W        W 3956  39.506   4.430  14.888
35563W        W 3957  31.600  31.137   1.454
35564W        W 3958  33.526  15.754   2.638
35565W        W 3959  11.348  42.341  14.377
35566W        W 3960   6.305   3.513   1.713
35567W        W 3961  26.651  38.313  11.646
35568W        W 3962  12.369   1.355  14.840
35569W        W 3963  13.915  13.813  13.926
35570W        W 3964   3.188  36.839  11.613
35571W        W 3965  22.586  29.362  13.342
35572W        W 3966  10.175  12.045   2.315
35573W        W 3967  42.821  20.187  11.216
35574W        W 3968  16.223  24.329  10.891
35575W        W 3969  24.440  37.532  14.114
35576W        W 3970   6.343  13.305   2.326
35577W        W 3971  39.222   9.119  12.049
35578W        W 3972  23.356  44.484   1.287
35579W        W 3973  31.148   4.696  13.492
35580W        W 3974  40.993  41.090  12.069
35581W        W 3975  34.484   9.337  10.812
35582W        W 3976  19.779  20.287   3.638
35583W        W 3977   3.279  22.010  14.861
35584W        W 3978   3.230  40.410   3.343
35585W        W 3979  43.917  22.096  13.398
35586W        W 3980   2.212  16.268   2.909
35587W        W 3981   2.718   2.416   0.833
35588W        W 3982  29.211  10.327  10.640
35589W        W 3983  23.556   5.958   3.360
35590W        W 3984  29.913  36.654  13.413
35591W        W 3985  26.397  12.524   2.538
35592W        W 3986  42.941  37.990  13.135
35593W        W 3987  42.449  34.599  10.224
35594W        W 3988  38.158  24.121  14.775
35595W        W 3989  33.153   8.195   0.412
35596W        W 3990   7.828  36.513   2.352
35597W        W 3991  24.813  38.095  10.752
35598W        W 3992  24.775  21.585   3.644
35599W        W 3993  44.017  35.915   1.897
35600W        W 3994  16.180  28.304   2.563
35601W        W 3995  24.153  14.324   1.872
35602W        W 3996  18.025  21.988   3.091
35603W        W 3997  33.868  41.518  13.358
35604W        W 3998   8.896  29.414  11.542
35605W        W 3999  27.574  41.819  11.529
35606W        W 4000  17.617  19.719   3.195
35607W        W 4001  40.317  30.680   3.809
35608W        W 4002  24.675  34.948  12.829
35609W        W 4003  32.390  21.459  13.414
35610W        W 4004  23.963  12.841  14.886
35611W        W 4005   9.788  39.272   3.706
35612W        W 4006  12.330  27.429   2.095
35613W        W 4007  31.061  10.256   2.749
35614W        W 4008  35.832  42.410  12.834
35615W        W 4009  32.487   8.249  13.417
35616W        W 4010  34.875  19.758   3.268
35617W        W 4011  42.442   9.844  11.100
35618W        W 4012  30.707   4.542  13.219
35619W        W 4013  18.182  19.717  13.853
35620W        W 4014  25.726  36.281   1.922
35621W        W 4015  29.129  25.106   4.816
35622W        W 4016  42.901  23.018   4.698
35623W        W 4017   3.268  40.113  14.706
35624W        W 4018   4.499   0.301   0.405
35625W        W 4019  13.577  37.521   3.661
35626W        W 4020  41.268  28.738  12.944
35627W        W 4021  32.409  13.247   0.917
35628W        W 4022  36.673  11.907  14.355
35629W        W 4023  23.382  29.270  12.952
35630W        W 4024  40.845  34.643   1.806
35631W        W 4025  22.479  33.460   1.427
35632W        W 4026  29.569   3.315  10.681
35633W        W 4027  11.270  19.574  13.386
35634W        W 4028  33.948  33.890   3.797
35635W        W 4029   8.820  11.538   1.879
35636W        W 4030  27.234  23.601  10.702
35637W        W 4031  22.354  40.950   0.841
35638W        W 4032   4.807  17.262  12.128
35639W        W 4033  15.164   5.538  10.263
35640W        W 4034  14.647  39.994  10.684
35641W        W 4035  12.784  37.856  11.948
35642W        W 4036   9.457  23.025  13.390
35643W        W 4037  29.009  22.985   3.580
35644W        W 4038   8.429  31.171   2.597
35645W        W 4039  43.240  27.976  13.086
35646W        W 4040  19.051  22.134   4.353
35647W        W 4041  38.652  19.596  13.433
35648W        W 4042   3.248  43.923  11.083
35649W        W 4043  19.198  15.086  10.704
35650W        W 4044  31.435  27.693   0.577
35651W        W 4045   4.212  34.365  14.240
35652W        W 4046  19.073  31.679  13.522
35653W        W 4047  13.541  36.443  13.082
35654W        W 4048  39.291  28.332  12.507
35655W        W 4049  40.273  18.291  13.415
35656W        W 4050  21.683   1.595  14.485
35657W        W 4051  34.652   9.421   1.887
35658W        W 4052  19.208  42.965  12.934
35659W        W 4053  23.828  38.410  12.417
35660W        W 4054   1.152  39.444  14.296
35661W        W 4055  25.414  41.247   0.286
35662W        W 4056  14.295  21.044   3.611
35663W        W 4057  32.895  18.947  12.167
35664W        W 4058  18.575  40.126   3.283
35665W        W 4059  12.081   9.185  12.408
35666W        W 4060  25.031  10.629  12.124
35667W        W 4061  41.527   4.148   3.272
35668W        W 4062  25.546  12.724  11.580
35669W        W 4063   0.392  16.719  13.095
35670W        W 4064   2.285   1.456  14.780
35671W        W 4065  44.971  12.347   2.983
35672W        W 4066   6.710   3.332  14.372
35673W        W 4067  36.854  40.997   0.320
35674W        W 4068  32.026  35.601  12.149
35675W        W 4069  21.689   6.135  13.484
35676W        W 4070   0.655   7.259   1.195
35677W        W 4071  32.977  28.964  11.662
35678W        W 4072  35.909  28.665  11.895
35679W        W 4073  24.964   5.211   3.656
35680W        W 4074  16.847  22.130  12.757
35681W        W 4075  25.483   3.260  13.752
35682W        W 4076   3.971   9.250   0.336
35683W        W 4077  41.176  25.561   3.332
35684W        W 4078   3.597   5.924  10.258
35685W        W 4079  30.538  28.481   1.515
35686W        W 4080   3.300  34.000  11.544
35687W        W 4081  43.540  39.963  11.442
35688W        W 4082   1.693  25.438  13.830
35689W        W 4083   3.838  22.859  11.349
35690W        W 4084  13.771  38.288   0.484
35691W        W 4085  13.576  31.646   3.380
35692W        W 4086  17.227   6.867   2.330
35693W        W 4087  42.995  40.582   0.688
35694W        W 4088  14.024  38.272  12.524
35695W        W 4089  28.227  40.737   0.288
35696W        W 4090  41.846  17.669  10.568
35697W        W 4091   4.515  14.891   5.043
35698W        W 4092  30.670  21.693  13.058
35699W        W 4093  37.315  40.375   1.243
35700W        W 4094  38.706  27.852   5.102
35701W        W 4095   3.312  37.131   4.598
35702W        W 4096  26.237  22.694  13.025
35703W        W 4097  18.586   4.258   0.814
35704W        W 4098  16.823   4.776   4.557
35705W        W 4099  17.618  41.502   3.126
35706W        W 4100   5.897  11.073   1.526
35707W        W 4101  43.708  10.721  11.386
35708W        W 4102  23.543  44.315   4.444
35709W        W 4103   7.777  36.829   1.378
35710W        W 4104   4.343  24.129   3.027
35711W        W 4105  38.901  36.393   3.804
35712W        W 4106  40.247  14.668   3.830
35713W        W 4107  39.451  28.147   1.371
35714W        W 4108  42.668  33.912   1.272
35715W        W 4109  21.002   6.370  12.574
35716W        W 4110  18.387  11.398   2.964
35717W        W 4111  44.885  39.750  13.520
35718W        W 4112  44.884  26.847   2.506
35719W        W 4113  43.056   2.514   5.200
35720W        W 4114   0.855  33.474   2.171
35721W        W 4115   1.754  20.833   0.344
35722W        W 4116  42.129   5.649  13.501
35723W        W 4117   3.296  23.602  11.162
35724W        W 4118   0.768  42.027   3.625
35725W        W 4119  19.190  27.655   1.730
35726W        W 4120   2.541  31.173   2.175
35727W        W 4121   6.820   5.552  11.241
35728W        W 4122  31.206  17.730  11.858
35729W        W 4123   1.439  12.719   2.071
35730W        W 4124  15.589  40.305   4.725
35731W        W 4125  17.671  35.165  13.467
35732W        W 4126  13.760  13.164   3.601
35733W        W 4127  23.929   1.945   4.917
35734W        W 4128  34.948  32.611   4.664
35735W        W 4129  22.157  34.096  13.956
35736W        W 4130  11.666  41.364   2.138
35737W        W 4131  29.215  17.098   5.083
35738W        W 4132  14.587  14.031   1.790
35739W        W 4133  19.068  28.462  14.418
35740W        W 4134  20.747   0.944   3.281
35741W        W 4135  10.562  43.449   2.857
35742W        W 4136  38.214  10.728   4.606
35743W        W 4137   8.617  22.315   3.697
35744W        W 4138  35.934  11.391   0.959
35745W        W 4139  17.608  25.517  13.816
35746W        W 4140   7.920   0.043  12.490
35747W        W 4141  18.704   8.525  10.266
35748W        W 4142  17.236  38.632  12.614
35749W        W 4143  29.629  20.617   1.275
35750W        W 4144  25.017  25.492   2.356
35751W        W 4145   6.711  43.991   0.164
35752W        W 4146  41.904  26.984   3.736
35753W        W 4147  36.438  37.077  11.594
35754W        W 4148  10.659  30.971   0.871
35755W        W 4149  25.078  33.534  14.795
35756W        W 4150  30.622  22.731  10.789
35757W        W 4151  16.741  13.952  14.976
35758W        W 4152   6.246  40.301  11.167
35759W        W 4153  26.276  34.611   4.591
35760W        W 4154   4.992  11.177   1.294
35761W        W 4155  44.079  24.639   3.110
35762W        W 4156  39.098  12.211   2.685
35763W        W 4157   8.973  44.903   2.815
35764W        W 4158  33.972  42.828   1.731
35765W        W 4159  38.415  18.522  12.029
35766W        W 4160  13.298  29.642   4.054
35767W        W 4161  32.680  43.329   2.660
35768W        W 4162  15.554  41.954   0.807
35769W        W 4163  23.252   1.626   1.687
35770W        W 4164   5.912   4.843  14.003
35771W        W 4165   3.709  15.010  11.674
35772W        W 4166  31.379  44.222   0.949
35773W        W 4167  15.724  10.537   4.632
35774W        W 4168  35.349  32.953  14.054
35775W        W 4169  22.339  28.432  10.137
35776W        W 4170  32.056  35.055  10.367
35777W        W 4171  27.169  21.250   4.320
35778W        W 4172  19.296  28.364   9.934
35779W        W 4173   2.871  18.531   0.363
35780W        W 4174  17.380  29.175   2.837
35781W        W 4175  12.171  17.517   3.787
35782W        W 4176  19.289  24.757  13.503
35783W        W 4177  30.255  41.854   3.757
35784W        W 4178  34.430  40.871   4.623
35785W        W 4179   6.449  44.448  12.951
35786W        W 4180   6.211  32.201   0.409
35787W        W 4181  44.523  12.262  12.013
35788W        W 4182  35.606  31.190  13.936
35789W        W 4183  23.122  27.246  10.625
35790W        W 4184   1.795   8.343   1.289
35791W        W 4185  32.569  10.584   3.963
35792W        W 4186   8.216  25.704  12.987
35793W        W 4187  30.007  32.461   2.013
35794W        W 4188  41.841  14.283   3.688
35795W        W 4189  13.197  14.861  11.175
35796W        W 4190  23.556  34.368  10.595
35797W        W 4191   1.237  16.412  11.260
35798W        W 4192  24.918  19.062   1.916
35799W        W 4193  36.444   8.339   1.282
35800W        W 4194  24.263  22.989   3.727
35801W        W 4195   1.408  36.418   1.307
35802W        W 4196  11.659  43.127  14.391
35803W        W 4197  31.184  30.046  14.856
35804W        W 4198   5.981  44.762   2.297
35805W        W 4199   6.292  18.282   4.179
35806W        W 4200   0.760  40.645   3.057
35807W        W 4201  27.444   1.281   2.071
35808W        W 4202  17.849  36.525  14.893
35809W        W 4203  25.590  27.611  10.955
35810W        W 4204  12.426  36.879   1.472
35811W        W 4205  23.832  31.941  13.518
35812W        W 4206  25.427  36.766  13.888
35813W        W 4207   3.246  35.143   4.587
35814W        W 4208  31.905  22.131   3.793
35815W        W 4209  38.800  22.338  12.568
35816W        W 4210  41.067  12.164   4.479
35817W        W 4211  14.779  10.663  13.328
35818W        W 4212  21.091  26.520  11.148
35819W        W 4213   2.438  28.888  11.186
35820W        W 4214  21.207  44.491  10.820
35821W        W 4215  24.174  26.585   0.354
35822W        W 4216  29.907  32.370  12.362
35823W        W 4217   7.128   9.638  14.320
35824W        W 4218  29.188   6.430  13.541
35825W        W 4219  31.426  41.808  11.419
35826W        W 4220  14.835   9.364   2.206
35827W        W 4221  38.310  12.146   3.385
35828W        W 4222  30.679  23.797   2.194
35829W        W 4223  22.008  39.848  14.431
35830W        W 4224  37.361  17.546  13.362
35831W        W 4225  29.618  14.090   4.683
35832W        W 4226   6.266   9.692   4.598
35833W        W 4227  37.631  16.760   4.086
35834W        W 4228   0.854  43.613   0.439
35835W        W 4229  30.013  36.336  11.171
35836W        W 4230  20.829  11.312  11.690
35837W        W 4231  26.849   8.766   5.023
35838W        W 4232  11.949  34.388  10.371
35839W        W 4233  42.511  26.294   1.733
35840W        W 4234  36.342  22.454  10.705
35841W        W 4235  36.317  34.434  14.409
35842W        W 4236  35.708  21.928   1.899
35843W        W 4237  42.760  11.388  13.857
35844W        W 4238  12.139  28.463   0.555
35845W        W 4239  20.974  28.277  14.883
35846W        W 4240   4.351  42.187  12.170
35847W        W 4241  11.832  26.487   4.485
35848W        W 4242   9.112  37.587  13.988
35849W        W 4243  40.252  12.274  11.055
35850W        W 4244  41.292  29.552  12.482
35851W        W 4245  22.589  35.985  11.135
35852W        W 4246   2.342   9.838   0.712
35853W        W 4247  41.477  40.648  14.238
35854W        W 4248   4.242  37.086  13.974
35855W        W 4249  16.185  14.501  14.065
35856W        W 4250  23.171  31.275   1.259
35857W        W 4251   8.389  29.498  10.957
35858W        W 4252  38.943  29.130  12.471
35859W        W 4253  16.587  30.131  14.531
35860W        W 4254  25.922  28.487  11.192
35861W        W 4255   5.324  24.093   4.003
35862W        W 4256  42.477   8.481  13.843
35863W        W 4257  39.467  32.908   3.301
35864W        W 4258  41.048  41.438   4.681
35865W        W 4259  18.323  40.123  11.923
35866W        W 4260  25.430  13.693  14.330
35867W        W 4261  44.511  18.185   4.844
35868W        W 4262  40.461   6.086   0.586
35869W        W 4263   1.061  40.039  14.961
35870W        W 4264  35.792  28.452  11.432
35871W        W 4265   9.879   4.844  12.359
35872W        W 4266  22.226  18.190  14.218
35873W        W 4267  11.254  30.544  11.977
35874W        W 4268  37.901  25.220  13.896
35875W        W 4269  23.014  23.544   4.501
35876W        W 4270  19.632  28.355  11.197
35877W        W 4271  29.217  29.109   1.273
35878W        W 4272  14.203  31.671  14.046
35879W        W 4273  19.090   2.357   1.663
35880W        W 4274   1.956  32.610   4.694
35881W        W 4275  25.174  12.957   1.189
35882W        W 4276   3.478  30.025   1.230
35883W        W 4277  37.237  22.025   1.218
35884W        W 4278   8.482  12.595   3.668
35885W        W 4279  14.093  33.327   3.515
35886W        W 4280  41.051   3.742  14.504
35887W        W 4281  15.599  26.103  14.570
35888W        W 4282  35.982   9.029  11.547
35889W        W 4283  13.847  11.278  14.481
35890W        W 4284  38.987  27.507  13.332
35891W        W 4285  32.480   6.377  12.579
35892W        W 4286  37.373  42.313   3.665
35893W        W 4287  17.336  26.449  14.022
35894W        W 4288  36.356  26.704   2.845
35895W        W 4289  17.181  27.590   1.684
35896W        W 4290  21.280  22.520   0.295
35897W        W 4291  14.170   2.653   4.273
35898W        W 4292  35.032   9.836   1.252
35899W        W 4293   5.889  16.691   0.327
35900W        W 4294  31.481  26.118  12.371
35901W        W 4295  13.278  42.631   1.687
35902W        W 4296   3.497  15.634   0.429
35903W        W 4297  17.477   6.949   2.822
35904W        W 4298   3.775   7.358   3.476
35905W        W 4299  34.278  25.290   2.014
35906W        W 4300  12.774  39.068   2.727
35907W        W 4301  17.481  23.438  12.905
35908W        W 4302  10.136  33.056  13.571
35909W        W 4303  20.603  21.965   4.309
35910W        W 4304  13.104   5.133   1.220
35911W        W 4305   0.344  32.695  14.034
35912W        W 4306  36.452  26.682  13.970
35913W        W 4307  44.235  17.755   4.930
35914W        W 4308  21.237   8.683   1.464
35915W        W 4309   5.397  27.466  14.999
35916W        W 4310  10.297  28.440   3.282
35917W        W 4311  27.082  34.218  14.069
35918W        W 4312  41.522   6.395   0.768
35919W        W 4313  34.065  26.107  12.873
35920W        W 4314   9.713   4.728  11.468
35921W        W 4315  33.553   7.356   2.052
35922W        W 4316  25.518   6.368  13.080
35923W        W 4317  19.361  21.748   4.533
35924W        W 4318  39.434  16.133  11.860
35925W        W 4319  42.912  35.074  13.450
35926W        W 4320  28.937  26.703   3.223
35927W        W 4321  26.713  21.326  12.884
35928W        W 4322  42.939  24.488  12.937
35929W        W 4323   8.197   6.016  13.961
35930W        W 4324  27.184   1.327   3.318
35931W        W 4325   9.285  16.225   2.843
35932W        W 4326  41.091  44.402   1.535
35933W        W 4327   5.337  35.426  12.833
35934W        W 4328  26.943  31.394   0.472
35935W        W 4329   3.523  43.421   3.272
35936W        W 4330  12.732  44.065  14.290
35937W        W 4331  12.639  15.406   4.409
35938W        W 4332  37.462  23.244   2.439
35939W        W 4333  13.727  27.535  14.533
35940W        W 4334  44.359  21.054   5.158
35941W        W 4335  32.477  32.847  12.246
35942W        W 4336   5.110  37.639  11.190
35943W        W 4337  12.891   1.994  11.694
35944W        W 4338  10.891  33.289   2.958
35945W        W 4339   5.651  21.093   2.231
35946W        W 4340  17.533  36.543   4.069
35947W        W 4341   0.776  14.122   0.930
35948W        W 4342  21.047  39.474   0.417
35949W        W 4343  15.265   3.977  10.127
35950W        W 4344  22.983  42.420  12.892
35951W        W 4345   9.555  18.150  12.856
35952W        W 4346  19.082  40.526   0.726
35953W        W 4347   8.641  43.250  10.702
35954W        W 4348  17.710  23.507   2.202
35955W        W 4349  41.816  41.940   4.581
35956W        W 4350  36.958  15.299   3.118
35957W        W 4351   0.854  31.577  12.781
35958W        W 4352   4.203  12.846  12.585
35959W        W 4353  30.668  17.713  13.927
35960W        W 4354   2.447  18.320  12.097
35961W        W 4355   5.856  40.249  13.483
35962W        W 4356  44.517  10.216  11.592
35963W        W 4357  43.007   4.100   3.739
35964W        W 4358   5.719  13.820   0.101
35965W        W 4359  32.019   9.955  10.158
35966W        W 4360   0.929   6.671  12.347
35967W        W 4361  15.716  27.487  13.427
35968W        W 4362  28.130  22.726  13.002
35969W        W 4363  24.904  31.544   1.283
35970W        W 4364  40.568  21.047   3.872
35971W        W 4365  19.282   0.539  12.111
35972W        W 4366  13.938  25.604  12.766
35973W        W 4367  29.147   1.961  14.471
35974W        W 4368  27.098   9.008   1.313
35975W        W 4369  17.532   2.662   3.575
35976W        W 4370  21.807   2.901   0.772
35977W        W 4371   8.149  22.094   0.850
35978W        W 4372  18.527  39.635   2.281
35979W        W 4373  34.967  36.518   2.600
35980W        W 4374  34.476  35.144   0.808
35981W        W 4375   3.414   0.205   4.105
35982W        W 4376  33.528  34.091  10.523
35983W        W 4377  22.615   3.223  12.385
35984W        W 4378  33.834   3.070   5.037
35985W        W 4379  18.537   1.371  12.833
35986W        W 4380  12.543  11.606   3.105
35987W        W 4381   2.168  22.103   2.744
35988W        W 4382  34.484   8.475   3.570
35989W        W 4383  16.887   8.271  13.765
35990W        W 4384   7.247  35.105  14.363
35991W        W 4385   1.253  10.810  14.961
35992W        W 4386  28.118  25.479   3.713
35993W        W 4387  10.822   8.629  13.783
35994W        W 4388  27.530  36.354  14.384
35995W        W 4389   8.526  23.619   2.587
35996W        W 4390  34.587  44.314   1.984
35997W        W 4391   8.629  11.504  13.466
35998W        W 4392  24.115  11.168   3.266
35999W        W 4393  43.092  42.613  13.960
36000W        W 4394  17.715   7.798  13.808
36001W        W 4395  13.687  19.915   1.097
36002W        W 4396   7.787  28.969  12.942
36003W        W 4397  12.210  43.379   1.899
36004W        W 4398   6.935  16.656   0.564
36005W        W 4399  37.682  44.216  11.064
36006W        W 4400  18.759  15.277   5.014
36007W        W 4401  18.485  18.212   3.607
36008W        W 4402  24.414   0.383   1.395
36009W        W 4403  14.093   3.220  11.712
36010W        W 4404  10.660  29.672  10.738
36011W        W 4405  10.400   2.720  11.152
36012W        W 4406  16.091   0.284  12.549
36013W        W 4407  41.854   4.798  13.859
36014W        W 4408  16.926   8.741  11.523
36015W        W 4409  27.591   9.424   0.769
36016W        W 4410   9.892   6.832  10.814
36017W        W 4411  33.782  38.837  12.770
36018W        W 4412  44.614  41.798  13.087
36019W        W 4413   0.257   1.363  11.904
36020W        W 4414  13.659  12.690   4.303
36021W        W 4415  18.572  21.397   2.869
36022W        W 4416  29.764   7.773  12.366
36023W        W 4417   4.747  16.805   4.137
36024W        W 4418  26.788  13.045  10.732
36025W        W 4419  41.439  22.812  14.762
36026W        W 4420   2.711   4.250   0.645
36027W        W 4421  20.792  40.324  14.592
36028W        W 4422  35.980  43.498   0.346
36029W        W 4423  40.441  44.904  13.982
36030W        W 4424   8.608   1.865   2.263
36031W        W 4425  12.544  38.969   1.648
36032W        W 4426  38.739  13.129  11.005
36033W        W 4427  18.142  40.697  11.569
36034W        W 4428   5.475  42.076  13.055
36035W        W 4429   1.773  39.866  13.098
36036W        W 4430  15.698  23.072   1.807
36037W        W 4431  37.585  33.265   9.835
36038W        W 4432   6.347   8.704   4.653
36039W        W 4433  21.203  18.740   0.934
36040W        W 4434  29.073   5.637   3.295
36041W        W 4435  35.778  13.303   4.048
36042W        W 4436  42.886  19.502  14.869
36043W        W 4437  24.025  24.196  14.906
36044W        W 4438  44.069  10.977   0.833
36045W        W 4439  21.159  25.986   2.163
36046W        W 4440  38.307  18.711   3.298
36047W        W 4441   5.612  36.019   1.413
36048W        W 4442  30.628  22.207  11.630
36049W        W 4443   7.641   0.283  14.568
36050W        W 4444  14.567  11.091  13.116
36051W        W 4445  17.220  18.788   0.369
36052W        W 4446  37.193  41.571  14.584
36053W        W 4447  18.184  19.371   1.639
36054W        W 4448  33.540  35.562  10.091
36055W        W 4449  18.347  24.122   1.678
36056W        W 4450  34.929  44.604  13.303
36057W        W 4451  11.325  22.582   3.172
36058W        W 4452  28.265  17.505   3.116
36059W        W 4453  22.358  14.876  14.916
36060W        W 4454  38.903  21.954  14.285
36061W        W 4455  16.205  13.153  14.284
36062W        W 4456  43.075  24.097   1.875
36063W        W 4457  42.118  39.468   2.856
36064W        W 4458  20.990  35.139   1.595
36065W        W 4459  30.126  26.150   1.266
36066W        W 4460   9.085  22.497   0.355
36067W        W 4461  39.627   6.243   3.370
36068W        W 4462  15.086  14.268  11.098
36069W        W 4463  24.199  33.346   4.590
36070W        W 4464  43.959   7.730   0.784
36071W        W 4465   1.096   6.217  14.714
36072W        W 4466  11.873   4.332   2.198
36073W        W 4467  34.920   6.814  14.553
36074W        W 4468  10.247  14.343  12.113
36075W        W 4469   3.427   6.830  12.442
36076W        W 4470  33.823  23.562   1.767
36077W        W 4471  13.204  36.116   2.885
36078W        W 4472  24.618  34.584  14.111
36079W        W 4473   5.030  22.164  10.157
36080W        W 4474  42.643  20.136  10.606
36081W        W 4475   0.365  18.651   1.888
36082W        W 4476  34.643  35.893   0.291
36083W        W 4477  43.849  15.991   0.361
36084W        W 4478  13.205   1.566  14.295
36085W        W 4479  15.592  24.601   0.937
36086W        W 4480  13.904  37.259   3.317
36087W        W 4481  25.753  32.597   0.968
36088W        W 4482  22.224  40.413  13.442
36089W        W 4483   5.162  18.185  12.164
36090W        W 4484  23.686  38.850   2.676
36091W        W 4485  32.132   1.081  14.878
36092W        W 4486  32.463   5.870  12.721
36093W        W 4487  30.030  26.544  14.375
36094W        W 4488  27.404  11.723  11.917
36095W        W 4489   1.456  14.241   0.258
36096W        W 4490  28.051  35.908   2.335
36097W        W 4491  31.591  33.218  13.376
36098W        W 4492  34.009  27.253   1.890
36099W        W 4493  13.280  16.204   1.776
36100W        W 4494  29.383  23.866   5.082
36101W        W 4495  34.080  37.759  11.143
36102W        W 4496  41.462  33.815  11.068
36103W        W 4497  33.375  14.233   4.278
36104W        W 4498  36.518  17.830   1.300
36105W        W 4499  42.404  11.130  12.542
36106W        W 4500  38.817  32.972  12.401
36107W        W 4501  44.986  34.816   4.452
36108W        W 4502  18.389  36.832  11.896
36109W        W 4503   4.449  40.970  10.653
36110W        W 4504   3.406   2.539   3.116
36111W        W 4505  23.430   3.268  13.789
36112W        W 4506   8.154  29.027  12.094
36113W        W 4507  20.968   0.108  14.113
36114W        W 4508  39.098  27.219   3.059
36115W        W 4509  42.908  41.664  11.607
36116W        W 4510   2.474  30.478   4.642
36117W        W 4511  40.469  31.613  10.968
36118W        W 4512  38.825  42.598  13.811
36119W        W 4513  20.224  11.332   2.369
36120W        W 4514  14.418  42.394  14.429
36121W        W 4515   9.182  37.497  10.593
36122W        W 4516  23.856  16.698  12.995
36123W        W 4517  28.571  29.637   1.666
36124W        W 4518  21.623  36.514  13.247
36125W        W 4519  27.696  12.845   4.289
36126W        W 4520  37.672  10.434   2.213
36127W        W 4521  36.993  29.977  13.322
36128W        W 4522  22.569   7.333  13.560
36129W        W 4523  43.410  35.444   0.941
36130W        W 4524  10.842  12.376   0.675
36131W        W 4525   7.714  38.779   4.242
36132W        W 4526   8.160   1.824  12.998
36133W        W 4527  11.277   1.069   0.000
36134W        W 4528  29.194  13.288  14.341
36135W        W 4529  41.444  17.735  13.094
36136W        W 4530  12.958   2.672   0.546
36137W        W 4531  25.626   4.838  12.894
36138W        W 4532  36.947  43.687  12.593
36139W        W 4533  16.306  21.088   3.279
36140W        W 4534   8.357  36.251  11.804
36141W        W 4535  43.372  10.494  11.711
36142W        W 4536  21.740  25.369   4.594
36143W        W 4537  42.930  23.984  12.916
36144W        W 4538  38.944  25.272  14.687
36145W        W 4539  11.454  28.475  14.457
36146W        W 4540  14.241   5.485  12.002
36147W        W 4541  31.203  26.894   2.352
36148W        W 4542  40.950  42.855   4.860
36149W        W 4543  34.843  31.829  13.863
36150W        W 4544  13.557  28.616   0.979
36151W        W 4545  21.764   9.960  12.418
36152W        W 4546  27.570  29.320   1.777
36153W        W 4547  24.136   5.877  10.739
36154W        W 4548  23.653  35.078   3.378
36155W        W 4549  11.642   8.709   4.131
36156W        W 4550   5.454  14.191   2.699
36157W        W 4551  28.845  41.513  11.126
36158W        W 4552  10.589  43.443  14.380
36159W        W 4553  11.288  31.334   0.314
36160W        W 4554  38.330  16.227   2.679
36161W        W 4555  39.977  39.792   4.603
36162W        W 4556  37.096  43.305  14.850
36163W        W 4557  37.549  44.544   4.247
36164W        W 4558  38.145  19.697  13.341
36165W        W 4559  37.306  24.653  13.040
36166W        W 4560  19.507  30.495   2.139
36167W        W 4561  14.262   7.434  14.738
36168W        W 4562  42.822  19.121  13.923
36169W        W 4563  31.998  34.625   3.197
36170W        W 4564  38.321  31.597  12.538
36171W        W 4565  42.984  35.924   4.606
36172W        W 4566  13.789  13.355  11.434
36173W        W 4567  32.526  27.133   0.415
36174W        W 4568  34.977  24.689  11.649
36175W        W 4569  37.009  36.932  14.495
36176W        W 4570  35.503  24.329   4.867
36177W        W 4571  16.855  26.110   4.590
36178W        W 4572   7.294  22.126   4.540
36179W        W 4573  20.096  27.046  13.599
36180W        W 4574  14.608   6.276  10.853
36181W        W 4575  41.740  20.760  13.448
36182W        W 4576  17.661  26.476   1.424
36183W        W 4577   7.607  16.549  11.692
36184W        W 4578  15.193  26.794  11.508
36185W        W 4579  17.026   1.299   0.305
36186W        W 4580   0.332   8.326   3.068
36187W        W 4581  14.637   9.318   1.172
36188W        W 4582   9.843  11.676   4.540
36189W        W 4583  16.230  43.684  12.630
36190W        W 4584   1.808   9.127  12.843
36191W        W 4585  22.021   7.323   1.919
36192W        W 4586  41.313  15.697   2.260
36193W        W 4587  33.557  35.465  14.478
36194W        W 4588   7.249  44.973  14.427
36195W        W 4589   9.123  11.218   2.194
36196W        W 4590  10.928  13.390   3.535
36197W        W 4591  27.085  37.585   0.654
36198W        W 4592  28.949  37.002  13.018
36199W        W 4593  15.560  13.735  13.470
36200W        W 4594  17.141  13.822  12.887
36201W        W 4595   3.665  18.849   0.933
36202W        W 4596  31.481  23.476  14.045
36203W        W 4597  36.847  32.997   3.232
36204W        W 4598  28.248  42.072  10.376
36205W        W 4599  42.088  34.065  14.527
36206W        W 4600  29.081   1.217   0.037
36207W        W 4601  12.940   0.314  12.886
36208W        W 4602   9.715  35.056   3.878
36209W        W 4603  38.757  40.037  13.941
36210W        W 4604  18.044   9.692   4.269
36211W        W 4605  35.881  21.813   1.420
36212W        W 4606  34.349   0.436   1.163
36213W        W 4607  11.957   7.798  11.095
36214W        W 4608  37.091  39.146   4.058
36215W        W 4609  36.795   6.308   0.327
36216W        W 4610  28.092   3.752   0.818
36217W        W 4611  22.826  21.247  14.233
36218W        W 4612   7.392  33.914   2.526
36219W        W 4613  27.886  30.730  12.227
36220W        W 4614   3.785  16.249   4.353
36221W        W 4615   8.734  26.569   3.656
36222W        W 4616  41.807  38.036  12.777
36223W        W 4617  21.826   0.417  13.863
36224W        W 4618   3.256  31.909   4.583
36225W        W 4619  28.279   0.166   9.898
36226W        W 4620  17.184  22.949  13.263
36227W        W 4621  38.934  20.468  10.648
36228W        W 4622  19.327   4.903   3.510
36229W        W 4623   0.118  27.457   1.280
36230W        W 4624  12.772  19.825   1.414
36231W        W 4625  43.433  41.120   2.821
36232W        W 4626  16.334  21.307  10.601
36233W        W 4627   6.723  15.649  10.608
36234W        W 4628   5.908  39.723  13.517
36235W        W 4629  40.939   8.858   3.232
36236W        W 4630  16.550  11.824  11.924
36237W        W 4631  27.588   2.156   4.951
36238W        W 4632  41.094  23.673  13.275
36239W        W 4633  28.131  37.522  12.076
36240W        W 4634  41.910  15.987  13.457
36241W        W 4635   0.780  20.048   4.638
36242W        W 4636   4.902  18.301   3.257
36243W        W 4637  27.998   9.651  11.200
36244W        W 4638   7.650  14.739  11.849
36245W        W 4639  26.557   9.839  12.620
36246W        W 4640   3.375  23.449  12.524
36247W        W 4641  38.841  39.115   1.129
36248W        W 4642   7.848  42.263   4.260
36249W        W 4643  28.926  21.670   2.440
36250W        W 4644   0.818  20.914  12.819
36251W        W 4645  10.613  28.717   1.673
36252W        W 4646  29.085  21.181  10.575
36253W        W 4647   0.111  37.196   0.423
36254W        W 4648  29.094  39.110  11.161
36255W        W 4649  24.586  44.530   4.129
36256W        W 4650  36.421  30.604   2.615
36257W        W 4651  31.789  10.339   3.671
36258W        W 4652  19.356  44.239  13.957
36259W        W 4653  14.379  26.288  11.977
36260W        W 4654  27.544  24.163   3.094
36261W        W 4655  28.646  26.940   0.859
36262W        W 4656   4.960  27.771  14.238
36263W        W 4657  20.137  28.194  14.418
36264W        W 4658  30.399   5.983  14.487
36265W        W 4659   7.642   9.693  14.238
36266W        W 4660  38.287  10.311   1.064
36267W        W 4661   3.948  14.762  12.123
36268W        W 4662  12.853  11.789  12.138
36269W        W 4663  15.085  28.502   0.730
36270W        W 4664  36.918  16.746  14.280
36271W        W 4665  19.234  17.673   1.826
36272W        W 4666  35.506   0.770  12.872
36273W        W 4667  25.127  26.755   1.275
36274W        W 4668  35.603  16.805  10.692
36275W        W 4669  19.998  35.041   3.178
36276W        W 4670   6.660  43.095   3.662
36277W        W 4671  29.916  24.609  11.488
36278W        W 4672   8.293  14.703   4.192
36279W        W 4673  19.575  20.661  10.022
36280W        W 4674  23.584  13.066  14.216
36281W        W 4675  33.422  41.234  13.365
36282W        W 4676  39.491  25.786   0.703
36283W        W 4677  21.783  27.925  12.763
36284W        W 4678  13.578  15.672   9.872
36285W        W 4679  18.144   7.440   3.624
36286W        W 4680  26.018  41.740   1.316
36287W        W 4681   2.920  33.483   0.483
36288W        W 4682  17.365  37.389   1.098
36289W        W 4683  17.541   2.925  14.488
36290W        W 4684   8.221  28.942   3.950
36291W        W 4685  15.116  13.887   4.451
36292W        W 4686   1.884  33.492   2.065
36293W        W 4687  15.552  24.170   1.277
36294W        W 4688   8.781  19.286  14.636
36295W        W 4689  33.459   1.537   4.928
36296W        W 4690  36.582  41.430  11.435
36297W        W 4691  13.170   8.137   2.805
36298W        W 4692  13.599  43.705  12.276
36299W        W 4693  41.912  29.518   4.710
36300W        W 4694  33.913  40.231  10.716
36301W        W 4695  15.743  29.154   0.399
36302W        W 4696  25.406  22.554   2.268
36303W        W 4697  16.756  28.076   4.785
36304W        W 4698  17.884   8.880  11.188
36305W        W 4699  34.380  27.603  13.842
36306W        W 4700  39.258  18.194   1.233
36307W        W 4701   4.665  42.832  12.115
36308W        W 4702  26.970  14.615   3.812
36309W        W 4703  22.647  38.011  10.776
36310W        W 4704  16.462  29.109   4.097
36311W        W 4705  16.539  38.636  12.079
36312W        W 4706  40.559  32.725  13.090
36313W        W 4707  38.106  44.300  12.046
36314W        W 4708   0.412  39.478  14.916
36315W        W 4709  38.391  26.583  10.412
36316W        W 4710  30.200  32.675   3.203
36317W        W 4711   7.495   9.596   2.829
36318W        W 4712   0.220  24.263   1.112
36319W        W 4713  36.634  29.761  12.014
36320W        W 4714  20.848  16.445  10.303
36321W        W 4715  28.409  21.006   4.600
36322W        W 4716  13.331   5.513  11.974
36323W        W 4717  12.364  16.348  14.003
36324W        W 4718  31.914   8.378   1.302
36325W        W 4719  42.935  41.741   4.133
36326W        W 4720  31.544  17.803  12.684
36327W        W 4721  17.149  19.043  13.929
36328W        W 4722  29.694  27.389  11.601
36329W        W 4723   0.381   6.978  11.574
36330W        W 4724  30.424  42.978  14.376
36331W        W 4725  12.825  22.056  14.431
36332W        W 4726  33.015  13.982   2.330
36333W        W 4727  29.624  23.729   3.753
36334W        W 4728  34.629  20.628  12.120
36335W        W 4729  35.571  23.881  12.565
36336W        W 4730   2.222   9.897   3.108
36337W        W 4731   4.168  40.225   2.316
36338W        W 4732  14.844  44.535   2.330
36339W        W 4733  38.816   1.864   4.443
36340W        W 4734  40.800  24.600  12.939
36341W        W 4735  30.716  14.329  13.845
36342W        W 4736  18.792  40.394  12.592
36343W        W 4737  27.266  20.301   0.087
36344W        W 4738  24.202  44.903  10.267
36345W        W 4739  13.160  32.561   4.455
36346W        W 4740  23.511  40.317  13.569
36347W        W 4741  39.377  17.074   2.425
36348W        W 4742  12.952   4.371   4.958
36349W        W 4743  13.899  10.260   0.412
36350W        W 4744  14.626  26.656   1.884
36351W        W 4745  34.427  38.579   2.519
36352W        W 4746   8.223  26.587  10.998
36353W        W 4747  24.195  38.022   4.256
36354W        W 4748  18.100  33.101  11.888
36355W        W 4749   0.030  10.708  12.960
36356W        W 4750  36.524   4.487  13.084
36357W        W 4751   5.265  28.439  12.317
36358W        W 4752  44.070   0.450   4.212
36359W        W 4753  10.308  30.742  14.838
36360W        W 4754  24.975  10.169   2.376
36361W        W 4755   7.533   4.321   3.261
36362W        W 4756  40.051  41.810  12.018
36363W        W 4757  34.652   4.527  13.407
36364W        W 4758  14.965  11.675   1.756
36365W        W 4759  25.367   0.764   2.699
36366W        W 4760  37.089  41.326  12.014
36367W        W 4761  15.599  10.194   0.807
36368W        W 4762   6.004  21.536  12.065
36369W        W 4763   8.669  18.296  12.665
36370W        W 4764  43.057  11.370   4.266
36371W        W 4765  29.079  36.307   2.056
36372W        W 4766  40.369   7.910  13.384
36373W        W 4767  42.113   6.230   2.199
36374W        W 4768  29.851  25.558   1.474
36375W        W 4769  38.417  28.445  13.928
36376W        W 4770   9.866   5.884   4.553
36377W        W 4771  35.106  20.123  11.571
36378W        W 4772  34.429  42.387  13.547
36379W        W 4773  31.846  44.695   1.781
36380W        W 4774   9.200  11.640   4.270
36381W        W 4775  35.007  12.091   0.354
36382W        W 4776   2.511  44.992  13.616
36383W        W 4777   2.093  20.613   1.151
36384W        W 4778  27.451  10.726   0.101
36385W        W 4779   0.294  16.772   2.260
36386W        W 4780  27.728  11.067   1.454
36387W        W 4781   8.154  34.091  13.021
36388W        W 4782  28.511  13.760  12.160
36389W        W 4783  28.015  10.081  12.594
36390W        W 4784  26.024  17.389  12.389
36391W        W 4785  39.407  13.331   3.973
36392W        W 4786  18.095   4.919   4.081
36393W        W 4787  44.240  24.236  12.819
36394W        W 4788  44.365  29.101  10.292
36395W        W 4789  41.338  10.790  14.072
36396W        W 4790  33.292  40.336   1.140
36397W        W 4791   3.218  28.530  13.461
36398W        W 4792  43.012  33.906   2.503
36399W        W 4793  36.192  13.468  11.591
36400W        W 4794  26.693  36.131  14.374
36401W        W 4795  32.458  15.317  10.702
36402W        W 4796   5.236   8.089   4.798
36403W        W 4797  39.135   1.311  13.328
36404W        W 4798   8.810   3.276   1.927
36405W        W 4799  20.025  11.855  14.809
36406W        W 4800   5.407  29.339   3.614
36407W        W 4801   2.596   3.225   5.004
36408W        W 4802   2.538  32.645   1.627
36409W        W 4803   4.773  21.660   3.156
36410W        W 4804   6.740  24.752   2.724
36411W        W 4805  14.768  17.819   0.058
36412W        W 4806  43.271  40.701  11.207
36413W        W 4807  12.754  34.452  13.459
36414W        W 4808   4.914  24.191   0.673
36415W        W 4809   1.998  23.088  12.493
36416W        W 4810   2.164  21.220   4.919
36417W        W 4811  40.430  12.277   0.090
36418W        W 4812  41.154   9.011   3.690
36419W        W 4813  33.162  31.915  11.607
36420W        W 4814  10.825   1.339   0.879
36421W        W 4815  12.347  27.652   3.653
36422W        W 4816   9.656   4.394   2.374
36423W        W 4817  23.487  41.003   4.029
36424W        W 4818  44.540  23.729   4.558
36425W        W 4819  27.706  27.595   2.804
36426W        W 4820  43.582  14.768  10.856
36427W        W 4821  21.114  13.131   3.183
36428W        W 4822  37.107  35.981  12.436
36429W        W 4823   7.124  33.424  12.468
36430W        W 4824   7.075  13.111   1.606
36431W        W 4825  26.981  30.457  12.786
36432W        W 4826  40.305   3.284   3.150
36433W        W 4827  14.853  16.126   0.767
36434W        W 4828   1.899  14.996   5.170
36435W        W 4829   3.006  37.229  12.387
36436W        W 4830  18.498  21.995   1.263
36437W        W 4831  23.252  10.935   3.716
36438W        W 4832  13.722  16.381  13.942
36439W        W 4833  13.725  21.035   2.981
36440W        W 4834   5.217  21.048   0.916
36441W        W 4835  13.799  27.886   1.652
36442W        W 4836  20.727   5.705  10.740
36443W        W 4837  20.082  41.173   1.419
36444W        W 4838  35.921  15.247  13.399
36445W        W 4839  12.811  37.972   0.494
36446W        W 4840  40.867  39.490  14.211
36447W        W 4841   3.411  25.425   4.307
36448W        W 4842  18.142  40.672   3.803
36449W        W 4843   8.845  10.589  10.728
36450W        W 4844  27.259  29.912  10.436
36451W        W 4845  35.317  30.206   1.221
36452W        W 4846   8.335   5.124  10.150
36453W        W 4847   8.277   0.869  12.367
36454W        W 4848   8.657  14.811   3.353
36455W        W 4849   1.267  23.000  10.949
36456W        W 4850  10.751   6.703  10.731
36457W        W 4851   0.957  23.038  14.978
36458W        W 4852   0.361  12.125   4.230
36459W        W 4853  26.474  38.413  12.921
36460W        W 4854  31.092   5.098   3.353
36461W        W 4855  32.368  32.676   4.155
36462W        W 4856  15.646  14.510  10.205
36463W        W 4857  19.914  29.532   2.397
36464W        W 4858  32.678  24.728  12.056
36465W        W 4859  16.272   7.829  12.098
36466W        W 4860  22.540  17.251  13.856
36467W        W 4861  41.028  26.462  14.588
36468W        W 4862  36.622  33.078   1.399
36469W        W 4863  18.117  20.625   3.377
36470W        W 4864  32.848  23.165  14.059
36471W        W 4865  23.243  39.381  10.666
36472W        W 4866  27.787  24.705   3.844
36473W        W 4867   3.983   2.044  10.345
36474W        W 4868  13.234  10.941  12.018
36475W        W 4869  17.639  31.555  14.406
36476W        W 4870  19.072  16.129  14.756
36477W        W 4871  39.113   8.224   2.199
36478W        W 4872  27.916  34.885  13.419
36479W        W 4873   4.911  22.306  14.420
36480W        W 4874  27.939  23.165   4.959
36481W        W 4875   7.938  27.013  12.940
36482W        W 4876  20.297  22.356  14.835
36483W        W 4877  26.728  14.181  12.158
36484W        W 4878  28.986  42.445  11.468
36485W        W 4879   1.658  11.901   2.336
36486W        W 4880  22.969  10.551   3.449
36487W        W 4881  17.054  16.823   4.226
36488W        W 4882  30.083  16.723   4.671
36489W        W 4883  30.634  36.056   2.230
36490W        W 4884  38.540  36.467   4.806
36491W        W 4885  28.771  32.412   2.973
36492W        W 4886  26.705  42.262   4.476
36493W        W 4887  25.371  25.211  11.095
36494W        W 4888  44.538  24.615  10.642
36495W        W 4889  19.359  12.101  11.469
36496W        W 4890  26.544  38.305   2.746
36497W        W 4891   4.930  24.989   2.666
36498W        W 4892  32.113  31.847  14.534
36499W        W 4893  36.644  14.692  10.535
36500W        W 4894  27.123  28.156  14.412
36501W        W 4895   3.935  11.356  12.488
36502W        W 4896   6.900  25.740  13.748
36503W        W 4897  40.469  11.805  11.283
36504W        W 4898  27.435   1.696  10.264
36505W        W 4899  29.585  18.330  14.474
36506W        W 4900  12.721  36.547   1.166
36507W        W 4901   7.706  11.767   4.046
36508W        W 4902   9.491  42.776  14.044
36509W        W 4903  42.873  22.181   4.724
36510W        W 4904  41.940  22.609  14.970
36511W        W 4905  17.234  25.363  10.721
36512W        W 4906  35.383  37.644  12.962
36513W        W 4907   4.026  14.147  12.494
36514W        W 4908  44.578   5.897  10.714
36515W        W 4909  12.122  22.224   4.748
36516W        W 4910  37.541  44.284   1.190
36517W        W 4911  36.011  16.796  13.817
36518W        W 4912  23.722  18.191  13.605
36519W        W 4913  37.927  27.043  14.119
36520W        W 4914  29.880  30.900  14.045
36521W        W 4915   1.744  39.802   2.839
36522W        W 4916  39.945  17.989  13.684
36523W        W 4917  25.912  18.537  11.641
36524W        W 4918  29.631  40.321   2.510
36525W        W 4919  24.469  35.571   2.657
36526W        W 4920  23.639   1.258  11.002
36527W        W 4921   7.942  38.462  13.172
36528W        W 4922  40.016  27.963   2.246
36529W        W 4923  39.793  23.492  10.687
36530W        W 4924  36.940  31.916   2.773
36531W        W 4925  12.782  12.047   0.281
36532W        W 4926  31.887  21.806  10.828
36533W        W 4927  15.796   0.238   1.349
36534W        W 4928  23.271  36.920  12.157
36535W        W 4929  31.170   1.294  11.541
36536W        W 4930  37.547  27.989  12.083
36537W        W 4931  39.263  18.209  12.064
36538W        W 4932  33.658  41.970  12.507
36539W        W 4933  13.769  32.892   1.904
36540W        W 4934  37.678  14.676   0.297
36541W        W 4935  11.159  21.051   3.124
36542W        W 4936  40.344   2.008  14.384
36543W        W 4937  20.813   9.125  11.918
36544W        W 4938  24.217  16.483   3.944
36545W        W 4939  37.082   8.919   3.365
36546W        W 4940   2.854  10.708  12.848
36547W        W 4941  27.856  35.936   0.807
36548W        W 4942  21.717  11.603   5.015
36549W        W 4943   9.900   2.845  10.988
36550W        W 4944  10.662  13.821  14.483
36551W        W 4945  36.495  35.301   1.971
36552W        W 4946  13.619  34.700   2.674
36553W        W 4947  38.865   8.320   2.640
36554W        W 4948  23.358  25.937  12.499
36555W        W 4949   7.316  19.749  14.079
36556W        W 4950  28.463   7.162  11.601
36557W        W 4951  23.323  43.506  12.600
36558W        W 4952  34.006  44.448   0.258
36559W        W 4953  29.881  31.217   1.985
36560W        W 4954   3.858  11.862   0.981
36561W        W 4955  20.246  34.786   2.149
36562W        W 4956  23.178   5.418  13.886
36563W        W 4957   2.148  15.395   2.726
36564W        W 4958  34.515  37.065   3.651
36565W        W 4959   7.653  22.614  12.777
36566W        W 4960  29.901  41.433   0.432
36567W        W 4961  16.101  13.702   3.409
36568W        W 4962  10.473   8.137  11.107
36569W        W 4963  38.429  14.597  12.667
36570W        W 4964  13.001  34.485   1.163
36571W        W 4965  42.554  16.733   1.855
36572W        W 4966  44.656  24.088   4.135
36573W        W 4967  36.471  17.348  10.868
36574W        W 4968  26.554   2.157  14.024
36575W        W 4969   1.023  24.269  14.300
36576W        W 4970  38.449  19.779   0.448
36577W        W 4971  16.689  27.352  12.050
36578W        W 4972  28.568  29.517  12.853
36579W        W 4973  12.759  34.109   0.840
36580W        W 4974  34.920  24.213   0.969
36581W        W 4975   4.833  44.910   4.350
36582W        W 4976   9.712  14.209  10.580
36583W        W 4977  16.102  16.658  11.906
36584W        W 4978  12.679  41.577   1.276
36585W        W 4979  28.164  40.931   1.451
36586W        W 4980  23.438  17.001  12.989
36587W        W 4981  11.974  42.483  12.012
36588W        W 4982  31.599  31.631   2.693
36589W        W 4983  41.058   7.095   2.116
36590W        W 4984   8.379  37.859   3.601
36591W        W 4985  18.982  23.167   3.782
36592W        W 4986  22.579  35.915   5.156
36593W        W 4987   3.583   6.158   2.383
36594W        W 4988  29.703  23.221   3.781
36595W        W 4989  12.821   3.759   4.127
36596W        W 4990   1.755  30.514  11.766
36597W        W 4991  33.530  40.014  12.497
36598W        W 4992  43.972  43.716  12.901
36599W        W 4993  23.073  22.767   1.563
36600W        W 4994   3.187  21.735  10.958
36601W        W 4995  19.561  14.376  12.590
36602W        W 4996   8.382  15.377  10.851
36603W        W 4997  20.742  38.212   1.353
36604W        W 4998  32.959  38.528   1.197
36605W        W 4999  21.670  42.786  12.214
36606W        W 5000  13.348  20.873  12.149
36607W        W 5001  29.818  18.417  12.876
36608W        W 5002   5.899   1.377   0.735
36609W        W 5003   6.692  41.502   3.803
36610W        W 5004  40.973   8.585  13.828
36611W        W 5005   5.902  35.902   4.785
36612W        W 5006   2.373  23.643   0.934
36613W        W 5007   5.270  17.274  11.838
36614W        W 5008  21.231  38.421   0.369
36615W        W 5009   9.465  35.141  12.428
36616W        W 5010  25.450  11.082   2.402
36617W        W 5011   5.833  22.003   4.641
36618W        W 5012   8.592  18.799   4.479
36619W        W 5013  14.090  33.666  11.626
36620W        W 5014  11.708  15.005   1.819
36621W        W 5015   5.658  18.219  13.494
36622W        W 5016   9.266  12.744  12.901
36623W        W 5017  38.222  17.390  12.087
36624W        W 5018  41.599  43.193   4.594
36625W        W 5019  20.031  24.513  11.896
36626W        W 5020  16.079  12.562  10.777
36627W        W 5021   5.885  10.814  11.995
36628W        W 5022  26.715  43.295  11.717
36629W        W 5023  37.046  25.553   0.018
36630W        W 5024  14.165  28.440   2.392
36631W        W 5025  22.531  43.363   1.770
36632W        W 5026  35.848  39.506   4.629
36633W        W 5027  38.496  24.199   0.252
36634W        W 5028   1.310   5.893  12.488
36635W        W 5029  43.837   0.528  13.428
36636W        W 5030   7.807  42.869   4.937
36637W        W 5031   1.438  33.324   2.272
36638W        W 5032  24.570  29.994  11.073
36639W        W 5033  36.816  40.053  12.873
36640W        W 5034  19.724  37.957   2.621
36641W        W 5035  24.052   6.261   3.461
36642W        W 5036  37.895  20.051   0.505
36643W        W 5037  44.904  38.064   2.932
36644W        W 5038  38.676  11.846  10.710
36645W        W 5039  33.183  37.600  13.258
36646W        W 5040  36.835  19.631  11.584
36647W        W 5041  10.728  12.831   1.585
36648W        W 5042  21.957  37.448   4.094
36649W        W 5043  33.275  28.137  12.471
36650W        W 5044   5.742  12.755  13.400
36651W        W 5045  38.879  11.201   2.793
36652W        W 5046  14.617  14.271  14.308
36653W        W 5047   7.678  10.245  14.795
36654W        W 5048   3.968  41.946   1.839
36655W        W 5049  27.932  31.612   0.782
36656W        W 5050  30.428  38.997   4.310
36657W        W 5051  37.895  17.606  14.816
36658W        W 5052  23.883  41.967   5.078
36659W        W 5053   7.183  36.480   3.528
36660W        W 5054  23.557   0.538   4.159
36661W        W 5055   1.029  18.211  12.938
36662W        W 5056  11.843  16.997  11.521
36663W        W 5057   1.287  37.595  10.364
36664W        W 5058  29.441   0.753   0.918
36665W        W 5059  11.575  16.342  12.044
36666W        W 5060  20.569   8.460   4.397
36667W        W 5061  27.545  35.065   2.384
36668W        W 5062  15.001  40.427  14.279
36669W        W 5063  27.078   7.937   2.198
36670W        W 5064  13.139  36.387   2.242
36671W        W 5065   6.778  38.023  14.403
36672W        W 5066  43.363  19.294   1.734
36673W        W 5067  29.157  27.962  12.043
36674W        W 5068   9.457  42.802  11.682
36675W        W 5069  32.508   3.505  11.195
36676W        W 5070   7.972  12.735   4.382
36677W        W 5071   6.880  30.739  11.347
36678W        W 5072   6.687  26.617  14.206
36679W        W 5073  36.866  12.073  12.141
36680W        W 5074  21.216  34.072   0.543
36681W        W 5075  29.145  36.510   3.573
36682W        W 5076  25.178  22.763  12.019
36683W        W 5077  35.613  25.164  10.901
36684W        W 5078   9.643  33.623   3.808
36685W        W 5079  23.817  37.209   3.789
36686W        W 5080  21.106  24.503  14.944
36687W        W 5081   4.274  11.180  14.361
36688W        W 5082  11.284   9.632   1.135
36689W        W 5083  11.160  32.631  10.581
36690W        W 5084   3.788  40.415  12.791
36691W        W 5085   6.973  38.142   3.659
36692W        W 5086   4.766  25.802   5.006
36693W        W 5087  39.642  12.315  12.957
36694W        W 5088   6.839  29.486   2.299
36695W        W 5089  23.192  22.284  12.044
36696W        W 5090  44.308  21.254  10.575
36697W        W 5091  10.875  42.024  10.715
36698W        W 5092  10.349  10.404   5.027
36699W        W 5093  16.609  37.227  12.922
36700W        W 5094  15.780  39.308   2.289
36701W        W 5095  18.914  12.082  13.415
36702W        W 5096  36.281   3.461  13.998
36703W        W 5097  33.170  12.988   0.888
36704W        W 5098  41.998  24.000   4.358
36705W        W 5099  37.896   8.397  12.552
36706W        W 5100   8.284  41.826   3.595
36707W        W 5101   9.201  25.145   1.856
36708W        W 5102  24.741  21.816  13.794
36709W        W 5103  22.017  26.911   1.698
36710W        W 5104  11.283  10.918  13.944
36711W        W 5105  18.259  13.614  11.596
36712W        W 5106  40.330   4.395   2.896
36713W        W 5107  14.737  44.812   1.901
36714W        W 5108   9.654  42.546   4.441
36715W        W 5109  29.348   2.361  12.426
36716W        W 5110  42.535  34.866   1.564
36717W        W 5111  24.475  18.131   0.268
36718W        W 5112   5.715  40.784  14.381
36719W        W 5113  37.111  29.655  11.092
36720W        W 5114  12.914  31.065   1.244
36721W        W 5115  36.473  19.500  13.900
36722W        W 5116  16.988  27.588  10.880
36723W        W 5117  10.300  13.055  10.130
36724W        W 5118  37.039  15.659   1.649
36725W        W 5119  39.218  25.058  11.921
36726W        W 5120  29.166  10.126   1.750
36727W        W 5121  20.723   4.930   2.697
36728W        W 5122  27.969  17.947  10.802
36729W        W 5123  16.697  33.097   0.812
36730W        W 5124  28.879   0.887  13.891
36731W        W 5125   6.826  28.981  11.586
36732W        W 5126   3.623  25.175   4.765
36733W        W 5127  31.652  23.763   4.603
36734W        W 5128   8.271  12.785   2.294
36735W        W 5129   9.036  41.514  13.491
36736W        W 5130  41.391  35.265   3.710
36737W        W 5131  28.455   7.152  10.588
36738W        W 5132   0.286  14.829  10.816
36739W        W 5133  37.554   8.452   4.070
36740W        W 5134   1.349   6.186   3.209
36741W        W 5135  15.845  42.286  13.370
36742W        W 5136  28.934  20.683   2.065
36743W        W 5137   2.371  21.735   1.760
36744W        W 5138  43.919  22.890   4.818
36745W        W 5139   3.819  43.278  12.089
36746W        W 5140  21.964  17.302   4.518
36747W        W 5141   3.554   0.477   0.420
36748W        W 5142  32.472  26.431   3.171
36749W        W 5143   8.805   1.050  14.646
36750W        W 5144  35.807  24.460  11.125
36751W        W 5145   4.473  23.808   2.648
36752W        W 5146  39.064   5.445   2.229
36753W        W 5147  26.952  36.835  11.153
36754W        W 5148   8.166  14.077   4.942
36755W        W 5149  25.878   7.063   1.237
36756W        W 5150  24.210  29.701  12.942
36757W        W 5151  14.525  20.002   3.153
36758W        W 5152  23.871   9.807   2.672
36759W        W 5153  15.040  35.168  14.019
36760W        W 5154  22.252   4.836   2.203
36761W        W 5155  18.211  38.308  14.928
36762W        W 5156  10.421  38.599   3.380
36763W        W 5157  19.928   9.541  13.834
36764W        W 5158   8.387  16.778  10.995
36765W        W 5159  19.001  24.477  10.896
36766W        W 5160   8.884   0.264  12.805
36767W        W 5161  42.215   5.295  13.012
36768W        W 5162  17.627  25.647  10.563
36769W        W 5163  26.493  35.451   4.337
36770W        W 5164  13.846  11.136   2.368
36771W        W 5165  32.332  12.251   0.880
36772W        W 5166  31.088  28.033  11.174
36773W        W 5167  35.145  16.353  12.451
36774W        W 5168  20.001  38.600  11.751
36775W        W 5169   9.364   1.497  11.475
36776W        W 5170   1.510  42.102  13.091
36777W        W 5171  17.770   7.837   1.342
36778W        W 5172   6.698  32.400  11.180
36779W        W 5173   2.445  39.615   0.008
36780W        W 5174  12.603  28.744   0.539
36781W        W 5175  15.790   5.251   2.604
36782W        W 5176  34.469  16.089   4.485
36783W        W 5177   5.711  24.163  14.406
36784W        W 5178  13.700  11.158  13.930
36785W        W 5179   8.491   7.803   4.685
36786W        W 5180   5.650  26.051   2.349
36787W        W 5181  43.724  40.833  11.016
36788W        W 5182  29.561  33.955  11.922
36789W        W 5183  34.927  29.360   3.625
36790W        W 5184  25.610  38.874  14.291
36791W        W 5185  33.044  13.899   0.902
36792W        W 5186   2.080   5.438   3.155
36793W        W 5187   8.417  27.256  12.811
36794W        W 5188  29.434  33.337   0.265
36795W        W 5189   1.830  34.974   2.651
36796W        W 5190   9.684  44.730   1.336
36797W        W 5191  34.487  14.787   3.672
36798W        W 5192  26.243  28.153  13.008
36799W        W 5193  25.326   0.771   3.630
36800W        W 5194  19.079   1.740  14.482
36801W        W 5195  14.243  31.079  14.419
36802W        W 5196  22.271  32.267  12.006
36803W        W 5197  25.811  35.917   4.945
36804W        W 5198  35.172  29.704  11.217
36805W        W 5199  17.170  35.198  14.195
36806W        W 5200  30.897  31.858   0.743
36807W        W 5201   6.645  34.350  12.797
36808W        W 5202  24.869  27.928  14.459
36809W        W 5203  40.437  24.174   4.159
36810W        W 5204   6.537  42.562   3.662
36811W        W 5205  15.341  29.557  14.440
36812W        W 5206  36.773  40.432  11.684
36813W        W 5207  26.444  10.122   5.489
36814W        W 5208   0.389   3.332  11.020
36815W        W 5209  42.260   2.914  12.084
36816W        W 5210  31.908  39.210  13.095
36817W        W 5211  22.170  29.860  12.607
36818W        W 5212  38.090  10.817  12.846
36819W        W 5213  42.905  44.468   1.167
36820W        W 5214  15.374   2.367   0.938
36821W        W 5215  14.743  13.857  10.763
36822W        W 5216  21.968  26.147  14.830
36823W        W 5217  19.807  16.332   2.115
36824W        W 5218  25.537   7.621   4.383
36825W        W 5219  18.817   3.059  12.223
36826W        W 5220  26.051  11.483   9.881
36827W        W 5221   3.199  41.521   3.748
36828W        W 5222  15.355   7.106  13.906
36829W        W 5223  29.085   8.227  14.844
36830W        W 5224   7.473  16.846   3.771
36831W        W 5225  31.871  19.961   0.858
36832W        W 5226  38.372  13.198   3.630
36833W        W 5227  37.499  40.138   1.799
36834W        W 5228  24.678  34.676  14.609
36835W        W 5229  36.480  41.025  13.315
36836W        W 5230  34.555  41.955   0.076
36837W        W 5231   2.846  12.174   0.084
36838W        W 5232   0.453  23.984   0.104
36839W        W 5233  29.892  13.590  14.547
36840W        W 5234  39.297   4.151   3.774
36841W        W 5235  43.911   4.430  14.362
36842W        W 5236   4.143   8.871   4.021
36843W        W 5237  36.772  20.387  12.491
36844W        W 5238   7.833  29.616   1.308
36845W        W 5239  17.761  30.463   4.165
36846W        W 5240  19.098  19.910  10.460
36847W        W 5241   8.821  39.922  14.957
36848W        W 5242  28.976  33.044   4.143
36849W        W 5243  35.549  32.744  11.082
36850W        W 5244  32.544  35.066  12.588
36851W        W 5245   2.921   3.202   1.380
36852W        W 5246   3.682  23.659  11.487
36853W        W 5247  20.695  43.305   4.098
36854W        W 5248  19.608   5.521  11.231
36855W        W 5249  21.359  24.081   0.370
36856W        W 5250   7.826  40.173   4.060
36857W        W 5251  20.675  17.829   0.919
36858W        W 5252  14.976  20.127  12.654
36859W        W 5253  29.885  38.813  11.663
36860W        W 5254  24.258  28.584   4.674
36861W        W 5255  38.325  18.172  11.669
36862W        W 5256  27.979  18.224   2.835
36863W        W 5257  11.109  44.706  12.662
36864W        W 5258  21.758  14.604   3.756
36865W        W 5259  31.764  18.226   3.338
36866W        W 5260   9.219  28.314   1.362
36867W        W 5261  16.664  31.776  10.295
36868W        W 5262  23.758  17.053  14.539
36869W        W 5263  14.377  19.187  14.721
36870W        W 5264  19.682  29.180   1.449
36871W        W 5265   1.032  33.553   1.116
36872W        W 5266  30.594  10.205   1.013
36873W        W 5267  18.203  37.885   2.182
36874W        W 5268  37.699  16.272  12.767
36875W        W 5269  27.048  25.626   2.922
36876W        W 5270  19.607  12.929  14.902
36877W        W 5271  42.479  42.492   3.265
36878W        W 5272  10.300  31.139   3.263
36879W        W 5273   1.911  13.310   3.211
36880W        W 5274  23.071   7.333   2.724
36881W        W 5275   5.758  12.816  14.876
36882W        W 5276  13.211  32.980  12.095
36883W        W 5277  39.283   4.334   0.756
36884W        W 5278   1.201  36.070  10.628
36885W        W 5279  42.095  30.766   0.716
36886W        W 5280  11.087  27.902  11.070
36887W        W 5281  13.640   3.059   0.973
36888W        W 5282  38.014   9.753   2.732
36889W        W 5283   2.878   5.356  14.712
36890W        W 5284  10.818  19.731   4.099
36891W        W 5285  29.996  44.327  11.115
36892W        W 5286  38.696  31.310  10.418
36893W        W 5287  23.747  15.295   4.181
36894W        W 5288  42.149  37.445  13.974
36895W        W 5289  17.619  27.436   3.090
36896W        W 5290  18.632  18.666   0.783
36897W        W 5291  14.593  39.748   3.781
36898W        W 5292  33.127  15.625  14.537
36899W        W 5293   2.098  13.224  10.067
36900W        W 5294  26.658   5.643  12.876
36901W        W 5295  20.783  28.622  11.542
36902W        W 5296   5.906  12.170  11.109
36903W        W 5297  22.248  15.225  14.547
36904W        W 5298  32.588   9.434   2.720
36905W        W 5299  42.037  28.910  13.838
36906W        W 5300  37.981  19.540  12.873
36907W        W 5301  36.453  14.094   1.622
36908W        W 5302  37.606   6.372  11.318
36909W        W 5303   1.977  24.422  12.429
36910W        W 5304  15.841   5.966   2.238
36911W        W 5305  25.067   0.080  11.619
36912W        W 5306  21.677  15.606   0.330
36913W        W 5307  35.416  20.800  13.409
36914W        W 5308  38.406   2.599   3.868
36915W        W 5309  23.080  34.061  11.135
36916W        W 5310  13.535  35.901   4.159
36917W        W 5311   9.619  23.497  13.491
36918W        W 5312   0.812  22.242   0.811
36919W        W 5313  31.800  35.915   4.147
36920W        W 5314  23.516  34.667   1.828
36921W        W 5315   9.825  18.299   3.829
36922W        W 5316  38.129  34.602   4.211
36923W        W 5317   8.425  42.799   2.198
36924W        W 5318   4.723  32.924   3.240
36925W        W 5319  27.054  22.292  12.938
36926W        W 5320  35.887  20.264   0.286
36927W        W 5321  21.834  40.968  11.766
36928W        W 5322   5.323  39.392  11.477
36929W        W 5323  19.345   0.478   0.825
36930W        W 5324   0.271  36.608   2.880
36931W        W 5325  26.770  22.704   3.729
36932W        W 5326  12.395   4.639  13.591
36933W        W 5327  42.337  42.354   4.638
36934W        W 5328  35.416  10.871  11.626
36935W        W 5329  17.233  24.306  12.365
36936W        W 5330  34.097  12.251   1.791
36937W        W 5331  42.143   8.447  10.697
36938W        W 5332  35.953   2.231   0.347
36939W        W 5333   8.856   3.260  14.183
36940W        W 5334  42.313  37.759   1.322
36941W        W 5335  20.257  25.767  13.308
36942W        W 5336  34.041  11.883   4.362
36943W        W 5337  23.100  30.965   2.754
36944W        W 5338  16.846  26.661  11.206
36945W        W 5339  24.461  20.554  14.460
36946W        W 5340  19.093  30.495  13.708
36947W        W 5341  44.575  33.958  14.961
36948W        W 5342   7.629  25.522  12.989
36949W        W 5343   0.049   1.780  11.614
36950W        W 5344  38.082  29.216  13.442
36951W        W 5345  27.668   2.174   1.357
36952W        W 5346  34.843  34.940   2.819
36953W        W 5347   8.742  42.051   3.726
36954W        W 5348  19.645  17.643   0.445
36955W        W 5349  16.865  41.387   2.469
36956W        W 5350  19.676  27.698  13.395
36957W        W 5351  30.708  42.925   1.041
36958W        W 5352  11.745  43.714   4.132
36959W        W 5353  21.332  25.349   0.497
36960W        W 5354  17.944   6.803   3.070
36961W        W 5355  35.376   9.892   0.316
36962W        W 5356  24.067   5.364   2.116
36963W        W 5357  44.949  36.713   0.255
36964W        W 5358  25.761  22.296   2.850
36965W        W 5359  15.898   2.181  10.781
36966W        W 5360  20.436  30.619   1.736
36967W        W 5361  13.060  25.539   3.587
36968W        W 5362  21.081   6.812   0.004
36969W        W 5363  35.502  21.363   3.221
36970W        W 5364  34.147  38.518   4.638
36971W        W 5365  27.617   0.783   4.171
36972W        W 5366  41.112   0.243   4.807
36973W        W 5367   5.681   8.454  11.906
36974W        W 5368   8.101  31.466  12.940
36975W        W 5369   3.132  37.957   1.695
36976W        W 5370  40.894  35.207   3.625
36977W        W 5371  25.162  11.112   3.623
36978W        W 5372  33.148   4.390  14.860
36979W        W 5373  36.988   7.107  14.396
36980W        W 5374  16.230  27.349  10.952
36981W        W 5375   4.329  38.384   2.171
36982W        W 5376   4.360  24.668   9.667
36983W        W 5377  19.026  31.113  13.037
36984W        W 5378   6.528  22.620  10.362
36985W        W 5379   0.880   8.160   1.707
36986W        W 5380   2.009  30.133  14.407
36987W        W 5381   5.686  43.355  13.411
36988W        W 5382   1.428   5.059   3.668
36989W        W 5383  37.351  17.496   1.402
36990W        W 5384  44.514  26.289   3.296
36991W        W 5385  33.506  21.536  14.856
36992W        W 5386  11.081  36.642   3.149
36993W        W 5387  35.621   3.934   0.737
36994W        W 5388  14.052   1.843   0.927
36995W        W 5389  36.577  22.811   0.786
36996W        W 5390  43.368   2.889   2.338
36997W        W 5391   3.839  32.710  11.649
36998W        W 5392   5.523  17.831  12.550
36999W        W 5393  39.483  18.615   0.997
37000W        W 5394  25.201  12.312   0.937
37001W        W 5395  24.594  33.344   1.363
37002W        W 5396  44.328   0.250   3.811
37003W        W 5397  20.298  38.840  13.323
37004W        W 5398  20.353   2.477  11.906
37005W        W 5399  33.589  33.846   2.285
37006W        W 5400   3.877   9.654   3.749
37007W        W 5401  12.103   0.644  12.886
37008W        W 5402  23.815  27.506  10.720
37009W        W 5403   1.722  38.291   1.934
37010W        W 5404  16.113  25.055  12.112
37011W        W 5405  28.777  19.495  12.007
37012W        W 5406  20.046  24.201   1.848
37013W        W 5407   9.192  16.064  10.830
37014W        W 5408  28.010   3.003  14.455
37015W        W 5409  35.279  15.302   1.697
37016W        W 5410  29.081  32.585  12.940
37017W        W 5411   1.295  26.088  13.312
37018W        W 5412   3.415   5.079  13.709
37019W        W 5413  15.506   8.815  13.018
37020W        W 5414  14.302  29.654  14.932
37021W        W 5415  20.662  36.379  14.511
37022W        W 5416  30.697   2.410  13.896
37023W        W 5417  11.296  19.715   3.868
37024W        W 5418  36.443  32.027   2.676
37025W        W 5419  24.182   9.401   3.810
37026W        W 5420   9.870  17.748  10.912
37027W        W 5421  38.987  25.465  11.666
37028W        W 5422   3.890  40.583  14.250
37029W        W 5423  36.817  14.366  10.161
37030W        W 5424  35.362  44.386  10.713
37031W        W 5425   2.625   7.117   3.156
37032W        W 5426  41.184   4.940   3.656
37033W        W 5427  43.157   6.163  13.043
37034W        W 5428  29.344   5.476  12.019
37035W        W 5429  42.889  36.413   4.486
37036W        W 5430  42.246  11.722   4.231
37037W        W 5431  16.223  37.422   2.709
37038W        W 5432  39.064  17.420  14.099
37039W        W 5433   3.789  25.996  14.771
37040W        W 5434  20.707   9.009   2.157
37041W        W 5435  16.159  21.059  13.830
37042W        W 5436   7.998  33.123  12.564
37043W        W 5437  37.667  41.380   2.373
37044W        W 5438  29.668  24.396   2.332
37045W        W 5439  36.914  16.110   3.398
37046W        W 5440  34.483  11.357   0.299
37047W        W 5441  43.943  42.505  12.984
37048W        W 5442  17.768  28.162   4.576
37049W        W 5443  25.228  21.540   1.683
37050W        W 5444  18.569  16.028  11.107
37051W        W 5445  19.710  14.353  12.090
37052W        W 5446  25.521  25.661   0.027
37053W        W 5447  20.161  39.759  14.594
37054W        W 5448  15.643  42.799  13.345
37055W        W 5449   8.631   0.022   1.834
37056W        W 5450  33.162   2.640   3.898
37057W        W 5451   9.785  33.656  13.001
37058W        W 5452   7.313  20.594  13.008
37059W        W 5453  34.268  27.069   4.013
37060W        W 5454  31.569  42.030   4.081
37061W        W 5455  20.144  39.919   9.781
37062W        W 5456  14.613  20.807   0.376
37063W        W 5457  28.948  43.305   4.561
37064W        W 5458  44.994   0.240   3.606
37065W        W 5459   1.331  19.568   0.332
37066W        W 5460   2.233   7.285  14.524
37067W        W 5461  34.708  41.939  13.492
37068W        W 5462  25.895   9.407  11.660
37069W        W 5463  30.074  10.847  11.645
37070W        W 5464   3.773  26.226  14.297
37071W        W 5465  23.007  38.474   1.865
37072W        W 5466  18.509  29.664   3.251
37073W        W 5467   7.381  15.089   1.121
37074W        W 5468   4.407  31.758   0.745
37075W        W 5469   7.834  19.691   0.873
37076W        W 5470  22.256  26.946  14.907
37077W        W 5471   2.228  15.173  10.598
37078W        W 5472  16.870   8.976   0.527
37079W        W 5473  19.710  33.233   3.148
37080W        W 5474   0.399   0.921   3.634
37081W        W 5475  30.896   8.753   2.860
37082W        W 5476  14.804  19.360   0.424
37083W        W 5477  24.859  19.103  11.073
37084W        W 5478  16.320  34.626   0.444
37085W        W 5479  32.369   1.676  10.957
37086W        W 5480  29.425  16.648  10.692
37087W        W 5481  39.539  22.597  14.222
37088W        W 5482  44.796   2.171   2.909
37089W        W 5483  36.058  27.682  13.408
37090W        W 5484  12.206  31.427  14.806
37091W        W 5485   1.070  30.137   0.510
37092W        W 5486  11.829  21.163   0.825
37093W        W 5487  41.372  40.301   0.474
37094W        W 5488  44.665  14.804  14.759
37095W        W 5489  43.516  17.589   3.066
37096W        W 5490  41.784  44.988  12.053
37097W        W 5491  17.871  13.737  12.991
37098W        W 5492   2.295  21.487   2.204
37099W        W 5493   7.431  14.275   0.067
37100W        W 5494  10.456  40.576  14.459
37101W        W 5495   6.509  26.187   4.091
37102W        W 5496  12.231  35.999   4.926
37103W        W 5497   3.730  20.416  11.525
37104W        W 5498  35.254  12.598   5.045
37105W        W 5499  28.108  35.441  12.411
37106W        W 5500  26.086   9.944  11.752
37107W        W 5501  40.850  43.041  14.503
37108W        W 5502   6.437  43.831  13.346
37109W        W 5503  37.127  17.602  12.897
37110W        W 5504  25.179   6.390  11.864
37111W        W 5505   4.033  12.322   1.172
37112W        W 5506  21.412  31.004  12.671
37113W        W 5507  14.128  12.933  11.451
37114W        W 5508   9.260   6.778  14.556
37115W        W 5509   1.300   5.397  14.780
37116W        W 5510  28.747   0.076  12.526
37117W        W 5511  38.639   5.813  12.081
37118W        W 5512  37.837  29.946  14.094
37119W        W 5513  44.050  29.964  14.149
37120W        W 5514   8.760  17.820  11.642
37121W        W 5515  35.370  30.175  14.017
37122W        W 5516   6.031  18.581   2.188
37123W        W 5517  43.984   2.573  13.436
37124W        W 5518  23.236  27.667   3.679
37125W        W 5519  34.116  28.464   2.339
37126W        W 5520  33.535  22.638  13.045
37127W        W 5521  18.874  21.224   4.992
37128W        W 5522  44.191  19.278  11.627
37129W        W 5523  23.477  22.945  11.650
37130W        W 5524  27.040  28.349   2.275
37131W        W 5525  32.517  25.605   0.807
37132W        W 5526  22.122  22.020  14.944
37133W        W 5527  12.208  44.326   3.711
37134W        W 5528  41.996  16.502  13.429
37135W        W 5529   3.703  40.622   3.218
37136W        W 5530  15.560  41.639   1.821
37137W        W 5531   6.991   2.995  12.552
37138W        W 5532   5.099   4.037   2.220
37139W        W 5533  37.565  28.682  14.040
37140W        W 5534   1.459   3.345   2.162
37141W        W 5535  33.032  22.788   2.866
37142W        W 5536  24.223  12.258   1.691
37143W        W 5537   5.149  32.923  11.940
37144W        W 5538  10.760  43.372   2.366
37145W        W 5539  24.584  22.258  11.399
37146W        W 5540  18.587  37.844   2.691
37147W        W 5541  17.790  41.549  13.373
37148W        W 5542   1.664   2.231   2.667
37149W        W 5543  31.605  39.802  11.785
37150W        W 5544  24.983  19.200   3.898
37151W        W 5545  16.157   2.762  12.924
37152W        W 5546  31.634  42.966   4.104
37153W        W 5547  44.890  21.540  11.361
37154W        W 5548  44.118  14.676  11.467
37155W        W 5549   8.654  31.329   4.392
37156W        W 5550  23.990  30.927   3.210
37157W        W 5551   6.340   7.273  10.961
37158W        W 5552  16.836  21.074   3.246
37159W        W 5553  22.125  27.470   4.600
37160W        W 5554   7.212  37.342  14.826
37161W        W 5555  41.829  43.160   1.781
37162W        W 5556  15.863  18.086   0.809
37163W        W 5557   6.800  33.241  12.084
37164W        W 5558  10.699  16.449  11.218
37165W        W 5559   1.077  22.038  11.023
37166W        W 5560  39.343  35.011  13.095
37167W        W 5561   3.347  22.272  13.821
37168W        W 5562   5.986  16.601   0.850
37169W        W 5563  25.389  22.991  11.167
37170W        W 5564  19.987  30.540  12.350
37171W        W 5565  29.140  13.857   4.662
37172W        W 5566  31.060  26.312   1.768
37173W        W 5567  25.751  19.063   0.788
37174W        W 5568  41.855   1.999   2.738
37175W        W 5569  39.996  16.718  13.418
37176W        W 5570  37.791  36.581  13.398
37177W        W 5571  31.059  21.582  10.502
37178W        W 5572  18.778   7.013  12.452
37179W        W 5573  10.071  39.968   4.271
37180W        W 5574  34.579  19.878  12.166
37181W        W 5575  35.014  18.730   3.270
37182W        W 5576   6.831  14.251  13.027
37183W        W 5577  21.727   3.691   1.928
37184W        W 5578   6.985   5.339   9.883
37185W        W 5579  24.564  44.530  12.400
37186W        W 5580   3.776   5.335   0.441
37187W        W 5581  16.882   5.676  10.305
37188W        W 5582  44.853  24.127   1.468
37189W        W 5583  33.877  39.052  13.216
37190W        W 5584   5.370  28.112   2.179
37191W        W 5585  38.363  28.460   3.402
37192W        W 5586  15.307  30.036   1.369
37193W        W 5587  44.752  22.981   1.267
37194W        W 5588  39.315  10.593   1.806
37195W        W 5589  38.977  35.479   2.413
37196W        W 5590  43.940  39.962   3.852
37197W        W 5591  34.631  31.311   2.911
37198W        W 5592  11.900  22.542   0.710
37199W        W 5593  19.577   3.775   1.503
37200W        W 5594  36.431  42.938   0.906
37201W        W 5595  41.894  35.166  14.936
37202W        W 5596  44.714  32.012  12.642
37203W        W 5597  43.730  30.632  13.531
37204W        W 5598  12.363  12.766   2.461
37205W        W 5599   0.324   3.840  10.691
37206W        W 5600  10.743  42.972  14.593
37207W        W 5601  18.953  14.100  10.662
37208W        W 5602  30.127  21.227   0.037
37209W        W 5603  36.614  41.183  11.925
37210W        W 5604  44.298  35.206  13.444
37211W        W 5605   3.798  37.531  14.783
37212W        W 5606  20.141  34.363  13.572
37213W        W 5607   2.936  30.662  13.951
37214W        W 5608  28.206  39.955   2.396
37215W        W 5609   0.853  27.683  13.414
37216W        W 5610   8.981  27.885   4.324
37217W        W 5611  42.915  10.639  14.823
37218W        W 5612  30.583  20.010   3.578
37219W        W 5613  34.932   4.950   0.009
37220W        W 5614   3.222  35.093  14.292
37221W        W 5615  18.291  36.360   0.951
37222W        W 5616   7.074  15.636  14.431
37223W        W 5617   1.204   8.783  11.945
37224W        W 5618  39.500  28.456   0.901
37225W        W 5619  17.278  30.574   4.311
37226W        W 5620  18.447  25.027  11.556
37227W        W 5621  16.743  33.394   3.926
37228W        W 5622  40.783  40.956  14.709
37229W        W 5623   3.373  16.357   2.094
37230W        W 5624   6.126  39.445  12.902
37231W        W 5625  33.674  23.275  11.805
37232W        W 5626  35.969  34.145   1.167
37233W        W 5627  42.846   3.508  12.565
37234W        W 5628  14.340  44.799   2.734
37235W        W 5629   5.442  21.238   5.089
37236W        W 5630   0.762  12.617   0.734
37237W        W 5631  27.651   1.941  14.409
37238W        W 5632  30.422  16.641  10.486
37239W        W 5633  23.080   8.011  14.052
37240W        W 5634  41.429  32.827   2.317
37241W        W 5635  25.970  34.881  11.425
37242W        W 5636  40.610  31.004  11.630
37243W        W 5637   3.542  41.257  11.951
37244W        W 5638  42.625  10.605  14.313
37245W        W 5639   5.381  17.713  12.076
37246W        W 5640   8.911  20.733   3.193
37247W        W 5641   7.643  28.859   0.761
37248W        W 5642   1.225  34.926  13.957
37249W        W 5643  16.627  34.165   1.970
37250W        W 5644  43.983  15.067   2.100
37251W        W 5645  34.378   8.207  12.858
37252W        W 5646  44.203  30.824  14.341
37253W        W 5647  36.798  33.560   0.679
37254W        W 5648  12.829  16.723  10.761
37255W        W 5649  17.558  36.551  12.193
37256W        W 5650  24.143   8.458   0.854
37257W        W 5651  44.033  28.500  12.031
37258W        W 5652  37.025  19.773  12.036
37259W        W 5653   6.987  37.644   3.812
37260W        W 5654  40.086  10.048  11.593
37261W        W 5655  39.066  27.228  14.151
37262W        W 5656  34.614  24.093   3.348
37263W        W 5657  42.062   8.407   2.804
37264W        W 5658  42.312  23.600  12.155
37265W        W 5659   4.747  16.067   5.346
37266W        W 5660  20.775  19.627  10.850
37267W        W 5661  25.150  24.474   4.844
37268W        W 5662  14.729  26.968   1.466
37269W        W 5663  29.756  37.078   0.496
37270W        W 5664   3.509   8.178  13.189
37271W        W 5665  22.214  38.032  12.030
37272W        W 5666   0.461  26.253   4.053
37273W        W 5667  17.681  13.282   2.631
37274W        W 5668  29.123  14.632   2.683
37275W        W 5669  36.049  10.747  14.640
37276W        W 5670  23.169  20.265  12.225
37277W        W 5671  25.534  16.238   0.042
37278W        W 5672  10.815  31.592   3.667
37279W        W 5673  13.026  30.407  14.461
37280W        W 5674  35.987  32.131   0.978
37281W        W 5675  20.216  38.863  14.199
37282W        W 5676  32.505  14.689  12.374
37283W        W 5677  37.898   1.595   0.057
37284W        W 5678  39.848  16.814   3.703
37285W        W 5679  37.978  19.892  14.508
37286W        W 5680  15.681  19.586  14.067
37287W        W 5681  27.119   3.832  10.687
37288W        W 5682   2.831  34.318  13.926
37289W        W 5683  25.659  25.551   2.445
37290W        W 5684   5.733   7.966   0.694
37291W        W 5685  26.626   2.345  11.261
37292W        W 5686  27.337  27.531   4.101
37293W        W 5687   0.683  37.531  12.570
37294W        W 5688   3.150  22.144   3.657
37295W        W 5689  26.363  25.307   4.388
37296W        W 5690  35.929  43.506  10.653
37297W        W 5691  33.530  43.792  14.881
37298W        W 5692   4.511  34.336   4.166
37299W        W 5693  40.816  16.452   0.795
37300W        W 5694  35.152  43.432  14.784
37301W        W 5695  22.410  37.536  12.042
37302W        W 5696  12.640   7.144  10.247
37303W        W 5697   4.763   7.627  11.129
37304W        W 5698  44.286  10.784   1.782
37305W        W 5699  25.964  36.017   3.593
37306W        W 5700  40.220  28.702  12.404
37307W        W 5701   0.303   1.458   4.802
37308W        W 5702  15.707  20.531   0.643
37309W        W 5703  19.227  26.944  12.022
37310W        W 5704  15.351   6.600  13.975
37311W        W 5705   2.387   0.721  14.122
37312W        W 5706  43.247  35.123  13.851
37313W        W 5707  16.918  20.188   5.478
37314W        W 5708  10.706   9.274  12.784
37315W        W 5709  10.688   0.336  14.880
37316W        W 5710   2.528   1.021   1.781
37317W        W 5711  19.546  12.082  11.014
37318W        W 5712   2.629  26.738   9.965
37319W        W 5713   3.647  31.016  10.639
37320W        W 5714   3.123  43.450  14.212
37321W        W 5715  41.825   4.672   0.520
37322W        W 5716  27.666  15.298   3.713
37323W        W 5717  34.093  17.141  13.561
37324W        W 5718  36.875  16.815  13.747
37325W        W 5719  10.234  23.237  10.050
37326W        W 5720   7.919  21.216   0.492
37327W        W 5721  44.875  43.492  12.742
37328W        W 5722   8.659  26.031   1.231
37329W        W 5723  32.466  32.524  13.025
37330W        W 5724   9.659  37.898   1.695
37331W        W 5725   9.761  42.935   0.799
37332W        W 5726  17.721  26.504  11.081
37333W        W 5727   1.315  29.249  14.987
37334W        W 5728  24.293  33.549   1.741
37335W        W 5729  26.925  20.352   0.976
37336W        W 5730  13.702   4.655   4.285
37337W        W 5731  31.739  27.709  12.865
37338W        W 5732  11.328  35.865   0.386
37339W        W 5733  24.937  25.319  10.894
37340W        W 5734  21.813  25.650   3.092
37341W        W 5735   7.542  23.168  12.166
37342W        W 5736   9.651  20.686   2.394
37343W        W 5737  27.656   9.111  13.406
37344W        W 5738  12.900  14.200   3.370
37345W        W 5739   2.718   3.747  11.098
37346W        W 5740  39.353  43.458  11.954
37347W        W 5741  27.726  31.884   4.559
37348W        W 5742  23.149   8.284  11.659
37349W        W 5743  24.952   5.208  13.518
37350W        W 5744  39.772  30.460   4.530
37351W        W 5745  35.719  19.523   3.835
37352W        W 5746  22.156  43.424   0.827
37353W        W 5747  26.131  36.004   4.429
37354W        W 5748  31.380  38.747   0.241
37355W        W 5749  23.277  17.705  10.603
37356W        W 5750  44.960  34.076  12.563
37357W        W 5751  21.230   5.627   2.357
37358W        W 5752  11.586  44.910  11.465
37359W        W 5753   1.313  33.466   2.748
37360W        W 5754  31.519  35.114  11.575
37361W        W 5755  42.539  28.163   0.444
37362W        W 5756  15.227  32.914  12.607
37363W        W 5757  14.738  27.051  13.914
37364W        W 5758   6.568  34.668  12.385
37365W        W 5759  39.949   3.204  10.999
37366W        W 5760   9.702   5.760  12.029
37367W        W 5761  16.491  25.317   1.748
37368W        W 5762  38.862   3.902   3.698
37369W        W 5763  11.889  18.987   3.154
37370W        W 5764  34.097  37.508  13.570
37371W        W 5765  27.124   4.847  13.896
37372W        W 5766  17.195   6.834   4.594
37373W        W 5767  27.712   6.125  14.216
37374W        W 5768  23.451  21.250   4.784
37375W        W 5769   2.959  19.515  14.104
37376W        W 5770  23.446  25.416   4.657
37377W        W 5771  18.047  10.615  14.047
37378W        W 5772   0.295   0.960   1.923
37379W        W 5773  37.479  27.911   3.298
37380W        W 5774   3.972   0.508  14.356
37381W        W 5775  19.120  41.942   1.429
37382W        W 5776  10.326  24.182  14.286
37383W        W 5777  31.402  30.945  14.382
37384W        W 5778  36.936   9.345  11.665
37385W        W 5779   7.835  24.988  12.382
37386W        W 5780  40.047  21.072   3.860
37387W        W 5781   5.433   3.762   0.740
37388W        W 5782  12.890  43.269  12.087
37389W        W 5783  23.223   1.299   0.782
37390W        W 5784  39.848   5.754   1.832
37391W        W 5785  14.815  40.859   0.832
37392W        W 5786   7.254  15.167  13.959
37393W        W 5787  19.529   5.853  14.844
37394W        W 5788  17.917  19.666  12.408
37395W        W 5789  36.182  24.571  13.871
37396W        W 5790  36.766  19.018   2.779
37397W        W 5791  33.505  22.056  11.100
37398W        W 5792  32.728  12.510   4.743
37399W        W 5793  32.569   9.685   2.274
37400W        W 5794   7.172  34.010   1.510
37401W        W 5795  35.239   7.750  14.534
37402W        W 5796  43.417   4.753  12.619
37403W        W 5797  36.533  27.054  12.833
37404W        W 5798  11.331  40.955  13.438
37405W        W 5799   2.815   4.841   1.494
37406W        W 5800  21.978  10.271  13.280
37407W        W 5801  27.840  10.773  13.124
37408W        W 5802   4.327   3.991  11.360
37409W        W 5803   1.292  16.456   4.113
37410W        W 5804   0.298  39.907  10.466
37411W        W 5805  43.362  12.923  12.001
37412W        W 5806  41.786  10.207   4.499
37413W        W 5807  15.067  35.456   2.740
37414W        W 5808  29.066  41.988  11.187
37415W        W 5809   2.859  18.994  11.804
37416W        W 5810  42.317  32.616   4.070
37417W        W 5811   8.141   8.507  13.898
37418W        W 5812  18.848  16.016   5.052
37419W        W 5813  36.641  16.320  14.501
37420W        W 5814  12.228   4.053   2.807
37421W        W 5815  25.412  18.650  13.006
37422W        W 5816  14.490  23.751   3.831
37423W        W 5817  23.647  36.586  12.015
37424W        W 5818  23.694  23.678  11.106
37425W        W 5819  26.984  26.897   4.516
37426W        W 5820  43.481  28.987  11.737
37427W        W 5821  38.928  29.333   1.723
37428W        W 5822  43.288  44.071   4.595
37429W        W 5823  44.909  22.933   2.936
37430W        W 5824  25.039   4.411  10.900
37431W        W 5825  11.851  20.189  13.541
37432W        W 5826  26.962  31.190   1.851
37433W        W 5827   2.794  32.719  14.501
37434W        W 5828  42.398  17.526   2.620
37435W        W 5829  15.172  43.936   1.574
37436W        W 5830  14.191  18.455   5.146
37437W        W 5831  12.709  31.132  14.553
37438W        W 5832  13.552  31.736   0.686
37439W        W 5833  16.220  30.733  14.196
37440W        W 5834   0.625  43.401  11.178
37441W        W 5835   7.420   9.453  11.478
37442W        W 5836   9.873  36.658   0.723
37443W        W 5837  16.108  34.370   4.333
37444W        W 5838   4.419  38.973   3.174
37445W        W 5839  39.907  29.255   1.730
37446W        W 5840  23.812  30.398   1.978
37447W        W 5841  18.283  33.267  11.458
37448W        W 5842   1.160  40.904  10.796
37449W        W 5843   3.652  17.840   2.744
37450W        W 5844  24.222  15.036   0.867
37451W        W 5845  44.788  25.872   2.783
37452W        W 5846  24.117  12.182   0.342
37453W        W 5847  15.333   8.888   0.435
37454W        W 5848   7.003  38.295  13.511
37455W        W 5849  26.481   9.948   4.760
37456W        W 5850  33.985  20.580  11.307
37457W        W 5851   2.895  13.784   1.059
37458W        W 5852  23.273  35.451   2.018
37459W        W 5853  41.329  10.641   0.563
37460W        W 5854  40.544  21.625   0.303
37461W        W 5855  15.408   8.474   4.908
37462W        W 5856  35.018  36.007   2.706
37463W        W 5857  37.896  28.708   4.131
37464W        W 5858  16.868  33.424   2.210
37465W        W 5859  22.035  29.632   4.149
37466W        W 5860  33.920   9.710  14.070
37467W        W 5861  21.811  43.787  14.533
37468W        W 5862  44.352  24.953  12.395
37469W        W 5863  22.751  24.836  13.804
37470W        W 5864  18.197   1.870  12.099
37471W        W 5865   2.628  15.021  14.222
37472W        W 5866  33.983  29.844   0.335
37473W        W 5867  16.200  22.754   0.332
37474W        W 5868   3.005   0.966   2.696
37475W        W 5869  23.125   9.604   3.236
37476W        W 5870  26.947  31.991  12.284
37477W        W 5871  33.420  31.644  13.919
37478W        W 5872  19.756  12.332  14.091
37479W        W 5873   5.352  10.412   1.443
37480W        W 5874  33.800   7.273  10.389
37481W        W 5875   3.916  41.404   2.647
37482W        W 5876   3.749   8.748   0.403
37483W        W 5877  11.803  40.566   3.140
37484W        W 5878  16.696  18.267   2.237
37485W        W 5879   8.949  42.053  13.573
37486W        W 5880   2.166  40.998  13.231
37487W        W 5881  24.626   2.913  11.525
37488W        W 5882  28.403   6.466   2.669
37489W        W 5883  28.513  36.555  11.122
37490W        W 5884  27.682  35.360  13.991
37491W        W 5885  40.015  39.995  12.684
37492W        W 5886  36.774   9.848   4.186
37493W        W 5887  11.094   2.478   1.560
37494W        W 5888  40.321  25.940   1.260
37495W        W 5889   1.749   1.032  11.593
37496W        W 5890  28.140   9.246  12.044
37497W        W 5891  19.677  21.747  13.148
37498W        W 5892  39.608   8.141   2.412
37499W        W 5893  36.877  37.950   1.742
37500W        W 5894  10.605  19.204   1.961
37501W        W 5895   3.961  43.780   0.312
37502W        W 5896  19.866  25.052   0.386
37503W        W 5897  15.819  23.728  12.439
37504W        W 5898  18.695   7.618  10.353
37505W        W 5899  43.734  28.261   3.118
37506W        W 5900  33.901  14.340  13.465
37507W        W 5901  10.785  40.261   2.224
37508W        W 5902  21.499  11.094  13.411
37509W        W 5903   4.801  42.491   0.340
37510W        W 5904  12.728  21.608  13.106
37511W        W 5905  18.206   0.862  11.526
37512W        W 5906  31.820  26.164   0.358
37513W        W 5907   0.959   8.124  11.644
37514W        W 5908  17.157  21.851  14.972
37515W        W 5909  31.996   9.325  14.747
37516W        W 5910  39.841   2.725  12.027
37517W        W 5911  21.489   0.997   1.468
37518W        W 5912  29.709   8.850  10.289
37519W        W 5913  22.932  35.415   3.357
37520W        W 5914  11.611  32.384  10.689
37521W        W 5915   4.970  20.148  11.068
37522W        W 5916  34.013  32.801   2.749
37523W        W 5917  14.816  42.059  10.403
37524W        W 5918  26.358  20.149   1.671
37525W        W 5919  36.324  13.680  10.765
37526W        W 5920   2.184  17.261   4.165
37527W        W 5921  18.668  35.480  11.267
37528W        W 5922  22.558  39.440  12.793
37529W        W 5923  30.374  14.182   2.773
37530W        W 5924  18.701  30.066   0.653
37531W        W 5925  25.579  14.660   3.658
37532W        W 5926   1.087  41.287  14.740
37533W        W 5927  42.300  40.459   1.445
37534W        W 5928  31.616  11.425   0.489
37535W        W 5929  19.307  12.129   0.253
37536W        W 5930  21.571  34.291  12.041
37537W        W 5931  33.809  16.698  14.760
37538W        W 5932  14.098  12.874  14.928
37539W        W 5933  12.105  17.844  13.641
37540W        W 5934   0.121  14.671  14.020
37541W        W 5935  24.648  20.578   4.635
37542W        W 5936   2.489  36.871  14.280
37543W        W 5937   0.462   4.529   0.366
37544W        W 5938  24.427   8.859   1.774
37545W        W 5939  42.980  37.887   0.434
37546W        W 5940  40.526  20.124   4.417
37547W        W 5941  11.530  36.799   3.799
37548W        W 5942  26.076  24.799   1.216
37549W        W 5943  22.698   2.759   0.351
37550W        W 5944  35.781   8.236   0.675
37551W        W 5945   7.063  23.100   1.870
37552W        W 5946  22.155   7.688   3.080
37553W        W 5947  33.025  30.699   1.217
37554W        W 5948  33.844  25.538   1.872
37555W        W 5949  31.555  30.636   3.277
37556W        W 5950  29.097  14.219  11.713
37557W        W 5951  16.905  38.915  11.087
37558W        W 5952  29.888   5.677   1.240
37559W        W 5953  23.199  31.329  12.092
37560W        W 5954  23.122  26.095   4.723
37561W        W 5955   4.107   3.567   9.861
37562W        W 5956  26.082  15.536   4.070
37563W        W 5957  42.895  33.091  12.280
37564W        W 5958  15.026  39.088  10.694
37565W        W 5959  33.667  33.498  10.977
37566W        W 5960  16.908  36.846   3.168
37567W        W 5961  13.812  32.807   2.865
37568W        W 5962  26.108   7.089  12.316
37569W        W 5963  22.478  33.544  12.094
37570W        W 5964  27.740   0.267  12.089
37571W        W 5965  31.853  43.258   0.809
37572W        W 5966  36.877  18.560  11.055
37573W        W 5967   8.398  44.416  12.095
37574W        W 5968  42.012  33.882   0.541
37575W        W 5969  24.082  41.517   3.752
37576W        W 5970  42.865  37.570   4.015
37577W        W 5971   6.520  29.993  13.357
37578W        W 5972   7.258  36.597  10.729
37579W        W 5973  23.620  12.540   2.909
37580W        W 5974  31.003  39.838   3.316
37581W        W 5975  11.921   1.734   4.690
37582W        W 5976  37.840  40.058  12.933
37583W        W 5977  11.219  32.612   3.566
37584W        W 5978  41.383  12.246   3.236
37585W        W 5979  41.747  24.415   5.061
37586W        W 5980  33.094  19.231  12.563
37587W        W 5981   4.366  26.744  11.563
37588W        W 5982   3.735  18.167   3.193
37589W        W 5983  23.206   9.127   1.744
37590W        W 5984   9.108  17.711   3.890
37591W        W 5985  36.617  33.641  11.590
37592W        W 5986  21.544  18.321  14.040
37593W        W 5987  39.120  41.564  12.939
37594W        W 5988  10.186  13.692   3.655
37595W        W 5989  11.843  33.180  14.941
37596W        W 5990   6.850  25.991  13.265
37597W        W 5991  37.575  28.034   5.069
37598W        W 5992  32.150  29.946   0.719
37599W        W 5993  10.815  11.295   4.143
37600W        W 5994   4.092  38.841   2.191
37601W        W 5995   9.485   0.273  10.935
37602W        W 5996  31.941   2.971   0.952
37603W        W 5997  12.870   0.878  11.132
37604W        W 5998  33.381  10.400  14.886
37605W        W 5999  36.034  14.728   2.898
37606W        W 6000  14.840  38.025   2.254
37607W        W 6001  35.805  27.442  10.907
37608W        W 6002  21.595  28.854   1.918
37609W        W 6003  27.428  21.231  11.450
37610W        W 6004  17.238  31.477  12.832
37611W        W 6005   7.922  16.101  13.474
37612W        W 6006  38.970  31.547  14.839
37613W        W 6007  17.975   9.341  12.199
37614W        W 6008  32.122  17.999   0.428
37615W        W 6009  42.699   7.239  11.187
37616W        W 6010   0.232  19.684   1.346
37617W        W 6011  10.327  34.357   4.848
37618W        W 6012   9.908  13.254   3.774
37619W        W 6013  42.741  37.799  11.624
37620W        W 6014  11.579  36.775  13.901
37621W        W 6015  24.113  18.695  14.121
37622W        W 6016  28.648   5.416   4.924
37623W        W 6017  41.379  22.062   0.326
37624W        W 6018   7.587  25.194  13.405
37625W        W 6019  42.275  27.907  13.945
37626W        W 6020   7.400  35.776   2.761
37627W        W 6021   9.996   9.875  10.632
37628W        W 6022  40.752  23.552  10.432
37629W        W 6023   9.121  19.587   2.795
37630W        W 6024  40.451  31.070   4.739
37631W        W 6025  38.083  29.161   2.374
37632W        W 6026  40.309  10.320  12.599
37633W        W 6027  11.857  30.893   2.225
37634W        W 6028  44.359  20.710  12.096
37635W        W 6029  39.108  11.146  11.615
37636W        W 6030   3.239  44.451  11.048
37637W        W 6031  13.258  19.944  10.539
37638W        W 6032   1.784   8.757   4.501
37639W        W 6033  24.137  42.717   1.424
37640W        W 6034  40.596  37.661   0.977
37641W        W 6035   7.833   0.952  12.619
37642W        W 6036   2.843  17.555  11.724
37643W        W 6037  36.995   7.821   3.383
37644W        W 6038  12.755  15.180  11.179
37645W        W 6039   5.287   8.849  10.564
37646W        W 6040  18.337  40.311   4.126
37647W        W 6041  12.791  37.878  12.481
37648W        W 6042  17.956  31.881  14.870
37649W        W 6043  16.399  38.151  10.866
37650W        W 6044  44.595  38.044   4.180
37651W        W 6045  31.104  38.488  11.344
37652W        W 6046  21.789  29.206   2.874
37653W        W 6047  34.230  33.904   2.071
37654W        W 6048  27.443  38.115   1.338
37655W        W 6049  43.443   4.919   0.756
37656W        W 6050  38.144  15.772  11.631
37657W        W 6051  37.547  34.891  11.540
37658W        W 6052  32.589  21.836  11.519
37659W        W 6053  15.534  36.668  10.647
37660W        W 6054  43.291   3.108  10.392
37661W        W 6055  32.704  34.557  10.953
37662W        W 6056  17.205  30.455   0.027
37663W        W 6057  38.043  21.788   4.783
37664W        W 6058  26.577  25.130  13.874
37665W        W 6059  10.644   5.454   4.903
37666W        W 6060  44.240  25.107  11.501
37667W        W 6061  35.908   9.463  13.164
37668W        W 6062   1.254   6.701   1.245
37669W        W 6063  14.142  33.739   1.364
37670W        W 6064   7.502  27.062   2.039
37671W        W 6065  25.511  23.798   1.928
37672W        W 6066  24.216  40.336   2.160
37673W        W 6067  37.882  31.193   0.296
37674W        W 6068  36.564  36.470   4.178
37675W        W 6069   0.488   8.321  11.477
37676W        W 6070   6.817  41.056   0.439
37677W        W 6071   6.195  19.626  10.504
37678W        W 6072   2.354   3.378   0.498
37679W        W 6073  19.823   8.373  12.059
37680W        W 6074  33.152  21.677  12.459
37681W        W 6075   6.419   2.931  12.453
37682W        W 6076   6.897   2.637  13.358
37683W        W 6077  19.525  38.551  11.081
37684W        W 6078  19.557  40.143   4.231
37685W        W 6079  28.152  26.288   3.092
37686W        W 6080  28.369   8.631  12.387
37687W        W 6081  10.445  13.066  13.507
37688W        W 6082  44.968  11.379  11.988
37689W        W 6083  20.315  39.168   4.149
37690W        W 6084  37.752  21.741  14.141
37691W        W 6085  14.290  43.935   2.853
37692W        W 6086  20.184  37.569  12.389
37693W        W 6087  28.948  26.131   2.201
37694W        W 6088   8.231   8.337  13.404
37695W        W 6089  26.531  32.044   2.212
37696W        W 6090  39.019  23.689  11.174
37697W        W 6091   6.683  21.635  11.105
37698W        W 6092  10.107  21.555   2.957
37699W        W 6093  28.601  39.727  12.369
37700W        W 6094  29.392  14.256   2.932
37701W        W 6095  23.135  38.371   0.345
37702W        W 6096  34.565  16.561   3.161
37703W        W 6097   3.651   5.725   2.722
37704W        W 6098  40.817  16.522   3.102
37705W        W 6099  33.374   0.936   1.816
37706W        W 6100  28.417  18.149  10.690
37707W        W 6101  29.325  40.550  13.057
37708W        W 6102  26.067  40.690   0.872
37709W        W 6103   9.358   1.930  14.465
37710W        W 6104   0.492   9.351   1.762
37711W        W 6105  44.992  12.054  11.152
37712W        W 6106  42.170   1.723   1.298
37713W        W 6107   3.424   5.234  12.820
37714W        W 6108  40.298  12.440   4.178
37715W        W 6109  14.590  38.009   0.361
37716W        W 6110   9.192  13.609  10.759
37717W        W 6111  11.667  12.763  13.666
37718W        W 6112   1.935  32.010   4.098
37719W        W 6113  34.606   3.363   3.857
37720W        W 6114  14.555   7.380   3.145
37721W        W 6115  14.611  38.388   1.388
37722W        W 6116  33.257  30.186   3.811
37723W        W 6117  40.329  15.225  10.674
37724W        W 6118  30.999   1.844  11.656
37725W        W 6119   4.935  37.319  10.851
37726W        W 6120  40.768  41.420  14.458
37727W        W 6121  20.266  36.078  12.114
37728W        W 6122  44.431   8.716   3.678
37729W        W 6123  38.821   7.426   2.879
37730W        W 6124   6.762  11.009   0.229
37731W        W 6125   0.392  22.820   4.536
37732W        W 6126  22.526  36.446   5.014
37733W        W 6127   3.449  41.913   1.804
37734W        W 6128  12.485  17.723   3.348
37735W        W 6129  15.529  15.745  11.515
37736W        W 6130  15.764  34.581  12.207
37737W        W 6131  26.181  42.906   5.753
37738W        W 6132  31.981  27.384   2.796
37739W        W 6133  35.306  17.784   2.233
37740W        W 6134   0.905   9.378  10.675
37741W        W 6135  37.368  40.517  13.603
37742W        W 6136  22.822  17.194   4.949
37743W        W 6137   5.212  31.106  11.231
37744W        W 6138  26.710  36.995  14.398
37745W        W 6139   3.930  21.200   3.259
37746W        W 6140  24.371  33.098  14.050
37747W        W 6141  33.030  34.396  12.603
37748W        W 6142   5.986  26.196   4.154
37749W        W 6143  26.606   1.043   1.923
37750W        W 6144  13.668  30.850  12.875
37751W        W 6145  44.855  22.776   4.186
37752W        W 6146  23.584  11.377  12.531
37753W        W 6147  28.452  31.663  12.980
37754W        W 6148  44.396   6.607  11.586
37755W        W 6149   2.114   3.251  14.460
37756W        W 6150  36.796  29.620  11.524
37757W        W 6151  34.845   6.579  10.651
37758W        W 6152  32.422  43.790  11.143
37759W        W 6153  14.112  31.042   1.799
37760W        W 6154   0.259  28.168  11.313
37761W        W 6155  38.378   5.959   1.872
37762W        W 6156   8.457  40.915   3.967
37763W        W 6157  36.812  31.575   4.434
37764W        W 6158  31.489  10.717  13.554
37765W        W 6159   2.052  18.391   4.608
37766W        W 6160  31.983   1.873  10.607
37767W        W 6161   6.594  26.170  10.387
37768W        W 6162   1.768  16.646   2.180
37769W        W 6163  40.086  32.492   2.750
37770W        W 6164   5.632  23.333  10.973
37771W        W 6165  42.765  27.239  13.895
37772W        W 6166  36.949  36.775   2.696
37773W        W 6167  39.850  36.635  14.820
37774W        W 6168  36.952  27.759  12.910
37775W        W 6169  20.221  40.050   1.252
37776W        W 6170  32.448  17.786  12.934
37777W        W 6171  42.752   9.619   3.204
37778W        W 6172  17.410  21.105   1.052
37779W        W 6173  12.077  34.497   2.870
37780W        W 6174   4.795  20.205  13.322
37781W        W 6175  33.126  22.993  11.205
37782W        W 6176  36.373  22.784  14.459
37783W        W 6177  19.300   0.305  14.463
37784W        W 6178  15.369  31.334  11.929
37785W        W 6179  16.780  19.611  11.472
37786W        W 6180   5.235  24.105   9.867
37787W        W 6181   9.369  42.150  14.277
37788W        W 6182  41.267  17.531  13.967
37789W        W 6183  35.982  14.580  13.831
37790W        W 6184  16.172  25.705   3.322
37791W        W 6185  43.486  24.985  12.589
37792W        W 6186  25.732  34.224   3.808
37793W        W 6187   2.490   7.993  10.700
37794W        W 6188  31.730  43.425   1.666
37795W        W 6189  31.331  33.337  12.848
37796W        W 6190  40.780   1.471  12.134
37797W        W 6191  40.686  25.425  11.223
37798W        W 6192  28.418  26.462   0.916
37799W        W 6193  15.168  33.421  12.649
37800W        W 6194   9.093  33.307  11.931
37801W        W 6195  31.444   8.408   2.772
37802W        W 6196  44.457  37.526  11.280
37803W        W 6197   9.270  40.303  10.816
37804W        W 6198  32.079  35.670  13.920
37805W        W 6199  10.416  32.376  14.208
37806W        W 6200  22.555  29.119   4.673
37807W        W 6201  37.824  30.114  11.536
37808W        W 6202  23.435  38.313  13.273
37809W        W 6203  29.741  35.481  12.458
37810W        W 6204   6.889  24.273  14.964
37811W        W 6205  24.500  23.642  13.134
37812W        W 6206  33.262  32.898   0.891
37813W        W 6207  14.660  19.288  13.877
37814W        W 6208  35.028  17.287   4.620
37815W        W 6209  29.853   5.432   0.190
37816W        W 6210   6.198  40.802   0.366
37817W        W 6211  15.088  30.607   2.494
37818W        W 6212   3.289  32.412   1.169
37819W        W 6213  42.877  21.107   0.043
37820W        W 6214  20.221  39.258   4.963
37821W        W 6215  35.332  33.992  12.520
37822W        W 6216  25.646  15.248  12.414
37823W        W 6217  36.313  33.201   1.803
37824W        W 6218  17.211  35.177   3.742
37825W        W 6219  44.393  37.433  11.787
37826W        W 6220  34.311  33.992  11.338
37827W        W 6221  18.190  30.487  10.935
37828W        W 6222  23.115  31.825   1.482
37829W        W 6223  34.878  30.692  12.225
37830W        W 6224  10.569  15.185  11.226
37831W        W 6225  11.680  17.319  10.216
37832W        W 6226  28.589  15.806   1.150
37833W        W 6227  19.450  16.126  11.410
37834W        W 6228   0.654  43.581  10.701
37835W        W 6229  34.696   7.789  14.956
37836W        W 6230  41.777  33.410  12.561
37837W        W 6231  11.903  29.558  13.951
37838W        W 6232  39.697   8.018  11.681
37839W        W 6233  18.151  19.153  14.666
37840W        W 6234  27.980  31.956   4.099
37841W        W 6235  34.398   4.184  13.723
37842W        W 6236  25.948   1.482   4.594
37843W        W 6237  42.792   3.597   4.035
37844W        W 6238  36.280  24.414   0.220
37845W        W 6239  20.192  29.732  14.923
37846W        W 6240  14.370  11.693   2.797
37847W        W 6241  39.016  20.139   3.357
37848W        W 6242  29.254  26.482   4.579
37849W        W 6243  11.443  18.729  11.213
37850W        W 6244  22.385   4.768   4.124
37851W        W 6245  42.942   8.764  11.643
37852W        W 6246  43.542  31.938  13.182
37853W        W 6247   9.709   4.339   0.306
37854W        W 6248  38.517  18.815   0.729
37855W        W 6249  14.568  32.219  14.835
37856W        W 6250  31.606   0.502  10.657
37857W        W 6251  11.155  17.568   4.742
37858W        W 6252  16.226  37.859  12.589
37859W        W 6253   0.386  24.013   4.571
37860W        W 6254   6.893   9.204  12.153
37861W        W 6255  15.814  11.205  10.706
37862W        W 6256   8.062  17.986  14.999
37863W        W 6257  26.818  41.726  13.664
37864W        W 6258   1.698  27.119  12.528
37865W        W 6259  13.327  16.639  12.017
37866W        W 6260  40.589  41.622   0.868
37867W        W 6261   4.311   1.876   2.262
37868W        W 6262  27.639  16.836  11.168
37869W        W 6263  35.072  14.984  12.735
37870W        W 6264  17.080  34.419   3.186
37871W        W 6265  23.175  42.128  10.737
37872W        W 6266  36.009  29.392  14.094
37873W        W 6267   3.403  17.954  12.925
37874W        W 6268  33.086  27.604  14.278
37875W        W 6269   4.216  39.097  12.499
37876W        W 6270  11.773   2.830  10.747
37877W        W 6271   3.625  34.631  12.980
37878W        W 6272  44.593   6.466  14.033
37879W        W 6273  36.945  31.618   0.463
37880W        W 6274  35.900  44.773   1.900
37881W        W 6275   4.793  27.716  14.726
37882W        W 6276  41.817  39.494  12.598
37883W        W 6277  29.387  16.126   2.640
37884W        W 6278  17.209   7.332  14.770
37885W        W 6279  40.616  26.803  13.348
37886W        W 6280  24.639  22.542  14.519
37887W        W 6281  11.392  37.630   1.406
37888W        W 6282  43.553  37.906   1.961
37889W        W 6283   1.362   7.604  14.350
37890W        W 6284  29.667  35.587   1.312
37891W        W 6285   5.761  42.568   0.495
37892W        W 6286  32.362  26.468   2.600
37893W        W 6287   1.456   5.766  11.619
37894W        W 6288  31.195  40.352  13.476
37895W        W 6289  35.346   4.676   3.705
37896W        W 6290  43.447  37.619  13.808
37897W        W 6291  39.150  44.735  13.497
37898W        W 6292   1.166  15.632  13.458
37899W        W 6293  43.469  37.083  13.788
37900W        W 6294  23.591  35.163   1.744
37901W        W 6295  35.891   9.160   3.450
37902W        W 6296  37.433  43.038   3.083
37903W        W 6297   7.121  16.877  11.676
37904W        W 6298  25.160  32.478   2.720
37905W        W 6299  29.595  41.970  13.431
37906W        W 6300  36.595  28.852  13.429
37907W        W 6301  17.940  17.610  10.801
37908W        W 6302  21.559  20.950   3.396
37909W        W 6303  23.700   4.436  11.469
37910W        W 6304   4.214  40.847  13.445
37911W        W 6305  41.273  15.344  11.727
37912W        W 6306  21.303  36.977   0.653
37913W        W 6307  12.957   2.477  11.516
37914W        W 6308  44.001  20.572  10.732
37915W        W 6309  35.669  31.411  14.771
37916W        W 6310  11.839  21.507   4.322
37917W        W 6311   6.112  26.509   2.652
37918W        W 6312   0.474  36.629  10.184
37919W        W 6313  26.817   9.330  14.374
37920W        W 6314  39.519   6.899   1.805
37921W        W 6315  34.980  29.155  14.254
37922W        W 6316  21.271  22.195  12.964
37923W        W 6317  37.180  17.665  13.839
37924W        W 6318  33.088  43.323   1.264
37925W        W 6319  17.567   7.313  14.371
37926W        W 6320  28.652  22.474  11.113
37927W        W 6321  25.928   3.574   3.633
37928W        W 6322  24.204  17.185   1.001
37929W        W 6323  43.248   3.780  13.288
37930W        W 6324   5.210  23.040  10.956
37931W        W 6325  40.379   0.759   2.121
37932W        W 6326  42.473  30.436  11.579
37933W        W 6327  27.076  37.500  13.379
37934W        W 6328  24.697  17.205   1.938
37935W        W 6329  36.529  36.590  13.048
37936W        W 6330   5.275   1.469  11.687
37937W        W 6331  22.207   2.485  12.214
37938W        W 6332  27.684  30.728  14.300
37939W        W 6333  44.801   9.420  14.555
37940W        W 6334  14.076  37.480  11.142
37941W        W 6335  36.959  21.776   3.359
37942W        W 6336   1.837  18.043   2.901
37943W        W 6337  30.350  30.508   3.861
37944W        W 6338  35.382   7.332   4.692
37945W        W 6339  13.652   7.315   0.050
37946W        W 6340  38.026  36.864   4.177
37947W        W 6341  10.062   9.710   0.136
37948W        W 6342  28.610  14.361  11.563
37949W        W 6343  27.869  11.432  12.589
37950W        W 6344  25.765  21.205  13.395
37951W        W 6345  38.779  44.911  13.883
37952W        W 6346  38.412   9.181  11.680
37953W        W 6347  18.819   4.145   1.747
37954W        W 6348   3.440  35.943  13.829
37955W        W 6349  21.851  39.306   0.831
37956W        W 6350  38.100  11.348   2.119
37957W        W 6351  24.604  34.530  11.085
37958W        W 6352   8.361  25.143  11.654
37959W        W 6353   3.881  16.442   2.004
37960W        W 6354  14.841  22.568  13.284
37961W        W 6355  26.588  17.211   2.126
37962W        W 6356  28.679   3.154   2.166
37963W        W 6357  25.118   4.666   2.813
37964W        W 6358   4.511  37.650  12.545
37965W        W 6359  40.327  30.914  13.611
37966W        W 6360   4.171  39.453   3.226
37967W        W 6361  32.345  35.018   1.883
37968W        W 6362  17.927   8.728   1.445
37969W        W 6363  39.735  25.299  14.261
37970W        W 6364   9.998  33.963  10.839
37971W        W 6365  33.447  15.259  10.700
37972W        W 6366  19.288   8.666  12.507
37973W        W 6367  15.583  36.112   1.276
37974W        W 6368  11.596  11.362   1.641
37975W        W 6369  42.189  10.306   2.219
37976W        W 6370  16.737  20.324  14.708
37977W        W 6371  37.612   6.170   0.505
37978W        W 6372  24.738  29.641  13.007
37979W        W 6373  26.551  19.630  14.998
37980W        W 6374  39.269   9.762   1.396
37981W        W 6375   0.833  22.586  11.963
37982W        W 6376  40.414  12.742  12.286
37983W        W 6377  33.540  24.991  14.495
37984W        W 6378  43.979  21.718  14.995
37985W        W 6379  14.848   2.192  14.372
37986W        W 6380   4.233  18.286  14.515
37987W        W 6381  28.145  21.505   2.578
37988W        W 6382  26.269   4.333   0.768
37989W        W 6383  43.397   7.786  12.779
37990W        W 6384   7.393  14.212   3.242
37991W        W 6385  34.044  26.180  14.985
37992W        W 6386  16.279  38.913   3.795
37993W        W 6387  38.387  11.384   1.674
37994W        W 6388   2.767  20.733   1.270
37995W        W 6389  43.659   6.166  12.979
37996W        W 6390  42.601  20.644  10.695
37997W        W 6391  23.252   3.996   1.074
37998W        W 6392  23.647  10.937   3.134
37999W        W 6393  10.634  30.137  14.373
38000W        W 6394  15.584  40.392  10.840
38001W        W 6395  37.634  21.439   4.981
38002W        W 6396  20.661  12.906  14.304
38003W        W 6397   2.353  26.513  12.103
38004W        W 6398   8.938   8.406  13.009
38005W        W 6399  21.692  11.838   2.183
38006W        W 6400   5.489  28.459   2.877
38007W        W 6401  38.865  15.651  13.393
38008W        W 6402  37.597  11.895   3.871
38009W        W 6403  32.099   3.019   0.446
38010W        W 6404   0.620  39.292   9.923
38011W        W 6405  16.024  42.620  12.979
38012W        W 6406  19.442  18.928   4.647
38013W        W 6407  17.076  24.145   4.580
38014W        W 6408  17.572   5.055   4.916
38015W        W 6409  42.684   1.169   2.708
38016W        W 6410   2.328  11.672   0.024
38017W        W 6411  34.909  14.099   2.274
38018W        W 6412  26.288   1.063   4.504
38019W        W 6413   6.116  22.240   0.858
38020W        W 6414   2.411  25.518   1.291
38021W        W 6415  29.406  42.853  10.759
38022W        W 6416  22.034  18.797   1.331
38023W        W 6417  44.464  16.598  13.455
38024W        W 6418  44.367   1.884  11.178
38025W        W 6419  44.681   6.201   1.875
38026W        W 6420   2.931  16.791   0.992
38027W        W 6421  15.471  40.726  10.067
38028W        W 6422   5.901  21.054  13.865
38029W        W 6423  27.122   2.668  14.774
38030W        W 6424   4.186  23.298  13.852
38031W        W 6425  41.440  37.016   0.727
38032W        W 6426  16.175  16.218  12.161
38033W        W 6427  22.245  30.450  10.807
38034W        W 6428   2.270   9.351  12.984
38035W        W 6429  15.018   9.661   3.077
38036W        W 6430   2.274  24.243  12.040
38037W        W 6431  10.015   1.503  12.353
38038W        W 6432  22.881   1.887   2.981
38039W        W 6433  29.691  28.035  12.120
38040W        W 6434   3.012  22.139   0.350
38041W        W 6435  10.114   1.158  11.031
38042W        W 6436  13.475  28.445   4.254
38043W        W 6437  25.766  15.513   3.677
38044W        W 6438  12.194  17.729  11.378
38045W        W 6439  17.185   4.347   0.501
38046W        W 6440  15.683   0.333  14.094
38047W        W 6441  32.894  10.762   0.204
38048W        W 6442  18.356  17.122  12.947
38049W        W 6443  40.318  42.818   1.838
38050W        W 6444   5.436   1.788   1.721
38051W        W 6445  35.066  22.035  13.790
38052W        W 6446  23.497   6.434   0.207
38053W        W 6447  12.700  25.323   1.787
38054W        W 6448  33.633  32.479  12.647
38055W        W 6449  28.886  11.193  12.501
38056W        W 6450  42.835  18.524  14.629
38057W        W 6451  17.336  18.170  12.843
38058W        W 6452   2.871  37.821  11.943
38059W        W 6453  10.667  37.304   4.304
38060W        W 6454  39.050  10.855  14.654
38061W        W 6455  26.246  15.619  10.682
38062W        W 6456  16.285  12.814   3.653
38063W        W 6457  43.843  20.154   3.609
38064W        W 6458  31.335  42.876   2.716
38065W        W 6459  21.139  33.028   0.049
38066W        W 6460  22.585  21.635   0.572
38067W        W 6461  42.028  26.553  14.374
38068W        W 6462  41.241  21.287   1.770
38069W        W 6463  40.270  42.111  11.640
38070W        W 6464  29.217  27.112  12.032
38071W        W 6465  31.679  31.402   0.416
38072W        W 6466  30.683  38.541  11.077
38073W        W 6467  17.942   3.808  12.394
38074W        W 6468  44.406  39.470  10.582
38075W        W 6469  44.574  15.220   4.240
38076W        W 6470  36.963  24.701   3.086
38077W        W 6471  34.143  41.985  13.389
38078W        W 6472   0.023  16.740   2.691
38079W        W 6473  30.615  28.454  11.648
38080W        W 6474  37.803  27.943  10.987
38081W        W 6475  25.054  34.980   3.734
38082W        W 6476  15.637  14.579   1.730
38083W        W 6477  25.653  20.830  11.569
38084W        W 6478  42.227  20.608   2.630
38085W        W 6479  26.085   4.418   2.128
38086W        W 6480  37.461   0.911   1.061
38087W        W 6481  20.156  24.261   1.001
38088W        W 6482  38.520  32.489  12.514
38089W        W 6483  18.051  13.536   4.272
38090W        W 6484  35.591  32.553  13.805
38091W        W 6485  28.076  44.554  12.861
38092W        W 6486  15.279  32.614  13.097
38093W        W 6487  40.993  29.642  14.389
38094W        W 6488   0.414  39.932  11.861
38095W        W 6489  31.037   7.041   4.955
38096W        W 6490  27.947   6.583   4.026
38097W        W 6491  21.168  18.201   3.596
38098W        W 6492  36.459  12.275  11.405
38099W        W 6493  18.461   2.907   3.700
38100W        W 6494  20.329  12.241  10.576
38101W        W 6495  44.439  32.320  13.737
38102W        W 6496  29.607  13.559   4.646
38103W        W 6497  34.365   4.450  12.066
38104W        W 6498  30.903  16.144  14.969
38105W        W 6499   8.821  17.289   4.429
38106W        W 6500  24.053   3.230  13.115
38107W        W 6501  31.464  42.953   1.723
38108W        W 6502  20.515  12.770  12.591
38109W        W 6503  39.651  21.960   1.344
38110W        W 6504   0.286  23.671  14.329
38111W        W 6505  17.919  37.792   1.265
38112W        W 6506   0.243  21.771   0.456
38113W        W 6507  44.433  41.298  12.978
38114W        W 6508   5.707   4.645  14.550
38115W        W 6509  33.977  15.925  12.324
38116W        W 6510  13.226  36.110   1.808
38117W        W 6511   5.307  16.512   1.084
38118W        W 6512  39.552  40.277   2.636
38119W        W 6513  35.166   8.297  14.519
38120W        W 6514   8.857  27.927   2.982
38121W        W 6515  36.116   7.903   2.650
38122W        W 6516  31.759  16.160  13.644
38123W        W 6517  24.272  40.634   0.434
38124W        W 6518  12.802   9.663  13.173
38125W        W 6519   7.660  12.362   1.223
38126W        W 6520  14.176  29.661   4.205
38127W        W 6521  16.072  20.166   9.880
38128W        W 6522   2.947  21.673   1.618
38129W        W 6523  10.895   0.918  10.889
38130W        W 6524  12.236  21.296   0.542
38131W        W 6525  12.768  29.244  14.449
38132W        W 6526  28.099  29.755  12.864
38133W        W 6527   9.308  15.814  11.663
38134W        W 6528  30.499  35.605  10.762
38135W        W 6529  11.931  42.836  12.704
38136W        W 6530  20.403  19.091  11.965
38137W        W 6531  19.702  32.408   4.226
38138W        W 6532   6.608  14.618   3.298
38139W        W 6533  42.867  31.122   2.472
38140W        W 6534   3.281   5.513   0.388
38141W        W 6535  40.109   2.250  13.992
38142W        W 6536  19.435  30.988  10.754
38143W        W 6537  31.424  13.316   3.218
38144W        W 6538  39.771  27.060   2.315
38145W        W 6539  10.646  14.273  13.132
38146W        W 6540  20.515   2.954  12.500
38147W        W 6541   6.632   6.184   4.213
38148W        W 6542  20.145  33.092   0.309
38149W        W 6543  34.550   1.538  11.542
38150W        W 6544  38.669   0.822  14.072
38151W        W 6545   3.738  43.878  14.847
38152W        W 6546  14.277  35.955   4.551
38153W        W 6547   5.842  37.153  12.985
38154W        W 6548  31.634  19.146  11.209
38155W        W 6549  20.563   9.358   0.726
38156W        W 6550  19.372  34.017   4.037
38157W        W 6551  13.268  29.187  11.776
38158W        W 6552  33.359  23.387  13.235
38159W        W 6553   0.413  34.036   4.051
38160W        W 6554  41.266  42.324   0.891
38161W        W 6555   0.857  37.576   5.095
38162W        W 6556  18.773  23.642   4.566
38163W        W 6557  25.045   5.979   3.156
38164W        W 6558  15.476   7.200   0.771
38165W        W 6559   5.815  29.544  13.048
38166W        W 6560   1.247  17.698  13.340
38167W        W 6561   7.409  39.781  14.997
38168W        W 6562  24.973  18.308  13.069
38169W        W 6563  25.666  40.981  11.123
38170W        W 6564  27.677  11.161  14.369
38171W        W 6565   6.640  15.738  11.102
38172W        W 6566  27.088  42.172  13.594
38173W        W 6567  20.469  40.724  14.485
38174W        W 6568  15.743  21.753   1.946
38175W        W 6569  29.160  10.641   1.048
38176W        W 6570  35.407  42.924   2.478
38177W        W 6571  40.514  41.477   4.738
38178W        W 6572  15.613  17.114   2.095
38179W        W 6573   4.768  27.439   3.173
38180W        W 6574  39.267  14.122  10.216
38181W        W 6575  42.699   8.845   0.179
38182W        W 6576  28.085   0.016  10.370
38183W        W 6577  37.378  31.971  13.532
38184W        W 6578  30.538  21.919   3.850
38185W        W 6579   3.027  12.112  12.191
38186W        W 6580  32.531  12.375  11.688
38187W        W 6581   3.364  11.894  12.982
38188W        W 6582  38.162  41.094   3.188
38189W        W 6583  13.768  11.640  12.146
38190W        W 6584  26.675   1.140  10.671
38191W        W 6585  24.380   0.441   2.067
38192W        W 6586  25.743  12.332   2.808
38193W        W 6587   4.320  43.919  13.464
38194W        W 6588   0.052  31.356   2.752
38195W        W 6589  18.848   7.741   9.878
38196W        W 6590  19.606  31.657  13.423
38197W        W 6591   1.480   7.908   1.248
38198W        W 6592   7.710   5.716  12.073
38199W        W 6593  28.190  29.802  12.021
38200W        W 6594  10.250  37.612   4.082
38201W        W 6595  32.101  11.132   3.070
38202W        W 6596   7.770  17.598   2.680
38203W        W 6597  42.435  24.690  13.656
38204W        W 6598  18.085  39.853   3.270
38205W        W 6599  34.386  26.916   0.421
38206W        W 6600  36.827  39.788  14.070
38207W        W 6601  37.825   8.713  12.974
38208W        W 6602  25.083   9.645   0.848
38209W        W 6603  12.566  34.395   1.966
38210W        W 6604  20.460  11.152  13.070
38211W        W 6605  30.010  37.816   3.593
38212W        W 6606  42.422  34.543   1.996
38213W        W 6607   1.981  29.706  10.588
38214W        W 6608  19.514  36.867  10.616
38215W        W 6609  12.851  11.501   1.318
38216W        W 6610  13.673  13.014  14.641
38217W        W 6611   5.515  24.206  10.334
38218W        W 6612  30.592  26.853   0.537
38219W        W 6613   2.206   7.247   2.841
38220W        W 6614   4.894  19.291  10.302
38221W        W 6615  35.255  38.080  12.093
38222W        W 6616   9.525  37.702   3.598
38223W        W 6617  22.657  16.748   3.289
38224W        W 6618  26.542  43.476  14.800
38225W        W 6619  11.321  16.773   1.040
38226W        W 6620  41.632  16.201  14.424
38227W        W 6621   0.023  15.915  14.153
38228W        W 6622  39.675  32.731   2.304
38229W        W 6623  28.015  26.220  11.598
38230W        W 6624  44.338   8.137  12.988
38231W        W 6625  28.093  36.043   4.698
38232W        W 6626   7.162  35.706  12.170
38233W        W 6627  16.529  34.454  12.572
38234W        W 6628  22.581   6.306  14.327
38235W        W 6629  25.439  28.079   2.925
38236W        W 6630  16.315  22.548   2.992
38237W        W 6631   4.094  28.956  12.572
38238W        W 6632  38.624  28.423  12.931
38239W        W 6633   4.268  27.802  13.900
38240W        W 6634  17.721   6.108   4.600
38241W        W 6635  37.844  24.306   4.372
38242W        W 6636   4.978  33.949  14.336
38243W        W 6637  29.696   2.281  14.229
38244W        W 6638  41.244  32.907  12.181
38245W        W 6639  33.015   4.489  12.881
38246W        W 6640  28.370  25.710  11.898
38247W        W 6641  37.960  21.558   4.171
38248W        W 6642  11.823  18.245   2.206
38249W        W 6643  32.805  33.320   0.933
38250W        W 6644  44.175   4.285  12.950
38251W        W 6645  34.484  39.755  12.154
38252W        W 6646  21.496   6.920   3.283
38253W        W 6647  30.431  40.920   2.390
38254W        W 6648  25.186  17.921   3.211
38255W        W 6649  30.378  34.152   4.330
38256W        W 6650  40.147  35.909   0.899
38257W        W 6651  24.942  30.546   2.224
38258W        W 6652  30.415  33.466  10.724
38259W        W 6653   1.324   4.810  10.680
38260W        W 6654  37.041  13.198  10.570
38261W        W 6655  31.743  33.687  14.697
38262W        W 6656   9.712   5.284   3.330
38263W        W 6657  31.554   0.310  14.863
38264W        W 6658  30.915  20.866  11.585
38265W        W 6659  22.205  22.052   4.543
38266W        W 6660  32.369  33.914   4.545
38267W        W 6661  29.191  21.226  11.944
38268W        W 6662  28.842  32.056   2.170
38269W        W 6663  12.660  26.236  11.555
38270W        W 6664  17.617  26.133   0.766
38271W        W 6665  25.029  34.074   2.770
38272W        W 6666   4.256  14.743  13.441
38273W        W 6667  27.912  42.234  13.898
38274W        W 6668  37.535  22.801   0.969
38275W        W 6669  23.001   4.907  11.514
38276W        W 6670  42.781  44.472   0.672
38277W        W 6671  28.168  19.941   3.222
38278W        W 6672   0.417  19.336   2.247
38279W        W 6673  13.496   5.113   4.166
38280W        W 6674   7.369  42.585   2.365
38281W        W 6675   6.660  34.998   4.385
38282W        W 6676  27.041  28.576  14.898
38283W        W 6677  34.801   4.012   1.411
38284W        W 6678  16.310  16.309   0.993
38285W        W 6679   3.817  29.370   1.713
38286W        W 6680  33.446  12.349  12.197
38287W        W 6681  43.907  14.429  11.062
38288W        W 6682   9.601  17.182  12.174
38289W        W 6683   2.215  16.793  11.046
38290W        W 6684  20.821  31.089  11.613
38291W        W 6685  27.146  25.025  14.631
38292W        W 6686   4.237  18.780   1.976
38293W        W 6687  13.419  34.431  14.007
38294W        W 6688  19.400  41.555  10.161
38295W        W 6689  15.517  33.458   3.606
38296W        W 6690  17.130  40.480   4.555
38297W        W 6691  42.927   0.792   2.979
38298W        W 6692  32.097  19.885  11.544
38299W        W 6693  28.143  19.721   4.866
38300W        W 6694  10.330   4.990   5.064
38301W        W 6695  10.769   4.895   3.581
38302W        W 6696  11.849  26.021   3.659
38303W        W 6697   5.347  31.590   3.886
38304W        W 6698  36.444  26.537   0.509
38305W        W 6699  24.686  18.037  10.681
38306W        W 6700  14.170  32.180  13.934
38307W        W 6701  38.517  33.577  12.922
38308W        W 6702   3.674   4.071  13.388
38309W        W 6703  21.581  20.215  12.804
38310W        W 6704  34.416  31.094  10.670
38311W        W 6705   3.687  11.821  12.515
38312W        W 6706   1.571  18.355   2.398
38313W        W 6707  17.613  12.720   0.198
38314W        W 6708   9.741  28.348   2.248
38315W        W 6709  22.519  37.127   2.913
38316W        W 6710   7.605  19.262  14.917
38317W        W 6711   8.672  33.997  12.104
38318W        W 6712  35.513  11.088   0.938
38319W        W 6713  18.734  22.186  14.712
38320W        W 6714  44.319  33.082  10.747
38321W        W 6715  19.192  26.493   3.269
38322W        W 6716  14.150   8.987  13.987
38323W        W 6717  13.546   5.430   1.236
38324W        W 6718  29.502  13.346   0.745
38325W        W 6719  16.779  27.888   4.272
38326W        W 6720   1.993  34.550   1.220
38327W        W 6721   5.504  43.280   1.408
38328W        W 6722   1.223  33.872  12.097
38329W        W 6723   8.030  26.334  14.910
38330W        W 6724  26.029  28.143   3.764
38331W        W 6725   6.179  31.386  11.148
38332W        W 6726  39.280   2.509  11.642
38333W        W 6727  18.706  16.551   3.850
38334W        W 6728  20.171  25.122   3.159
38335W        W 6729   4.903  38.913   0.252
38336W        W 6730   6.028  31.898   4.552
38337W        W 6731  33.452  12.591   0.849
38338W        W 6732  18.007  41.520   2.705
38339W        W 6733   8.343  11.800   2.217
38340W        W 6734  42.341   1.896   3.347
38341W        W 6735  42.769  20.976   1.058
38342W        W 6736  21.375  13.000   4.905
38343W        W 6737  37.008  31.498  12.177
38344W        W 6738   4.200  25.030   1.277
38345W        W 6739  25.493   6.684  10.788
38346W        W 6740   4.824  11.363   1.746
38347W        W 6741  26.657  11.132  10.315
38348W        W 6742   3.566  24.089  13.295
38349W        W 6743  16.145  35.975  12.876
38350W        W 6744  41.467   5.151   0.814
38351W        W 6745  39.399  34.972   2.649
38352W        W 6746  19.521  28.566   5.433
38353W        W 6747  27.514  11.359   4.363
38354W        W 6748  26.492  30.102  14.060
38355W        W 6749  10.218  29.088  14.737
38356W        W 6750  37.078  22.906   0.786
38357W        W 6751  36.064   1.925  12.589
38358W        W 6752   7.767   0.424   3.298
38359W        W 6753  21.165   3.417  14.799
38360W        W 6754   2.882  33.322   0.969
38361W        W 6755  14.258  31.113   0.441
38362W        W 6756   7.725   1.665  12.083
38363W        W 6757  15.127  42.864   3.678
38364W        W 6758  17.159  35.637  13.870
38365W        W 6759   6.072  23.575  13.058
38366W        W 6760   2.268  17.747   2.848
38367W        W 6761  12.096   4.891   3.795
38368W        W 6762  23.607  29.074  13.937
38369W        W 6763  35.578  12.355  11.556
38370W        W 6764  37.782  29.488  12.978
38371W        W 6765  40.436   1.190  12.593
38372W        W 6766  28.725  39.190   4.913
38373W        W 6767  31.112   7.446  11.625
38374W        W 6768  38.397  39.727  11.244
38375W        W 6769  21.959  14.274  11.163
38376W        W 6770  11.637  22.160   0.441
38377W        W 6771  26.584  21.699  14.835
38378W        W 6772   2.513  28.441   1.823
38379W        W 6773  37.644  13.059  11.634
38380W        W 6774  31.011  18.448  12.389
38381W        W 6775  32.415  16.209  14.838
38382W        W 6776  13.405  37.127   3.234
38383W        W 6777   4.539  28.144   1.000
38384W        W 6778  35.024  26.860  12.765
38385W        W 6779  33.840  35.710   2.671
38386W        W 6780   8.823   3.941  13.391
38387W        W 6781  15.732   7.681   4.784
38388W        W 6782  14.034  18.422  11.879
38389W        W 6783  35.830  42.322  11.563
38390W        W 6784   4.947  33.675  14.983
38391W        W 6785  43.290  13.378   4.731
38392W        W 6786  12.933  13.246   1.713
38393W        W 6787  43.349  35.335  13.358
38394W        W 6788  40.775  39.578   9.573
38395W        W 6789  28.587  30.810  14.320
38396W        W 6790  18.275  26.510   1.814
38397W        W 6791  44.410  23.160   2.275
38398W        W 6792  15.182  34.883   3.893
38399W        W 6793   7.338  40.903   3.778
38400W        W 6794   7.087  14.257  10.556
38401W        W 6795  36.701  35.551   3.262
38402W        W 6796  24.328   3.349   1.431
38403W        W 6797  41.062  34.486   0.804
38404W        W 6798  38.846  23.834  12.448
38405W        W 6799  35.155   7.304   3.200
38406W        W 6800  41.449  13.703   3.155
38407W        W 6801   9.372   1.374   1.282
38408W        W 6802  31.691  10.794  11.104
38409W        W 6803   0.686   9.441  13.520
38410W        W 6804  28.789  11.750   0.684
38411W        W 6805  43.304  30.572  10.753
38412W        W 6806   5.398  11.574  13.901
38413W        W 6807  30.177   7.948  10.520
38414W        W 6808  40.819  22.827  14.834
38415W        W 6809  44.975  41.090   0.329
38416W        W 6810  22.011   9.892   4.133
38417W        W 6811   8.446  11.901  13.782
38418W        W 6812   3.420   7.091  10.728
38419W        W 6813   1.024   7.939   2.875
38420W        W 6814  13.679   8.166  14.247
38421W        W 6815   6.120  40.367   1.643
38422W        W 6816  27.827  23.562  10.622
38423W        W 6817  20.610  28.683   2.824
38424W        W 6818   2.485  19.760   0.031
38425W        W 6819  37.556  17.989  14.895
38426W        W 6820   7.934  15.254  13.787
38427W        W 6821  14.257  28.949   2.423
38428W        W 6822  23.660  10.904  11.026
38429W        W 6823  27.397  42.786   4.082
38430W        W 6824   1.781  13.363  13.366
38431W        W 6825  32.013  38.277   0.275
38432W        W 6826  27.872  18.059   1.121
38433W        W 6827  25.083  21.797  14.216
38434W        W 6828  11.763  32.231  13.168
38435W        W 6829   7.440  17.178   4.175
38436W        W 6830  14.578  30.677  14.376
38437W        W 6831  16.451  44.746   0.331
38438W        W 6832  43.873  44.751   0.459
38439W        W 6833  24.689  41.338   1.041
38440W        W 6834  36.470  37.067  10.708
38441W        W 6835   8.009  29.399   3.119
38442W        W 6836   1.817  41.119   0.165
38443W        W 6837  21.290  38.639  12.261
38444W        W 6838  11.412  22.715  14.510
38445W        W 6839  10.308  22.010  13.955
38446W        W 6840   6.703  16.679  13.845
38447W        W 6841  37.149  42.039   0.252
38448W        W 6842  22.082  13.237   5.471
38449W        W 6843  34.275  20.096   0.816
38450W        W 6844  44.970  13.564   4.526
38451W        W 6845  31.768  15.687   2.568
38452W        W 6846  12.912   4.415  10.943
38453W        W 6847  22.148  25.639  12.252
38454W        W 6848  22.740   6.888  12.578
38455W        W 6849  30.632  33.957  10.481
38456W        W 6850  16.314  12.861   0.978
38457W        W 6851  34.318   5.249  13.034
38458W        W 6852  15.894  43.588  14.282
38459W        W 6853  20.177   4.801  13.947
38460W        W 6854  44.450  19.830   2.896
38461W        W 6855  43.022   8.896  13.315
38462W        W 6856  40.892  44.872  14.246
38463W        W 6857  15.326  42.866   5.042
38464W        W 6858  14.272  41.454  10.587
38465W        W 6859  20.084  15.219   0.851
38466W        W 6860   4.281  19.573  12.327
38467W        W 6861  42.507  36.965   0.527
38468W        W 6862   4.550  28.933   4.704
38469W        W 6863  20.777  25.994   0.431
38470W        W 6864   0.462  37.461   4.357
38471W        W 6865  28.463  16.633  11.514
38472W        W 6866  23.092  42.353   2.801
38473W        W 6867  33.871  17.952   1.486
38474W        W 6868  22.500  42.899   3.207
38475W        W 6869  27.106  25.008   0.148
38476W        W 6870  13.830   0.169  10.844
38477W        W 6871   7.294   1.484   3.011
38478W        W 6872  28.025   5.364   2.055
38479W        W 6873  12.838  25.477  13.479
38480W        W 6874  37.988  15.702   4.274
38481W        W 6875  27.898  33.501  14.401
38482W        W 6876  41.354  20.790   1.632
38483W        W 6877  26.011  20.915  11.208
38484W        W 6878   9.005  27.197   2.282
38485W        W 6879  27.110  44.438   2.171
38486W        W 6880  15.740   0.362   3.558
38487W        W 6881  44.875   1.998  14.902
38488W        W 6882  22.995  16.093   2.258
38489W        W 6883  36.016  37.728   4.195
38490W        W 6884  32.906  41.841  11.095
38491W        W 6885  32.968   8.338  11.414
38492W        W 6886  34.706  28.198   4.916
38493W        W 6887  18.491  39.906  12.384
38494W        W 6888  32.882  16.571  13.764
38495W        W 6889  26.967  20.284  13.635
38496W        W 6890   4.994  10.852  12.380
38497W        W 6891  40.712  39.058  11.612
38498W        W 6892  33.418   1.511   2.256
38499W        W 6893  14.955  39.562  11.486
38500W        W 6894  43.366   4.244  13.478
38501W        W 6895  33.532  18.794   1.189
38502W        W 6896  35.453  10.641   2.216
38503W        W 6897   8.631  25.939   2.859
38504W        W 6898   7.945  32.465  13.985
38505W        W 6899  22.502  42.397  10.534
38506W        W 6900  29.857  26.647   2.311
38507W        W 6901  17.353  40.126   4.216
38508W        W 6902  26.982   4.344  10.632
38509W        W 6903  30.010  28.410   4.103
38510W        W 6904  35.594   9.026   3.863
38511W        W 6905  24.449  14.563   3.056
38512W        W 6906  18.278  32.185   2.423
38513W        W 6907  39.424  12.864   0.270
38514W        W 6908  21.700  18.891  14.713
38515W        W 6909  28.402   0.411  13.481
38516W        W 6910  14.122  13.137   1.261
38517W        W 6911  32.913  40.940  11.212
38518W        W 6912   3.763  27.090  12.718
38519W        W 6913  38.817  20.967  14.508
38520W        W 6914  31.419   1.521  11.917
38521W        W 6915  34.957   8.690   3.678
38522W        W 6916   1.612   3.840   3.382
38523W        W 6917  40.462  39.849  12.912
38524W        W 6918  31.635   6.477   2.830
38525W        W 6919  30.980  25.637  10.486
38526W        W 6920  15.759  14.838  11.764
38527W        W 6921  11.930  43.184   5.056
38528W        W 6922  14.390  25.596  11.570
38529W        W 6923  27.527  31.599   3.741
38530W        W 6924   7.686   7.749  13.905
38531W        W 6925   2.966   8.070   3.344
38532W        W 6926  22.034  24.612  13.768
38533W        W 6927   8.589  27.539   4.185
38534W        W 6928  35.093  41.175  13.755
38535W        W 6929  31.439   7.215  12.057
38536W        W 6930  12.291  18.204   3.374
38537W        W 6931  31.138  35.102   0.294
38538W        W 6932  31.219  26.521   3.635
38539W        W 6933   6.112  29.119   0.057
38540W        W 6934  30.119  32.778  12.611
38541W        W 6935   2.885  42.026   3.635
38542W        W 6936  43.473   4.064   2.400
38543W        W 6937   3.764  20.502  14.842
38544W        W 6938  31.167   2.474   4.555
38545W        W 6939   4.661  27.904  10.691
38546W        W 6940  18.423  12.657  10.786
38547W        W 6941  37.908  44.669   0.303
38548W        W 6942  36.950  24.423   2.600
38549W        W 6943   7.241  22.281   3.596
38550W        W 6944  40.937  27.598  13.096
38551W        W 6945  38.509  34.423  13.913
38552W        W 6946  31.208   0.920  12.930
38553W        W 6947   5.025   3.807  13.828
38554W        W 6948  37.294  41.560   3.249
38555W        W 6949  32.101  36.414  10.707
38556W        W 6950  43.024  22.691  13.543
38557W        W 6951   7.113  31.088   2.889
38558W        W 6952  30.571  14.756   0.655
38559W        W 6953  10.438  19.944  13.943
38560W        W 6954  41.204  43.043   3.476
38561W        W 6955  24.079  25.964   2.905
38562W        W 6956  37.298   6.753  10.661
38563W        W 6957  39.373  14.973  12.555
38564W        W 6958  31.103  25.112  11.362
38565W        W 6959  19.132  24.942   3.233
38566W        W 6960   6.952  31.949  11.092
38567W        W 6961  20.411  21.077  10.366
38568W        W 6962  39.461  30.383  14.936
38569W        W 6963   6.121  29.255   4.017
38570W        W 6964  10.833   4.977  12.506
38571W        W 6965  39.059  19.216   3.184
38572W        W 6966   7.274  17.532   4.929
38573W        W 6967  21.632  38.567   3.580
38574W        W 6968  10.447  37.931   2.830
38575W        W 6969  41.617  14.701  12.987
38576W        W 6970  33.560  17.070   0.004
38577W        W 6971  39.027  30.180   1.403
38578W        W 6972   7.803  25.942  11.063
38579W        W 6973   0.848   5.384   4.110
38580W        W 6974  13.782  26.455   1.826
38581W        W 6975  13.068   5.858   0.001
38582W        W 6976   3.710  12.582   2.694
38583W        W 6977  16.093  14.182   4.702
38584W        W 6978  10.900  36.594  14.918
38585W        W 6979  21.561  21.931   1.556
38586W        W 6980  39.050  34.595   2.796
38587W        W 6981  41.866   7.471   4.080
38588W        W 6982  33.145  42.925   3.353
38589W        W 6983   4.503   5.339  11.214
38590W        W 6984  32.127  11.227   3.581
38591W        W 6985   8.475  33.652   0.814
38592W        W 6986  30.253   7.617   1.756
38593W        W 6987  37.355  40.929   2.404
38594W        W 6988  37.528   1.784   4.566
38595W        W 6989  21.285  27.886  13.947
38596W        W 6990   9.204  27.696  13.331
38597W        W 6991  43.670  39.374   4.076
38598W        W 6992   9.882  33.141  14.854
38599W        W 6993  18.721  29.660  12.940
38600W        W 6994  43.837  31.134  13.447
38601W        W 6995  35.969  43.010  10.794
38602W        W 6996  16.726   0.254   1.218
38603W        W 6997  29.415  14.662  11.022
38604W        W 6998  36.421  10.498   2.131
38605W        W 6999  33.914  23.107   3.742
38606W        W 7000  23.437  37.386   0.829
38607W        W 7001  43.229  38.515   3.728
38608W        W 7002  44.215   2.339   1.743
38609W        W 7003  19.128   1.764  11.889
38610W        W 7004  35.002  28.156   1.288
38611W        W 7005  24.516  18.500  10.525
38612W        W 7006   3.564  11.656  14.267
38613W        W 7007  15.734  36.895  12.828
38614W        W 7008  39.812  24.225  13.273
38615W        W 7009  33.974  43.002   2.220
38616W        W 7010   0.486  28.560   3.331
38617W        W 7011   4.220   0.786  13.049
38618W        W 7012   6.776  25.181   0.992
38619W        W 7013  30.177  35.662   2.112
38620W        W 7014  34.623   5.456  13.403
38621W        W 7015  18.874  28.342  10.270
38622W        W 7016  29.887   0.154   2.845
38623W        W 7017  21.011  27.418   1.187
38624W        W 7018  18.723  29.477   0.380
38625W        W 7019  30.526   5.251  14.096
38626W        W 7020  27.254  43.984   3.663
38627W        W 7021  23.265  13.390  13.942
38628W        W 7022  31.560  23.072   3.576
38629W        W 7023  18.076  37.583   3.205
38630W        W 7024   5.682   9.447  12.565
38631W        W 7025   2.530  31.461   1.759
38632W        W 7026   8.618   6.533  11.449
38633W        W 7027   8.627  10.160   0.860
38634W        W 7028  14.351  10.404   0.106
38635W        W 7029  25.543  28.918  14.905
38636W        W 7030  38.418  19.271  12.605
38637W        W 7031  29.624  18.846  14.402
38638W        W 7032  35.371  43.902   2.126
38639W        W 7033  35.375  40.338  10.813
38640W        W 7034   5.669   6.274   3.262
38641W        W 7035  39.936  10.869  11.981
38642W        W 7036  34.638  14.603   0.011
38643W        W 7037  40.411  38.063   0.039
38644W        W 7038  25.412  21.015  14.727
38645W        W 7039   4.512  33.451   3.072
38646W        W 7040   1.671  44.199   2.773
38647W        W 7041  24.086  20.473   4.202
38648W        W 7042  23.529  32.377   1.702
38649W        W 7043  12.584   2.806  12.317
38650W        W 7044   2.087  34.291  11.169
38651W        W 7045  43.543  18.669  13.874
38652W        W 7046  35.416  18.890   4.913
38653W        W 7047  23.122  32.917  14.673
38654W        W 7048  14.700  28.391   2.467
38655W        W 7049  37.357  17.176   3.154
38656W        W 7050  34.644  32.804  11.046
38657W        W 7051  19.237  24.970   4.304
38658W        W 7052  24.667   8.396  11.858
38659W        W 7053  38.552  16.567  10.723
38660W        W 7054  15.227  24.700  11.556
38661W        W 7055  31.061  30.856   1.132
38662W        W 7056  18.196  30.689   0.672
38663W        W 7057  25.345  24.684  14.744
38664W        W 7058  42.919  23.735  11.588
38665W        W 7059   6.648   6.510  11.893
38666W        W 7060  11.599  41.415   4.960
38667W        W 7061  38.017  25.021  14.367
38668W        W 7062  11.294  37.453   3.791
38669W        W 7063  34.103  18.155  14.899
38670W        W 7064  27.644   0.412  12.982
38671W        W 7065  18.602  12.541  14.318
38672W        W 7066  32.189  29.993  11.339
38673W        W 7067   8.339  28.608  10.878
38674W        W 7068  12.464  28.139   3.999
38675W        W 7069   2.024  27.724  10.673
38676W        W 7070  13.235  41.528  12.443
38677W        W 7071  25.033   8.956   3.137
38678W        W 7072  33.549  18.398  13.665
38679W        W 7073  38.567  20.553  12.394
38680W        W 7074  14.110  29.851  12.860
38681W        W 7075  14.159  34.903   3.434
38682W        W 7076  35.672   0.343   0.780
38683W        W 7077   6.447  37.606  14.394
38684W        W 7078   3.267  44.432  12.874
38685W        W 7079  11.624   1.327   0.315
38686W        W 7080  12.170   5.841   2.220
38687W        W 7081  28.633  12.611   4.189
38688W        W 7082  18.188  35.055   1.734
38689W        W 7083  41.039  19.001   1.159
38690W        W 7084  15.689  17.982  14.038
38691W        W 7085  36.066  20.732  12.973
38692W        W 7086  44.586  11.059   0.808
38693W        W 7087  15.013   4.686  11.592
38694W        W 7088  31.435  13.717   0.959
38695W        W 7089  32.990  17.855   2.669
38696W        W 7090  16.187  24.667   4.679
38697W        W 7091  14.224  16.541   1.198
38698W        W 7092  37.410  32.662  14.924
38699W        W 7093  44.464  36.615  11.623
38700W        W 7094   6.007   8.407   0.668
38701W        W 7095   6.404  26.131   1.895
38702W        W 7096   5.837  27.499  11.866
38703W        W 7097  26.166  19.005   2.222
38704W        W 7098  42.812  36.877  11.630
38705W        W 7099   8.376  42.811   3.837
38706W        W 7100  38.594  26.639  12.601
38707W        W 7101  28.866   4.419   4.193
38708W        W 7102  42.528  25.157  12.846
38709W        W 7103   5.407  15.503  14.023
38710W        W 7104  36.792  25.052   3.773
38711W        W 7105  25.576  13.850   0.711
38712W        W 7106   2.861   3.515  12.503
38713W        W 7107  24.140  30.651   2.707
38714W        W 7108  28.717   1.193   2.341
38715W        W 7109  12.254  42.755  14.161
38716W        W 7110  44.015   8.924   1.337
38717W        W 7111   6.811   2.524  14.751
38718W        W 7112  23.318  12.744  14.544
38719W        W 7113   7.159  10.831  11.627
38720W        W 7114  31.116   3.913  12.538
38721W        W 7115   4.289   5.333  10.195
38722W        W 7116  27.120  20.112   2.371
38723W        W 7117  12.834  28.534  12.831
38724W        W 7118   1.164  33.862   5.014
38725W        W 7119  22.604  30.540   1.287
38726W        W 7120  18.047  27.963  12.655
38727W        W 7121  19.095  38.547  14.799
38728W        W 7122  30.443  39.083   1.692
38729W        W 7123  37.862  40.989  11.604
38730W        W 7124  17.613  30.434   4.675
38731W        W 7125  38.594  39.444   0.373
38732W        W 7126  15.331  27.561   0.976
38733W        W 7127  10.732  23.701  14.798
38734W        W 7128  22.548  23.866  14.844
38735W        W 7129  44.198  17.342  13.910
38736W        W 7130  22.586   4.533   2.768
38737W        W 7131  13.416  31.191  11.326
38738W        W 7132  20.353  25.099  11.153
38739W        W 7133  43.311   4.822   4.722
38740W        W 7134  36.362  27.732   2.418
38741W        W 7135  11.942  21.237  11.191
38742W        W 7136  42.745   2.181  13.332
38743W        W 7137  13.207  25.009  12.564
38744W        W 7138  11.840   2.278  10.788
38745W        W 7139  41.479  22.130  11.851
38746W        W 7140  18.042  18.670  14.352
38747W        W 7141  40.815   0.978  11.167
38748W        W 7142   4.349  24.302   0.481
38749W        W 7143   1.854  14.913   1.706
38750W        W 7144   8.211  17.028   2.206
38751W        W 7145  21.217  34.340   2.224
38752W        W 7146   9.646  10.265  10.480
38753W        W 7147  36.829   3.274   2.767
38754W        W 7148  25.316   7.111  12.683
38755W        W 7149  16.338  41.632  12.966
38756W        W 7150  44.058  43.539   3.271
38757W        W 7151  10.165  28.455  11.331
38758W        W 7152  35.491  32.346   1.929
38759W        W 7153  14.452   1.497  13.707
38760W        W 7154  41.059  18.056  11.777
38761W        W 7155  11.438  37.140   1.192
38762W        W 7156  10.481   5.817  12.910
38763W        W 7157  42.848  10.753  12.471
38764W        W 7158  34.658  13.495  11.721
38765W        W 7159   4.474  43.917   0.447
38766W        W 7160  32.525  12.256  12.203
38767W        W 7161   7.551  39.595  13.932
38768W        W 7162   4.910   5.869   0.386
38769W        W 7163   0.618   2.014   1.577
38770W        W 7164  28.254  31.859   4.598
38771W        W 7165   7.173  19.740  14.913
38772W        W 7166  17.668  44.055  14.384
38773W        W 7167  27.693  38.020   1.803
38774W        W 7168  32.560   1.044  14.552
38775W        W 7169  30.527  42.479   2.363
38776W        W 7170  34.979  26.430   2.522
38777W        W 7171   5.446  13.504   1.499
38778W        W 7172  25.571  20.607   4.228
38779W        W 7173  23.179  24.503   0.585
38780W        W 7174  32.364  27.091  14.938
38781W        W 7175  29.810   6.860   3.641
38782W        W 7176   7.712   2.846  13.366
38783W        W 7177  19.265  28.913  13.038
38784W        W 7178  10.374  19.542  12.429
38785W        W 7179  43.965   1.440  14.828
38786W        W 7180  24.085  37.451  10.944
38787W        W 7181  36.783  11.140   3.607
38788W        W 7182  26.286  16.017   4.094
38789W        W 7183   4.836  38.582   3.398
38790W        W 7184  15.533  31.510  10.775
38791W        W 7185   2.204  44.367   0.326
38792W        W 7186  39.271   1.523  12.328
38793W        W 7187  42.450  42.235  12.433
38794W        W 7188  21.621   5.390  12.388
38795W        W 7189   2.055  34.718  14.069
38796W        W 7190  26.703   7.023  11.048
38797W        W 7191  13.663   4.865   2.577
38798W        W 7192  28.432  27.172   1.740
38799W        W 7193  43.532   8.664  14.853
38800W        W 7194   9.835   2.735  14.107
38801W        W 7195  20.933  43.436  14.279
38802W        W 7196  22.773  37.045  11.608
38803W        W 7197  37.627  11.801   0.918
38804W        W 7198  16.960  32.281  13.367
38805W        W 7199  22.272  23.551   3.338
38806W        W 7200   4.409  34.922  13.923
38807W        W 7201   3.518  18.262   4.545
38808W        W 7202  42.745  14.764   3.711
38809W        W 7203  10.183  44.421  14.609
38810W        W 7204  20.140   7.087  13.073
38811W        W 7205   9.242  39.130   1.863
38812W        W 7206  10.859  17.973   3.335
38813W        W 7207  18.601   2.755   3.197
38814W        W 7208   6.578   9.943   2.713
38815W        W 7209   2.817  10.150   0.730
38816W        W 7210  32.902  33.533   3.268
38817W        W 7211  14.629  44.504   1.488
38818W        W 7212  15.280  37.478  11.193
38819W        W 7213   0.219  23.617   0.366
38820W        W 7214  38.054  25.421  11.543
38821W        W 7215  11.491  40.253  11.031
38822W        W 7216  12.094   6.451   1.007
38823W        W 7217   1.890   9.606  12.605
38824W        W 7218   2.360  23.460  13.523
38825W        W 7219  25.627  21.132   0.228
38826W        W 7220   6.894  17.147  13.612
38827W        W 7221   9.751  35.990   4.976
38828W        W 7222  16.058  28.405  12.701
38829W        W 7223  33.309  21.344   2.853
38830W        W 7224  11.171  22.677  11.653
38831W        W 7225  30.393  33.114  14.464
38832W        W 7226  18.337   0.299   1.738
38833W        W 7227  37.079  30.920  14.895
38834W        W 7228  24.208   3.661   1.851
38835W        W 7229  25.120  44.015  14.051
38836W        W 7230  29.173  19.420   2.155
38837W        W 7231  28.051  15.567  12.122
38838W        W 7232  42.989  34.426  10.178
38839W        W 7233  36.053  27.520   0.747
38840W        W 7234  36.571  44.332   0.018
38841W        W 7235  33.970   5.359   0.979
38842W        W 7236  44.392  44.626  13.688
38843W        W 7237  41.988  41.416   0.160
38844W        W 7238   8.100  26.973   4.586
38845W        W 7239  28.097  11.437  14.304
38846W        W 7240  24.156  13.861  12.102
38847W        W 7241  11.681   4.044   3.502
38848W        W 7242  12.727  21.537  14.520
38849W        W 7243  43.988  12.352   4.869
38850W        W 7244  13.895  36.506  10.980
38851W        W 7245  40.774  32.657  11.497
38852W        W 7246  37.287   9.563   2.161
38853W        W 7247  14.292  44.161  11.620
38854W        W 7248   0.235   3.309   3.310
38855W        W 7249  13.732   3.294   4.669
38856W        W 7250  13.988  23.752   3.730
38857W        W 7251  12.063   0.538  10.444
38858W        W 7252   6.686  10.917  11.814
38859W        W 7253  33.606  39.739   4.666
38860W        W 7254  32.015  26.512  10.217
38861W        W 7255  35.885  19.668   1.312
38862W        W 7256  16.042  40.352  11.632
38863W        W 7257  20.012  35.545   0.577
38864W        W 7258  23.569   3.268  11.887
38865W        W 7259  27.891  30.875   0.304
38866W        W 7260   1.007  39.165   2.277
38867W        W 7261  13.037   1.278  11.692
38868W        W 7262  26.737   6.015   3.745
38869W        W 7263   7.905  27.256  12.461
38870W        W 7264  21.601  24.697   3.213
38871W        W 7265  18.038  17.226   3.659
38872W        W 7266  27.835  23.664   4.922
38873W        W 7267  27.260  26.441   4.613
38874W        W 7268  10.992  40.255  11.010
38875W        W 7269   6.778  27.577   2.120
38876W        W 7270  34.094  18.278   3.277
38877W        W 7271  34.936  34.402   1.874
38878W        W 7272   5.615  44.475   4.001
38879W        W 7273  13.434  11.432  11.043
38880W        W 7274  20.544   7.207  14.819
38881W        W 7275  29.743  35.008  14.754
38882W        W 7276  30.119  38.085   0.480
38883W        W 7277   3.128  34.641   0.914
38884W        W 7278  24.319  19.085   0.307
38885W        W 7279  40.111   9.529  11.661
38886W        W 7280  18.162   1.844  10.855
38887W        W 7281  18.762  38.532   0.238
38888W        W 7282  20.129   9.654   3.767
38889W        W 7283  41.395  13.548  11.585
38890W        W 7284  27.959  18.514   2.395
38891W        W 7285  39.326   6.798   1.323
38892W        W 7286   8.851  30.709   5.047
38893W        W 7287  20.325  34.447  14.566
38894W        W 7288   9.174  29.487   1.500
38895W        W 7289   2.206   2.504  11.942
38896W        W 7290  37.781  10.041   0.522
38897W        W 7291  24.205  28.458   1.443
38898W        W 7292  35.577   8.422  10.623
38899W        W 7293  31.532  20.462   0.498
38900W        W 7294   9.964  22.530  14.452
38901W        W 7295   6.246  33.482  14.481
38902W        W 7296  24.719   5.006  13.924
38903W        W 7297  34.692  42.603   0.074
38904W        W 7298  23.707  40.976   1.450
38905W        W 7299  35.587  26.796   3.724
38906W        W 7300  17.793  22.188   0.254
38907W        W 7301  16.632  38.811   0.391
38908W        W 7302  17.148  32.363  10.740
38909W        W 7303  29.613   6.125  10.862
38910W        W 7304  37.987  19.736  10.646
38911W        W 7305  42.287   2.169   1.665
38912W        W 7306  40.643  22.970   1.026
38913W        W 7307   1.702  24.216   1.393
38914W        W 7308  37.877  26.021  12.466
38915W        W 7309   4.245  22.794  13.930
38916W        W 7310   6.061  20.122   4.825
38917W        W 7311   7.328  10.637   4.932
38918W        W 7312  19.079  26.236  14.676
38919W        W 7313  12.075  21.166   4.623
38920W        W 7314  20.770  42.787   4.081
38921W        W 7315  29.864  14.811   3.559
38922W        W 7316  12.302  35.089  11.123
38923W        W 7317   1.897   4.861  14.121
38924W        W 7318  13.409  23.128  14.022
38925W        W 7319  13.017  10.989   1.249
38926W        W 7320  31.823  43.917   3.216
38927W        W 7321   9.957  20.559   4.772
38928W        W 7322  21.488  28.711   0.901
38929W        W 7323   0.841  38.095   1.372
38930W        W 7324   6.618  28.535   0.257
38931W        W 7325   1.928  44.195  12.933
38932W        W 7326  11.309  44.208   3.733
38933W        W 7327  32.624  43.018  13.684
38934W        W 7328  44.590  37.995  11.960
38935W        W 7329  40.422  23.570   2.781
38936W        W 7330  24.241  13.111  11.752
38937W        W 7331  22.076  23.107   0.871
38938W        W 7332   1.875  44.699  12.876
38939W        W 7333  34.849  16.307   1.425
38940W        W 7334   7.865   3.711   2.437
38941W        W 7335  27.092  22.130  10.992
38942W        W 7336  26.149  13.838  13.840
38943W        W 7337  28.618  33.703  11.034
38944W        W 7338  32.109   9.997  13.585
38945W        W 7339  44.208  20.625   4.215
38946W        W 7340  10.837   3.211  11.142
38947W        W 7341  32.419  27.164   3.713
38948W        W 7342  14.943   2.424   3.658
38949W        W 7343  19.062   1.501  13.557
38950W        W 7344  40.346  38.118   0.975
38951W        W 7345   7.970  26.025  12.658
38952W        W 7346  41.237   7.238  12.513
38953W        W 7347  24.916  20.045  14.005
38954W        W 7348  35.020   6.987  14.055
38955W        W 7349  44.836  27.540  12.563
38956W        W 7350   4.971   0.906   3.342
38957W        W 7351  13.151  43.663  14.349
38958W        W 7352  14.642  16.676   2.856
38959W        W 7353  12.100  33.790   3.256
38960W        W 7354   1.880  26.619  10.697
38961W        W 7355  40.068  26.659  13.283
38962W        W 7356  38.842  25.926  14.390
38963W        W 7357  11.617   4.959  12.488
38964W        W 7358   0.162  26.036   1.394
38965W        W 7359  31.963  43.903   1.812
38966W        W 7360  25.075  43.565   1.738
38967W        W 7361  28.608  30.073   3.306
38968W        W 7362  13.787  28.167   2.666
38969W        W 7363  35.291  31.441   4.651
38970W        W 7364  19.154  16.465   0.155
38971W        W 7365  28.532  31.188  13.786
38972W        W 7366  37.366   5.396   4.518
38973W        W 7367  43.808  25.135  14.360
38974W        W 7368  44.060  36.674   4.142
38975W        W 7369  34.428   8.557   0.267
38976W        W 7370   2.887   1.920   4.158
38977W        W 7371  41.961  36.083   5.358
38978W        W 7372   6.378   0.401   0.296
38979W        W 7373   8.224  12.161   3.761
38980W        W 7374  20.509  18.347  12.621
38981W        W 7375   1.436  14.650   1.876
38982W        W 7376  20.085  41.695  11.553
38983W        W 7377  12.207  33.108   4.337
38984W        W 7378   7.717  13.631   2.771
38985W        W 7379  24.039  21.983   3.370
38986W        W 7380  34.373  42.490  12.523
38987W        W 7381  44.868  18.596   2.643
38988W        W 7382  24.908  31.903   0.304
38989W        W 7383  39.462  38.947   0.508
38990W        W 7384  39.923  22.224   4.116
38991W        W 7385  27.048  42.951  14.602
38992W        W 7386  10.616   4.334   3.671
38993W        W 7387  16.292  40.015  11.919
38994W        W 7388  23.522  38.145   1.035
38995W        W 7389  35.936  36.771   1.483
38996W        W 7390   1.327   3.795  10.452
38997W        W 7391  43.517  16.532  12.354
38998W        W 7392  10.620  23.154   0.235
38999W        W 7393  13.961  42.941   0.772
39000W        W 7394  20.596  26.337  13.328
39001W        W 7395  37.332   3.337   0.007
39002W        W 7396   4.738  20.923   0.800
39003W        W 7397  13.651  33.017  12.929
39004W        W 7398  35.122  37.615  13.413
39005W        W 7399   7.964   8.647  12.323
39006W        W 7400  35.407  11.280   0.460
39007W        W 7401   0.976  13.074  14.806
39008W        W 7402  28.124  25.079  14.198
39009W        W 7403  41.526   7.671  12.406
39010W        W 7404  20.635  17.500  12.047
39011W        W 7405  40.040  10.539   1.586
39012W        W 7406  30.416  39.783   4.667
39013W        W 7407  24.647  20.936   2.834
39014W        W 7408  26.972   8.724   1.747
39015W        W 7409  23.921  36.827  14.684
39016W        W 7410  27.005   5.541   1.382
39017W        W 7411  38.586  21.063   3.607
39018W        W 7412   0.714  32.464  11.474
39019W        W 7413  32.494  29.586   4.668
39020W        W 7414   5.796  21.298  10.732
39021W        W 7415   0.052  38.495  11.222
39022W        W 7416  29.180  30.898   3.715
39023W        W 7417  36.989  15.191   3.629
39024W        W 7418  41.043  31.308  11.576
39025W        W 7419  43.240  37.395   2.620
39026W        W 7420  40.746   2.226  11.580
39027W        W 7421  38.425  40.034   0.959
39028W        W 7422  11.875  22.944  11.235
39029W        W 7423  36.368  29.743  12.497
39030W        W 7424  30.728   7.677  13.376
39031W        W 7425  33.808  19.084  11.311
39032W        W 7426  16.708  15.858  13.866
39033W        W 7427  30.396  28.563   1.025
39034W        W 7428  26.072  15.780   2.755
39035W        W 7429  23.086   6.695  13.451
39036W        W 7430  19.746  34.610   2.320
39037W        W 7431  31.639  41.993  10.434
39038W        W 7432  30.573  21.657   0.926
39039W        W 7433  25.082   6.200  12.825
39040W        W 7434   8.925  20.180  11.672
39041W        W 7435  21.829  43.885   3.747
39042W        W 7436  17.579  12.819  11.515
39043W        W 7437  23.210   5.666  12.593
39044W        W 7438  39.176   5.708  14.568
39045W        W 7439  25.403  11.409  14.688
39046W        W 7440  30.573  29.615   1.371
39047W        W 7441   7.476  41.315   5.148
39048W        W 7442  32.900  30.905   2.606
39049W        W 7443  35.355  17.966   0.518
39050W        W 7444  12.961  30.100  11.408
39051W        W 7445  24.715  11.756  11.390
39052W        W 7446  34.617  28.445  12.531
39053W        W 7447   6.351   7.148   4.555
39054W        W 7448  12.576  27.132   1.759
39055W        W 7449  43.827  39.946   4.812
39056W        W 7450  22.519  12.828   3.789
39057W        W 7451  27.428  14.828   4.084
39058W        W 7452  12.430   3.403  13.090
39059W        W 7453  20.168  42.287   2.750
39060W        W 7454  36.896  14.683   3.529
39061W        W 7455  15.436   2.295   3.692
39062W        W 7456  16.894  15.893   5.054
39063W        W 7457  26.565  30.574   1.400
39064W        W 7458  24.299  13.401  13.976
39065W        W 7459  44.281  38.250   3.613
39066W        W 7460  16.579   9.159  10.660
39067W        W 7461  35.570  38.789  14.978
39068W        W 7462   9.823  10.792   1.163
39069W        W 7463  27.706  35.144   3.789
39070W        W 7464  29.667  43.991   1.720
39071W        W 7465  33.501  30.551  10.331
39072W        W 7466  40.657   3.722  10.925
39073W        W 7467   2.834  35.037   1.913
39074W        W 7468  39.294  34.558  10.742
39075W        W 7469  19.180  19.692  12.143
39076W        W 7470   4.875  44.321  13.916
39077W        W 7471   3.510  40.589  10.428
39078W        W 7472   5.207  15.544  12.626
39079W        W 7473  15.789  31.705  12.640
39080W        W 7474  35.000  27.046   1.217
39081W        W 7475  30.301  42.275  12.507
39082W        W 7476  14.703  26.458   0.484
39083W        W 7477  31.513  27.028   2.738
39084W        W 7478  28.072  35.573   0.336
39085W        W 7479   7.790  31.632  11.258
39086W        W 7480  14.315   7.274   3.595
39087W        W 7481   5.287  25.953   4.953
39088W        W 7482  10.696   4.002   4.597
39089W        W 7483  43.581  22.014   2.762
39090W        W 7484  38.533  25.708   1.219
39091W        W 7485  16.761  24.469   0.857
39092W        W 7486  22.307  41.505  11.613
39093W        W 7487   8.212  23.281   2.818
39094W        W 7488   5.665  36.958   2.529
39095W        W 7489  13.817  27.686  10.663
39096W        W 7490   8.386  35.844  12.116
39097W        W 7491  38.408  12.767  12.047
39098W        W 7492  32.142  26.919  10.539
39099W        W 7493  38.426   4.450  10.687
39100W        W 7494  20.020   9.125  11.573
39101W        W 7495   5.402  17.762  14.800
39102W        W 7496  37.567  29.496   4.912
39103W        W 7497  20.114  38.067  12.383
39104W        W 7498  14.648  11.718  10.886
39105W        W 7499  33.090  36.882   4.737
39106W        W 7500   5.371   3.468  14.522
39107W        W 7501  38.292   8.713  12.755
39108W        W 7502  39.283  32.000  13.309
39109W        W 7503   1.709  13.637   4.572
39110W        W 7504   7.243   2.714  13.979
39111W        W 7505  27.558   9.470  11.449
39112W        W 7506   4.477  42.544   0.739
39113W        W 7507   5.863  18.622  11.898
39114W        W 7508  12.277   8.880   1.740
39115W        W 7509  34.728  15.235   2.911
39116W        W 7510  12.178   0.267  11.528
39117W        W 7511   6.061  34.383   2.175
39118W        W 7512  33.559   5.927  10.248
39119W        W 7513  37.597  35.304  12.236
39120W        W 7514  40.577  36.696   2.189
39121W        W 7515   0.572  40.745  13.859
39122W        W 7516  11.369  19.821  10.518
39123W        W 7517  17.103  10.218  10.127
39124W        W 7518   8.118  32.020   0.230
39125W        W 7519  38.513  31.493  10.876
39126W        W 7520  18.791  23.050  13.848
39127W        W 7521  31.021  40.518  14.903
39128W        W 7522   9.661  35.535   4.159
39129W        W 7523  21.523  39.817  10.974
39130W        W 7524   5.906   4.059  13.291
39131W        W 7525  35.854  31.225   4.073
39132W        W 7526  10.829  34.555  12.522
39133W        W 7527  14.064  16.074   1.365
39134W        W 7528  39.046  13.798   1.273
39135W        W 7529   7.787   1.206  14.420
39136W        W 7530   1.717   4.507  10.818
39137W        W 7531  16.343  42.416   3.628
39138W        W 7532   2.316   4.885   4.187
39139W        W 7533  28.681  42.106   2.273
39140W        W 7534  20.241  21.735   3.238
39141W        W 7535  22.467  41.375   4.601
39142W        W 7536  43.321  26.197  11.623
39143W        W 7537   1.789  42.464  12.520
39144W        W 7538   8.497  25.478   3.125
39145W        W 7539  41.942  29.914  14.073
39146W        W 7540   9.121  24.561  14.335
39147W        W 7541  20.460  13.096  13.854
39148W        W 7542  21.954  35.337  10.623
39149W        W 7543  33.571  19.736   0.274
39150W        W 7544  31.127  41.584   3.831
39151W        W 7545  31.658   4.278   4.266
39152W        W 7546  12.896  37.429  12.732
39153W        W 7547  19.825  42.418   1.817
39154W        W 7548  17.058  17.711  11.966
39155W        W 7549  44.809  38.805   0.901
39156W        W 7550   6.487  33.561  14.932
39157W        W 7551  26.667  43.562   4.132
39158W        W 7552  18.511  21.727  14.931
39159W        W 7553  10.413  19.257  11.584
39160W        W 7554  22.969  28.053  12.140
39161W        W 7555  28.139  43.772  13.010
39162W        W 7556   4.197  31.520  13.441
39163W        W 7557  10.276  16.711   3.830
39164W        W 7558  13.849   7.399   4.287
39165W        W 7559  16.700   7.824   1.198
39166W        W 7560  14.623  12.527  10.332
39167W        W 7561  15.691  36.404  10.107
39168W        W 7562   3.193  35.399  14.892
39169W        W 7563   9.389  17.350  14.885
39170W        W 7564  19.618  20.157  10.182
39171W        W 7565  35.948  32.012   2.832
39172W        W 7566  27.449  14.771   0.776
39173W        W 7567  43.774   9.350  14.446
39174W        W 7568  32.604  31.196   2.014
39175W        W 7569   4.237  22.799  12.940
39176W        W 7570  20.361   9.481  14.154
39177W        W 7571  30.244  35.366  12.542
39178W        W 7572   5.979  30.935   1.451
39179W        W 7573   9.374   8.852   0.361
39180W        W 7574  31.051   3.469   4.581
39181W        W 7575  16.017  13.680   4.929
39182W        W 7576  21.933   4.386   2.291
39183W        W 7577  12.767  29.456   2.165
39184W        W 7578  39.318   3.478  14.760
39185W        W 7579  41.532  16.819   1.201
39186W        W 7580  40.543  10.454   1.729
39187W        W 7581  42.690  32.151   1.344
39188W        W 7582  34.399  32.005  12.225
39189W        W 7583  33.043  22.886  12.523
39190W        W 7584  25.501  40.537   3.326
39191W        W 7585  16.148  35.555   2.440
39192W        W 7586  16.224  35.632  11.736
39193W        W 7587  35.330  34.439   3.676
39194W        W 7588   7.079   5.381   4.633
39195W        W 7589  33.487  25.639  14.075
39196W        W 7590   3.233  37.949  14.765
39197W        W 7591   9.431  11.002   0.890
39198W        W 7592  13.404  31.565   1.946
39199W        W 7593   0.065  40.894  13.809
39200W        W 7594  30.100  42.321   2.600
39201W        W 7595  40.717  26.520   4.212
39202W        W 7596  25.790  27.944  13.912
39203W        W 7597  24.035  31.829  14.345
39204W        W 7598  35.125  42.494   4.285
39205W        W 7599  41.215  11.957  13.040
39206W        W 7600  35.864  30.379  12.910
39207W        W 7601   3.298   0.499   1.308
39208W        W 7602   3.187  34.029   2.183
39209W        W 7603  17.085  24.489  13.234
39210W        W 7604  37.413  36.279   1.991
39211W        W 7605  24.767  11.770   1.291
39212W        W 7606  39.030   8.334   3.132
39213W        W 7607  35.025   6.989   4.090
39214W        W 7608  20.359  39.975   2.196
39215W        W 7609  44.379  20.076  13.384
39216W        W 7610  28.735  29.927  11.579
39217W        W 7611  33.151  12.261  12.852
39218W        W 7612  11.430  21.820   4.332
39219W        W 7613  24.337  43.907   0.293
39220W        W 7614  43.312   7.076  14.996
39221W        W 7615  26.191  27.334   4.994
39222W        W 7616  31.569  39.514  10.642
39223W        W 7617  13.861   0.922   4.686
39224W        W 7618   7.232  36.434   0.777
39225W        W 7619   1.593  36.604   4.170
39226W        W 7620  11.691  10.354   1.455
39227W        W 7621  43.002  42.263   4.168
39228W        W 7622  32.947  31.993   2.825
39229W        W 7623  18.448  15.921  10.106
39230W        W 7624  17.101  15.451   1.008
39231W        W 7625  13.852  11.388   1.920
39232W        W 7626  41.970  42.927  14.314
39233W        W 7627   9.112  22.394   1.869
39234W        W 7628  19.947  24.567  10.557
39235W        W 7629  36.564  28.408  12.062
39236W        W 7630   1.486   7.746  10.488
39237W        W 7631   9.005  28.991   2.601
39238W        W 7632  19.753   2.880  10.754
39239W        W 7633  33.801  39.696  11.636
39240W        W 7634   6.184  37.660  12.008
39241W        W 7635  10.226  44.550   2.120
39242W        W 7636  33.639  19.200  14.908
39243W        W 7637  42.004  24.464   3.168
39244W        W 7638  23.500  11.614  12.977
39245W        W 7639  25.143   2.986   4.028
39246W        W 7640   6.376  14.733  14.050
39247W        W 7641  25.517   5.903   1.724
39248W        W 7642  15.532  29.951   2.205
39249W        W 7643  23.453   3.998  11.533
39250W        W 7644  27.543   2.249  13.996
39251W        W 7645  28.058   3.026  14.955
39252W        W 7646  21.345  20.496   1.228
39253W        W 7647   8.435  19.490   3.358
39254W        W 7648  41.291  28.493   4.748
39255W        W 7649   0.828  36.510   2.839
39256W        W 7650  33.034  14.727  14.047
39257W        W 7651   1.853  28.227  10.659
39258W        W 7652   2.107  43.383  11.636
39259W        W 7653  35.151   1.385  14.061
39260W        W 7654  31.489  26.488   4.107
39261W        W 7655   0.414  27.116   3.804
39262W        W 7656  23.715   7.629  11.864
39263W        W 7657  18.629  15.603  14.630
39264W        W 7658  34.704  32.467   1.674
39265W        W 7659  13.775  36.763   3.094
39266W        W 7660   9.997   2.961   4.218
39267W        W 7661  17.577  20.651   3.254
39268W        W 7662   9.883  38.440  10.594
39269W        W 7663  16.542  26.893   9.859
39270W        W 7664  39.346  11.096   2.000
39271W        W 7665   7.240  44.859   4.000
39272W        W 7666  20.247   0.359   2.787
39273W        W 7667  27.068   6.973   4.565
39274W        W 7668  23.149  42.603   4.211
39275W        W 7669  35.955   5.614   2.467
39276W        W 7670  18.295  38.980  12.113
39277W        W 7671  32.887  21.329  13.535
39278W        W 7672  29.150  40.380  13.735
39279W        W 7673   7.394  33.898   0.063
39280W        W 7674  15.120   6.691   1.507
39281W        W 7675  11.546  36.036   1.803
39282W        W 7676  23.591  34.911  12.307
39283W        W 7677   7.635  23.586  10.548
39284W        W 7678  14.683   2.395  11.601
39285W        W 7679  25.750  43.288   4.374
39286W        W 7680  22.618   1.043  10.702
39287W        W 7681  22.100  23.032   3.041
39288W        W 7682  29.366  40.823   3.830
39289W        W 7683  33.475  11.823   1.280
39290W        W 7684  27.677  33.814  12.405
39291W        W 7685  10.553  40.044  14.470
39292W        W 7686   2.929  22.007  13.964
39293W        W 7687   2.571  25.686  13.577
39294W        W 7688  17.590  20.680   0.783
39295W        W 7689  24.811  26.679   1.697
39296W        W 7690  24.740  44.711  12.934
39297W        W 7691  38.913  35.913   3.587
39298W        W 7692  44.003  26.775  13.905
39299W        W 7693  35.401  30.706  12.094
39300W        W 7694   6.315  30.897   3.338
39301W        W 7695   9.249  36.958  10.721
39302W        W 7696  41.985  15.853   1.878
39303W        W 7697   4.020  10.023  13.285
39304W        W 7698  31.669  19.069  13.942
39305W        W 7699  43.157  10.349  12.284
39306W        W 7700  44.623   9.744  14.074
39307W        W 7701   7.376   1.224   1.644
39308W        W 7702  42.562  34.950  11.635
39309W        W 7703  24.270  20.335   3.723
39310W        W 7704  34.877  20.628   4.355
39311W        W 7705  23.200  42.113  11.645
39312W        W 7706   4.880   7.864   3.618
39313W        W 7707  29.720  27.494   3.674
39314W        W 7708  13.790  30.974  11.010
39315W        W 7709  13.878   7.906   3.485
39316W        W 7710  12.581  25.823   1.916
39317W        W 7711  40.231  17.357  14.480
39318W        W 7712  30.499   6.398   5.131
39319W        W 7713  16.830  42.931   0.723
39320W        W 7714  28.396  24.775   4.615
39321W        W 7715  13.607   4.366   0.649
39322W        W 7716  23.659  43.418   4.643
39323W        W 7717  18.834   4.757   3.623
39324W        W 7718  36.949  28.420   2.228
39325W        W 7719  22.565  24.289   0.844
39326W        W 7720  34.515  11.118   3.077
39327W        W 7721  20.801   2.285   1.418
39328W        W 7722   4.900  36.120  14.843
39329W        W 7723   1.888  15.282  11.734
39330W        W 7724  24.690  25.278  14.773
39331W        W 7725  15.159  31.247   0.412
39332W        W 7726  21.513  15.191  12.508
39333W        W 7727  34.348  43.344   1.609
39334W        W 7728  13.897  41.387  12.451
39335W        W 7729  21.932  39.881  10.658
39336W        W 7730  24.693   0.321  13.809
39337W        W 7731  20.894  24.739   1.440
39338W        W 7732  11.617   7.790  14.976
39339W        W 7733   0.149  44.966   0.148
39340W        W 7734  10.644  20.754   3.415
39341W        W 7735  29.576   5.372   2.293
39342W        W 7736  41.573  30.105  11.674
39343W        W 7737  30.626  42.720  10.592
39344W        W 7738   5.746  30.712   1.907
39345W        W 7739   3.325  14.742  14.974
39346W        W 7740  44.161  27.452   2.029
39347W        W 7741  27.215  41.449   0.736
39348W        W 7742  27.945  43.423  14.661
39349W        W 7743   9.448   2.366   2.206
39350W        W 7744  17.487   4.224   2.808
39351W        W 7745  21.766   2.440   1.055
39352W        W 7746   8.665  39.051  14.035
39353W        W 7747  36.469   4.365  14.109
39354W        W 7748  42.788  26.695  13.832
39355W        W 7749   0.904  23.945   3.259
39356W        W 7750  11.145  36.994   1.589
39357W        W 7751  28.986   1.464  12.688
39358W        W 7752  31.483   5.766   4.526
39359W        W 7753  35.640  44.134   2.920
39360W        W 7754  29.416   2.023   1.653
39361W        W 7755  10.361  37.332  13.392
39362W        W 7756  30.163  40.963  11.040
39363W        W 7757  42.044   9.345  10.811
39364W        W 7758  37.819  41.392  10.684
39365W        W 7759   3.699  34.704  11.171
39366W        W 7760  33.009  28.448  14.858
39367W        W 7761  12.624   1.543  11.638
39368W        W 7762  38.161  38.584   1.251
39369W        W 7763  33.044   8.635  14.031
39370W        W 7764  26.566   6.005  11.152
39371W        W 7765  38.995  39.547   3.352
39372W        W 7766  41.792   3.405  14.393
39373W        W 7767  13.714  44.880  13.067
39374W        W 7768  15.047  28.507  12.213
39375W        W 7769  19.456  25.054   1.870
39376W        W 7770  15.645  43.002   3.688
39377W        W 7771  24.120  42.895  11.941
39378W        W 7772  10.330  30.398   1.905
39379W        W 7773  37.498  29.173   3.104
39380W        W 7774   0.262   4.802  11.499
39381W        W 7775  40.501  12.937   1.382
39382W        W 7776   5.973  27.948  12.680
39383W        W 7777   1.879  30.563   0.470
39384W        W 7778  39.947  36.787  13.427
39385W        W 7779  10.390  19.362   2.436
39386W        W 7780  21.430  33.087  14.590
39387W        W 7781  20.792   9.290   4.187
39388W        W 7782  29.704  18.873  11.191
39389W        W 7783  43.432  28.053  12.187
39390W        W 7784  10.833  13.360   4.709
39391W        W 7785  14.460  12.757   1.385
39392W        W 7786  22.973  28.106   4.488
39393W        W 7787  26.529  13.852   1.446
39394W        W 7788  28.398  18.735  13.932
39395W        W 7789   4.527  15.526   0.382
39396W        W 7790  19.513   9.421   3.817
39397W        W 7791   4.743  22.535   2.216
39398W        W 7792  29.068  38.843   1.697
39399W        W 7793  29.980  26.693  12.064
39400W        W 7794  30.966  36.370   1.707
39401W        W 7795  22.965  21.212  12.468
39402W        W 7796  43.065  43.924  10.694
39403W        W 7797  26.116   3.826  10.568
39404W        W 7798  31.534  28.228  12.012
39405W        W 7799  34.030  18.000   1.985
39406W        W 7800   3.369  26.232   0.796
39407W        W 7801  43.837  44.665   0.976
39408W        W 7802  18.109  26.703   1.314
39409W        W 7803  42.500  10.874  12.085
39410W        W 7804  21.681  40.572   4.128
39411W        W 7805   7.769  22.216  12.448
39412W        W 7806  10.172  28.454   1.430
39413W        W 7807   8.576  35.372  14.431
39414W        W 7808   1.331  43.236  12.217
39415W        W 7809  22.528   5.797   3.663
39416W        W 7810  43.109  41.488   3.716
39417W        W 7811  39.562  20.736  12.585
39418W        W 7812  10.632   7.714  13.819
39419W        W 7813  10.892   4.355  13.381
39420W        W 7814  35.639  20.040  12.933
39421W        W 7815  35.399  10.144   2.394
39422W        W 7816  27.806  21.123  11.102
39423W        W 7817  10.453  14.678  11.171
39424W        W 7818  30.178  13.384  10.450
39425W        W 7819  44.915  44.389   1.404
39426W        W 7820  27.968  23.616   0.463
39427W        W 7821  13.097  42.152   1.864
39428W        W 7822  27.095  32.882   4.008
39429W        W 7823  26.506  41.565   4.142
39430W        W 7824  42.102  15.140   0.557
39431W        W 7825  14.246  36.847   3.295
39432W        W 7826  40.342   7.817   1.174
39433W        W 7827  41.406  41.559   0.277
39434W        W 7828  36.844  14.335  14.391
39435W        W 7829  16.515  24.877   1.159
39436W        W 7830  27.135  23.088  10.572
39437W        W 7831  34.593  32.729   2.185
39438W        W 7832   1.719   4.871  13.629
39439W        W 7833  30.441   1.667  13.384
39440W        W 7834  16.561  36.953  12.478
39441W        W 7835  14.700   3.068  12.824
39442W        W 7836  23.027  25.179  14.770
39443W        W 7837  25.906  37.282   0.901
39444W        W 7838  11.604   7.994   1.565
39445W        W 7839  17.286   7.664   0.433
39446W        W 7840  15.155  18.253  10.141
39447W        W 7841  43.903   9.641  13.896
39448W        W 7842  30.070  35.683   1.596
39449W        W 7843  42.450  32.346  12.000
39450W        W 7844   4.834  35.194  13.774
39451W        W 7845  37.451   8.482   0.065
39452W        W 7846   4.378  31.450  12.598
39453W        W 7847  36.090  44.874  11.469
39454W        W 7848  29.473  34.519  14.844
39455W        W 7849  42.495   8.696  14.568
39456W        W 7850  22.477  33.962  11.712
39457W        W 7851  41.477   2.312   3.755
39458W        W 7852  25.062  25.695  12.853
39459W        W 7853  43.723  14.149  10.672
39460W        W 7854   8.993  11.702   3.812
39461W        W 7855  42.428  38.482  11.245
39462W        W 7856  19.354  26.916  12.966
39463W        W 7857  15.241  44.941   2.403
39464W        W 7858  24.064   1.003  12.937
39465W        W 7859   7.714  35.436   2.969
39466W        W 7860  25.355  21.363   4.901
39467W        W 7861  32.424  38.850  10.244
39468W        W 7862   9.239  19.843   2.362
39469W        W 7863  33.210  12.579   4.835
39470W        W 7864  16.364  36.062   2.908
39471W        W 7865  19.201  26.007   1.661
39472W        W 7866  25.763  21.370   0.883
39473W        W 7867  43.741  20.228  12.563
39474W        W 7868  21.082  11.037   5.194
39475W        W 7869  30.121  23.541   3.668
39476W        W 7870  43.886   3.744  14.050
39477W        W 7871  20.613   6.838   0.199
39478W        W 7872  26.306  34.214  14.771
39479W        W 7873  14.132  31.947   2.697
39480W        W 7874  41.283  20.318  13.057
39481W        W 7875  17.223  34.145   3.616
39482W        W 7876  19.952  17.319  10.650
39483W        W 7877  41.146  14.445  12.939
39484W        W 7878  33.168  38.083   1.358
39485W        W 7879   5.855   5.221  10.571
39486W        W 7880  27.268  36.891   4.716
39487W        W 7881  27.974  19.539  14.570
39488W        W 7882  25.088  23.553   0.270
39489W        W 7883  31.122  37.263   3.245
39490W        W 7884   5.270  31.687   1.478
39491W        W 7885  24.605  15.277   1.828
39492W        W 7886  18.991  25.564  13.844
39493W        W 7887  15.793  30.930  14.862
39494W        W 7888  27.215  36.597  13.986
39495W        W 7889  27.244  10.899  14.414
39496W        W 7890  34.365   8.209  10.861
39497W        W 7891  20.745  41.439  13.635
39498W        W 7892  27.923  30.411   1.751
39499W        W 7893  36.074   7.757   0.671
39500W        W 7894  11.179  29.927   3.275
39501W        W 7895  24.152  35.870  14.072
39502W        W 7896   9.324  29.889  10.988
39503W        W 7897   0.482   2.454  11.852
39504W        W 7898  20.601  38.460   3.573
39505W        W 7899  42.932  23.922   3.830
39506W        W 7900   5.831   8.671   2.899
39507W        W 7901   5.865  23.664  14.542
39508W        W 7902   7.557   7.279  12.302
39509W        W 7903  27.327  22.716   1.560
39510W        W 7904   7.070   4.410   1.624
39511W        W 7905  20.205  15.806   0.387
39512W        W 7906  18.813  31.474   0.771
39513W        W 7907   5.662  24.766  11.736
39514W        W 7908  30.453  14.600  11.638
39515W        W 7909  28.009  11.371   4.525
39516W        W 7910  43.919  41.433   4.837
39517W        W 7911  34.584  14.247  12.733
39518W        W 7912  36.013  31.126  11.738
39519W        W 7913  24.168  44.638  14.089
39520W        W 7914   6.311  13.529  12.500
39521W        W 7915  26.005   1.148  11.052
39522W        W 7916  25.943   4.678  11.115
39523W        W 7917  33.133  19.273  14.850
39524W        W 7918  11.694  16.020   3.697
39525W        W 7919   3.876  25.725   2.200
39526W        W 7920  28.719  42.984  11.520
39527W        W 7921  24.268  20.246  12.986
39528W        W 7922  27.917   7.387   3.642
39529W        W 7923   8.355   7.731  11.216
39530W        W 7924   8.591  34.986   2.862
39531W        W 7925  16.312   1.988   1.352
39532W        W 7926  27.481  10.669  13.507
39533W        W 7927  14.602  21.993   2.310
39534W        W 7928  25.538  26.954  12.419
39535W        W 7929   8.978   8.258  13.991
39536W        W 7930  38.932  14.835  10.882
39537W        W 7931  37.101  35.968  13.437
39538W        W 7932  24.890   2.693  11.059
39539W        W 7933  15.295   6.165   1.628
39540W        W 7934   5.983   6.400   0.781
39541W        W 7935  19.592   1.431  14.454
39542W        W 7936  36.119  22.118   2.178
39543W        W 7937  42.556  43.656   0.687
39544W        W 7938  12.640  21.158  11.552
39545W        W 7939  13.764  38.305  10.846
39546W        W 7940   5.870   4.930  14.962
39547W        W 7941  18.091   6.350  11.406
39548W        W 7942  37.377  32.479   0.440
39549W        W 7943   8.416   7.295   4.907
39550W        W 7944  15.269  31.653  14.419
39551W        W 7945   8.866  17.631  12.101
39552W        W 7946  17.798   3.485  12.777
39553W        W 7947  36.978   0.747   4.548
39554W        W 7948  32.719  10.655  11.968
39555W        W 7949  13.228  21.961   0.760
39556W        W 7950  38.312  40.985   4.715
39557W        W 7951  18.548  20.520  12.610
39558W        W 7952  25.207   1.710   0.744
39559W        W 7953  11.232   9.023   2.427
39560W        W 7954  11.160   7.992   4.521
39561W        W 7955  24.757  18.502   3.713
39562W        W 7956  43.376   1.544   4.858
39563W        W 7957  27.603  38.303  12.675
39564W        W 7958   7.763  39.413   3.699
39565W        W 7959  17.996  38.117   3.944
39566W        W 7960   6.064   8.775  11.930
39567W        W 7961  17.162  17.787   4.070
39568W        W 7962  25.031   9.196  10.544
39569W        W 7963  24.965  42.283  13.283
39570W        W 7964  24.470  14.064   2.245
39571W        W 7965  15.275  19.293   1.779
39572W        W 7966  18.414  44.453  11.868
39573W        W 7967  30.337  13.617  13.405
39574W        W 7968   2.485  41.306   3.273
39575W        W 7969   7.956  26.213   4.512
39576W        W 7970  25.994  37.881   3.740
39577W        W 7971  31.658  42.456   2.745
39578W        W 7972   5.057  35.913   0.292
39579W        W 7973  17.334   3.347   1.505
39580W        W 7974   6.551   2.174   9.896
39581W        W 7975  38.568  31.669  14.025
39582W        W 7976  16.266  29.067  13.829
39583W        W 7977  19.328   0.102   1.569
39584W        W 7978  34.554   7.189  13.869
39585W        W 7979   0.983   4.905  14.765
39586W        W 7980  16.354  27.516   3.620
39587W        W 7981  25.675  26.552  14.504
39588W        W 7982  24.235  27.605  12.533
39589W        W 7983  15.215  20.485   2.853
39590W        W 7984  25.685  40.118   2.085
39591W        W 7985  39.318  40.268  11.147
39592W        W 7986  39.521  20.570  14.879
39593W        W 7987  38.593  40.024  11.654
39594W        W 7988  16.661  41.964  13.169
39595W        W 7989   3.494  11.275   3.007
39596W        W 7990   3.634  28.455   3.741
39597W        W 7991  44.391  33.366  13.134
39598W        W 7992  15.118  15.986   2.655
39599W        W 7993  39.016  16.813  10.797
39600W        W 7994  11.888  22.893  12.794
39601W        W 7995  29.472   9.394   0.246
39602W        W 7996  29.061  42.440   4.358
39603W        W 7997  29.424   2.511   4.465
39604W        W 7998  32.831   7.765  12.733
39605W        W 7999  42.136  22.939   4.750
39606W        W 8000  35.508   6.901   1.840
39607W        W 8001   0.341   7.873   3.319
39608W        W 8002  17.461   0.486  10.285
39609W        W 8003  36.441  40.783   0.841
39610W        W 8004  13.754  23.294  11.067
39611W        W 8005  22.577  14.196   0.059
39612W        W 8006   2.405  19.576  10.756
39613W        W 8007  43.793  40.278   0.699
39614W        W 8008  32.913  13.360   1.782
39615W        W 8009  27.634  26.933  12.194
39616W        W 8010  28.856  27.687  12.660
39617W        W 8011  12.722  24.758  12.603
39618W        W 8012  31.339  38.269  14.494
39619W        W 8013  23.995  40.303   3.961
39620W        W 8014  35.400  28.625  12.028
39621W        W 8015   7.306   3.258   1.900
39622W        W 8016  15.645  38.659  12.551
39623W        W 8017  18.698   6.417  10.079
39624W        W 8018  39.489  37.937   1.521
39625W        W 8019  16.268  34.872  12.390
39626W        W 8020   0.499  19.629  12.656
39627W        W 8021   7.529   3.412  13.552
39628W        W 8022  44.364  39.755   3.653
39629W        W 8023  30.143  13.188  13.991
39630W        W 8024  38.585  44.322  10.899
39631W        W 8025  41.480  21.257   3.322
39632W        W 8026   8.168   2.247  12.071
39633W        W 8027  23.532   8.453  10.636
39634W        W 8028  37.252   3.094   4.961
39635W        W 8029   5.174   5.913   4.284
39636W        W 8030  16.674   2.007  14.364
39637W        W 8031  37.539  29.566  14.336
39638W        W 8032  24.628  11.571   2.610
39639W        W 8033  16.309  25.200   4.673
39640W        W 8034  34.881  40.992   0.077
39641W        W 8035   1.696  31.992  14.652
39642W        W 8036  27.502  41.523   1.690
39643W        W 8037  37.831  19.510  11.523
39644W        W 8038  30.424   3.201   9.785
39645W        W 8039  17.863  36.382   1.875
39646W        W 8040  42.037  27.438   0.901
39647W        W 8041  10.687  44.218  13.952
39648W        W 8042   7.705  14.699  13.422
39649W        W 8043  26.085  11.783   3.600
39650W        W 8044   4.003  39.179  13.856
39651W        W 8045  27.013  11.641   9.745
39652W        W 8046  41.062  24.296  14.507
39653W        W 8047  35.132  24.688   1.342
39654W        W 8048   4.020   1.447   3.656
39655W        W 8049  23.298  33.913   4.102
39656W        W 8050  29.485  18.841   2.279
39657W        W 8051  17.655  33.957   1.202
39658W        W 8052  39.880   6.476  12.461
39659W        W 8053  32.921  41.031   3.610
39660W        W 8054  16.703  33.030   3.169
39661W        W 8055  13.557  13.707   2.320
39662W        W 8056  39.878   8.827   2.290
39663W        W 8057  24.715  16.283   1.923
39664W        W 8058  34.707   5.985   3.291
39665W        W 8059  28.005  17.300  14.854
39666W        W 8060  35.926  14.755  12.438
39667W        W 8061  41.451   9.394   0.241
39668W        W 8062   5.419  23.968  12.761
39669W        W 8063  20.061  33.037  14.300
39670W        W 8064   7.441  30.621   3.657
39671W        W 8065  38.781  16.776  10.314
39672W        W 8066  25.169  27.436   3.665
39673W        W 8067  23.065  43.557  10.876
39674W        W 8068  25.943   4.831  14.457
39675W        W 8069  22.098  24.972  10.687
39676W        W 8070  38.071  37.943   1.835
39677W        W 8071   1.439  41.020  11.675
39678W        W 8072  43.739  33.439  10.654
39679W        W 8073   7.431  19.261   0.826
39680W        W 8074  43.064  37.287  10.825
39681W        W 8075  11.084  23.469  12.039
39682W        W 8076  31.478  14.769  11.563
39683W        W 8077   3.898   4.761  13.844
39684W        W 8078  21.038  21.714   3.893
39685W        W 8079  43.171  30.604   4.132
39686W        W 8080  31.551  36.904   3.899
39687W        W 8081  41.760  31.428  12.046
39688W        W 8082  33.142  34.328   0.750
39689W        W 8083  20.278  30.655   0.471
39690W        W 8084  35.355  20.505  11.797
39691W        W 8085  33.490  10.592  12.525
39692W        W 8086  41.756  24.513   0.821
39693W        W 8087  44.401  22.785   1.858
39694W        W 8088  31.561   8.586  14.316
39695W        W 8089  19.276  29.938  12.895
39696W        W 8090   5.941  25.647   2.189
39697W        W 8091   1.099  12.748  11.375
39698W        W 8092  16.520   9.824   3.320
39699W        W 8093  24.568  38.647  13.864
39700W        W 8094  13.603  30.671  13.612
39701W        W 8095  12.119  37.075  12.972
39702W        W 8096  10.199  24.056   1.324
39703W        W 8097   3.502  20.317  14.429
39704W        W 8098  41.217   0.738   2.999
39705W        W 8099  29.107  40.330  11.647
39706W        W 8100  10.321   8.157   2.682
39707W        W 8101  36.411   3.401   0.201
39708W        W 8102  40.591  20.977   3.355
39709W        W 8103  30.908  40.967   0.869
39710W        W 8104  21.783   0.523  12.089
39711W        W 8105  17.277  42.205  13.781
39712W        W 8106  35.348   5.950  11.616
39713W        W 8107  13.012   3.984  10.687
39714W        W 8108  41.783  16.854   4.144
39715W        W 8109  32.469   4.245  10.675
39716W        W 8110   9.773  35.591   0.914
39717W        W 8111  37.514   1.800  13.522
39718W        W 8112  23.588   6.733  10.704
39719W        W 8113  43.777  26.678   3.310
39720W        W 8114  24.225  32.160  11.220
39721W        W 8115  21.629   7.379  14.044
39722W        W 8116  18.269  44.334  10.598
39723W        W 8117  39.941  21.135   2.366
39724W        W 8118  13.154   9.978   0.917
39725W        W 8119  27.404  33.417  12.683
39726W        W 8120   6.022   9.892   2.255
39727W        W 8121  44.399  23.678   0.805
39728W        W 8122  17.646   9.815  12.200
39729W        W 8123  16.131  35.859  13.401
39730W        W 8124  39.444  36.509   0.756
39731W        W 8125   7.175  28.660  12.426
39732W        W 8126  14.909   4.126   3.808
39733W        W 8127  43.805  36.308  12.137
39734W        W 8128  38.490  44.713  11.629
39735W        W 8129   1.409  36.128   4.104
39736W        W 8130  43.836  12.111  14.365
39737W        W 8131  11.778   9.730   3.782
39738W        W 8132  21.202   7.469   0.786
39739W        W 8133  14.773  14.403  10.711
39740W        W 8134  16.267  36.859  11.918
39741W        W 8135  43.990   9.672   3.799
39742W        W 8136  12.079  26.568   2.137
39743W        W 8137  35.571  13.302   4.556
39744W        W 8138   5.217  24.570   0.896
39745W        W 8139   6.652  18.710  11.499
39746W        W 8140  34.522  18.536  12.357
39747W        W 8141  38.259   5.897   3.797
39748W        W 8142   3.729   2.949   4.105
39749W        W 8143  13.113  14.344  11.139
39750W        W 8144   4.245   8.280  11.386
39751W        W 8145  42.398  41.013   2.319
39752W        W 8146  27.640   8.729   2.024
39753W        W 8147   9.871  32.666   1.351
39754W        W 8148  40.511  21.639  11.193
39755W        W 8149  36.090  11.615  13.857
39756W        W 8150  40.419  44.013  12.918
39757W        W 8151  31.384  44.293   3.843
39758W        W 8152  14.274  35.922   2.692
39759W        W 8153   7.849   2.798  11.991
39760W        W 8154  30.092  37.495  14.771
39761W        W 8155  39.318  19.701  11.662
39762W        W 8156  12.110  31.824  11.237
39763W        W 8157  35.417  39.811   4.735
39764W        W 8158  40.555  37.543  10.639
39765W        W 8159  23.144   0.918   2.749
39766W        W 8160  32.910  23.112  10.748
39767W        W 8161  27.583  13.756   4.682
39768W        W 8162  33.115  12.008  12.391
39769W        W 8163  19.745  37.220   3.222
39770W        W 8164  21.501  15.789   1.737
39771W        W 8165  20.167   1.858   1.506
39772W        W 8166   4.020  36.313  14.464
39773W        W 8167   6.882  12.634   1.478
39774W        W 8168   7.729  27.390   4.529
39775W        W 8169   2.484   9.247  14.468
39776W        W 8170  13.358  40.998   3.163
39777W        W 8171  32.411  18.626   2.809
39778W        W 8172   0.783  22.358  11.515
39779W        W 8173   1.841  19.456  13.989
39780W        W 8174  30.459  36.167   0.002
39781W        W 8175  21.252  33.999  11.043
39782W        W 8176  11.405  25.630  11.550
39783W        W 8177  24.112   3.290   4.169
39784W        W 8178  22.753  24.561   4.089
39785W        W 8179  15.522   8.855  14.004
39786W        W 8180  41.487  26.321  10.582
39787W        W 8181  11.301   6.676   2.599
39788W        W 8182  32.636   9.321  12.158
39789W        W 8183  43.544  15.705  14.017
39790W        W 8184   3.199  15.881  11.195
39791W        W 8185  17.205  28.440   3.276
39792W        W 8186  17.191  39.652   5.364
39793W        W 8187  34.510  16.695   4.123
39794W        W 8188  21.931  27.165  12.490
39795W        W 8189  41.547  38.660  12.662
39796W        W 8190  42.043  13.775   3.854
39797W        W 8191   4.489  23.029   4.991
39798W        W 8192  28.870  43.337  14.046
39799W        W 8193  15.619  15.130   2.308
39800W        W 8194  28.908   2.240   4.572
39801W        W 8195  24.018  38.068   3.753
39802W        W 8196   5.440  10.154  11.432
39803W        W 8197  25.794  23.995  14.356
39804W        W 8198   0.867  33.950   3.742
39805W        W 8199   1.076  32.286   3.477
39806W        W 8200  34.478   4.192   1.874
39807W        W 8201  34.670  18.982  12.556
39808W        W 8202  17.431  25.637  11.123
39809W        W 8203  30.285   2.290  11.209
39810W        W 8204  44.577   4.265   3.602
39811W        W 8205  22.830   4.906  13.027
39812W        W 8206   2.398  33.966   0.530
39813W        W 8207   6.308  43.071  14.854
39814W        W 8208   5.504   0.486   0.393
39815W        W 8209  29.388  17.003   4.386
39816W        W 8210  37.955   5.877   2.631
39817W        W 8211  31.150   5.176   0.763
39818W        W 8212  42.805  37.418   1.742
39819W        W 8213   2.959  24.550  13.924
39820W        W 8214   9.817   8.647  11.943
39821W        W 8215  27.008   3.784   1.659
39822W        W 8216  38.949  41.091   1.381
39823W        W 8217   1.415  28.953  13.603
39824W        W 8218  20.287  41.344  13.933
39825W        W 8219   3.368  34.788   3.632
39826W        W 8220  28.061  38.850  11.532
39827W        W 8221  10.160  43.959   0.558
39828W        W 8222  27.610   0.958   1.707
39829W        W 8223  33.834   7.676   3.783
39830W        W 8224  27.367  32.145  11.523
39831W        W 8225  37.775  12.717  12.983
39832W        W 8226   9.635  18.803  11.589
39833W        W 8227  42.914  17.100   0.330
39834W        W 8228  29.056  11.766   3.607
39835W        W 8229  19.443  31.813   3.501
39836W        W 8230  30.109  31.951  12.063
39837W        W 8231   1.772   6.366  11.062
39838W        W 8232  40.382  33.441  14.063
39839W        W 8233  34.760  39.979   3.243
39840W        W 8234  25.988  26.492  14.924
39841W        W 8235  39.379  33.937   4.450
39842W        W 8236  15.263  40.601   5.059
39843W        W 8237  30.070  37.947   2.335
39844W        W 8238  18.111   9.904  11.018
39845W        W 8239  38.764  22.111   1.236
39846W        W 8240  13.375  27.924  14.394
39847W        W 8241  29.607  25.229   3.641
39848W        W 8242   1.234   5.176   1.215
39849W        W 8243  36.975  37.160   2.336
39850W        W 8244  18.278   5.207   2.287
39851W        W 8245   5.841  14.055  13.021
39852W        W 8246  10.254   1.275   0.934
39853W        W 8247  26.193  35.163  14.944
39854W        W 8248  38.013  44.784   0.835
39855W        W 8249   9.853  33.588   4.300
39856W        W 8250   3.175  13.697  12.552
39857W        W 8251  34.493  25.806  10.431
39858W        W 8252  37.930  29.137   3.388
39859W        W 8253   2.652   4.258   3.138
39860W        W 8254  24.948  12.090   3.355
39861W        W 8255  15.260  31.107  14.301
39862W        W 8256   9.814  43.460   4.395
39863W        W 8257  22.737  17.691  10.621
39864W        W 8258  42.523   2.720  14.409
39865W        W 8259  42.899   7.039   4.090
39866W        W 8260  16.706  34.962   4.630
39867W        W 8261  42.705  15.281   1.796
39868W        W 8262  25.491  15.752  14.849
39869W        W 8263  38.886  32.024   1.685
39870W        W 8264  36.880  29.936  14.965
39871W        W 8265   9.265   9.585   1.261
39872W        W 8266  16.256  22.146   1.992
39873W        W 8267  22.532  28.923   2.850
39874W        W 8268   9.416  40.131   1.769
39875W        W 8269  15.796  44.584  12.543
39876W        W 8270  29.697  11.207   3.348
39877W        W 8271  15.741  39.645   1.870
39878W        W 8272  24.360  10.288   0.006
39879W        W 8273  39.673  21.292   1.955
39880W        W 8274   9.132  15.013   3.224
39881W        W 8275  10.116  42.201   3.597
39882W        W 8276  26.455  20.466  12.627
39883W        W 8277  42.872  36.929  14.301
39884W        W 8278  37.844  31.845  13.345
39885W        W 8279  35.898  44.277   1.236
39886W        W 8280  34.637  42.495  12.084
39887W        W 8281   3.504  10.845   0.759
39888W        W 8282  30.567  30.525   5.003
39889W        W 8283  37.718  13.567  13.578
39890W        W 8284  36.252  18.055  11.621
39891W        W 8285   2.669  25.142   2.674
39892W        W 8286  13.613  26.464  11.148
39893W        W 8287  19.701  20.168   0.452
39894W        W 8288  29.202   8.222   2.290
39895W        W 8289  43.316  18.551  11.829
39896W        W 8290  14.977   3.961   4.848
39897W        W 8291   5.869  22.874  13.680
39898W        W 8292  17.964   7.173  10.695
39899W        W 8293  23.118  24.506  11.181
39900W        W 8294  34.085  33.030   4.304
39901W        W 8295   8.670   2.814  13.979
39902W        W 8296  13.801  37.990  14.357
39903W        W 8297   9.049  19.878   0.001
39904W        W 8298  34.330  12.783   1.799
39905W        W 8299  40.446  12.667   2.319
39906W        W 8300  34.891   2.442  11.527
39907W        W 8301  38.504  30.304  13.050
39908W        W 8302  34.653   9.333  12.077
39909W        W 8303  27.659  26.658   0.418
39910W        W 8304  14.413  15.672   1.372
39911W        W 8305  44.332  32.317  11.145
39912W        W 8306  39.128  22.456  14.978
39913W        W 8307   4.702  15.528  12.565
39914W        W 8308  13.422  10.223   3.924
39915W        W 8309  25.385  41.327   4.092
39916W        W 8310  37.420  35.864   2.367
39917W        W 8311  24.671  17.368   2.876
39918W        W 8312  34.036  40.490   4.968
39919W        W 8313   9.128   2.340  14.669
39920W        W 8314  44.198   8.944  10.342
39921W        W 8315  20.621  19.128   0.724
39922W        W 8316  12.733  22.454  13.179
39923W        W 8317  39.425  36.044   3.664
39924W        W 8318  19.757  31.426   3.657
39925W        W 8319  27.551  12.870  14.570
39926W        W 8320  27.589  43.229  13.332
39927W        W 8321  33.108  23.176  14.920
39928W        W 8322  15.716   2.935   1.902
39929W        W 8323   6.310  34.972   0.844
39930W        W 8324  15.106   2.263   4.130
39931W        W 8325  27.375  24.571   0.146
39932W        W 8326   4.452  25.417   3.324
39933W        W 8327  35.671  39.562  11.962
39934W        W 8328  36.985   7.365  13.941
39935W        W 8329   5.669   2.183  14.905
39936W        W 8330  17.873   7.723   1.843
39937W        W 8331  21.632  12.649  11.146
39938W        W 8332  24.780  15.597   3.640
39939W        W 8333   4.958  37.635  11.668
39940W        W 8334   2.667  25.603   1.757
39941W        W 8335  44.462   2.473   3.170
39942W        W 8336   6.223  25.535  11.991
39943W        W 8337  24.957  18.154   2.603
39944W        W 8338   1.690   1.812   2.324
39945W        W 8339  20.832  33.473   2.257
39946W        W 8340  31.645  29.980   0.703
39947W        W 8341  12.603  13.575  11.205
39948W        W 8342  15.160  26.687  14.812
39949W        W 8343  20.109  34.405  10.727
39950W        W 8344  35.006   4.480   1.197
39951W        W 8345  26.736  41.058   0.452
39952W        W 8346  30.347  39.093   3.380
39953W        W 8347  30.956  41.913   2.771
39954W        W 8348   1.407  16.165  10.287
39955W        W 8349  10.746   4.416   0.325
39956W        W 8350  17.656  22.096  13.863
39957W        W 8351   2.687   3.914  11.858
39958W        W 8352  19.277  20.477  14.350
39959W        W 8353  19.300  37.027   3.853
39960W        W 8354   2.821  23.596  10.960
39961W        W 8355  27.931   8.656  11.142
39962W        W 8356  42.724  29.151   2.122
39963W        W 8357  26.746  39.939  14.986
39964W        W 8358  14.607  26.735  11.065
39965W        W 8359  24.520  22.103  11.868
39966W        W 8360  25.952  25.866  13.533
39967W        W 8361  34.697  29.009   1.945
39968W        W 8362   6.150   8.979   5.185
39969W        W 8363  21.982   8.710   0.799
39970W        W 8364  33.284  24.051  14.885
39971W        W 8365   0.008   1.228   1.564
39972W        W 8366  35.557   7.668   2.808
39973W        W 8367  12.908  14.406   1.341
39974W        W 8368  32.620  41.952  14.294
39975W        W 8369  17.186   1.863   3.666
39976W        W 8370  24.102  43.839   3.085
39977W        W 8371   0.294  36.306   0.299
39978W        W 8372  15.352  20.443   1.513
39979W        W 8373  25.788   4.509   0.764
39980W        W 8374  21.440  23.722  10.943
39981W        W 8375  17.378   8.180   0.937
39982W        W 8376  22.106  40.313  14.860
39983W        W 8377  28.132   1.294  10.838
39984W        W 8378  41.999  28.216   0.438
39985W        W 8379  15.717   7.301   4.085
39986W        W 8380  31.438  35.416   1.699
39987W        W 8381  10.640   1.190   2.697
39988W        W 8382  38.846  38.475  11.458
39989W        W 8383  10.933  11.265   0.973
39990W        W 8384  40.921  24.531   1.500
39991W        W 8385  40.845  20.242  13.503
39992W        W 8386  37.012  38.395   0.468
39993W        W 8387  31.369   5.151  12.917
39994W        W 8388  39.879  39.901   0.866
39995W        W 8389  12.893   1.092   0.768
39996W        W 8390  38.370  34.302   3.717
39997W        W 8391  29.424  33.974   2.950
39998W        W 8392  44.517  33.961   5.087
39999W        W 8393  13.096  14.227   0.888
40000W        W 8394  43.789  40.852  10.495
40001W        W 8395   3.030  15.019  12.558
40002W        W 8396  23.659   8.166   1.755
40003W        W 8397  28.102  42.849   2.429
40004W        W 8398  15.508  11.920  11.199
40005W        W 8399  26.437   3.807  14.542
40006W        W 8400  11.796  34.653  14.752
40007W        W 8401   4.123  27.386   3.737
40008W        W 8402  39.052  19.159   1.291
40009W        W 8403  23.328  23.310  13.873
40010W        W 8404  29.362  41.592   4.119
40011W        W 8405  40.269  15.718  13.475
40012W        W 8406  29.199   6.717  11.981
40013W        W 8407   8.771  13.897  10.663
40014W        W 8408  42.836  19.078   3.992
40015W        W 8409  19.746  15.361   2.842
40016W        W 8410  31.448  29.426  11.113
40017W        W 8411  23.280  29.999  14.050
40018W        W 8412  13.364  17.569  12.073
40019W        W 8413  28.110   4.819  10.265
40020W        W 8414  33.473   8.785   4.750
40021W        W 8415  31.900  37.462   5.193
40022W        W 8416  17.897  40.772  13.081
40023W        W 8417  10.286  17.944   2.793
40024W        W 8418  13.635  33.019  14.434
40025W        W 8419  20.362   5.606   4.004
40026W        W 8420  20.111   0.828  12.123
40027W        W 8421  27.001   2.994   2.358
40028W        W 8422  39.891  18.715  12.396
40029W        W 8423  13.773  39.359   0.970
40030W        W 8424  14.639  24.997  12.400
40031W        W 8425  34.613   6.269   0.582
40032W        W 8426  29.959  10.280   0.265
40033W        W 8427  40.804  38.051  11.195
40034W        W 8428  12.240  22.143   3.338
40035W        W 8429   2.086  41.242   2.803
40036W        W 8430  28.239  31.481  12.530
40037W        W 8431   7.462  43.944  11.505
40038W        W 8432   4.842   1.272   0.072
40039W        W 8433  21.790  41.074   2.963
40040W        W 8434  36.424  16.508  13.632
40041W        W 8435  15.521  23.535  10.788
40042W        W 8436  43.255  23.544   4.160
40043W        W 8437   8.305   5.302  12.497
40044W        W 8438   9.865  19.608   4.018
40045W        W 8439  28.802  11.064   3.702
40046W        W 8440  15.055   9.134  14.272
40047W        W 8441  30.193   5.149   0.928
40048W        W 8442  38.934  14.736  11.395
40049W        W 8443  24.019  38.327  14.018
40050W        W 8444  43.031   8.474  12.054
40051W        W 8445   5.857  14.817  13.578
40052W        W 8446  31.914  11.656  13.315
40053W        W 8447   6.565   7.166  12.596
40054W        W 8448  29.951  32.612   1.528
40055W        W 8449  32.053  20.139  14.928
40056W        W 8450  42.559  42.746  12.427
40057W        W 8451  11.401  42.878  10.403
40058W        W 8452  10.894  44.777   3.080
40059W        W 8453  18.538   7.214  13.831
40060W        W 8454  23.084  42.956   3.226
40061W        W 8455  28.922  16.069  11.215
40062W        W 8456  11.722  27.448  11.582
40063W        W 8457  33.207  43.882  11.632
40064W        W 8458  43.323  16.756   4.644
40065W        W 8459  39.538  34.415   1.706
40066W        W 8460  27.069  31.487  13.848
40067W        W 8461  16.069  24.119  12.184
40068W        W 8462  34.482   2.370  13.764
40069W        W 8463   4.727  28.030  13.868
40070W        W 8464  16.807  29.258  14.689
40071W        W 8465  22.568  16.072  10.361
40072W        W 8466  12.588  10.653  14.547
40073W        W 8467   2.505  44.534   1.972
40074W        W 8468  40.980   7.240   4.123
40075W        W 8469  38.265  22.559  14.001
40076W        W 8470  39.472  22.961  13.146
40077W        W 8471   2.249  28.439   3.684
40078W        W 8472   3.519  37.377  12.394
40079W        W 8473   2.860  43.900  13.308
40080W        W 8474  42.583  17.122  14.902
40081W        W 8475  25.010  11.640  13.584
40082W        W 8476  12.114  33.790  11.452
40083W        W 8477   5.396  27.585   1.515
40084W        W 8478  42.501  13.622   4.124
40085W        W 8479  28.660  37.856   0.493
40086W        W 8480  33.086  16.547   2.180
40087W        W 8481  23.202  22.564   2.581
40088W        W 8482  40.376  33.176   3.888
40089W        W 8483  35.563  31.412  12.551
40090W        W 8484  23.337  27.730  10.749
40091W        W 8485  12.871  27.571   1.845
40092W        W 8486  44.923  44.366  10.608
40093W        W 8487   9.674  34.077   4.126
40094W        W 8488  13.310   0.272  14.726
40095W        W 8489  11.596  41.386  13.495
40096W        W 8490  24.810  33.361   4.638
40097W        W 8491  36.116  25.713  13.504
40098W        W 8492  26.675   9.740   4.343
40099W        W 8493  18.046  43.284   2.762
40100W        W 8494  29.840  28.447   3.619
40101W        W 8495   2.142  17.745  11.069
40102W        W 8496  25.252  37.204   2.189
40103W        W 8497  18.669  32.052   2.903
40104W        W 8498  26.679  33.127   3.292
40105W        W 8499  16.088  32.581   4.595
40106W        W 8500  14.206  35.113  14.961
40107W        W 8501  30.906   3.485  14.398
40108W        W 8502  15.301  28.318   0.290
40109W        W 8503   3.898  35.340  12.521
40110W        W 8504  43.866   3.110   4.961
40111W        W 8505  40.817   4.372  13.193
40112W        W 8506  10.525  18.721   0.443
40113W        W 8507  39.922  32.015   0.204
40114W        W 8508  25.066   2.358  12.114
40115W        W 8509  17.350   8.887  14.258
40116W        W 8510   4.822  36.492   2.920
40117W        W 8511  21.403   8.237   1.225
40118W        W 8512   6.018  20.228  12.822
40119W        W 8513  18.556  36.553  11.003
40120W        W 8514  10.793  16.243  13.419
40121W        W 8515  38.246  32.160  13.283
40122W        W 8516  36.804  27.023  13.734
40123W        W 8517   7.683  15.661  13.556
40124W        W 8518   5.251  29.545   4.056
40125W        W 8519  15.726   7.676   5.327
40126W        W 8520  30.560   1.257   0.861
40127W        W 8521   7.043  30.220   2.684
40128W        W 8522   9.415  39.712  10.390
40129W        W 8523  43.586   1.489   1.914
40130W        W 8524   2.190  32.058   3.062
40131W        W 8525  24.107  20.812   1.306
40132W        W 8526  11.358   8.209   0.896
40133W        W 8527  20.522   1.507   3.201
40134W        W 8528  28.489  18.249  12.245
40135W        W 8529  44.076  37.477   3.619
40136W        W 8530  35.931   5.349  11.679
40137W        W 8531  43.282  32.670   0.673
40138W        W 8532   0.068  16.139  10.732
40139W        W 8533  30.222   0.395   2.241
40140W        W 8534  39.885  11.857  12.933
40141W        W 8535   8.935  12.391   1.027
40142W        W 8536  43.975  40.388  11.322
40143W        W 8537  39.962   0.162  14.459
40144W        W 8538   3.178  26.491  13.519
40145W        W 8539  31.655  31.436  11.938
40146W        W 8540   5.596  41.934  12.547
40147W        W 8541  40.268   9.055  14.879
40148W        W 8542  22.527   2.880   3.789
40149W        W 8543  30.502  23.105   1.631
40150W        W 8544  13.604  10.398  13.581
40151W        W 8545  31.910   2.950   4.610
40152W        W 8546   7.686  32.540   3.901
40153W        W 8547  12.773   8.161  12.823
40154W        W 8548  15.055  34.812   2.372
40155W        W 8549  33.199  31.519   3.763
40156W        W 8550  18.672  40.082  11.046
40157W        W 8551  31.532  39.228   0.355
40158W        W 8552   9.833   4.028   0.727
40159W        W 8553  21.574  41.958   3.959
40160W        W 8554  18.018  43.385  12.772
40161W        W 8555  10.350  27.446   1.214
40162W        W 8556  26.535  29.433  14.380
40163W        W 8557  41.048  23.204  14.513
40164W        W 8558  36.872  40.597   1.356
40165W        W 8559   9.877  37.400  13.545
40166W        W 8560  17.632  15.067  12.976
40167W        W 8561   7.635   4.180   2.356
40168W        W 8562  29.262  25.790  13.853
40169W        W 8563   6.287  29.078  11.903
40170W        W 8564  18.971  22.162   3.259
40171W        W 8565  37.365  16.833   0.060
40172W        W 8566   6.677  19.456  13.003
40173W        W 8567   4.580  22.073   3.443
40174W        W 8568  13.659  26.021  14.536
40175W        W 8569  20.796  42.963  13.472
40176W        W 8570  38.504  34.447   1.802
40177W        W 8571  23.878  25.005  12.993
40178W        W 8572   9.572   2.990  11.385
40179W        W 8573   4.921  39.387  11.810
40180W        W 8574  30.883  24.674   4.235
40181W        W 8575   5.686  10.214   0.302
40182W        W 8576   9.404  18.737   1.229
40183W        W 8577  36.298  12.963  13.595
40184W        W 8578  11.605  37.988  10.610
40185W        W 8579  24.190  32.127   3.545
40186W        W 8580  32.894   3.835   3.593
40187W        W 8581  20.040  30.971   4.178
40188W        W 8582  18.747  42.678  10.980
40189W        W 8583  34.561  38.791   4.849
40190W        W 8584  22.316   9.349  11.449
40191W        W 8585  17.037  40.947  13.362
40192W        W 8586   8.364  23.756  12.939
40193W        W 8587  35.486   1.610   2.482
40194W        W 8588  32.215  44.385   4.026
40195W        W 8589  27.436  40.436  11.174
40196W        W 8590  27.096  29.674  13.362
40197W        W 8591  30.577   4.340   3.215
40198W        W 8592  34.303  15.709   9.969
40199W        W 8593   8.787  10.412   1.295
40200W        W 8594  10.331   1.719  13.129
40201W        W 8595  22.692   4.350  10.925
40202W        W 8596  12.279  39.093   2.249
40203W        W 8597  41.410  43.397  12.642
40204W        W 8598  18.576  25.637   0.314
40205W        W 8599  33.591   6.047  11.150
40206W        W 8600   8.984  33.584   0.682
40207W        W 8601   8.112  35.497  12.887
40208W        W 8602   0.546   6.839  14.965
40209W        W 8603  30.640  13.700   2.700
40210W        W 8604  40.216  39.718  11.000
40211W        W 8605   4.372  21.214   2.572
40212W        W 8606  33.050  10.782   3.754
40213W        W 8607  30.791  31.456  11.635
40214W        W 8608  38.411   9.188  10.831
40215W        W 8609  16.654  20.057   2.775
40216W        W 8610   5.227  10.376   0.501
40217W        W 8611  43.834  15.541   4.972
40218W        W 8612  23.657  39.156  11.945
40219W        W 8613  37.829   1.697  12.002
40220W        W 8614  22.993  44.180   0.435
40221W        W 8615  22.101  44.978   2.721
40222W        W 8616  20.034   2.501   0.666
40223W        W 8617   3.840   4.167   1.268
40224W        W 8618  37.962  44.839  12.862
40225W        W 8619  33.685  36.480  14.118
40226W        W 8620  32.292  15.567  12.211
40227W        W 8621  14.587  36.914  10.773
40228W        W 8622  14.611  26.274   0.954
40229W        W 8623  27.782  30.029   0.887
40230W        W 8624  42.091  23.251  13.545
40231W        W 8625   4.673  37.995   4.077
40232W        W 8626  13.337  36.608   1.805
40233W        W 8627  16.054  20.079  11.261
40234W        W 8628  11.226  32.874  12.895
40235W        W 8629  24.711  26.536  14.037
40236W        W 8630  42.955   4.253   2.354
40237W        W 8631  43.422  34.675   1.872
40238W        W 8632  20.732  41.708  14.642
40239W        W 8633   5.208  11.858  12.934
40240W        W 8634  19.309  37.012  14.007
40241W        W 8635  43.859  37.808  14.067
40242W        W 8636   8.073  43.434   3.307
40243W        W 8637  30.558  29.584   3.426
40244W        W 8638   8.298  42.689   1.217
40245W        W 8639  10.168  35.651  12.104
40246W        W 8640  29.948  13.732  10.763
40247W        W 8641  17.058  10.118  11.498
40248W        W 8642  32.659   3.502   0.823
40249W        W 8643  26.478  21.597  13.794
40250W        W 8644  14.675  33.069   2.890
40251W        W 8645   3.787  25.012   0.235
40252W        W 8646  30.721   4.900   2.196
40253W        W 8647  39.008   3.359   1.860
40254W        W 8648   4.243  15.266  13.762
40255W        W 8649  18.907  37.569  10.308
40256W        W 8650  21.278  15.279   0.395
40257W        W 8651  15.672  11.309  14.829
40258W        W 8652  22.261   2.530   2.461
40259W        W 8653  16.978  13.724   1.387
40260W        W 8654  12.042  29.369   3.201
40261W        W 8655  18.685  16.129  13.041
40262W        W 8656  31.590   4.556  10.130
40263W        W 8657   4.899  22.587   0.420
40264W        W 8658  36.906  29.661   3.078
40265W        W 8659  11.219  36.130  12.105
40266W        W 8660   3.462  42.314   2.608
40267W        W 8661  40.026  24.061   0.774
40268W        W 8662   0.887  15.792   1.169
40269W        W 8663  26.445  24.754  12.741
40270W        W 8664  21.469  14.279   2.340
40271W        W 8665   3.783  17.081   4.951
40272W        W 8666  29.186  10.770  12.528
40273W        W 8667  37.943   6.797   1.532
40274W        W 8668  12.076  22.585  10.936
40275W        W 8669  31.772  22.969  11.739
40276W        W 8670  24.983  23.140   1.270
40277W        W 8671  42.744  20.469  14.298
40278W        W 8672   1.893  33.259  13.623
40279W        W 8673   1.548  16.202  14.515
40280W        W 8674  34.023  10.564   2.510
40281W        W 8675  28.241  16.719  13.993
40282W        W 8676  22.775  19.253   1.309
40283W        W 8677  19.042  22.164  14.115
40284W        W 8678  37.651  19.166  12.842
40285W        W 8679  23.644  27.268   2.277
40286W        W 8680  13.709  34.679  10.983
40287W        W 8681   7.819   5.478  13.284
40288W        W 8682  25.060  19.311   4.410
40289W        W 8683  22.291  10.833  12.522
40290W        W 8684  10.466  39.409  12.035
40291W        W 8685   2.845   2.243  14.528
40292W        W 8686  19.688  42.398   4.264
40293W        W 8687   0.481  12.642  11.816
40294W        W 8688  17.926  35.877   1.743
40295W        W 8689  42.579   0.746   2.379
40296W        W 8690  43.422   4.749  13.136
40297W        W 8691  37.413  23.737   0.666
40298W        W 8692  16.183  18.937  13.778
40299W        W 8693  36.854  44.860  12.184
40300W        W 8694  26.902   1.415  11.073
40301W        W 8695  28.952  21.197   2.637
40302W        W 8696   6.834   6.841   4.468
40303W        W 8697  35.047  15.379   1.238
40304W        W 8698  16.492  26.468  13.007
40305W        W 8699  15.363   0.451  12.228
40306W        W 8700  16.769  22.646  14.069
40307W        W 8701  26.671  10.841   1.460
40308W        W 8702  12.180  22.185  11.973
40309W        W 8703  38.085   1.626  10.699
40310W        W 8704  15.023  23.404   0.977
40311W        W 8705   9.954  29.463  14.502
40312W        W 8706   8.707  41.948  10.944
40313W        W 8707  13.632  17.816  13.490
40314W        W 8708  22.038  35.055   1.437
40315W        W 8709  39.485  34.106  14.899
40316W        W 8710  18.130  14.793  10.838
40317W        W 8711   3.210  13.081  11.547
40318W        W 8712  38.538  15.242  13.481
40319W        W 8713  21.585  29.870   5.073
40320W        W 8714  15.069  15.260   4.957
40321W        W 8715  25.989  28.859   1.168
40322W        W 8716  24.241   4.931  12.960
40323W        W 8717   1.038  22.691   2.955
40324W        W 8718   8.538  44.375  13.100
40325W        W 8719  19.479   7.808   5.056
40326W        W 8720  35.374   4.765   0.742
40327W        W 8721  43.758   6.412   3.557
40328W        W 8722  23.628  19.553  13.352
40329W        W 8723  24.530   1.036  13.143
40330W        W 8724  26.920  22.464  14.444
40331W        W 8725  25.560   5.293   4.699
40332W        W 8726   1.944   0.202  12.948
40333W        W 8727  28.952  10.306  12.463
40334W        W 8728   1.570  13.734  10.688
40335W        W 8729  42.832  28.479  11.526
40336W        W 8730  25.281  37.906   2.871
40337W        W 8731  10.368   1.405  11.463
40338W        W 8732  34.453  18.958   4.129
40339W        W 8733  15.617  16.149  14.467
40340W        W 8734   0.624  23.068   1.733
40341W        W 8735   0.831  43.551  13.600
40342W        W 8736  12.848  19.240   3.466
40343W        W 8737  12.091  12.835  11.173
40344W        W 8738  32.362  34.583   4.113
40345W        W 8739   8.290  44.917  12.156
40346W        W 8740  34.035  10.898   4.661
40347W        W 8741  34.855  13.105  11.113
40348W        W 8742  11.255  41.301   3.659
40349W        W 8743  29.409   5.663   2.889
40350W        W 8744   7.264  16.553  12.087
40351W        W 8745  40.678   4.975   3.667
40352W        W 8746  26.608  24.264   3.576
40353W        W 8747  15.252  15.218   1.932
40354W        W 8748  27.419  32.511   3.663
40355W        W 8749  19.963  25.105   1.856
40356W        W 8750  26.927   0.159  11.617
40357W        W 8751  13.631  35.497  12.102
40358W        W 8752  43.861  40.035   2.441
40359W        W 8753  21.681   1.363   0.510
40360W        W 8754  40.589  22.965  14.304
40361W        W 8755  22.058  36.012   3.137
40362W        W 8756   5.725  38.974   3.549
40363W        W 8757  36.560  15.914  10.927
40364W        W 8758  27.251  23.003   2.408
40365W        W 8759  34.926  19.249   3.311
40366W        W 8760  31.725  21.340  11.020
40367W        W 8761  17.544  33.355  14.005
40368W        W 8762   7.011  28.062  11.372
40369W        W 8763   1.042  31.321  14.903
40370W        W 8764  16.857  10.460   4.058
40371W        W 8765  15.070  11.356  14.910
40372W        W 8766  19.458   2.153  11.662
40373W        W 8767  33.614  18.840   0.307
40374W        W 8768  24.309  21.281  12.421
40375W        W 8769  44.814  17.859   1.720
40376W        W 8770  40.598  32.539   2.670
40377W        W 8771   3.375  24.722   4.942
40378W        W 8772  35.415  36.932   4.132
40379W        W 8773   6.534  30.386  11.184
40380W        W 8774   5.404  12.236  12.569
40381W        W 8775   9.371  44.306   2.413
40382W        W 8776  39.084  22.747   2.515
40383W        W 8777  31.053  37.493   2.180
40384W        W 8778  42.258  21.878   4.111
40385W        W 8779  20.949  41.063  12.029
40386W        W 8780  32.388   8.449   0.714
40387W        W 8781   0.176  35.898  10.760
40388W        W 8782   5.353  33.595   1.801
40389W        W 8783  31.457  42.995   4.983
40390W        W 8784  39.933   5.993   0.665
40391W        W 8785  44.944   4.111   3.263
40392W        W 8786  36.454  36.126   1.510
40393W        W 8787  32.024   4.078   1.627
40394W        W 8788  12.867  17.937   3.617
40395W        W 8789  42.871  29.938  14.074
40396W        W 8790  33.151  38.583   3.252
40397W        W 8791  12.770  27.797   2.828
40398W        W 8792  18.233  40.373   4.957
40399W        W 8793   5.661  12.756   1.916
40400W        W 8794  11.284  19.038  14.992
40401W        W 8795  19.322   1.541   0.874
40402W        W 8796  29.878  18.667  13.994
40403W        W 8797  31.111  34.954   1.334
40404W        W 8798  40.962  21.625   1.476
40405W        W 8799  37.080  42.305  12.143
40406W        W 8800   7.673  29.018  11.182
40407W        W 8801  24.739  19.283   4.996
40408W        W 8802  15.239   2.009  10.643
40409W        W 8803  22.736  34.421  14.283
40410W        W 8804  42.052   3.882   4.649
40411W        W 8805   9.515  41.631  14.325
40412W        W 8806  43.065  38.881   4.045
40413W        W 8807   3.728  19.138  13.651
40414W        W 8808  26.655  35.426   1.098
40415W        W 8809   8.146  15.722   4.157
40416W        W 8810  18.277  35.587   2.850
40417W        W 8811   3.193  23.942   1.177
40418W        W 8812  39.010  34.008   4.059
40419W        W 8813  33.421  37.748   1.632
40420W        W 8814  25.988  25.660   0.262
40421W        W 8815  34.181  39.468   1.879
40422W        W 8816  30.011  13.334   2.670
40423W        W 8817  31.952  15.080   2.378
40424W        W 8818  18.298  41.071   1.002
40425W        W 8819  25.506   6.222   3.227
40426W        W 8820  27.923  11.789  11.951
40427W        W 8821  42.035  11.407   1.888
40428W        W 8822   7.164  13.980  13.462
40429W        W 8823  27.124  19.155  11.544
40430W        W 8824  38.145   9.781   3.869
40431W        W 8825  27.076  20.045  12.142
40432W        W 8826   3.175   4.325   2.644
40433W        W 8827  39.419  26.595  13.623
40434W        W 8828   9.806  33.429  13.488
40435W        W 8829  37.702   2.384  14.171
40436W        W 8830  10.822  41.099   1.843
40437W        W 8831  13.587  21.408   3.864
40438W        W 8832   3.249   8.370   3.667
40439W        W 8833  15.836  28.638   2.760
40440W        W 8834  37.956  39.509  11.593
40441W        W 8835  44.488   4.474   1.346
40442W        W 8836  35.896  10.290  14.467
40443W        W 8837  12.265  22.796   1.001
40444W        W 8838  28.494  21.099   1.841
40445W        W 8839  17.679  27.749  14.351
40446W        W 8840  35.763  37.462  12.600
40447W        W 8841  26.968  36.592   0.706
40448W        W 8842  20.186   3.984  13.375
40449W        W 8843  32.575  32.374  12.053
40450W        W 8844  36.068  23.373  14.778
40451W        W 8845  26.442   2.449   4.017
40452W        W 8846  40.894  39.912  12.603
40453W        W 8847  39.576  43.949   2.699
40454W        W 8848   5.749  19.491  12.845
40455W        W 8849  11.717  22.353  14.886
40456W        W 8850   3.436   6.292   0.667
40457W        W 8851  33.775  23.335  14.557
40458W        W 8852  33.367  23.761   1.938
40459W        W 8853  11.446  18.694   2.281
40460W        W 8854  13.841  36.438   0.264
40461W        W 8855   3.921  18.379  10.664
40462W        W 8856  40.956  15.003   4.359
40463W        W 8857  37.456  20.643   3.090
40464W        W 8858  10.641  39.900  11.406
40465W        W 8859  11.775   1.890  11.172
40466W        W 8860  18.045   1.896  14.792
40467W        W 8861  16.644  21.591  14.100
40468W        W 8862  12.029  44.163   4.195
40469W        W 8863  29.723  17.293   3.147
40470W        W 8864   5.881  29.021   4.740
40471W        W 8865  13.105  21.502  11.595
40472W        W 8866  29.644  10.589  10.619
40473W        W 8867  40.827  39.451   1.813
40474W        W 8868   2.444  30.679   2.165
40475W        W 8869  22.288  34.121   3.188
40476W        W 8870  12.030  38.640   4.990
40477W        W 8871  40.011  42.369   4.315
40478W        W 8872   5.232  27.220  13.022
40479W        W 8873  16.590  14.846   3.937
40480W        W 8874  32.134   4.265   3.779
40481W        W 8875  39.223   6.735  11.925
40482W        W 8876  16.596  18.204   5.462
40483W        W 8877  23.578  14.061   0.271
40484W        W 8878  25.543   1.887   1.771
40485W        W 8879  41.155  19.006   4.772
40486W        W 8880  23.582   5.316   4.176
40487W        W 8881  27.271  38.854   4.441
40488W        W 8882  10.473  29.619  12.522
40489W        W 8883   0.505  22.515  12.472
40490W        W 8884  17.737  33.438  12.615
40491W        W 8885   1.404  40.368   2.297
40492W        W 8886  44.391  38.900  14.612
40493W        W 8887  21.876   2.833   2.264
40494W        W 8888  42.738   9.591  11.972
40495W        W 8889  43.321   7.986  13.773
40496W        W 8890  43.386  22.623   2.147
40497W        W 8891  21.035  17.656  14.735
40498W        W 8892  29.129  20.281  12.118
40499W        W 8893  38.090  40.013  11.563
40500W        W 8894  43.469  21.471   1.191
40501W        W 8895  12.257  19.988   3.742
40502W        W 8896   3.305  28.741  12.992
40503W        W 8897  27.073   9.929   5.386
40504W        W 8898  30.591  20.261   4.649
40505W        W 8899  15.883  10.351   4.112
40506W        W 8900  24.529  28.637  13.421
40507W        W 8901   6.374  25.880  11.233
40508W        W 8902   1.407   6.189  11.359
40509W        W 8903  26.120  17.125   2.402
40510W        W 8904  33.523  28.547  13.168
40511W        W 8905   0.870  13.395  10.636
40512W        W 8906  28.471  24.161   1.651
40513W        W 8907  36.749  10.628  12.059
40514W        W 8908  27.242   2.589   3.498
40515W        W 8909  17.920  29.306   1.235
40516W        W 8910  16.508   0.823   3.692
40517W        W 8911  15.728  10.698  10.552
40518W        W 8912  35.133   7.803   0.889
40519W        W 8913  13.739   9.138  14.578
40520W        W 8914  40.414  17.162  10.706
40521W        W 8915   1.896  21.478  11.308
40522W        W 8916   3.281  35.509   0.807
40523W        W 8917  24.745  24.772  12.015
40524W        W 8918   3.283  20.563   0.409
40525W        W 8919  12.150  21.671   3.567
40526W        W 8920   7.747  40.542   3.694
40527W        W 8921  32.617  29.386   2.418
40528W        W 8922  35.363   8.902   1.288
40529W        W 8923  37.507  35.632   4.286
40530W        W 8924  24.566   3.304   3.213
40531W        W 8925   2.399  15.306  13.371
40532W        W 8926  41.873  24.874   2.440
40533W        W 8927  15.393  31.513   2.162
40534W        W 8928  42.266  35.262   3.764
40535W        W 8929   7.055  11.473  12.416
40536W        W 8930  17.295  11.922   3.673
40537W        W 8931  23.703  37.359  10.565
40538W        W 8932  33.086  43.444   2.251
40539W        W 8933  21.500  18.030  11.895
40540W        W 8934   6.423   6.321  12.349
40541W        W 8935   4.549  20.683   4.157
40542W        W 8936  40.281   4.863  11.582
40543W        W 8937  41.297   5.873   1.665
40544W        W 8938  21.925  42.830  11.381
40545W        W 8939   5.205   8.134   2.835
40546W        W 8940  28.184  37.041   9.968
40547W        W 8941   3.236  27.153   0.849
40548W        W 8942  11.619  10.867   1.488
40549W        W 8943  35.099  13.312  10.697
40550W        W 8944  36.779   8.178  12.066
40551W        W 8945  30.022  38.104   4.438
40552W        W 8946   4.326  43.795   2.799
40553W        W 8947  44.411  34.039  14.457
40554W        W 8948  35.183  22.214  12.735
40555W        W 8949   1.986  26.462  13.924
40556W        W 8950   9.843   5.239   4.979
40557W        W 8951  33.039  25.038  13.300
40558W        W 8952   7.874  11.601   0.053
40559W        W 8953   5.409  20.991  12.453
40560W        W 8954  22.508   1.392  13.217
40561W        W 8955   4.267  27.201  11.349
40562W        W 8956  39.952  27.096   4.607
40563W        W 8957   5.228  31.150  14.791
40564W        W 8958  16.568  12.024   2.210
40565W        W 8959  44.422  36.146  14.555
40566W        W 8960  39.952  44.403  12.758
40567W        W 8961  21.307  43.505  10.681
40568W        W 8962  20.909  15.225  11.127
40569W        W 8963  20.062  35.008  11.929
40570W        W 8964  36.459  35.605  10.733
40571W        W 8965   4.615   4.102   3.156
40572W        W 8966   7.141   2.782  11.244
40573W        W 8967   3.545   6.488  13.516
40574W        W 8968  37.555  12.301   0.762
40575W        W 8969   0.970   7.109  12.609
40576W        W 8970  17.275  24.812  12.299
40577W        W 8971   3.890  42.496   2.364
40578W        W 8972  25.249  39.920  12.040
40579W        W 8973  29.498  35.584  14.102
40580W        W 8974  12.423  28.036   0.318
40581W        W 8975  15.136  10.924   1.246
40582W        W 8976  40.287   3.114  12.547
40583W        W 8977  29.453  13.851   4.238
40584W        W 8978   3.941  14.713   0.062
40585W        W 8979   6.559   1.003   9.955
40586W        W 8980  29.141  29.656   1.116
40587W        W 8981   4.147   8.013   4.244
40588W        W 8982  22.182  25.123  13.718
40589W        W 8983  16.834  14.684   4.353
40590W        W 8984   3.513  33.319  13.893
40591W        W 8985   2.564  30.145  11.391
40592W        W 8986  16.123  16.784   0.879
40593W        W 8987  34.693   6.720   1.569
40594W        W 8988  33.400  40.728   3.917
40595W        W 8989  18.350  40.968  12.978
40596W        W 8990  36.422  12.597  10.551
40597W        W 8991  29.666  27.164   4.089
40598W        W 8992  22.005   4.960  12.469
40599W        W 8993  15.200  26.166  14.888
40600W        W 8994  44.298  16.797   0.385
40601W        W 8995  35.689  23.059  14.992
40602W        W 8996   1.493  18.015  13.008
40603W        W 8997  27.962  33.573  13.880
40604W        W 8998  25.880  24.151  10.743
40605W        W 8999  38.827  23.246   9.996
40606W        W 9000  31.606   3.345   1.157
40607W        W 9001  17.044   1.814   0.565
40608W        W 9002  24.127   6.027   0.980
40609W        W 9003  14.754  13.375  13.874
40610W        W 9004  24.168  21.079  10.801
40611W        W 9005  21.432  33.616   0.369
40612W        W 9006  27.743  41.897  10.528
40613W        W 9007  28.867  25.620   4.084
40614W        W 9008  22.216  26.943  11.434
40615W        W 9009  40.120  22.077   0.900
40616W        W 9010  19.579  14.863  10.413
40617W        W 9011  34.305  44.289  11.646
40618W        W 9012  16.347   8.840  13.465
40619W        W 9013  35.007  10.280  12.156
40620W        W 9014   1.339   3.737   4.698
40621W        W 9015  39.320  22.594   1.175
40622W        W 9016  29.485  22.150  12.857
40623W        W 9017  23.701  38.989   0.783
40624W        W 9018  44.992  41.921   2.380
40625W        W 9019  33.380   9.298  11.018
40626W        W 9020   7.235  15.727   4.344
40627W        W 9021  27.715  33.693   4.645
40628W        W 9022  38.431  27.574  13.084
40629W        W 9023   4.281  15.253   1.969
40630W        W 9024  20.385  28.128  12.926
40631W        W 9025  37.555  32.991   3.694
40632W        W 9026  37.143   7.224  12.915
40633W        W 9027  26.759  37.559   1.423
40634W        W 9028  23.051  40.507  13.376
40635W        W 9029  11.884  20.801   2.833
40636W        W 9030   1.372  23.587  12.531
40637W        W 9031  31.051  35.957  12.459
40638W        W 9032  37.460   3.147   1.730
40639W        W 9033  10.314  44.381   9.795
40640W        W 9034  17.042   5.235   1.299
40641W        W 9035   5.173  40.499   4.873
40642W        W 9036  35.616  15.080  14.314
40643W        W 9037  40.296   5.135  12.403
40644W        W 9038  22.576  27.097   0.800
40645W        W 9039  17.331   1.491  14.267
40646W        W 9040  26.166  35.086   4.831
40647W        W 9041  39.803  37.560   3.265
40648W        W 9042  39.117  37.780   2.348
40649W        W 9043  39.801  17.311  12.087
40650W        W 9044  26.570  28.916  14.347
40651W        W 9045  19.641  44.889  10.799
40652W        W 9046  31.064  19.281  14.983
40653W        W 9047   2.382  19.072   1.217
40654W        W 9048   4.851  16.795   1.229
40655W        W 9049  34.141  29.529   1.185
40656W        W 9050  13.383  10.171  10.768
40657W        W 9051  22.269  38.998  14.459
40658W        W 9052  33.490   1.321  12.915
40659W        W 9053  24.859  39.674  13.738
40660W        W 9054  38.984  30.698   1.459
40661W        W 9055  28.749   7.708   0.878
40662W        W 9056  37.991  18.654  14.142
40663W        W 9057   9.943   2.569  13.430
40664W        W 9058  25.737   5.968   2.822
40665W        W 9059  20.729   8.372  13.304
40666W        W 9060  35.719   4.445  11.545
40667W        W 9061  35.143   4.352   4.841
40668W        W 9062  31.674   9.976   4.083
40669W        W 9063   1.419  21.218  12.980
40670W        W 9064  30.481   5.973  11.085
40671W        W 9065  12.905  19.143  14.304
40672W        W 9066   4.436   0.994   2.773
40673W        W 9067  19.720  44.204  12.975
40674W        W 9068  24.094   6.344  14.266
40675W        W 9069  28.262   8.414   3.203
40676W        W 9070   3.881  13.132   0.831
40677W        W 9071  29.749   0.245  12.531
40678W        W 9072  25.287  36.267  13.841
40679W        W 9073   7.778  41.410   0.520
40680W        W 9074  28.181  40.082  13.446
40681W        W 9075  32.398  20.917  14.720
40682W        W 9076  29.981   9.463  13.906
40683W        W 9077  44.167  44.359  10.114
40684W        W 9078  25.400   4.592   0.448
40685W        W 9079  36.118   2.782  10.621
40686W        W 9080  18.407   8.245   4.185
40687W        W 9081  19.832   7.771  12.412
40688W        W 9082   3.807   4.674  12.002
40689W        W 9083  30.361  26.183  14.956
40690W        W 9084  37.443  25.074  12.404
40691W        W 9085  43.810  41.605  13.491
40692W        W 9086  34.166  39.898   1.182
40693W        W 9087  24.633  19.448   1.682
40694W        W 9088  38.108  11.833   3.823
40695W        W 9089   6.022  28.113   0.961
40696W        W 9090  31.112  18.594   2.173
40697W        W 9091   7.451  38.370   0.305
40698W        W 9092  36.395  24.889   4.120
40699W        W 9093   9.754  44.753   2.179
40700W        W 9094  41.410   0.316  14.393
40701W        W 9095  36.587  31.108   1.883
40702W        W 9096  43.457  31.966   4.184
40703W        W 9097  22.556  36.231   0.243
40704W        W 9098  41.859  27.222  13.933
40705W        W 9099  35.330  36.280  14.612
40706W        W 9100  15.476  44.204  12.710
40707W        W 9101  43.497  31.711   2.859
40708W        W 9102  21.112  26.627  14.904
40709W        W 9103  10.941  44.504   0.900
40710W        W 9104  21.430   5.388   3.171
40711W        W 9105  37.401  34.553   5.003
40712W        W 9106   8.240  22.008   1.675
40713W        W 9107  35.608  42.190  12.410
40714W        W 9108  32.920  38.580   0.698
40715W        W 9109  12.153  40.364  13.297
40716W        W 9110   6.985   1.804   3.591
40717W        W 9111  40.424  25.103  12.462
40718W        W 9112  11.200  40.244  13.927
40719W        W 9113   2.278  26.750  12.586
40720W        W 9114  29.055   2.894   3.109
40721W        W 9115  16.660   7.188   4.132
40722W        W 9116  12.700  19.148   0.750
40723W        W 9117   8.424  23.611   3.605
40724W        W 9118   4.753  17.404  14.092
40725W        W 9119  14.816  21.502   2.171
40726W        W 9120  14.943  38.773   2.703
40727W        W 9121  34.854  10.500  12.610
40728W        W 9122  10.242  10.775  11.589
40729W        W 9123  23.769  19.104   2.681
40730W        W 9124  41.249   6.859  11.885
40731W        W 9125  20.666  13.420  14.250
40732W        W 9126  42.759  10.707  10.781
40733W        W 9127  39.459   8.803   4.562
40734W        W 9128  17.736  41.100  10.354
40735W        W 9129   0.315  35.017   0.201
40736W        W 9130   1.224  28.387  11.021
40737W        W 9131  42.879  26.019  12.917
40738W        W 9132   0.452  13.118  10.456
40739W        W 9133  38.969  34.172   3.076
40740W        W 9134   0.466   0.314   1.712
40741W        W 9135  38.491  44.734   1.397
40742W        W 9136  21.435  17.180   0.360
40743W        W 9137  20.856  41.167   0.901
40744W        W 9138  34.740  21.599   2.625
40745W        W 9139  44.878   7.213   4.617
40746W        W 9140  10.823  32.531  13.886
40747W        W 9141   0.830   0.801   4.351
40748W        W 9142  13.682  11.638  14.098
40749W        W 9143  35.448  28.524  10.568
40750W        W 9144  10.180  10.721   2.269
40751W        W 9145   2.278  29.464  13.457
40752W        W 9146  24.725  13.133  13.916
40753W        W 9147   7.981  22.583   0.831
40754W        W 9148  16.287  20.950  13.319
40755W        W 9149  42.750  16.646  10.665
40756W        W 9150  13.998  20.051   0.483
40757W        W 9151  40.613   8.210   0.481
40758W        W 9152  32.273  16.284  13.442
40759W        W 9153  30.861  14.348  12.526
40760W        W 9154  39.304   9.127   3.734
40761W        W 9155  38.947   5.810  13.091
40762W        W 9156  40.154  13.673   3.569
40763W        W 9157  43.359  36.402   4.006
40764W        W 9158   7.699   7.885   1.479
40765W        W 9159   9.465  23.259   2.780
40766W        W 9160  18.002   5.714  12.250
40767W        W 9161   5.734  15.544   0.898
40768W        W 9162  28.461  31.128  12.082
40769W        W 9163   6.366  27.912   4.478
40770W        W 9164   5.326   0.402   1.343
40771W        W 9165  26.742  28.825   1.796
40772W        W 9166   8.239  26.975  10.667
40773W        W 9167  34.559  18.079  12.670
40774W        W 9168  24.300  17.788   0.720
40775W        W 9169  33.397  40.428   2.642
40776W        W 9170   9.016  30.641  13.654
40777W        W 9171  30.463  44.099  14.503
40778W        W 9172  11.828   7.341   1.951
40779W        W 9173  42.318   9.899  13.781
40780W        W 9174  21.068  29.339   4.352
40781W        W 9175  41.863  36.912   0.977
40782W        W 9176  42.951  44.475  12.400
40783W        W 9177  19.958  34.025  11.989
40784W        W 9178  42.068  25.782   1.368
40785W        W 9179   4.819  30.578  13.032
40786W        W 9180  36.127  40.535   4.435
40787W        W 9181   3.386  13.409  14.833
40788W        W 9182  11.571  36.606   3.309
40789W        W 9183  25.122  40.438   4.711
40790W        W 9184  27.583  37.466   4.148
40791W        W 9185  37.574  15.361   4.554
40792W        W 9186  25.139  28.588  11.619
40793W        W 9187  12.061  22.182  13.298
40794W        W 9188  40.562  14.748  10.751
40795W        W 9189   6.992  30.317   3.182
40796W        W 9190   8.315  35.011  10.844
40797W        W 9191  35.379  16.243   1.901
40798W        W 9192   0.554  28.110   2.690
40799W        W 9193  15.754  30.062  13.335
40800W        W 9194  30.602  37.101  10.856
40801W        W 9195   6.812  15.856   4.070
40802W        W 9196  32.214  20.717   3.770
40803W        W 9197  19.688  37.792  12.480
40804W        W 9198  19.479  34.039   3.538
40805W        W 9199  19.621  37.840   3.130
40806W        W 9200  35.478  20.825  14.852
40807W        W 9201  19.589   5.686  12.260
40808W        W 9202  29.955  28.452   1.331
40809W        W 9203   2.373   8.139  13.478
40810W        W 9204  26.552  13.513  10.781
40811W        W 9205   5.003  16.992   1.913
40812W        W 9206  16.514  19.221  11.654
40813W        W 9207   5.669  36.857   3.049
40814W        W 9208  34.820  12.022  13.505
40815W        W 9209  42.845   8.974  10.062
40816W        W 9210  33.396   8.328   0.861
40817W        W 9211  10.110  35.897  12.607
40818W        W 9212  43.507  42.261  13.122
40819W        W 9213   0.445  41.886  11.582
40820W        W 9214  12.936  37.988   1.015
40821W        W 9215   9.098  16.268  11.809
40822W        W 9216  28.990  27.027  12.477
40823W        W 9217  30.710  34.066  11.622
40824W        W 9218  18.143  10.695   2.415
40825W        W 9219  32.896  44.261   0.798
40826W        W 9220   7.220  34.441   1.784
40827W        W 9221  31.529  36.377  13.105
40828W        W 9222  30.990   6.046   4.562
40829W        W 9223  28.532  16.576   3.496
40830W        W 9224  20.032  35.621  14.526
40831W        W 9225   3.416  23.609   3.139
40832W        W 9226  17.049  14.514   3.856
40833W        W 9227  44.228  26.043  10.559
40834W        W 9228  24.398  30.228   0.545
40835W        W 9229  25.415  28.955   1.815
40836W        W 9230  22.100  10.345  12.461
40837W        W 9231  24.671  29.553   2.203
40838W        W 9232   7.514  15.179  13.507
40839W        W 9233  10.548  20.173   1.914
40840W        W 9234  19.630  42.352   2.308
40841W        W 9235  28.496   6.475   3.530
40842W        W 9236  43.807  32.605   0.798
40843W        W 9237  12.788  19.997  11.110
40844W        W 9238   8.066  35.955  13.972
40845W        W 9239  28.946  28.110   1.687
40846W        W 9240  32.990  32.306   1.933
40847W        W 9241  26.584  40.883  14.574
40848W        W 9242  36.361  37.574  10.791
40849W        W 9243  38.313   0.340  12.469
40850W        W 9244  44.357  16.689  14.886
40851W        W 9245   0.845   2.234   0.476
40852W        W 9246  33.525  25.233   2.247
40853W        W 9247  14.776  33.700   4.666
40854W        W 9248  44.501  10.292   3.293
40855W        W 9249  36.567  24.556   3.414
40856W        W 9250  44.439  11.616  12.089
40857W        W 9251  33.708  12.732  11.947
40858W        W 9252  44.577  11.226   1.704
40859W        W 9253   7.180  32.343   1.927
40860W        W 9254  18.292  16.553  10.747
40861W        W 9255  36.445   5.301   4.619
40862W        W 9256  18.678  25.754  13.418
40863W        W 9257  33.810   8.621  13.562
40864W        W 9258  30.582   9.318  14.633
40865W        W 9259  11.374  39.352  10.469
40866W        W 9260  27.539  43.288  13.858
40867W        W 9261   2.395  19.329   4.665
40868W        W 9262   0.405  15.073  13.817
40869W        W 9263  27.634  39.594   0.175
40870W        W 9264  12.403   0.520   4.108
40871W        W 9265  26.155  40.956  10.920
40872W        W 9266  25.192   9.718   3.632
40873W        W 9267  29.961  39.066   0.288
40874W        W 9268   5.835   6.943   4.545
40875W        W 9269  43.003  21.299   1.391
40876W        W 9270  14.749  43.364   0.467
40877W        W 9271  37.487  23.171   2.941
40878W        W 9272  34.898   6.798   0.088
40879W        W 9273  10.448  39.306   3.192
40880W        W 9274  12.122  24.715   1.401
40881W        W 9275  34.071  14.741   1.636
40882W        W 9276  30.657  40.519   4.184
40883W        W 9277  36.399   2.296   3.193
40884W        W 9278  43.906  42.514   1.394
40885W        W 9279  16.074  39.499   0.662
40886W        W 9280  23.351  25.571  14.905
40887W        W 9281  22.051   3.173   0.266
40888W        W 9282  15.174  40.562  11.144
40889W        W 9283  15.302  18.090   0.742
40890W        W 9284  20.747  22.701  10.943
40891W        W 9285  10.115  30.505  12.622
40892W        W 9286  14.319  30.588   0.503
40893W        W 9287   0.028  22.936   0.812
40894W        W 9288  22.956  29.422  11.196
40895W        W 9289  18.163  32.173  12.091
40896W        W 9290  21.672  44.434  10.583
40897W        W 9291  14.560  40.013   1.325
40898W        W 9292  43.491  23.695  11.028
40899W        W 9293   0.927  17.251  12.149
40900W        W 9294   6.767  21.648  12.619
40901W        W 9295  27.276  18.249  14.335
40902W        W 9296  28.919   3.215   1.015
40903W        W 9297  24.095  24.958  11.001
40904W        W 9298  10.194  21.303  12.539
40905W        W 9299  33.185  31.567  13.451
40906W        W 9300  30.133  12.887   3.816
40907W        W 9301   1.818  16.741   0.215
40908W        W 9302   0.318  33.106  12.442
40909W        W 9303  10.902  19.114   0.895
40910W        W 9304  14.234  25.467  13.907
40911W        W 9305  35.140  20.435  14.778
40912W        W 9306  25.508  21.703  13.468
40913W        W 9307  35.474  29.591  10.805
40914W        W 9308  41.389  44.507   2.833
40915W        W 9309   1.244  18.715  12.135
40916W        W 9310   2.482   0.908   2.697
40917W        W 9311   6.706  40.273  13.326
40918W        W 9312   5.347  38.155   0.305
40919W        W 9313  44.678  11.095  10.630
40920W        W 9314  37.705  22.928   3.324
40921W        W 9315  30.029  12.341  10.696
40922W        W 9316   2.472  16.775   4.505
40923W        W 9317  25.853  13.144  12.517
40924W        W 9318  17.151   4.203  13.971
40925W        W 9319   7.234  34.033   4.391
40926W        W 9320   5.683  18.619   0.976
40927W        W 9321  13.815   5.270   1.668
40928W        W 9322  35.619  12.143  11.057
40929W        W 9323  40.558  26.662   2.536
40930W        W 9324  42.442  17.795  10.402
40931W        W 9325  27.307  16.764   1.345
40932W        W 9326  31.449  32.484  12.951
40933W        W 9327   4.516  27.070   1.479
40934W        W 9328  39.027  13.864  13.863
40935W        W 9329  11.872   4.302  14.392
40936W        W 9330  23.539  38.403   4.786
40937W        W 9331  11.875   8.399  13.367
40938W        W 9332  44.225  36.956  11.907
40939W        W 9333   0.239  13.829   0.823
40940W        W 9334  43.624  19.563   0.883
40941W        W 9335   2.359  27.149  13.517
40942W        W 9336  32.041   5.611  11.550
40943W        W 9337  31.015  34.383  12.068
40944W        W 9338  34.208  28.202   4.689
40945W        W 9339   0.831  13.447  12.527
40946W        W 9340  23.427   7.596  13.419
40947W        W 9341   2.215  36.033  12.070
40948W        W 9342  20.731  28.723   1.584
40949W        W 9343   1.089   8.893  10.686
40950W        W 9344  31.978   6.433  13.602
40951W        W 9345  10.569  31.696   4.174
40952W        W 9346  23.616  14.175   0.796
40953W        W 9347  39.803  31.509   5.033
40954W        W 9348  18.219  20.030   4.184
40955W        W 9349  22.221   6.668   2.852
40956W        W 9350  43.568  43.837  12.011
40957W        W 9351  40.079  17.234  14.002
40958W        W 9352  34.386  16.611   4.599
40959W        W 9353  30.636  20.220   1.962
40960W        W 9354  44.346  14.530  13.391
40961W        W 9355  44.640  14.309  12.180
40962W        W 9356   1.099  27.919  11.167
40963W        W 9357  22.520  12.852   2.204
40964W        W 9358  33.148  30.672   3.931
40965W        W 9359   3.931  38.883  12.950
40966W        W 9360  28.211  37.736  14.724
40967W        W 9361  12.860   2.272   2.968
40968W        W 9362  24.819  10.397  14.289
40969W        W 9363  23.500  17.024  14.086
40970W        W 9364  11.322   2.417  13.583
40971W        W 9365  14.369  42.126   4.020
40972W        W 9366  14.377   5.253  10.705
40973W        W 9367  31.492  38.911  13.503
40974W        W 9368   3.283  16.301  11.490
40975W        W 9369   8.843  31.098  12.625
40976W        W 9370  24.346  44.388  10.059
40977W        W 9371  37.889  23.014   2.648
40978W        W 9372  16.098  10.989  13.930
40979W        W 9373  29.633  34.988   1.942
40980W        W 9374  35.300  13.309  12.347
40981W        W 9375  29.568  32.576   2.408
40982W        W 9376  19.428  20.632   0.513
40983W        W 9377   1.377  11.475   2.198
40984W        W 9378  27.592  25.046  14.921
40985W        W 9379  17.681  27.084  12.805
40986W        W 9380  21.409  40.326  12.087
40987W        W 9381   5.466  19.851   0.313
40988W        W 9382  27.456  35.816  11.033
40989W        W 9383   0.576  32.513  10.779
40990W        W 9384  15.896  41.835  12.094
40991W        W 9385  21.356   9.436  14.236
40992W        W 9386  28.474   7.502  13.916
40993W        W 9387  40.032  30.880   1.331
40994W        W 9388  20.116   7.718   2.867
40995W        W 9389  30.693  28.483  14.631
40996W        W 9390  17.606  33.115   0.287
40997W        W 9391  27.725   9.869  14.859
40998W        W 9392   8.394  32.014   4.599
40999W        W 9393  23.600   4.470  11.977
41000W        W 9394  21.519  21.489   1.269
41001W        W 9395   6.905  10.384  11.628
41002W        W 9396   9.902   1.876   3.296
41003W        W 9397  11.065  30.788   1.184
41004W        W 9398  10.690  35.092   2.221
41005W        W 9399  26.428   4.463  11.195
41006W        W 9400  41.573  38.138   1.699
41007W        W 9401   5.644  34.017   0.736
41008W        W 9402  38.896  36.695   1.625
41009W        W 9403  24.955  23.259   2.595
41010W        W 9404  31.942  21.675  13.152
41011W        W 9405  38.348   9.234  12.843
41012W        W 9406  13.790   4.045  14.840
41013W        W 9407  18.084  43.798   4.501
41014W        W 9408  40.026   3.914  14.346
41015W        W 9409  11.568  29.692  11.230
41016W        W 9410  39.004  44.020   0.434
41017W        W 9411  30.436  10.767  12.831
41018W        W 9412  20.102   6.667  13.962
41019W        W 9413  10.209  27.149  11.019
41020W        W 9414  44.288   7.955   1.907
41021W        W 9415  10.828  33.963  14.760
41022W        W 9416  30.307  23.651  14.325
41023W        W 9417  27.195  29.127  14.739
41024W        W 9418  28.963  21.128   1.173
41025W        W 9419  24.470   6.915  13.511
41026W        W 9420  16.296   5.319   2.707
41027W        W 9421  38.386  41.875   3.868
41028W        W 9422   5.294   7.762   1.389
41029W        W 9423  15.209  25.498   1.223
41030W        W 9424  27.905   2.731  12.272
41031W        W 9425  44.121  14.956  12.687
41032W        W 9426   1.406  26.055  11.386
41033W        W 9427  21.260   9.734  11.043
41034W        W 9428  35.025   9.475  12.597
41035W        W 9429  22.678   9.694   0.359
41036W        W 9430  15.813   0.559   0.929
41037W        W 9431   8.199  39.047   1.095
41038W        W 9432   1.540  35.620   4.156
41039W        W 9433  22.682  43.547   0.530
41040W        W 9434  16.034  24.577  12.951
41041W        W 9435   4.477   6.046   2.469
41042W        W 9436  17.837  38.140  11.620
41043W        W 9437  16.708  20.499  13.302
41044W        W 9438   4.568  41.321   5.022
41045W        W 9439   8.944   2.807  14.430
41046W        W 9440   3.314  19.813   3.786
41047W        W 9441  17.326  42.993  10.620
41048W        W 9442   9.613   9.230  12.271
41049W        W 9443  15.420   7.780  14.255
41050W        W 9444  18.387  10.019   4.083
41051W        W 9445  30.522  30.551   1.750
41052W        W 9446  31.025  40.564   3.816
41053W        W 9447  36.833  16.417   1.578
41054W        W 9448   5.181   7.056   3.854
41055W        W 9449  15.656  27.521  11.693
41056W        W 9450  24.460  38.472   4.424
41057W        W 9451  31.989   1.951   2.940
41058W        W 9452   4.458  44.903  13.367
41059W        W 9453  26.446  13.175  14.874
41060W        W 9454  12.649  29.737  13.430
41061W        W 9455  44.946  19.590  10.655
41062W        W 9456  21.253  25.646   1.763
41063W        W 9457   0.319  21.890  13.625
41064W        W 9458  44.925  12.251  12.478
41065W        W 9459  34.663  42.833  13.427
41066W        W 9460  36.437  34.496   4.653
41067W        W 9461  24.523   1.014   0.449
41068W        W 9462  11.187  37.451  12.447
41069W        W 9463   1.289   7.833   1.718
41070W        W 9464   0.497  31.551  12.183
41071W        W 9465   5.760  33.199   3.598
41072W        W 9466   6.905  33.429  13.843
41073W        W 9467   9.973  13.275  10.520
41074W        W 9468  20.132  13.328   2.341
41075W        W 9469   4.663   4.563  10.283
41076W        W 9470   2.823  15.392   4.647
41077W        W 9471   7.958  10.437  11.549
41078W        W 9472  40.005  34.553   1.849
41079W        W 9473  28.905  27.496  12.167
41080W        W 9474   6.541   5.941  11.524
41081W        W 9475  39.080  38.497  13.058
41082W        W 9476  31.643  33.797   3.236
41083W        W 9477  20.065   9.527   0.485
41084W        W 9478   2.968  33.657  12.113
41085W        W 9479   5.221  17.545  13.817
41086W        W 9480  41.090  18.834  12.406
41087W        W 9481  40.761   7.432  12.521
41088W        W 9482  29.633   0.916  12.226
41089W        W 9483  31.550  36.451   4.185
41090W        W 9484  10.217   0.884   0.597
41091W        W 9485  33.665   3.940  12.301
41092W        W 9486  39.573  40.526   4.851
41093W        W 9487  38.427  44.811  10.742
41094W        W 9488  30.405  14.584  12.530
41095W        W 9489  22.745  36.391  10.828
41096W        W 9490   4.821  39.376   4.339
41097W        W 9491   9.886   8.839  12.457
41098W        W 9492  24.532  14.361  12.447
41099W        W 9493  25.207  41.062   1.320
41100W        W 9494   5.829  41.202  11.089
41101W        W 9495  16.695   1.075   4.548
41102W        W 9496  39.340  29.905   3.224
41103W        W 9497  22.993   0.041   2.459
41104W        W 9498   5.982  14.791  11.260
41105W        W 9499  37.812   1.123  11.967
41106W        W 9500  36.071   7.849  14.883
41107W        W 9501  24.968  13.303   1.964
41108W        W 9502   6.683  31.578   1.159
41109W        W 9503  12.725   4.997  13.384
41110W        W 9504  40.167  42.992  11.514
41111W        W 9505  29.918  22.731  14.210
41112W        W 9506   8.342  41.752   1.138
41113W        W 9507   5.437   8.318  13.028
41114W        W 9508  40.570  42.925   0.967
41115W        W 9509  21.227  39.842   4.112
41116W        W 9510  27.561  41.195   2.089
41117W        W 9511  30.286  43.446   3.990
41118W        W 9512   5.438   7.275   4.267
41119W        W 9513  28.819  19.569  13.000
41120W        W 9514   2.489   9.304   4.767
41121W        W 9515  26.063  22.253  12.782
41122W        W 9516   2.827  11.712  13.923
41123W        W 9517  21.601  21.186   3.841
41124W        W 9518  16.521  16.754   2.184
41125W        W 9519   3.723  30.021  13.386
41126W        W 9520  24.084  14.615  14.535
41127W        W 9521  27.434  26.648   3.248
41128W        W 9522   6.688  40.318  11.426
41129W        W 9523   6.647  20.995   3.682
41130W        W 9524   8.429  28.932   0.352
41131W        W 9525  37.462  44.625   5.084
41132W        W 9526  21.162  19.022   4.149
41133W        W 9527  26.770  36.483   2.837
41134W        W 9528  28.105   2.859  11.715
41135W        W 9529   4.652  23.019   3.511
41136W        W 9530  22.579   8.187  13.004
41137W        W 9531  17.753  30.004  12.052
41138W        W 9532  27.761   9.871  13.066
41139W        W 9533  31.664   5.518  13.285
41140W        W 9534  23.996  26.079   4.974
41141W        W 9535  27.060   3.661   0.648
41142W        W 9536  13.283  34.822   3.464
41143W        W 9537  31.981  37.704   4.158
41144W        W 9538   6.271  19.503  11.845
41145W        W 9539  44.172  41.883   4.738
41146W        W 9540  41.017  39.968  11.356
41147W        W 9541  27.094  15.410  11.603
41148W        W 9542  27.737   9.332   1.690
41149W        W 9543  37.912   1.755  10.208
41150W        W 9544  10.879  33.500   1.765
41151W        W 9545  15.048  42.257   3.390
41152W        W 9546  10.265  16.836  11.933
41153W        W 9547  18.142   5.848   4.148
41154W        W 9548  20.962   3.731  10.652
41155W        W 9549  40.867  17.491   1.683
41156W        W 9550   8.358  10.137  14.354
41157W        W 9551  17.777  16.594   1.334
41158W        W 9552  24.225   1.462  12.217
41159W        W 9553  24.086  27.218  13.797
41160W        W 9554  41.546   3.278   4.141
41161W        W 9555  42.842  13.893   3.344
41162W        W 9556  42.451  32.879  10.750
41163W        W 9557   9.173  34.569  11.659
41164W        W 9558  35.978  40.490  11.982
41165W        W 9559  28.075  15.054   4.703
41166W        W 9560  13.882  24.574   3.266
41167W        W 9561  21.792  18.628   1.833
41168W        W 9562  16.677  29.718  12.532
41169W        W 9563   0.292  40.752   2.682
41170W        W 9564   6.577   3.323   1.308
41171W        W 9565  38.220  24.264   2.173
41172W        W 9566  32.234  22.181  11.958
41173W        W 9567  24.603  20.119   2.297
41174W        W 9568  41.613  42.155  11.997
41175W        W 9569   4.732   2.725   2.324
41176W        W 9570  29.614  20.229  12.028
41177W        W 9571   3.420  30.911   4.485
41178W        W 9572  44.334  42.968   4.129
41179W        W 9573   2.217  11.675   5.090
41180W        W 9574  40.374  14.834  11.604
41181W        W 9575  37.802   8.868   1.131
41182W        W 9576   6.806  36.351  12.509
41183W        W 9577  16.129  23.713   3.330
41184W        W 9578  13.093   0.266   1.358
41185W        W 9579  43.351  23.142  11.196
41186W        W 9580   0.238  18.219   3.361
41187W        W 9581  21.224  36.390   0.284
41188W        W 9582   0.898  17.726   2.650
41189W        W 9583  26.881  11.353   1.306
41190W        W 9584  39.269   1.024   2.773
41191W        W 9585  33.364  32.076  10.998
41192W        W 9586   5.060  44.879  14.230
41193W        W 9587  40.443  41.691   2.758
41194W        W 9588  35.570  20.514  13.037
41195W        W 9589  35.007  20.722   0.593
41196W        W 9590  25.519   2.298  13.994
41197W        W 9591   1.365  34.911   2.415
41198W        W 9592  19.076  27.417   0.306
41199W        W 9593  35.919  39.608  14.777
41200W        W 9594  32.037  11.133   1.157
41201W        W 9595  24.287  24.768   3.813
41202W        W 9596  12.718  29.669   2.788
41203W        W 9597  22.968  28.410  13.819
41204W        W 9598  26.064  43.480   2.167
41205W        W 9599   5.643  10.703  11.533
41206W        W 9600  16.728  43.553  14.194
41207W        W 9601  35.473   3.763   3.717
41208W        W 9602  29.116  22.072  11.957
41209W        W 9603  18.195  40.997   2.888
41210W        W 9604  32.823  27.592  11.147
41211W        W 9605  35.936  16.248   3.198
41212W        W 9606  12.182  24.630   3.688
41213W        W 9607  15.278  36.938   5.056
41214W        W 9608  13.073  39.816  14.779
41215W        W 9609  40.872  24.294   1.043
41216W        W 9610  44.106  37.268  14.732
41217W        W 9611  43.312   0.824  14.714
41218W        W 9612  39.176  40.998  14.995
41219W        W 9613  35.359  19.613   3.300
41220W        W 9614  15.734  24.804  14.277
41221W        W 9615  43.681  42.062  14.872
41222W        W 9616  31.660   5.377  12.323
41223W        W 9617  38.776  19.728   2.436
41224W        W 9618  44.840  41.247   3.120
41225W        W 9619  28.459  44.210   1.430
41226W        W 9620  17.042  28.685   1.489
41227W        W 9621   5.250  39.438  12.403
41228W        W 9622  15.519  23.415  13.208
41229W        W 9623  23.817  12.581   1.864
41230W        W 9624  30.747  21.036  12.054
41231W        W 9625   7.707   2.795   2.213
41232W        W 9626   9.077  28.503  10.360
41233W        W 9627  26.040  39.335   3.876
41234W        W 9628  30.042  24.228   0.195
41235W        W 9629  22.625  40.768  13.488
41236W        W 9630  33.088  30.231   4.605
41237W        W 9631  17.745  17.817  14.444
41238W        W 9632  16.855  22.914   2.263
41239W        W 9633  44.455   7.486   1.776
41240W        W 9634   9.443  29.125   0.568
41241W        W 9635   0.297  21.944  14.119
41242W        W 9636  37.033   1.516  12.466
41243W        W 9637   2.795  30.726   0.450
41244W        W 9638   9.645  29.696   2.170
41245W        W 9639  21.578  16.481  11.153
41246W        W 9640  31.794  30.460  13.778
41247W        W 9641  13.268  31.285   4.083
41248W        W 9642   8.301  30.072   3.113
41249W        W 9643  32.064   7.901   3.859
41250W        W 9644  15.907  27.991  13.031
41251W        W 9645  24.148   9.747   2.239
41252W        W 9646   0.425   1.229   1.219
41253W        W 9647  24.855   9.688  10.693
41254W        W 9648  16.120  29.734   1.272
41255W        W 9649  38.024   4.674   4.285
41256W        W 9650   9.819  34.476  11.044
41257W        W 9651  12.526  34.967   4.181
41258W        W 9652  28.392  23.703   1.905
41259W        W 9653   9.218   2.873  12.728
41260W        W 9654  27.676  27.145   3.130
41261W        W 9655  26.207   2.054  11.127
41262W        W 9656  36.150   0.032   4.091
41263W        W 9657   5.927  37.388  13.497
41264W        W 9658  36.119  19.484  13.472
41265W        W 9659  10.139  11.185   0.457
41266W        W 9660  29.436  14.541   4.895
41267W        W 9661  18.209   9.772  14.602
41268W        W 9662   3.909  12.301   5.467
41269W        W 9663  22.777  19.578   0.861
41270W        W 9664  37.547   4.521   4.066
41271W        W 9665  37.129  12.386   0.400
41272W        W 9666  31.509  25.095   4.105
41273W        W 9667   7.720  41.813   2.328
41274W        W 9668  31.278   7.483   1.880
41275W        W 9669  18.085  10.150   2.331
41276W        W 9670  10.321  17.036  14.981
41277W        W 9671   4.401  18.568  10.634
41278W        W 9672  44.008  33.072   0.695
41279W        W 9673  39.901  21.806  14.611
41280W        W 9674   0.215  14.854   3.706
41281W        W 9675  29.530   0.243   0.893
41282W        W 9676  37.542  27.357  14.429
41283W        W 9677  32.414  39.061   1.842
41284W        W 9678  26.683  25.986  10.483
41285W        W 9679  41.744  32.979  12.020
41286W        W 9680  44.833   3.311   0.717
41287W        W 9681  37.941  27.147  14.980
41288W        W 9682   9.902   9.615  12.029
41289W        W 9683   3.826   7.682  12.028
41290W        W 9684  31.578   3.021  11.580
41291W        W 9685   6.416  44.771  12.521
41292W        W 9686   7.498  34.542  11.213
41293W        W 9687  41.014   0.728  13.294
41294W        W 9688  18.149  21.491   3.150
41295W        W 9689  19.213   5.254  12.426
41296W        W 9690  17.933  13.225  11.463
41297W        W 9691  32.038  36.838   3.727
41298W        W 9692  24.174  18.740   1.380
41299W        W 9693   6.975  36.253   0.221
41300W        W 9694   8.090  19.997  12.726
41301W        W 9695  18.764  24.123  14.656
41302W        W 9696   7.345   5.483  11.150
41303W        W 9697  32.296  30.154   3.635
41304W        W 9698  29.240  21.839  11.506
41305W        W 9699  43.474  34.777   3.970
41306W        W 9700  25.472  15.069   0.298
41307W        W 9701  40.140  27.514  11.051
41308W        W 9702  40.302  28.981   3.341
41309W        W 9703  14.705  44.286  11.340
41310W        W 9704   7.806  13.174  12.405
41311W        W 9705   2.847  30.446   2.394
41312W        W 9706  26.900   5.693   2.455
41313W        W 9707  34.913  16.599   0.313
41314W        W 9708  32.065  43.073  10.963
41315W        W 9709  22.845  44.772  11.506
41316W        W 9710  23.896  15.155  10.955
41317W        W 9711   1.356  40.546  13.321
41318W        W 9712   5.229   5.412   2.156
41319W        W 9713  37.372   7.520  11.567
41320W        W 9714  27.598  22.177  12.042
41321W        W 9715  15.584  32.052  11.624
41322W        W 9716   3.343  13.506   1.044
41323W        W 9717  28.379  39.362   3.943
41324W        W 9718  14.782   5.255  14.814
41325W        W 9719  20.943  44.844   0.926
41326W        W 9720  29.186  11.170  12.929
41327W        W 9721  37.948  38.256   4.202
41328W        W 9722  16.797   3.824   3.626
41329W        W 9723  15.215  41.048  14.918
41330W        W 9724  13.878   5.952   2.570
41331W        W 9725  40.390  32.537  12.647
41332W        W 9726  38.094   5.676  12.854
41333W        W 9727  16.007  23.357  10.732
41334W        W 9728  39.233  36.323   1.794
41335W        W 9729  26.560   2.417  12.137
41336W        W 9730  23.547  41.335  13.353
41337W        W 9731  19.649  13.349   3.603
41338W        W 9732   0.461  23.261  11.575
41339W        W 9733  26.640  25.979  11.412
41340W        W 9734  10.632  42.027   3.679
41341W        W 9735   2.947  11.363  12.175
41342W        W 9736  15.258  35.584  14.841
41343W        W 9737  44.941   8.279   3.395
41344W        W 9738  25.985  21.606  13.628
41345W        W 9739   8.539  35.324   0.229
41346W        W 9740   4.878  33.393   1.898
41347W        W 9741  11.039   8.211   0.508
41348W        W 9742  13.105   6.513   2.248
41349W        W 9743  22.547  12.319   2.087
41350W        W 9744   2.936   8.164  11.127
41351W        W 9745  39.464  44.901   3.497
41352W        W 9746  29.458   7.342  14.495
41353W        W 9747  15.571   0.290   2.187
41354W        W 9748  42.799  41.544   3.303
41355W        W 9749  30.677  37.537   4.171
41356W        W 9750  20.475  43.390  11.213
41357W        W 9751  37.847  25.905  13.336
41358W        W 9752  33.497   8.262   3.133
41359W        W 9753  21.712   9.041   1.625
41360W        W 9754  34.959  29.592   2.589
41361W        W 9755  10.007   4.971   4.141
41362W        W 9756  17.763   3.243   4.143
41363W        W 9757   1.488  12.718  11.759
41364W        W 9758  16.901  27.491   0.874
41365W        W 9759  11.614   4.596   4.573
41366W        W 9760   1.529  42.905  12.590
41367W        W 9761  37.593  33.503  12.907
41368W        W 9762   9.353  16.002   0.398
41369W        W 9763  34.848   3.288   0.830
41370W        W 9764  23.568  43.083  10.743
41371W        W 9765  29.500  43.226   5.471
41372W        W 9766  43.555  28.123  10.257
41373W        W 9767  15.745  32.459   0.528
41374W        W 9768  37.751  21.097   2.849
41375W        W 9769  33.020   4.644   4.069
41376W        W 9770  39.897   7.258   1.819
41377W        W 9771   3.626  18.706   3.303
41378W        W 9772  38.934  21.473  14.515
41379W        W 9773  10.783  41.016   3.622
41380W        W 9774  32.793   2.740  11.930
41381W        W 9775  12.897   0.525  13.357
41382W        W 9776  40.539  41.008   1.976
41383W        W 9777  18.696  13.890  13.421
41384W        W 9778  11.894  39.144   2.864
41385W        W 9779   2.183  38.509   3.299
41386W        W 9780  31.483  35.702  12.161
41387W        W 9781  22.564  39.140   0.381
41388W        W 9782  10.346  31.619   2.380
41389W        W 9783  27.952  11.398  10.148
41390W        W 9784  34.298  12.085  12.193
41391W        W 9785  27.734  19.628  12.165
41392W        W 9786  29.281   6.860   3.620
41393W        W 9787  42.742  27.775   3.555
41394W        W 9788   8.010  22.241  12.920
41395W        W 9789  27.921  21.670  13.001
41396W        W 9790  14.596  43.301  12.041
41397W        W 9791  29.680  41.295   3.662
41398W        W 9792  20.531  42.536  10.803
41399W        W 9793  26.941  12.505  12.411
41400W        W 9794  17.722   1.790   1.874
41401W        W 9795   6.824  42.103  11.203
41402W        W 9796  38.237  17.881  10.910
41403W        W 9797  22.056   8.222  12.565
41404W        W 9798  39.023   7.805   0.967
41405W        W 9799  18.200   3.314   0.387
41406W        W 9800  14.896  17.157   3.161
41407W        W 9801  43.869   5.550   1.455
41408W        W 9802  34.040  13.098   2.128
41409W        W 9803  31.605  43.384  12.149
41410W        W 9804   0.398  30.378  11.928
41411W        W 9805  32.375  21.147   1.241
41412W        W 9806  23.120  43.077  13.860
41413W        W 9807  14.736  27.710  14.371
41414W        W 9808  19.577  19.558   3.952
41415W        W 9809  32.552   3.808  12.474
41416W        W 9810  40.834  14.293   1.207
41417W        W 9811  29.190  10.842  10.709
41418W        W 9812  41.829  36.401   1.743
41419W        W 9813   1.744  39.164  11.603
41420W        W 9814  30.585   1.181  13.619
41421W        W 9815  40.018   4.480   4.670
41422W        W 9816  20.981  12.061  13.394
41423W        W 9817  26.079   3.014   4.547
41424W        W 9818  36.984   8.278  14.972
41425W        W 9819   4.365  25.172   9.781
41426W        W 9820  34.403  36.643  14.842
41427W        W 9821  22.486  12.308  14.353
41428W        W 9822  33.119   4.823  12.481
41429W        W 9823  24.737  30.901   3.883
41430W        W 9824  29.626  31.099   2.570
41431W        W 9825  14.619   4.903  13.954
41432W        W 9826  33.867  33.320  13.481
41433W        W 9827   9.291   4.282   4.105
41434W        W 9828   6.944  16.399   1.870
41435W        W 9829  37.485   3.268   3.665
41436W        W 9830  31.450  21.644   1.249
41437W        W 9831  24.592  39.276   2.787
41438W        W 9832  24.504  22.686  11.082
41439W        W 9833   0.972  23.979   2.250
41440W        W 9834  44.373  35.495  13.881
41441W        W 9835  20.923   1.334   4.170
41442W        W 9836  43.315  44.739   1.754
41443W        W 9837  42.819  37.018   0.114
41444W        W 9838   6.690  11.425  11.992
41445W        W 9839   6.698  26.168   2.355
41446W        W 9840  14.323  24.473   0.888
41447W        W 9841  10.861  21.411   3.349
41448W        W 9842  24.314  15.628   4.601
41449W        W 9843  33.424  22.999   2.234
41450W        W 9844  31.523  37.362   1.026
41451W        W 9845  22.135  20.118  12.488
41452W        W 9846  43.869  17.576   3.924
41453W        W 9847  11.222   6.391   1.670
41454W        W 9848   3.135  28.015  13.466
41455W        W 9849  33.517   3.762  13.322
41456W        W 9850   7.784  12.236  14.216
41457W        W 9851  28.621  19.126   4.686
41458W        W 9852  40.889   5.124   1.346
41459W        W 9853   9.413  11.087  14.953
41460W        W 9854  30.114  42.761   2.274
41461W        W 9855  14.437  15.137  11.111
41462W        W 9856  23.780  10.079   3.628
41463W        W 9857  32.049  17.847   2.075
41464W        W 9858  33.393  22.559   0.901
41465W        W 9859  33.563  26.957   4.530
41466W        W 9860  11.956  15.804  10.202
41467W        W 9861  15.505  43.801  10.728
41468W        W 9862   6.988  11.324   1.764
41469W        W 9863  31.444  24.681  13.348
41470W        W 9864   3.484  15.568  11.548
41471W        W 9865  20.185  36.636   2.214
41472W        W 9866  42.957  18.041  14.768
41473W        W 9867  28.188  28.438  11.460
41474W        W 9868  21.592  35.284   0.957
41475W        W 9869  22.139   3.405  13.149
41476W        W 9870  26.380  35.908  10.336
41477W        W 9871  34.577  10.708  13.024
41478W        W 9872  32.713  26.267   2.239
41479W        W 9873  14.606   0.837  11.244
41480W        W 9874  26.416   2.109   1.639
41481W        W 9875  42.876  31.573   4.625
41482W        W 9876  23.422   9.306  13.109
41483W        W 9877  13.322  39.172   0.628
41484W        W 9878   5.015   0.283   1.977
41485W        W 9879  36.752  35.662   2.247
41486W        W 9880  16.305  11.460  13.850
41487W        W 9881  10.078  36.159   2.023
41488W        W 9882  41.056  13.174   2.726
41489W        W 9883  28.536   1.000  10.925
41490W        W 9884  10.652   4.932   1.131
41491W        W 9885  25.375  24.134  10.849
41492W        W 9886  23.989  32.759  12.581
41493W        W 9887  42.561  40.094  12.971
41494W        W 9888  30.228  18.827  11.996
41495W        W 9889  13.347  22.927   2.001
41496W        W 9890  14.592   9.663   3.359
41497W        W 9891  36.364  15.813  14.385
41498W        W 9892  11.183  37.081   0.000
41499W        W 9893   7.911  32.197  14.803
41500W        W 9894  42.801   4.329   1.842
41501W        W 9895  10.798  14.355  11.646
41502W        W 9896  35.943   6.867   0.526
41503W        W 9897  44.468   1.084  14.118
41504W        W 9898  26.335   1.653   1.376
41505W        W 9899  32.062   4.819  10.146
41506W        W 9900   4.947   6.911  12.090
41507W        W 9901  39.452  26.353   5.131
41508W        W 9902  43.836  39.983   1.420
41509W        W 9903  27.901  34.576   2.734
41510W        W 9904  22.554   8.321  12.381
41511W        W 9905  27.515   8.767   1.522
41512W        W 9906  27.181  29.635   1.897
41513W        W 9907  30.007   5.145  12.907
41514W        W 9908  13.939  43.909   1.183
41515W        W 9909  22.164  22.470  14.705
41516W        W 9910   0.137   3.187   4.123
41517W        W 9911  10.181  26.936  13.104
41518W        W 9912   2.724  39.076  10.215
41519W        W 9913  24.269  37.250   1.430
41520W        W 9914  41.436  15.810  11.900
41521W        W 9915  42.016  18.042  14.496
41522W        W 9916  13.922  40.467  13.940
41523W        W 9917  21.493  40.451   1.787
41524W        W 9918   1.231  29.131   4.856
41525W        W 9919  16.801  28.394  10.730
41526W        W 9920  33.100  15.152  14.328
41527W        W 9921  39.514  28.587   2.953
41528W        W 9922  11.121   4.380  13.860
41529W        W 9923  21.027   2.729   1.275
41530W        W 9924  20.606  28.138  11.566
41531W        W 9925   0.791  43.406   4.603
41532W        W 9926   1.592  38.113  14.248
41533W        W 9927   9.193   1.477  13.856
41534W        W 9928  23.061  18.581   2.991
41535W        W 9929  15.402  15.140  13.909
41536W        W 9930   0.385  29.636  13.421
41537W        W 9931  17.837  10.198  11.886
41538W        W 9932  41.419  20.214   2.819
41539W        W 9933  20.556  31.394  14.374
41540W        W 9934   6.008  20.674   1.879
41541W        W 9935  37.589  34.446  11.857
41542W        W 9936  36.430   2.930  14.906
41543W        W 9937  17.150  42.976  12.511
41544W        W 9938  27.249  26.880   4.070
41545W        W 9939  31.611   0.978   1.490
41546W        W 9940   6.811   1.042   0.753
41547W        W 9941  33.802   9.378   3.158
41548W        W 9942   0.651  14.887  11.147
41549W        W 9943   7.943  24.936  11.884
41550W        W 9944   8.716   2.938   4.517
41551W        W 9945  30.936   4.824  12.736
41552W        W 9946  41.637  27.932   3.778
41553W        W 9947   3.295  21.805  12.025
41554W        W 9948   6.648  44.283  11.587
41555W        W 9949  41.917  18.491  13.923
41556W        W 9950  17.685  14.824   2.630
41557W        W 9951  10.383  22.919   2.970
41558W        W 9952  44.167  23.106  14.354
41559W        W 9953  35.456  35.624   0.877
41560W        W 9954  15.069  37.608  12.800
41561W        W 9955  35.493   8.424   2.498
41562W        W 9956  39.823  14.243  14.475
41563W        W 9957  42.717  26.687   1.347
41564W        W 9958   9.266   2.204   2.662
41565W        W 9959  37.808  19.395  11.000
41566W        W 9960  37.270  30.180   0.195
41567W        W 9961  29.576  43.873  12.138
41568W        W 9962   3.798  43.215   0.834
41569W        W 9963  36.595  11.261  10.711
41570W        W 9964  19.665  40.464   4.657
41571W        W 9965  25.390   7.303   1.333
41572W        W 9966  37.913  18.262  13.354
41573W        W 9967  33.865  25.163   4.657
41574W        W 9968  24.866   9.382   0.181
41575W        W 9969  20.660  16.669   1.350
41576W        W 9970   3.735   8.614   2.886
41577W        W 9971  32.684   6.889   3.150
41578W        W 9972   4.320  42.803  10.472
41579W        W 9973  14.398  30.981   0.933
41580W        W 9974   7.915   5.829  10.593
41581W        W 9975  16.515   4.291  12.392
41582W        W 9976  10.123  38.912   3.084
41583W        W 9977  18.734   7.808   5.002
41584W        W 9978  25.777  17.761  11.115
41585W        W 9979  28.692  15.348  13.498
41586W        W 9980  39.164  19.711  11.143
41587W        W 9981   5.974   9.180   3.053
41588W        W 9982  22.763  20.378   2.310
41589W        W 9983  12.674  29.604   4.888
41590W        W 9984  30.878  22.458  12.063
41591W        W 9985  38.856   4.744   3.115
41592W        W 9986  30.001  11.418  12.460
41593W        W 9987  16.804  19.091  12.064
41594W        W 9988  35.572  21.905  10.751
41595W        W 9989  43.948  28.096  12.357
41596W        W 9990   6.675   4.872  12.079
41597W        W 9991  24.539  23.587  12.633
41598W        W 9992  15.202  18.570   5.012
41599W        W 9993  37.425  39.536  11.536
41600W        W 9994  16.763  34.039  12.360
41601W        W 9995  25.901  28.965  11.376
41602W        W 9996   5.775  40.786   4.260
41603W        W 9997  20.804  43.524   1.468
41604W        W 9998   5.007  31.723  10.067
41605W        W 9999  25.254  17.828   1.301
41606W        W10000  30.504  10.763  13.879
41607W        W10001  14.620  37.091   1.284
41608W        W10002  33.313   1.921  10.742
41609W        W10003  13.753  22.027   2.914
41610W        W10004  37.822  30.675  11.504
41611W        W10005  41.489  33.394  14.430
41612W        W10006  23.407  25.480   3.576
41613W        W10007  29.635  42.171  11.081
41614W        W10008  40.164  42.389   3.790
41615W        W10009  17.270  21.288   4.976
41616W        W10010  34.715  35.103  10.793
41617W        W10011  25.069   3.133  14.030
41618W        W10012  15.797   3.231  12.131
41619W        W10013  35.119  44.460   0.015
41620W        W10014  31.471  25.645   1.883
41621W        W10015  32.325  34.401   1.252
41622W        W10016  31.087   6.650  12.478
41623W        W10017  44.868  22.490  11.694
41624W        W10018  13.716  26.139  11.559
41625W        W10019  40.900  38.967  10.869
41626W        W10020  14.809  28.944  14.833
41627W        W10021  36.716  28.938   2.495
41628W        W10022  27.666   3.331  14.763
41629W        W10023  40.270  30.645  14.399
41630W        W10024   1.492  24.695  12.024
41631W        W10025  26.159  20.679  11.654
41632W        W10026  15.670   4.412  10.631
41633W        W10027  12.813  21.492   2.239
41634W        W10028  12.429  16.048  12.844
41635W        W10029  30.801   8.675  10.727
41636W        W10030  38.002   7.251  12.886
41637W        W10031  12.910   0.635   4.135
41638W        W10032  23.368  27.061   2.675
41639W        W10033  44.357  42.212  12.877
41640W        W10034   0.074  10.257   3.282
41641W        W10035  11.473  17.574   4.304
41642W        W10036  30.425  29.269   1.733
41643W        W10037  36.015  25.669   3.133
41644W        W10038  40.850  10.659   3.848
41645W        W10039  18.717  41.683  14.376
41646W        W10040  27.670  10.555  12.642
41647W        W10041  26.649  32.443   4.232
41648W        W10042  28.697  35.840  11.046
41649W        W10043  43.010   9.346  13.072
41650W        W10044  26.412  11.699   0.391
41651W        W10045   3.026  13.747   2.438
41652W        W10046   5.639  12.665   0.753
41653W        W10047  11.943  24.763  11.662
41654W        W10048  17.257  22.234  11.580
41655W        W10049  44.227  23.010   1.307
41656W        W10050   2.884  21.403  10.160
41657W        W10051   2.959  28.060   0.170
41658W        W10052  28.038   7.116   2.769
41659W        W10053  28.853  44.996   1.223
41660W        W10054  20.109  41.024  10.735
41661W        W10055   1.830  27.570   0.704
41662W        W10056   0.140  36.457   2.038
41663W        W10057  23.701  33.656  12.872
41664W        W10058  17.316   1.355   3.678
41665W        W10059  11.029  23.444   0.485
41666W        W10060   6.424   8.298  11.218
41667W        W10061   8.807  23.364   3.340
41668W        W10062  11.770  32.826   4.272
41669W        W10063  23.281   4.736   0.512
41670W        W10064  37.896  38.545  12.465
41671W        W10065   8.822  25.752  11.159
41672W        W10066  38.381  10.905  13.360
41673W        W10067  21.259  26.966  10.913
41674W        W10068  31.849  32.688   4.064
41675W        W10069  43.212  14.709  14.154
41676W        W10070  41.979   0.348   2.822
41677W        W10071  36.310  11.139  13.945
41678W        W10072   0.275  17.697   1.846
41679W        W10073   9.475   8.418  13.883
41680W        W10074  21.501  40.264   2.782
41681W        W10075  15.517   9.735  12.924
41682W        W10076  15.319  42.413   2.074
41683W        W10077  25.503  24.225  12.375
41684W        W10078  19.050  17.042   2.722
41685W        W10079   5.752   5.440  13.530
41686W        W10080  21.027   5.388   2.819
41687W        W10081   2.218  39.528  14.546
41688W        W10082  10.838  32.214   4.359
41689W        W10083  23.702  42.924   1.626
41690W        W10084  18.217  26.691   2.908
41691W        W10085  10.834  31.470  13.946
41692W        W10086   7.015  17.203   2.772
41693W        W10087   2.417  11.628  13.599
41694W        W10088  19.528  33.674  12.128
41695W        W10089  37.333  12.341   1.785
41696W        W10090  41.670  38.808   3.957
41697W        W10091  13.678   1.459  14.484
41698W        W10092  15.281  28.564   4.195
41699W        W10093   0.871  30.962  11.186
41700W        W10094  15.130  41.790  14.269
41701W        W10095  20.603   1.695  13.404
41702W        W10096  17.570  34.895   2.850
41703W        W10097  12.146   1.163  12.833
41704W        W10098  26.761   7.268  14.983
41705W        W10099   4.063   6.332   2.412
41706W        W10100  34.829  18.991   1.423
41707W        W10101  42.329  40.591  11.612
41708W        W10102  40.654   7.448   2.896
41709W        W10103  17.964  35.604  13.608
41710W        W10104  23.936  26.852  13.445
41711W        W10105  10.398  24.016  12.066
41712W        W10106  10.592  20.204   4.118
41713W        W10107   4.184   3.441   3.723
41714W        W10108  42.643   1.034   5.069
41715W        W10109  31.067   0.436   2.708
41716W        W10110  16.473  32.406   4.930
41717W        W10111   0.729   3.796  12.550
41718W        W10112  15.053  26.508  11.098
41719W        W10113  21.856   7.291  12.835
41720W        W10114   3.527  14.395  13.925
41721W        W10115  21.581  35.903  12.413
41722W        W10116  40.852  23.182   3.615
41723W        W10117  43.886  14.175  11.533
41724W        W10118  36.823   8.404  11.611
41725W        W10119   6.846   1.440  13.990
41726W        W10120   4.937  40.887  10.838
41727W        W10121  31.531  40.062  10.509
41728W        W10122  15.150  30.375   0.472
41729W        W10123  33.925   0.695  11.646
41730W        W10124  32.549   1.730   2.171
41731W        W10125  14.973  16.782   9.899
41732W        W10126   4.588  19.226  12.594
41733W        W10127  41.773   2.057   1.413
41734W        W10128  27.526  32.928   1.296
41735W        W10129  26.605  10.656  13.922
41736W        W10130  33.921  12.670   1.514
41737W        W10131  15.346   9.292   0.766
41738W        W10132  36.078  28.926   1.966
41739W        W10133  27.671   0.113  13.816
41740W        W10134  20.010   6.392  13.504
41741W        W10135  40.488  32.171  12.995
41742W        W10136  13.450  37.325  12.184
41743W        W10137   8.708  16.227  14.878
41744W        W10138   4.852  17.520   4.523
41745W        W10139   0.442  27.285  11.200
41746W        W10140  25.209  44.386   1.602
41747W        W10141  28.442  42.897  11.093
41748W        W10142   6.274  11.779  11.621
41749W        W10143   6.393  29.064   0.500
41750W        W10144  16.475   2.891   2.347
41751W        W10145   0.137   5.141   0.315
41752W        W10146  39.104  11.217  13.798
41753W        W10147  27.483  41.088   1.199
41754W        W10148   1.400  25.843  12.375
41755W        W10149  37.387  40.489   4.173
41756W        W10150  19.612  23.642   2.242
41757W        W10151  25.088   3.880  14.474
41758W        W10152   5.818  42.262   4.336
41759W        W10153  31.806  28.797   1.190
41760W        W10154  31.922  28.432  14.251
41761W        W10155   7.012  10.840  13.794
41762W        W10156  16.756   9.360  12.890
41763W        W10157   8.782  43.730  11.779
41764W        W10158   6.195  25.665   1.737
41765W        W10159  15.328  18.724   4.539
41766W        W10160  43.175   6.838   1.222
41767W        W10161   9.349  22.445   3.988
41768W        W10162  27.393  40.020  11.881
41769W        W10163  24.921   7.351  10.930
41770W        W10164  36.082  36.217   0.263
41771W        W10165   7.432   3.737   2.132
41772W        W10166  13.123  19.996  14.549
41773W        W10167  33.962  34.218   2.910
41774W        W10168  34.640  30.622  10.519
41775W        W10169  35.077  21.864  11.293
41776W        W10170  13.563   9.713   2.280
41777W        W10171  28.869   9.073   3.229
41778W        W10172  26.136  40.796  13.344
41779W        W10173  23.283  42.486   3.733
41780W        W10174  12.388  38.522   2.373
41781W        W10175  13.103  17.919  14.896
41782W        W10176   1.718  43.931   4.405
41783W        W10177  30.457  44.115   3.359
41784W        W10178   3.755  13.882  13.406
41785W        W10179  27.399  12.652   3.738
41786W        W10180  16.538  20.320   3.659
41787W        W10181  13.111  39.008   0.155
41788W        W10182   8.293  16.128   1.668
41789W        W10183  34.651  22.505   0.165
41790W        W10184  43.966   5.684   4.289
41791W        W10185  38.809  17.108   0.546
41792W        W10186  32.459  40.387  10.569
41793W        W10187  29.524  29.228  12.926
41794W        W10188  41.206  36.538   1.622
41795W        W10189  39.263  23.695  12.154
41796W        W10190  24.359  44.475   4.572
41797W        W10191   9.685  41.377   2.764
41798W        W10192   1.816  21.166  14.339
41799W        W10193   1.438  13.161  12.004
41800W        W10194  25.567  14.353  13.442
41801W        W10195  37.871  34.824   1.820
41802W        W10196  44.931  37.628  12.105
41803W        W10197  16.268   2.257  14.550
41804W        W10198  18.434  42.517   3.180
41805W        W10199  15.030   3.835   2.451
41806W        W10200  33.011  25.006   2.173
41807W        W10201  42.455  35.476   3.318
41808W        W10202  44.348  16.283   0.323
41809W        W10203  24.307  26.453   5.216
41810W        W10204  40.368  31.032  12.093
41811W        W10205  19.527  15.849   1.218
41812W        W10206  11.819  26.518   5.001
41813W        W10207  24.276  37.939  10.743
41814W        W10208  37.835  35.987   4.503
41815W        W10209  18.486  32.643   0.186
41816W        W10210  37.198  42.784  11.055
41817W        W10211  25.959  37.470  14.293
41818W        W10212  11.415  23.999   4.810
41819W        W10213  16.320  37.520   0.891
41820W        W10214   3.456  18.591  13.919
41821W        W10215  27.624   3.008  13.312
41822W        W10216   2.462   6.820  10.867
41823W        W10217  23.479  30.275  11.566
41824W        W10218  12.412  30.489   2.458
41825W        W10219   3.277  23.397   4.502
41826W        W10220  19.534  17.723  14.866
41827W        W10221  12.437  28.579  11.599
41828W        W10222   9.789  32.072   3.095
41829W        W10223  28.557  10.765   1.246
41830W        W10224  27.975   0.986   3.586
41831W        W10225   9.718  24.978  14.335
41832W        W10226  30.585  24.252  11.489
41833W        W10227  16.339  12.695  14.493
41834W        W10228   7.356  34.786   2.488
41835W        W10229  26.089  19.709   1.799
41836W        W10230  14.326  13.168  12.640
41837W        W10231   8.263  16.068   1.150
41838W        W10232  23.494  40.272   3.301
41839W        W10233  15.320  36.077   4.616
41840W        W10234  20.582  24.247   3.147
41841W        W10235  16.681  37.503  13.347
41842W        W10236   4.606   4.373   1.805
41843W        W10237   0.797  16.599   0.404
41844W        W10238  42.362  29.478  11.393
41845W        W10239  16.107  22.010   3.449
41846W        W10240  29.539  41.398  10.622
41847W        W10241  15.247  39.632   0.154
41848W        W10242  11.309  44.963   4.902
41849W        W10243  41.788  43.057   2.726
41850W        W10244   1.432  38.854  12.861
41851W        W10245  17.149  34.661   4.521
41852W        W10246  40.283  21.523   4.677
41853W        W10247  17.264  24.563   0.665
41854W        W10248  11.942  31.243   1.456
41855W        W10249  39.325  34.887   1.749
41856W        W10250  24.215   4.329  13.004
41857W        W10251  16.967  20.193  12.918
41858W        W10252  21.145  14.870   4.208
41859W        W10253  25.562  12.680   0.982
41860W        W10254  27.288  44.892   2.683
41861W        W10255   6.369  17.426  13.408
41862W        W10256  31.667   7.200   2.297
41863W        W10257  12.293  12.798   3.762
41864W        W10258   0.012  23.639  12.137
41865W        W10259  31.443  22.658   0.075
41866W        W10260   2.438  37.341   1.458
41867W        W10261   3.308  14.460   3.598
41868W        W10262  24.208  21.341  11.227
41869W        W10263   3.742  13.267   1.335
41870W        W10264  43.845   0.792   2.711
41871W        W10265  36.041  39.493  13.044
41872W        W10266  44.264  44.513   0.693
41873W        W10267  36.196  18.211  10.432
41874W        W10268  32.480  16.637   2.891
41875W        W10269   3.442  28.031   2.736
41876W        W10270  20.272   3.266   0.279
41877W        W10271  43.873  12.621   3.996
41878W        W10272   8.342  35.424   4.523
41879W        W10273  30.674  16.041  14.359
41880W        W10274  38.509  21.475  12.425
41881W        W10275  21.205  39.893  12.244
41882W        W10276  17.422  43.042   9.900
41883W        W10277  27.489  34.316  13.737
41884W        W10278   5.763  34.064  12.525
41885W        W10279  30.244   2.780   3.732
41886W        W10280  27.217  17.760   1.626
41887W        W10281  31.905  13.514   3.138
41888W        W10282  27.189  41.809  10.716
41889W        W10283   1.231  40.774   2.557
41890W        W10284  18.256  26.232  14.931
41891W        W10285  22.683   9.923  13.563
41892W        W10286  44.311  37.059  11.416
41893W        W10287  29.159   1.653   4.846
41894W        W10288  13.220   3.495  10.582
41895W        W10289  33.481  32.037  13.388
41896W        W10290  33.398   0.812  11.571
41897W        W10291   0.572  42.539   3.880
41898W        W10292   1.935  13.675   9.837
41899W        W10293   6.362  40.360   2.172
41900W        W10294  41.763   7.912   0.476
41901W        W10295  25.701   7.163   3.172
41902W        W10296  27.199  10.967   1.392
41903W        W10297   7.389  39.400   0.843
41904W        W10298   4.403  11.388  10.420
41905W        W10299  42.837   6.985  14.790
41906W        W10300  17.023  26.528   3.539
41907W        W10301  42.988   9.237  14.035
41908W        W10302  17.079  25.686   3.686
41909W        W10303   4.709   5.879  10.940
41910W        W10304  42.815  42.395   2.861
41911W        W10305  29.572  33.042   4.422
41912W        W10306  22.700   8.155  14.434
41913W        W10307  27.231  22.761   3.517
41914W        W10308  32.239   4.772  10.687
41915W        W10309  26.476  15.494  14.941
41916W        W10310  27.103  40.903  13.630
41917W        W10311  40.280  40.454   1.305
41918W        W10312  44.518   4.657   2.645
41919W        W10313  22.118  29.776  13.542
41920W        W10314  26.905  18.710   3.170
41921W        W10315   8.574  17.132  11.942
41922W        W10316  18.531   4.997   4.940
41923W        W10317  25.557   4.361  10.990
41924W        W10318  20.141  12.754  12.111
41925W        W10319  11.666  41.004  10.745
41926W        W10320  43.048  20.767  12.364
41927W        W10321  33.027  22.410   1.250
41928W        W10322   1.973   3.370  11.219
41929W        W10323  25.809  34.599   0.396
41930W        W10324   9.899  38.943   0.750
41931W        W10325  29.277  21.946  13.860
41932W        W10326  36.555  24.949   0.293
41933W        W10327  15.659  12.902  12.089
41934W        W10328  23.097   8.742   0.550
41935W        W10329  31.023   5.014   1.273
41936W        W10330  25.439  18.499   2.414
41937W        W10331  10.614  30.395   3.228
41938W        W10332  44.522  17.235   0.174
41939W        W10333  27.515  40.926  11.102
41940W        W10334   3.284  34.651  12.537
41941W        W10335  43.814   5.179   0.486
41942W        W10336  10.118  31.672   9.939
41943W        W10337  13.277  19.311   4.618
41944W        W10338  22.082  23.186  13.539
41945W        W10339   7.169  22.317  10.247
41946W        W10340  39.854  20.265   0.714
41947W        W10341   1.477  15.267   5.009
41948W        W10342  12.895  34.156  11.214
41949W        W10343  39.503  20.267  12.297
41950W        W10344   5.860  35.619   0.240
41951W        W10345  11.150  16.339  12.812
41952W        W10346  14.036  40.769  14.375
41953W        W10347  34.924  21.123   2.053
41954W        W10348  13.529   7.499   1.640
41955W        W10349   1.977  43.201  11.172
41956W        W10350  37.517   0.428  14.374
41957W        W10351  38.080   9.668  11.155
41958W        W10352  12.692  40.551  10.425
41959W        W10353  44.290  12.599   3.364
41960W        W10354  24.059  33.937  14.594
41961W        W10355  33.852  44.845  14.063
41962W        W10356  26.176  32.617  13.099
41963W        W10357  20.551  27.927   0.459
41964W        W10358  26.213   8.279  11.927
41965W        W10359  34.668  20.887  13.875
41966W        W10360  23.696   1.792   1.467
41967W        W10361   4.859  22.758  12.859
41968W        W10362  42.726  23.738   1.981
41969W        W10363   5.450  29.610  10.552
41970W        W10364  43.648  27.393   2.757
41971W        W10365  25.583  33.810   4.734
41972W        W10366  26.125  12.191  13.859
41973W        W10367  26.682  25.625   4.664
41974W        W10368  24.697  36.503  13.022
41975W        W10369  18.589  40.372  13.918
41976W        W10370   2.075  22.468  11.928
41977W        W10371   1.840  20.139   4.620
41978W        W10372  12.522   6.015  13.586
41979W        W10373  11.156  21.214  11.132
41980W        W10374  16.835  12.634   4.726
41981W        W10375  13.840  29.217  11.023
41982W        W10376   5.422  31.122   0.706
41983W        W10377  30.652  12.814  11.049
41984W        W10378  30.793   9.441   3.651
41985W        W10379  41.840  29.642  13.614
41986W        W10380  39.470  37.484   3.681
41987W        W10381  44.507   1.378  10.775
41988W        W10382  42.240  26.838   2.841
41989W        W10383   7.127  41.462   4.098
41990W        W10384  31.156  42.455  10.959
41991W        W10385   5.527  26.610  13.835
41992W        W10386   1.588  32.769   0.806
41993W        W10387  19.278  15.021  14.505
41994W        W10388   6.612  43.898   0.671
41995W        W10389  21.783  26.477   1.562
41996W        W10390  27.181   2.263   0.400
41997W        W10391  30.798  34.876  12.054
41998W        W10392  39.798  20.753  14.459
41999W        W10393  30.731  34.516  13.417
42000W        W10394  36.473   7.854   4.645
42001W        W10395   2.586  28.170   2.930
42002W        W10396  32.368   3.834  12.967
42003W        W10397   0.212   6.327   0.352
42004W        W10398  14.819  17.965  13.849
42005W        W10399  27.149   4.958  11.591
42006W        W10400  21.505   7.816   1.741
42007W        W10401  31.303  28.441   0.392
42008W        W10402  25.069  32.915   0.478
42009W        W10403  12.461  35.805   2.252
42010W        W10404   9.283  35.375   2.346
42011W        W10405  23.235  27.150  12.477
42012W        W10406  36.945  10.805  13.548
42013W        W10407  13.864  16.889  13.506
42014W        W10408  20.073  13.103   0.936
42015W        W10409  44.053  22.045  11.945
42016W        W10410  15.141   8.414   4.490
42017W        W10411   3.849  28.357   2.802
42018W        W10412   5.585   1.197   2.411
42019W        W10413  23.169  26.530   5.056
42020W        W10414  13.431  34.409   0.861
42021W        W10415   2.294   0.789   1.377
42022W        W10416  32.496  24.658  13.527
42023W        W10417  28.664  12.871  12.150
42024W        W10418   1.918  21.426  13.894
42025W        W10419  23.135  32.209  13.470
42026W        W10420   9.258  32.681   3.562
42027W        W10421  12.823  27.736  14.465
42028W        W10422   7.802   5.729   4.189
42029W        W10423  24.243  39.033  14.018
42030W        W10424  19.949  18.765  10.319
42031W        W10425  40.885  17.489   0.775
42032W        W10426  11.847  16.000   1.723
42033W        W10427  24.144  28.512   3.262
42034W        W10428  38.902  43.731   4.397
42035W        W10429  37.754  14.064   3.697
42036W        W10430  19.105  41.441   1.250
42037W        W10431   8.390  34.742  12.300
42038W        W10432   2.279  25.142  12.105
42039W        W10433   2.311  39.250  14.108
42040W        W10434  35.495  22.230   1.053
42041W        W10435  27.151  25.050  14.105
42042W        W10436  44.267  35.365   3.674
42043W        W10437  24.124  10.834  11.248
42044W        W10438  10.787  26.648   3.815
42045W        W10439   0.273   4.520  12.965
42046W        W10440  39.107  16.819  14.802
42047W        W10441  13.088  12.268   1.137
42048W        W10442  34.913  28.840  13.797
42049W        W10443  24.915  18.797  12.949
42050W        W10444   3.281   1.900  12.963
42051W        W10445  40.889  16.943  10.702
42052W        W10446  12.745  14.871  12.038
42053W        W10447  33.710  15.711   1.190
42054W        W10448  24.647  33.210  11.960
42055W        W10449   0.610  10.249   3.184
42056W        W10450  32.031   4.769  13.299
42057W        W10451  33.653  21.166   1.240
42058W        W10452  38.979  35.572  13.558
42059W        W10453  42.245  28.329  13.602
42060W        W10454  24.972   1.194   3.619
42061W        W10455   4.335  43.500  11.583
42062W        W10456   7.722   6.431   3.272
42063W        W10457  13.098  15.983   0.401
42064W        W10458  29.900  11.687   3.215
42065W        W10459   2.398  41.340   2.368
42066W        W10460  43.010  23.217  13.402
42067W        W10461  33.959   5.411   0.037
42068W        W10462  35.811  11.426  12.349
42069W        W10463   0.778  16.691   3.417
42070W        W10464  42.840   7.380  13.536
42071W        W10465  30.974  43.930   2.625
42072W        W10466  19.476  10.728  13.938
42073W        W10467  32.441  41.450  10.850
42074W        W10468  32.650  44.839   2.782
42075W        W10469  28.909  19.129   2.999
42076W        W10470   7.728   8.100  12.083
42077W        W10471   2.412  16.732   1.426
42078W        W10472  35.335   5.500  12.981
42079W        W10473  24.029  32.392   2.261
42080W        W10474  40.389   1.263   2.497
42081W        W10475  23.930  19.888  13.116
42082W        W10476   4.620   0.408  13.162
42083W        W10477  26.417  37.530   4.703
42084W        W10478  10.112   9.905  12.439
42085W        W10479   0.353  29.024   1.107
42086W        W10480  39.397  38.427   2.364
42087W        W10481   3.848  32.984   4.550
42088W        W10482  20.559  38.871   4.884
42089W        W10483  33.405  17.002  12.040
42090W        W10484  26.948  26.504   1.884
42091W        W10485  28.105   7.863   2.787
42092W        W10486   3.456  41.767  11.191
42093W        W10487  33.365  42.411  12.434
42094W        W10488  12.880   6.919  13.412
42095W        W10489   7.520  14.827   0.238
42096W        W10490  14.894  10.221  10.406
42097W        W10491   3.888  33.090   1.918
42098W        W10492  35.899  11.285  14.908
42099W        W10493  11.628  29.197  14.209
42100W        W10494  15.606  10.287  11.166
42101W        W10495  10.216  42.594   4.457
42102W        W10496  13.869   3.635   4.184
42103W        W10497   6.793  28.018  14.315
42104W        W10498  33.013   1.225   3.207
42105W        W10499   1.056   3.271  14.354
42106W        W10500   7.106  25.946  14.708
42107W        W10501  18.000  38.486   3.221
42108W        W10502  41.857  40.281  10.992
42109W        W10503  34.386  18.855   1.679
42110W        W10504   3.654  21.651  13.438
42111W        W10505  11.343  33.935  14.427
42112W        W10506  27.743   4.974   1.677
42113W        W10507  12.156  39.859  11.313
42114W        W10508  18.558  14.239   4.342
42115W        W10509  18.509  10.191   3.164
42116W        W10510  17.386   0.394   4.521
42117W        W10511  18.730  42.819  12.794
42118W        W10512   1.974  24.564   2.708
42119W        W10513  32.470  15.277  13.013
42120W        W10514  11.372  13.878  12.953
42121W        W10515  17.308   1.973  11.079
42122W        W10516  13.430  42.080   3.223
42123W        W10517  22.297  43.248   0.347
42124W        W10518   7.687  18.604   1.408
42125W        W10519  18.140  27.458   2.421
42126W        W10520  13.180  34.043  14.946
42127W        W10521  23.665  39.755  14.928
42128W        W10522  17.369  25.137   3.762
42129W        W10523  25.644  22.972   0.915
42130W        W10524  38.977  29.505   3.791
42131W        W10525  18.589   2.235   1.815
42132W        W10526   7.140  31.948  13.396
42133W        W10527  12.483  20.902  13.300
42134W        W10528  24.714  42.961   0.367
42135W        W10529   4.488  26.803  14.925
42136W        W10530  31.878  33.598  11.912
42137W        W10531  30.025  19.982  11.525
42138W        W10532  40.684  31.286   2.515
42139W        W10533  12.210  33.659  13.515
42140W        W10534  32.462  44.596  11.671
42141W        W10535  29.203  13.669   1.337
42142W        W10536  24.676  33.087   0.911
42143W        W10537  22.295  15.092   0.408
42144W        W10538  15.206   6.783   2.841
42145W        W10539   5.215  17.001   2.363
42146W        W10540  42.731  35.327   1.394
42147W        W10541  41.077  19.324   3.146
42148W        W10542  41.660   9.346  12.162
42149W        W10543   0.938  19.148   0.978
42150W        W10544  36.063  38.878   0.880
42151W        W10545  27.491  29.684  12.956
42152W        W10546   3.250  19.072  13.915
42153W        W10547  14.108  33.418  13.787
42154W        W10548   2.140  18.167  13.640
42155W        W10549  26.683  26.580   2.741
42156W        W10550  43.794  17.156   3.546
42157W        W10551   7.744  20.969  10.098
42158W        W10552  24.166  25.223   1.469
42159W        W10553   1.989  40.008  11.114
42160W        W10554   3.183  26.725   2.364
42161W        W10555  26.461  20.020   3.391
42162W        W10556  12.790   6.590  12.589
42163W        W10557  25.359   1.893  12.806
42164W        W10558  35.930  22.415  11.971
42165W        W10559  17.058   3.492   3.265
42166W        W10560  42.501  23.118   2.269
42167W        W10561  24.904  36.512   1.891
42168W        W10562   4.981  26.728   0.566
42169W        W10563  30.781  16.446  13.383
42170W        W10564  20.037  16.123  11.943
42171W        W10565  14.133  33.581   0.008
42172W        W10566   0.947  26.624  14.580
42173W        W10567  25.582   2.447   4.303
42174W        W10568  17.995  15.981   3.296
42175W        W10569   9.455   8.232   1.935
42176W        W10570  43.197  20.799  11.670
42177W        W10571  14.377  37.590   4.607
42178W        W10572   2.952  21.149   0.228
42179W        W10573   3.456   8.070   4.995
42180W        W10574  23.034   2.308  14.384
42181W        W10575   9.143  34.660   0.433
42182W        W10576   0.669  25.010   0.926
42183W        W10577  32.454   0.467  13.313
42184W        W10578  40.111  39.344  13.283
42185W        W10579  24.410   9.407  12.095
42186W        W10580  17.080  36.511  11.879
42187W        W10581  13.667  37.760  11.972
42188W        W10582  33.853  37.919  12.170
42189W        W10583  11.358  31.663   3.724
42190W        W10584  23.907  11.322  11.241
42191W        W10585  43.203   2.327  13.152
42192W        W10586  10.659  16.580  10.707
42193W        W10587  30.091  28.129  11.815
42194W        W10588  32.537   8.781  13.990
42195W        W10589   3.724  10.907  14.997
42196W        W10590  44.284  30.068   0.015
42197W        W10591  23.166  27.574   2.778
42198W        W10592  33.529  28.315  14.946
42199W        W10593  29.685  20.584  10.777
42200W        W10594   0.526   6.176  11.524
42201W        W10595  44.219  13.776   2.841
42202W        W10596   2.602  29.766   1.320
42203W        W10597  42.610   3.806   3.609
42204W        W10598   4.001  18.646   4.220
42205W        W10599  23.025  12.733   3.692
42206W        W10600  10.574  16.984   4.153
42207W        W10601   6.577  30.054   0.197
42208W        W10602  15.190   3.766  14.959
42209W        W10603  35.513   0.717   4.079
42210W        W10604  18.790  16.599   2.841
42211W        W10605  25.963  43.204   1.713
42212W        W10606  42.481   5.250  13.462
42213W        W10607   2.835  12.988   5.097
42214W        W10608  10.082  23.601  12.036
42215W        W10609  30.414  12.553  12.469
42216W        W10610  41.075  39.487   1.337
42217W        W10611  31.108  37.313   9.917
42218W        W10612   9.623   7.290  10.819
42219W        W10613  24.532  35.539   0.795
42220W        W10614  13.601  43.589  12.783
42221W        W10615  21.573  42.794   0.409
42222W        W10616  12.652   9.974   3.095
42223W        W10617   5.714  22.918   1.167
42224W        W10618  10.874  25.136   3.231
42225W        W10619  17.500   9.085  10.900
42226W        W10620  14.201   7.510   4.673
42227W        W10621  35.974   1.680   2.160
42228W        W10622  12.266  10.036  13.554
42229W        W10623   7.199  15.450   1.855
42230W        W10624   9.837  43.375   2.468
42231W        W10625   5.839   7.199   2.416
42232W        W10626   9.685  41.780   4.604
42233W        W10627   0.252   4.840  14.609
42234W        W10628  23.954   4.004  14.806
42235W        W10629  17.313  41.071   1.415
42236W        W10630  24.938  18.253   2.106
42237W        W10631   3.445  36.106   0.777
42238W        W10632  25.240  27.405  14.528
42239W        W10633  23.681  23.572  14.123
42240W        W10634  43.455   8.667  11.476
42241W        W10635  37.118  24.136   0.494
42242W        W10636  24.514  11.704  12.376
42243W        W10637  21.724   4.814  10.647
42244W        W10638  10.206   9.442   4.562
42245W        W10639  42.037  40.481   4.589
42246W        W10640  24.683  14.392   1.212
42247W        W10641  31.906  25.504  12.866
42248W        W10642  35.145  20.801  12.142
42249W        W10643  10.247  37.319   3.622
42250W        W10644  31.357  38.438   2.378
42251W        W10645   8.601  23.541  13.617
42252W        W10646  16.823  14.794   2.505
42253W        W10647  26.734  43.857  10.581
42254W        W10648   7.079  24.998   3.879
42255W        W10649   8.788  39.749   1.309
42256W        W10650  28.141  29.004   1.985
42257W        W10651  17.837  42.912  10.463
42258W        W10652  37.882  35.337   1.696
42259W        W10653   6.614  28.489  11.479
42260W        W10654  11.205   8.521   2.355
42261W        W10655   0.445  40.357  10.665
42262W        W10656  13.548  44.032  13.677
42263W        W10657  23.236  35.367   2.931
42264W        W10658  14.292  35.637   0.022
42265W        W10659   9.901  15.659   2.977
42266W        W10660  21.568  16.653   3.834
42267W        W10661   9.648  23.035  10.686
42268W        W10662  30.917  10.977   0.961
42269W        W10663  12.383  13.770  13.030
42270W        W10664  35.227  28.121   4.935
42271W        W10665  33.071   1.732  11.644
42272W        W10666  17.704  43.954  14.945
42273W        W10667  12.275  22.795  14.443
42274W        W10668  43.427  36.159   4.454
42275W        W10669  24.997   1.162   2.724
42276W        W10670  33.512   7.381  14.550
42277W        W10671  39.955  21.958  12.089
42278W        W10672   3.850  18.077  12.673
42279W        W10673   7.134  12.240   4.705
42280W        W10674  29.429  16.592  13.396
42281W        W10675  12.294  40.564   4.859
42282W        W10676   6.215  23.539  10.521
42283W        W10677  16.727   2.774   1.843
42284W        W10678  40.641  36.145   4.006
42285W        W10679  38.295   2.493  10.727
42286W        W10680  18.781  39.356   2.660
42287W        W10681  30.610  30.074  14.915
42288W        W10682  43.939  10.795   2.619
42289W        W10683  36.406  43.463  10.429
42290W        W10684  39.043  26.928   0.480
42291W        W10685  14.862  33.487  14.303
42292W        W10686   6.818  12.415   0.519
42293W        W10687   1.449   2.180   4.166
42294W        W10688   3.447  41.944   0.231
42295W        W10689   5.221  42.764  11.559
42296W        W10690  34.466   5.662  11.582
42297W        W10691  36.949   4.183  13.116
42298W        W10692   2.056  14.010   2.761
42299W        W10693  34.080   3.751  11.490
42300W        W10694  15.850   8.748  13.604
42301W        W10695  19.666  25.610  14.536
42302W        W10696  40.167  21.883   3.661
42303W        W10697  10.906  10.830   1.918
42304W        W10698  22.193  28.864   2.198
42305W        W10699  27.477  31.976   4.114
42306W        W10700  39.756  35.156  13.785
42307W        W10701  11.776   3.789   0.972
42308W        W10702  22.492  36.614   3.186
42309W        W10703  18.645  32.323  11.165
42310W        W10704  44.619  36.987   1.664
42311W        W10705   9.595   9.789  11.586
42312W        W10706  27.561  35.117   1.288
42313W        W10707  20.193  14.707   3.819
42314W        W10708  43.705  35.497   3.666
42315W        W10709  18.609  26.975  12.988
42316W        W10710  32.469  37.137   3.698
42317W        W10711   9.362   9.242  14.083
42318W        W10712  36.442  35.967  10.357
42319W        W10713  26.507  31.722  12.053
42320W        W10714   1.269  39.944   3.484
42321W        W10715  42.997  22.585   4.424
42322W        W10716  42.784  28.742   3.249
42323W        W10717  36.579  21.428   1.719
42324W        W10718   3.208  39.164  13.449
42325W        W10719   2.777  35.600   3.679
42326W        W10720  27.689  21.225  14.987
42327W        W10721  11.173  11.539   4.453
42328W        W10722  44.795  35.439   5.043
42329W        W10723  17.270  32.358  14.317
42330W        W10724  44.003  38.291  13.848
42331W        W10725   2.241  24.095   4.950
42332W        W10726  23.237  37.467   2.262
42333W        W10727  34.583  36.392   0.281
42334W        W10728  40.951  15.521   4.408
42335W        W10729  21.311   3.751  14.239
42336W        W10730   8.901   1.913   0.883
42337W        W10731  33.668   7.482  12.834
42338W        W10732  10.936  20.279   0.520
42339W        W10733  44.404   1.739  14.805
42340W        W10734   8.555  14.337  10.787
42341W        W10735  35.952  41.988  12.033
42342W        W10736  27.039  39.766   1.950
42343W        W10737  41.346  20.481   1.185
42344W        W10738   1.878   3.232  12.601
42345W        W10739   7.813  38.607   3.308
42346W        W10740  16.644  18.804   2.226
42347W        W10741  31.657  31.924  12.083
42348W        W10742  33.447  41.929   4.055
42349W        W10743   8.192  29.275  13.059
42350W        W10744  24.762  15.429  12.499
42351W        W10745  10.148   9.633   3.130
42352W        W10746  36.902   3.697   1.539
42353W        W10747   9.413  12.922   3.723
42354W        W10748  28.165  17.435   0.347
42355W        W10749  24.481  32.931   4.660
42356W        W10750   4.341  36.286   0.921
42357W        W10751  32.200  20.067   0.428
42358W        W10752  38.399  31.378   4.117
42359W        W10753  42.994  15.682   1.662
42360W        W10754  39.461  16.743  13.117
42361W        W10755  19.745  18.519   3.765
42362W        W10756  11.097  12.789   0.150
42363W        W10757  13.255  14.390   0.018
42364W        W10758  10.108  29.113  12.083
42365W        W10759   5.491  17.404   3.239
42366W        W10760  27.059   6.428   1.316
42367W        W10761  20.073   3.675   3.784
42368W        W10762   4.920   1.645   4.615
42369W        W10763  33.616  40.997   1.779
42370W        W10764   0.827  37.399   3.625
42371W        W10765  35.047  28.133  11.211
42372W        W10766  24.234  41.819   1.948
42373W        W10767  19.269  42.135   0.950
42374W        W10768   7.208  16.523  10.933
42375W        W10769   4.252  15.338   3.648
42376W        W10770  42.086  33.116   1.210
42377W        W10771  28.135  19.017   4.180
42378W        W10772   8.936  34.980  13.497
42379W        W10773  34.211  18.578   2.855
42380W        W10774  38.305  29.454  13.019
42381W        W10775  24.563   0.905   2.217
42382W        W10776  14.603  33.811   0.075
42383W        W10777  29.576  39.803  12.426
42384W        W10778  33.132  33.308  12.601
42385W        W10779   5.969  18.319  13.938
42386W        W10780  15.318  26.708   0.716
42387W        W10781   0.500  21.507   3.733
42388W        W10782  16.227  25.437   2.878
42389W        W10783   3.547   1.042  11.810
42390W        W10784   2.412   6.857  13.894
42391W        W10785  44.285  24.762  11.923
42392W        W10786  38.213   8.398  14.966
42393W        W10787   2.991  31.029   3.114
42394W        W10788  33.802  23.079   2.952
42395W        W10789  35.768  32.800  12.467
42396W        W10790  14.510  20.304  12.576
42397W        W10791  17.132  19.653   4.408
42398W        W10792  32.180  13.024  14.475
42399W        W10793  19.203  29.441   3.645
42400W        W10794  43.344   8.917  11.917
42401W        W10795  22.466   4.970   1.438
42402W        W10796   0.182  31.493   0.821
42403W        W10797  35.752  14.714   0.926
42404W        W10798  43.228  42.280  14.734
42405W        W10799  19.993   1.501   3.107
42406W        W10800  25.970  12.549  13.445
42407W        W10801  20.985  25.754  11.744
42408W        W10802  11.613  32.972  11.130
42409W        W10803  15.381   0.860   1.144
42410W        W10804  12.998  16.281  11.015
42411W        W10805  17.684  26.566  13.012
42412W        W10806  24.683  30.742   5.037
42413W        W10807  31.126  44.570   0.660
42414W        W10808  22.188  31.103   2.695
42415W        W10809   1.316  28.921  14.097
42416W        W10810   0.023  22.013   4.398
42417W        W10811   8.301   4.212   3.712
42418W        W10812  33.110   1.011   1.391
42419W        W10813  31.546  19.070  14.830
42420W        W10814  32.608  18.854   3.601
42421W        W10815  28.943  27.571   4.189
42422W        W10816   8.366   1.942  11.289
42423W        W10817  25.620  12.046   0.748
42424W        W10818   1.841  26.628  11.954
42425W        W10819  44.731   4.409  10.322
42426W        W10820  12.159  32.160  10.864
42427W        W10821  32.603  41.454  13.107
42428W        W10822  15.824  24.573   5.085
42429W        W10823  27.014  44.200   2.653
42430W        W10824  35.408   5.741  14.955
42431W        W10825  42.562  23.175   0.347
42432W        W10826  13.397  27.751  11.970
42433W        W10827  26.808  38.086   0.219
42434W        W10828  39.443  15.089  10.680
42435W        W10829  26.432  22.569  12.577
42436W        W10830  14.861  23.117   4.593
42437W        W10831  33.200  43.712  13.030
42438W        W10832  25.755  29.428  13.019
42439W        W10833  34.014  17.208  10.359
42440W        W10834  37.554  11.643  13.431
42441W        W10835  31.181  30.500  13.066
42442W        W10836  19.055  25.724   4.497
42443W        W10837  31.188  27.622   3.765
42444W        W10838  23.956  40.495   3.131
42445W        W10839  30.195  44.536   2.139
42446W        W10840  38.571  20.747  14.007
42447W        W10841  14.551  40.895  12.977
42448W        W10842  13.720  27.473  12.818
42449W        W10843   8.781  28.124  11.224
42450W        W10844   7.125   2.282  12.043
42451W        W10845  44.525  12.646   1.510
42452W        W10846  16.031  16.067   3.633
42453W        W10847   4.771   3.384   0.765
42454W        W10848  25.097  32.032   1.226
42455W        W10849  37.553  16.701   3.242
42456W        W10850  44.902  41.603   3.476
42457W        W10851  23.004  10.829  14.231
42458W        W10852   7.471  16.156   4.218
42459W        W10853  37.524  18.738  14.331
42460W        W10854  14.008  32.658   0.574
42461W        W10855  13.608  43.406   4.117
42462W        W10856  30.078  27.679  13.925
42463W        W10857  31.740  14.556   2.662
42464W        W10858  32.984  40.836   2.255
42465W        W10859   1.328  27.977  13.021
42466W        W10860  15.837  44.664  12.014
42467W        W10861  39.297   3.629   3.819
42468W        W10862   3.991  35.684   4.407
42469W        W10863  15.078   8.321  13.248
42470W        W10864  42.875  39.498   3.429
42471W        W10865   9.230  34.852  12.072
42472W        W10866   3.130  19.699   1.331
42473W        W10867  41.865  44.409  12.203
42474W        W10868  12.402  13.002   1.075
42475W        W10869  11.391  27.112  12.521
42476W        W10870   3.294  13.866   1.422
42477W        W10871  14.342  22.551  12.035
42478W        W10872   0.720  32.931  14.846
42479W        W10873  16.546  26.223   1.734
42480W        W10874  30.150   1.941   1.283
42481W        W10875  38.379  43.316  13.364
42482W        W10876  38.320  32.889  12.742
42483W        W10877  13.370   0.422   4.144
42484W        W10878  19.657  31.099  14.752
42485W        W10879  36.137   8.880   2.398
42486W        W10880  44.802   5.240   4.361
42487W        W10881  13.311  32.636   3.967
42488W        W10882  10.203  44.404  14.068
42489W        W10883  13.981  19.310  11.787
42490W        W10884  11.410   6.152  14.473
42491W        W10885  16.179   0.324  11.606
42492W        W10886  26.602  28.659  13.895
42493W        W10887  28.176   4.287   1.280
42494W        W10888  16.308  32.121   1.288
42495W        W10889   1.693  24.069  14.854
42496W        W10890  44.499  13.103  14.840
42497W        W10891  25.896   7.780  14.397
42498W        W10892   8.271  10.386   3.660
42499W        W10893  14.606  26.993  12.943
42500W        W10894  38.931  19.776   4.686
42501W        W10895  39.024  26.079  10.645
42502W        W10896   7.925  13.718   4.657
42503W        W10897  12.658  38.849   3.178
42504W        W10898  40.409  23.153   4.375
42505W        W10899  33.058  20.159   2.364
42506W        W10900  21.288  32.154   3.599
42507W        W10901  38.463  34.339  12.355
42508W        W10902   6.977  31.562  14.017
42509W        W10903  13.642  19.624  11.006
42510W        W10904  31.859   0.902  10.402
42511W        W10905   0.965  10.063   0.944
42512W        W10906  34.022  18.466   1.393
42513W        W10907  16.889  17.595   0.458
42514W        W10908  24.214  39.272   3.307
42515W        W10909  19.137  13.080   1.849
42516W        W10910   0.538  32.981  10.548
42517W        W10911  43.290  43.159  10.614
42518W        W10912  28.124  30.414   0.466
42519W        W10913  13.164  25.916  14.413
42520W        W10914  14.178   3.390  12.180
42521W        W10915  42.820   8.843  13.768
42522W        W10916  17.073  37.449  12.133
42523W        W10917  12.028  16.266   1.311
42524W        W10918  10.369  25.531  12.383
42525W        W10919  17.728  10.590  13.616
42526W        W10920   1.803  22.592   1.902
42527W        W10921  23.548   3.025  12.322
42528W        W10922  27.143  30.118  14.613
42529W        W10923  36.891  38.030   2.693
42530W        W10924  33.293   1.323   3.623
42531W        W10925  42.096   8.467  13.506
42532W        W10926  30.311  36.637   0.184
42533W        W10927  22.846  14.290  12.134
42534W        W10928  39.392   1.753  13.089
42535W        W10929   8.117   3.465   0.474
42536W        W10930  14.200   7.453  13.839
42537W        W10931   7.197  34.866   0.308
42538W        W10932  22.721  42.859  10.331
42539W        W10933  23.243  24.023   4.530
42540W        W10934  40.862  11.502   1.877
42541W        W10935  38.890  29.959  12.971
42542W        W10936  10.744  35.198   0.910
42543W        W10937  26.336  34.771  12.554
42544W        W10938  36.517  22.810  13.508
42545W        W10939  18.848   8.286   4.862
42546W        W10940  28.551  42.861   2.687
42547W        W10941  10.341  27.189  12.622
42548W        W10942  21.594   9.762   4.893
42549W        W10943  44.322  24.652  14.914
42550W        W10944   2.910  34.053  14.350
42551W        W10945  27.431  10.803  11.665
42552W        W10946  33.942  33.359   3.294
42553W        W10947  14.146   1.416  14.192
42554W        W10948  16.181   4.765   1.269
42555W        W10949  31.584  18.061  11.169
42556W        W10950  13.371  32.617   3.452
42557W        W10951  42.402   9.918   1.962
42558W        W10952  28.631  19.515   3.838
42559W        W10953  29.126  19.217  13.293
42560W        W10954  35.847   4.894  14.989
42561W        W10955  40.408  29.932   3.190
42562W        W10956  32.148  22.908  13.542
42563W        W10957  21.539   8.804  13.254
42564W        W10958  18.043   0.948  10.639
42565W        W10959   0.519   7.064  12.892
42566W        W10960  41.428  19.066  13.467
42567W        W10961  40.217  20.510   1.242
42568W        W10962  29.212  42.032   1.411
42569W        W10963  17.837  20.824   4.347
42570W        W10964   7.757   7.599  11.924
42571W        W10965  39.537  37.564  13.254
42572W        W10966  34.599   0.368  13.891
42573W        W10967  41.556  32.627   4.098
42574W        W10968  27.533  33.895  14.047
42575W        W10969  13.731  32.310  13.298
42576W        W10970  26.986   8.411  10.697
42577W        W10971   6.177  28.626  13.376
42578W        W10972  19.769  29.937  13.061
42579W        W10973   4.277   5.146   4.503
42580W        W10974   7.222  25.679   4.482
42581W        W10975   5.567  28.458  11.459
42582W        W10976  27.176  42.580   4.510
42583W        W10977  10.123  27.617   4.638
42584W        W10978  30.053  29.611  12.399
42585W        W10979   9.720  21.679   3.656
42586W        W10980  31.408  21.882   1.702
42587W        W10981  37.997  41.936  13.451
42588W        W10982  37.463  25.461   3.246
42589W        W10983  38.650  44.771  13.406
42590W        W10984  37.676  39.878   3.620
42591W        W10985   5.752  36.951  14.899
42592W        W10986  35.317  20.937  10.583
42593W        W10987  35.655  10.261   1.929
42594W        W10988  29.709  11.722   5.046
42595W        W10989  37.676   3.307   4.632
42596W        W10990  19.116  11.860   3.653
42597W        W10991  12.420  43.824   2.117
42598W        W10992   7.463  16.766   1.296
42599W        W10993   5.153  12.885   5.541
42600W        W10994   8.743  24.367   4.560
42601W        W10995  40.813  31.873   3.785
42602W        W10996  10.600  42.877  13.042
42603W        W10997   0.073   2.831   2.000
42604W        W10998   3.920  36.201  12.209
42605W        W10999   6.221  24.860   1.573
42606W        W11000   2.846  22.158   4.096
42607W        W11001  18.556   8.579  14.863
42608W        W11002  15.620  25.435   0.284
42609W        W11003   0.900  33.904   1.873
42610W        W11004  44.008   3.903   3.511
42611W        W11005  15.561  30.113   0.670
42612W        W11006   2.753  20.975  13.909
42613W        W11007  35.666   6.423   0.836
42614W        W11008  14.129  37.306   4.231
42615W        W11009  40.995  14.516  11.012
42616W        W11010  41.827  23.689  14.295
42617W        W11011  39.655  30.113   4.184
42618W        W11012  44.733  11.414  12.461
42619W        W11013  14.709   7.370  13.942
42620W        W11014  27.697  10.162   4.599
42621W        W11015  31.630  26.644   0.487
42622W        W11016  11.874  29.036   2.271
42623W        W11017  24.649   8.676   3.306
42624W        W11018   6.750  39.559   0.345
42625W        W11019  43.811  11.780   4.275
42626W        W11020  14.305   0.655   4.982
42627W        W11021  26.514  17.615   2.669
42628W        W11022  39.002  20.011  14.310
42629W        W11023  16.360   5.223   1.846
42630W        W11024  23.083  30.756   1.298
42631W        W11025  24.181   9.299  12.556
42632W        W11026   8.780  44.205  14.020
42633W        W11027  44.487   6.687   2.196
42634W        W11028  43.427  38.735  12.025
42635W        W11029  29.241  11.512   0.660
42636W        W11030  43.459   0.403   0.504
42637W        W11031  17.694  37.899  11.173
42638W        W11032  20.195  41.432   2.413
42639W        W11033  18.248  38.961   1.808
42640W        W11034  31.858  15.593   3.660
42641W        W11035  37.818  43.346   3.718
42642W        W11036   5.787   1.702   9.808
42643W        W11037   8.070  35.875   5.108
42644W        W11038  23.030  35.474  10.544
42645W        W11039  31.619  19.040   0.864
42646W        W11040  21.142  38.012   4.696
42647W        W11041  13.760  39.419   3.198
42648W        W11042  21.294   3.897  12.856
42649W        W11043  27.374  16.109   1.609
42650W        W11044   1.716  41.876   1.296
42651W        W11045  34.703  43.473   1.943
42652W        W11046   2.412   6.836   1.769
42653W        W11047   4.721  18.798  12.833
42654W        W11048  20.521  36.663  11.552
42655W        W11049   3.282  10.588  12.561
42656W        W11050  17.272  31.325  14.940
42657W        W11051  32.045  36.470  12.203
42658W        W11052  25.488  24.132  11.863
42659W        W11053  44.286   8.142  14.267
42660W        W11054   0.282   8.714   3.855
42661W        W11055  34.456   3.521  14.454
42662W        W11056   3.689   5.036  12.345
42663W        W11057  14.091   1.093  13.781
42664W        W11058  38.890  33.425  14.802
42665W        W11059  37.912  41.202  13.928
42666W        W11060   4.904  34.195  13.883
42667W        W11061  13.743  19.613  10.496
42668W        W11062   4.347  31.228  14.809
42669W        W11063  30.940  19.180  14.481
42670W        W11064  40.562  18.059  11.950
42671W        W11065  27.222  17.749   3.205
42672W        W11066   6.847  12.658   4.891
42673W        W11067  41.886  42.089   1.700
42674W        W11068   1.236  32.108  11.367
42675W        W11069   1.442  43.410  11.095
42676W        W11070  34.214  43.737   0.828
42677W        W11071  26.998  31.921  11.802
42678W        W11072  41.015  33.609  14.359
42679W        W11073  23.014  34.497  10.505
42680W        W11074  10.926  13.277  13.527
42681W        W11075  34.627   3.534   0.373
42682W        W11076  26.097   5.473   4.676
42683W        W11077   6.788   9.338  13.126
42684W        W11078  39.922  44.385  11.064
42685W        W11079  40.114  15.640   3.686
42686W        W11080   5.712  30.220  11.058
42687W        W11081  22.576  18.087   5.119
42688W        W11082   9.299   5.304  14.238
42689W        W11083  19.569  19.382  10.783
42690W        W11084  35.627  20.314  14.839
42691W        W11085  36.884  44.899   2.737
42692W        W11086  44.782  10.753   1.633
42693W        W11087  18.778  15.784   1.917
42694W        W11088  19.452  37.426   5.011
42695W        W11089   8.142  27.596  13.103
42696W        W11090  11.635   1.741  11.687
42697W        W11091   0.578  31.434  13.763
42698W        W11092  24.708   6.190   2.814
42699W        W11093   7.144   0.264  12.634
42700W        W11094  12.728  35.181  12.326
42701W        W11095   0.373  29.252  11.191
42702W        W11096  26.458  29.216  11.238
42703W        W11097  44.307  16.439  11.159
42704W        W11098  16.262  25.372   1.265
42705W        W11099  15.434  20.744  12.033
42706W        W11100  27.205  30.089   0.135
42707W        W11101  30.314   4.517  11.135
42708W        W11102  21.507   1.757  11.890
42709W        W11103   0.433   0.922  12.112
42710W        W11104  42.245  22.186   3.274
42711W        W11105  34.621   5.967  14.201
42712W        W11106  20.254  24.914   3.616
42713W        W11107  13.908  30.561  10.714
42714W        W11108   0.936  39.109   1.409
42715W        W11109  25.445  16.016   3.512
42716W        W11110   6.329  25.799  13.284
42717W        W11111  26.591  27.852  11.405
42718W        W11112  36.010  43.840   1.482
42719W        W11113  17.699  39.849  12.911
42720W        W11114  29.663  34.495  12.639
42721W        W11115  10.772  23.404  13.753
42722W        W11116  13.873  19.534   3.788
42723W        W11117  10.799  23.278   4.658
42724W        W11118  29.080  30.050   0.771
42725W        W11119   8.236   0.922  10.959
42726W        W11120  14.662   7.725   2.357
42727W        W11121  41.331  20.028  12.647
42728W        W11122  38.054  36.547   2.319
42729W        W11123  22.774  38.775  13.510
42730W        W11124  15.175  16.650   4.699
42731W        W11125  25.760  40.390   1.204
42732W        W11126  16.509  30.556   0.485
42733W        W11127  18.594  36.156   3.251
42734W        W11128  13.542   8.468  13.339
42735W        W11129  39.051  19.472   4.302
42736W        W11130  17.074  28.432   5.036
42737W        W11131  39.628  19.553  11.011
42738W        W11132  36.077  10.881   0.964
42739W        W11133  34.184  21.321  13.042
42740W        W11134  25.647  16.370  13.517
42741W        W11135   2.036   9.480   4.061
42742W        W11136  21.756  28.191   1.390
42743W        W11137  12.375  34.448  13.847
42744W        W11138  17.751  44.441   4.593
42745W        W11139  13.847   0.526   2.611
42746W        W11140  11.916  40.024  13.654
42747W        W11141  27.497   2.182   4.364
42748W        W11142  33.064  38.335  12.551
42749W        W11143  23.116  20.370  14.406
42750W        W11144  28.692  35.331   1.810
42751W        W11145  42.006  32.529  12.177
42752W        W11146  16.570  32.065   3.535
42753W        W11147  41.583   6.305   2.203
42754W        W11148  39.009   9.902  14.978
42755W        W11149  23.817  30.507  13.330
42756W        W11150   1.253  35.692   3.154
42757W        W11151  29.146  11.722   4.121
42758W        W11152  22.219  37.835   3.858
42759W        W11153   2.155  20.542  14.651
42760W        W11154  23.723  17.555  13.450
42761W        W11155  35.817  28.568  14.951
42762W        W11156  19.236  38.783  12.937
42763W        W11157   8.768   1.015   2.162
42764W        W11158  15.842  15.876  13.829
42765W        W11159   5.401  12.122   3.310
42766W        W11160   0.389   3.932  12.119
42767W        W11161   6.287   7.765  14.866
42768W        W11162  36.666  31.694  14.833
42769W        W11163  43.301   6.152   2.764
42770W        W11164  39.144   3.525   1.363
42771W        W11165  18.595  44.369  11.400
42772W        W11166  31.215  20.762  12.396
42773W        W11167  42.912   9.129  12.096
42774W        W11168  20.865  13.253  13.413
42775W        W11169  40.494  14.305   4.459
42776W        W11170  15.455   3.354   0.928
42777W        W11171  39.018  23.760   2.273
42778W        W11172   7.156  13.751   3.129
42779W        W11173   9.894  39.537  12.017
42780W        W11174  44.473  22.492  12.366
42781W        W11175  33.461   9.323   4.613
42782W        W11176  32.162   3.732  13.972
42783W        W11177  29.776  17.595  12.800
42784W        W11178  39.504  44.298   0.497
42785W        W11179  38.154  25.067  13.034
42786W        W11180  40.302   3.511  11.235
42787W        W11181  29.379   8.336   5.094
42788W        W11182  31.427  39.520  14.835
42789W        W11183  35.153  28.575  10.969
42790W        W11184  17.193  22.814  13.773
42791W        W11185   1.229  30.808  12.894
42792W        W11186  42.514  19.305  10.974
42793W        W11187  22.591  20.901   2.214
42794W        W11188   8.180  41.793   0.314
42795W        W11189  28.980  43.874  11.451
42796W        W11190  17.712  10.454  12.854
42797W        W11191  16.660   6.442   1.581
42798W        W11192  36.470  26.684   1.897
42799W        W11193  18.556   5.750  13.064
42800W        W11194  44.781  18.606   4.139
42801W        W11195   0.973  34.067  14.495
42802W        W11196  31.123  29.047   0.939
42803W        W11197  43.537  29.509   3.114
42804W        W11198  30.703  28.671  12.939
42805W        W11199   1.362  44.070  10.925
42806W        W11200  21.124   9.638   4.689
42807W        W11201  16.821  38.453   4.229
42808W        W11202  22.633  38.352  12.069
42809W        W11203  14.143  29.937  13.834
42810W        W11204  21.542  24.915   3.746
42811W        W11205  19.015  16.145   0.905
42812W        W11206  33.566  27.769   3.090
42813W        W11207  37.078  30.956   0.843
42814W        W11208  25.271  26.258   2.609
42815W        W11209   3.307  41.141  14.917
42816W        W11210  13.110   3.963  13.474
42817W        W11211   1.376  23.596  11.492
42818W        W11212  30.123  28.193  13.833
42819W        W11213  20.671  30.049   1.031
42820W        W11214  19.317   8.828   2.641
42821W        W11215   6.225  34.131   4.739
42822W        W11216  34.892  13.196  12.684
42823W        W11217  40.018  26.522  11.427
42824W        W11218  26.548   3.955  11.213
42825W        W11219  25.759  19.818  13.019
42826W        W11220  44.856  41.993   0.886
42827W        W11221   3.669  25.800   0.902
42828W        W11222  41.951   3.049   1.307
42829W        W11223  37.926   0.753   1.738
42830W        W11224  29.968  12.064  14.899
42831W        W11225  15.286  29.334   0.790
42832W        W11226  17.673  42.934   1.909
42833W        W11227   1.975  30.984   3.217
42834W        W11228  37.859  29.013   0.375
42835W        W11229  34.206  10.157  11.456
42836W        W11230  20.710  30.355   0.471
42837W        W11231   5.575  24.656   4.172
42838W        W11232   5.250   2.555   1.195
42839W        W11233  38.502  33.359  14.463
42840W        W11234  21.633   5.300   0.973
42841W        W11235  41.916  19.707   5.038
42842W        W11236  42.239  13.491  12.089
42843W        W11237  32.842   6.619   4.640
42844W        W11238  31.567  41.810   3.609
42845W        W11239  14.537   2.186   3.857
42846W        W11240   6.398  39.107   4.688
42847W        W11241  12.373  43.377  12.018
42848W        W11242   0.818  15.284   2.971
42849W        W11243  32.051   6.344  11.181
42850W        W11244  17.665  28.833  14.398
42851W        W11245  40.809  32.533   0.453
42852W        W11246  15.037  24.931  13.418
42853W        W11247  35.405  16.414   0.298
42854W        W11248  32.959  19.475  12.986
42855W        W11249  22.218  35.187  13.925
42856W        W11250  25.654   6.203  11.601
42857W        W11251  13.912  41.513   2.353
42858W        W11252  35.808  18.435   0.051
42859W        W11253  36.051  44.373  10.134
42860W        W11254  23.221  19.216  14.503
42861W        W11255   9.427  42.352   2.510
42862W        W11256  36.520  42.712   0.430
42863W        W11257  36.014   3.040  13.108
42864W        W11258  26.386  25.465   3.236
42865W        W11259  11.683   9.297   1.590
42866W        W11260  25.276  40.831  11.920
42867W        W11261  22.810  22.714   3.440
42868W        W11262   8.177   4.426   1.919
42869W        W11263  28.899   9.402  10.689
42870W        W11264  26.015   0.022  12.635
42871W        W11265  33.590   3.110  11.920
42872W        W11266   0.416  26.653   0.450
42873W        W11267   9.783  43.808  10.957
42874W        W11268   5.756  21.250   3.342
42875W        W11269  41.643   5.835  13.497
42876W        W11270  13.214  26.454   2.876
42877W        W11271  10.241   3.846   4.140
42878W        W11272  40.491  16.127  12.639
42879W        W11273  13.359  14.674  13.738
42880W        W11274  32.425  10.252  11.086
42881W        W11275   7.184   4.207   2.083
42882W        W11276  12.624  38.348   0.813
42883W        W11277  35.652  35.084  12.136
42884W        W11278  11.623   0.429  12.721
42885W        W11279  15.993  18.630  11.146
42886W        W11280   6.250  15.968   3.133
42887W        W11281  10.374  15.872   4.239
42888W        W11282   0.232  10.897  13.927
42889W        W11283  33.625   2.008   2.259
42890W        W11284  32.015  40.037   2.816
42891W        W11285  11.661  23.520   2.787
42892W        W11286   4.919  22.279  12.105
42893W        W11287  38.009   0.410  14.548
42894W        W11288  22.487  19.647   0.407
42895W        W11289  44.498  42.801   1.828
42896W        W11290   3.712  15.751  13.537
42897W        W11291  19.720  37.292  12.367
42898W        W11292  12.753  30.356   0.300
42899W        W11293  12.621  31.216   1.640
42900W        W11294  21.187   4.874   0.417
42901W        W11295  17.163  19.311   0.338
42902W        W11296  15.235   3.846   0.859
42903W        W11297  33.653   1.374  12.029
42904W        W11298  44.364  13.302   0.694
42905W        W11299  23.123  36.347   1.433
42906W        W11300  10.668  23.125   1.206
42907W        W11301  40.977  25.534  13.622
42908W        W11302   9.856  29.423  13.391
42909W        W11303   6.665  36.522   1.968
42910W        W11304   9.817  40.881  12.500
42911W        W11305  30.638  18.829   2.191
42912W        W11306  18.129  24.044  12.392
42913W        W11307  15.477  23.964   4.634
42914W        W11308  33.497  28.074  12.950
42915W        W11309  16.426   1.381   1.968
42916W        W11310   1.480  11.377  14.389
42917W        W11311  35.019  41.225  14.255
42918W        W11312  14.283   4.464  13.071
42919W        W11313  28.959  43.400  12.368
42920W        W11314  26.137  38.239   4.136
42921W        W11315  30.472  26.669  12.166
42922W        W11316  11.629  40.013  14.093
42923W        W11317  40.422  16.579  14.737
42924W        W11318  33.413  25.691   3.139
42925W        W11319   0.864   1.770   2.789
42926W        W11320  39.917   6.092   1.208
42927W        W11321   2.689  31.526  12.448
42928W        W11322  16.311  24.580  11.988
42929W        W11323   9.126  39.069  11.552
42930W        W11324  42.273  35.858  13.490
42931W        W11325  37.476  17.991   1.282
42932W        W11326  31.977   6.878   1.365
42933W        W11327  33.857  22.228   3.005
42934W        W11328  31.510  37.287  12.386
42935W        W11329  28.895  15.223  14.971
42936W        W11330  41.838   3.908   0.074
42937W        W11331   9.655  28.724   4.184
42938W        W11332  32.408  39.314  13.769
42939W        W11333  29.585  43.945   3.089
42940W        W11334  28.955  26.565   1.004
42941W        W11335   6.290  14.883  13.016
42942W        W11336   1.464  29.085   3.438
42943W        W11337  12.301  43.821   3.670
42944W        W11338  22.978   8.775  11.512
42945W        W11339   9.768  43.749  12.435
42946W        W11340  11.367  18.190  11.242
42947W        W11341  18.540  33.914  12.133
42948W        W11342   4.237   6.646  11.895
42949W        W11343  22.375   3.404   3.175
42950W        W11344  13.736  27.524   3.926
42951W        W11345   7.302   2.377  11.543
42952W        W11346  37.338  41.422  12.464
42953W        W11347  29.274  43.456  13.720
42954W        W11348  36.460  26.539   4.740
42955W        W11349  29.184  38.436   3.692
42956W        W11350  27.714   1.829   0.015
42957W        W11351  27.175   0.925  10.667
42958W        W11352  25.873  22.197   1.255
42959W        W11353  10.300  39.146  13.836
42960W        W11354   3.915   0.755   1.851
42961W        W11355  11.756  35.603  11.575
42962W        W11356  15.840   8.164   0.877
42963W        W11357  12.615  38.969   0.303
42964W        W11358   3.231  35.638   4.782
42965W        W11359  11.689  25.681  14.792
42966W        W11360  24.633  41.844  13.984
42967W        W11361  44.281  31.873  14.589
42968W        W11362  29.641  19.208   3.756
42969W        W11363  25.173   3.671   1.315
42970W        W11364  27.542  10.451   2.831
42971W        W11365  24.138  41.775   1.417
42972W        W11366  20.641   4.772  14.792
42973W        W11367  17.513  21.677   4.164
42974W        W11368  11.154  39.603   2.661
42975W        W11369  38.593   3.459  11.575
42976W        W11370  23.770  34.938  12.780
42977W        W11371  39.389  24.289  11.475
42978W        W11372  42.269  16.433   1.015
42979W        W11373  15.603   8.639   4.421
42980W        W11374  41.551  31.961  12.031
42981W        W11375   8.235  33.445   2.678
42982W        W11376  14.661  29.292   2.428
42983W        W11377  43.689  13.787   2.824
42984W        W11378  43.462  11.889  13.555
42985W        W11379  16.636  37.400  10.346
42986W        W11380  33.938   9.915  10.358
42987W        W11381   6.292  28.435   4.616
42988W        W11382   2.342  35.482  13.316
42989W        W11383  26.964   5.204  12.580
42990W        W11384  20.451  14.538  11.431
42991W        W11385  26.241  12.347   2.990
42992W        W11386  37.996  30.448   2.742
42993W        W11387  33.049  35.414   1.871
42994W        W11388   5.955  27.031   1.372
42995W        W11389   6.731   6.884   3.577
42996W        W11390  30.441  31.204  12.521
42997W        W11391  37.397  39.532  10.451
42998W        W11392  42.010  42.256   3.301
42999W        W11393  16.016  12.155   1.844
43000W        W11394  16.076  14.314  11.933
43001W        W11395  14.121   9.347   1.173
43002W        W11396   6.207  23.618   0.767
43003W        W11397  31.012  35.189  13.943
43004W        W11398   0.229   8.796  13.081
43005W        W11399  24.097  33.111   1.389
43006W        W11400  24.649  16.019   4.508
43007W        W11401  25.791  21.024  14.362
43008W        W11402  15.096  21.233   3.379
43009W        W11403   6.715  40.585  11.866
43010W        W11404  25.194  37.254  10.055
43011W        W11405  17.712  28.332   1.790
43012W        W11406   2.871   1.239  12.963
43013W        W11407  24.794  19.926   1.859
43014W        W11408  21.070  19.001   0.436
43015W        W11409  30.664  31.448   1.828
43016W        W11410   4.459  15.782  13.079
43017W        W11411   2.863   8.317   1.953
43018W        W11412  26.879  44.965   3.710
43019W        W11413  29.896   8.864  12.858
43020W        W11414  30.642  24.226  12.487
43021W        W11415   3.521  43.782  11.490
43022W        W11416  43.032  13.096   0.403
43023W        W11417  34.603  18.082  14.986
43024W        W11418  41.923  30.220   0.618
43025W        W11419  24.899  11.109  13.006
43026W        W11420  30.383   2.935   2.977
43027W        W11421  39.967   1.762  10.946
43028W        W11422   4.328  20.273   3.193
43029W        W11423  29.884  18.131  13.601
43030W        W11424  26.023  14.023   2.376
43031W        W11425  33.549  39.778  10.086
43032W        W11426   9.943  17.766  12.201
43033W        W11427  43.540  13.399  14.534
43034W        W11428  41.934   6.978   0.769
43035W        W11429  22.480  41.119  10.331
43036W        W11430  36.333  28.125  10.339
43037W        W11431   8.031  24.812  11.389
43038W        W11432  30.794  42.984  12.130
43039W        W11433  43.740  23.596   2.373
43040W        W11434  39.317  39.346  10.784
43041W        W11435  17.732  33.000   1.251
43042W        W11436   3.395   5.074   4.202
43043W        W11437  35.998  42.823  11.622
43044W        W11438  23.870  18.801  14.579
43045W        W11439  17.002  15.029  12.113
43046W        W11440   7.118  34.507  10.891
43047W        W11441   0.438  11.049   4.316
43048W        W11442   3.060  39.806  14.298
43049W        W11443   6.694  17.120   4.325
43050W        W11444  21.491  12.665   0.718
43051W        W11445   1.143  13.220   0.303
43052W        W11446  15.059  36.888  10.546
43053W        W11447  23.669  37.176  13.450
43054W        W11448  28.997   1.227   1.887
43055W        W11449  19.463  11.145   4.166
43056W        W11450  34.918   3.730   3.637
43057W        W11451  37.132  40.228  13.977
43058W        W11452  20.972   5.041   4.599
43059W        W11453  40.288  25.527   0.928
43060W        W11454  17.710  41.099   2.778
43061W        W11455  11.873   9.658   4.310
43062W        W11456  35.204   2.460   3.798
43063W        W11457  33.078  25.656  12.096
43064W        W11458  21.613  10.114   2.325
43065W        W11459   2.712  12.385   1.502
43066W        W11460  12.381  19.704  13.913
43067W        W11461  34.441  33.415   3.391
43068W        W11462  17.222   3.833  10.669
43069W        W11463  32.633  27.129   0.910
43070W        W11464  20.086   6.452   1.334
43071W        W11465   7.694   1.954  13.897
43072W        W11466   7.236  35.552   0.938
43073W        W11467  42.655  12.192   3.583
43074W        W11468   2.941  37.994  12.906
43075W        W11469  38.038  29.984  10.712
43076W        W11470  34.424  10.244  12.807
43077W        W11471  31.576  38.045  12.559
43078W        W11472  15.256   1.038  13.424
43079W        W11473  10.485  44.487   0.048
43080W        W11474  11.346  27.153   0.358
43081W        W11475  21.092   9.118   4.589
43082W        W11476  36.877  26.086   1.445
43083W        W11477  25.218  32.825   2.294
43084W        W11478  19.923  34.901  11.446
43085W        W11479  34.370  17.174   1.423
43086W        W11480   9.844  34.625   3.047
43087W        W11481  12.813  11.149   1.719
43088W        W11482  20.548   5.282   4.844
43089W        W11483  25.014  22.249  11.649
43090W        W11484  17.548  26.711  11.997
43091W        W11485  39.332  14.689   4.345
43092W        W11486  14.583  11.942   3.192
43093W        W11487  36.674  44.678   4.099
43094W        W11488   8.613   5.250  11.873
43095W        W11489  27.951  41.781   1.644
43096W        W11490   7.619  17.251   4.658
43097W        W11491  22.713  43.286   2.644
43098W        W11492   4.286  13.991   0.356
43099W        W11493   2.529  19.283  12.088
43100W        W11494  32.976  29.586  10.997
43101W        W11495  15.214  31.634   0.090
43102W        W11496  29.359   8.851   1.047
43103W        W11497   0.565  44.983  12.832
43104W        W11498   0.737  19.158  12.499
43105W        W11499  41.214  10.424  11.065
43106W        W11500  28.652   0.848   4.058
43107W        W11501  21.944  22.526   4.506
43108W        W11502  35.890  40.304  12.637
43109W        W11503  23.258   3.783   2.354
43110W        W11504   2.726  28.438   3.393
43111W        W11505  15.076  18.062  11.523
43112W        W11506  40.704  18.101   4.532
43113W        W11507   6.861  21.213   0.817
43114W        W11508  33.653  40.735  14.032
43115W        W11509  19.196  32.237   2.763
43116W        W11510  26.711  42.104  10.917
43117W        W11511   4.226  27.656  10.579
43118W        W11512  32.607  27.680  11.610
43119W        W11513   3.712  44.745   4.117
43120W        W11514  37.187  39.996   0.883
43121W        W11515  35.270  43.715  14.282
43122W        W11516  10.406  27.731  14.411
43123W        W11517  27.262  33.361   2.290
43124W        W11518  21.678  18.853  12.294
43125W        W11519   9.528  23.960   3.195
43126W        W11520  21.015  37.805   3.295
43127W        W11521  18.311  12.031   1.274
43128W        W11522  27.245  32.580   1.972
43129W        W11523  27.636   1.389  13.005
43130W        W11524   3.491  35.550   4.293
43131W        W11525  31.372  22.164   3.795
43132W        W11526  38.265  14.186  13.509
43133W        W11527   1.291  20.717  13.047
43134W        W11528  35.629  43.528  13.919
43135W        W11529  19.252  10.120   2.216
43136W        W11530  24.923  19.613  11.101
43137W        W11531  37.128  11.229  12.749
43138W        W11532  10.682  13.279   4.216
43139W        W11533  39.754  23.585  12.424
43140W        W11534  22.291  19.140   3.957
43141W        W11535  18.513   6.685  14.868
43142W        W11536   4.926  18.170  11.161
43143W        W11537  27.175   0.743  11.650
43144W        W11538  28.629   3.463   2.592
43145W        W11539  26.502  27.948   2.909
43146W        W11540   6.816   0.609  13.549
43147W        W11541  13.751   7.006  12.578
43148W        W11542  25.048  22.602  13.772
43149W        W11543  21.328   6.377  12.979
43150W        W11544  30.849  28.113   1.333
43151W        W11545  27.593  18.832   3.947
43152W        W11546  34.903  27.334  12.975
43153W        W11547  37.080  39.432   0.866
43154W        W11548   0.686   7.479   5.017
43155W        W11549  33.423  42.559   1.915
43156W        W11550  35.555   3.642  11.008
43157W        W11551  26.658  31.366   2.745
43158W        W11552  39.018  43.588  11.229
43159W        W11553  31.674  16.547  11.106
43160W        W11554   4.905   6.797  13.107
43161W        W11555  35.376  32.164  12.820
43162W        W11556  39.892   4.368  11.202
43163W        W11557  32.399  25.985  12.541
43164W        W11558  17.664  32.461  12.220
43165W        W11559  14.688  41.542  13.396
43166W        W11560  42.226  23.557   4.156
43167W        W11561   7.529   7.855  14.393
43168W        W11562   9.853  25.917   4.519
43169W        W11563  30.878   3.663  12.115
43170W        W11564  12.162  43.440  11.563
43171W        W11565  35.798   0.420  11.576
43172W        W11566  19.201   5.334   2.168
43173W        W11567  30.592  23.463   1.246
43174W        W11568  40.866  41.798  13.142
43175W        W11569  15.168  23.540   4.832
43176W        W11570   8.603  27.657   3.688
43177W        W11571  42.783  24.983  10.700
43178W        W11572  36.398   0.651  13.232
43179W        W11573  16.062   6.391  13.525
43180W        W11574  30.545   7.658  10.766
43181W        W11575  32.140  12.185  14.482
43182W        W11576   6.477  23.597   2.693
43183W        W11577  34.166  22.647   3.724
43184W        W11578  22.971  41.670  13.851
43185W        W11579  29.508  23.950   4.228
43186W        W11580  16.295  29.702  14.465
43187W        W11581  42.474  12.757  13.613
43188W        W11582  10.082  11.834   4.090
43189W        W11583   4.675  10.876   1.589
43190W        W11584  34.605  16.657   2.153
43191W        W11585  36.075  30.425  12.211
43192W        W11586  36.463  36.542   0.429
43193W        W11587  27.416  32.669   0.446
43194W        W11588  28.516  42.527   0.069
43195W        W11589  28.244  41.015  14.380
43196W        W11590  34.928   7.643   0.428
43197W        W11591  38.300  30.403   3.169
43198W        W11592  44.344  23.009  11.657
43199W        W11593  22.237  13.874   3.275
43200W        W11594  28.596  24.599   2.840
43201W        W11595   3.524   1.427  14.492
43202W        W11596  24.848   0.750  12.141
43203W        W11597  41.964   8.077  11.058
43204W        W11598  11.616  24.576  12.045
43205W        W11599  25.570  14.208   1.719
43206W        W11600  41.988  18.629   0.716
43207W        W11601  37.506  14.327  11.371
43208W        W11602  26.150  26.668   2.704
43209W        W11603  33.797  24.678   4.305
43210W        W11604  17.038  41.442   4.994
43211W        W11605  34.139  15.721   3.758
43212W        W11606  15.741  12.246  13.905
43213W        W11607  42.498  27.565   0.707
43214W        W11608   8.703  15.066   2.914
43215W        W11609  28.645  21.599   0.978
43216W        W11610  41.722  34.259  13.073
43217W        W11611  37.542   5.799   0.900
43218W        W11612  39.844   4.955   4.538
43219W        W11613   4.741   8.602   0.472
43220W        W11614  25.564  14.557   1.285
43221W        W11615  17.806  41.541   4.054
43222W        W11616  18.039  40.371  11.165
43223W        W11617   3.761  40.322  14.726
43224W        W11618   8.647  21.885   4.853
43225W        W11619  42.203   8.449   1.926
43226W        W11620   4.016  25.777  11.024
43227W        W11621  18.136  44.292   1.197
43228W        W11622  43.135  16.697  12.638
43229W        W11623  18.294  41.410   4.402
43230W        W11624  32.369  15.083  11.524
43231W        W11625  44.885  22.243  14.796
43232W        W11626  32.711  27.890   4.007
43233W        W11627   1.504  21.711  12.158
43234W        W11628   7.172  23.729  13.581
43235W        W11629  40.418  28.494  10.724
43236W        W11630  39.142  10.952   4.435
43237W        W11631  15.142   7.994   0.642
43238W        W11632  39.041  22.467  12.130
43239W        W11633  11.401  24.997   3.507
43240W        W11634  17.294  16.370   1.318
43241W        W11635  34.662  25.655   0.723
43242W        W11636   3.372  20.567  12.738
43243W        W11637   7.166  41.164   0.976
43244W        W11638   5.207  39.536  12.896
43245W        W11639  34.976  28.326  12.899
43246W        W11640  25.713  19.716  13.529
43247W        W11641  21.366  40.995   2.628
43248W        W11642  23.709  11.274   3.585
43249W        W11643  16.217  31.432   1.889
43250W        W11644  20.552  25.724   1.278
43251W        W11645  37.069  24.626   3.658
43252W        W11646   2.190   7.979  14.905
43253W        W11647  20.736   8.681   1.278
43254W        W11648  33.635  36.983  10.580
43255W        W11649   4.279  20.774   2.306
43256W        W11650  29.965  32.077   1.668
43257W        W11651  30.370  40.723  14.372
43258W        W11652  43.463   8.696   2.590
43259W        W11653  13.271  16.842   4.051
43260W        W11654   7.412  25.525   1.024
43261W        W11655  19.337  20.256   3.927
43262W        W11656  43.324   9.964  11.979
43263W        W11657  18.138  32.130  14.080
43264W        W11658   1.731  36.041  13.081
43265W        W11659  40.741  25.159  10.775
43266W        W11660  21.474  23.087  14.267
43267W        W11661  11.646  18.072  13.873
43268W        W11662  32.567  43.437  14.043
43269W        W11663  27.735  32.077   3.657
43270W        W11664  19.191  33.467   2.110
43271W        W11665  14.825   6.277   2.865
43272W        W11666   5.375  23.727   2.153
43273W        W11667  32.089  30.263  12.265
43274W        W11668   1.197  26.673  12.675
43275W        W11669  23.674   9.349   4.464
43276W        W11670  12.819  17.265   3.278
43277W        W11671  21.614  22.595  12.976
43278W        W11672  12.194  37.853  13.964
43279W        W11673  18.699  42.519  12.368
43280W        W11674  37.116  25.131  12.884
43281W        W11675  28.190  42.446   4.756
43282W        W11676  27.670  27.170  13.690
43283W        W11677  13.091  23.860   3.560
43284W        W11678  41.374  38.456  14.377
43285W        W11679   6.218  29.866   4.577
43286W        W11680  40.480  11.859   1.903
43287W        W11681  38.077   3.815   3.011
43288W        W11682  34.662  33.304  10.933
43289W        W11683  42.290  10.210   0.922
43290W        W11684  17.292  42.720   4.519
43291W        W11685  12.082  11.329   2.541
43292W        W11686   2.378  19.076  10.482
43293W        W11687   3.701   5.834  11.076
43294W        W11688  16.254  29.224   1.247
43295W        W11689   0.329  43.928   4.640
43296W        W11690   4.878  29.360  14.677
43297W        W11691  14.140   8.135  10.691
43298W        W11692  13.565   0.110  10.406
43299W        W11693  35.406  37.322   3.153
43300W        W11694  24.515  25.210  11.142
43301W        W11695   6.937  24.219   0.766
43302W        W11696  23.542   2.374  14.309
43303W        W11697  43.873  17.693   3.421
43304W        W11698  29.506  25.321  14.485
43305W        W11699  12.718  43.336   4.623
43306W        W11700   9.822  26.997   1.925
43307W        W11701  30.330  41.437  11.229
43308W        W11702  21.732  30.447   2.366
43309W        W11703  10.885  23.119   3.822
43310W        W11704  16.275  32.876  11.689
43311W        W11705  10.708  23.419  14.272
43312W        W11706  17.203   6.800  14.886
43313W        W11707  43.730  38.081  11.620
43314W        W11708  40.721  15.596  14.944
43315W        W11709  23.175  44.363  11.523
43316W        W11710   2.706  41.090  14.147
43317W        W11711  41.105  14.015  11.671
43318W        W11712  15.674  19.149   2.701
43319W        W11713   0.373  23.930   3.736
43320W        W11714  20.999  25.764   0.836
43321W        W11715   6.648  31.920   0.477
43322W        W11716  29.882  35.292  12.942
43323W        W11717  11.380  14.203   3.737
43324W        W11718  38.648  32.429   1.452
43325W        W11719   0.243  11.701  14.729
43326W        W11720  25.057   3.243   3.578
43327W        W11721  12.960  20.477  14.464
43328W        W11722  34.361   9.918   2.735
43329W        W11723   6.625  44.537  10.642
43330W        W11724  24.851  37.644   3.875
43331W        W11725  26.814   2.394   5.082
43332W        W11726  29.393  16.375  11.142
43333W        W11727  18.832   8.713  14.427
43334W        W11728   0.336   6.856   3.290
43335W        W11729   7.293   6.726  10.681
43336W        W11730  28.872  43.316   0.015
43337W        W11731  29.717  38.003   1.436
43338W        W11732  36.888  37.405  12.795
43339W        W11733  28.268  18.250   4.548
43340W        W11734  15.865  13.059  10.771
43341W        W11735  33.659  28.683   0.753
43342W        W11736  28.059  27.185   2.144
43343W        W11737  33.368  23.264  13.967
43344W        W11738  21.622  39.278   1.289
43345W        W11739   5.924  40.124  12.331
43346W        W11740   8.286   5.363  10.665
43347W        W11741  15.955  21.199   1.938
43348W        W11742  40.556  44.900  11.549
43349W        W11743  25.841  36.580   0.313
43350W        W11744  36.528  16.313   4.663
43351W        W11745  35.079  40.527   0.216
43352W        W11746  42.325  13.219   1.340
43353W        W11747   3.070   3.675   1.202
43354W        W11748  27.955   8.349   3.670
43355W        W11749   9.889   2.380   1.946
43356W        W11750   8.354   5.247   1.322
43357W        W11751  24.987  31.924  12.067
43358W        W11752  25.100  33.549  11.060
43359W        W11753   8.858  35.567  10.361
43360W        W11754  40.770  37.495   0.517
43361W        W11755   0.575  22.977   3.635
43362W        W11756  35.577  37.925  10.690
43363W        W11757  12.424  12.092  12.033
43364W        W11758  38.622  19.591  10.314
43365W        W11759  32.092   5.850   1.504
43366W        W11760  38.325  22.531   2.256
43367W        W11761  22.870  29.512   2.332
43368W        W11762  14.602  19.123  11.343
43369W        W11763  38.352  16.891   0.358
43370W        W11764  43.405  44.749   1.244
43371W        W11765   3.068   7.349  10.989
43372W        W11766  40.327  42.343  11.194
43373W        W11767  40.714  35.641  12.877
43374W        W11768  37.580  32.166  12.035
43375W        W11769  16.804  15.693   2.707
43376W        W11770  19.911  25.544   4.743
43377W        W11771  30.120   1.763   2.191
43378W        W11772  34.501  10.233  12.320
43379W        W11773  14.496  35.818  14.332
43380W        W11774  20.990   5.440  13.156
43381W        W11775  14.399  20.667  14.389
43382W        W11776  12.194   9.135  11.919
43383W        W11777   6.743  14.252   2.429
43384W        W11778   0.984   9.865   4.818
43385W        W11779  20.287  25.568   3.409
43386W        W11780  25.463  14.754   2.735
43387W        W11781  16.739  22.133  14.233
43388W        W11782  16.062  22.776  11.515
43389W        W11783   6.560  13.571   9.824
43390W        W11784  21.586  15.323   0.814
43391W        W11785  41.041  44.468  13.951
43392W        W11786  43.067  44.847   2.221
43393W        W11787  18.564   3.197   1.933
43394W        W11788   9.366  14.099   2.214
43395W        W11789   2.674  40.337  13.404
43396W        W11790  33.875  39.595   2.273
43397W        W11791  19.024   6.318   2.403
43398W        W11792  39.058  26.768  12.400
43399W        W11793  16.784  14.694   3.021
43400W        W11794  27.593   1.370   4.578
43401W        W11795  27.993  20.133  10.948
43402W        W11796  39.356  40.645   3.865
43403W        W11797  23.079  20.776   3.121
43404W        W11798   7.819  40.759  14.292
43405W        W11799  18.768   6.221  14.826
43406W        W11800   5.000  25.845   0.539
43407W        W11801  36.069  36.366  12.930
43408W        W11802  13.648  23.208   3.410
43409W        W11803   6.028  15.584   4.872
43410W        W11804  29.512  37.478  14.529
43411W        W11805  25.215   1.491  12.518
43412W        W11806  20.597   2.775   0.020
43413W        W11807  36.444   8.338  14.412
43414W        W11808  43.491  39.060  11.584
43415W        W11809  42.663  14.870  14.004
43416W        W11810   8.242  21.047   0.980
43417W        W11811  30.438  35.970  13.351
43418W        W11812  13.035   9.824  13.613
43419W        W11813  36.598  16.075   4.207
43420W        W11814   4.097  12.868   4.216
43421W        W11815  33.471  33.469  14.266
43422W        W11816  19.470  39.553   1.699
43423W        W11817  27.573  28.943   2.467
43424W        W11818  22.937  30.565   1.756
43425W        W11819  13.869  12.187   3.587
43426W        W11820   3.918   4.517   0.865
43427W        W11821  31.150  14.062  14.005
43428W        W11822  25.966  21.594  13.077
43429W        W11823  27.024  42.291   1.358
43430W        W11824  33.080  34.842  14.476
43431W        W11825   3.999  13.326  12.434
43432W        W11826  26.787  11.162   3.693
43433W        W11827  23.737  23.659   1.370
43434W        W11828   4.798  33.444  12.013
43435W        W11829  27.292  17.198   0.530
43436W        W11830  10.092   8.007   0.775
43437W        W11831  17.440  38.616   5.031
43438W        W11832  16.278  31.733   2.302
43439W        W11833  38.380  26.413   0.820
43440W        W11834  38.800  20.549  13.501
43441W        W11835  36.914  41.250  14.865
43442W        W11836  19.606   1.432  11.105
43443W        W11837   4.170  35.121  13.500
43444W        W11838   1.086  29.135   2.560
43445W        W11839  30.886  27.549  12.627
43446W        W11840  23.574  35.302  11.521
43447W        W11841  32.969  32.935  10.987
43448W        W11842  40.003  10.017   1.720
43449W        W11843  22.643  12.876   2.722
43450W        W11844  31.424  33.654  11.592
43451W        W11845  23.756  26.419  13.004
43452W        W11846  31.983   7.053  14.958
43453W        W11847   2.620  27.572  10.577
43454W        W11848   7.511  14.617   2.561
43455W        W11849   5.022  31.044   2.241
43456W        W11850  27.537  34.408   0.790
43457W        W11851  31.038  38.559   3.677
43458W        W11852  21.567   6.357  14.379
43459W        W11853  28.684  19.819   3.259
43460W        W11854  27.023   2.248  13.117
43461W        W11855  13.594  17.747  10.938
43462W        W11856  40.911  36.311  11.521
43463W        W11857  36.901  29.568   4.157
43464W        W11858  31.455  42.717  14.996
43465W        W11859  25.265  29.603  13.065
43466W        W11860   1.348  44.500  11.229
43467W        W11861  23.972  23.441  13.724
43468W        W11862  30.832  32.291   2.736
43469W        W11863  33.851  42.311   1.764
43470W        W11864  21.484   9.259  11.120
43471W        W11865  35.589  15.771   3.292
43472W        W11866  29.848  24.192  13.016
43473W        W11867  42.694  22.701   1.943
43474W        W11868  18.309  34.765  14.669
43475W        W11869  12.862  27.123  11.622
43476W        W11870   3.972   5.319   2.653
43477W        W11871  22.027  43.547   4.087
43478W        W11872   2.272  29.877  11.034
43479W        W11873  13.220  12.126  14.421
43480W        W11874   7.345  38.993  14.567
43481W        W11875  33.946   7.318   4.914
43482W        W11876  10.611  25.107  14.846
43483W        W11877  27.211  12.300   1.005
43484W        W11878  42.844  40.819  13.769
43485W        W11879  18.132  10.171  12.354
43486W        W11880   2.036  26.402  12.972
43487W        W11881  39.787   4.688   0.263
43488W        W11882  34.882  14.345   3.694
43489W        W11883  26.982  29.767  12.831
43490W        W11884  44.172  36.231   0.045
43491W        W11885  31.751  19.132   1.497
43492W        W11886  39.248  20.585   0.403
43493W        W11887  36.585  31.122   4.592
43494W        W11888  22.618  20.273   0.030
43495W        W11889  23.282   3.736  12.889
43496W        W11890  27.218  40.283   3.195
43497W        W11891  15.710  26.178   2.727
43498W        W11892  21.598  43.307  13.616
43499W        W11893  32.684  40.856   1.332
43500W        W11894  25.157  25.785  11.164
43501W        W11895  41.703  42.666  13.949
43502W        W11896  18.000  34.914  14.291
43503W        W11897   9.884   9.664  12.921
43504W        W11898  12.780  28.101   1.848
43505W        W11899   4.423  23.149  14.903
43506W        W11900  30.128  29.880  11.082
43507W        W11901  13.326  32.985   2.656
43508W        W11902   4.830  38.085   0.764
43509W        W11903  19.812  15.537   0.167
43510W        W11904  42.584  18.440  13.277
43511W        W11905  27.180   1.357   5.296
43512W        W11906  26.469  35.168  14.403
43513W        W11907  21.975  12.106   4.785
43514W        W11908  15.108  16.483   2.731
43515W        W11909   0.056  17.330  12.096
43516W        W11910  29.206  12.893  12.144
43517W        W11911   9.219  28.273  14.752
43518W        W11912  39.232  12.527   3.678
43519W        W11913  39.847  11.159  12.412
43520W        W11914  31.064   3.314   1.962
43521W        W11915   8.485  36.089   1.831
43522W        W11916  18.791  34.355  12.053
43523W        W11917  37.838  43.938   4.570
43524W        W11918  11.060  32.525  11.585
43525W        W11919  24.773  42.098   0.313
43526W        W11920   9.759  24.582   1.675
43527W        W11921   7.444   8.328  11.010
43528W        W11922  32.691   8.392   2.608
43529W        W11923   3.125   1.227  14.218
43530W        W11924  25.724  35.391   4.958
43531W        W11925  44.550   5.288  11.471
43532W        W11926  10.778  15.605  12.251
43533W        W11927  32.519  22.786   4.572
43534W        W11928  24.054   3.175   3.189
43535W        W11929  33.335  39.325   2.705
43536W        W11930  13.184   7.383   4.922
43537W        W11931   1.250  11.524   2.713
43538W        W11932   1.939  19.999   0.753
43539W        W11933  23.540   0.334  14.899
43540W        W11934   6.683  37.548  11.149
43541W        W11935   1.983   1.366  10.699
43542W        W11936  16.038  17.219   0.288
43543W        W11937   8.173  29.661   1.793
43544W        W11938   0.665  11.716   3.423
43545W        W11939  30.365  17.093  11.050
43546W        W11940  12.166  13.857  11.117
43547W        W11941  32.916   3.700   2.760
43548W        W11942  10.334  41.744  13.007
43549W        W11943  42.321  30.934   3.764
43550W        W11944  24.513   0.898   4.122
43551W        W11945  31.606  13.876  13.098
43552W        W11946  13.420  39.666   0.743
43553W        W11947  41.256  40.025   3.243
43554W        W11948  23.522   4.331  10.454
43555W        W11949  15.100  20.584  10.605
43556W        W11950  18.496   4.628   3.205
43557W        W11951  13.232  12.923  11.973
43558W        W11952   6.415  33.000   1.959
43559W        W11953  31.060  10.269  12.425
43560W        W11954   5.280  26.643  10.562
43561W        W11955  44.805  41.081   4.942
43562W        W11956  42.067   0.383  13.816
43563W        W11957  21.674  19.086  13.308
43564W        W11958  21.620  12.116  11.136
43565W        W11959  36.954  31.599   3.432
43566W        W11960   1.653  43.890   1.805
43567W        W11961  32.915   0.714   4.127
43568W        W11962  17.902  25.579   3.297
43569W        W11963   9.203  15.258   0.839
43570W        W11964  23.787  33.018   3.300
43571W        W11965  10.926  15.057   1.388
43572W        W11966   5.528  35.903   0.528
43573W        W11967  33.455  15.834  14.166
43574W        W11968  36.096   2.231  12.017
43575W        W11969  28.646   9.752   1.462
43576W        W11970  35.403   1.590   3.628
43577W        W11971  29.787  33.399  14.072
43578W        W11972  35.769  17.039  12.939
43579W        W11973  29.693  32.224  11.915
43580W        W11974  22.014  11.031   4.947
43581W        W11975  24.264   1.891  14.416
43582W        W11976  29.888  28.042   1.710
43583W        W11977   4.610  44.955   2.092
43584W        W11978  14.211  27.651  12.949
43585W        W11979   1.516   8.165  12.996
43586W        W11980  11.878  20.464  13.989
43587W        W11981  12.824  28.579  14.833
43588W        W11982  41.035  40.990   4.267
43589W        W11983  28.097  25.064  11.100
43590W        W11984  18.046  14.678  13.561
43591W        W11985  17.270   2.732   1.845
43592W        W11986  13.088  30.007  14.795
43593W        W11987  11.597   1.042   4.140
43594W        W11988  31.314   5.690  12.064
43595W        W11989  39.337  22.345  11.534
43596W        W11990  25.206  43.898  12.890
43597W        W11991   7.709   6.202  14.105
43598W        W11992  17.956   8.870   3.781
43599W        W11993  34.839  35.125   2.311
43600W        W11994  31.099  24.631   0.855
43601W        W11995  15.107  40.223   1.204
43602W        W11996  21.696  44.649   2.338
43603W        W11997  23.278  39.439  11.715
43604W        W11998  38.028  24.534   1.763
43605W        W11999  44.365  18.037  10.712
43606W        W12000  31.191   9.200   3.425
43607W        W12001   3.376  12.923  13.975
43608W        W12002  30.932   3.600   2.798
43609W        W12003   3.994  32.182   2.828
43610W        W12004  27.770  36.542   3.914
43611W        W12005  43.114   2.042  12.528
43612W        W12006  18.078   9.784   4.942
43613W        W12007  21.608  40.536  11.654
43614W        W12008   3.381  22.329  12.160
43615W        W12009  18.490  25.182  12.061
43616W        W12010  29.174  43.416   4.122
43617W        W12011  37.348  18.335  11.170
43618W        W12012   1.734  31.663   4.801
43619W        W12013  38.639  15.605  11.554
43620W        W12014  27.088  21.118   3.341
43621W        W12015  26.210  41.971   4.568
43622W        W12016  43.913  35.000  12.436
43623W        W12017   5.929   8.253  13.911
43624W        W12018  35.812  33.788   2.824
43625W        W12019   6.870  10.232   1.024
43626W        W12020  13.310   9.546   2.696
43627W        W12021  34.187  41.778  14.225
43628W        W12022  22.685  31.211   2.979
43629W        W12023  30.511  12.047  13.632
43630W        W12024  31.125  24.552   2.309
43631W        W12025  37.831  26.549   2.155
43632W        W12026  25.495   3.634  14.122
43633W        W12027  16.102  17.008  10.654
43634W        W12028  16.723   7.925   3.121
43635W        W12029  17.857  37.787   0.360
43636W        W12030  29.852  15.699  13.881
43637W        W12031  14.730  12.396  14.256
43638W        W12032   7.076   9.267   3.907
43639W        W12033  44.470   5.390   3.283
43640W        W12034  32.866   3.135  11.128
43641W        W12035  42.524  12.588  14.110
43642W        W12036  31.066   4.759  12.217
43643W        W12037  21.524  19.226   0.648
43644W        W12038   9.178   6.731  13.539
43645W        W12039   3.934  31.221  11.449
43646W        W12040  44.856  23.665   2.822
43647W        W12041   2.871  31.426   1.012
43648W        W12042   1.343  38.762  11.017
43649W        W12043   8.606  42.508   4.637
43650W        W12044  30.341  15.832  11.084
43651W        W12045  32.386  27.580   1.107
43652W        W12046   3.169  18.147  13.902
43653W        W12047  22.724  39.731  13.183
43654W        W12048  18.768  28.539   3.565
43655W        W12049  19.064   6.695   4.683
43656W        W12050  12.160   8.154  12.548
43657W        W12051  19.209  11.668  12.676
43658W        W12052  34.134  37.826  14.462
43659W        W12053   1.022  16.102  10.657
43660W        W12054  30.045  39.324  14.237
43661W        W12055   2.077  16.065   9.838
43662W        W12056   1.326  22.147   0.728
43663W        W12057  38.718   8.623  12.463
43664W        W12058  40.546  12.465   3.690
43665W        W12059   8.131  29.911  14.346
43666W        W12060  10.326  43.062  11.556
43667W        W12061   7.748  20.063   1.852
43668W        W12062   9.961  40.076  12.097
43669W        W12063  20.785  33.473   1.341
43670W        W12064  18.342  24.362   2.313
43671W        W12065   2.473  11.356   0.426
43672W        W12066  16.734   0.212  10.624
43673W        W12067  16.156   0.745   4.191
43674W        W12068  44.924   7.405  14.566
43675W        W12069   0.997  26.968  11.660
43676W        W12070  20.044  30.054  13.487
43677W        W12071  17.822  31.218  10.816
43678W        W12072  11.085   9.197   2.901
43679W        W12073  41.066  17.388  12.978
43680W        W12074   4.245  22.458  12.510
43681W        W12075  23.536  30.193  14.461
43682W        W12076  21.312   5.165  14.492
43683W        W12077   8.430  17.725   0.453
43684W        W12078  22.449  15.683   4.067
43685W        W12079  33.092   8.783   0.972
43686W        W12080  30.315  27.596  14.394
43687W        W12081   1.555   5.840  13.906
43688W        W12082  14.645  27.534   2.091
43689W        W12083  28.005   0.495  13.882
43690W        W12084  38.063  29.919  13.163
43691W        W12085  36.392   5.953  14.066
43692W        W12086  12.735   9.732   1.629
43693W        W12087  31.722  38.447   2.027
43694W        W12088  17.775  36.698   3.130
43695W        W12089  30.653  33.566  14.510
43696W        W12090   4.192   9.905  11.509
43697W        W12091  37.529  41.092  12.116
43698W        W12092  40.152   1.134   3.738
43699W        W12093  16.138   9.268   1.230
43700W        W12094   6.735   4.681   0.325
43701W        W12095  12.689   3.635  13.500
43702W        W12096  11.297  24.164  11.978
43703W        W12097  36.540  15.321   0.809
43704W        W12098  16.285  29.405  12.703
43705W        W12099  32.538  38.018  11.477
43706W        W12100  33.173  28.976  14.379
43707W        W12101   7.659  40.284   4.900
43708W        W12102  41.711   5.829   2.704
43709W        W12103  14.654  43.988  14.276
43710W        W12104   9.619  35.905  10.747
43711W        W12105  37.282  36.045  10.588
43712W        W12106  41.659   8.951   3.659
43713W        W12107  39.819  39.291   0.010
43714W        W12108   1.272  19.672  14.451
43715W        W12109  20.329  10.799   1.956
43716W        W12110   1.278  33.018   3.553
43717W        W12111  33.734  11.413  12.811
43718W        W12112   0.376  27.463  13.506
43719W        W12113  44.582   8.182   4.572
43720W        W12114  11.741  37.286   2.801
43721W        W12115  43.991  37.590  12.496
43722W        W12116  13.210  26.748   4.531
43723W        W12117  35.000  16.104   0.163
43724W        W12118  38.406  29.251   0.477
43725W        W12119  42.723  10.974   4.156
43726W        W12120  42.783  39.304   2.259
43727W        W12121  14.362  44.981  11.989
43728W        W12122  42.205  27.784   3.681
43729W        W12123  17.047   5.723  12.908
43730W        W12124  10.655  18.447  14.719
43731W        W12125  40.094  17.832   1.285
43732W        W12126  22.441  37.002  14.839
43733W        W12127  17.124  40.010   0.506
43734W        W12128  27.474  16.714   0.538
43735W        W12129   1.337  22.887  10.437
43736W        W12130  21.506  31.403   1.491
43737W        W12131  23.083  32.400  14.045
43738W        W12132  30.981  15.689  14.684
43739W        W12133  16.779  28.367   1.854
43740W        W12134   6.220  35.650   3.834
43741W        W12135   0.555   5.227  11.707
43742W        W12136  35.377  32.878   1.934
43743W        W12137   7.753  25.714  13.519
43744W        W12138  34.934  36.406  12.950
43745W        W12139  32.914  39.055   0.430
43746W        W12140  36.094  34.718  14.037
43747W        W12141   8.632  26.168   0.706
43748W        W12142   8.381   7.600   3.170
43749W        W12143  43.549  33.628  11.177
43750W        W12144   3.514   2.913  14.292
43751W        W12145  25.808  13.794   1.954
43752W        W12146  17.348  21.130   3.235
43753W        W12147  39.927  22.976  11.961
43754W        W12148  29.051  17.511   0.271
43755W        W12149  15.836  20.631  11.307
43756W        W12150  41.079   8.103   2.215
43757W        W12151  14.172  44.267   2.391
43758W        W12152  40.390   2.986  11.181
43759W        W12153  12.232  18.553  12.204
43760W        W12154  11.337  34.181   4.237
43761W        W12155  24.912  30.204   1.370
43762W        W12156  16.300   9.846   4.612
43763W        W12157  21.591  30.013  13.520
43764W        W12158  42.500  17.338   3.721
43765W        W12159  25.624   5.870  13.787
43766W        W12160  12.131  43.883  14.970
43767W        W12161  29.887  24.078   3.326
43768W        W12162  27.646   7.152   1.185
43769W        W12163  37.570  25.109   4.333
43770W        W12164  34.126  25.448  11.882
43771W        W12165   5.867  15.729  10.395
43772W        W12166  10.149  24.918   2.889
43773W        W12167  33.503  25.111  13.134
43774W        W12168  39.294   6.217  11.241
43775W        W12169  39.130   7.239  13.499
43776W        W12170   2.738  19.363   1.494
43777W        W12171  20.203  20.222  13.770
43778W        W12172   9.411  17.570   4.864
43779W        W12173   1.049  27.047  14.873
43780W        W12174  16.600  28.153   0.438
43781W        W12175  19.736   8.596   4.104
43782W        W12176  12.683  18.263  14.881
43783W        W12177  15.149  24.304  10.625
43784W        W12178  10.060   9.500  13.361
43785W        W12179  42.796  13.870  11.577
43786W        W12180  22.113  18.205  13.023
43787W        W12181  19.544  23.672  13.035
43788W        W12182  10.150   6.143   4.937
43789W        W12183  43.631  32.504   3.528
43790W        W12184   3.482  19.842  13.371
43791W        W12185  18.038  43.345   3.640
43792W        W12186  23.406  35.940   1.280
43793W        W12187   0.912  31.933  10.088
43794W        W12188  28.594   8.339   0.075
43795W        W12189  38.065  42.380   2.345
43796W        W12190  37.806   5.931  12.475
43797W        W12191  25.025  10.266   0.095
43798W        W12192   1.844  16.399  10.166
43799W        W12193  16.876  23.646   4.518
43800W        W12194  23.707  36.995   4.298
43801W        W12195  28.124   9.690   1.543
43802W        W12196  20.786  25.701   4.335
43803W        W12197  21.610   7.238  11.575
43804W        W12198  31.310   4.676   0.749
43805W        W12199  13.405  26.086   1.971
43806W        W12200  14.092  33.570   0.873
43807W        W12201  12.784  38.532  14.088
43808W        W12202  33.599   9.362  12.025
43809W        W12203  33.127  21.778   2.605
43810W        W12204  36.691   5.705   1.287
43811W        W12205   0.904  28.218   4.645
43812W        W12206  26.581   7.369   0.500
43813W        W12207  17.745   9.696  14.404
43814W        W12208  43.150   7.768   2.292
43815W        W12209  24.987  38.336   1.254
43816W        W12210  25.590  26.670   2.154
43817W        W12211   8.699  30.646  10.994
43818W        W12212  23.702  22.635   4.562
43819W        W12213  32.818  14.886  12.896
43820W        W12214  34.879   0.615   1.842
43821W        W12215  25.031   9.354  11.058
43822W        W12216  35.139  17.681   3.618
43823W        W12217  28.217  18.663  12.048
43824W        W12218  14.134  44.375  14.948
43825W        W12219  40.580  13.332   3.504
43826W        W12220  42.456  33.076   3.145
43827W        W12221  19.297   4.033   3.645
43828W        W12222  27.783  39.684  13.342
43829W        W12223  13.854  27.682   0.806
43830W        W12224  12.252  18.557   1.361
43831W        W12225  20.969  21.045   1.559
43832W        W12226  15.303  12.159  10.746
43833W        W12227  31.838  26.939   4.858
43834W        W12228   7.807   1.209  11.154
43835W        W12229  40.467  42.003  10.409
43836W        W12230  13.672   0.502   3.689
43837W        W12231  26.452  21.513  13.296
43838W        W12232  40.833   1.942  13.012
43839W        W12233  20.665  10.796   0.222
43840W        W12234  41.206  24.198  13.380
43841W        W12235  14.121  17.051  13.060
43842W        W12236  27.361   5.891   2.401
43843W        W12237   8.528   5.318   0.584
43844W        W12238  20.618  41.080  10.914
43845W        W12239  12.816  23.026   3.768
43846W        W12240  34.474  22.186   4.816
43847W        W12241   0.796   1.482  14.920
43848W        W12242  24.452  28.880   1.616
43849W        W12243   5.342  18.110   1.321
43850W        W12244   9.760   0.811   0.360
43851W        W12245  36.485  26.021   0.641
43852W        W12246  22.094  38.307   0.428
43853W        W12247  33.254  22.682   1.846
43854W        W12248  17.858  20.432  10.796
43855W        W12249   8.986   0.538   1.161
43856W        W12250  15.663  11.937   4.234
43857W        W12251  18.153  27.189   0.067
43858W        W12252   0.493  17.083  14.266
43859W        W12253  35.260  44.272   1.474
43860W        W12254   0.431  32.040  11.961
43861W        W12255  13.690  20.607  12.463
43862W        W12256  20.054  17.647   3.172
43863W        W12257   2.834  17.241   3.864
43864W        W12258  26.399  18.595   3.318
43865W        W12259  39.765  41.890   4.681
43866W        W12260  18.223   1.346   3.237
43867W        W12261  43.806  33.001  12.738
43868W        W12262  26.050  14.785  11.139
43869W        W12263   7.363   5.502  13.508
43870W        W12264   5.413  14.544   1.336
43871W        W12265  35.584  13.115  14.867
43872W        W12266   8.928  12.755  11.252
43873W        W12267  38.369   6.769  13.578
43874W        W12268   0.587  24.514   2.721
43875W        W12269   1.205  17.988   4.168
43876W        W12270  17.668  42.438  14.512
43877W        W12271  28.161  36.388   0.822
43878W        W12272  16.707  37.023  11.036
43879W        W12273   5.945  31.893   3.170
43880W        W12274  25.213  41.783   0.386
43881W        W12275  25.320  13.658   1.884
43882W        W12276   3.783   0.047  12.987
43883W        W12277  22.474   0.803   0.924
43884W        W12278  31.572  22.673  10.943
43885W        W12279  38.246  36.375   1.019
43886W        W12280   8.590  37.753  12.017
43887W        W12281  11.068  42.999   0.000
43888W        W12282  43.303  15.420  13.637
43889W        W12283  39.432  33.673  12.503
43890W        W12284  39.945   9.644   2.657
43891W        W12285  12.850  44.068   0.301
43892W        W12286   2.848   9.089  13.802
43893W        W12287   7.877  28.415  12.999
43894W        W12288  17.158  23.806   1.442
43895W        W12289   6.423  22.641   4.009
43896W        W12290  28.695  42.450  11.063
43897W        W12291  12.285  32.330   0.716
43898W        W12292   1.446   2.299   3.156
43899W        W12293  26.098  21.330  14.065
43900W        W12294  13.693  29.325   1.381
43901W        W12295   9.492  32.852   3.132
43902W        W12296  21.051   6.452   3.769
43903W        W12297  42.997  27.478   4.981
43904W        W12298  37.736   6.521   4.044
43905W        W12299  18.688  32.007   0.825
43906W        W12300  42.583   5.752   2.328
43907W        W12301   7.187  29.552  11.950
43908W        W12302  27.093   2.890   3.899
43909W        W12303  18.800  26.103   0.449
43910W        W12304  38.861   5.972  12.518
43911W        W12305  17.449  21.040  10.251
43912W        W12306  36.834  38.005  12.118
43913W        W12307   4.327  35.631   2.483
43914W        W12308  25.198   2.836  12.375
43915W        W12309   5.375  22.983  13.449
43916W        W12310  27.954  43.220  14.180
43917W        W12311   7.405  16.207   0.220
43918W        W12312  30.065   8.183  11.459
43919W        W12313  39.037  39.179   0.273
43920W        W12314  10.855  33.711  12.439
43921W        W12315  24.501  38.150   1.321
43922W        W12316  26.930   4.794  14.584
43923W        W12317  12.908   9.752  14.972
43924W        W12318  11.227  23.259  12.484
43925W        W12319  18.172   1.219   2.733
43926W        W12320  31.411  43.583   3.273
43927W        W12321   3.422  31.830  11.993
43928W        W12322  23.048   9.866  11.666
43929W        W12323  40.286  28.946  10.412
43930W        W12324  32.475  44.902  13.939
43931W        W12325  17.365  28.494  11.640
43932W        W12326   2.703  34.541   1.940
43933W        W12327  16.705  38.830   2.862
43934W        W12328  44.525   3.166  11.546
43935W        W12329  36.993  17.099  11.526
43936W        W12330  15.563  34.935   2.546
43937W        W12331  36.502  23.604   3.671
43938W        W12332   9.082   3.851  10.288
43939W        W12333  26.449  33.062   1.876
43940W        W12334  29.902  36.999   0.996
43941W        W12335   4.518   4.885   4.875
43942W        W12336  21.238  39.612   2.158
43943W        W12337   9.172  43.006  11.307
43944W        W12338  39.985  11.156  13.282
43945W        W12339  17.544   6.741   0.923
43946W        W12340  29.942  25.631   2.378
43947W        W12341  13.131   5.990   2.373
43948W        W12342  26.553  19.585   2.904
43949W        W12343  19.326  13.037  12.811
43950W        W12344  33.435  11.428  14.819
43951W        W12345  37.141  27.252  14.071
43952W        W12346  38.960  21.603   0.410
43953W        W12347  16.984   3.282   2.792
43954W        W12348  33.094  22.084  10.732
43955W        W12349   7.779   8.360   4.568
43956W        W12350  33.624  33.099   2.977
43957W        W12351  16.665  16.983   1.748
43958W        W12352  43.570   0.867  10.655
43959W        W12353  24.516  16.199   3.617
43960W        W12354  39.794  13.718   1.733
43961W        W12355  44.893  38.279   0.853
43962W        W12356  17.677  10.634   1.721
43963W        W12357  22.235  38.102   0.894
43964W        W12358  11.816   6.733  14.024
43965W        W12359  33.913  21.905   1.073
43966W        W12360  27.558  11.869   4.305
43967W        W12361  12.654  26.559   3.382
43968W        W12362  14.091  19.423   2.660
43969W        W12363  36.391  33.325   0.917
43970W        W12364   1.292  42.291   0.439
43971W        W12365   1.657  13.755   2.402
43972W        W12366  21.026  42.833   2.125
43973W        W12367  28.705  29.544   2.541
43974W        W12368  39.804   8.408   0.812
43975W        W12369  36.810  30.503   0.860
43976W        W12370  30.174  14.049  12.069
43977W        W12371  32.692  35.623  14.360
43978W        W12372  32.541  31.218  10.646
43979W        W12373   6.895  27.595  11.543
43980W        W12374  26.186  40.952  12.846
43981W        W12375  38.415  19.159   1.129
43982W        W12376  10.167   6.748   1.261
43983W        W12377   2.274  20.075  10.639
43984W        W12378  31.623  12.668  13.858
43985W        W12379  31.119  41.498   0.810
43986W        W12380  40.125  35.162   3.156
43987W        W12381   5.740  37.999  10.611
43988W        W12382  31.723  28.622  12.846
43989W        W12383   7.650  35.584   4.965
43990W        W12384  38.812  24.447  13.521
43991W        W12385  35.180  18.245  10.294
43992W        W12386  29.963  19.416  12.992
43993W        W12387  13.225  26.200   1.495
43994W        W12388   9.053   1.700  13.408
43995W        W12389  16.388  35.022   2.280
43996W        W12390  37.066   3.866   3.710
43997W        W12391   1.688   0.803  10.763
43998W        W12392  18.285  37.905   3.576
43999W        W12393   7.106  28.867   2.688
44000W        W12394  20.494  18.142  10.667
44001W        W12395  43.792  44.561  14.899
44002W        W12396  17.183  36.949   9.789
44003W        W12397  42.398  42.283  13.475
44004W        W12398   6.766  10.904  11.318
44005W        W12399  39.048   5.642  11.075
44006W        W12400  14.779  34.834  13.136
44007W        W12401  44.557  16.652   1.745
44008W        W12402  18.741  14.983  10.480
44009W        W12403  20.518  35.804   4.165
44010W        W12404  10.126  32.155   4.131
44011W        W12405  23.826  31.024   3.758
44012W        W12406  34.895  19.137   1.896
44013W        W12407  29.663  35.501   1.881
44014W        W12408   4.000   2.936   3.668
44015W        W12409  34.528  33.675  12.780
44016W        W12410  35.804   3.922  10.646
44017W        W12411   6.832   8.552  11.468
44018W        W12412  22.661  12.581  14.845
44019W        W12413  16.822  34.004  13.373
44020W        W12414   5.259  25.098   0.001
44021W        W12415  37.343   1.370   0.236
44022W        W12416  22.018  31.197  13.467
44023W        W12417  12.650   1.113   0.303
44024W        W12418   3.667  12.226  11.135
44025W        W12419  27.947  33.216   3.195
44026W        W12420   7.729  24.021  11.583
44027W        W12421   3.700  34.867   4.609
44028W        W12422  39.376  37.062   4.906
44029W        W12423  15.331   4.142   5.210
44030W        W12424  14.749  15.638   0.957
44031W        W12425   3.811  23.011  13.144
44032W        W12426  21.999  30.184   4.257
44033W        W12427   6.552  12.392  12.899
44034W        W12428  38.093  19.742   0.849
44035W        W12429   2.912  33.118   4.891
44036W        W12430  25.716  16.764   3.662
44037W        W12431  37.161  27.716  13.844
44038W        W12432  31.481  13.586   4.072
44039W        W12433  16.989   3.940  11.115
44040W        W12434  44.823  26.746   4.052
44041W        W12435  31.910  39.706  12.974
44042W        W12436  10.888  10.027   0.430
44043W        W12437  27.718  31.465  13.445
44044W        W12438  17.194  31.523  11.855
44045W        W12439  21.511  22.030   4.965
44046W        W12440  31.182  37.949  11.059
44047W        W12441   1.709  10.848   1.233
44048W        W12442  26.659  30.370   2.752
44049W        W12443  17.184  16.332   4.146
44050W        W12444  27.978   7.767   4.887
44051W        W12445  29.795  21.963  13.853
44052W        W12446  38.209   0.257   2.925
44053W        W12447  33.806  17.550  13.483
44054W        W12448  30.387   7.183  10.700
44055W        W12449  24.224  11.417   3.725
44056W        W12450  31.401  28.457  12.461
44057W        W12451   6.426  35.969  12.492
44058W        W12452  27.829  37.109  12.049
44059W        W12453  42.707  12.603  12.340
44060W        W12454  28.178   1.904   2.171
44061W        W12455  13.353  32.474  12.071
44062W        W12456  11.436  36.055   2.367
44063W        W12457  11.787  10.798  12.985
44064W        W12458  26.993  15.030   3.138
44065W        W12459   6.714  28.803  11.086
44066W        W12460  22.767  34.331  11.450
44067W        W12461   9.120  37.866  12.022
44068W        W12462  16.060  30.452   2.873
44069W        W12463   5.437  40.015   3.320
44070W        W12464  18.281  24.755  11.149
44071W        W12465  32.122  17.061  10.594
44072W        W12466  35.530  14.610  14.738
44073W        W12467  10.198  33.373  14.484
44074W        W12468  23.657  26.408   1.376
44075W        W12469  39.864   8.387  12.036
44076W        W12470  21.025  32.705  11.432
44077W        W12471  25.059  37.029  12.517
44078W        W12472  35.035   0.557   2.729
44079W        W12473  15.529  37.787  13.823
44080W        W12474  37.885  25.219   2.178
44081W        W12475  25.453   8.900  12.511
44082W        W12476   7.583  35.286   1.781
44083W        W12477   6.751  12.169   3.754
44084W        W12478  18.192  31.876  10.191
44085W        W12479  18.274   0.993  14.933
44086W        W12480  18.875  41.332   1.733
44087W        W12481  13.541   6.227  12.109
44088W        W12482   7.226  39.593  13.533
44089W        W12483  11.570  33.602   4.587
44090W        W12484  16.005  25.464  13.869
44091W        W12485  26.557  19.179  10.785
44092W        W12486  27.212  18.695   1.761
44093W        W12487  22.573   2.751   2.812
44094W        W12488  25.640  25.996  10.779
44095W        W12489  19.100  38.501  11.888
44096W        W12490  21.190   7.864  13.028
44097W        W12491   4.025   6.296  14.425
44098W        W12492  29.447   4.850  10.356
44099W        W12493  32.830  42.940   5.197
44100W        W12494   7.354  39.873   3.347
44101W        W12495  44.066  28.077  10.298
44102W        W12496  23.081  16.066  14.941
44103W        W12497  37.452  23.195  11.784
44104W        W12498   3.199  26.048  12.287
44105W        W12499  31.467  33.122   0.776
44106W        W12500   9.687  15.906   1.271
44107W        W12501  30.614  33.889   3.264
44108W        W12502  28.660  34.397   3.723
44109W        W12503  19.153   9.782   2.715
44110W        W12504  25.918  40.286   4.329
44111W        W12505  29.940  14.016  11.198
44112W        W12506  30.185  43.893   1.554
44113W        W12507  19.833  25.279  13.970
44114W        W12508   5.370   6.237  14.109
44115W        W12509  20.531  33.040   1.217
44116W        W12510   3.825  21.870  11.595
44117W        W12511  32.607  40.460  12.448
44118W        W12512  37.018   1.045   1.335
44119W        W12513  37.082  43.288  13.867
44120W        W12514   6.695  15.359  11.446
44121W        W12515  33.337   8.158   4.132
44122W        W12516  39.399  24.406   3.477
44123W        W12517  26.920  24.575  10.757
44124W        W12518   4.312  27.186   0.697
44125W        W12519  31.193  12.882  11.100
44126W        W12520  33.033  34.270  10.660
44127W        W12521  43.598  32.007  10.593
44128W        W12522  24.288  38.851   4.094
44129W        W12523  28.027  30.464  11.420
44130W        W12524  22.441  18.197   0.120
44131W        W12525  16.339   2.049  11.014
44132W        W12526   7.924  12.855  12.923
44133W        W12527   4.714   9.839   1.637
44134W        W12528  26.268  18.084  10.778
44135W        W12529  30.002  18.542   3.789
44136W        W12530  28.726   8.910   5.186
44137W        W12531  20.141  15.514  12.960
44138W        W12532  31.058   2.314  13.062
44139W        W12533   8.698  10.578   1.877
44140W        W12534  33.360  28.148  13.458
44141W        W12535  29.688  13.280  10.617
44142W        W12536   1.473  19.034  11.174
44143W        W12537  20.608  12.780   4.560
44144W        W12538  26.921   3.369  11.595
44145W        W12539  26.286  39.364   4.340
44146W        W12540   9.943  43.699   2.098
44147W        W12541  43.378  25.960   0.223
44148W        W12542   6.619  30.429   4.106
44149W        W12543  35.023  37.989   1.928
44150W        W12544  15.567  22.728  13.977
44151W        W12545   2.324  25.971  14.280
44152W        W12546   2.375  17.279  10.989
44153W        W12547  26.643   4.332  14.463
44154W        W12548  13.662  44.178  10.586
44155W        W12549  27.378   5.780   1.623
44156W        W12550   3.212  28.790   2.290
44157W        W12551  41.123  22.955   1.246
44158W        W12552  38.489  41.797  13.475
44159W        W12553   7.401  29.563  12.435
44160W        W12554  24.628  42.506  10.720
44161W        W12555   8.381  23.061  14.780
44162W        W12556  43.873  33.052   0.190
44163W        W12557  28.129  24.394  12.170
44164W        W12558  41.077   1.051  12.107
44165W        W12559  17.511  11.490  14.881
44166W        W12560  38.545  15.867  12.035
44167W        W12561  10.201  19.105   0.188
44168W        W12562  33.373  17.646   0.847
44169W        W12563   4.319  23.513  11.972
44170W        W12564  26.536  39.031  13.713
44171W        W12565  35.940  22.127   4.658
44172W        W12566   8.582  31.620  11.815
44173W        W12567   9.302  34.937   4.191
44174W        W12568   0.436  36.114  10.243
44175W        W12569   4.304  19.614   0.754
44176W        W12570   0.970  35.397  13.873
44177W        W12571  29.556   5.705   0.532
44178W        W12572   4.191  42.380   1.644
44179W        W12573   0.932   6.245  14.176
44180W        W12574  33.806  20.934   0.680
44181W        W12575  22.895  12.647  10.668
44182W        W12576  34.677  10.890  14.378
44183W        W12577  43.071  43.961  12.142
44184W        W12578   8.928  42.345   1.661
44185W        W12579  28.805  31.315   1.707
44186W        W12580  41.047  15.287   2.108
44187W        W12581  17.110  16.210  12.842
44188W        W12582  14.396  33.465  13.326
44189W        W12583  33.229  38.992   2.282
44190W        W12584  33.411   3.711  14.934
44191W        W12585  16.066   0.475  11.121
44192W        W12586   9.524  37.870  11.183
44193W        W12587  29.405  23.871   3.143
44194W        W12588  13.838  31.333   2.131
44195W        W12589  14.308  20.975   2.689
44196W        W12590  37.336  26.760  12.601
44197W        W12591  33.050  30.010   2.850
44198W        W12592  15.822  19.122   0.521
44199W        W12593   1.010  42.999  11.243
44200W        W12594  27.690  32.539  14.476
44201W        W12595  37.251  29.955   1.310
44202W        W12596   8.668  10.753   4.624
44203W        W12597  21.845   5.660  13.330
44204W        W12598  43.403   5.820  11.654
44205W        W12599  41.036   9.794  12.458
44206W        W12600  37.120  19.569   0.820
44207W        W12601  28.899  36.910  11.203
44208W        W12602  24.773  11.337   3.865
44209W        W12603  34.551  42.555   3.321
44210W        W12604  33.345  43.068   1.998
44211W        W12605  14.034  31.705   3.605
44212W        W12606  16.234  21.036   2.405
44213W        W12607   1.890   8.245   4.270
44214W        W12608  33.068   2.357   4.630
44215W        W12609  38.006  23.268  12.931
44216W        W12610   8.828  28.504   3.229
44217W        W12611  31.923  23.795   2.747
44218W        W12612  28.475  39.445   0.685
44219W        W12613   8.407   3.769   3.158
44220W        W12614  15.841  19.423  11.999
44221W        W12615  39.771  26.305  14.497
44222W        W12616  40.931   4.481  12.683
44223W        W12617  19.998   6.285  10.602
44224W        W12618  24.181  16.348   0.513
44225W        W12619   6.537  26.676  14.711
44226W        W12620  13.774  20.980  11.155
44227W        W12621  19.273  18.637   2.885
44228W        W12622  12.179  35.925  11.547
44229W        W12623  39.516  26.559   1.429
44230W        W12624   7.030  12.856  11.448
44231W        W12625   8.316  36.451  13.317
44232W        W12626  32.243  16.833   2.376
44233W        W12627  34.895  17.628  13.456
44234W        W12628  36.361  11.273   0.716
44235W        W12629  14.155  42.698   3.187
44236W        W12630   7.443  43.046  12.721
44237W        W12631  21.232  26.538   4.135
44238W        W12632  11.577  21.562  12.372
44239W        W12633  17.569   8.823   5.032
44240W        W12634  34.058  10.587  12.924
44241W        W12635  14.318  21.367   2.305
44242W        W12636  37.288  41.868   2.468
44243W        W12637  37.309  21.702  11.078
44244W        W12638  25.889  12.613   3.239
44245W        W12639  26.937   3.257   0.980
44246W        W12640  25.244  12.376  11.826
44247W        W12641  34.404  11.092  14.786
44248W        W12642  19.032  30.335  12.428
44249W        W12643  19.659  21.287  12.127
44250W        W12644   8.255   6.885   4.392
44251W        W12645  22.096   9.927   2.178
44252W        W12646  11.646  21.477  13.799
44253W        W12647   5.642  12.994   1.136
44254W        W12648  17.564  20.549   2.748
44255W        W12649   7.434  18.538   0.293
44256W        W12650  12.819  26.214   2.626
44257W        W12651   5.471  35.418  11.941
44258W        W12652  15.398   4.127   1.257
44259W        W12653   8.115  36.800   3.161
44260W        W12654  44.286  18.118   2.201
44261W        W12655  37.518  27.822  13.444
44262W        W12656  11.613  29.955  13.344
44263W        W12657  22.660  30.133  10.645
44264W        W12658   0.867  29.472  14.905
44265W        W12659  30.203  25.180   1.378
44266W        W12660  15.666  34.498  13.819
44267W        W12661  11.481  22.202   4.002
44268W        W12662  26.672   3.706   4.047
44269W        W12663  19.267  33.902   0.113
44270W        W12664   4.477  42.959   9.975
44271W        W12665  12.743  23.523   0.985
44272W        W12666   3.284  29.292  12.882
44273W        W12667  17.201   7.720   4.905
44274W        W12668  26.503  14.782   3.931
44275W        W12669  25.571  23.512   4.171
44276W        W12670   6.771  24.218   2.038
44277W        W12671  40.473  13.731  11.683
44278W        W12672   3.021   5.722  11.488
44279W        W12673  18.358  44.688  13.461
44280W        W12674  11.428  28.215   0.344
44281W        W12675  36.052  26.982   2.030
44282W        W12676  32.084  44.786  14.278
44283W        W12677  10.335  16.998   2.899
44284W        W12678  25.736  26.993  13.419
44285W        W12679  39.544  32.445  12.164
44286W        W12680  18.271  37.703  10.471
44287W        W12681   7.215  32.612   1.383
44288W        W12682  39.049  14.119   0.824
44289W        W12683  20.077  39.134  10.506
44290W        W12684  21.224  17.269  13.043
44291W        W12685   4.436  27.488  13.418
44292W        W12686  19.614  43.312   1.897
44293W        W12687  10.772  25.188  12.385
44294W        W12688  11.989  16.126   2.197
44295W        W12689   0.329   9.215   2.686
44296W        W12690  16.551  15.745  11.474
44297W        W12691  21.067  25.686  13.075
44298W        W12692  37.054  22.485   0.469
44299W        W12693  34.039  22.211  12.186
44300W        W12694  11.901  28.546  13.513
44301W        W12695  32.641  28.600  11.559
44302W        W12696  22.129   7.205  12.417
44303W        W12697  18.799  19.172   4.152
44304W        W12698  33.464   7.432   1.027
44305W        W12699  12.350  41.909   2.974
44306W        W12700  14.578  24.960   1.403
44307W        W12701  21.667  29.003  10.117
44308W        W12702  43.359  23.702   4.995
44309W        W12703  16.797  19.186  11.191
44310W        W12704  31.728  25.171   1.133
44311W        W12705  14.400   9.050  11.131
44312W        W12706  39.805   8.839  10.718
44313W        W12707  26.449   9.812   1.296
44314W        W12708  14.476  19.087  11.857
44315W        W12709  24.709  28.413   1.595
44316W        W12710  37.816  12.276  12.621
44317W        W12711  42.970   5.002  12.469
44318W        W12712   1.529  39.381   2.648
44319W        W12713  34.434  18.436   4.046
44320W        W12714   7.852  18.604  10.928
44321W        W12715  25.279  27.260  11.163
44322W        W12716  44.637   6.831  11.161
44323W        W12717  39.949  39.336   1.750
44324W        W12718  32.414  37.652   1.562
44325W        W12719  38.713  35.516   1.012
44326W        W12720  24.344  24.979  14.537
44327W        W12721  37.863  13.274  13.144
44328W        W12722  15.647   3.910  10.481
44329W        W12723  13.915  33.220   4.368
44330W        W12724  11.607  40.586   1.305
44331W        W12725   7.065   7.284  12.466
44332W        W12726  39.295   7.276  14.005
44333W        W12727  43.114  38.733  11.582
44334W        W12728  20.999  28.087  11.204
44335W        W12729  35.591  32.230   1.416
44336W        W12730  30.903  38.999  10.218
44337W        W12731  12.213   5.395   0.868
44338W        W12732   5.297  22.892   0.849
44339W        W12733  33.837  19.978  12.420
44340W        W12734  35.019  41.542   1.658
44341W        W12735  37.068  27.121  11.568
44342W        W12736  40.995  26.287  12.139
44343W        W12737  39.980  20.190   3.703
44344W        W12738  42.768   4.616   0.421
44345W        W12739  23.962  35.498   2.642
44346W        W12740  13.288  23.543  13.278
44347W        W12741  31.432  21.147   2.451
44348W        W12742  41.772   0.184  12.829
44349W        W12743  18.598  30.675  10.683
44350W        W12744   8.646   9.232  13.346
44351W        W12745   7.123   0.778   1.702
44352W        W12746  33.080  26.997   1.882
44353W        W12747  34.516  13.694   0.782
44354W        W12748  11.378   9.990  13.705
44355W        W12749  38.317  35.579   1.841
44356W        W12750  11.792   8.343  11.639
44357W        W12751  38.826  20.719   2.240
44358W        W12752  32.658   1.230   0.028
44359W        W12753  17.945   9.204   2.220
44360W        W12754  44.067  44.523  13.298
44361W        W12755  15.599   7.786   2.344
44362W        W12756   6.881  32.031   0.979
44363W        W12757  10.512  25.537  11.162
44364W        W12758   2.817  42.313  11.636
44365W        W12759   0.457  21.009  13.518
44366W        W12760  24.243  27.129  12.289
44367W        W12761  40.553  26.707  14.471
44368W        W12762  17.149   9.834  10.632
44369W        W12763  21.668  37.554   1.235
44370W        W12764  31.091  36.776   2.569
44371W        W12765   1.996  11.388   4.633
44372W        W12766   3.294  23.082   4.069
44373W        W12767  35.580  12.602  14.722
44374W        W12768  40.379  13.285  13.551
44375W        W12769  35.473  43.269   0.395
44376W        W12770  20.251  21.800  12.463
44377W        W12771  33.921  22.804  11.853
44378W        W12772   7.753  12.427   0.609
44379W        W12773  30.394  21.451   3.608
44380W        W12774   9.385  19.743   4.987
44381W        W12775  38.346   1.095  11.993
44382W        W12776  13.427  22.468   3.678
44383W        W12777   2.437  41.842  12.750
44384W        W12778  17.223  26.721   1.252
44385W        W12779  27.491   6.597  10.574
44386W        W12780  37.137   0.689   3.625
44387W        W12781  41.388  43.001  12.986
44388W        W12782   5.065  41.066   3.059
44389W        W12783  24.224  27.211  14.678
44390W        W12784  44.730  19.112  13.449
44391W        W12785  29.855   3.044  13.826
44392W        W12786  16.004   4.842  11.155
44393W        W12787  23.657  44.336  12.530
44394W        W12788  24.114   8.899   2.621
44395W        W12789   9.732  37.308  14.526
44396W        W12790  44.818  35.030   0.406
44397W        W12791  25.444   1.943   3.338
44398W        W12792  15.253  17.132  10.739
44399W        W12793  13.106  35.988  11.272
44400W        W12794  21.730  12.321   2.344
44401W        W12795  33.539   8.788   3.219
44402W        W12796   1.307   5.727   4.475
44403W        W12797  40.676  27.721  14.953
44404W        W12798  40.316  35.844   2.307
44405W        W12799  27.639  33.580  13.146
44406W        W12800  34.079  28.966   0.058
44407W        W12801   2.301  28.203   2.240
44408W        W12802  25.178  44.714   2.536
44409W        W12803   5.189  30.360   4.628
44410W        W12804  12.834  39.297  11.890
44411W        W12805  41.543  42.015  11.503
44412W        W12806   6.444  16.237   2.736
44413W        W12807  23.703  35.558   3.074
44414W        W12808   1.294  32.633   1.743
44415W        W12809   1.328   5.386  13.362
44416W        W12810   8.248  31.523   0.315
44417W        W12811   4.229   6.347  14.963
44418W        W12812  24.129   7.936   0.778
44419W        W12813   2.098  22.909  11.162
44420W        W12814  33.584  15.869  12.750
44421W        W12815  11.300  29.107   0.555
44422W        W12816   9.241   6.223   4.580
44423W        W12817  11.668  16.299   0.911
44424W        W12818  24.083  25.074   4.648
44425W        W12819  25.664   7.231   2.172
44426W        W12820   5.280  24.807   3.608
44427W        W12821  18.742  35.656  14.230
44428W        W12822  19.095  30.631  10.557
44429W        W12823  18.528  42.937   4.109
44430W        W12824  40.369  28.031  13.833
44431W        W12825  19.207  28.193   5.186
44432W        W12826  44.779  13.178   4.842
44433W        W12827   3.586  24.643  12.110
44434W        W12828  42.784  19.111   4.499
44435W        W12829   6.483  34.742   1.306
44436W        W12830  33.744  17.357   3.978
44437W        W12831   6.077  35.519  13.905
44438W        W12832   6.387  25.520   0.929
44439W        W12833  24.168   3.552  14.939
44440W        W12834  28.120  15.081   3.704
44441W        W12835  40.530  22.694   2.807
44442W        W12836  12.560  30.672  12.035
44443W        W12837  11.379  31.082  13.450
44444W        W12838  24.295  38.623  11.482
44445W        W12839  41.406  35.452   0.895
44446W        W12840  26.605   7.790  11.735
44447W        W12841  33.916  18.562  11.542
44448W        W12842  21.000  20.815  12.481
44449W        W12843  25.535  39.133  11.152
44450W        W12844   2.036  34.466   2.769
44451W        W12845  26.523  22.223   3.682
44452W        W12846  15.479   3.806  10.964
44453W        W12847   5.966  26.764   0.900
44454W        W12848  13.262   8.679   4.901
44455W        W12849  24.104  27.393   4.180
44456W        W12850  14.165  27.286  12.534
44457W        W12851   1.667   7.661  13.121
44458W        W12852  13.508  30.459  12.016
44459W        W12853   4.685  40.118  11.533
44460W        W12854   8.080   5.898   2.744
44461W        W12855  27.905  29.615   0.300
44462W        W12856  18.090   2.901   1.238
44463W        W12857  39.863  30.079  11.196
44464W        W12858  43.233  35.078  12.923
44465W        W12859   0.846  37.322  10.592
44466W        W12860  26.380  26.866  12.506
44467W        W12861  43.347   8.695   0.789
44468W        W12862   7.005  26.465  13.739
44469W        W12863   1.144  33.611   0.596
44470W        W12864  15.115  15.120   2.437
44471W        W12865  21.183  41.782  10.716
44472W        W12866  16.454  44.813   3.816
44473W        W12867  19.865  35.796  12.294
44474W        W12868  12.832  11.934  13.165
44475W        W12869   2.189   4.158   3.361
44476W        W12870  24.522  43.189   0.798
44477W        W12871  19.505  11.220  14.164
44478W        W12872  38.777   5.202   3.332
44479W        W12873  33.031  25.724  11.127
44480W        W12874  26.101  43.079  13.833
44481W        W12875  29.384  19.506   0.674
44482W        W12876   3.873  32.040   1.911
44483W        W12877   5.957  34.193   0.342
44484W        W12878  13.193  44.670   3.433
44485W        W12879  14.685  22.045   3.194
44486W        W12880  15.657   6.644   0.751
44487W        W12881  13.319   8.464   4.279
44488W        W12882   6.816   6.363   0.780
44489W        W12883  35.336  27.239  11.006
44490W        W12884  38.512  23.650  13.395
44491W        W12885  23.864  34.838   0.939
44492W        W12886  27.459   5.135  14.888
44493W        W12887   6.985   4.883  13.371
44494W        W12888  24.704  38.106   0.388
44495W        W12889  27.708  25.141   3.595
44496W        W12890  10.685  19.215   4.036
44497W        W12891  36.500  27.974  13.382
44498W        W12892  25.221  11.868  14.543
44499W        W12893  37.987  18.378  10.723
44500W        W12894  35.234  29.088   3.333
44501W        W12895   2.019  22.049   0.217
44502W        W12896  40.544  43.517  12.042
44503W        W12897   4.457  39.972  14.365
44504W        W12898  32.018   8.134   0.858
44505W        W12899  29.111  19.156   0.366
44506W        W12900  19.004  25.666   0.672
44507W        W12901   9.548   5.395  14.737
44508W        W12902  22.665  39.909  11.197
44509W        W12903  13.274  25.526   2.591
44510W        W12904  18.271  15.330   1.191
44511W        W12905  27.135  26.698  10.630
44512W        W12906  23.492  20.524  12.820
44513W        W12907  31.455  26.437   2.270
44514W        W12908  23.684  33.214   0.471
44515W        W12909  19.636  18.121   0.192
44516W        W12910  39.241  28.826   4.652
44517W        W12911   9.035  41.903   1.897
44518W        W12912   4.336  19.965  10.817
44519W        W12913  12.172  11.954   1.699
44520W        W12914  37.152   7.665   2.390
44521W        W12915  15.756  18.149  13.479
44522W        W12916  16.061  15.405  14.523
44523W        W12917   2.202  29.208  11.528
44524W        W12918   6.847  20.585   4.525
44525W        W12919   5.500  25.289  13.800
44526W        W12920  19.877   5.757   4.124
44527W        W12921   1.894  31.077  13.440
44528W        W12922  40.192  18.723   1.132
44529W        W12923  40.251  34.869  14.172
44530W        W12924  30.486   8.789   0.251
44531W        W12925  17.099  41.226  11.503
44532W        W12926  24.098  25.255  12.489
44533W        W12927  37.909   8.591   0.329
44534W        W12928  27.475  21.782  10.437
44535W        W12929  13.994  32.613  14.375
44536W        W12930  41.399   2.223  14.885
44537W        W12931  16.804  18.795  11.524
44538W        W12932  15.267   4.636   2.123
44539W        W12933  21.663   7.671   2.870
44540W        W12934  31.171  33.817  13.518
44541W        W12935  29.954  23.728  11.597
44542W        W12936  19.539   5.306  10.751
44543W        W12937  26.741  28.539   0.843
44544W        W12938  33.469  29.066   2.290
44545W        W12939   9.316  25.075   2.838
44546W        W12940   6.682  36.572  10.742
44547W        W12941  37.532   9.230  13.879
44548W        W12942  36.774  39.424  12.319
44549W        W12943  37.384  44.530   3.373
44550W        W12944   4.773   0.862   5.463
44551W        W12945   5.914  31.849  11.152
44552W        W12946  19.362  16.343   3.235
44553W        W12947  34.515  33.377  12.361
44554W        W12948  37.269  14.812   0.012
44555W        W12949  41.721  27.950  11.970
44556W        W12950  35.967  19.038   3.461
44557W        W12951  26.092  23.120   0.736
44558W        W12952  21.731   0.258  11.105
44559W        W12953  43.290  28.537   3.039
44560W        W12954   9.749   1.858  12.647
44561W        W12955  10.934   0.142   1.346
44562W        W12956  13.599  15.799   0.287
44563W        W12957  37.039  34.527   1.686
44564W        W12958   1.423   9.897   0.785
44565W        W12959   9.706  29.554   2.726
44566W        W12960  21.968  26.732   3.690
44567W        W12961  25.431   3.312   2.082
44568W        W12962  21.101  39.555   4.866
44569W        W12963  27.769  18.315  14.430
44570W        W12964   4.934  15.170  12.964
44571W        W12965  42.217  21.637  12.122
44572W        W12966  33.661  16.660  13.326
44573W        W12967  26.140  42.125   1.688
44574W        W12968   7.841   2.717  10.971
44575W        W12969   7.872   4.337  13.382
44576W        W12970  42.083   6.466   4.386
44577W        W12971  33.645  32.158   1.305
44578W        W12972  10.589   3.615   1.434
44579W        W12973   0.773  26.227  10.003
44580W        W12974   8.401  30.982  13.028
44581W        W12975   4.532   5.719   3.712
44582W        W12976  18.811  12.855   0.712
44583W        W12977  38.040  38.340   3.697
44584W        W12978  11.819  33.477   2.153
44585W        W12979   2.699  39.721  11.642
44586W        W12980  12.515  32.916  11.522
44587W        W12981  11.285   6.951  12.021
44588W        W12982  44.317  12.176   1.384
44589W        W12983  33.098  10.799  14.716
44590W        W12984  42.350  12.840  10.440
44591W        W12985  33.062   5.422   1.486
44592W        W12986   5.053   6.895   3.351
44593W        W12987  29.588  34.932   3.762
44594W        W12988  35.692  17.281   0.958
44595W        W12989  10.403  32.960   2.332
44596W        W12990  39.015  20.710   0.881
44597W        W12991   6.730   5.420  12.065
44598W        W12992  22.208  16.182   0.774
44599W        W12993  11.347  42.020   0.297
44600W        W12994   9.107  16.371  13.886
44601W        W12995  20.743  24.448   0.853
44602W        W12996  30.815   4.766   0.848
44603W        W12997  13.670  13.102   1.628
44604W        W12998  16.188   4.673   3.846
44605W        W12999   1.787  26.519   2.883
44606W        W13000   3.511  30.948   2.271
44607W        W13001  18.487   6.005   4.659
44608W        W13002  26.074  30.151   2.267
44609W        W13003   4.333  21.316   1.569
44610W        W13004   6.484  25.094   0.562
44611W        W13005   1.953   1.292   3.373
44612W        W13006  13.216  23.049  13.054
44613W        W13007  11.271  20.075  11.072
44614W        W13008  39.393  22.601   0.659
44615W        W13009  14.619  13.542  13.402
44616W        W13010  41.385   1.369   4.026
44617W        W13011   2.628  28.165  13.454
44618W        W13012  44.052   6.897   4.347
44619W        W13013   2.380  30.407  12.560
44620W        W13014  27.377  14.894  12.461
44621W        W13015  37.817  33.688   4.229
44622W        W13016  21.446  31.020  10.605
44623W        W13017  36.822  13.861   2.300
44624W        W13018   1.809  12.172  13.922
44625W        W13019  38.681  13.781   4.179
44626W        W13020  31.099  15.983  11.586
44627W        W13021  33.455   0.577  13.532
44628W        W13022  24.859  21.921   1.731
44629W        W13023   4.831  40.856  12.790
44630W        W13024  33.704  30.100   2.238
44631W        W13025   8.663  37.799  13.856
44632W        W13026  21.312  42.904  13.441
44633W        W13027  15.310  34.232  11.550
44634W        W13028   7.630  35.693   0.230
44635W        W13029  36.296  11.811  12.084
44636W        W13030   4.534   6.629  12.311
44637W        W13031  24.513  21.244   3.285
44638W        W13032  16.693  42.775  14.770
44639W        W13033  36.065   3.689   2.526
44640W        W13034  29.093   1.693  11.095
44641W        W13035  37.867  23.959  14.342
44642W        W13036  43.906  35.765   1.008
44643W        W13037  21.729   3.492  10.709
44644W        W13038   1.241  35.869  13.051
44645W        W13039  29.499  11.396  10.978
44646W        W13040  16.336  23.629   2.423
44647W        W13041  37.501  34.465  13.900
44648W        W13042  18.303   2.369  12.186
44649W        W13043  36.404  25.296  11.352
44650W        W13044  11.390  29.084   4.291
44651W        W13045  44.475  18.686  13.613
44652W        W13046   1.785  10.870   4.214
44653W        W13047  39.317  25.251   3.167
44654W        W13048  33.594  25.914  11.035
44655W        W13049  25.271  36.983   4.406
44656W        W13050  40.527  43.842   1.589
44657W        W13051   0.952  37.068   5.027
44658W        W13052  42.754  13.896   1.731
44659W        W13053  32.636  30.443  13.827
44660W        W13054   4.848  34.941  10.418
44661W        W13055  14.134  42.097  11.180
44662W        W13056  23.972  23.296  12.367
44663W        W13057  13.373  18.110   0.608
44664W        W13058  31.459  32.369  11.139
44665W        W13059  23.964  31.541   0.918
44666W        W13060  14.918  27.092   1.975
44667W        W13061   1.278  28.793   0.307
44668W        W13062  18.701   6.409   2.837
44669W        W13063  27.474  39.472  12.023
44670W        W13064  18.281  34.684  13.408
44671W        W13065  42.876  39.033   1.839
44672W        W13066  19.217   9.306  10.931
44673W        W13067  27.555  37.364   0.893
44674W        W13068  19.528  13.044   2.216
44675W        W13069  27.659  35.380   2.792
44676W        W13070  41.443   9.249   2.738
44677W        W13071   4.364   2.242  12.369
44678W        W13072  18.303  12.852   0.708
44679W        W13073  14.053  14.350   1.762
44680W        W13074  10.774   6.452  11.180
44681W        W13075   0.787  19.661   4.125
44682W        W13076  34.760  42.813  11.371
44683W        W13077  24.681  10.696   1.799
44684W        W13078  24.721  21.597   2.384
44685W        W13079  21.398  21.924   1.000
44686W        W13080  36.853  20.418  11.183
44687W        W13081  32.579  19.028  12.566
44688W        W13082  28.043  26.480  14.926
44689W        W13083   0.754  33.370   2.885
44690W        W13084  12.834  23.970   0.759
44691W        W13085  35.607  27.164   2.440
44692W        W13086   1.425   7.493   4.744
44693W        W13087  39.423   6.270   1.258
44694W        W13088  42.131  34.899  14.524
44695W        W13089  41.509   6.228  14.757
44696W        W13090  35.197  15.936   2.265
44697W        W13091  41.401  38.516  11.225
44698W        W13092  31.580  30.923  11.241
44699W        W13093  11.792  11.299   2.126
44700W        W13094   8.780  28.087   3.875
44701W        W13095  26.548  12.888   3.946
44702W        W13096  10.764  39.544  14.327
44703W        W13097  19.549   9.860   4.574
44704W        W13098  27.574  30.334  12.124
44705W        W13099  22.939  28.597   2.796
44706W        W13100  20.231  43.962  14.500
44707W        W13101  16.141  14.609  13.562
44708W        W13102   7.337   7.583   0.721
44709W        W13103  13.174  14.639  13.268
44710W        W13104  25.556  11.508   0.977
44711W        W13105  43.595  41.823   3.500
44712W        W13106  32.433  44.879   1.919
44713W        W13107  10.185  11.100  12.465
44714W        W13108  39.344   2.020   2.802
44715W        W13109  35.910   1.412  14.777
44716W        W13110  42.961  23.757  13.381
44717W        W13111  24.674  14.789   1.570
44718W        W13112  40.957  26.182   0.953
44719W        W13113  33.104  41.470   0.362
44720W        W13114  21.934  30.458   1.883
44721W        W13115   0.666  17.359   1.838
44722W        W13116  37.819   9.218   1.528
44723W        W13117  41.784  37.393   1.702
44724W        W13118  23.109   7.439   3.652
44725W        W13119  38.635   1.780   3.681
44726W        W13120  28.991   0.967   3.680
44727W        W13121   6.279  27.678  13.101
44728W        W13122  32.914  21.647  11.950
44729W        W13123  12.598   7.061   0.499
44730W        W13124  36.810  16.878   4.451
44731W        W13125  13.154  19.148  12.908
44732W        W13126  40.031  16.153   2.948
44733W        W13127  33.541  16.273  10.979
44734W        W13128  15.024  22.368   4.911
44735W        W13129  14.321  40.567   2.815
44736W        W13130   7.743  15.181   0.769
44737W        W13131   4.326  30.626   3.639
44738W        W13132  17.647  41.295  11.408
44739W        W13133  12.157   3.697   1.365
44740W        W13134  26.696  13.909   3.809
44741W        W13135  24.240  18.783  13.643
44742W        W13136  19.714  35.924  11.006
44743W        W13137  42.533  40.507   3.725
44744W        W13138  43.555  27.177  13.513
44745W        W13139  27.195  29.010   1.621
44746W        W13140  42.797  17.075  10.959
44747W        W13141  43.516   4.161   0.274
44748W        W13142  30.156  29.450   2.143
44749W        W13143  31.974   8.221  13.432
44750W        W13144  42.309  22.565   1.177
44751W        W13145  34.951  43.890   4.628
44752W        W13146  17.580  25.598   3.711
44753W        W13147   2.199  29.116   0.764
44754W        W13148  12.470  36.540   4.804
44755W        W13149   1.120  42.116  11.091
44756W        W13150  34.530  11.944   1.056
44757W        W13151  40.327  33.995  14.716
44758W        W13152  16.226  43.731  11.252
44759W        W13153  20.233   1.001   3.310
44760W        W13154  10.227   4.669   4.549
44761W        W13155  36.863   6.609   3.267
44762W        W13156  35.568   5.406   4.738
44763W        W13157  41.439  21.991   1.440
44764W        W13158  23.049  14.518  14.439
44765W        W13159  21.677  26.126  10.589
44766W        W13160   6.946  14.896   4.195
44767W        W13161  10.615   9.683   2.881
44768W        W13162   6.594   8.920   4.150
44769W        W13163   0.912   3.165  13.237
44770W        W13164   5.270  24.304   4.465
44771W        W13165  13.540  38.039   1.839
44772W        W13166  13.879  10.763  12.605
44773W        W13167  21.269  20.651  12.903
44774W        W13168  31.842  23.847   0.024
44775W        W13169  34.963   4.853  12.090
44776W        W13170  15.444  10.120   4.940
44777W        W13171   9.746   5.822  12.567
44778W        W13172  36.460  20.702   2.155
44779W        W13173  36.043  28.203  12.125
44780W        W13174  40.280   6.025   1.922
44781W        W13175   3.297  10.243   1.740
44782W        W13176  13.944  25.676   3.332
44783W        W13177   0.891   7.661   0.428
44784W        W13178  30.978  11.384  11.558
44785W        W13179  42.406   5.260   0.740
44786W        W13180  29.178  25.574   0.447
44787W        W13181  39.129  24.756  12.607
44788W        W13182  42.816  25.945   3.836
44789W        W13183  32.821   4.160   1.356
44790W        W13184  23.133  21.719  12.079
44791W        W13185  28.311  30.420   9.878
44792W        W13186  21.583  21.583   4.666
44793W        W13187  44.723  28.734   0.832
44794W        W13188  17.797   8.859  14.508
44795W        W13189   3.863  32.403   0.924
44796W        W13190   3.286  10.074  12.607
44797W        W13191  24.482  33.501  12.363
44798W        W13192   5.684  32.853  13.426
44799W        W13193   2.283  25.647   3.384
44800W        W13194  31.574  12.649  14.759
44801W        W13195  12.641  12.509   3.440
44802W        W13196  42.426  41.464  11.890
44803W        W13197  28.016   9.536   0.532
44804W        W13198   2.298  30.461   1.718
44805W        W13199  30.708   2.553  11.336
44806W        W13200   5.749  43.319   1.862
44807W        W13201  14.036   9.885  11.841
44808W        W13202  30.331  22.764  13.848
44809W        W13203  39.395  27.088   1.421
44810W        W13204  15.204  15.244   3.865
44811W        W13205  23.695  40.746  10.862
44812W        W13206  29.929   3.226   4.232
44813W        W13207  44.149  36.995   2.678
44814W        W13208  24.143  28.394   4.183
44815W        W13209   3.917  36.052  14.043
44816W        W13210  30.805  10.644   1.378
44817W        W13211   9.067  38.317  14.686
44818W        W13212  11.630  19.275  11.280
44819W        W13213   2.478   1.076   0.066
44820W        W13214   9.019  42.964  14.706
44821W        W13215   0.906  30.388  10.651
44822W        W13216  42.224  13.086  12.932
44823W        W13217  28.990  43.407   2.577
44824W        W13218  34.774  41.869   3.691
44825W        W13219  44.539   9.647   0.832
44826W        W13220  28.914  16.757  12.868
44827W        W13221  38.357  41.453   2.071
44828W        W13222  10.764  33.061  13.059
44829W        W13223  42.798  38.049  14.486
44830W        W13224   4.426  27.439   4.884
44831W        W13225  11.361  11.468   0.673
44832W        W13226  10.205  26.278   4.448
44833W        W13227  17.992  14.233  14.830
44834W        W13228   1.216  31.207  14.316
44835W        W13229  24.829   0.718   3.743
44836W        W13230  43.771   6.880   0.355
44837W        W13231   2.965  30.465  10.639
44838W        W13232  15.757  36.550  13.435
44839W        W13233   3.188  12.130   4.997
44840W        W13234  35.775  16.586   3.752
44841W        W13235  13.225  22.393  10.214
44842W        W13236  23.587  14.708  13.746
44843W        W13237   3.971  44.431   0.872
44844W        W13238  15.518  23.222   0.953
44845W        W13239  29.019  40.951  12.960
44846W        W13240   6.241  41.957   1.155
44847W        W13241  37.340   1.915   3.267
44848W        W13242   0.781   9.332  12.030
44849W        W13243   7.144   4.942  11.908
44850W        W13244   8.741   0.950   0.156
44851W        W13245  20.538  15.271  13.704
44852W        W13246   7.939  17.346  11.977
44853W        W13247  43.278  22.792  14.365
44854W        W13248  21.577  33.824   1.763
44855W        W13249   2.016  19.251  10.816
44856W        W13250  10.167  44.990  11.596
44857W        W13251  17.691  33.124  10.944
44858W        W13252  39.808  20.559  10.793
44859W        W13253  13.140  39.322  12.480
44860W        W13254  23.666  43.327  10.295
44861W        W13255  41.654  35.171   0.469
44862W        W13256  31.123  21.115  10.706
44863W        W13257  23.927  23.591   0.865
44864W        W13258  41.822  21.494  13.033
44865W        W13259  23.185   4.439  11.654
44866W        W13260  24.243  42.999  11.125
44867W        W13261   9.528  26.700   1.645
44868W        W13262   1.300  39.666   4.748
44869W        W13263   7.336   6.457  10.259
44870W        W13264  23.288  12.032  11.878
44871W        W13265  41.894  14.124  14.218
44872W        W13266  29.210  32.071  14.913
44873W        W13267  25.793  16.843   1.730
44874W        W13268   9.432  21.262   2.112
44875W        W13269  28.088  32.475  11.484
44876W        W13270  20.075  25.569   1.103
44877W        W13271   7.239  23.954  14.752
44878W        W13272  15.365   4.523   0.380
44879W        W13273  32.223  27.057   3.172
44880W        W13274   0.332  39.394  13.110
44881W        W13275  13.304  34.687  11.655
44882W        W13276  18.792  31.616   1.955
44883W        W13277  20.940  14.773   4.669
44884W        W13278  20.713   7.686   0.017
44885W        W13279  34.092  37.082   4.487
44886W        W13280  29.851  17.202  14.113
44887W        W13281  34.995  37.987   4.715
44888W        W13282  28.053  31.006  11.265
44889W        W13283  10.874  32.503   2.559
44890W        W13284   4.168  21.679  10.940
44891W        W13285  28.623  15.843  14.348
44892W        W13286  37.813  11.342  11.391
44893W        W13287  20.521   2.839   3.601
44894W        W13288   1.202  17.565   1.660
44895W        W13289  31.645   8.674   3.606
44896W        W13290  23.759  27.396   0.506
44897W        W13291  33.489   5.483  11.988
44898W        W13292  12.130  25.542   4.193
44899W        W13293  39.459   4.939   4.175
44900W        W13294  12.349  29.116   1.348
44901W        W13295  33.447  27.970  11.944
44902W        W13296  42.510  42.542   4.166
44903W        W13297  34.146  31.373   1.159
44904W        W13298  12.852   2.450   4.800
44905W        W13299  19.858  19.075  14.531
44906W        W13300  23.044  13.774  12.461
44907W        W13301  30.601  27.678  13.951
44908W        W13302   4.280  14.426   5.074
44909W        W13303  38.121  17.197  13.441
44910W        W13304  10.604  18.195   1.236
44911W        W13305  39.322  22.959  14.576
44912W        W13306  25.456  22.096   3.259
44913W        W13307  10.382   0.547   2.252
44914W        W13308   2.930  18.180  12.879
44915W        W13309   5.617  26.067   3.258
44916W        W13310  14.233  26.186   4.796
44917W        W13311   1.843  36.647   3.555
44918W        W13312  24.774  27.439   0.515
44919W        W13313  14.237   4.208  12.610
44920W        W13314   3.469  16.553   3.686
44921W        W13315  36.012  23.018   2.372
44922W        W13316  44.734  43.522  14.735
44923W        W13317  38.432  23.928  13.812
44924W        W13318   7.708   1.146  13.431
44925W        W13319  30.579  12.224   3.633
44926W        W13320  33.397  16.792   0.396
44927W        W13321   4.189  38.066  12.516
44928W        W13322   0.380  12.509   0.322
44929W        W13323  22.776  15.084   0.197
44930W        W13324  12.741   5.703  10.798
44931W        W13325  20.543  17.507  11.180
44932W        W13326  43.795  36.005  12.547
44933W        W13327  10.631   5.717   0.025
44934W        W13328  20.012  17.675   4.554
44935W        W13329  42.843  30.423  10.108
44936W        W13330  14.131  41.808  12.662
44937W        W13331  44.870  20.176   4.536
44938W        W13332  34.064  11.361   4.298
44939W        W13333  35.213  12.260  14.542
44940W        W13334  33.599  13.332   2.221
44941W        W13335  34.417  34.636   4.210
44942W        W13336  24.474  20.064   4.589
44943W        W13337  44.314  16.368   2.520
44944W        W13338  16.213  11.866   4.651
44945W        W13339  12.594  16.653  14.370
44946W        W13340   7.104  26.847   1.811
44947W        W13341  13.864  25.212   1.777
44948W        W13342  23.484  12.307  14.335
44949W        W13343   1.499  30.237  14.599
44950W        W13344   4.718  15.407   0.869
44951W        W13345   0.893  29.597  13.484
44952W        W13346  18.141   2.432   0.963
44953W        W13347  26.781  29.261  10.493
44954W        W13348  33.408  43.427  10.454
44955W        W13349   3.586  16.308  14.787
44956W        W13350  36.616  15.235  11.507
44957W        W13351  19.487  35.011  14.953
44958W        W13352  25.793   3.932  12.907
44959W        W13353  42.419  25.541  13.142
44960W        W13354   5.662  38.768  12.582
44961W        W13355  29.005  25.989  11.656
44962W        W13356  29.596  42.320  12.878
44963W        W13357  28.495  36.125  12.478
44964W        W13358  14.265  23.987   0.750
44965W        W13359   2.360  37.003   4.600
44966W        W13360   1.920  23.266   2.386
44967W        W13361  18.785  34.902   0.849
44968W        W13362   8.231  43.217   1.191
44969W        W13363  12.488   6.142  14.448
44970W        W13364  27.670  29.843   1.818
44971W        W13365  32.627  14.095   1.202
44972W        W13366  19.628  25.036  14.410
44973W        W13367  13.226  39.331  13.826
44974W        W13368  35.547  20.254   2.420
44975W        W13369  27.595  17.339  11.278
44976W        W13370  32.042   7.161  12.468
44977W        W13371   0.077  35.835   3.641
44978W        W13372   8.093   5.049  14.803
44979W        W13373  44.032  43.247   1.012
44980W        W13374  26.504  12.169  10.457
44981W        W13375  22.315   4.837  13.127
44982W        W13376  30.009  23.225  14.358
44983W        W13377  26.440   4.316  12.469
44984W        W13378  23.677   2.969  11.450
44985W        W13379  26.622   6.430   2.527
44986W        W13380  14.158  22.305   1.067
44987W        W13381  38.419  17.348   0.841
44988W        W13382  10.659   8.771  10.883
44989W        W13383   6.056   7.443  11.333
44990W        W13384  28.355  20.395  12.059
44991W        W13385  26.195  37.456  10.709
44992W        W13386  24.391  30.236  12.109
44993W        W13387  29.493  33.487  11.201
44994W        W13388  17.564  10.284  14.717
44995W        W13389  12.852   8.307   4.132
44996W        W13390  35.116  30.464  14.849
44997W        W13391  19.973  42.726  11.564
44998W        W13392  26.267  22.722   3.654
44999W        W13393  11.229  23.979   3.811
45000W        W13394  11.766  16.760   4.073
45001W        W13395  12.819  12.735   4.490
45002W        W13396  44.863   6.196  13.544
45003W        W13397  25.574  22.654  13.936
45004W        W13398   3.875  26.584  11.436
45005W        W13399   1.010   1.845  13.057
45006W        W13400  18.158  22.289   3.534
45007W        W13401  15.325  35.914   2.857
45008W        W13402  12.690   3.493   2.135
45009W        W13403  24.684  40.504  10.788
45010W        W13404  26.912  20.220   2.857
45011W        W13405  16.274  26.087   3.762
45012W        W13406  36.958   2.429  11.894
45013W        W13407  21.765  31.950   3.594
45014W        W13408  12.652   4.858   2.294
45015W        W13409  33.927  22.443  11.482
45016W        W13410  44.357   5.815  11.475
45017W        W13411  10.414   5.151  11.519
45018W        W13412  41.749  17.324   0.960
45019W        W13413  40.713  26.002   2.203
45020W        W13414  31.434  27.369   2.367
45021W        W13415  16.605  24.812   1.756
45022W        W13416  35.354  11.633   1.727
45023W        W13417  20.740   3.905   4.120
45024W        W13418  44.040  28.696   2.127
45025W        W13419  38.149   2.344  12.704
45026W        W13420  29.156  19.465  11.664
45027W        W13421  24.136  10.581  11.724
45028W        W13422  21.327  43.750  10.228
45029W        W13423  42.142  12.303   3.626
45030W        W13424   3.769  27.889  14.821
45031W        W13425   7.975  26.086  11.816
45032W        W13426  25.794  34.730   4.738
45033W        W13427  27.961  21.384  14.508
45034W        W13428   1.954  24.030  10.778
45035W        W13429  40.068  11.819   3.663
45036W        W13430  36.098  34.979   0.472
45037W        W13431  38.531   3.914   3.310
45038W        W13432  26.674  14.780  11.469
45039W        W13433  21.182   1.321  12.046
45040W        W13434   2.519  24.078  13.071
45041W        W13435  29.080   3.714   4.694
45042W        W13436  25.041   1.970   1.749
45043W        W13437  20.232  38.592  13.770
45044W        W13438   6.666   8.927  12.843
45045W        W13439   9.589  33.159  11.615
45046W        W13440  11.913  34.932  13.110
45047W        W13441  23.496  24.665   1.296
45048W        W13442  39.095  21.703   1.360
45049W        W13443  22.784  37.254   9.838
45050W        W13444  16.578  14.256   4.507
45051W        W13445  33.130   6.162   2.330
45052W        W13446  33.871   2.516   4.752
45053W        W13447  20.611   4.463   2.851
45054W        W13448  25.573  22.999   4.138
45055W        W13449  39.612   9.803  11.649
45056W        W13450  10.822  41.306   2.361
45057W        W13451  44.778  35.299  10.208
45058W        W13452  11.611  34.650   2.017
45059W        W13453  32.332  44.993   4.487
45060W        W13454   0.267  25.579   1.175
45061W        W13455  21.767  21.059   1.425
45062W        W13456  31.104  29.586  14.443
45063W        W13457   1.135  44.363  12.542
45064W        W13458  21.095   4.500  14.990
45065W        W13459  38.255  33.959  13.924
45066W        W13460  36.865  22.805  11.963
45067W        W13461  20.130  17.167  11.969
45068W        W13462  30.512   0.783   1.989
45069W        W13463   0.297  44.316   1.903
45070W        W13464  13.978  13.443  12.310
45071W        W13465  37.808  44.914   4.623
45072W        W13466  11.109  16.229   1.796
45073W        W13467   1.792  28.231  13.123
45074W        W13468  24.525   5.392   2.386
45075W        W13469  40.921  10.151   4.107
45076W        W13470   9.230   6.159   0.996
45077W        W13471  32.123   9.087   0.727
45078W        W13472  18.261  33.334   1.194
45079W        W13473  17.536  36.098  14.931
45080W        W13474  27.699  18.688   3.458
45081W        W13475  14.285  10.511  11.013
45082W        W13476  18.482  40.432  13.004
45083W        W13477  29.919  43.476  14.971
45084W        W13478   6.599  39.513  12.320
45085W        W13479  20.925  42.347   3.836
45086W        W13480  44.970  18.126  12.895
45087W        W13481   8.853  19.583   0.402
45088W        W13482  42.836  36.613   0.885
45089W        W13483   1.156  21.180   2.774
45090W        W13484  25.557  38.625  10.263
45091W        W13485   9.898  19.094   0.774
45092W        W13486  18.648  28.185   2.291
45093W        W13487   2.897  36.081  14.398
45094W        W13488  37.651  27.120  10.725
45095W        W13489  42.339  13.807  10.695
45096W        W13490  19.083  30.530  14.203
45097W        W13491  11.810  42.396  11.116
45098W        W13492  32.477  24.462   3.204
45099W        W13493  23.720  19.565  14.910
45100W        W13494  33.114  13.450  12.447
45101W        W13495  17.625  22.731  11.144
45102W        W13496  37.037  41.898  13.112
45103W        W13497  42.258  38.974  10.385
45104W        W13498  44.521  37.882   1.161
45105W        W13499  36.965  28.593   3.675
45106W        W13500  24.653   9.211   4.494
45107W        W13501  29.069   4.222   0.828
45108W        W13502  39.023  37.694  12.429
45109W        W13503  38.067  40.638  13.969
45110W        W13504  11.593  16.734   3.192
45111W        W13505  43.290  17.035  11.526
45112W        W13506  43.431  18.057   1.814
45113W        W13507  37.746  34.018  13.994
45114W        W13508   7.870  29.082   1.356
45115W        W13509  41.156   8.641  14.861
45116W        W13510  24.502  22.288   4.066
45117W        W13511   8.180  28.967  12.615
45118W        W13512  22.394  36.019  13.446
45119W        W13513  35.098   9.693   2.155
45120W        W13514  26.261   1.565   3.604
45121W        W13515  21.641  10.436   3.729
45122W        W13516  44.674   6.028   3.706
45123W        W13517   6.015   5.248   3.226
45124W        W13518  22.307  25.154   2.307
45125W        W13519  10.814  19.837  13.599
45126W        W13520  26.899   8.171   0.895
45127W        W13521  40.132  12.271  14.063
45128W        W13522  42.220   4.226  12.442
45129W        W13523  13.361  39.501  13.352
45130W        W13524  19.049  36.315  12.985
45131W        W13525  28.206  40.294  13.975
45132W        W13526   3.407  44.967   0.441
45133W        W13527   1.701   3.871  12.160
45134W        W13528   3.386  42.002   3.875
45135W        W13529  13.764  29.229  13.980
45136W        W13530   7.792  33.887  14.280
45137W        W13531  27.021  28.129  11.268
45138W        W13532  33.864  37.379   4.046
45139W        W13533  30.992  22.084   0.151
45140W        W13534  12.107   0.428   2.258
45141W        W13535  31.896  32.082   3.603
45142W        W13536  30.174  40.561   0.201
45143W        W13537  38.840  39.555  14.933
45144W        W13538  10.951  27.112  13.865
45145W        W13539  40.503  37.943   0.523
45146W        W13540  29.383  23.492  14.851
45147W        W13541  42.469  10.859   3.720
45148W        W13542  30.211  28.708  13.031
45149W        W13543  20.491  30.736   2.249
45150W        W13544  21.948  34.879  13.620
45151W        W13545  33.669  41.778   2.322
45152W        W13546   5.183  39.569   3.240
45153W        W13547  28.132  26.010  13.132
45154W        W13548   5.913  34.651  11.592
45155W        W13549  34.192   3.015  12.890
45156W        W13550  10.320   0.293   1.203
45157W        W13551  35.863  43.549  13.414
45158W        W13552  44.439  19.705  10.712
45159W        W13553  28.519  44.543   3.753
45160W        W13554  42.616  31.657  13.789
45161W        W13555  13.333  25.426  13.685
45162W        W13556  22.664  15.845   0.358
45163W        W13557  25.413  12.027  12.141
45164W        W13558  36.680   7.344   3.280
45165W        W13559   5.793  27.534  12.365
45166W        W13560  13.812  23.728   2.390
45167W        W13561  39.596  18.855  11.138
45168W        W13562  14.030  29.165  14.463
45169W        W13563   5.337  27.151  10.234
45170W        W13564  15.866  29.556  12.452
45171W        W13565  29.440   8.640   0.571
45172W        W13566  22.267  41.353   3.221
45173W        W13567  39.351   4.763   4.659
45174W        W13568  32.865  32.338  11.607
45175W        W13569  30.862  13.643   4.851
45176W        W13570  37.903  18.087  10.122
45177W        W13571  13.773  43.295  10.835
45178W        W13572  12.407  26.051   2.366
45179W        W13573  41.744  21.009   1.899
45180W        W13574  35.654   2.863  12.516
45181W        W13575  15.030   2.976   2.236
45182W        W13576   2.279   7.050   0.893
45183W        W13577  42.282  29.385   0.543
45184W        W13578  37.438  36.969  13.466
45185W        W13579  41.956  26.046   4.032
45186W        W13580  20.169   2.272   0.210
45187W        W13581  15.760   9.664  10.555
45188W        W13582  28.865  41.912   4.241
45189W        W13583   2.431   1.285  11.573
45190W        W13584  12.941  24.092   2.750
45191W        W13585  39.923   8.296  14.444
45192W        W13586  22.785  29.633   3.254
45193W        W13587  43.705   4.355  14.843
45194W        W13588   6.396  30.479   1.147
45195W        W13589  42.038   4.165   1.449
45196W        W13590  36.116   0.253  12.948
45197W        W13591   0.725  27.453  12.528
45198W        W13592  19.151  33.973   2.238
45199W        W13593   3.760  27.615  10.344
45200W        W13594   4.909  23.596   3.927
45201W        W13595   6.695  12.516   2.342
45202W        W13596  25.275  29.558   4.360
45203W        W13597  31.992  23.920   3.747
45204W        W13598  26.667  37.399   3.699
45205W        W13599  36.352  27.378  14.522
45206W        W13600  25.184   3.772   4.456
45207W        W13601  18.751  36.601  12.680
45208W        W13602  22.570  23.355   4.719
45209W        W13603  26.073  24.602   0.465
45210W        W13604  34.982  22.092  11.763
45211W        W13605   4.138   7.340   1.225
45212W        W13606  22.321  21.269  13.087
45213W        W13607  38.570  32.011   0.504
45214W        W13608  43.819  26.068   4.927
45215W        W13609   1.867  12.262   0.393
45216W        W13610  16.592  22.782   1.840
45217W        W13611  29.168  33.055   1.885
45218W        W13612  35.651  34.573  12.168
45219W        W13613  24.921  28.588  11.166
45220W        W13614  15.755  10.184  10.650
45221W        W13615  32.165  22.483   0.606
45222W        W13616  31.506  40.776   3.673
45223W        W13617  28.542  34.101  12.612
45224W        W13618   8.881  13.539   3.709
45225W        W13619  37.599  43.180  14.729
45226W        W13620   5.818  14.884   3.692
45227W        W13621  28.092  36.049  12.143
45228W        W13622  13.126  13.648  13.496
45229W        W13623  34.340  31.464   4.889
45230W        W13624  22.468  18.294  13.449
45231W        W13625   9.281  35.868  12.073
45232W        W13626  16.516  22.559  10.687
45233W        W13627   0.237   5.825  13.566
45234W        W13628  40.838  35.736  11.622
45235W        W13629  19.112  43.487   1.899
45236W        W13630   4.561  43.010  14.283
45237W        W13631  42.671  34.331  10.583
45238W        W13632  44.423  35.327   2.348
45239W        W13633   2.207  12.728   4.564
45240W        W13634  35.308  10.712  10.772
45241W        W13635  24.458   9.690  13.342
45242W        W13636  36.227  30.021   1.430
45243W        W13637   3.859   2.707   1.352
45244W        W13638  29.148  13.739  11.397
45245W        W13639  25.646  43.198  14.986
45246W        W13640  40.843   9.585  12.041
45247W        W13641  24.330  10.318  14.465
45248W        W13642  18.662  27.337  14.223
45249W        W13643  26.710   1.337   0.259
45250W        W13644  28.134   0.696  11.533
45251W        W13645  20.935  16.566   0.916
45252W        W13646  38.347  27.101  12.871
45253W        W13647  44.339   9.473   4.134
45254W        W13648   2.198  38.832   1.248
45255W        W13649  34.778  28.660  11.285
45256W        W13650  39.255   3.323   2.710
45257W        W13651  22.691  15.647  10.662
45258W        W13652  32.475  32.683  14.560
45259W        W13653  21.587  33.795  10.692
45260W        W13654  31.107  40.010  14.535
45261W        W13655  37.033  22.506   2.784
45262W        W13656   6.989  13.791  10.130
45263W        W13657  29.844  28.304  12.535
45264W        W13658  17.069  41.850  10.413
45265W        W13659  28.141  25.672  12.745
45266W        W13660  32.027  42.877   2.445
45267W        W13661   2.885  28.319   1.472
45268W        W13662  21.993  14.760  12.985
45269W        W13663  35.116  42.031  11.081
45270W        W13664   8.951  21.981   1.545
45271W        W13665  27.506  11.965   1.317
45272W        W13666  32.553   9.696  14.252
45273W        W13667  22.058  16.837  13.230
45274W        W13668  10.686  21.634  13.524
45275W        W13669  21.459   8.307   3.172
45276W        W13670  22.032  22.268  12.089
45277W        W13671  27.726  41.376   0.810
45278W        W13672  37.324  24.972   3.343
45279W        W13673  43.623   5.875  14.422
45280W        W13674  44.971  10.540   3.700
45281W        W13675  37.498   9.293   4.514
45282W        W13676  34.887  39.745   1.317
45283W        W13677  21.107  11.263  12.148
45284W        W13678  12.224  10.432  14.875
45285W        W13679  11.815   9.853   2.451
45286W        W13680  35.844   1.932   1.159
45287W        W13681  32.884  40.154  10.779
45288W        W13682  36.979  10.768  13.002
45289W        W13683   1.804  35.691   3.208
45290W        W13684  21.195  32.052   1.583
45291W        W13685  14.527  16.081  11.161
45292W        W13686  23.688  40.267  14.991
45293W        W13687  44.288  26.188  11.802
45294W        W13688  25.074   4.465   2.337
45295W        W13689  43.933   0.433  12.561
45296W        W13690  34.958  37.558   0.047
45297W        W13691  20.570  12.166   0.463
45298W        W13692  16.563  30.630   1.874
45299W        W13693  43.039  15.495   0.694
45300W        W13694  33.257  22.967   5.170
45301W        W13695  13.623  15.126   2.262
45302W        W13696  35.434  16.907   1.970
45303W        W13697   4.937  15.173  12.076
45304W        W13698  11.937   0.743  12.426
45305W        W13699   4.352  43.362   4.535
45306W        W13700   1.032  13.224   2.709
45307W        W13701  19.460  20.165  11.245
45308W        W13702  35.653  43.343   3.124
45309W        W13703  25.947  42.313   4.121
45310W        W13704  20.523  17.344   0.855
45311W        W13705  42.320   7.993  11.946
45312W        W13706  28.339  19.629   2.842
45313W        W13707   5.382  26.006   1.913
45314W        W13708  24.097   0.441   3.359
45315W        W13709  11.100  19.268   1.782
45316W        W13710  26.285  16.711   1.458
45317W        W13711  16.122  35.180  11.019
45318W        W13712  25.298  13.734  12.624
45319W        W13713  43.084  44.357   4.233
45320W        W13714   5.617  37.450  14.800
45321W        W13715  40.483  12.299   2.825
45322W        W13716  10.659  37.544  14.302
45323W        W13717   1.797  21.337   2.272
45324W        W13718  15.706  22.764  11.148
45325W        W13719   8.402  29.848   4.072
45326W        W13720  25.971  34.014   0.770
45327W        W13721  34.697  24.590   4.548
45328W        W13722  19.341  24.757  11.184
45329W        W13723  22.656   1.420  11.040
45330W        W13724   5.837  43.361  14.816
45331W        W13725   0.715  29.620  11.298
45332W        W13726   5.358   1.532   4.347
45333W        W13727  41.759  15.064   1.853
45334W        W13728  40.933  16.586  14.888
45335W        W13729   4.004  12.202   4.620
45336W        W13730   6.070  22.514   1.280
45337W        W13731  43.830  27.238   3.346
45338W        W13732  30.588  28.931   4.095
45339W        W13733  12.199   6.943   4.192
45340W        W13734  30.669  13.360  13.931
45341W        W13735   3.697  34.916  14.463
45342W        W13736  10.000   5.550   1.712
45343W        W13737  22.387  38.201   4.192
45344W        W13738   8.524   0.398  14.346
45345W        W13739  25.129  41.386   4.539
45346W        W13740  17.765  24.930  14.976
45347W        W13741  26.559   9.748   3.408
45348W        W13742  15.367  36.071   0.071
45349W        W13743   7.081  13.410  11.533
45350W        W13744  18.720  42.264  12.824
45351W        W13745  30.363  16.544  12.571
45352W        W13746  19.704  25.398   2.872
45353W        W13747  43.851   2.976  13.134
45354W        W13748  10.333   7.874  11.884
45355W        W13749   5.902  32.824   1.871
45356W        W13750  14.712  14.917  10.722
45357W        W13751  10.441   0.607   0.226
45358W        W13752  32.041  23.454   4.776
45359W        W13753  11.860  14.811  14.822
45360W        W13754  43.710  26.752  11.129
45361W        W13755  10.180  35.800   3.679
45362W        W13756   9.263  35.074   1.271
45363W        W13757  23.250  43.217   1.688
45364W        W13758   9.819  10.573  11.812
45365W        W13759  30.971  27.447   4.203
45366W        W13760   9.715  37.406  11.277
45367W        W13761  22.153  14.888  11.950
45368W        W13762  44.727  42.812   2.770
45369W        W13763  23.141  36.651  11.734
45370W        W13764  30.798  38.811  11.695
45371W        W13765  16.590   9.669   4.174
45372W        W13766  32.843  33.873  11.748
45373W        W13767  24.754  12.733   4.512
45374W        W13768  12.712  16.574   0.713
45375W        W13769  22.807  19.471  11.929
45376W        W13770   9.352  16.550  11.041
45377W        W13771   2.487  32.998   4.199
45378W        W13772  30.600  30.903   4.640
45379W        W13773  19.745  16.875   2.824
45380W        W13774  36.047  21.642   2.947
45381W        W13775  31.548   7.976  10.829
45382W        W13776  15.833   1.474  11.335
45383W        W13777  14.825  44.004  13.304
45384W        W13778  35.659  34.158   3.285
45385W        W13779  26.644  41.163   4.430
45386W        W13780  40.325  43.331  13.456
45387W        W13781  26.689  42.633  14.429
45388W        W13782  17.035  26.201  13.534
45389W        W13783   7.196  34.828  14.784
45390W        W13784  18.773  34.592  12.916
45391W        W13785  22.664  32.975  10.149
45392W        W13786  34.590  33.483   2.898
45393W        W13787   7.130  11.840   1.799
45394W        W13788  25.751  42.355   2.824
45395W        W13789   5.326  42.502   4.152
45396W        W13790  17.755  28.086  11.458
45397W        W13791  14.786  33.986   1.379
45398W        W13792  31.622  42.431  10.751
45399W        W13793  35.825  17.763   3.118
45400W        W13794   5.733  36.835   2.014
45401W        W13795  37.201  41.567   4.698
45402W        W13796  34.283  17.665  14.850
45403W        W13797  24.113   9.775   0.808
45404W        W13798  22.035  33.790  14.969
45405W        W13799  14.783  43.383  11.574
45406W        W13800  35.607  22.189   4.077
45407W        W13801  37.610   2.839   1.345
45408W        W13802  12.265  27.660  13.880
45409W        W13803  24.976  17.134  14.179
45410W        W13804  40.346  15.579   4.173
45411W        W13805  28.033  42.918  10.704
45412W        W13806   4.755  30.909  11.179
45413W        W13807   7.506  31.913   1.625
45414W        W13808   1.185   3.971  12.834
45415W        W13809   9.429   2.508  13.306
45416W        W13810  31.111   7.241   2.286
45417W        W13811  25.733  19.562   0.933
45418W        W13812  40.386   1.479  14.375
45419W        W13813   8.807  10.315  13.544
45420W        W13814   9.449  22.209   1.483
45421W        W13815  21.075  36.357  13.905
45422W        W13816  22.154  23.779  13.564
45423W        W13817  24.073  30.909   0.267
45424W        W13818  28.412  21.310   4.151
45425W        W13819  12.247  44.812   0.389
45426W        W13820  18.606  19.564   1.860
45427W        W13821  12.144   1.831  14.752
45428W        W13822  28.570  41.140  10.802
45429W        W13823  40.097  18.598  14.381
45430W        W13824   5.157  20.095   1.638
45431W        W13825  38.133   9.191   0.138
45432W        W13826  34.436  16.817  11.886
45433W        W13827   5.999   1.527   1.215
45434W        W13828  35.008  13.685   4.022
45435W        W13829  19.001  24.990  10.783
45436W        W13830  12.582  30.733   1.992
45437W        W13831  44.433  14.283   1.272
45438W        W13832  42.973  33.065   1.423
45439W        W13833   4.270   5.858  13.640
45440W        W13834   1.361  23.046   0.762
45441W        W13835  29.884  28.664   0.851
45442W        W13836  15.833  22.971  13.070
45443W        W13837   4.507  10.481   1.292
45444W        W13838  35.991  33.186  11.673
45445W        W13839   8.192  32.923   2.719
45446W        W13840  36.637  44.462   2.844
45447W        W13841  23.657  31.718  13.958
45448W        W13842  16.578  15.209  13.042
45449W        W13843  24.574   6.152  14.497
45450W        W13844  39.456   1.154   4.055
45451W        W13845   7.863   6.536   1.370
45452W        W13846  30.189   2.278   1.689
45453W        W13847   6.198   3.168   0.399
45454W        W13848  31.918   4.202  11.370
45455W        W13849  29.924  24.185  12.211
45456W        W13850  40.745  16.758  11.605
45457W        W13851  15.379   4.242  13.905
45458W        W13852  33.353  19.793   1.144
45459W        W13853   0.209  20.112   0.704
45460W        W13854   7.234  41.757   4.940
45461W        W13855  19.345  25.150   3.659
45462W        W13856   0.891  28.675  11.883
45463W        W13857   2.873   7.007  13.189
45464W        W13858  16.884   2.582  13.366
45465W        W13859  44.978  20.706  12.415
45466W        W13860  32.434  20.014  14.602
45467W        W13861   1.769   5.690  13.447
45468W        W13862  27.299  20.772   0.919
45469W        W13863  26.437   2.359  10.768
45470W        W13864  15.662  27.010  11.511
45471W        W13865  11.376  44.318   0.678
45472W        W13866   3.668  39.867  14.977
45473W        W13867   4.226  19.083  13.439
45474W        W13868  20.046   7.336  12.611
45475W        W13869   3.396  15.411   4.493
45476W        W13870  17.709  34.585  11.203
45477W        W13871  33.681  28.166   2.314
45478W        W13872  41.816  39.980  12.370
45479W        W13873   0.433  28.481   4.682
45480W        W13874  20.306  31.100  11.644
45481W        W13875  42.364   1.000  13.745
45482W        W13876  14.379  11.428  14.494
45483W        W13877  30.000  35.158   0.351
45484W        W13878   5.803   0.923   2.028
45485W        W13879  27.887  43.336   1.716
45486W        W13880  40.541  29.486  13.136
45487W        W13881  33.716  34.096  13.723
45488W        W13882  28.662  11.128  12.981
45489W        W13883  33.106  44.460  12.070
45490W        W13884  14.297   1.749   0.057
45491W        W13885  21.160  11.371   1.926
45492W        W13886  36.977  23.132   2.190
45493W        W13887   6.220  42.888  13.907
45494W        W13888  31.886   9.696  12.721
45495W        W13889  14.549   9.912  11.768
45496W        W13890  33.070  34.301  11.612
45497W        W13891  25.539   8.426   2.055
45498W        W13892  32.175  35.920   1.408
45499W        W13893   3.445  32.368  12.997
45500W        W13894  40.746  19.317   4.696
45501W        W13895  39.816   0.773  13.149
45502W        W13896  43.274   1.355   2.338
45503W        W13897   9.877  20.655  10.986
45504W        W13898  13.203   7.346  10.950
45505W        W13899  43.018   5.051  13.920
45506W        W13900  25.575   2.742   1.462
45507W        W13901  25.676  27.606   2.738
45508W        W13902  28.879   9.032  14.001
45509W        W13903  37.834  21.946   1.796
45510W        W13904   8.753  19.863  12.528
45511W        W13905   4.816  24.917   9.676
45512W        W13906  40.379  25.881  14.809
45513W        W13907  26.088  27.141   2.417
45514W        W13908  22.936  38.297  13.393
45515W        W13909  16.285  35.600  10.718
45516W        W13910  18.712  31.141  11.296
45517W        W13911  16.180  20.403  12.162
45518W        W13912  24.211  42.823   9.831
45519W        W13913   3.802  27.610   4.068
45520W        W13914  16.634  20.697  11.000
45521W        W13915  30.627  30.906   3.669
45522W        W13916  20.088  42.292   3.697
45523W        W13917  27.235   6.889  14.004
45524W        W13918  34.677   2.457   3.777
45525W        W13919   2.377  39.121  13.017
45526W        W13920  21.722  19.987   0.419
45527W        W13921  25.436   4.906  14.478
45528W        W13922  27.935  38.867  10.673
45529W        W13923  14.812  19.388   3.671
45530W        W13924  30.458  44.113  11.232
45531W        W13925  11.735  10.664  13.994
45532W        W13926  11.195  38.417  13.038
45533W        W13927   1.756  38.709   4.619
45534W        W13928  13.202  19.244   2.167
45535W        W13929  33.211  44.340  10.745
45536W        W13930  36.785   7.737   2.029
45537W        W13931  36.602  20.738  14.828
45538W        W13932  19.037  13.770   3.133
45539W        W13933  38.780  20.719   1.401
45540W        W13934  18.983  13.784   2.624
45541W        W13935  25.712  43.366  12.547
45542W        W13936  10.640  29.644  11.245
45543W        W13937   1.565  29.540   2.172
45544W        W13938  43.522  29.890  11.641
45545W        W13939  30.699  40.352   0.290
45546W        W13940   3.756  39.004   1.843
45547W        W13941  19.215  14.269  12.200
45548W        W13942  44.259  26.742  11.184
45549W        W13943   0.856  19.902  13.030
45550W        W13944  14.715  36.025   1.304
45551W        W13945  27.483   3.242  13.850
45552W        W13946   3.798   8.379  10.604
45553W        W13947  11.848  43.041  10.171
45554W        W13948  41.857  43.891   2.454
45555W        W13949   0.054   4.672   0.048
45556W        W13950   1.780  14.346  12.476
45557W        W13951  31.002  30.783  11.659
45558W        W13952  15.050  39.969  10.365
45559W        W13953  28.929  19.693   0.467
45560W        W13954  22.051  40.832   3.806
45561W        W13955   2.034  11.149  11.135
45562W        W13956  24.545  41.705  12.192
45563W        W13957  32.980  10.770  10.709
45564W        W13958   1.984   4.846  12.044
45565W        W13959  16.034  36.889  10.998
45566W        W13960  44.023  39.768  14.830
45567W        W13961  28.674  10.074  14.517
45568W        W13962  32.807  44.872  11.990
45569W        W13963  11.093  42.864  11.865
45570W        W13964  36.547  25.947   3.115
45571W        W13965   4.490  12.652  11.327
45572W        W13966  18.711   2.217  12.475
45573W        W13967   1.950   1.816  10.994
45574W        W13968  42.403  36.321  14.357
45575W        W13969  38.956  13.607  11.094
45576W        W13970  36.174  42.517   3.451
45577W        W13971  10.206  20.494   3.210
45578W        W13972  23.537  35.836  12.633
45579W        W13973   4.094  31.033  10.340
45580W        W13974  42.461   2.714   2.944
45581W        W13975  19.297  44.402   3.766
45582W        W13976  14.975  30.613  10.878
45583W        W13977  43.290  35.172   3.670
45584W        W13978  23.541  31.492  10.722
45585W        W13979  12.711  10.173  13.836
45586W        W13980  29.611  34.401   2.730
45587W        W13981  34.845   6.097  10.816
45588W        W13982  14.019  33.803   3.718
45589W        W13983  16.612  14.441   0.028
45590W        W13984   7.928  40.836   4.077
45591W        W13985   4.766  38.378   1.223
45592W        W13986  40.583  34.529  11.726
45593W        W13987  11.239  38.703  13.918
45594W        W13988  34.605   7.216  12.975
45595W        W13989  29.632  31.538   2.855
45596W        W13990  32.638  29.954  11.696
45597W        W13991  32.899   0.712  12.843
45598W        W13992  12.258  24.159  14.924
45599W        W13993  27.577  12.186  14.445
45600W        W13994  13.151  26.359   3.393
45601W        W13995   5.897  25.974   3.699
45602W        W13996  16.176  26.617  12.056
45603W        W13997   8.907  25.161   3.123
45604W        W13998  24.713   1.406  13.813
45605W        W13999  36.525  13.568  14.256
45606W        W14000  32.852  28.204  13.403
45607W        W14001  42.874  15.149   4.973
45608W        W14002   6.923  13.833   3.612
45609W        W14003  38.983  27.474  10.493
45610W        W14004  38.129  12.384   0.280
45611W        W14005  30.588  22.548   4.613
45612W        W14006  22.668  35.967  14.194
45613W        W14007  38.443   1.046  11.141
45614W        W14008  38.438  10.667   4.141
45615W        W14009  20.559   2.934   1.219
45616W        W14010  17.574  39.396  13.845
45617W        W14011  29.987  23.557  10.642
45618W        W14012  40.383  21.845  14.864
45619W        W14013  13.517  33.990   3.716
45620W        W14014   0.120   8.988   3.099
45621W        W14015  30.638  14.335  14.845
45622W        W14016  27.944  19.253   2.850
45623W        W14017  38.238  36.375   3.241
45624W        W14018  44.412  40.406   3.228
45625W        W14019   2.825   3.349   3.347
45626W        W14020   2.220  36.229  11.588
45627W        W14021  39.507   9.295   1.264
45628W        W14022  37.285  18.996   1.211
45629W        W14023  30.919  18.083   4.466
45630W        W14024  33.955  19.237  14.037
45631W        W14025  15.224  34.626  11.927
45632W        W14026  34.183  22.252  13.014
45633W        W14027  22.617   5.920  10.770
45634W        W14028  16.873  13.559   2.438
45635W        W14029  13.431  30.119   0.205
45636W        W14030  13.401  20.667   2.655
45637W        W14031   1.268  39.033   3.158
45638W        W14032   5.395  11.267  12.982
45639W        W14033  28.713  43.980  11.893
45640W        W14034   7.245  35.920  13.824
45641W        W14035  38.529  43.719   1.306
45642W        W14036  42.889   7.739  13.931
45643W        W14037  29.694  17.691  10.578
45644W        W14038  36.630  44.654  13.038
45645W        W14039   6.685  14.187  10.245
45646W        W14040  40.525  30.883  13.113
45647W        W14041  22.284  33.362   0.109
45648W        W14042  23.525  44.432   2.157
45649W        W14043  19.201  26.018   0.138
45650W        W14044  19.212  34.922  14.515
45651W        W14045  28.957   1.328  12.176
45652W        W14046  17.414  41.485   2.604
45653W        W14047  12.340  39.352   2.735
45654W        W14048  43.321  27.133  14.364
45655W        W14049  15.722  34.721  13.037
45656W        W14050  39.262  25.532  12.099
45657W        W14051  15.384  20.488  12.568
45658W        W14052   0.374   0.374   4.845
45659W        W14053  14.079  39.241  10.613
45660W        W14054  11.912  18.095   0.412
45661W        W14055  14.739  25.104   0.489
45662W        W14056  15.507  28.621  11.029
45663W        W14057  40.876   1.373   4.205
45664W        W14058  17.078  12.745   3.066
45665W        W14059  30.131  13.107  14.527
45666W        W14060  17.212  30.532   3.341
45667W        W14061  30.851   0.910   2.756
45668W        W14062  27.490  18.754  11.604
45669W        W14063  20.973  18.618  11.489
45670W        W14064  23.793  13.151   3.543
45671W        W14065   9.681   7.695  12.536
45672W        W14066  20.615   8.677   0.226
45673W        W14067  26.074  41.252   1.619
45674W        W14068  26.660   1.656  14.091
45675W        W14069  10.697   3.472  13.008
45676W        W14070  42.385  10.594  14.793
45677W        W14071   6.677  11.175   2.163
45678W        W14072   2.242  26.296   2.776
45679W        W14073  34.335  30.925  14.948
45680W        W14074  23.683  19.240  12.421
45681W        W14075  18.800  21.293   4.140
45682W        W14076   7.758  43.421  14.960
45683W        W14077   6.150   5.128  13.606
45684W        W14078   6.724  26.547   0.243
45685W        W14079  28.258  14.121  14.386
45686W        W14080  36.752  39.273  11.045
45687W        W14081   5.450   1.791  10.464
45688W        W14082  39.940  20.680   4.200
45689W        W14083   1.154   5.726  12.024
45690W        W14084  36.595  31.903   2.198
45691W        W14085  39.175  18.459  11.479
45692W        W14086   4.910  23.516  13.836
45693W        W14087   1.717  36.019  12.192
45694W        W14088  43.300  12.857  10.741
45695W        W14089  31.102   9.600  11.139
45696W        W14090  13.303  35.450   2.320
45697W        W14091  28.670  16.307   1.291
45698W        W14092  19.632   6.341   2.965
45699W        W14093  23.042  18.070   3.144
45700W        W14094  16.988  10.174   1.001
45701W        W14095  18.721  12.842  11.169
45702W        W14096   3.719  13.586   0.686
45703W        W14097  32.635  21.664  12.424
45704W        W14098  32.618  43.731   0.563
45705W        W14099  20.317  24.567  10.965
45706W        W14100   8.004  11.868  12.117
45707W        W14101   4.823   1.703   2.794
45708W        W14102  19.824  15.654   0.700
45709W        W14103  29.570  35.530  14.880
45710W        W14104  29.596  25.533  12.832
45711W        W14105  18.016  27.444  11.412
45712W        W14106  19.490   9.745  12.080
45713W        W14107  36.193  28.055   2.800
45714W        W14108  22.458  26.860   4.507
45715W        W14109   0.857  32.900  13.977
45716W        W14110  11.224  36.571  11.861
45717W        W14111  11.593   6.423  11.646
45718W        W14112  29.707  14.270  13.780
45719W        W14113  38.752  42.815  14.770
45720W        W14114  35.500  14.829   1.763
45721W        W14115  23.031  23.198  11.793
45722W        W14116   5.857   2.557  11.044
45723W        W14117  42.425  24.326   4.506
45724W        W14118  31.931   5.201  12.952
45725W        W14119   1.927  22.418  13.847
45726W        W14120  15.133  20.980  13.949
45727W        W14121  32.028  22.089  10.418
45728W        W14122   0.434  19.564   2.785
45729W        W14123  41.458  26.958   0.830
45730W        W14124   4.202  28.937   1.316
45731W        W14125  19.786  33.043  12.380
45732W        W14126  39.452  29.669  12.283
45733W        W14127  18.402  24.978  13.487
45734W        W14128  41.937  14.180  10.688
45735W        W14129  33.000   7.881  10.622
45736W        W14130   9.866  19.503   1.712
45737W        W14131   5.735  34.626   0.205
45738W        W14132  20.998  27.060  12.529
45739W        W14133   2.334  31.823   2.201
45740W        W14134  20.609  10.096  12.177
45741W        W14135  14.964   5.074   3.697
45742W        W14136  34.067  43.154  14.486
45743W        W14137  17.959  31.828   4.125
45744W        W14138  43.292  13.215  11.120
45745W        W14139  15.215  12.214  13.995
45746W        W14140   1.030   2.401  12.552
45747W        W14141  42.568  44.973   0.188
45748W        W14142  11.594  23.349   2.295
45749W        W14143  44.383  33.171   0.289
45750W        W14144  39.058  19.985  13.446
45751W        W14145  10.689  44.252   4.879
45752W        W14146  27.234  21.491  14.964
45753W        W14147   7.673  29.194  14.860
45754W        W14148  12.646   0.022  11.537
45755W        W14149   3.776  33.657   0.450
45756W        W14150  35.455  12.057   2.410
45757W        W14151  23.880  28.065   3.195
45758W        W14152  12.093  41.135   2.348
45759W        W14153  35.677  29.179   3.542
45760W        W14154   0.848  39.270  13.874
45761W        W14155  12.546  37.933  11.477
45762W        W14156  36.887   6.414  10.596
45763W        W14157   0.877  31.950   2.714
45764W        W14158  44.522  24.686  12.793
45765W        W14159  33.902  23.493   0.256
45766W        W14160   6.528  16.927  13.354
45767W        W14161  14.112  10.286  12.622
45768W        W14162   5.783  28.516   4.582
45769W        W14163  28.046  20.039   2.419
45770W        W14164  35.045  26.538  10.009
45771W        W14165  31.619  14.354  12.920
45772W        W14166  15.528  41.885  13.427
45773W        W14167  40.372  10.182  14.855
45774W        W14168   8.932   6.792   2.177
45775W        W14169  38.490  24.739   1.487
45776W        W14170   3.373  29.819   4.940
45777W        W14171  35.897  33.389   1.554
45778W        W14172  40.282  20.275   2.878
45779W        W14173  21.278   9.198   4.096
45780W        W14174  18.210  27.055  14.071
45781W        W14175  42.582  39.194  10.739
45782W        W14176   2.082  34.898  12.424
45783W        W14177  39.804   0.818   4.655
45784W        W14178  44.263  31.475   2.295
45785W        W14179  25.141  41.459   3.657
45786W        W14180  16.863  37.817  11.577
45787W        W14181  16.314   8.973   3.635
45788W        W14182  28.236  32.960   3.572
45789W        W14183  33.653   6.622   0.894
45790W        W14184   9.599   0.923   4.170
45791W        W14185  22.474  43.087  12.078
45792W        W14186  40.381  44.493  13.691
45793W        W14187  33.386  30.042  10.442
45794W        W14188  16.267  18.103  11.993
45795W        W14189  24.234  13.654   1.261
45796W        W14190  20.115  20.581   4.810
45797W        W14191  37.735  37.957   0.066
45798W        W14192  44.493  12.378   0.271
45799W        W14193  11.620  12.228  12.531
45800W        W14194   7.454  26.046  10.667
45801W        W14195  29.626   8.141  10.656
45802W        W14196  43.834  15.020   0.754
45803W        W14197  10.224  23.219  12.347
45804W        W14198  27.283  36.067  11.463
45805W        W14199  22.396   3.528   2.381
45806W        W14200  33.598  16.706   4.881
45807W        W14201  24.285  19.735   1.399
45808W        W14202  19.735  43.495  10.710
45809W        W14203  27.730  31.501   4.214
45810W        W14204  14.663   9.840  11.232
45811W        W14205  13.162   0.002   4.357
45812W        W14206  29.463  43.296   4.600
45813W        W14207  37.593  38.045  10.713
45814W        W14208  34.769  37.157   2.274
45815W        W14209  11.174  10.913  11.187
45816W        W14210  43.497  40.476  11.620
45817W        W14211  24.659  41.687   0.646
45818W        W14212  34.398  13.143  11.467
45819W        W14213  32.422  15.708   0.001
45820W        W14214   8.914  26.448  13.917
45821W        W14215  27.158  31.959   4.525
45822W        W14216  29.931  22.444  11.632
45823W        W14217  25.578   6.909   0.254
45824W        W14218  43.279   3.387   1.815
45825W        W14219   1.940  31.863   0.654
45826W        W14220   6.407  12.815   0.493
45827W        W14221  34.962  28.264  12.199
45828W        W14222  32.609  15.591  12.617
45829W        W14223  24.733  25.260  13.754
45830W        W14224  17.644   9.652   3.949
45831W        W14225  22.140  26.582   2.109
45832W        W14226  38.835  10.198  10.100
45833W        W14227  30.818  36.512   0.252
45834W        W14228  36.029  22.759  14.054
45835W        W14229  23.279  13.329   2.333
45836W        W14230  25.059  42.451   4.635
45837W        W14231   4.727  21.093  11.603
45838W        W14232  31.822  15.757  12.270
45839W        W14233   9.777  14.561  12.243
45840W        W14234  36.860  24.001   3.790
45841W        W14235  44.353  11.073  13.110
45842W        W14236   7.718   6.286   0.492
45843W        W14237   7.251  37.140  12.474
45844W        W14238   1.448   2.262   4.695
45845W        W14239   7.154  39.437  11.114
45846W        W14240  16.168  40.641   4.580
45847W        W14241  42.494  10.675   0.778
45848W        W14242  42.726  30.152  11.220
45849W        W14243  42.469  28.149   2.302
45850W        W14244  12.288  41.932   2.473
45851W        W14245   7.590   0.816   1.908
45852W        W14246  31.408   1.988   2.261
45853W        W14247  13.279  36.980  10.444
45854W        W14248  12.923  29.049  10.636
45855W        W14249  22.497  20.024   1.770
45856W        W14250  24.426  35.435  10.735
45857W        W14251  34.330  16.736  14.728
45858W        W14252   8.684  20.285   0.704
45859W        W14253  39.994  13.981   5.049
45860W        W14254  31.579  38.886  11.913
45861W        W14255  35.054  43.940   3.603
45862W        W14256   8.010  31.443   0.937
45863W        W14257  26.134  13.122   4.172
45864W        W14258  17.769  30.441   0.862
45865W        W14259   0.372  30.392  12.939
45866W        W14260  13.096   3.401   1.813
45867W        W14261  20.067  37.385  11.936
45868W        W14262  42.362  14.634  14.827
45869W        W14263  18.245   1.508   4.629
45870W        W14264  21.887  24.562  14.265
45871W        W14265  13.909   5.039  10.699
45872W        W14266  34.019  43.444   4.059
45873W        W14267  42.191  24.770  12.809
45874W        W14268   7.743  12.385  11.980
45875W        W14269  32.640  29.034  14.351
45876W        W14270  32.064   1.108   0.777
45877W        W14271   9.280  40.323  12.164
45878W        W14272  39.748  36.381   1.734
45879W        W14273  13.132   5.942  10.039
45880W        W14274  26.665  34.196   0.313
45881W        W14275  40.960   7.060  13.467
45882W        W14276  14.599  33.514   1.456
45883W        W14277  34.543  31.920   4.616
45884W        W14278   0.889  44.896   3.311
45885W        W14279  33.385   7.653  11.906
45886W        W14280  14.679  16.596   0.976
45887W        W14281  44.437  14.410  14.223
45888W        W14282  13.328   5.003   0.513
45889W        W14283  23.641  11.828  14.439
45890W        W14284  17.541  28.201   5.031
45891W        W14285  38.368  11.761  12.996
45892W        W14286  40.771  37.374   3.272
45893W        W14287  26.064  17.913  14.821
45894W        W14288  31.530  29.069   3.326
45895W        W14289  16.961   4.841   2.250
45896W        W14290  41.471  34.649   2.519
45897W        W14291  37.634  39.062  11.547
45898W        W14292  32.045  16.279   4.195
45899W        W14293   4.260  23.470  14.343
45900W        W14294  12.378   4.488   4.230
45901W        W14295  44.281  39.792   2.257
45902W        W14296  25.004   0.816   0.286
45903W        W14297  15.261   6.071   4.565
45904W        W14298  33.837   9.179  12.447
45905W        W14299  25.320  10.440  14.230
45906W        W14300  24.807  22.731  11.635
45907W        W14301  42.716  27.008   2.846
45908W        W14302  39.783  31.530   0.385
45909W        W14303   1.945  33.767  11.202
45910W        W14304   2.642  22.569   1.272
45911W        W14305  24.125  30.858  12.065
45912W        W14306   2.605   3.963  10.637
45913W        W14307  18.827   3.647   1.951
45914W        W14308   4.944  24.998   0.807
45915W        W14309  11.660  39.776  11.098
45916W        W14310  41.053  28.184   1.937
45917W        W14311  34.650  33.839  13.482
45918W        W14312  39.941  26.875   0.693
45919W        W14313  33.220  41.886   1.403
45920W        W14314  31.562  11.779  13.657
45921W        W14315  25.409  17.627   4.538
45922W        W14316  18.972  15.447  12.966
45923W        W14317  21.934  35.508   3.139
45924W        W14318  26.449  28.579   4.535
45925W        W14319  15.857  43.486  10.512
45926W        W14320  11.261  38.884  11.803
45927W        W14321  20.696  25.029  14.593
45928W        W14322  26.533  39.076  12.026
45929W        W14323  35.195   5.856   1.479
45930W        W14324  21.773  23.409  12.309
45931W        W14325  39.429  12.621  12.147
45932W        W14326   2.510  30.407   3.740
45933W        W14327  24.912  13.129  14.851
45934W        W14328  37.857  21.466   3.275
45935W        W14329  10.297  41.152   3.698
45936W        W14330   1.260  31.438  13.524
45937W        W14331  28.126  25.360  12.314
45938W        W14332  22.452  25.234   4.121
45939W        W14333  35.369  43.055   0.901
45940W        W14334  27.789   2.232  13.558
45941W        W14335  33.570  13.385  11.714
45942W        W14336   8.601  26.994  11.830
45943W        W14337   4.438  27.436  12.632
45944W        W14338  16.736   5.669   0.365
45945W        W14339  30.469  34.434   0.184
45946W        W14340  42.470  33.732  14.435
45947W        W14341  18.728  22.998  10.678
45948W        W14342   4.362   0.750   4.066
45949W        W14343  16.869  30.754  11.131
45950W        W14344  42.714  18.501  11.104
45951W        W14345  44.718  42.605   4.952
45952W        W14346  15.266  20.979  12.445
45953W        W14347   2.182   6.176   1.157
45954W        W14348  23.255  16.750  10.587
45955W        W14349  34.821   5.980  12.531
45956W        W14350  30.912   6.633  10.760
45957W        W14351  22.703  28.186   0.061
45958W        W14352   2.733  35.945  12.066
45959W        W14353  16.697  10.538   1.203
45960W        W14354  39.927  38.053  11.102
45961W        W14355  19.807  23.610  13.477
45962W        W14356  25.997  39.660   0.804
45963W        W14357   0.812  24.722  14.479
45964W        W14358  24.430  32.600   2.016
45965W        W14359   8.632   6.343  10.627
45966W        W14360  35.085  20.055  13.934
45967W        W14361  44.242  13.846   4.906
45968W        W14362  38.844  40.023   3.136
45969W        W14363  34.822  11.013   0.062
45970W        W14364   4.719   4.949  12.432
45971W        W14365  42.976   7.355  14.274
45972W        W14366  22.235  42.424   0.955
45973W        W14367  32.806   6.670  14.394
45974W        W14368   9.882  10.837   1.695
45975W        W14369  43.286  18.153   0.835
45976W        W14370  27.053  41.983  12.711
45977W        W14371  36.865  21.422  11.151
45978W        W14372  35.511  40.888  13.545
45979W        W14373  11.686  36.876   2.313
45980W        W14374   3.425   6.545   2.683
45981W        W14375  42.005  15.008  12.809
45982W        W14376  14.485   8.368  13.884
45983W        W14377  35.827   4.792   3.585
45984W        W14378  10.542  11.693   3.075
45985W        W14379  36.834  34.302   2.132
45986W        W14380   0.871  23.103   2.692
45987W        W14381  16.153  32.543  12.485
45988W        W14382  11.853  16.572  13.964
45989W        W14383  36.961  12.240   3.329
45990W        W14384  24.564  42.018   3.986
45991W        W14385  40.542  40.385   0.861
45992W        W14386  14.675  17.346   4.594
45993W        W14387   6.938  28.271  12.938
45994W        W14388   0.651  17.577  10.952
45995W        W14389  35.054  28.497   0.700
45996W        W14390  30.640  18.215   4.897
45997W        W14391  28.665  22.553  14.561
45998W        W14392  31.491  10.656   4.649
45999W        W14393  43.427   3.450   4.146
46000W        W14394  27.306  42.272   4.076
46001W        W14395  27.531  26.408  14.903
46002W        W14396  26.677   1.830  12.315
46003W        W14397   2.699   0.706  10.775
46004W        W14398   5.830   6.842  10.241
46005W        W14399  18.003  21.477  11.178
46006W        W14400   3.716   8.779  10.921
46007W        W14401   3.523  32.050  12.572
46008W        W14402  44.844  14.121   0.991
46009W        W14403  27.060  35.927   3.396
46010W        W14404  40.820  10.757  14.307
46011W        W14405  25.783  44.675   1.126
46012W        W14406  35.913   8.839  14.544
46013W        W14407   4.806  11.345   0.832
46014W        W14408  36.824  37.905  11.624
46015W        W14409  13.181  10.005  13.161
46016W        W14410  15.363  31.054   4.297
46017W        W14411  32.316  37.378  12.852
46018W        W14412  35.527  33.285  11.141
46019W        W14413   3.449  14.115   1.842
46020W        W14414  33.613  29.860  13.142
46021W        W14415   9.357  30.963   0.751
46022W        W14416  30.603  41.970  12.089
46023W        W14417  23.203  34.880   3.130
46024W        W14418  14.276  21.209  10.539
46025W        W14419  43.834  18.011  13.114
46026W        W14420  35.792  40.960   0.244
46027W        W14421  40.393   9.395   2.790
46028W        W14422   1.852  16.120  14.917
46029W        W14423  14.494  32.551  14.456
46030W        W14424   5.924   1.292  11.116
46031W        W14425  22.774  24.045   4.297
46032W        W14426  40.145  18.231  11.703
46033W        W14427  11.351  43.847  11.141
46034W        W14428  28.645  24.433   4.107
46035W        W14429  27.181  14.584   4.849
46036W        W14430   2.237  13.699  12.453
46037W        W14431  10.462   2.454  14.719
46038W        W14432  20.251  43.518  10.760
46039W        W14433   9.663  23.138  12.870
46040W        W14434  10.142  39.047  11.258
46041W        W14435  32.688  16.070   0.273
46042W        W14436  42.266  40.424   0.461
46043W        W14437  15.329   8.718  14.473
46044W        W14438  30.624  23.459  12.120
46045W        W14439  26.035  21.527   2.088
46046W        W14440  42.905  27.442   1.021
46047W        W14441  13.598  41.772  12.735
46048W        W14442  25.158  32.106   3.092
46049W        W14443  43.326  39.277  14.396
46050W        W14444  28.378  17.067   3.360
46051W        W14445  12.251  21.636   0.161
46052W        W14446   5.571  40.938   3.157
46053W        W14447  29.626  15.520   4.237
46054W        W14448  38.128   3.338  13.372
46055W        W14449  21.718  42.278   1.674
46056W        W14450  22.099  31.605   0.124
46057W        W14451  14.966  21.234  12.793
46058W        W14452  15.739  21.839  14.990
46059W        W14453   2.466  10.375   3.293
46060W        W14454  29.171  13.221   3.784
46061W        W14455  24.071  21.997   3.884
46062W        W14456  19.794  18.050   1.907
46063W        W14457  21.088   5.940   3.904
46064W        W14458  20.044  17.983   0.458
46065W        W14459   8.759  23.925  13.290
46066W        W14460   0.263  21.299   1.269
46067W        W14461  29.403  28.144   0.297
46068W        W14462  38.699  38.924   4.560
46069W        W14463  41.329  11.582   0.574
46070W        W14464   1.896  18.218   1.035
46071W        W14465  11.864  29.624   0.932
46072W        W14466  18.446   9.189   4.824
46073W        W14467  26.509  32.355   4.761
46074W        W14468   4.801  22.615   5.035
46075W        W14469  28.721  27.681   2.852
46076W        W14470   3.533  13.080  10.680
46077W        W14471  22.524   3.139  13.388
46078W        W14472  34.900  35.034   4.200
46079W        W14473   6.783  16.095   3.100
46080W        W14474  40.470  39.353  13.895
46081W        W14475  20.495  38.820   0.920
46082W        W14476   7.921  17.204   3.242
46083W        W14477  38.049  22.576   3.431
46084W        W14478  12.557   5.992   4.212
46085W        W14479  30.690  13.793  12.964
46086W        W14480  13.855  13.559   3.923
46087W        W14481   3.291  38.950   3.217
46088W        W14482   8.709  40.370   4.617
46089W        W14483  38.502  39.934   4.624
46090W        W14484  29.034  31.090   1.318
46091W        W14485  13.991  43.948  11.978
46092W        W14486  11.356   6.221   3.538
46093W        W14487  33.141   7.732  13.689
46094W        W14488  31.178  22.794  12.424
46095W        W14489  23.065  17.232  11.248
46096W        W14490  12.676   6.948   3.283
46097W        W14491  19.972  42.596   1.306
46098W        W14492   5.167  43.722   3.738
46099W        W14493  38.443  11.264   3.080
46100W        W14494  19.547  31.974  12.495
46101W        W14495  22.668  33.878   1.172
46102W        W14496  44.608  22.313   4.278
46103W        W14497  33.610   1.202  14.731
46104W        W14498   9.375  42.303   1.976
46105W        W14499   6.471  36.576   4.210
46106W        W14500  23.283   2.761  14.557
46107W        W14501   3.266  42.310   2.123
46108W        W14502  18.166  30.582   4.513
46109W        W14503  19.942  35.447  11.167
46110W        W14504  14.447  16.353  12.656
46111W        W14505  12.096   5.213   3.044
46112W        W14506   0.918  12.277   2.740
46113W        W14507  41.627  36.049   0.473
46114W        W14508  11.913  16.775  10.163
46115W        W14509  11.733  38.502  12.239
46116W        W14510  24.269   5.674  11.965
46117W        W14511  44.785  19.798  13.806
46118W        W14512   1.807  24.058   2.735
46119W        W14513   3.146  37.945   1.144
46120W        W14514  23.966  21.122  13.849
46121W        W14515   6.028   9.361  14.253
46122W        W14516  32.170  22.274   2.658
46123W        W14517  13.146  44.421   2.642
46124W        W14518  26.484  22.735  13.473
46125W        W14519  34.022  23.725   4.270
46126W        W14520  39.011  13.770   2.165
46127W        W14521  40.790   1.649   1.265
46128W        W14522  36.046  18.446  11.384
46129W        W14523  39.856  32.820  12.570
46130W        W14524  18.144  21.224   3.631
46131W        W14525  14.777   8.878  11.610
46132W        W14526  29.375  27.467  13.596
46133W        W14527  20.958   1.201  12.970
46134W        W14528  41.977  14.275  11.697
46135W        W14529  10.549   1.888  10.842
46136W        W14530  31.599  27.697  11.561
46137W        W14531  24.567  32.434   3.704
46138W        W14532  10.771  42.909  10.703
46139W        W14533  37.009  17.308  12.044
46140W        W14534  20.537  21.233   0.448
46141W        W14535  24.966  34.564   3.084
46142W        W14536  42.289  32.743  14.412
46143W        W14537  12.353   2.289   2.187
46144W        W14538  36.099  39.516   1.208
46145W        W14539  22.397  16.999   3.736
46146W        W14540  21.418   8.580   9.939
46147W        W14541  21.193  33.338  12.738
46148W        W14542   4.935   1.776  14.865
46149W        W14543   0.217   2.416   1.680
46150W        W14544  36.703   5.743   0.363
46151W        W14545  32.052  15.536  10.431
46152W        W14546  24.961  14.052  14.861
46153W        W14547  39.388  38.419  11.419
46154W        W14548  21.381   5.288  11.187
46155W        W14549  11.971  18.738   2.277
46156W        W14550   3.929  30.218   2.816
46157W        W14551  26.479  21.943   3.247
46158W        W14552  29.120  39.238  11.656
46159W        W14553  12.301  25.986   3.901
46160W        W14554  43.078  23.159   0.266
46161W        W14555   1.862  43.563   1.259
46162W        W14556  34.019  13.686  11.050
46163W        W14557  28.402  26.035   2.654
46164W        W14558  43.783  12.370  13.029
46165W        W14559  14.878  36.257   0.028
46166W        W14560  19.131   8.740  10.533
46167W        W14561   1.413  21.240  11.225
46168W        W14562   1.012  39.952   4.207
46169W        W14563  12.784   3.739   3.247
46170W        W14564  25.155  32.930   1.012
46171W        W14565   0.232  44.479  11.965
46172W        W14566  13.047  14.103   1.724
46173W        W14567   7.798  38.895   4.777
46174W        W14568   8.205  12.177   0.534
46175W        W14569  36.160  31.255   0.235
46176W        W14570  22.962  16.039  11.499
46177W        W14571  10.449  18.523  13.410
46178W        W14572   1.907   1.956   0.934
46179W        W14573  29.353  21.019  10.989
46180W        W14574  32.886  33.001   3.691
46181W        W14575  26.300  27.108  11.970
46182W        W14576  43.639  41.366   3.726
46183W        W14577  41.292   6.726   0.451
46184W        W14578  16.360   2.516  10.745
46185W        W14579  16.758  23.297  11.160
46186W        W14580   3.336  24.051  11.457
46187W        W14581  24.520   5.433   1.867
46188W        W14582   6.280  23.999  11.368
46189W        W14583  13.365  43.295   0.082
46190W        W14584  34.523  44.760   1.734
46191W        W14585  44.546   3.322  12.115
46192W        W14586  13.867   2.761  11.626
46193W        W14587  28.427  17.181   4.880
46194W        W14588   2.220  24.231   1.596
46195W        W14589  30.177   4.811   0.073
46196W        W14590  40.727  11.807  14.553
46197W        W14591  39.676  24.418   0.961
46198W        W14592   7.598  44.331  10.843
46199W        W14593   6.445  36.105  13.457
46200W        W14594  29.028   8.418   0.344
46201W        W14595  33.022  17.051   2.112
46202W        W14596  11.693  32.142   1.362
46203W        W14597  41.003  10.117   3.167
46204W        W14598  35.124  31.390  13.910
46205W        W14599  15.748  22.593   4.495
46206W        W14600  18.058  37.825  14.749
46207W        W14601   2.471  12.077   2.668
46208W        W14602  13.524  15.299  11.897
46209W        W14603  28.080  15.533   3.423
46210W        W14604   9.892  21.203   2.342
46211W        W14605  29.902  24.679  11.988
46212W        W14606  33.917  23.925   2.156
46213W        W14607  38.382  27.935   3.435
46214W        W14608  44.991  34.059  14.321
46215W        W14609  24.302  39.846   1.998
46216W        W14610  36.608  30.045   0.910
46217W        W14611   1.483  12.894   1.079
46218W        W14612  24.257  13.519   4.985
46219W        W14613   4.156   5.934   4.006
46220W        W14614  33.806   3.264  11.475
46221W        W14615   6.596  14.427   2.847
46222W        W14616   5.642  42.775   1.298
46223W        W14617  10.855  27.306   1.362
46224W        W14618  36.350  30.017  13.907
46225W        W14619  20.611  31.342  11.151
46226W        W14620  31.927  17.850   3.644
46227W        W14621  24.482   9.766  12.455
46228W        W14622  25.276  34.612   0.370
46229W        W14623  42.793  32.881  14.533
46230W        W14624  25.708  31.099   2.316
46231W        W14625  22.500  42.871   2.353
46232W        W14626  43.806  43.334  14.088
46233W        W14627  33.493   4.663   3.253
46234W        W14628  35.378  23.577  12.180
46235W        W14629  26.097  39.546   1.770
46236W        W14630  38.982  13.331  14.025
46237W        W14631  34.635  17.592   3.619
46238W        W14632  17.162  43.478  10.455
46239W        W14633  12.814   5.216   1.947
46240W        W14634  26.216  14.217  12.034
46241W        W14635   6.550   2.501   1.644
46242W        W14636   3.694  12.673  14.317
46243W        W14637   3.826  24.123  11.652
46244W        W14638  31.194   8.369   3.588
46245W        W14639   3.510   7.753   1.203
46246W        W14640  40.519  25.095   4.029
46247W        W14641  37.868  23.981   1.892
46248W        W14642  31.393  43.865  13.500
46249W        W14643   4.176   9.226  13.054
46250W        W14644   1.459  38.607  13.926
46251W        W14645  31.029  35.592  10.644
46252W        W14646  40.106  14.116   0.830
46253W        W14647  26.601  43.883  13.858
46254W        W14648  40.917  29.758   2.299
46255W        W14649  21.718  29.325  12.876
46256W        W14650  27.103  19.540  12.986
46257W        W14651  44.008  13.383   2.016
46258W        W14652  36.379   5.880   2.618
46259W        W14653  26.915   8.623   2.628
46260W        W14654  42.350  16.039   2.349
46261W        W14655  34.455  21.107  14.394
46262W        W14656  20.095  21.166   1.506
46263W        W14657  38.187  23.735   4.204
46264W        W14658  42.001   4.293   3.162
46265W        W14659  39.295  24.775   0.862
46266W        W14660  34.388  40.173  13.494
46267W        W14661  31.951   2.786  10.834
46268W        W14662  32.223  11.965   1.889
46269W        W14663  23.696  20.565   2.290
46270W        W14664   5.547   3.820  13.710
46271W        W14665  18.319  12.133   2.349
46272W        W14666  39.687  28.476   3.420
46273W        W14667  37.992  33.347  14.552
46274W        W14668  42.279  24.948   4.616
46275W        W14669  20.506  16.833  13.393
46276W        W14670  25.018  31.485  14.440
46277W        W14671  19.721  27.204  12.126
46278W        W14672  42.884  25.544  12.047
46279W        W14673   9.741   3.524   0.896
46280W        W14674  15.369  30.167  12.639
46281W        W14675  17.793  27.857  13.091
46282W        W14676  10.724  42.610   4.315
46283W        W14677  33.888  30.512   0.872
46284W        W14678  40.231   2.165  12.625
46285W        W14679  20.595  26.142   3.647
46286W        W14680   7.511  38.422   4.726
46287W        W14681  19.013  31.657   0.285
46288W        W14682  31.432  25.122   2.620
46289W        W14683  43.865  44.442  12.434
46290W        W14684  12.626  43.506  12.461
46291W        W14685  21.336  17.830   2.661
46292W        W14686  25.621  41.895   0.751
46293W        W14687  14.210  35.477  10.792
46294W        W14688  35.366  38.406  12.464
46295W        W14689  20.915   4.436   3.272
46296W        W14690  42.276  44.721  12.096
46297W        W14691   7.648  32.852  12.807
46298W        W14692   4.494  41.736   4.679
46299W        W14693  39.430  23.765  11.525
46300W        W14694  17.971  40.559  12.047
46301W        W14695  18.213  20.613   5.203
46302W        W14696  25.506   3.619   0.886
46303W        W14697  10.189  21.758   5.032
46304W        W14698   8.961  18.830   2.375
46305W        W14699  42.598  10.364   1.314
46306W        W14700   3.211  38.379   2.314
46307W        W14701  35.630  13.797   2.747
46308W        W14702   3.867  40.974   4.441
46309W        W14703  28.263  31.768   1.151
46310W        W14704  13.803  22.515  12.493
46311W        W14705  29.404  38.844  13.814
46312W        W14706   2.991   9.336   4.941
46313W        W14707   3.448  23.302  13.871
46314W        W14708   9.808  38.483  12.834
46315W        W14709   0.766  12.648   4.987
46316W        W14710  16.583  37.377  11.544
46317W        W14711   6.821  22.929   4.654
46318W        W14712  43.008  42.066   2.158
46319W        W14713  25.107   1.986  14.931
46320W        W14714  37.843  13.608  12.430
46321W        W14715  34.880   7.271  12.492
46322W        W14716  44.048  18.500  13.981
46323W        W14717   1.793  36.476   0.243
46324W        W14718  16.451  40.087   1.788
46325W        W14719  38.611   0.037  12.032
46326W        W14720   4.149   2.854   2.330
46327W        W14721  23.057  22.495  11.028
46328W        W14722  29.664  33.715   4.415
46329W        W14723  25.938  36.456   3.264
46330W        W14724  39.543  20.302   1.707
46331W        W14725  44.491  27.471  11.958
46332W        W14726  16.320   2.864   4.822
46333W        W14727  10.270  26.499   0.845
46334W        W14728  31.621   7.434  14.758
46335W        W14729  40.930  35.849  14.762
46336W        W14730   6.169  16.483  11.420
46337W        W14731  18.609   9.795   1.261
46338W        W14732   4.230  15.758   1.251
46339W        W14733  39.651  18.934   2.330
46340W        W14734  24.324  40.755  12.298
46341W        W14735  22.495  41.557  13.109
46342W        W14736   7.403  22.677   1.941
46343W        W14737  41.883  16.578  10.717
46344W        W14738  44.155  31.885  12.053
46345W        W14739  30.662  39.361   0.266
46346W        W14740  29.960  37.938  11.658
46347W        W14741  26.459   5.332  12.451
46348W        W14742   0.074  39.017   4.636
46349W        W14743  22.738  36.847   1.039
46350W        W14744  28.407   7.345   3.491
46351W        W14745  19.332   4.769  12.397
46352W        W14746  22.896  25.023  12.859
46353W        W14747  29.857  19.881   4.432
46354W        W14748  41.424  41.265   2.770
46355W        W14749  18.357  12.034   3.403
46356W        W14750  21.554  30.949   2.295
46357W        W14751  26.847  30.611   3.178
46358W        W14752  24.524  24.189  11.415
46359W        W14753   3.195  24.744   0.997
46360W        W14754  43.424  27.549   3.273
46361W        W14755   4.700  35.970  13.413
46362W        W14756  40.315  32.688   3.722
46363W        W14757  19.023  25.715  11.139
46364W        W14758   9.888  29.706   4.191
46365W        W14759  23.013  28.141  10.639
46366W        W14760  21.066  11.239  13.103
46367W        W14761  37.372  23.919   3.206
46368W        W14762  38.671  18.289   4.067
46369W        W14763  39.932  21.036  14.010
46370W        W14764  38.251  20.144  13.053
46371W        W14765  36.211  18.121   0.031
46372W        W14766  10.341  21.057   2.112
46373W        W14767  15.638  14.308   4.908
46374W        W14768  33.358  11.078   0.190
46375W        W14769   7.929   3.460  12.633
46376W        W14770  22.739   4.502  13.998
46377W        W14771   7.873  44.866   3.259
46378W        W14772   7.683  25.600   2.868
46379W        W14773  33.216  26.456  12.864
46380W        W14774  12.098  26.174  11.669
46381W        W14775  10.185   5.482   4.166
46382W        W14776  28.885   9.690  11.115
46383W        W14777  44.533  38.544  10.338
46384W        W14778  15.290  33.337  13.528
46385W        W14779  30.071  26.471   1.856
46386W        W14780  25.801  42.317  14.037
46387W        W14781   3.285  18.825  11.566
46388W        W14782  21.482  18.586   3.707
46389W        W14783  40.432   7.291   0.933
46390W        W14784  33.185  12.720  13.912
46391W        W14785   3.700   7.247   1.474
46392W        W14786   0.046  23.719  10.789
46393W        W14787   4.295  13.340  11.972
46394W        W14788  41.246  17.171   0.427
46395W        W14789  17.249   7.834  14.941
46396W        W14790  26.751  27.829   1.923
46397W        W14791  31.113  27.073  12.644
46398W        W14792  22.582   7.721   0.392
46399W        W14793   0.510  36.423  11.939
46400W        W14794  38.528  22.975  14.074
46401W        W14795  31.983   4.349  11.868
46402W        W14796  39.599  44.489  14.008
46403W        W14797  18.506  10.925  13.952
46404W        W14798  10.372  22.129  10.310
46405W        W14799  35.024  16.478  10.785
46406W        W14800  20.588   7.595  11.949
46407W        W14801   5.842  12.190   0.815
46408W        W14802  10.163  33.887  14.569
46409W        W14803   6.275   5.194  12.027
46410W        W14804  15.119  18.110  14.753
46411W        W14805  19.818  37.311  11.479
46412W        W14806  36.902  29.597  12.450
46413W        W14807  21.453   2.512  10.664
46414W        W14808  17.306  12.868  12.888
46415W        W14809  40.528   6.908   1.605
46416W        W14810   0.198  44.866  11.102
46417W        W14811  27.515   9.284  13.903
46418W        W14812  14.229   6.572   0.139
46419W        W14813   1.741  12.152  12.585
46420W        W14814  19.733   7.424   0.203
46421W        W14815  26.812  40.473  13.818
46422W        W14816  22.576  37.854   2.210
46423W        W14817  31.687  32.959  12.914
46424W        W14818  28.519  30.283   0.834
46425W        W14819  17.761  26.043  11.309
46426W        W14820  16.326  17.836  11.551
46427W        W14821   8.262  31.809  10.580
46428W        W14822  41.552  31.355   1.697
46429W        W14823   4.501  28.101  12.116
46430W        W14824  19.187  43.183  13.955
46431W        W14825  39.704  36.612   3.177
46432W        W14826  11.388  15.809   1.651
46433W        W14827  34.461  26.421  13.546
46434W        W14828   5.966  35.130   3.113
46435W        W14829  23.982  33.514  13.281
46436W        W14830  35.382   4.932  13.720
46437W        W14831   8.898   7.982  14.432
46438W        W14832  15.530   4.913  13.995
46439W        W14833  20.691  38.154   2.237
46440W        W14834  21.423  30.915   3.409
46441W        W14835   0.474  37.959  14.985
46442W        W14836  24.661  44.267  13.985
46443W        W14837   0.196  23.118   3.303
46444W        W14838  18.330  44.774   2.853
46445W        W14839   1.389  34.386  12.906
46446W        W14840   7.256   6.993   5.287
46447W        W14841   6.597  44.839   1.681
46448W        W14842   7.151   1.738  12.040
46449W        W14843  26.249  43.947  11.983
46450W        W14844  27.996  16.320   4.574
46451W        W14845  22.251   8.133   4.809
46452W        W14846  16.324  18.596   4.188
46453W        W14847   1.599   3.935   0.953
46454W        W14848  20.641  22.178  14.303
46455W        W14849  29.030  37.749   1.761
46456W        W14850  19.537  40.367  10.704
46457W        W14851  28.525  29.673   4.090
46458W        W14852  36.778  28.630   4.200
46459W        W14853   2.321  14.666   3.839
46460W        W14854  16.551  29.087  13.002
46461W        W14855   1.488  26.343  14.002
46462W        W14856  34.015  10.337  10.650
46463W        W14857  21.727  34.875  12.501
46464W        W14858  34.736  12.635  11.973
46465W        W14859  29.451  39.775   3.939
46466W        W14860  24.578  41.291   2.895
46467W        W14861  24.105   0.761   2.423
46468W        W14862  23.545   4.307   0.709
46469W        W14863  31.726  23.112  13.208
46470W        W14864  39.981  44.750   3.556
46471W        W14865  11.375  31.013   2.701
46472W        W14866  15.433  14.048   2.077
46473W        W14867  42.455  15.214   2.802
46474W        W14868   3.660   6.388   1.393
46475W        W14869  37.438  44.001   2.770
46476W        W14870  33.165   2.402  14.214
46477W        W14871  12.945  20.585   4.517
46478W        W14872  17.624  34.447   4.257
46479W        W14873  20.176   4.363  14.366
46480W        W14874  11.411  26.136   3.379
46481W        W14875  41.040  23.030   0.300
46482W        W14876  29.634  13.585  11.512
46483W        W14877  15.794  33.552   4.465
46484W        W14878  35.165   3.676   1.643
46485W        W14879   4.061  17.602  11.668
46486W        W14880  24.745  39.903  12.023
46487W        W14881  17.047  31.577   4.607
46488W        W14882  35.461   2.308   4.226
46489W        W14883  33.922   6.308   1.248
46490W        W14884   9.162  20.082   1.913
46491W        W14885  31.929  17.805   2.589
46492W        W14886   0.220  44.812   3.840
46493W        W14887  27.628  25.936  11.336
46494W        W14888   2.064  16.556  10.617
46495W        W14889  23.729  42.394  11.259
46496W        W14890  39.814  44.613   2.662
46497W        W14891  43.180  12.180  11.347
46498W        W14892   6.319  29.618  13.074
46499W        W14893  41.063  13.378  10.585
46500W        W14894  13.051  40.856  11.286
46501W        W14895  12.058   5.355   9.734
46502W        W14896  27.161   0.204  12.944
46503W        W14897  17.306   6.821  11.010
46504W        W14898   4.368   4.402  10.705
46505W        W14899  21.421  36.857  10.666
46506W        W14900  43.248  26.537  13.530
46507W        W14901   2.522  15.161  14.723
46508W        W14902   1.043  29.487   3.711
46509W        W14903  40.857  11.209   4.051
46510W        W14904  35.934   3.433  14.368
46511W        W14905   2.483  11.223  11.954
46512W        W14906  19.653  19.820  13.829
46513W        W14907  33.020   3.827   1.725
46514W        W14908  10.698  36.207  11.090
46515W        W14909   7.132  40.612   2.783
46516W        W14910  33.949  43.894   3.750
46517W        W14911  19.339  31.940   2.352
46518W        W14912   9.415  16.598  11.557
46519W        W14913  37.132   1.552   1.287
46520W        W14914  22.526  43.886   1.839
46521W        W14915  15.107  23.696  13.065
46522W        W14916  39.838  17.147   2.743
46523W        W14917  10.855   6.926  13.387
46524W        W14918  41.478  18.789  13.902
46525W        W14919   4.907  34.141   0.245
46526W        W14920  13.266   1.782  11.981
46527W        W14921  21.475  10.324   0.695
46528W        W14922  10.838   4.325  14.294
46529W        W14923  13.161  43.481   1.996
46530W        W14924  42.951  17.928  10.414
46531W        W14925  26.528   4.702   3.347
46532W        W14926  14.166  43.230   4.564
46533W        W14927  28.473  22.420  10.055
46534W        W14928   8.912  16.295   0.370
46535W        W14929  18.158  43.888  13.570
46536W        W14930   6.402  22.706   0.903
46537W        W14931   9.153  19.039   1.948
46538W        W14932  25.766  38.466   3.205
46539W        W14933  20.351   0.555  11.189
46540W        W14934  21.212  38.663  13.551
46541W        W14935  32.074   4.260  13.140
46542W        W14936  27.575  40.308  12.590
46543W        W14937   5.596  14.392  13.446
46544W        W14938  41.338   9.671  10.719
46545W        W14939  28.635  36.010   4.714
46546W        W14940  36.288  19.951  14.319
46547W        W14941  21.248  13.800   1.310
46548W        W14942  20.384   5.263  14.856
46549W        W14943  39.039   6.496  10.460
46550W        W14944  21.400  19.729  12.762
46551W        W14945  21.835  11.221  14.700
46552W        W14946  10.760  18.260   2.938
46553W        W14947  26.646  43.021   2.361
46554W        W14948  13.752   6.182   1.750
46555W        W14949  41.136  31.039   1.572
46556W        W14950   3.472  16.698   5.103
46557W        W14951  14.706  11.291  14.089
46558W        W14952   7.312  10.938   1.909
46559W        W14953  44.105   2.303  12.976
46560W        W14954  14.121  13.160  14.486
46561W        W14955  42.908   6.162   1.871
46562W        W14956  34.509  29.538   2.824
46563W        W14957  44.369  31.784   3.692
46564W        W14958  25.175   3.529  11.206
46565W        W14959   1.769  22.101   1.000
46566W        W14960  34.899  26.856   5.138
46567W        W14961  44.421  32.998   2.548
46568W        W14962  33.125  22.042  13.089
46569W        W14963  26.657  19.264  12.944
46570W        W14964  25.795   4.766   2.374
46571W        W14965   1.554  40.384   2.781
46572W        W14966   0.533  18.197   2.122
46573W        W14967  43.289   2.915  11.262
46574W        W14968  24.265  24.117  14.453
46575W        W14969   1.379  11.292  12.963
46576W        W14970  20.225   4.110  11.059
46577W        W14971   3.447  22.726   1.831
46578W        W14972   2.283  40.034   4.818
46579W        W14973  20.596  31.348  13.427
46580W        W14974  30.620  27.577  11.637
46581W        W14975  21.154   9.623   2.698
46582W        W14976   3.481  11.272  10.786
46583W        W14977  22.212  35.316  14.435
46584W        W14978  38.452  27.453  14.984
46585W        W14979  17.489  12.498   2.299
46586W        W14980  22.854   8.830   1.005
46587W        W14981   2.113   0.253  11.519
46588W        W14982  40.971  22.141  11.916
46589W        W14983  37.068  10.914   3.265
46590W        W14984  34.370  27.432  11.261
46591W        W14985  39.069   3.815   2.762
46592W        W14986  32.838   6.791   2.625
46593W        W14987  28.954   0.375   4.072
46594W        W14988  37.600  23.187   3.751
46595W        W14989  31.220  21.306  11.175
46596W        W14990   8.963  32.692   3.137
46597W        W14991  40.798  21.628   4.705
46598W        W14992  36.382   1.277  13.390
46599W        W14993  29.642  36.007  13.849
46600W        W14994   4.176  10.899   1.375
46601W        W14995  15.253  17.569  13.959
46602W        W14996  40.172   5.392  11.567
46603W        W14997  27.680  21.421   3.318
46604W        W14998  32.009  35.161  13.847
46605W        W14999  32.060  39.272   4.357
46606W        W15000  38.343  35.578  11.077
46607W        W15001  17.736  42.051   5.502
46608W        W15002   8.290  13.342  11.124
46609W        W15003   8.606  26.249  11.179
46610W        W15004  13.663  23.339  12.927
46611W        W15005  33.793  40.420   1.841
46612W        W15006  28.112  41.953   4.575
46613W        W15007  11.442  35.185   3.198
46614W        W15008  37.062  33.111  10.675
46615W        W15009   5.456  32.193  14.794
46616W        W15010  41.180   1.313   1.267
46617W        W15011  14.362  26.985  11.447
46618W        W15012  23.205  31.027   4.660
46619W        W15013  13.055   4.870  11.620
46620W        W15014  33.449  34.906  12.644
46621W        W15015  31.122  29.992  13.168
46622W        W15016  14.705  14.763  13.548
46623W        W15017  44.688  28.527   1.698
46624W        W15018  34.698  33.315   3.814
46625W        W15019  26.578  36.335  13.569
46626W        W15020  25.847  16.597  11.482
46627W        W15021  41.809  36.957  14.896
46628W        W15022  27.184  40.942  13.118
46629W        W15023  36.858  19.712   4.472
46630W        W15024   1.010   1.285  14.461
46631W        W15025  39.786  43.477  11.645
46632W        W15026   8.550   2.776   0.749
46633W        W15027  26.558  27.388   0.875
46634W        W15028  31.640  14.986   0.360
46635W        W15029  40.862  41.740  14.066
46636W        W15030   4.814  23.378  12.013
46637W        W15031  33.916  14.110  13.000
46638W        W15032  27.066  32.131   1.789
46639W        W15033  37.915   4.800   0.574
46640W        W15034  37.049  29.134   4.399
46641W        W15035  25.045  42.368   3.282
46642W        W15036  17.192  24.151   0.310
46643W        W15037  39.406   0.926  14.419
46644W        W15038  17.511  42.180   5.067
46645W        W15039  25.042  10.424   4.148
46646W        W15040  39.240  37.591   5.013
46647W        W15041   5.472  11.092   4.142
46648W        W15042  16.969  17.344  14.295
46649W        W15043   6.390  14.062  12.486
46650W        W15044  31.839  43.482   4.109
46651W        W15045   4.981  29.170  11.330
46652W        W15046   3.629  27.425   3.613
46653W        W15047  30.514  21.049   2.441
46654W        W15048  20.379  23.115   1.382
46655W        W15049  13.528  29.929  14.490
46656W        W15050  26.671  12.818   4.442
46657W        W15051  14.164  32.483   4.254
46658W        W15052   5.485  23.968  12.239
46659W        W15053  22.572  24.619  12.945
46660W        W15054  26.604  36.177   4.658
46661W        W15055   5.652  29.556  12.042
46662W        W15056  32.002  13.377  14.114
46663W        W15057  41.539  11.225   4.509
46664W        W15058  11.736  17.545  12.679
46665W        W15059  25.684  13.771  11.591
46666W        W15060  39.395  23.142  10.388
46667W        W15061  37.522  44.561  12.885
46668W        W15062  40.389  39.842   3.566
46669W        W15063  23.798   2.786  14.513
46670W        W15064  16.485  37.444   2.263
46671W        W15065  25.485  28.629  12.568
46672W        W15066  35.902  14.090  14.385
46673W        W15067  13.413  16.345   4.123
46674W        W15068  30.441  35.923   4.122
46675W        W15069   1.451   7.669   2.680
46676W        W15070  22.571  36.382   3.673
46677W        W15071  27.086  12.754   4.123
46678W        W15072   8.257  38.009  14.848
46679W        W15073  40.839  25.684   0.940
46680W        W15074  10.552  13.154  13.991
46681W        W15075  30.835  39.926   1.911
46682W        W15076   5.661   5.921  14.899
46683W        W15077  27.033  34.016  14.543
46684W        W15078  42.419  33.374  10.603
46685W        W15079  25.960   6.805   2.076
46686W        W15080  24.091   0.229  11.654
46687W        W15081  42.148   5.171   4.416
46688W        W15082   5.791  13.167   1.636
46689W        W15083  40.823   3.284  11.169
46690W        W15084  39.926   3.355   1.937
46691W        W15085  33.325   4.879  14.433
46692W        W15086  40.505   9.042  14.412
46693W        W15087  27.923   1.155  11.282
46694W        W15088  30.659  19.140   3.823
46695W        W15089  12.195  29.696   1.346
46696W        W15090  37.808  28.324  12.450
46697W        W15091  34.939  42.331  11.476
46698W        W15092  24.940   9.260  12.012
46699W        W15093  28.898  29.036   1.669
46700W        W15094   4.840  21.235  10.610
46701W        W15095  36.028  24.659   3.238
46702W        W15096  38.856  42.950  12.475
46703W        W15097   9.777  21.327   3.283
46704W        W15098  30.441  34.875  11.254
46705W        W15099  34.455  17.901   3.154
46706W        W15100   6.181  36.480   0.446
46707W        W15101  42.859   8.187   2.368
46708W        W15102  35.039  13.404   1.800
46709W        W15103  31.811  34.412  14.808
46710W        W15104  22.064  16.626   3.893
46711W        W15105  38.481  28.685  10.752
46712W        W15106  10.330  18.216   3.793
46713W        W15107  41.767  37.726   1.291
46714W        W15108  22.176   4.438   1.851
46715W        W15109  20.792  13.851  14.998
46716W        W15110  11.803  35.584   1.873
46717W        W15111   5.552   6.357   1.058
46718W        W15112  19.357  16.861  14.302
46719W        W15113  29.485   4.928   4.622
46720W        W15114  43.806  28.763   1.598
46721W        W15115  38.832  35.196   1.445
46722W        W15116  15.571  40.275  11.352
46723W        W15117  42.922  44.889   1.486
46724W        W15118  11.872  19.760   2.812
46725W        W15119   9.849  44.467  13.489
46726W        W15120   6.703  18.938  14.047
46727W        W15121   9.789  20.288  13.378
46728W        W15122  30.457  21.499  14.527
46729W        W15123  44.265  25.816   5.081
46730W        W15124  39.815  21.178  11.433
46731W        W15125   6.450  37.115   2.779
46732W        W15126  12.342  24.251   4.333
46733W        W15127  15.119   9.921   0.069
46734W        W15128  22.492   4.534   9.999
46735W        W15129   4.075  10.495   2.643
46736W        W15130  28.407   3.872  11.184
46737W        W15131   0.196  43.740   2.611
46738W        W15132  29.998  25.072   0.080
46739W        W15133  14.838  11.833  14.877
46740W        W15134  35.013  27.876   2.153
46741W        W15135  37.830   7.337   3.869
46742W        W15136  41.149  34.596  12.199
46743W        W15137  36.347   7.966   2.170
46744W        W15138  33.534   6.930   2.359
46745W        W15139  13.125   8.984  13.928
46746W        W15140  12.347  25.127   4.438
46747W        W15141   3.039   8.060   1.051
46748W        W15142  13.795  43.089  11.750
46749W        W15143  17.388   1.457   1.664
46750W        W15144  36.642  38.955   3.176
46751W        W15145  22.777  30.313   2.184
46752W        W15146   7.309  26.089   0.190
46753W        W15147  18.843  38.488  13.280
46754W        W15148  44.827  14.807  13.338
46755W        W15149  31.168  13.367   2.406
46756W        W15150  43.137  13.915  11.991
46757W        W15151   5.216  32.656  13.564
46758W        W15152  40.551  44.053  12.055
46759W        W15153  20.029  29.592  14.162
46760W        W15154   8.836  33.474   4.492
46761W        W15155  22.228  33.413  14.567
46762W        W15156  38.402  43.297   0.531
46763W        W15157  40.967  31.591  13.826
46764W        W15158   3.913  36.590   3.305
46765W        W15159  37.837   4.179   4.842
46766W        W15160   6.074  39.562  11.133
46767W        W15161  34.302  19.469   4.630
46768W        W15162  28.802  21.630   1.949
46769W        W15163  12.992  28.910   0.280
46770W        W15164  12.708  37.431  11.476
46771W        W15165   1.204  24.000  11.160
46772W        W15166  28.912  35.029   2.872
46773W        W15167  34.929  20.653   3.399
46774W        W15168   7.445  30.484   4.597
46775W        W15169  26.804  17.829   4.097
46776W        W15170   6.214  23.572  14.914
46777W        W15171  14.087  21.021  11.559
46778W        W15172  14.584  35.459  13.359
46779W        W15173  29.113  10.566  11.143
46780W        W15174  43.582   8.825   3.496
46781W        W15175  17.839  28.148  14.015
46782W        W15176  37.552  29.608  12.263
46783W        W15177  20.350  36.082  13.607
46784W        W15178  20.199  19.822   1.761
46785W        W15179  35.315  18.733   0.797
46786W        W15180  18.054  20.005  11.973
46787W        W15181   9.447  25.695   2.363
46788W        W15182  36.548  12.108   2.872
46789W        W15183   6.061  41.437  14.954
46790W        W15184  37.417  32.555  14.314
46791W        W15185   8.965  14.722   1.266
46792W        W15186   6.254   8.654   3.828
46793W        W15187   9.537   5.137   2.196
46794W        W15188  28.898   8.672  12.572
46795W        W15189  31.480  22.092   2.871
46796W        W15190   6.839  32.206   3.655
46797W        W15191  31.650  37.063   4.886
46798W        W15192  14.176  26.552   2.171
46799W        W15193  17.140  19.467   1.176
46800W        W15194  38.320  28.191   4.849
46801W        W15195  29.157  42.759   1.978
46802W        W15196  38.460  34.715  11.418
46803W        W15197  30.451  39.018  10.987
46804W        W15198  44.359   5.960  12.389
46805W        W15199  29.273   2.525   1.688
46806W        W15200  12.687   6.219   3.720
46807W        W15201  41.451  21.788   0.775
46808W        W15202  41.041   2.980   3.698
46809W        W15203  29.344  38.253  13.825
46810W        W15204  42.887  38.311  12.504
46811W        W15205   9.966  26.081   1.562
46812W        W15206  44.074   0.690   1.564
46813W        W15207  17.562   4.781  14.972
46814W        W15208  16.524  39.334   0.933
46815W        W15209   4.965   7.945  10.751
46816W        W15210  32.343  33.002   4.558
46817W        W15211  32.113   7.583   0.841
46818W        W15212  23.713  21.544   2.057
46819W        W15213  13.748  44.472  14.323
46820W        W15214   8.285   0.205   2.355
46821W        W15215  17.885   5.399   4.059
46822W        W15216  25.423   6.804   1.216
46823W        W15217   5.704  27.870  13.638
46824W        W15218  12.939  16.102  12.992
46825W        W15219  39.855  28.641  14.750
46826W        W15220  29.969  16.260  12.686
46827W        W15221  41.074   7.753   4.757
46828W        W15222  44.046   6.902   4.872
46829W        W15223  21.784  40.678   2.625
46830W        W15224   7.952  20.749   4.639
46831W        W15225  29.696  14.724   0.424
46832W        W15226   4.765  22.139  13.448
46833W        W15227  33.317   9.126   2.254
46834W        W15228  27.046   3.832  12.847
46835W        W15229  35.703  44.014  13.295
46836W        W15230  25.159  18.699  11.171
46837W        W15231  11.234  19.664  12.392
46838W        W15232  28.883  20.380  14.328
46839W        W15233   3.473   5.428  13.309
46840W        W15234  31.457  40.521   3.219
46841W        W15235  42.910  42.550   0.408
46842W        W15236  44.104  41.392  14.911
46843W        W15237   7.807  26.020   2.565
46844W        W15238  37.911  33.298   2.925
46845W        W15239  25.542   2.875   2.905
46846W        W15240  23.295  25.151   1.375
46847W        W15241  37.804  25.584   2.822
46848W        W15242   7.914  35.269  12.468
46849W        W15243  12.879  15.758   2.396
46850W        W15244  22.012  22.278   2.715
46851W        W15245  17.046   8.309  14.919
46852W        W15246  13.944  44.910  14.065
46853W        W15247   5.895  17.676  14.578
46854W        W15248  17.242  10.922   1.669
46855W        W15249  35.868  12.883  12.625
46856W        W15250  43.187  40.502  14.943
46857W        W15251  33.087  37.979  11.080
46858W        W15252  28.958  24.002  13.346
46859W        W15253  10.668  10.896  11.895
46860W        W15254  38.032  11.199   4.475
46861W        W15255  25.180  33.611   2.972
46862W        W15256  14.684  33.073  11.119
46863W        W15257  34.539  33.233   2.067
46864W        W15258  22.239  22.708  10.680
46865W        W15259  19.839  44.761   3.819
46866W        W15260  14.876   2.329  10.807
46867W        W15261  39.580   8.160  14.810
46868W        W15262   0.929  44.256  13.015
46869W        W15263  16.111  22.158   3.923
46870W        W15264  24.791  33.115  13.100
46871W        W15265  33.176  16.046   3.759
46872W        W15266  17.338   2.319  12.245
46873W        W15267  17.872  31.342   4.270
46874W        W15268  24.548  12.318  14.455
46875W        W15269  26.953   5.240   3.790
46876W        W15270  37.286  22.797  13.020
46877W        W15271   7.945  34.811  13.802
46878W        W15272  37.458  26.626   1.801
46879W        W15273   1.712  40.601  11.893
46880W        W15274  25.090  42.063  14.141
46881W        W15275   0.922  19.412  12.909
46882W        W15276  27.979  28.896   3.822
46883W        W15277  30.377  29.520   0.891
46884W        W15278  19.528   0.077  12.208
46885W        W15279  38.320  31.903   3.241
46886W        W15280   2.360   2.683  12.401
46887W        W15281  44.889  16.049   0.202
46888W        W15282   1.698  42.905   3.328
46889W        W15283  23.135  26.904   0.860
46890W        W15284   5.741  18.340  10.624
46891W        W15285  13.477  42.941   4.329
46892W        W15286  30.014  36.350   4.849
46893W        W15287  14.403  16.260   4.317
46894W        W15288   4.604  15.813   1.909
46895W        W15289  35.591  25.917  13.810
46896W        W15290  31.010  21.374  11.649
46897W        W15291   2.415   1.698  10.722
46898W        W15292   4.886  27.131   4.099
46899W        W15293  20.170  11.782   2.116
46900W        W15294  38.852   4.144   4.423
46901W        W15295   5.619  42.192   3.878
46902W        W15296   6.407   6.968   0.443
46903W        W15297  41.039  39.934  14.893
46904W        W15298  32.885  10.430  13.667
46905W        W15299  38.906   3.067   1.442
46906W        W15300  27.110  32.089  13.761
46907W        W15301   1.654  12.600   3.693
46908W        W15302   3.366  25.749   2.300
46909W        W15303  39.433   6.487   4.625
46910W        W15304  25.974  42.023  13.189
46911W        W15305  28.618  10.109   4.537
46912W        W15306  24.867  24.295  10.691
46913W        W15307  12.186  18.224  11.516
46914W        W15308  22.312  26.114   3.806
46915W        W15309  28.549  34.048   2.434
46916W        W15310  15.847  16.612   4.786
46917W        W15311  34.952  43.948   1.820
46918W        W15312  41.900   1.267  13.543
46919W        W15313  42.527  19.817  12.289
46920W        W15314  28.241  13.624  11.630
46921W        W15315   5.521  20.275  14.014
46922W        W15316   3.011  35.068  10.614
46923W        W15317  32.864   5.623   4.396
46924W        W15318  36.821  43.284   0.816
46925W        W15319   3.950  28.939  11.255
46926W        W15320  38.299  11.965   1.908
46927W        W15321  31.522  35.896   3.703
46928W        W15322   2.250  22.316  14.838
46929W        W15323  38.591  42.306   4.267
46930W        W15324  13.943  29.768   1.353
46931W        W15325  13.311   0.930  10.508
46932W        W15326  24.163  19.866   2.422
46933W        W15327   2.479  16.167  12.008
46934W        W15328  21.531  33.317   1.733
46935W        W15329  24.520  38.215   2.816
46936W        W15330  28.638  21.598   2.858
46937W        W15331  32.674   5.727  14.919
46938W        W15332   9.600  25.237  10.237
46939W        W15333  29.457   1.017  11.757
46940W        W15334   5.291   7.894   0.411
46941W        W15335  41.974  39.537   1.841
46942W        W15336  36.531  40.883  14.885
46943W        W15337  28.446   5.065   4.611
46944W        W15338   0.554  26.690  13.075
46945W        W15339   7.098  19.304   4.140
46946W        W15340  20.283  35.925   3.566
46947W        W15341  34.636  37.811   1.293
46948W        W15342  28.884  11.287   4.174
46949W        W15343   5.964  27.346  14.276
46950W        W15344  38.448   5.860  13.381
46951W        W15345  17.779   7.736  10.658
46952W        W15346   4.492  20.056  14.765
46953W        W15347  18.758  36.065   4.519
46954W        W15348  18.871  18.382   1.368
46955W        W15349  13.154  31.375  12.013
46956W        W15350  16.590   0.501  12.856
46957W        W15351  12.811  24.070   4.163
46958W        W15352  13.111   7.618  14.965
46959W        W15353  40.321   2.935  12.057
46960W        W15354  29.247   1.023   3.227
46961W        W15355  26.460  13.099   1.728
46962W        W15356   3.968  27.975  11.274
46963W        W15357   4.753   5.445  12.550
46964W        W15358  17.137   5.759   4.537
46965W        W15359  22.697   4.919  14.308
46966W        W15360  27.150  41.492  11.672
46967W        W15361  42.321   8.738  12.426
46968W        W15362  31.581  22.687   1.359
46969W        W15363  43.848   1.189  11.248
46970W        W15364   2.583  11.924  14.304
46971W        W15365  25.487  16.279  11.240
46972W        W15366  30.205  42.938   0.864
46973W        W15367  22.588  41.044   1.340
46974W        W15368   2.471  21.310   4.098
46975W        W15369   4.719  31.923   1.684
46976W        W15370  23.859  27.971   4.068
46977W        W15371  33.003  32.807   1.809
46978W        W15372   6.420  30.659  11.607
46979W        W15373  28.665  35.905  13.817
46980W        W15374  39.777   5.237  13.192
46981W        W15375   8.936  30.148  13.072
46982W        W15376   9.348  33.618  11.636
46983W        W15377  44.456  41.770  12.202
46984W        W15378  26.534  18.156  14.893
46985W        W15379   2.772  26.170   3.661
46986W        W15380  39.991  16.590   1.515
46987W        W15381  35.862  15.877  14.225
46988W        W15382  18.220  12.954  11.780
46989W        W15383  31.558  30.112   3.254
46990W        W15384  20.594  12.201   2.939
46991W        W15385   2.713  37.575  12.675
46992W        W15386  29.950  42.724   4.076
46993W        W15387   9.844  27.274   4.307
46994W        W15388  32.180  12.912   0.306
46995W        W15389  26.490   8.420  11.012
46996W        W15390  17.751  20.992  10.684
46997W        W15391  30.680  36.292  12.089
46998W        W15392  15.820  27.353   0.140
46999W        W15393  21.984  11.678   2.650
47000W        W15394   2.938  20.515  11.181
47001W        W15395  14.293  23.419  13.923
47002W        W15396   0.373  29.866   2.772
47003W        W15397  15.835   6.426  12.602
47004W        W15398  26.002  18.545  10.753
47005W        W15399   4.736  20.214   4.387
47006W        W15400  40.553  12.179   4.544
47007W        W15401  29.499  11.503  12.072
47008W        W15402  34.057  16.016   0.358
47009W        W15403   3.497  21.330  10.658
47010W        W15404  10.712  36.284   3.410
47011W        W15405  19.104   9.608   2.237
47012W        W15406  12.200  30.686  11.691
47013W        W15407  19.538   8.947  11.598
47014W        W15408   1.825  23.494  10.775
47015W        W15409  10.654  16.252   1.011
47016W        W15410  11.142  16.224  11.126
47017W        W15411  29.385  17.152  14.995
47018W        W15412   1.273   2.225  14.755
47019W        W15413   1.470  19.191   4.271
47020W        W15414   3.747  20.654  12.351
47021W        W15415  14.156  10.634   4.209
47022W        W15416   9.477  19.562   3.172
47023W        W15417   6.238  32.951   2.820
47024W        W15418  24.008  29.646  12.422
47025W        W15419  24.426  18.329  12.386
47026W        W15420   3.625  18.708  11.026
47027W        W15421  37.877  23.995   2.993
47028W        W15422  15.436  37.901  12.626
47029W        W15423  11.219  26.754  13.542
47030W        W15424  29.656   5.832  12.750
47031W        W15425  33.436  37.235   2.217
47032W        W15426  37.924  31.409   2.168
47033W        W15427  34.548  22.930   2.222
47034W        W15428  25.395  10.685   3.789
47035W        W15429   0.327  13.093  13.499
47036W        W15430  34.311  43.534  14.228
47037W        W15431  36.017  17.094  10.737
47038W        W15432  17.342  32.865   4.287
47039W        W15433  27.036  18.795   1.008
47040W        W15434  33.549   6.782   4.894
47041W        W15435  27.683  12.727   2.370
47042W        W15436   8.901  31.523   0.918
47043W        W15437  21.632   2.191  11.024
47044W        W15438  32.099  40.480  12.198
47045W        W15439  36.432  29.322  13.417
47046W        W15440  18.750   6.771   2.383
47047W        W15441  39.412  21.581   3.324
47048W        W15442  33.161  40.037   0.292
47049W        W15443  14.975  30.961  13.877
47050W        W15444  17.198  11.193   0.792
47051W        W15445  40.756  44.736   1.792
47052W        W15446  32.409  35.915  12.271
47053W        W15447  16.609  36.303   1.312
47054W        W15448  16.065  25.500   0.807
47055W        W15449  35.805   4.445   1.411
47056W        W15450   2.234   1.410   1.963
47057W        W15451  10.494  13.583  13.531
47058W        W15452  38.349   7.191  10.604
47059W        W15453  43.332   8.078  12.305
47060W        W15454  33.600  23.534  12.818
47061W        W15455  30.853  27.407  13.572
47062W        W15456  43.527  28.001  12.675
47063W        W15457  24.103   6.693  12.576
47064W        W15458   3.795  31.381  10.976
47065W        W15459  42.472  26.465   0.357
47066W        W15460  16.518  14.118   0.841
47067W        W15461   9.115  42.425  13.899
47068W        W15462  44.070   9.672   1.049
47069W        W15463  28.141  14.212  13.354
47070W        W15464   0.847  38.517  11.531
47071W        W15465  35.257  14.300   2.665
47072W        W15466   8.741  36.748  13.947
47073W        W15467  38.660  11.407  10.364
47074W        W15468  16.625  23.520  14.841
47075W        W15469  22.698   0.375  14.857
47076W        W15470   1.008   1.229  12.511
47077W        W15471  24.226   1.418   0.279
47078W        W15472  41.095  31.384   3.741
47079W        W15473  23.680  10.712   2.551
47080W        W15474  20.165  43.388  13.807
47081W        W15475  24.143  18.866  13.118
47082W        W15476  31.609   2.523   1.706
47083W        W15477  16.980  29.483  10.348
47084W        W15478  44.261   7.638  12.826
47085W        W15479  28.745  34.534   4.640
47086W        W15480  33.607   3.535   1.908
47087W        W15481  10.248  36.934   1.429
47088W        W15482   4.914  38.945   4.587
47089W        W15483  39.878   3.380   2.434
47090W        W15484  25.291  39.716  13.449
47091W        W15485  42.465  30.646  12.060
47092W        W15486  35.174  19.591   1.980
47093W        W15487   6.280  34.886   4.060
47094W        W15488  20.697  20.665   1.803
47095W        W15489  28.352  23.049  12.040
47096W        W15490   5.467  33.110  12.311
47097W        W15491   6.904  42.002  12.111
47098W        W15492  23.053  17.227  10.747
47099W        W15493  39.045  23.246   2.326
47100W        W15494   7.462  41.871  13.713
47101W        W15495  22.689  42.283   4.298
47102W        W15496   4.250  16.069   4.117
47103W        W15497  32.878   0.451   0.602
47104W        W15498  16.152  14.208  11.181
47105W        W15499  19.550  18.442  11.636
47106W        W15500  43.686  19.272   3.780
47107W        W15501  43.920  25.645   0.249
47108W        W15502  22.089  16.579  14.480
47109W        W15503   8.679   4.000  14.327
47110W        W15504  10.389   8.845  14.994
47111W        W15505  23.495  18.665   0.513
47112W        W15506  41.897  36.611  13.008
47113W        W15507  28.251  31.399   2.684
47114W        W15508  39.805  16.795  13.933
47115W        W15509  42.360  32.562   1.867
47116W        W15510  15.154  28.268  10.773
47117W        W15511  22.840   0.907   1.279
47118W        W15512  16.787  10.656  14.251
47119W        W15513  39.796   5.719   3.217
47120W        W15514  18.656  27.254   3.106
47121W        W15515  18.240  27.037  12.630
47122W        W15516  27.520   4.392   0.335
47123W        W15517  21.904  25.259  10.267
47124W        W15518  29.689  41.348  13.063
47125W        W15519  41.796  31.944  13.806
47126W        W15520  16.319  34.456  13.073
47127W        W15521  13.165  42.329   0.110
47128W        W15522  27.555  30.617  11.548
47129W        W15523  18.403  19.265   2.283
47130W        W15524  10.345  30.099  13.352
47131W        W15525  19.520  42.344   1.377
47132W        W15526  16.501  39.813   4.614
47133W        W15527  29.552  20.683  11.788
47134W        W15528  37.411   6.373   4.930
47135W        W15529   2.933   2.428   0.363
47136W        W15530  41.017  34.160   2.735
47137W        W15531  28.999  31.647  12.003
47138W        W15532  20.179  20.735  14.505
47139W        W15533  34.504  37.765   4.789
47140W        W15534  16.502  41.301   2.872
47141W        W15535  37.463  40.993   4.138
47142W        W15536  13.636  10.395  11.167
47143W        W15537  44.187  31.302   0.815
47144W        W15538  14.523   7.016  12.247
47145W        W15539  40.815  43.613  10.687
47146W        W15540  19.050  26.900   0.208
47147W        W15541  32.197  13.840  14.279
47148W        W15542   7.689  28.862  11.995
47149W        W15543  18.927  15.161   3.619
47150W        W15544  25.750  20.669  13.974
47151W        W15545  13.284  29.486  14.048
47152W        W15546  15.391  34.106  14.010
47153W        W15547  41.843  44.096  12.618
47154W        W15548  11.609  15.752  13.809
47155W        W15549  16.747  28.426  11.505
47156W        W15550  12.059  42.859   2.310
47157W        W15551  31.579  22.986   2.625
47158W        W15552  17.247  27.185   2.573
47159W        W15553  42.780  14.354   4.564
47160W        W15554   4.195  18.769  11.564
47161W        W15555  19.175  17.404   3.096
47162W        W15556  12.791  32.464   4.119
47163W        W15557  25.186  33.976  13.587
47164W        W15558  32.438  35.010   0.036
47165W        W15559   2.462   0.233  10.710
47166W        W15560  40.009  13.272   2.684
47167W        W15561   7.189  17.186  14.384
47168W        W15562  35.318  43.166   9.984
47169W        W15563  21.018  22.998  14.469
47170W        W15564  19.081  10.804   3.975
47171W        W15565  21.594  43.828   4.217
47172W        W15566  22.895  36.385  14.442
47173W        W15567  19.738  43.892  13.801
47174W        W15568  22.687  19.109  14.495
47175W        W15569  43.394  33.540  10.286
47176W        W15570  10.837  30.126  10.607
47177W        W15571  27.608   2.884  12.804
47178W        W15572  22.777  17.768   2.780
47179W        W15573  17.119   8.262   2.887
47180W        W15574  12.353  14.882   2.377
47181W        W15575  22.221  36.518  14.971
47182W        W15576  41.255   3.790   4.974
47183W        W15577  35.124  24.656  13.891
47184W        W15578  13.979   7.758  12.052
47185W        W15579  16.811  24.008  12.499
47186W        W15580   4.301   6.990   4.237
47187W        W15581  29.588  17.858   4.668
47188W        W15582   6.220  27.023  11.515
47189W        W15583   8.088  41.015  13.883
47190W        W15584  31.791  27.063  14.849
47191W        W15585  24.168   6.315  13.767
47192W        W15586  26.930  18.633   0.530
47193W        W15587  19.928  17.081  13.722
47194W        W15588  21.501  40.828  14.347
47195W        W15589  30.545  39.803  14.483
47196W        W15590   7.754  35.413   3.584
47197W        W15591  15.762   8.011  13.889
47198W        W15592  40.201  21.763  13.933
47199W        W15593  36.463  22.043  14.389
47200W        W15594  13.301  21.804   3.138
47201W        W15595   1.757   8.686  11.131
47202W        W15596  26.407  12.700   2.060
47203W        W15597  40.562  12.120  12.170
47204W        W15598   8.838  31.978  11.561
47205W        W15599  27.246  15.007   3.609
47206W        W15600  34.698  27.403   1.459
47207W        W15601  35.795   3.851   3.294
47208W        W15602  11.705  14.133  11.188
47209W        W15603  27.974  13.027   0.718
47210W        W15604  24.610  14.386  13.443
47211W        W15605  20.380  36.943   1.806
47212W        W15606  19.208  29.173   0.693
47213W        W15607  18.958  15.683   3.506
47214W        W15608  21.211  18.276  13.000
47215W        W15609   0.930  16.979  13.479
47216W        W15610  13.631  33.786  14.818
47217W        W15611  18.279  33.061   4.565
47218W        W15612  32.725  38.546   4.582
47219W        W15613  15.365  21.606  14.705
47220W        W15614  20.732   7.131  13.305
47221W        W15615  43.515  25.485  12.491
47222W        W15616   3.335   3.666   4.640
47223W        W15617   1.370  19.719  12.654
47224W        W15618  44.797  25.995  13.030
47225W        W15619  38.348  10.758   0.815
47226W        W15620   6.186  38.304   1.580
47227W        W15621  31.941  30.039   4.275
47228W        W15622  32.525  24.229   2.388
47229W        W15623  42.544  37.322  11.667
47230W        W15624  14.810  12.277  12.478
47231W        W15625  40.026  44.250  14.882
47232W        W15626  31.708  22.747  12.394
47233W        W15627   4.308  28.865   0.291
47234W        W15628   6.443  30.897  13.398
47235W        W15629   0.319   9.596  12.070
47236W        W15630  25.057  35.490   0.806
47237W        W15631  23.602  33.521  12.104
47238W        W15632  26.970   5.028   0.622
47239W        W15633  38.890  20.285   2.880
47240W        W15634   6.172  14.133   4.044
47241W        W15635  21.949  18.625  14.317
47242W        W15636  10.812  25.238   2.296
47243W        W15637  11.360  15.048   3.690
47244W        W15638  16.636   5.535   1.475
47245W        W15639  26.587  37.444   4.211
47246W        W15640  24.082  38.502   0.497
47247W        W15641  40.560  17.724  14.269
47248W        W15642  34.441  20.795   2.750
47249W        W15643  10.128   2.260  11.125
47250W        W15644  31.808  21.690   0.002
47251W        W15645  18.996  29.937   2.263
47252W        W15646  33.085   8.351   4.558
47253W        W15647  41.960  23.398   9.931
47254W        W15648  36.074  17.848  12.099
47255W        W15649  39.855  35.735  10.684
47256W        W15650  44.136  17.755   1.433
47257W        W15651  40.942   1.658  13.507
47258W        W15652  12.259  35.384  12.527
47259W        W15653   6.890  30.700   1.223
47260W        W15654   2.949  35.067   3.713
47261W        W15655  16.853  15.311  12.563
47262W        W15656  12.715  10.774  11.961
47263W        W15657  17.047  35.328  12.528
47264W        W15658   1.989   5.356   1.849
47265W        W15659  39.511   3.007  14.763
47266W        W15660  22.276  12.942   1.225
47267W        W15661   8.167  32.187   2.118
47268W        W15662   0.912  33.438   1.606
47269W        W15663   6.220  20.242  11.579
47270W        W15664  27.932  41.454  14.335
47271W        W15665   0.695  43.187  11.634
47272W        W15666   6.959  43.033  11.346
47273W        W15667   5.210   2.035   4.366
47274W        W15668  36.317  32.166   3.169
47275W        W15669   9.293  27.176   3.587
47276W        W15670  34.000  13.481  13.859
47277W        W15671  36.663  17.218   2.187
47278W        W15672  38.557  38.888   4.060
47279W        W15673  10.926   9.692   1.909
47280W        W15674  41.572   5.447   1.786
47281W        W15675  13.185  37.291   2.292
47282W        W15676  27.114   2.163  11.184
47283W        W15677   3.910  29.629   2.137
47284W        W15678  15.360  15.110  11.554
47285W        W15679   9.690  15.460  11.599
47286W        W15680  34.964  22.947   3.944
47287W        W15681   9.968  26.003   9.676
47288W        W15682  35.001   3.530   4.135
47289W        W15683  14.381  30.391   3.042
47290W        W15684  30.416  34.877   1.602
47291W        W15685  27.813  17.106   0.659
47292W        W15686   2.733   3.448  11.555
47293W        W15687  25.734  20.315  12.912
47294W        W15688   0.368  32.998   3.114
47295W        W15689  34.633   7.923   2.787
47296W        W15690  44.359  25.260   5.063
47297W        W15691   9.730  10.740   0.168
47298W        W15692  22.565  28.010   1.992
47299W        W15693  35.625  15.629   2.317
47300W        W15694   4.862   0.308  11.224
47301W        W15695  14.729  21.839   3.728
47302W        W15696  41.698  25.171  14.284
47303W        W15697  11.425  27.200   3.571
47304W        W15698  16.537   7.101   2.825
47305W        W15699  38.533  42.215  10.510
47306W        W15700   8.141  22.614  13.353
47307W        W15701  32.396  38.525  11.561
47308W        W15702  28.622   9.583  13.303
47309W        W15703  12.115  37.242  12.082
47310W        W15704   5.832  18.153  11.555
47311W        W15705  16.471  25.269  11.133
47312W        W15706  33.397  42.451  11.584
47313W        W15707   1.040  14.581   0.267
47314W        W15708  42.700  21.992  13.260
47315W        W15709  19.242  34.430  10.686
47316W        W15710  29.158  23.913  12.515
47317W        W15711  30.411  41.471   4.092
47318W        W15712   1.886  14.243   5.081
47319W        W15713  21.306   1.311   2.826
47320W        W15714  39.857  32.976   1.217
47321W        W15715  41.755  35.542   1.329
47322W        W15716   1.954  16.331  11.085
47323W        W15717  22.737   7.806  12.673
47324W        W15718  33.168  36.083   2.366
47325W        W15719  23.447  22.695   4.102
47326W        W15720  31.098  37.253   4.233
47327W        W15721  36.400  34.345   0.918
47328W        W15722  36.719  15.068  12.522
47329W        W15723   3.674  41.460  12.397
47330W        W15724  27.962  22.666  12.487
47331W        W15725  13.272   4.834   4.660
47332W        W15726  24.354  33.138   2.384
47333W        W15727   8.178  37.540   4.957
47334W        W15728  21.541  19.660  13.259
47335W        W15729  24.817   4.936   2.428
47336W        W15730  24.948  42.401   2.348
47337W        W15731  25.163   1.231   0.541
47338W        W15732  15.995   8.669  13.103
47339W        W15733  20.585   6.218   2.435
47340W        W15734  11.615   6.144   4.372
47341W        W15735  17.815  10.554   0.826
47342W        W15736   3.256  17.556   4.048
47343W        W15737  35.952  12.246   2.280
47344W        W15738  22.592  44.281   4.104
47345W        W15739  26.647  30.108   0.019
47346W        W15740  37.244  11.678  12.022
47347W        W15741  26.544  21.379  11.931
47348W        W15742  23.218  35.382  14.452
47349W        W15743  16.039  27.645   3.193
47350W        W15744  16.333  35.533  13.052
47351W        W15745  44.759  30.487   2.798
47352W        W15746  23.450  39.989   1.423
47353W        W15747   7.714  23.145  11.669
47354W        W15748  18.279  30.371  10.427
47355W        W15749  42.466  41.011  14.050
47356W        W15750  27.976  11.376   1.817
47357W        W15751  31.923  30.945  14.364
47358W        W15752  22.494  40.445  13.880
47359W        W15753  38.331  21.290   1.166
47360W        W15754  33.636   9.247  12.910
47361W        W15755  26.759  37.829   2.643
47362W        W15756  43.789  11.875   4.919
47363W        W15757  32.116  27.768   2.011
47364W        W15758  25.607  21.209  13.895
47365W        W15759   9.226  34.386   2.434
47366W        W15760  43.963  23.923   0.929
47367W        W15761   2.768  24.596   3.384
47368W        W15762  43.424  32.220  11.059
47369W        W15763  22.100  36.298   0.499
47370W        W15764  43.267  37.399   3.123
47371W        W15765  37.950  42.788   0.894
47372W        W15766  22.188  33.351   2.438
47373W        W15767  13.216  15.771   0.941
47374W        W15768  38.055  30.090   0.553
47375W        W15769  11.615  39.388   2.493
47376W        W15770  34.478  39.072  11.508
47377W        W15771  40.486  42.894   2.693
47378W        W15772  31.105  31.976  12.923
47379W        W15773   2.951  17.053  13.269
47380W        W15774  20.422  39.680   4.134
47381W        W15775  27.176  16.609   4.804
47382W        W15776   0.440   6.550  12.972
47383W        W15777   0.570   6.821   4.203
47384W        W15778  20.985  41.931  11.219
47385W        W15779  18.016  31.569   1.306
47386W        W15780  39.323   0.700   4.875
47387W        W15781   3.733  40.320  10.819
47388W        W15782  34.118  21.759   2.716
47389W        W15783  34.869  30.828   3.138
47390W        W15784  18.368  33.413   1.714
47391W        W15785  37.093   9.186   0.813
47392W        W15786  15.173  44.917  12.372
47393W        W15787  29.821   9.296   3.649
47394W        W15788  26.962  14.639  13.396
47395W        W15789  38.101  16.802  10.711
47396W        W15790  38.082  32.147   2.736
47397W        W15791  30.193  21.177  12.075
47398W        W15792  28.754  27.159  14.374
47399W        W15793  33.546  20.256   1.405
47400W        W15794  20.315  26.099   0.906
47401W        W15795  36.533  17.295   4.613
47402W        W15796   9.156  21.718   4.748
47403W        W15797  28.237  43.352  10.954
47404W        W15798  21.794  31.693   4.566
47405W        W15799  22.618  43.268   4.480
47406W        W15800  26.175  16.397  11.042
47407W        W15801   5.683  30.986  14.547
47408W        W15802  12.969   1.937   4.706
47409W        W15803   9.344  37.020   1.293
47410W        W15804  18.584  42.746   2.746
47411W        W15805  42.004  31.374   3.574
47412W        W15806  19.160  13.335   1.388
47413W        W15807  39.840   6.635   1.254
47414W        W15808   0.961   6.660  12.883
47415W        W15809   2.432  38.581   1.685
47416W        W15810  20.210  44.437   2.732
47417W        W15811  29.603   2.779  14.174
47418W        W15812  30.453  37.062  14.721
47419W        W15813  23.031   6.706  14.325
47420W        W15814  39.767   8.570  11.573
47421W        W15815  42.356   2.383  13.614
47422W        W15816  12.706  17.696  11.580
47423W        W15817   1.891  17.271  11.151
47424W        W15818  20.382  16.668  10.108
47425W        W15819  39.276  35.505   2.853
47426W        W15820  28.368  11.210   2.782
47427W        W15821   6.644  42.958  11.751
47428W        W15822   4.234   5.715  11.007
47429W        W15823  42.802  12.283  13.796
47430W        W15824  11.369  24.976  13.868
47431W        W15825  13.804   5.801  11.203
47432W        W15826   6.774  40.249  14.778
47433W        W15827  40.832  38.436   2.148
47434W        W15828  26.594  34.618   2.284
47435W        W15829   1.298  17.217   4.487
47436W        W15830  43.450   2.773   3.300
47437W        W15831  32.473  26.593   9.962
47438W        W15832  28.747  22.740   2.081
47439W        W15833  32.508  11.365   2.827
47440W        W15834   8.422  15.905  14.006
47441W        W15835   7.949  10.332   0.264
47442W        W15836  15.282  43.799   3.001
47443W        W15837  25.462  20.344  13.348
47444W        W15838  23.662  39.562   0.781
47445W        W15839  24.564  36.026  13.797
47446W        W15840  17.132  24.039   1.932
47447W        W15841  44.368   5.850  14.835
47448W        W15842  20.097  23.432   4.155
47449W        W15843  21.284  21.023   1.143
47450W        W15844  35.907  26.692  13.991
47451W        W15845   5.374  41.393   3.315
47452W        W15846  29.583  39.028  11.225
47453W        W15847  38.385  29.980  14.269
47454W        W15848  42.424  36.519  12.337
47455W        W15849  10.567  26.736  12.441
47456W        W15850  36.923  21.031   0.984
47457W        W15851  39.680  31.141   0.804
47458W        W15852  32.007   3.635   1.303
47459W        W15853   4.741   1.742   1.238
47460W        W15854  28.248  14.044  11.345
47461W        W15855   1.083  21.427  12.135
47462W        W15856  35.509  27.094  12.454
47463W        W15857  35.280  13.666  13.098
47464W        W15858   8.795  13.171  14.404
47465W        W15859  20.248  22.805  13.926
47466W        W15860   1.276  30.625   4.158
47467W        W15861  21.722  12.121   1.438
47468W        W15862  34.033  11.176   0.515
47469W        W15863  16.486  41.496   1.529
47470W        W15864   9.828  35.087   3.293
47471W        W15865  39.840  37.482  14.846
47472W        W15866   5.669  18.147  12.123
47473W        W15867  34.922   3.477   4.644
47474W        W15868  22.822  40.909  12.089
47475W        W15869  34.990  18.776   0.392
47476W        W15870   9.829  37.014   1.092
47477W        W15871   9.274  15.384  13.953
47478W        W15872  31.992  19.860  12.496
47479W        W15873   2.716  16.792  11.039
47480W        W15874  37.376   4.573  12.495
47481W        W15875  41.599  41.152  14.371
47482W        W15876  12.887  13.796   4.569
47483W        W15877  19.509  17.986  13.894
47484W        W15878  17.435  38.900  11.058
47485W        W15879  41.635  32.744  12.479
47486W        W15880   7.159  28.666   3.889
47487W        W15881  28.350  36.604  12.633
47488W        W15882  36.626  21.018   3.614
47489W        W15883  26.996  33.629   4.111
47490W        W15884  43.043  14.354   1.698
47491W        W15885   9.484   5.631   2.695
47492W        W15886   7.640   5.440   1.919
47493W        W15887   3.224  15.096  11.476
47494W        W15888   9.105  13.173  12.005
47495W        W15889   7.260  24.219   0.311
47496W        W15890  30.662  13.967   3.161
47497W        W15891   1.476  26.154   0.263
47498W        W15892  39.517  39.735  13.948
47499W        W15893   7.515   6.264  14.623
47500W        W15894  39.184  39.494  13.070
47501W        W15895  32.629  34.153  14.976
47502W        W15896  33.299  20.269   0.943
47503W        W15897  32.813  39.136  14.058
47504W        W15898  27.160  37.366   3.879
47505W        W15899  12.829  40.403   0.548
47506W        W15900  16.056  35.673   4.224
47507W        W15901  24.091  20.024   0.730
47508W        W15902  27.604   8.729   3.648
47509W        W15903  20.113  28.683   2.878
47510W        W15904  39.561  11.398  11.588
47511W        W15905  31.215  22.620   4.295
47512W        W15906  13.310  31.913  10.776
47513W        W15907  43.227  21.117  13.863
47514W        W15908  40.341  17.114   2.832
47515W        W15909  22.123  41.210  13.678
47516W        W15910  43.351  27.324  14.852
47517W        W15911  28.575  16.619   0.015
47518W        W15912  34.656  22.231  10.530
47519W        W15913  34.932   5.790   2.484
47520W        W15914  39.954  36.902   0.509
47521W        W15915  11.972  31.945   0.925
47522W        W15916  44.995   3.649   3.000
47523W        W15917  44.380   2.244  14.900
47524W        W15918  25.233  15.323   0.841
47525W        W15919  28.077  35.425   4.062
47526W        W15920  26.527   4.888   0.375
47527W        W15921  19.797   1.454  14.974
47528W        W15922  22.770  39.397   2.800
47529W        W15923  21.819   6.548  12.905
47530W        W15924  42.790  29.210  10.652
47531W        W15925  27.659  21.303  14.045
47532W        W15926  39.780   1.364  12.291
47533W        W15927  20.561  16.366  11.594
47534W        W15928   2.754  28.430   0.453
47535W        W15929  15.044  17.813  14.361
47536W        W15930   5.766   7.762  14.774
47537W        W15931  10.680  30.165  11.112
47538W        W15932  37.166  10.276  12.974
47539W        W15933  37.077  44.990   1.389
47540W        W15934  22.198  26.079   4.289
47541W        W15935   9.617   0.834   2.327
47542W        W15936  22.013  33.120   1.766
47543W        W15937  23.219   2.251  12.448
47544W        W15938  11.723  36.220  13.594
47545W        W15939  23.482  22.716  11.194
47546W        W15940  12.618  28.997  12.892
47547W        W15941  17.892   7.853  10.112
47548W        W15942   3.441   7.793  14.298
47549W        W15943   7.769  17.745   4.695
47550W        W15944  24.280   5.685   2.835
47551W        W15945  10.494  14.975   0.529
47552W        W15946  18.378  34.286   0.454
47553W        W15947  29.368  20.561  14.308
47554W        W15948  39.534  18.863   3.871
47555W        W15949  29.432   5.926   1.394
47556W        W15950  39.336  15.127   1.629
47557W        W15951  25.023  39.959   0.279
47558W        W15952  28.453  20.098   3.635
47559W        W15953  11.798  29.892   4.083
47560W        W15954  28.074  19.275   4.630
47561W        W15955  24.753  43.954   3.707
47562W        W15956  19.691  42.884  13.158
47563W        W15957   7.777  21.713  13.058
47564W        W15958  33.612  30.872  12.203
47565W        W15959  42.396  28.609   1.376
47566W        W15960   9.311  44.060   3.273
47567W        W15961   0.054   1.698  14.468
47568W        W15962  40.542  30.070   0.894
47569W        W15963  41.104  43.390   1.090
47570W        W15964  11.393  41.838   3.198
47571W        W15965  22.101  23.307   4.163
47572W        W15966  38.888   4.492   1.223
47573W        W15967  23.104  41.029  13.344
47574W        W15968  32.411  13.871   4.254
47575W        W15969   6.723  23.086   4.083
47576W        W15970  19.627   3.909   2.426
47577W        W15971  35.046  10.442   0.034
47578W        W15972  38.562  32.176  14.046
47579W        W15973  13.947   7.966   1.271
47580W        W15974  29.625   5.563   3.365
47581W        W15975  41.816  27.145  10.939
47582W        W15976  11.170  20.404  14.383
47583W        W15977  18.156   6.305   4.388
47584W        W15978  20.720  34.336  12.352
47585W        W15979   6.577   8.433  10.679
47586W        W15980  35.922   8.190   1.178
47587W        W15981   2.276  19.139   2.268
47588W        W15982  15.253   3.272  11.239
47589W        W15983  18.145  22.585  11.532
47590W        W15984   1.163  35.903   4.501
47591W        W15985  43.531   8.241   4.378
47592W        W15986   7.930  19.000   0.249
47593W        W15987  19.280  21.523  14.416
47594W        W15988  31.727  41.357  11.595
47595W        W15989   0.441  44.437   1.406
47596W        W15990   5.147  14.682   2.653
47597W        W15991  40.542  14.243  14.798
47598W        W15992  34.491  28.749  12.132
47599W        W15993  29.917  25.455  13.647
47600W        W15994  28.960   5.020   3.726
47601W        W15995  34.882  13.295   2.774
47602W        W15996  20.594   3.740   4.598
47603W        W15997  34.319  19.209  11.235
47604W        W15998  18.684  42.219  11.907
47605W        W15999   3.495  20.312  13.620
47606W        W16000   4.306  21.424  12.806
47607W        W16001  16.388  33.620   2.302
47608W        W16002  31.131   3.139  13.538
47609W        W16003   2.017  29.750   3.765
47610W        W16004  19.056  12.102   0.713
47611W        W16005  41.036  38.822  13.492
47612W        W16006  34.522  12.802  12.870
47613W        W16007   2.986  20.629   4.876
47614W        W16008   5.188   8.386  14.395
47615W        W16009  38.926  33.156   3.181
47616W        W16010  21.917  27.025   2.902
47617W        W16011   6.805  18.164   1.901
47618W        W16012  44.878  42.886   0.415
47619W        W16013  13.807  14.820   1.027
47620W        W16014  31.448  25.128  12.220
47621W        W16015   7.482   1.928  13.406
47622W        W16016  32.238  15.157   3.238
47623W        W16017  12.171  11.251  10.783
47624W        W16018  43.744  42.208   0.414
47625W        W16019   2.290   3.410  14.003
47626W        W16020  11.708  18.714   4.711
47627W        W16021  30.052   6.438   3.882
47628W        W16022  44.941  23.987   3.245
47629W        W16023  31.442   0.225  13.510
47630W        W16024   2.885  23.634  12.616
47631W        W16025  41.811  10.265   3.987
47632W        W16026   4.887  38.556  12.200
47633W        W16027  24.051   2.393  12.012
47634W        W16028  26.968  38.297  13.957
47635W        W16029   5.468  26.109   4.089
47636W        W16030  19.159  35.842   0.461
47637W        W16031  35.814  11.108  11.345
47638W        W16032   4.223  30.140  10.766
47639W        W16033  36.904  35.438  11.148
47640W        W16034  14.680  31.010  10.654
47641W        W16035  33.614  28.652   3.067
47642W        W16036   1.314  14.742   4.103
47643W        W16037  23.584   3.898  14.411
47644W        W16038  23.257   7.324  14.621
47645W        W16039   7.205  27.465   2.668
47646W        W16040  44.477  38.578   5.055
47647W        W16041   2.521   0.988   5.062
47648W        W16042   9.988  40.936   4.045
47649W        W16043  43.270  14.036   3.057
47650W        W16044  17.741  24.380   0.477
47651W        W16045  44.933  33.904   3.847
47652W        W16046  35.264  34.797  11.905
47653W        W16047  37.480  26.935  13.852
47654W        W16048  40.534   6.821   3.763
47655W        W16049   2.742  39.520   0.777
47656W        W16050  19.630  40.129  11.171
47657W        W16051  38.323  10.868  11.953
47658W        W16052  24.929  16.937   2.423
47659W        W16053  26.571  42.042   1.329
47660W        W16054  18.797   0.931  12.704
47661W        W16055  12.776  28.639  13.334
47662W        W16056  44.328  26.171  12.816
47663W        W16057  28.578  29.935  14.837
47664W        W16058   2.838   0.210  12.854
47665W        W16059  24.789  10.694  13.842
47666W        W16060  42.482  11.784   1.315
47667W        W16061   9.838   6.260  14.877
47668W        W16062  20.030  23.981   0.222
47669W        W16063  27.548  11.382   3.149
47670W        W16064  22.005   1.508  13.283
47671W        W16065   7.788   7.845   0.757
47672W        W16066  42.748  21.184  11.113
47673W        W16067  37.199  24.033   1.028
47674W        W16068  38.925   5.693   1.756
47675W        W16069  37.785  37.588  11.602
47676W        W16070  33.987  42.297  13.998
47677W        W16071  44.032  29.733  11.579
47678W        W16072  27.170  15.793   4.190
47679W        W16073   3.238  42.870   1.377
47680W        W16074   3.987   9.707   1.458
47681W        W16075  10.338   4.313  14.505
47682W        W16076   1.496  30.125  11.574
47683W        W16077  17.094  37.379  13.064
47684W        W16078  18.014   6.630  14.760
47685W        W16079  42.049  17.539  12.410
47686W        W16080  37.548   2.863  14.929
47687W        W16081  26.110  34.057   4.099
47688W        W16082  33.661  24.120   1.730
47689W        W16083  21.814   5.855  10.590
47690W        W16084  44.755  25.829   0.435
47691W        W16085  19.189   6.777  11.538
47692W        W16086  20.159   4.774  14.977
47693W        W16087   5.746  25.090  13.376
47694W        W16088  33.334  43.304  13.385
47695W        W16089  13.797  26.206   3.356
47696W        W16090  24.626   9.693   5.781
47697W        W16091  31.465   7.512   4.353
47698W        W16092  16.113  31.232   2.362
47699W        W16093  12.887  39.427  14.425
47700W        W16094   2.237  12.736   2.185
47701W        W16095  39.348  35.090   1.274
47702W        W16096  25.647  22.733   3.686
47703W        W16097  22.568  16.573   4.620
47704W        W16098  21.978  22.176   0.965
47705W        W16099  17.859  15.000   1.234
47706W        W16100   5.234  36.344  12.118
47707W        W16101   6.176  21.047   1.525
47708W        W16102  36.792  20.800  13.438
47709W        W16103  32.323  32.336   3.244
47710W        W16104  21.745  19.666   0.877
47711W        W16105  36.353  12.289  12.395
47712W        W16106  32.698  23.646   3.131
47713W        W16107  24.711  30.305   3.196
47714W        W16108   8.391  19.679   4.846
47715W        W16109  19.257   5.937  11.948
47716W        W16110  23.079  26.582   2.361
47717W        W16111  28.739   1.383   5.012
47718W        W16112  41.377  31.971  11.098
47719W        W16113  41.690   8.296  14.301
47720W        W16114   8.271  37.063   4.053
47721W        W16115  21.714  44.165  12.435
47722W        W16116  39.777   8.212   1.931
47723W        W16117   4.177  20.204  12.206
47724W        W16118  43.964  13.166   0.319
47725W        W16119  26.767   9.272  10.458
47726W        W16120  42.416  31.333   4.751
47727W        W16121  27.653  26.154  13.327
47728W        W16122  38.985  40.707   0.466
47729W        W16123  12.905  23.015  10.971
47730W        W16124  17.221  15.192   1.952
47731W        W16125   7.727  22.288   3.757
47732W        W16126  13.797  38.944  12.888
47733W        W16127  25.128   3.659   0.343
47734W        W16128  43.940  31.581   0.389
47735W        W16129  39.537  22.082  12.974
47736W        W16130  30.673  31.751  10.160
47737W        W16131  22.137   7.959  13.088
47738W        W16132   5.274   1.897   2.601
47739W        W16133  35.357  19.139   3.073
47740W        W16134  30.592  37.919  14.570
47741W        W16135  27.727  44.596   3.722
47742W        W16136  25.940  21.522   4.472
47743W        W16137  33.600  40.939   2.909
47744W        W16138  24.886   2.448   1.883
47745W        W16139  42.334   0.905  14.267
47746W        W16140  36.484  39.332  13.948
47747W        W16141   3.002  28.832  13.838
47748W        W16142  31.035  19.260  13.010
47749W        W16143   9.858   8.543  14.408
47750W        W16144  23.269   8.916  11.063
47751W        W16145  29.490  16.372  11.950
47752W        W16146  28.992   4.844  14.440
47753W        W16147   9.127  40.601   2.666
47754W        W16148  36.063  25.952   1.067
47755W        W16149  22.793  10.738  11.577
47756W        W16150  25.310  10.357   2.756
47757W        W16151  19.230  10.192  11.901
47758W        W16152   6.312  42.536   5.083
47759W        W16153  44.170  15.611  10.789
47760W        W16154  30.977  26.057   3.533
47761W        W16155  21.522  32.503  11.071
47762W        W16156   5.192  39.443   0.372
47763W        W16157  21.873  12.868  12.946
47764W        W16158   4.454  19.117  10.588
47765W        W16159  14.758   5.776  10.997
47766W        W16160  33.287  33.454   1.023
47767W        W16161  31.742  34.034  11.656
47768W        W16162  19.373  15.175  12.655
47769W        W16163  37.356  28.540  13.327
47770W        W16164  31.069  30.721  12.156
47771W        W16165  36.444   6.477  13.896
47772W        W16166  13.698  42.424  14.052
47773W        W16167  16.729  41.735  14.876
47774W        W16168  31.954  23.054  12.762
47775W        W16169  19.532   8.802   3.105
47776W        W16170   5.488  36.340  12.620
47777W        W16171  23.071  27.950   1.837
47778W        W16172  18.252  31.105   4.605
47779W        W16173  16.590  20.811   3.610
47780W        W16174  37.356  40.826   4.626
47781W        W16175  23.527  40.124  13.053
47782W        W16176  28.439  29.121   3.665
47783W        W16177  25.469  36.340   0.609
47784W        W16178   7.141   7.141   4.183
47785W        W16179   0.355  33.479  11.830
47786W        W16180  13.032  39.979   0.288
47787W        W16181  12.798  39.600   2.794
47788W        W16182  20.015  30.592   0.929
47789W        W16183  10.783  43.897   2.724
47790W        W16184  33.711  25.111  10.108
47791W        W16185   9.996  17.277  12.966
47792W        W16186  36.497   7.498   5.056
47793W        W16187  16.583  34.352   1.478
47794W        W16188  20.072  21.226   2.055
47795W        W16189   1.057   9.661  12.332
47796W        W16190  25.518  37.086  13.098
47797W        W16191  18.143  30.546   2.152
47798W        W16192  23.793   8.620   3.558
47799W        W16193  12.270  11.080  14.451
47800W        W16194   9.161   8.088   0.740
47801W        W16195  14.678  33.291  11.995
47802W        W16196   2.390   9.307  13.911
47803W        W16197   5.865  24.159  12.592
47804W        W16198  37.176  32.836  11.119
47805W        W16199  30.968  12.548  13.856
47806W        W16200  14.160  40.020  13.783
47807W        W16201  29.386  28.877  11.154
47808W        W16202  37.847  14.870   0.772
47809W        W16203   2.228   1.906  12.682
47810W        W16204  30.106  29.370   1.305
47811W        W16205  42.420   1.580  11.580
47812W        W16206  39.130   9.422  10.636
47813W        W16207  33.768  16.672  12.445
47814W        W16208   8.009  12.401  13.208
47815W        W16209  21.671   5.860  14.278
47816W        W16210  34.424   9.669  13.998
47817W        W16211  23.031  29.120   3.639
47818W        W16212   9.176   8.306  12.200
47819W        W16213  13.336   2.243  13.333
47820W        W16214   7.733  14.291  12.102
47821W        W16215  42.786   9.782   4.132
47822W        W16216  28.077   3.343   2.795
47823W        W16217  16.874  16.153  11.550
47824W        W16218  12.691  36.565   0.307
47825W        W16219  13.252  44.065  10.956
47826W        W16220  37.590  10.933  11.158
47827W        W16221  17.386  23.940   4.215
47828W        W16222  36.461  32.944   2.845
47829W        W16223  17.085  14.890  11.550
47830W        W16224  39.776   9.320  12.008
47831W        W16225  15.568   1.937  13.050
47832W        W16226   8.752  43.890  13.116
47833W        W16227   9.693  43.458   3.898
47834W        W16228  19.964  43.745   2.197
47835W        W16229  16.773  20.430  12.421
47836W        W16230   1.032  19.297  11.209
47837W        W16231   8.588  40.471  14.563
47838W        W16232  15.266  10.627   0.816
47839W        W16233  15.261  27.108   4.618
47840W        W16234  36.541  20.916  13.003
47841W        W16235   4.019   7.887  14.308
47842W        W16236  10.168  42.934  13.476
47843W        W16237  21.418  21.229  11.214
47844W        W16238  17.489  30.040   4.987
47845W        W16239  28.147  35.873  11.649
47846W        W16240  34.990  22.575   2.272
47847W        W16241  29.519  43.384   1.351
47848W        W16242   9.195  25.283   5.464
47849W        W16243  42.515  36.015  13.941
47850W        W16244  37.260   7.358  13.498
47851W        W16245   3.883  27.991  10.765
47852W        W16246   6.725  44.764   1.132
47853W        W16247   8.506  21.902   1.258
47854W        W16248  30.019  11.328  13.364
47855W        W16249  18.631   0.562   3.645
47856W        W16250  30.918  18.802   1.748
47857W        W16251  13.738  39.724  13.632
47858W        W16252   0.267  10.729   3.317
47859W        W16253  28.939  33.019  13.827
47860W        W16254  28.117  33.716  10.261
47861W        W16255  19.033  37.949  12.527
47862W        W16256  38.396   3.370  10.224
47863W        W16257  26.017  24.691  13.469
47864W        W16258  13.833   5.796   0.764
47865W        W16259  39.909  15.070   0.458
47866W        W16260  40.827  35.877   2.145
47867W        W16261   9.918  42.456  13.445
47868W        W16262  44.279   7.600  11.439
47869W        W16263  31.113   6.736   1.376
47870W        W16264   3.211  21.205  11.641
47871W        W16265  31.704  12.885  12.941
47872W        W16266  29.075   0.831  12.048
47873W        W16267  15.825  40.242   2.804
47874W        W16268  32.998   5.426  14.021
47875W        W16269  42.882  36.362  10.777
47876W        W16270   3.725  37.752   2.759
47877W        W16271  39.879  18.986  14.095
47878W        W16272   1.241   6.358  10.273
47879W        W16273  25.174  35.929   0.527
47880W        W16274  11.792  22.721   0.237
47881W        W16275   7.001  23.585  11.165
47882W        W16276  13.422   2.150  12.476
47883W        W16277  11.403  19.177   3.152
47884W        W16278  42.464  20.245  13.131
47885W        W16279  34.188   3.807   0.459
47886W        W16280  34.398  17.763   2.307
47887W        W16281  29.375  16.729   2.971
47888W        W16282  23.952   5.871   1.867
47889W        W16283   2.278   7.943  12.067
47890W        W16284   5.251  37.020   1.267
47891W        W16285  18.709   3.900  14.434
47892W        W16286  33.385  27.738   2.290
47893W        W16287  41.876   0.968  14.934
47894W        W16288  32.569  14.549  13.936
47895W        W16289   9.935   8.722   4.688
47896W        W16290   3.859   1.367  11.069
47897W        W16291  27.092  12.206   2.391
47898W        W16292  36.648   5.344  12.439
47899W        W16293  18.172  26.597   4.247
47900W        W16294  21.981  12.349  12.563
47901W        W16295  23.157  21.455   0.803
47902W        W16296   7.702  22.002  14.942
47903W        W16297  44.158  28.399   1.707
47904W        W16298  38.854  37.499  10.711
47905W        W16299  22.690  18.273   1.630
47906W        W16300  26.317   5.654  12.008
47907W        W16301  16.234  15.050   3.568
47908W        W16302  10.193  11.545   2.113
47909W        W16303  36.568  15.897  10.038
47910W        W16304  20.782   0.882   0.763
47911W        W16305   1.660  33.548   0.617
47912W        W16306  39.486  30.944   1.263
47913W        W16307  20.993  41.358  11.613
47914W        W16308   2.198  36.017  13.928
47915W        W16309  33.717  38.997   1.311
47916W        W16310   9.533   6.102  11.622
47917W        W16311  18.505  19.445  13.574
47918W        W16312   9.660  11.783  12.378
47919W        W16313  16.614  24.262   2.649
47920W        W16314  13.544  41.904   1.759
47921W        W16315  17.098  42.502   1.268
47922W        W16316  34.342  22.517  14.295
47923W        W16317  44.944  18.171   3.902
47924W        W16318  30.546  39.284  14.414
47925W        W16319  40.690  33.046  14.833
47926W        W16320  18.003  20.569   0.458
47927W        W16321  38.370   2.592   0.843
47928W        W16322  26.691  35.040   4.054
47929W        W16323  31.385  38.902   3.301
47930W        W16324   3.400  43.389  11.817
47931W        W16325  34.126  23.806   3.755
47932W        W16326  22.069  39.536   0.331
47933W        W16327  19.991  39.313   0.315
47934W        W16328  16.733  37.920   2.165
47935W        W16329  26.645  43.693  14.334
47936W        W16330  20.023   6.987  12.135
47937W        W16331  34.924  36.849   1.407
47938W        W16332  17.286   4.420   2.342
47939W        W16333  35.495   4.844   1.246
47940W        W16334  39.372  20.412   2.206
47941W        W16335   5.346  28.561  14.526
47942W        W16336  35.094   9.924  14.882
47943W        W16337   8.344  11.378   3.406
47944W        W16338  19.140  19.648  13.022
47945W        W16339  32.160  28.847  14.406
47946W        W16340  16.140  38.553  13.824
47947W        W16341  33.799  19.603  14.380
47948W        W16342  10.826   3.015   3.206
47949W        W16343  26.696  12.937   2.594
47950W        W16344  14.541   8.827   0.910
47951W        W16345  40.331   7.789   3.793
47952W        W16346  43.552  24.154   0.674
47953W        W16347  43.258  29.695   0.291
47954W        W16348  35.786  11.185  13.849
47955W        W16349  11.654  25.937  13.942
47956W        W16350  13.773  34.787   1.119
47957W        W16351  41.252   1.828   1.445
47958W        W16352  37.033  21.711  12.920
47959W        W16353  22.015   1.723   3.628
47960W        W16354  23.705   0.633  12.880
47961W        W16355  14.327  13.394   0.794
47962W        W16356   0.967  14.650  13.141
47963W        W16357  44.997   5.263  14.369
47964W        W16358  35.573  17.904   1.798
47965W        W16359  39.175   8.561  13.089
47966W        W16360   5.670  29.801  12.521
47967W        W16361  20.675  20.795  14.252
47968W        W16362  41.791  13.182   4.605
47969W        W16363  41.745  24.223  13.378
47970W        W16364  37.691  32.205  12.541
47971W        W16365  34.945  20.864  11.189
47972W        W16366  24.004  18.629  10.395
47973W        W16367  18.765  19.948  11.951
47974W        W16368  22.206  25.605   4.473
47975W        W16369  14.228  19.777   2.299
47976W        W16370   7.761  36.980  14.254
47977W        W16371  29.898  33.123   3.270
47978W        W16372  14.990   9.735  13.050
47979W        W16373  30.759   3.679  14.872
47980W        W16374  34.285  33.531  13.209
47981W        W16375  26.362  26.401   1.775
47982W        W16376  23.598  13.574   3.755
47983W        W16377   8.861   4.894  10.245
47984W        W16378  14.133  28.594  13.070
47985W        W16379  39.603  11.602  10.339
47986W        W16380  43.888  23.488   0.652
47987W        W16381  28.331  37.444   4.850
47988W        W16382   6.549   9.816   4.146
47989W        W16383  26.275  35.845   3.956
47990W        W16384  35.003  38.717   1.378
47991W        W16385   0.313   1.215  13.700
47992W        W16386  44.445  15.016   2.837
47993W        W16387  31.406  41.512   1.867
47994W        W16388  28.210   0.514   3.617
47995W        W16389  19.155  22.242  11.759
47996W        W16390  11.258   5.005   1.760
47997W        W16391  30.428   3.282   3.737
47998W        W16392  39.479  18.235  13.012
47999W        W16393  42.482  18.696   4.078
48000W        W16394  17.382   1.704  12.571
48001W        W16395  35.023  25.286   4.273
48002W        W16396  11.387   0.736   3.163
48003W        W16397  13.150  15.336   2.781
48004W        W16398  43.264   6.666   0.317
48005W        W16399  27.612   0.017   0.151
48006W        W16400   1.239  18.067  11.481
48007W        W16401  35.523   8.371   1.485
48008W        W16402  38.981  37.032  14.393
48009W        W16403  22.699  22.483  10.640
48010W        W16404  33.697  26.146   3.157
48011W        W16405  18.201  27.241   1.955
48012W        W16406  39.694  15.094   1.993
48013W        W16407  40.425   2.456   0.321
48014W        W16408  28.671  33.703  10.510
48015W        W16409  27.937  37.927  12.954
48016W        W16410  15.905  20.654  11.812
48017W        W16411   5.169  36.281   1.870
48018W        W16412  31.185   0.716   4.084
48019W        W16413   5.456  36.139  13.774
48020W        W16414  21.098  24.503   0.480
48021W        W16415  10.593  42.330  12.556
48022W        W16416   6.638  28.673   3.852
48023W        W16417  19.026   4.290  14.360
48024W        W16418  28.537  23.296   0.272
48025W        W16419  25.209  10.622  14.713
48026W        W16420   8.672  17.855   2.181
48027W        W16421  12.030  28.078   3.753
48028W        W16422  19.279  38.979   4.092
48029W        W16423   5.955  20.081  14.728
48030W        W16424  37.084  25.984  12.857
48031W        W16425  30.008  20.465  11.662
48032W        W16426  43.339  12.352  10.669
48033W        W16427  12.960  37.378   3.084
48034W        W16428   0.925  27.975   4.204
48035W        W16429  15.808  32.785   0.932
48036W        W16430  40.827  23.218  13.390
48037W        W16431  39.616  21.384   5.315
48038W        W16432  12.198  14.264   3.943
48039W        W16433   4.330  40.756   0.239
48040W        W16434   4.374  34.806   3.041
48041W        W16435  36.502  27.042   1.220
48042W        W16436  30.833  24.308   5.119
48043W        W16437  42.786   7.900   0.461
48044W        W16438  30.791  27.202  11.915
48045W        W16439  22.107  13.608   2.739
48046W        W16440   6.918  15.368   2.795
48047W        W16441  43.783  30.147  13.369
48048W        W16442  35.110  21.098  12.917
48049W        W16443   3.718  33.980   3.159
48050W        W16444  30.047  36.465   3.525
48051W        W16445  29.885  18.526   2.334
48052W        W16446  27.040  43.116   2.037
48053W        W16447  12.231   5.164  11.283
48054W        W16448  26.233  42.555  12.309
48055W        W16449  37.499  17.201   3.826
48056W        W16450  31.335  36.458  13.577
48057W        W16451  44.778  15.014  11.106
48058W        W16452  38.718   8.003  14.439
48059W        W16453  34.036  11.674   3.887
48060W        W16454  32.638  16.649  13.320
48061W        W16455  18.869  28.847   2.749
48062W        W16456  18.233  24.726  14.872
48063W        W16457   6.913  24.991  13.130
48064W        W16458  34.085  27.392   2.849
48065W        W16459   5.148  36.250   4.758
48066W        W16460  23.671  42.502   2.858
48067W        W16461  41.948  14.839  14.571
48068W        W16462  32.950  29.144   3.981
48069W        W16463  17.568  27.080   0.761
48070W        W16464   8.780  28.820  10.681
48071W        W16465  32.826  32.151   5.167
48072W        W16466  14.062  38.797  12.478
48073W        W16467  23.808  14.755   3.130
48074W        W16468  12.262  33.316   3.442
48075W        W16469   9.659  39.597  12.503
48076W        W16470  21.024  25.518  14.094
48077W        W16471   6.418   9.389  11.509
48078W        W16472  33.586  28.595   1.621
48079W        W16473  19.223  40.021  14.503
48080W        W16474  40.405  41.122  12.554
48081W        W16475   2.283   6.364  13.864
48082W        W16476  15.032  36.960  11.048
48083W        W16477  38.564   3.030   0.508
48084W        W16478  32.309  18.279   0.813
48085W        W16479  20.431  37.457   4.909
48086W        W16480  36.789  38.800   4.700
48087W        W16481  23.977  36.960  10.737
48088W        W16482  14.310  32.994  13.567
48089W        W16483   0.583  19.157   4.071
48090W        W16484  24.504  18.541   2.267
48091W        W16485  21.162  21.622   4.955
48092W        W16486  42.471   6.077  11.469
48093W        W16487  25.922  28.317   0.308
48094W        W16488   0.337  35.947   4.101
48095W        W16489   4.416  30.419   1.226
48096W        W16490  15.736   0.362  10.639
48097W        W16491  29.421  13.399  13.309
48098W        W16492   4.004   2.792   0.864
48099W        W16493  18.413  19.838  11.293
48100W        W16494  30.236  16.045  12.252
48101W        W16495   6.528  27.006   4.080
48102W        W16496   1.909   2.261   2.190
48103W        W16497   2.040  34.805   3.662
48104W        W16498   6.372   1.379   2.840
48105W        W16499  25.864   4.761  10.172
48106W        W16500  33.737  41.289   2.207
48107W        W16501  15.356  19.219  14.302
48108W        W16502  19.578  33.006   1.234
48109W        W16503  43.936  18.779  13.553
48110W        W16504  26.531  17.009  13.073
48111W        W16505  17.245  28.077   4.602
48112W        W16506  26.978  19.671   4.701
48113W        W16507  42.409  22.297   2.245
48114W        W16508  19.473  20.672  12.278
48115W        W16509  14.558  41.330   1.718
48116W        W16510  23.004  18.603  11.544
48117W        W16511  43.840  17.761  12.215
48118W        W16512  15.687  29.648   2.779
48119W        W16513  43.135  32.469   3.377
48120W        W16514  12.810  19.724  10.681
48121W        W16515   8.783  44.946  13.842
48122W        W16516  31.044  33.903   0.734
48123W        W16517   2.179  22.063  14.394
48124W        W16518  17.698  15.625  12.025
48125W        W16519  29.763  41.628  12.498
48126W        W16520  13.268  38.377  12.933
48127W        W16521  36.449   4.704   0.854
48128W        W16522   0.367  13.387   3.603
48129W        W16523   2.962  44.071   0.316
48130W        W16524  20.165  17.405   4.990
48131W        W16525  26.660   9.615  14.802
48132W        W16526  15.527  39.618  14.377
48133W        W16527  24.216  12.132  12.530
48134W        W16528  26.755  24.716   3.820
48135W        W16529  44.838  33.392  11.412
48136W        W16530  34.913  23.839  11.939
48137W        W16531  29.112  18.131   0.853
48138W        W16532   2.717  29.413   3.409
48139W        W16533   6.248  22.571  12.909
48140W        W16534  16.708   4.803   1.272
48141W        W16535  42.549   1.302  11.171
48142W        W16536   0.046  39.261  11.258
48143W        W16537  27.951  42.729  14.035
48144W        W16538  18.092  22.957  11.107
48145W        W16539   7.843  41.865   1.274
48146W        W16540  24.682   5.146   0.294
48147W        W16541  28.635  24.038   0.619
48148W        W16542  40.246  14.577  13.092
48149W        W16543  41.393  15.120   3.610
48150W        W16544   4.408  27.711   3.459
48151W        W16545  23.740  42.886  11.174
48152W        W16546   2.263  39.330   2.187
48153W        W16547  37.670  13.959   4.247
48154W        W16548   8.919  44.035  14.501
48155W        W16549  15.129   9.804  12.544
48156W        W16550  16.304  42.043  14.976
48157W        W16551  15.303   6.944   4.905
48158W        W16552  22.059  14.084  13.803
48159W        W16553  22.352   5.210  10.690
48160W        W16554   2.648   8.747  10.592
48161W        W16555  23.921  14.220  14.915
48162W        W16556  41.839   1.396   1.891
48163W        W16557  37.065  37.779  14.300
48164W        W16558  43.888  31.395   3.196
48165W        W16559   9.642   0.954  11.154
48166W        W16560  25.041   6.872   4.394
48167W        W16561  13.848  36.676  12.665
48168W        W16562   8.268   8.067   0.800
48169W        W16563  40.579   7.915  12.489
48170W        W16564   2.466  24.622   2.510
48171W        W16565  41.715   7.726   1.435
48172W        W16566  33.223  23.934   5.112
48173W        W16567  19.681  37.930   2.108
48174W        W16568  14.818  22.519  11.847
48175W        W16569  17.549  29.472  10.323
48176W        W16570  20.826  24.091  12.051
48177W        W16571   7.016  15.770   5.046
48178W        W16572  38.416   8.092   2.757
48179W        W16573  31.074  40.123  11.177
48180W        W16574   3.276  19.077   4.339
48181W        W16575  27.208  22.129  12.470
48182W        W16576  13.664  13.597   1.813
48183W        W16577  23.360  34.062  12.922
48184W        W16578   3.855  10.282  11.570
48185W        W16579  31.991  13.089  13.681
48186W        W16580  43.519  30.423   2.358
48187W        W16581  16.123  14.081   3.076
48188W        W16582   7.038  39.265  14.903
48189W        W16583  18.533  19.035   1.847
48190W        W16584   0.796  17.740  13.042
48191W        W16585  13.717   7.902  10.428
48192W        W16586  42.761  28.226   3.309
48193W        W16587  16.299  38.738  14.995
48194W        W16588  31.477   3.365   3.663
48195W        W16589  42.423  27.044   2.417
48196W        W16590  10.350  28.110   4.138
48197W        W16591  29.163  12.910   2.826
48198W        W16592   6.976  12.975   1.111
48199W        W16593   1.005   2.697   2.846
48200W        W16594  23.917  37.562   4.228
48201W        W16595  18.197  28.167   1.702
48202W        W16596   9.889  23.691   2.678
48203W        W16597  25.112  33.080  13.538
48204W        W16598   1.794  28.782  13.928
48205W        W16599   5.148  11.891   2.319
48206W        W16600   4.730   0.312   0.928
48207W        W16601  25.051  37.971  11.458
48208W        W16602   2.529  32.488   0.806
48209W        W16603  41.724   9.685   2.666
48210W        W16604  41.191  22.998  11.563
48211W        W16605  27.943   2.737   1.894
48212W        W16606  31.129   2.927   0.483
48213W        W16607   1.356   7.866   0.305
48214W        W16608  23.811  17.581  12.843
48215W        W16609  44.363   8.639   2.731
48216W        W16610  37.429   6.145  10.611
48217W        W16611   9.257  13.851   3.937
48218W        W16612  16.301  37.930  11.582
48219W        W16613  38.497  27.591  10.639
48220W        W16614   4.992   7.098   4.697
48221W        W16615  25.063  27.108   5.082
48222W        W16616  33.112   6.482   4.203
48223W        W16617  30.016  40.312  13.781
48224W        W16618   9.822  37.368   3.342
48225W        W16619  11.794  38.446  11.281
48226W        W16620  40.160  37.084  12.963
48227W        W16621  14.252  10.411  14.055
48228W        W16622  42.451   1.324   1.067
48229W        W16623   2.522   7.836   3.148
48230W        W16624  19.333  14.616   3.235
48231W        W16625   6.802  17.552   3.097
48232W        W16626   4.200  26.583   2.514
48233W        W16627   4.793  40.462   3.620
48234W        W16628  24.612  16.689  10.355
48235W        W16629  28.941  31.621  14.951
48236W        W16630  43.817  17.895  11.721
48237W        W16631  24.345  16.629  13.802
48238W        W16632  24.167  36.054  10.410
48239W        W16633  40.010  37.833  12.546
48240W        W16634   0.282  35.963   2.213
48241W        W16635   7.783  25.592   1.864
48242W        W16636  40.367   8.958  12.422
48243W        W16637  40.472   1.984   4.656
48244W        W16638  31.930  26.478  12.103
48245W        W16639  42.993  44.967  12.549
48246W        W16640  18.980   5.270  10.687
48247W        W16641  16.131  13.103   2.808
48248W        W16642  27.605  31.468   2.845
48249W        W16643   5.150  32.443  11.173
48250W        W16644  42.974   7.447   0.214
48251W        W16645  35.385  21.411  10.779
48252W        W16646  41.509  24.488  10.782
48253W        W16647   9.697  43.988  12.875
48254W        W16648   4.845  41.536   3.182
48255W        W16649   8.476  21.771  12.044
48256W        W16650  41.005   6.419   0.815
48257W        W16651  35.076  33.073  13.607
48258W        W16652   5.846  39.777  14.922
48259W        W16653  29.975  43.320  11.201
48260W        W16654  15.813  10.819   0.165
48261W        W16655   1.514  18.775  13.399
48262W        W16656   2.764  26.532  10.469
48263W        W16657   5.224  30.905   0.262
48264W        W16658  34.528   8.883   2.617
48265W        W16659  13.512  26.374   3.756
48266W        W16660  30.428  31.613  11.071
48267W        W16661  43.107  19.152  10.701
48268W        W16662  42.402  23.851  11.685
48269W        W16663  40.462   8.784  13.812
48270W        W16664  40.604   3.583  14.729
48271W        W16665  23.571  44.226  11.170
48272W        W16666  35.520  24.884  12.315
48273W        W16667   0.814   8.034  14.631
48274W        W16668   7.938   3.952   1.983
48275W        W16669  35.126  31.552  11.210
48276W        W16670   5.916   2.863  13.879
48277W        W16671  32.939  25.679   2.859
48278W        W16672  41.596  10.378  14.354
48279W        W16673  10.658  23.221   3.353
48280W        W16674   7.780   0.824   0.276
48281W        W16675  39.513  37.516  12.316
48282W        W16676   6.386  41.251  11.236
48283W        W16677  29.121  38.570   2.879
48284W        W16678  31.545  30.540  12.079
48285W        W16679  44.810  36.336   2.984
48286W        W16680   3.694  32.351   2.428
48287W        W16681   8.853  24.683  14.750
48288W        W16682  28.467  31.797   2.937
48289W        W16683  35.924  41.605  14.844
48290W        W16684   3.728  41.961  10.774
48291W        W16685  43.173   9.217   1.415
48292W        W16686   8.279  11.192  14.275
48293W        W16687  21.282  21.877  12.556
48294W        W16688   5.792   1.317  14.785
48295W        W16689  34.895  36.016   4.093
48296W        W16690   7.407  34.846  11.634
48297W        W16691  41.384   7.472   2.416
48298W        W16692  24.530   3.293  11.911
48299W        W16693  41.959   1.458   0.851
48300W        W16694   7.829  17.573  14.424
48301W        W16695   8.286  14.529   4.698
48302W        W16696  34.171  43.914   4.254
48303W        W16697  39.568  10.856  11.604
48304W        W16698  37.747   3.318   2.777
48305W        W16699  15.669  27.479  11.183
48306W        W16700  38.473  30.799  13.209
48307W        W16701   7.094  40.022  11.568
48308W        W16702   6.984  29.440   3.275
48309W        W16703  26.459   4.632   4.252
48310W        W16704  14.644  29.679  11.210
48311W        W16705  22.125   3.343  12.610
48312W        W16706  18.257  22.756  14.039
48313W        W16707  21.763   3.411  11.574
48314W        W16708  36.503  28.530   4.660
48315W        W16709   6.862   1.705  11.082
48316W        W16710   2.368  18.045  14.997
48317W        W16711  40.544   9.814  14.023
48318W        W16712  26.148  14.676  11.629
48319W        W16713  31.526  26.046  13.329
48320W        W16714  15.280  11.223  10.737
48321W        W16715  38.171  36.027   4.092
48322W        W16716  44.256   3.042  13.435
48323W        W16717  33.946  19.498  12.483
48324W        W16718  33.572  36.051  10.315
48325W        W16719  10.894  28.388  13.195
48326W        W16720  22.988  24.996  14.235
48327W        W16721  20.765   1.746   0.095
48328W        W16722   6.747   7.950  11.397
48329W        W16723  13.111  26.434  13.409
48330W        W16724  18.464  31.318  14.483
48331W        W16725  13.408  22.534  10.690
48332W        W16726  38.563  15.612  10.208
48333W        W16727  24.855   8.565  11.413
48334W        W16728  26.721  43.792  12.047
48335W        W16729  21.680  18.442  14.980
48336W        W16730  42.302   6.912  11.106
48337W        W16731  31.069  41.277   2.148
48338W        W16732   5.668  44.616   1.862
48339W        W16733  41.792   4.810   1.704
48340W        W16734  33.583   6.431   2.214
48341W        W16735  38.094  27.937   0.339
48342W        W16736  34.094  43.334  12.063
48343W        W16737  32.380  33.098   0.751
48344W        W16738  23.061   7.982  13.106
48345W        W16739  20.373  36.917   1.016
48346W        W16740   8.204  36.793  12.426
48347W        W16741  29.055  34.104   2.632
48348W        W16742  28.976  27.560   3.301
48349W        W16743   0.787   5.728   2.337
48350W        W16744  16.596  31.118   3.131
48351W        W16745  22.628   5.408   0.566
48352W        W16746   0.057  34.379   1.347
48353W        W16747  36.060  15.577   2.626
48354W        W16748  34.877  12.726  12.458
48355W        W16749  14.063  21.245   1.856
48356W        W16750  33.176  35.280   0.541
48357W        W16751  33.142  40.548   4.337
48358W        W16752  29.522  33.460  10.122
48359W        W16753  27.180  32.152  11.003
48360W        W16754  24.097  29.901   0.277
48361W        W16755  44.007  23.916  11.038
48362W        W16756  28.203  19.266   0.515
48363W        W16757  36.577  20.565  12.032
48364W        W16758  13.414  23.439   2.216
48365W        W16759  27.006  36.715   1.204
48366W        W16760  24.052  23.758   4.067
48367W        W16761  14.118   1.470   3.104
48368W        W16762  44.418  34.512   3.314
48369W        W16763   7.899  19.304   3.789
48370W        W16764  33.651  34.409   0.854
48371W        W16765  27.685  15.781  13.548
48372W        W16766  20.491   5.857  12.075
48373W        W16767  43.052  42.517   1.872
48374W        W16768   6.666  15.133   2.394
48375W        W16769   0.581  34.401   1.299
48376W        W16770  34.800  36.046   3.185
48377W        W16771  19.714  31.159  13.308
48378W        W16772  39.850   8.679   4.902
48379W        W16773  34.384   5.294   4.202
48380W        W16774  14.295  40.997  10.829
48381W        W16775  28.164  39.017   0.836
48382W        W16776   7.430  41.048  12.486
48383W        W16777  35.011   5.893  13.033
48384W        W16778  25.477  34.015  10.373
48385W        W16779   4.026  39.706   2.421
48386W        W16780  41.908  18.479  14.736
48387W        W16781  15.841   9.856  11.027
48388W        W16782  41.343  42.787   2.773
48389W        W16783   1.916  13.663   1.397
48390W        W16784   7.214  23.435  14.912
48391W        W16785   0.158  44.502  14.884
48392W        W16786  44.216  38.101   3.101
48393W        W16787  16.754  16.826   3.808
48394W        W16788   4.176  17.805  11.225
48395W        W16789  32.384  20.870  11.692
48396W        W16790  24.010   2.851   2.777
48397W        W16791  21.784   6.479  12.030
48398W        W16792  13.125   9.827  14.523
48399W        W16793  39.144  42.856   4.739
48400W        W16794  41.810  22.792   1.319
48401W        W16795  43.340  37.996   3.776
48402W        W16796  42.443  40.727  12.579
48403W        W16797  21.258  28.445   4.703
48404W        W16798  29.913   9.189  13.445
48405W        W16799  14.180  42.874  13.653
48406W        W16800  31.376  32.900  11.180
48407W        W16801   8.683  14.637  13.816
48408W        W16802  32.998  25.575  13.368
48409W        W16803  25.345  37.980  10.629
48410W        W16804  18.538  41.837   5.055
48411W        W16805  17.565  23.171   1.798
48412W        W16806  44.311  16.375  13.913
48413W        W16807   0.939  25.241   0.526
48414W        W16808  42.374  24.497   0.076
48415W        W16809  28.981  36.920   2.193
48416W        W16810  11.695  31.530  11.218
48417W        W16811  43.176   5.717   3.703
48418W        W16812   2.487  12.272   4.503
48419W        W16813  28.617  11.262   1.429
48420W        W16814   6.886  15.524  13.965
48421W        W16815  33.699   5.714   4.067
48422W        W16816  34.513  37.958  13.360
48423W        W16817  25.211   0.941  11.487
48424W        W16818  31.051  20.009  12.422
48425W        W16819  20.244  44.003   1.841
48426W        W16820  24.682  43.182   5.303
48427W        W16821  19.146  21.251  10.878
48428W        W16822  21.710  41.850  14.414
48429W        W16823   8.260  31.934  11.529
48430W        W16824  16.022  44.390  14.980
48431W        W16825  39.577   5.792  11.204
48432W        W16826  42.249  21.460  13.932
48433W        W16827  30.491  10.226  11.205
48434W        W16828  21.248  32.316  11.739
48435W        W16829  32.823  25.592  14.799
48436W        W16830  20.776  18.420   1.839
48437W        W16831  33.967   3.227   1.682
48438W        W16832  19.569  20.191   4.501
48439W        W16833   3.244  34.538   1.931
48440W        W16834  13.551  23.234   0.513
48441W        W16835   4.155  27.063   0.223
48442W        W16836   3.238  19.192   1.464
48443W        W16837  35.035   8.384   4.443
48444W        W16838  37.277  36.471  13.495
48445W        W16839  39.528  41.902   1.212
48446W        W16840   2.707  10.841   4.331
48447W        W16841   7.722  28.074  10.250
48448W        W16842   7.743  40.175   3.113
48449W        W16843  19.993  23.803  13.925
48450W        W16844  21.119  42.196   4.657
48451W        W16845  30.539  12.166  13.123
48452W        W16846  34.480  20.794  10.639
48453W        W16847  31.277  26.071  13.786
48454W        W16848   5.224  37.179  11.457
48455W        W16849   9.903  24.592   0.315
48456W        W16850  12.388   6.553  13.454
48457W        W16851  41.216  24.571   0.732
48458W        W16852   9.402   7.401  12.864
48459W        W16853   9.164   8.654  11.282
48460W        W16854  19.718  36.346  14.538
48461W        W16855  31.160  24.754  14.494
48462W        W16856   8.399   8.815  12.590
48463W        W16857  37.268  15.363   4.078
48464W        W16858  26.618  20.936   4.076
48465W        W16859  31.826  21.203   1.231
48466W        W16860  44.424  35.940   0.888
48467W        W16861   8.334  31.713   3.725
48468W        W16862  13.696  34.884   3.164
48469W        W16863  28.118  44.744  13.355
48470W        W16864  18.558   2.712  12.537
48471W        W16865  27.334  35.978   1.781
48472W        W16866   8.127  40.351  14.406
48473W        W16867  34.975   8.279   0.013
48474W        W16868  35.371  36.448  14.113
48475W        W16869  15.815   3.046   4.113
48476W        W16870  12.366  28.132   2.929
48477W        W16871  42.067  11.340   4.560
48478W        W16872  18.045  11.621  13.855
48479W        W16873  16.048  15.288  13.058
48480W        W16874   1.841  37.013   3.128
48481W        W16875  17.292  32.927   0.963
48482W        W16876   0.297   5.341  14.839
48483W        W16877  17.412  14.631  12.799
48484W        W16878  19.988  27.885   3.740
48485W        W16879  23.728  12.317  14.814
48486W        W16880  35.463  28.968   1.470
48487W        W16881  10.206  33.410  12.723
48488W        W16882  41.187  11.314   2.245
48489W        W16883  41.228  26.804   4.129
48490W        W16884  28.443  26.025  14.974
48491W        W16885  24.993  37.984   5.535
48492W        W16886   4.625  30.090  12.075
48493W        W16887  34.858  30.442  13.866
48494W        W16888  38.852   8.645   1.284
48495W        W16889  19.625  25.831   1.430
48496W        W16890   3.775  30.501   2.396
48497W        W16891  11.410  19.164  14.469
48498W        W16892  37.106  31.031   4.571
48499W        W16893  17.624  21.145   0.524
48500W        W16894  11.129   1.781  11.735
48501W        W16895  15.629  37.156  12.381
48502W        W16896  35.879  19.748   0.281
48503W        W16897  17.085  38.309   1.568
48504W        W16898  10.594   5.163  10.695
48505W        W16899  24.086   0.760  13.369
48506W        W16900  19.814   2.931   0.887
48507W        W16901  19.225  20.941   0.909
48508W        W16902  30.602  39.550   3.166
48509W        W16903  13.956  34.452   0.771
48510W        W16904  22.765   9.233   3.203
48511W        W16905  29.695  11.061   0.545
48512W        W16906  21.941  10.181   0.472
48513W        W16907   9.556  40.267  14.411
48514W        W16908  19.220  33.877  10.690
48515W        W16909   2.650   3.637  13.177
48516W        W16910  10.674  34.622   3.588
48517W        W16911  38.641  40.940   3.208
48518W        W16912   8.874  13.307   0.666
48519W        W16913  24.965  23.963   1.589
48520W        W16914  42.928  35.481  14.107
48521W        W16915  22.505  21.178   4.709
48522W        W16916  35.716   4.124  11.131
48523W        W16917  18.132  40.046  14.624
48524W        W16918  20.127  30.206   3.623
48525W        W16919  18.724  32.214  12.856
48526W        W16920  18.222  33.864   2.746
48527W        W16921   9.410   0.063   3.330
48528W        W16922  18.329  23.488   2.407
48529W        W16923  43.281  34.901   9.756
48530W        W16924  18.729  18.745   2.880
48531W        W16925   0.002  28.610  13.585
48532W        W16926  32.972  44.035   0.308
48533W        W16927  39.816  22.483   4.546
48534W        W16928   2.418  39.325   1.318
48535W        W16929  29.984  16.446  12.064
48536W        W16930  36.294   0.147   4.997
48537W        W16931  39.944  28.446   0.512
48538W        W16932  42.750  22.985   3.774
48539W        W16933   0.863  32.993   3.851
48540W        W16934  40.268  37.573  11.836
48541W        W16935  31.855  10.379  14.018
48542W        W16936  11.026   6.204   2.128
48543W        W16937  36.606  32.562   3.260
48544W        W16938  25.588  27.957  11.674
48545W        W16939   2.909   9.389  10.795
48546W        W16940   0.562  11.383   4.703
48547W        W16941  38.835  27.737  11.403
48548W        W16942  42.373  41.517  11.011
48549W        W16943   0.764  41.211  13.480
48550W        W16944   5.690  21.952   0.760
48551W        W16945  38.091  22.782  12.163
48552W        W16946   3.433  19.182  11.210
48553W        W16947  36.096  33.639  11.483
48554W        W16948  21.726  19.586   1.711
48555W        W16949   4.765  40.396  14.357
48556W        W16950  28.930  36.980   1.267
48557W        W16951  18.603  17.567   1.396
48558W        W16952   8.223  12.770  11.960
48559W        W16953  28.447  27.121   3.579
48560W        W16954  44.908   2.008   1.756
48561W        W16955  43.327  36.539   2.006
48562W        W16956   3.930  43.237   4.788
48563W        W16957  33.125  24.470   3.850
48564W        W16958  34.840   7.751   3.233
48565W        W16959  41.253  24.077   3.798
48566W        W16960  29.429   9.219  13.797
48567W        W16961  33.314  42.865  14.941
48568W        W16962  37.281  41.402   2.700
48569W        W16963  43.842   2.529  13.943
48570W        W16964  25.197  13.126   0.303
48571W        W16965  30.043  38.441   2.905
48572W        W16966  13.806  33.361  12.007
48573W        W16967  12.333  34.732  13.365
48574W        W16968   3.390  27.963  10.602
48575W        W16969  18.663  32.063  11.852
48576W        W16970   7.118   3.234  11.567
48577W        W16971   7.971  42.385  13.365
48578W        W16972  27.983   4.797   1.241
48579W        W16973   7.174   1.306   4.416
48580W        W16974  22.305  22.687   3.368
48581W        W16975  25.083  29.919   0.277
48582W        W16976  24.239  29.541   3.328
48583W        W16977  43.074  43.588  12.874
48584W        W16978  18.056  29.868  12.428
48585W        W16979  31.438   7.346  13.364
48586W        W16980  11.805   5.977   0.349
48587W        W16981  29.084  44.893   0.363
48588W        W16982   0.010   2.435  14.329
48589W        W16983   8.553  13.945  13.322
48590W        W16984  32.950  29.047  12.153
48591W        W16985   9.832  24.979  11.433
48592W        W16986  37.033  17.588   3.206
48593W        W16987  32.624  11.707  13.856
48594W        W16988  10.937  20.245  12.424
48595W        W16989  16.307  34.000  13.331
48596W        W16990  34.974  29.718   3.992
48597W        W16991  20.083  22.547   3.834
48598W        W16992  14.189  16.304   4.798
48599W        W16993  29.942  14.365   0.160
48600W        W16994  30.578  38.873  12.331
48601W        W16995  26.845  39.773  10.690
48602W        W16996  43.872  40.437   1.176
48603W        W16997  34.025  41.677  11.595
48604W        W16998   0.878  25.125   1.379
48605W        W16999  28.707  28.551  12.896
48606W        W17000  11.165  34.133   0.121
48607W        W17001  22.492  29.957   2.975
48608W        W17002  42.584  15.862  12.917
48609W        W17003  15.588   1.732   2.215
48610W        W17004  22.657  31.659  13.970
48611W        W17005   1.254  26.153   5.032
48612W        W17006  40.157   7.175   3.079
48613W        W17007  13.096   6.371   0.736
48614W        W17008  13.729  14.757  11.847
48615W        W17009   6.129   8.189  10.810
48616W        W17010  16.125  35.890   3.316
48617W        W17011  30.065  11.242  10.214
48618W        W17012   2.517  18.509   1.206
48619W        W17013  26.118  25.310  12.018
48620W        W17014  28.472   9.442   3.222
48621W        W17015   1.953   4.834  14.640
48622W        W17016  29.826  28.036  10.823
48623W        W17017  24.981   7.278   3.302
48624W        W17018  33.040   6.023   2.849
48625W        W17019  28.711  32.929   0.906
48626W        W17020   3.372  28.513  11.267
48627W        W17021   4.174  21.570  14.474
48628W        W17022   0.830  14.760   3.088
48629W        W17023  40.973  16.629   4.540
48630W        W17024  17.921  15.865  10.140
48631W        W17025   3.200  44.772   3.896
48632W        W17026   6.430  38.202  12.646
48633W        W17027  42.076   8.203   1.295
48634W        W17028   0.458  10.656  12.016
48635W        W17029  42.995  38.559   5.439
48636W        W17030  16.545   5.781  13.871
48637W        W17031  41.236  26.568  12.542
48638W        W17032  25.159  24.525   0.237
48639W        W17033  17.666  19.736  13.923
48640W        W17034  10.405  14.102  12.581
48641W        W17035  26.403  26.069   4.798
48642W        W17036   0.241  16.247  14.871
48643W        W17037   4.263  26.022  14.108
48644W        W17038  18.048  37.254  10.330
48645W        W17039   4.526   1.940  13.535
48646W        W17040   5.467  31.906   2.888
48647W        W17041   6.700  34.924   0.496
48648W        W17042  24.777   1.217   1.859
48649W        W17043  32.977  30.109   1.928
48650W        W17044  28.566  36.183  10.702
48651W        W17045  34.116  30.000   4.558
48652W        W17046   6.872  34.414   1.362
48653W        W17047  12.333   9.448  10.945
48654W        W17048  34.926  22.700  14.766
48655W        W17049  39.283   9.945  11.292
48656W        W17050  14.121  11.899  14.013
48657W        W17051   5.863  42.943  10.771
48658W        W17052  43.143  41.750   0.540
48659W        W17053  20.345  16.574   4.054
48660W        W17054  23.631  24.434  12.443
48661W        W17055  16.292  14.132   3.609
48662W        W17056   2.183  12.529   2.746
48663W        W17057  35.565  27.603  13.200
48664W        W17058   6.469   5.479  13.860
48665W        W17059  42.879   8.684   3.216
48666W        W17060  38.028  30.997   1.238
48667W        W17061  12.243  31.589   1.211
48668W        W17062  15.481   5.469   0.378
48669W        W17063  33.418  11.081   4.019
48670W        W17064  41.029   4.757   2.714
48671W        W17065  32.646  36.175   1.454
48672W        W17066  18.113  18.613   1.481
48673W        W17067  10.354   1.915   0.294
48674W        W17068   2.400   7.811   2.639
48675W        W17069  43.985  40.530  11.823
48676W        W17070  34.204  16.995   1.932
48677W        W17071  16.123  26.244   3.291
48678W        W17072  39.937  24.602   0.531
48679W        W17073   0.457  13.955   3.402
48680W        W17074  29.156  42.616  12.886
48681W        W17075  37.372  40.530  11.658
48682W        W17076  34.477  42.774   0.495
48683W        W17077  30.209   3.759   5.095
48684W        W17078  12.111  30.465   2.019
48685W        W17079  44.320   4.660   0.717
48686W        W17080  35.444  11.710  12.812
48687W        W17081  14.856  27.582  13.710
48688W        W17082   0.076  29.700   1.042
48689W        W17083  23.611  19.087  13.171
48690W        W17084  35.928  32.924   2.794
48691W        W17085  38.256  19.106   3.625
48692W        W17086  33.499   2.813  14.909
48693W        W17087   5.872  11.152  11.388
48694W        W17088   5.965  36.631   4.342
48695W        W17089  39.251  16.805  13.866
48696W        W17090  10.534  34.689   5.184
48697W        W17091   2.131  42.707  11.111
48698W        W17092  23.003  34.570   1.892
48699W        W17093  26.470  10.364   0.272
48700W        W17094   7.902  37.405  10.668
48701W        W17095  36.584  19.399   1.976
48702W        W17096  24.032  39.651  13.467
48703W        W17097  35.124  44.915  12.941
48704W        W17098  14.204  13.733  14.749
48705W        W17099  16.018  15.237  12.203
48706W        W17100   1.344   8.380   3.380
48707W        W17101  38.917  21.223   2.341
48708W        W17102  40.063  13.860   1.285
48709W        W17103  24.897   4.093  11.575
48710W        W17104  22.186  34.580   2.647
48711W        W17105   5.713  15.871   3.368
48712W        W17106  11.070  33.566   0.788
48713W        W17107  33.480  10.836   1.259
48714W        W17108  36.136  40.645   1.859
48715W        W17109  28.527  16.352  11.091
48716W        W17110  11.577  17.642   2.884
48717W        W17111   3.591  37.838   1.416
48718W        W17112  20.501   6.224   3.872
48719W        W17113  43.775  20.526   3.096
48720W        W17114  20.595  24.762   3.231
48721W        W17115   3.342   7.853  12.054
48722W        W17116   7.530  30.994   4.741
48723W        W17117   8.890  43.401  14.472
48724W        W17118  12.226  15.699   1.935
48725W        W17119   4.845  16.605   2.240
48726W        W17120  19.549  11.118   3.277
48727W        W17121  42.109  24.216  11.216
48728W        W17122  38.602   0.369  13.361
48729W        W17123  35.863  39.018   4.833
48730W        W17124   4.420  21.283   3.074
48731W        W17125   8.398  42.610   0.715
48732W        W17126  11.845   1.785  10.634
48733W        W17127   3.776  42.974   3.577
48734W        W17128  38.929   6.479   1.321
48735W        W17129   2.821  43.310  13.114
48736W        W17130  15.197  31.027   2.185
48737W        W17131   6.245  42.374  13.747
48738W        W17132  33.946  11.871   1.492
48739W        W17133   6.660   7.319   2.795
48740W        W17134  29.445  17.501  11.022
48741W        W17135  15.515  41.038  12.975
48742W        W17136  21.232  25.572  13.571
48743W        W17137  35.772   1.193   2.289
48744W        W17138  35.522   1.702  13.856
48745W        W17139  38.782   9.788   0.452
48746W        W17140  17.760  42.993  11.331
48747W        W17141  11.840   6.179  10.673
48748W        W17142  33.833   3.863   1.418
48749W        W17143   1.967  38.699  13.521
48750W        W17144  27.090  11.823   2.767
48751W        W17145  32.547  24.785   2.282
48752W        W17146  22.945   4.289   2.240
48753W        W17147  39.376  41.289  11.184
48754W        W17148  35.367  32.437   4.402
48755W        W17149  38.485   5.977  10.628
48756W        W17150  19.023  38.340  13.747
48757W        W17151  21.069  43.431   1.917
48758W        W17152  29.989   3.134  14.335
48759W        W17153  19.823  15.302  11.732
48760W        W17154  11.573  33.451   0.780
48761W        W17155  14.299  13.820   4.883
48762W        W17156  10.241  33.797  12.370
48763W        W17157  25.152  17.819  14.754
48764W        W17158  15.158  23.574  13.592
48765W        W17159  42.264   1.235   1.633
48766W        W17160  35.987  14.960  14.664
48767W        W17161  27.600  31.924  13.092
48768W        W17162  27.148  35.044  11.546
48769W        W17163  42.436  14.625   0.798
48770W        W17164  26.468  13.504   4.049
48771W        W17165   5.299  35.625  14.620
48772W        W17166  35.155   9.269  12.146
48773W        W17167   0.533  37.836   3.753
48774W        W17168  15.578  19.007   3.239
48775W        W17169  34.290  11.542   1.263
48776W        W17170  17.888  30.381  12.944
48777W        W17171  31.093  10.402  13.379
48778W        W17172  39.309  26.006   0.249
48779W        W17173  25.523  22.052   3.768
48780W        W17174  25.337  36.124  11.622
48781W        W17175  37.497  29.976   4.165
48782W        W17176  36.010   7.429   2.817
48783W        W17177  35.973  43.042  14.573
48784W        W17178  12.284  18.833   2.852
48785W        W17179  24.185  10.532  10.838
48786W        W17180  28.126  35.081  13.924
48787W        W17181  21.124  14.265   4.632
48788W        W17182  17.074  14.615  12.405
48789W        W17183  11.136   8.443   4.209
48790W        W17184   6.667  23.290  14.838
48791W        W17185  25.493   3.241   0.050
48792W        W17186  26.734   1.683  14.876
48793W        W17187  10.968  22.196   3.847
48794W        W17188  36.923  38.260  10.975
48795W        W17189  39.862  14.688   2.613
48796W        W17190  27.566  19.783   0.792
48797W        W17191   7.246  29.851  14.408
48798W        W17192  11.177  42.266   1.203
48799W        W17193  17.430  13.612  11.940
48800W        W17194   8.393   7.130   1.522
48801W        W17195  37.650  34.160   2.928
48802W        W17196   9.385  38.420  14.285
48803W        W17197  10.670  37.727   2.419
48804W        W17198  36.434  21.137   1.231
48805W        W17199  14.280  22.616  10.865
48806W        W17200  44.240  40.059  13.933
48807W        W17201  21.736  34.634   1.406
48808W        W17202  17.281   8.281   4.263
48809W        W17203  27.951   5.911   4.886
48810W        W17204  27.927  32.546   3.528
48811W        W17205   5.499  34.022  12.089
48812W        W17206  26.180   0.500   3.706
48813W        W17207  15.128  12.630   4.375
48814W        W17208  22.284  44.828  12.390
48815W        W17209  27.552  43.434   0.835
48816W        W17210  37.010  12.759   4.194
48817W        W17211  15.547  36.895   1.708
48818W        W17212  37.655   1.534   0.604
48819W        W17213  22.142   4.521   0.866
48820W        W17214  19.079  41.042   3.143
48821W        W17215  25.253  20.758   0.210
48822W        W17216  19.424  42.810   5.029
48823W        W17217  42.359  28.902  10.764
48824W        W17218  15.094   9.359   0.261
48825W        W17219   2.464  39.065   0.867
48826W        W17220  38.012  17.603  14.306
48827W        W17221  17.154   4.253  14.508
48828W        W17222  16.645  20.518  11.924
48829W        W17223  29.489  28.991  10.631
48830W        W17224   1.725   2.021   3.739
48831W        W17225  17.119   5.888   4.055
48832W        W17226  42.798  31.012   0.270
48833W        W17227  15.659   1.211  12.416
48834W        W17228  24.522  20.045  14.395
48835W        W17229  16.593   7.359   1.423
48836W        W17230  34.000  15.744   2.863
48837W        W17231   0.654  13.549  13.896
48838W        W17232   8.410  31.758   0.913
48839W        W17233   0.503  37.763  10.879
48840W        W17234  13.396  36.636   0.896
48841W        W17235  11.316  29.082   1.573
48842W        W17236  34.527  33.345   0.265
48843W        W17237  11.047   1.662  12.446
48844W        W17238  40.205  32.036  11.087
48845W        W17239  19.765  44.279   3.581
48846W        W17240  32.810  36.759   4.319
48847W        W17241  27.319  13.014  10.747
48848W        W17242  29.040  23.216   0.158
48849W        W17243  23.023   8.751   4.215
48850W        W17244  35.619   3.203   0.450
48851W        W17245  34.296  40.930   4.128
48852W        W17246   3.514   0.993  11.009
48853W        W17247   3.460   2.398   1.481
48854W        W17248  42.943  22.665   2.867
48855W        W17249  44.603  15.787  13.863
48856W        W17250   9.547  33.422  12.080
48857W        W17251  32.199  32.938  13.789
48858W        W17252  20.670  39.396   0.058
48859W        W17253   3.241  35.181  13.449
48860W        W17254  29.429  24.404  14.939
48861W        W17255  10.520   0.000   1.642
48862W        W17256   2.135  30.109   0.760
48863W        W17257  24.234  13.738   0.253
48864W        W17258  21.757  16.317   1.691
48865W        W17259   7.954  25.435  11.188
48866W        W17260  25.513  24.204   5.118
48867W        W17261  31.788   7.411   1.798
48868W        W17262  23.197   5.171   1.337
48869W        W17263  18.557  14.173  14.387
48870W        W17264  33.637   2.438   3.866
48871W        W17265  34.673  13.164  13.716
48872W        W17266  32.885   9.353  14.397
48873W        W17267  37.321  37.472  13.673
48874W        W17268  43.384   3.194   1.342
48875W        W17269   9.789  13.787   0.062
48876W        W17270   1.755  38.624  10.756
48877W        W17271  38.509  27.925  12.049
48878W        W17272  40.009  31.071  11.101
48879W        W17273  18.075   6.648  14.045
48880W        W17274  25.797  22.087  13.198
48881W        W17275  36.089  24.028   0.571
48882W        W17276  24.567  21.057  14.591
48883W        W17277  32.743  11.126   4.723
48884W        W17278  44.026   6.391  13.329
48885W        W17279  39.815  22.496   0.950
48886W        W17280  10.948  33.694   0.288
48887W        W17281   8.140  36.945   0.560
48888W        W17282  10.264  43.617   0.181
48889W        W17283  15.230  13.744   2.905
48890W        W17284   8.627  38.677   2.318
48891W        W17285   8.710  31.484  14.474
48892W        W17286  19.205  41.077   4.055
48893W        W17287  19.688  41.910  13.207
48894W        W17288  29.207  16.696   0.731
48895W        W17289  35.850  21.618   4.741
48896W        W17290  29.179   9.874   2.686
48897W        W17291  40.425  26.899   0.932
48898W        W17292  28.066  33.408   3.715
48899W        W17293  13.688  34.385  11.901
48900W        W17294  26.378   8.829   4.107
48901W        W17295  40.749  21.237  14.311
48902W        W17296   1.177  17.803  12.655
48903W        W17297   3.259  12.607   4.756
48904W        W17298  11.891  15.797   4.126
48905W        W17299  43.616  29.491   1.295
48906W        W17300  20.085  33.951  11.006
48907W        W17301  17.598  41.907   2.796
48908W        W17302  27.785   5.012   4.090
48909W        W17303  42.002  36.903   4.165
48910W        W17304   7.775  19.172   4.653
48911W        W17305  42.954  23.206  11.544
48912W        W17306  36.774  15.105   2.629
48913W        W17307  24.156   2.360  13.444
48914W        W17308  22.740  44.478   3.257
48915W        W17309  15.154   5.472  12.927
48916W        W17310  17.917  36.309  14.062
48917W        W17311  43.982  25.246   2.241
48918W        W17312  28.626   1.339   0.969
48919W        W17313  43.281  41.706  10.563
48920W        W17314  23.131   4.530  10.738
48921W        W17315  19.603  38.906   0.403
48922W        W17316  11.781   6.172  12.947
48923W        W17317   9.938   3.902   3.231
48924W        W17318   5.364   4.327  12.627
48925W        W17319  40.396  25.197   4.506
48926W        W17320   1.478  24.523   2.872
48927W        W17321  18.471  22.275   3.103
48928W        W17322  36.859  28.184   4.528
48929W        W17323  18.333  28.371  12.826
48930W        W17324  38.699  37.823   4.014
48931W        W17325  25.056  36.433  11.259
48932W        W17326  32.169  23.616   3.169
48933W        W17327   0.405   4.011  12.981
48934W        W17328   7.169  25.202  11.631
48935W        W17329  34.045  31.624  12.139
48936W        W17330  19.494  29.102  12.608
48937W        W17331  22.148  12.180  10.922
48938W        W17332   7.913   0.491   1.664
48939W        W17333   8.822  26.867  12.633
48940W        W17334  40.237   3.857  12.995
48941W        W17335  23.992  21.238   4.689
48942W        W17336  29.437   9.749   3.206
48943W        W17337  26.961   3.294  13.968
48944W        W17338   4.313  44.807   0.389
48945W        W17339  16.088  12.756   3.190
48946W        W17340  40.550  13.806   2.194
48947W        W17341  20.435  20.373   5.190
48948W        W17342   2.243  29.038   2.810
48949W        W17343  18.626  40.459   4.592
48950W        W17344  29.142  11.650  13.851
48951W        W17345  22.177  12.141  13.011
48952W        W17346  31.955   7.722   2.311
48953W        W17347  24.575  27.049  10.428
48954W        W17348   0.474  37.954  14.220
48955W        W17349  41.814  26.400   2.288
48956W        W17350  44.243  40.351  12.646
48957W        W17351  34.597  21.611  12.139
48958W        W17352  23.688  44.716  11.106
48959W        W17353  14.650  44.459   0.064
48960W        W17354  43.272  33.404   2.220
48961W        W17355  23.733  43.021   2.553
48962W        W17356  34.181  33.754   3.050
48963W        W17357  40.053  44.432  10.567
48964W        W17358  35.395  39.614   0.222
48965W        W17359   0.150  16.042  12.018
48966W        W17360  31.010   5.223  14.903
48967W        W17361  16.671  42.186  10.486
48968W        W17362  19.714  38.083   1.126
48969W        W17363  28.910  15.831  12.908
48970W        W17364   3.378  31.103  14.725
48971W        W17365   5.878  15.387   0.007
48972W        W17366  32.878  16.955   2.997
48973W        W17367  21.372  21.711  11.022
48974W        W17368  18.231  29.230  11.094
48975W        W17369   6.747  27.310   9.826
48976W        W17370  10.258  31.436   3.741
48977W        W17371  30.881  34.298   4.493
48978W        W17372   3.022  13.511  11.260
48979W        W17373  40.377  15.006   3.050
48980W        W17374   3.707   9.378  13.933
48981W        W17375   9.159  34.493  13.163
48982W        W17376  39.436  14.590  11.471
48983W        W17377  30.049  29.553   3.160
48984W        W17378  28.004   4.665  12.853
48985W        W17379  22.106  13.854   1.677
48986W        W17380  33.143   5.189   3.767
48987W        W17381  21.494   7.973   4.191
48988W        W17382  24.472  39.481   0.275
48989W        W17383   2.970  15.356   1.743
48990W        W17384  30.236   8.823  12.467
48991W        W17385  26.139  20.274   5.076
48992W        W17386   4.906  18.019   2.816
48993W        W17387   5.828  43.914  14.903
48994W        W17388  10.115   7.253   1.324
48995W        W17389  36.080  42.674  14.208
48996W        W17390  10.711   6.755   1.776
48997W        W17391  26.999  30.162  14.065
48998W        W17392  43.977  27.560  11.959
48999W        W17393  22.590  43.185  11.572
49000W        W17394  20.166  25.123  14.457
49001W        W17395  26.427  28.431   2.753
49002W        W17396  11.661  28.768   1.856
49003W        W17397   6.598  20.118  12.587
49004W        W17398  38.446  10.653   2.373
49005W        W17399   4.151  26.267  11.740
49006W        W17400  33.967  35.458   4.525
49007W        W17401  39.849  32.316  11.337
49008W        W17402   4.783   6.362   0.504
49009W        W17403  21.133  33.582   5.116
49010W        W17404  24.546   0.019  14.305
49011W        W17405  29.134  11.088  11.172
49012W        W17406  34.022  11.161  11.912
49013W        W17407  39.972  34.336  14.892
49014W        W17408  10.666  31.200   3.967
49015W        W17409  22.865  10.625   2.941
49016W        W17410   2.230  16.247   0.254
49017W        W17411   5.455  11.077  12.500
49018W        W17412   6.653   2.920   4.048
49019W        W17413  36.445  28.277   1.204
49020W        W17414  23.927   7.453  12.561
49021W        W17415   2.989  43.980   4.174
49022W        W17416  17.718  18.630   4.119
49023W        W17417  36.087  13.721   0.807
49024W        W17418  24.096  15.179   3.221
49025W        W17419  21.779  25.070   0.434
49026W        W17420  23.602  32.640  12.882
49027W        W17421  28.368  30.481  14.990
49028W        W17422  13.859  12.012   5.084
49029W        W17423  13.021  30.515  12.544
49030W        W17424  40.885  12.758  12.071
49031W        W17425   7.092   8.410   4.493
49032W        W17426  43.691   8.323  13.589
49033W        W17427  36.554  26.866   5.176
49034W        W17428  43.916  38.803   1.086
49035W        W17429  27.630  11.623   3.840
49036W        W17430  14.234  26.979  13.934
49037W        W17431  24.005  41.173   9.839
49038W        W17432  19.043  43.965  10.892
49039W        W17433  16.981  24.933   5.062
49040W        W17434  21.899  43.272  14.482
49041W        W17435  22.994  38.549  11.556
49042W        W17436  43.814  16.322   1.010
49043W        W17437  12.651   0.940  11.601
49044W        W17438  31.944  22.984   2.258
49045W        W17439  13.841  27.023  13.623
49046W        W17440  20.100  32.939   0.912
49047W        W17441  29.494  31.420   4.817
49048W        W17442   2.330  28.076   4.888
49049W        W17443  44.419  21.244   3.025
49050W        W17444  10.723  34.242   2.593
49051W        W17445  23.652  22.810  10.728
49052W        W17446  14.293  22.542   0.251
49053W        W17447   4.720  13.635   0.395
49054W        W17448   6.903  37.622  10.683
49055W        W17449  35.578  42.749  14.341
49056W        W17450  11.802  13.809   4.579
49057W        W17451  27.763  41.692   2.136
49058W        W17452   3.122   0.859  11.994
49059W        W17453   2.806  26.171  12.603
49060W        W17454  35.171  39.490  12.056
49061W        W17455  19.110  20.051   1.756
49062W        W17456  11.671  24.756  12.543
49063W        W17457  41.056   2.257  11.152
49064W        W17458  12.688  26.705   2.870
49065W        W17459  24.535  14.528   2.514
49066W        W17460  11.155  37.336   0.447
49067W        W17461  41.743  14.218  13.100
49068W        W17462  33.645  30.102   0.652
49069W        W17463  12.725   2.355  13.115
49070W        W17464  23.965  28.408   0.414
49071W        W17465  18.762  25.586   4.073
49072W        W17466   1.440   5.322  11.374
49073W        W17467  44.100  43.991  13.324
49074W        W17468  37.933  27.405  12.949
49075W        W17469  39.755  12.697   0.985
49076W        W17470  22.476  38.574  11.632
49077W        W17471   5.327  23.436  10.591
49078W        W17472   2.556  29.454  14.519
49079W        W17473   9.130   4.821  13.436
49080W        W17474  11.523  11.821   4.708
49081W        W17475   3.237  23.074  11.196
49082W        W17476  40.069   8.206   0.383
49083W        W17477  11.225  13.031   4.834
49084W        W17478  44.968  43.561   0.995
49085W        W17479  26.499   1.022  11.122
49086W        W17480   4.729  41.437  11.219
49087W        W17481   0.034  43.968  11.988
49088W        W17482  14.829  21.080  12.195
49089W        W17483  11.879   9.210  14.333
49090W        W17484  24.028  30.134   0.973
49091W        W17485  19.033  43.913  13.411
49092W        W17486  40.675  29.888   1.478
49093W        W17487   8.714  15.030  14.935
49094W        W17488  20.906  15.609  13.349
49095W        W17489  26.100  30.194   0.880
49096W        W17490  41.286   0.500   3.485
49097W        W17491  30.373   2.958   2.463
49098W        W17492  32.965  20.981   1.997
49099W        W17493  13.935  27.389   1.698
49100W        W17494  12.146   9.579  13.335
49101W        W17495  18.671  21.036   0.573
49102W        W17496   9.644  26.749  12.386
49103W        W17497   9.903  18.151   1.914
49104W        W17498   7.558  21.426  11.149
49105W        W17499  44.649  20.646   4.499
49106W        W17500  20.619   1.010   2.400
49107W        W17501  16.696  31.188   1.318
49108W        W17502  27.976  38.857  13.971
49109W        W17503  27.678   8.327  14.684
49110W        W17504   5.697   6.002  11.184
49111W        W17505   9.682  25.984  13.338
49112W        W17506  43.261  35.443   1.490
49113W        W17507  38.996  15.572   0.295
49114W        W17508  39.965  16.657  12.890
49115W        W17509  44.019   8.352   0.500
49116W        W17510  23.261  20.236   0.435
49117W        W17511  22.087  30.087   2.660
49118W        W17512  25.184  11.239   0.655
49119W        W17513  26.236  20.047  14.353
49120W        W17514  18.019  11.695   3.182
49121W        W17515   8.379  28.067  12.393
49122W        W17516  16.271  37.574  14.076
49123W        W17517  35.775  18.798  14.058
49124W        W17518   7.199  31.056   1.971
49125W        W17519  10.921  21.104   4.936
49126W        W17520   4.457  21.733  11.369
49127W        W17521  42.000  35.889   4.538
49128W        W17522   0.955   6.859   1.679
49129W        W17523  13.434  36.345  14.903
49130W        W17524  10.822  41.938   0.261
49131W        W17525  39.827  35.990  11.970
49132W        W17526  23.968  34.378  14.932
49133W        W17527   4.820  30.445   0.913
49134W        W17528   7.148  37.751  11.148
49135W        W17529   2.329  26.330  10.680
49136W        W17530   7.053  19.075  11.357
49137W        W17531  15.131  39.633  12.050
49138W        W17532  16.559  11.868  14.806
49139W        W17533  42.346  36.395   1.906
49140W        W17534  13.292   4.764  14.617
49141W        W17535   6.018  26.870   2.292
49142W        W17536   8.704  16.228  11.091
49143W        W17537  44.482  24.281   3.223
49144W        W17538  28.797   8.380  12.150
49145W        W17539  17.889  33.453   1.991
49146W        W17540  32.108  15.171  13.868
49147W        W17541   8.378  19.726   4.339
49148W        W17542  38.958   0.392   0.548
49149W        W17543  36.453  18.693  12.404
49150W        W17544  15.779   8.267   2.278
49151W        W17545  12.401  23.601  11.033
49152W        W17546   4.794  20.059   2.012
49153W        W17547  10.130  19.153  12.054
49154W        W17548  21.051  39.256  13.817
49155W        W17549  14.399  21.096   0.798
49156W        W17550  40.571  30.054   4.541
49157W        W17551  43.525   7.169   2.482
49158W        W17552  22.192  20.132  14.343
49159W        W17553   7.909  42.743   2.252
49160W        W17554   9.715  17.519  12.582
49161W        W17555  41.086   1.980   3.715
49162W        W17556  32.951   7.227   2.867
49163W        W17557  35.677  35.322  11.686
49164W        W17558   7.887  40.518  10.552
49165W        W17559  24.408  43.940   2.177
49166W        W17560  18.222  29.569  14.345
49167W        W17561  24.021  16.314  10.740
49168W        W17562  40.036  40.840  13.011
49169W        W17563  25.947   4.460   4.200
49170W        W17564  35.127  33.025  10.934
49171W        W17565  11.904  25.672  11.585
49172W        W17566  44.874  23.742   3.793
49173W        W17567  37.082  14.148  12.672
49174W        W17568  44.952  21.487   4.522
49175W        W17569  12.670  27.049   2.291
49176W        W17570  39.412  18.585  14.976
49177W        W17571   1.886   2.231  14.610
49178W        W17572  39.935  35.558  11.684
49179W        W17573  21.796  15.670   4.658
49180W        W17574  15.206  11.367  12.505
49181W        W17575  15.012  29.037  13.427
49182W        W17576  37.428  20.814  11.092
49183W        W17577   7.300  43.350   0.182
49184W        W17578   5.794  27.920   4.717
49185W        W17579  44.448  39.470   1.746
49186W        W17580  13.063  17.157   2.280
49187W        W17581  20.533  44.820  14.044
49188W        W17582  28.202  42.299  14.708
49189W        W17583   7.743   0.408  11.627
49190W        W17584  25.958  39.940   0.347
49191W        W17585  16.198   9.939  10.632
49192W        W17586  23.823  26.338  13.521
49193W        W17587   4.383   4.040   1.429
49194W        W17588  13.680  35.845   1.714
49195W        W17589  41.413  25.002   4.599
49196W        W17590  21.493  44.245   3.910
49197W        W17591   2.734  38.835   3.269
49198W        W17592  19.436  37.104   4.607
49199W        W17593  23.304  24.745   4.076
49200W        W17594  13.707  43.423  13.265
49201W        W17595   0.997  10.548   3.698
49202W        W17596  27.263  15.588  14.560
49203W        W17597  44.948  23.566  13.482
49204W        W17598  16.879  27.912  12.713
49205W        W17599   5.176  38.994  14.774
49206W        W17600   8.886   4.701  13.907
49207W        W17601   8.157  20.571   0.752
49208W        W17602  18.468  12.120  10.646
49209W        W17603  35.058   8.461  10.709
49210W        W17604   4.623  39.897  13.425
49211W        W17605  40.057  34.416  13.353
49212W        W17606  20.038  12.522   1.877
49213W        W17607  34.660   4.308  12.912
49214W        W17608  13.405   6.738   0.523
49215W        W17609   8.654  35.995  11.499
49216W        W17610  23.491  35.421   3.993
49217W        W17611  29.616   7.949   2.242
49218W        W17612  12.202   7.261  12.354
49219W        W17613  13.358  35.612   2.806
49220W        W17614  11.468   9.560   2.815
49221W        W17615  38.074  12.640   1.114
49222W        W17616  18.150   6.748   0.259
49223W        W17617  44.810   0.199   0.463
49224W        W17618  15.456  11.187   2.359
49225W        W17619  32.899  19.714  14.662
49226W        W17620  11.116   5.475   4.146
49227W        W17621  23.596  39.023   4.060
49228W        W17622  27.154   3.171  13.458
49229W        W17623  23.301  15.799  12.974
49230W        W17624  34.825  13.977  10.504
49231W        W17625  43.741  43.472   2.398
49232W        W17626  19.295  10.093  13.352
49233W        W17627  24.675  32.468  10.633
49234W        W17628  30.218  10.815   1.441
49235W        W17629  26.066  27.052   0.860
49236W        W17630  21.396   6.137  11.167
49237W        W17631  25.440  34.045   3.086
49238W        W17632  13.918  29.597   2.731
49239W        W17633   5.058  36.004  11.446
49240W        W17634  24.673   0.548   0.596
49241W        W17635  21.616  28.652   3.775
49242W        W17636   3.455  19.771  12.057
49243W        W17637  13.673  28.930  12.546
49244W        W17638   1.284   7.499  12.458
49245W        W17639  12.364  41.255   3.209
49246W        W17640  18.379  19.184   4.444
49247W        W17641  34.528  23.398  12.723
49248W        W17642  40.310  26.914  14.906
49249W        W17643  30.119  41.712   0.828
49250W        W17644  24.529  15.101   0.446
49251W        W17645  41.414  23.234   1.974
49252W        W17646   1.488  20.609   4.010
49253W        W17647   8.101  35.883  10.645
49254W        W17648  33.921  34.285   1.903
49255W        W17649  11.938   4.761  13.870
49256W        W17650  20.116  10.155  11.476
49257W        W17651  33.330   6.877   2.880
49258W        W17652  36.399  14.839  14.968
49259W        W17653  16.327  28.122   2.087
49260W        W17654  37.751  44.573  14.462
49261W        W17655  42.900  22.575  14.046
49262W        W17656  26.017   8.712  12.161
49263W        W17657   7.818  27.413  13.439
49264W        W17658  12.247  36.302   2.112
49265W        W17659  36.439  30.876  11.553
49266W        W17660  31.669  21.404   1.666
49267W        W17661  15.815  40.803  10.595
49268W        W17662  13.264  20.816   3.124
49269W        W17663  13.338   9.507  13.298
49270W        W17664  16.010   4.251  13.396
49271W        W17665  17.653  37.826   2.778
49272W        W17666   7.326  44.081   3.307
49273W        W17667  32.352  10.842  13.334
49274W        W17668  33.445   3.448   1.387
49275W        W17669  41.728   9.776   4.770
49276W        W17670  23.576   5.496  13.037
49277W        W17671   5.397   1.571   3.453
49278W        W17672  19.205  14.490  12.967
49279W        W17673  34.366   9.774  13.024
49280W        W17674  15.926  40.559  13.213
49281W        W17675   9.767  35.506   3.614
49282W        W17676  33.610  31.249  14.470
49283W        W17677  24.989   6.943   2.211
49284W        W17678  10.166  18.182  11.038
49285W        W17679  11.266   3.252   3.658
49286W        W17680  32.939  27.628   3.214
49287W        W17681   5.198  28.907   2.792
49288W        W17682  27.931  37.584   4.519
49289W        W17683  35.180  39.205   2.329
49290W        W17684  25.277   7.850   1.745
49291W        W17685  26.389  44.335  13.948
49292W        W17686  28.449  11.873  11.995
49293W        W17687   1.167   9.471  14.895
49294W        W17688  42.522  44.982  10.751
49295W        W17689  14.605  44.271  10.841
49296W        W17690  14.191  14.585  11.980
49297W        W17691  20.182  33.496  10.745
49298W        W17692   1.046  44.054  12.072
49299W        W17693  22.939  26.235  12.482
49300W        W17694  16.632  40.920   1.987
49301W        W17695   1.385   7.940   3.680
49302W        W17696  37.154  35.088   3.739
49303W        W17697  37.617   5.511  12.775
49304W        W17698   0.982  31.765  10.635
49305W        W17699  39.053  33.378   0.303
49306W        W17700  30.846  41.009   0.067
49307W        W17701   9.098   6.663  14.062
49308W        W17702  25.966  44.506  12.475
49309W        W17703   6.532  28.780   1.271
49310W        W17704  36.940   6.500   2.759
49311W        W17705   9.085  31.835  12.004
49312W        W17706  29.949  27.632   4.123
49313W        W17707  26.014  30.578  10.335
49314W        W17708  39.881  23.478   0.835
49315W        W17709   0.356  44.947   3.348
49316W        W17710   6.252   1.499  12.921
49317W        W17711  11.344  15.215  11.609
49318W        W17712  30.589  33.705   0.909
49319W        W17713  44.919  20.722  11.411
49320W        W17714   1.948   0.731  13.080
49321W        W17715  16.252  30.576  14.682
49322W        W17716  28.533  19.015   1.831
49323W        W17717  13.693  21.206  14.398
49324W        W17718  41.027  15.576   4.948
49325W        W17719   6.947  25.681   0.208
49326W        W17720  28.152  34.114   0.278
49327W        W17721  23.108  13.421  14.869
49328W        W17722  22.921  44.917  12.793
49329W        W17723  26.579   6.415   1.522
49330W        W17724   2.407  26.026   2.364
49331W        W17725  17.626   9.473  12.594
49332W        W17726  27.199   2.918  11.652
49333W        W17727   7.971  22.744   3.826
49334W        W17728  29.399  38.627  13.002
49335W        W17729  23.564  27.236  13.318
49336W        W17730  34.195  42.952   4.234
49337W        W17731   3.347  26.956   3.606
49338W        W17732  30.768  17.769  12.634
49339W        W17733   9.273   6.311  10.722
49340W        W17734  36.557  12.562   3.397
49341W        W17735  29.858  24.037  13.711
49342W        W17736  37.417  41.972  14.809
49343W        W17737  36.082  39.800  11.736
49344W        W17738  40.570  41.250   1.239
49345W        W17739  34.921   0.830  10.744
49346W        W17740  21.049  25.660  11.230
49347W        W17741  42.326   8.887  10.947
49348W        W17742  38.449  15.466   0.329
49349W        W17743  23.515  11.366   0.335
49350W        W17744  15.609  10.823  11.050
49351W        W17745  42.850  35.269   2.322
49352W        W17746  13.729  25.063  10.773
49353W        W17747  32.632  36.851  13.719
49354W        W17748  19.222  32.302   3.944
49355W        W17749  42.975  35.313   3.233
49356W        W17750   5.240  16.558  11.039
49357W        W17751  20.129   8.478   0.309
49358W        W17752  30.644  10.677  14.842
49359W        W17753  43.579  15.724  12.837
49360W        W17754  15.200   5.198   9.878
49361W        W17755  14.258  26.785  11.896
49362W        W17756   5.413  43.416   2.311
49363W        W17757  32.423  19.503  12.474
49364W        W17758  12.875  38.421   3.729
49365W        W17759  43.067   5.571   2.638
49366W        W17760  44.313   9.246  14.295
49367W        W17761  31.903   6.340   1.354
49368W        W17762  24.009   4.924  11.507
49369W        W17763  22.475  15.666  12.544
49370W        W17764  34.464   8.736  12.813
49371W        W17765   7.895  20.691   1.205
49372W        W17766   2.212  38.014  11.454
49373W        W17767  14.369  37.231  13.416
49374W        W17768   8.059  41.507  11.186
49375W        W17769  32.345  23.565  14.713
49376W        W17770  40.032   3.292   1.442
49377W        W17771  15.846  31.052  13.434
49378W        W17772  19.569   8.452  10.584
49379W        W17773  31.398  27.509  12.565
49380W        W17774  21.544  12.721  14.363
49381W        W17775  20.012   9.792   1.788
49382W        W17776   4.394  20.080   2.328
49383W        W17777  14.266  11.504  10.593
49384W        W17778  20.781  44.492  12.268
49385W        W17779  13.319  19.315  13.861
49386W        W17780  28.297  31.775  11.561
49387W        W17781  18.095  16.098  10.861
49388W        W17782   8.278  11.674   0.719
49389W        W17783  14.100  23.994  12.122
49390W        W17784   6.446  38.213   3.080
49391W        W17785  10.439  42.483  13.497
49392W        W17786  12.833  10.937   4.573
49393W        W17787  23.101  38.551  10.543
49394W        W17788  29.622  44.725   0.836
49395W        W17789  32.868  38.442  12.043
49396W        W17790  12.964  42.364   0.593
49397W        W17791  25.426  42.783  14.798
49398W        W17792  12.234  16.903  14.063
49399W        W17793  15.201  44.070  12.013
49400W        W17794  28.203  38.853   3.729
49401W        W17795   6.279  29.904  10.515
49402W        W17796  13.032   6.873  10.951
49403W        W17797  14.295  22.242  12.451
49404W        W17798  29.774  19.172  12.455
49405W        W17799  39.389   0.388  14.304
49406W        W17800  21.444  23.705   3.180
49407W        W17801   0.277  16.833  12.589
49408W        W17802  13.686  26.691   2.761
49409W        W17803  23.867  10.633   4.927
49410W        W17804   1.366   1.242  13.849
49411W        W17805   2.042  23.156   4.891
49412W        W17806  28.446  32.523   3.374
49413W        W17807   6.888  22.167   1.243
49414W        W17808   5.802   5.939  12.071
49415W        W17809  32.154  11.248  14.492
49416W        W17810  31.557  29.389   3.738
49417W        W17811  24.085   0.212   2.396
49418W        W17812  20.789  29.196  10.745
49419W        W17813  22.257   3.847  12.892
49420W        W17814  27.228  28.634   2.673
49421W        W17815   2.836   1.768   3.191
49422W        W17816   5.870  12.092   0.313
49423W        W17817  32.494   1.834   1.294
49424W        W17818  39.835  44.969   3.114
49425W        W17819  16.113  13.096   0.274
49426W        W17820  30.169  17.052   3.269
49427W        W17821  36.468  31.504  13.428
49428W        W17822  13.661  23.747   1.901
49429W        W17823   7.216  20.707  12.519
49430W        W17824   7.809  11.283  14.036
49431W        W17825  32.717  41.951   1.410
49432W        W17826  31.977   6.674  14.602
49433W        W17827  31.400   1.205  12.501
49434W        W17828  12.511   5.288  10.078
49435W        W17829  20.636  33.034   0.162
49436W        W17830  30.971  29.656  12.825
49437W        W17831   9.918  12.347   4.041
49438W        W17832  38.854  37.580   0.943
49439W        W17833   6.943   6.288   1.719
49440W        W17834  43.477   7.653   2.802
49441W        W17835   6.789  41.016   2.777
49442W        W17836  22.404  42.766  13.400
49443W        W17837  26.077   9.236  11.187
49444W        W17838  42.730  32.092  14.965
49445W        W17839  11.604  23.526   3.639
49446W        W17840   5.265   0.842   2.227
49447W        W17841  36.634  43.027   2.806
49448W        W17842  18.397  22.495   2.110
49449W        W17843  41.397  42.030   2.242
49450W        W17844  17.600   3.458  14.430
49451W        W17845  30.612  11.157   1.352
49452W        W17846  11.367  31.558  12.454
49453W        W17847  22.576  42.698  11.752
49454W        W17848  30.961  26.501   4.079
49455W        W17849  15.770  30.388  14.780
49456W        W17850  27.535   2.576   4.682
49457W        W17851  25.712   2.506  14.436
49458W        W17852  16.702  43.907  11.142
49459W        W17853  42.459   9.363   3.779
49460W        W17854  18.073  15.056  12.582
49461W        W17855  14.290  38.010   4.945
49462W        W17856   7.745   9.214  14.094
49463W        W17857  22.630  32.543   1.833
49464W        W17858  22.821  44.027  13.926
49465W        W17859  38.339  43.545   0.046
49466W        W17860  19.594  26.449  11.625
49467W        W17861  37.891   5.124  12.023
49468W        W17862  11.403  42.040  10.713
49469W        W17863  13.224  35.937  13.490
49470W        W17864  25.631  43.470   0.423
49471W        W17865   5.473   0.327   2.254
49472W        W17866  18.655  23.347   1.950
49473W        W17867  32.569  20.467   2.820
49474W        W17868  20.605   5.122  14.002
49475W        W17869  21.991  15.414  12.567
49476W        W17870  42.663  26.220  12.457
49477W        W17871  24.642  21.543  14.334
49478W        W17872  10.228   7.378  14.901
49479W        W17873  14.724  36.019  10.764
49480W        W17874  15.560  42.388  12.964
49481W        W17875  29.548   5.311  13.583
49482W        W17876   1.807  20.240  11.522
49483W        W17877  22.106   3.949  13.887
49484W        W17878  22.051  14.760   0.771
49485W        W17879  41.477  39.415  11.203
49486W        W17880  38.375  17.644  13.315
49487W        W17881  16.065  40.507  12.702
49488W        W17882  43.584   6.703   4.925
49489W        W17883  43.458  25.035  13.972
49490W        W17884  28.914  13.003   1.888
49491W        W17885   8.817  33.588   3.999
49492W        W17886  36.562  16.144  14.011
49493W        W17887  30.635  40.397  13.473
49494W        W17888  13.234  39.626  10.175
49495W        W17889  29.424   2.000   4.559
49496W        W17890  36.939   7.708   4.848
49497W        W17891  26.533   3.423  11.229
49498W        W17892   0.742  33.898   1.368
49499W        W17893  20.139   8.753   0.894
49500W        W17894  18.076  28.297   0.810
49501W        W17895  14.729  14.668   1.023
49502W        W17896  14.138  15.075  10.703
49503W        W17897  35.842   5.489   0.870
49504W        W17898  24.722   1.930  11.654
49505W        W17899  30.161  17.583   3.232
49506W        W17900   9.762  36.860   1.582
49507W        W17901  21.170   1.426  13.379
49508W        W17902  39.540  31.465   1.992
49509W        W17903  11.138   5.883  14.946
49510W        W17904  28.557  31.448   3.317
49511W        W17905  40.507  25.605   1.891
49512W        W17906   6.223  42.350   3.167
49513W        W17907  37.473  14.650  13.153
49514W        W17908  11.655  37.031   1.728
49515W        W17909  26.244  34.358   3.667
49516W        W17910  40.578   6.978  12.608
49517W        W17911  25.658  42.744   0.263
49518W        W17912   3.897   5.043   1.741
49519W        W17913  34.378  44.837  12.559
49520W        W17914  11.863  22.825  14.734
49521W        W17915  34.480  22.635   4.542
49522W        W17916  43.440  18.889   0.386
49523W        W17917  43.908  16.255   3.863
49524W        W17918   6.568   5.920  13.034
49525W        W17919  40.546   0.217  14.990
49526W        W17920   9.441  27.364  13.001
49527W        W17921  35.440   6.420   5.273
49528W        W17922  19.524  25.158   9.904
49529W        W17923  36.001  32.529   0.195
49530W        W17924  29.051  36.609  12.035
49531W        W17925  13.339   3.736   4.145
49532W        W17926  20.532  38.024   3.273
49533W        W17927  14.184  30.000  11.876
49534W        W17928   0.720  33.555   0.290
49535W        W17929   1.204   4.071   2.692
49536W        W17930  42.808  15.596  12.540
49537W        W17931   4.440  32.957   3.843
49538W        W17932  36.028  24.797  12.990
49539W        W17933  31.504   3.941  11.152
49540W        W17934  38.669  19.726   1.927
49541W        W17935   7.853  43.014  10.344
49542W        W17936  44.386  11.678   1.964
49543W        W17937   4.214  18.999  13.956
49544W        W17938  16.667  18.232   4.332
49545W        W17939  23.622  21.813  12.209
49546W        W17940   6.586  19.039  11.129
49547W        W17941  40.076  43.233  11.994
49548W        W17942   5.498   2.738   1.773
49549W        W17943  20.103  37.875  13.058
49550W        W17944  38.460   2.382  13.580
49551W        W17945  38.542  14.245   3.969
49552W        W17946  30.834  29.168   2.728
49553W        W17947   9.677  36.014   0.197
49554W        W17948   6.298  13.432  14.818
49555W        W17949  44.768  38.894   2.906
49556W        W17950  18.961  26.684   3.675
49557W        W17951  14.213  28.350   3.717
49558W        W17952  34.865  20.079  13.382
49559W        W17953  13.804  17.371  13.312
49560W        W17954  22.274  26.373  14.326
49561W        W17955   9.314  24.956  14.864
49562W        W17956  34.111  26.058   4.670
49563W        W17957   9.254  10.933   3.096
49564W        W17958  44.496   8.688  10.001
49565W        W17959   4.174  41.797  14.408
49566W        W17960  42.028  30.388  12.216
49567W        W17961  24.362  13.299  12.581
49568W        W17962  13.911  17.594   4.290
49569W        W17963   9.709  11.637  14.964
49570W        W17964  37.451   0.891  11.609
49571W        W17965  44.041  34.620   0.346
49572W        W17966   8.062   2.219  14.353
49573W        W17967   4.182  12.858   2.806
49574W        W17968   0.404  22.753  11.593
49575W        W17969  15.220  20.725   3.341
49576W        W17970  26.417  34.426   2.746
49577W        W17971  31.607  38.432   3.393
49578W        W17972  22.943  41.883   4.543
49579W        W17973  44.815  33.617   2.061
49580W        W17974  43.505   6.241   2.266
49581W        W17975  30.085  44.732   4.622
49582W        W17976   7.812   5.880   3.641
49583W        W17977   0.139  44.871   1.440
49584W        W17978  42.848  40.094  10.103
49585W        W17979  37.152  23.713  13.888
49586W        W17980  14.187   4.702  13.544
49587W        W17981  21.642  13.621   3.800
49588W        W17982  28.160  22.995   0.060
49589W        W17983  27.857  33.126   2.276
49590W        W17984   1.223   7.117  14.332
49591W        W17985  38.992  18.737   0.917
49592W        W17986   5.776  29.879   2.326
49593W        W17987  12.055  38.922   3.776
49594W        W17988   2.795  40.133   0.361
49595W        W17989  41.263  29.535   4.121
49596W        W17990   9.698  17.852  11.756
49597W        W17991  16.973   1.424  11.811
49598W        W17992  18.556  18.315  11.164
49599W        W17993  16.697  43.631  13.613
49600W        W17994  21.266  42.098   1.827
49601W        W17995   0.728  31.652   1.751
49602W        W17996  24.499  29.465   4.138
49603W        W17997   1.396  27.522  12.275
49604W        W17998  21.825  32.996   4.772
49605W        W17999  18.802  25.544  12.498
49606W        W18000   4.965  38.126  11.115
49607W        W18001   8.374  32.433  13.038
49608W        W18002   7.240  42.857  11.981
49609W        W18003   3.216  36.059  10.779
49610W        W18004  13.064   6.948   3.610
49611W        W18005  13.778  14.172  12.507
49612W        W18006  18.114  20.065   1.151
49613W        W18007  11.075   1.410   2.893
49614W        W18008  21.516  22.405   1.803
49615W        W18009  17.892  26.872   1.752
49616W        W18010  33.594   2.148  12.792
49617W        W18011  15.070   1.649  12.969
49618W        W18012   6.707  27.472   2.633
49619W        W18013  24.011  36.792  13.864
49620W        W18014  11.736  42.385  12.466
49621W        W18015  20.667  40.957  11.557
49622W        W18016  33.648  26.522  11.992
49623W        W18017  34.605   7.879  11.193
49624W        W18018  28.460  38.990  10.723
49625W        W18019  30.616  15.830   5.071
49626W        W18020  44.891  22.156  13.786
49627W        W18021  11.454  37.947   0.971
49628W        W18022  37.561  19.762   2.588
49629W        W18023  29.694  22.794   0.954
49630W        W18024  26.275  35.624   3.444
49631W        W18025  30.534  37.898  14.037
49632W        W18026  33.492  24.772   0.442
49633W        W18027  14.914  40.392   2.735
49634W        W18028  39.444   7.752   1.375
49635W        W18029  11.160  35.624  12.233
49636W        W18030  35.418   0.474  14.415
49637W        W18031  44.756  21.601  11.880
49638W        W18032  19.098  19.125   2.922
49639W        W18033   1.214  17.075  10.493
49640W        W18034  30.635   3.752   3.835
49641W        W18035  27.687  23.324   2.293
49642W        W18036  14.195  28.706  11.488
49643W        W18037  36.163  24.728   1.386
49644W        W18038  21.883  14.065  12.153
49645W        W18039  31.630  13.565   1.982
49646W        W18040  10.127   4.880  13.226
49647W        W18041  25.755  37.899  13.430
49648W        W18042  23.244  14.719  11.089
49649W        W18043   3.931  37.942   1.035
49650W        W18044  42.507  41.280  13.308
49651W        W18045  44.528   0.196   4.299
49652W        W18046  18.589   9.987  12.163
49653W        W18047  36.066   7.948  14.382
49654W        W18048  23.726   6.385   4.849
49655W        W18049  36.879   7.004  11.517
49656W        W18050   0.407   4.037  14.048
49657W        W18051  41.043   6.466  14.880
49658W        W18052  16.182  19.670   2.103
49659W        W18053   6.603   9.828   0.789
49660W        W18054  22.440   2.410  10.462
49661W        W18055  36.046  13.363  14.866
49662W        W18056  19.859  15.052   1.276
49663W        W18057  19.665   3.994  12.214
49664W        W18058  37.539  25.616   3.729
49665W        W18059  35.136  22.268  12.230
49666W        W18060  22.585  20.770  11.223
49667W        W18061   2.988  10.278   0.239
49668W        W18062  21.025  34.297   2.746
49669W        W18063  44.072  19.169  14.563
49670W        W18064   1.579  36.997  14.400
49671W        W18065   3.766  37.779  14.264
49672W        W18066  10.169  31.138   2.265
49673W        W18067  42.309  43.231  14.595
49674W        W18068   7.545  17.865  14.818
49675W        W18069  37.133  26.725   4.714
49676W        W18070  24.513  21.785   4.029
49677W        W18071  20.675   1.347  10.783
49678W        W18072  42.954   5.403   4.293
49679W        W18073  19.470  34.238  12.076
49680W        W18074  43.749   4.940  11.817
49681W        W18075  36.601  16.759  11.517
49682W        W18076  16.584  10.224  10.826
49683W        W18077  34.856  44.733   2.359
49684W        W18078  23.233   3.395   3.712
49685W        W18079   8.777  24.931  12.986
49686W        W18080  34.016  22.906  14.380
49687W        W18081   3.371  12.423  13.920
49688W        W18082  26.027  34.537   0.890
49689W        W18083   1.057  28.069  10.252
49690W        W18084  42.589   1.322  14.409
49691W        W18085   9.135  30.576   3.611
49692W        W18086   9.325   5.661   4.566
49693W        W18087  15.044  34.433  10.568
49694W        W18088  11.321   6.939   4.064
49695W        W18089  19.854  20.444   2.690
49696W        W18090   3.876  41.959  14.908
49697W        W18091  27.184  15.097  14.419
49698W        W18092  29.890  15.013  14.244
49699W        W18093  21.091  13.418   5.094
49700W        W18094  24.619  31.198  14.612
49701W        W18095  43.773   0.057  14.757
49702W        W18096   1.427  14.814   0.938
49703W        W18097  36.686  14.311   4.497
49704W        W18098  18.736  21.925   2.756
49705W        W18099   7.678  37.518   4.632
49706W        W18100   4.100  22.730  14.898
49707W        W18101   6.342  32.518  13.033
49708W        W18102  32.680  22.221   3.309
49709W        W18103  21.255  41.905   3.052
49710W        W18104  22.094  21.692  10.659
49711W        W18105  37.805   5.733   3.624
49712W        W18106  10.489   7.668  10.937
49713W        W18107  16.395  26.847  11.010
49714W        W18108  25.217  12.742  14.658
49715W        W18109  17.785  10.861  13.165
49716W        W18110  39.448  19.807  13.075
49717W        W18111  36.741  13.205  12.524
49718W        W18112  24.428   2.218   1.755
49719W        W18113  22.660   4.212   0.448
49720W        W18114  15.557   8.513   1.802
49721W        W18115  40.971  23.180  10.734
49722W        W18116   0.637   1.494  11.579
49723W        W18117  28.468   5.347  11.601
49724W        W18118  29.393  23.765   1.850
49725W        W18119  15.200  24.971  11.105
49726W        W18120   4.588   1.190   2.326
49727W        W18121   8.498  26.064  11.647
49728W        W18122  33.866  24.074  11.175
49729W        W18123  35.079  17.173   3.599
49730W        W18124  32.893   2.300   0.236
49731W        W18125  17.247  36.183   3.822
49732W        W18126  28.529  35.980  12.987
49733W        W18127  21.015  44.244   2.325
49734W        W18128  33.460  14.348  14.087
49735W        W18129  10.126  27.977  12.132
49736W        W18130  11.075   4.491   1.793
49737W        W18131  25.453  17.056  14.363
49738W        W18132  17.792  37.408  12.652
49739W        W18133  23.653  40.379  12.515
49740W        W18134  37.262  41.470   1.691
49741W        W18135   8.270   5.019   2.091
49742W        W18136  39.858  11.989   4.357
49743W        W18137  25.757  11.117   3.725
49744W        W18138   3.277   7.173   0.706
49745W        W18139  21.698  21.390  11.616
49746W        W18140   0.092   2.749   0.478
49747W        W18141  21.568  11.923  12.880
49748W        W18142  16.691  19.612   3.233
49749W        W18143   7.304  26.462   1.007
49750W        W18144  30.880  31.561  12.143
49751W        W18145  13.805  18.784  11.130
49752W        W18146   5.454   9.696   4.027
49753W        W18147  17.636  39.305   2.625
49754W        W18148   8.471  13.390   3.221
49755W        W18149  14.752  36.047   2.196
49756W        W18150  32.123  23.743   4.273
49757W        W18151  32.098   7.579   4.814
49758W        W18152  14.800  29.977   3.548
49759W        W18153   9.327  14.978   4.135
49760W        W18154  34.211   9.554  14.480
49761W        W18155  39.257  19.129  10.878
49762W        W18156  26.455  31.642   0.214
49763W        W18157  42.474   2.648  12.485
49764W        W18158  35.887  36.549  14.875
49765W        W18159  30.978  37.157  14.790
49766W        W18160  10.198  39.023   2.200
49767W        W18161   2.819  27.908   4.287
49768W        W18162  18.514  42.468  13.917
49769W        W18163  26.159  34.649  14.997
49770W        W18164  15.892   2.009  11.291
49771W        W18165  22.662  15.211   4.198
49772W        W18166  15.567  25.420   2.213
49773W        W18167   2.867   1.928  10.893
49774W        W18168   2.239  27.482   3.607
49775W        W18169   3.266   0.408  13.060
49776W        W18170  24.661  11.549   0.809
49777W        W18171  16.523  30.368   4.603
49778W        W18172  24.976  20.185   4.542
49779W        W18173  39.064  37.794   3.640
49780W        W18174  17.715   4.544   0.618
49781W        W18175  19.492   4.427  10.411
49782W        W18176  19.665  17.041   1.886
49783W        W18177  35.397  39.933  13.287
49784W        W18178  39.997  38.839   1.731
49785W        W18179  22.544  16.906  13.474
49786W        W18180  43.487  32.842   4.157
49787W        W18181  36.457   5.801   4.782
49788W        W18182   7.505   7.682   3.464
49789W        W18183  16.070  18.095   1.289
49790W        W18184  33.340  13.294  14.784
49791W        W18185  30.594  20.810   4.860
49792W        W18186  44.808  31.477  12.419
49793W        W18187  38.973  11.386   0.789
49794W        W18188  19.090   3.783   2.401
49795W        W18189  18.050   7.948  11.644
49796W        W18190   4.937  27.777   2.818
49797W        W18191   6.013  25.675  10.952
49798W        W18192  18.598  23.092  14.756
49799W        W18193  13.659  10.098   0.861
49800W        W18194  20.969   9.277  11.199
49801W        W18195  27.620  30.185  14.415
49802W        W18196  30.832   9.826  11.926
49803W        W18197  10.637  21.747   4.733
49804W        W18198  26.688  38.389   1.753
49805W        W18199  34.001  24.089  14.452
49806W        W18200  10.188  16.229   1.752
49807W        W18201   9.363  17.687   2.419
49808W        W18202  40.257  24.301   2.120
49809W        W18203  30.167  39.492   2.895
49810W        W18204  43.389  41.002  12.396
49811W        W18205  10.829  14.620   0.747
49812W        W18206   8.195  13.214  13.567
49813W        W18207  20.068  23.549  14.812
49814W        W18208  38.014  27.602  13.416
49815W        W18209  19.807  14.073   4.779
49816W        W18210   9.571  30.067   0.773
49817W        W18211  29.720  10.533  13.468
49818W        W18212  22.062  22.502   1.368
49819W        W18213  14.066  22.775  11.661
49820W        W18214  20.005  31.581  11.696
49821W        W18215  11.775  10.130   4.111
49822W        W18216  32.613  22.536  11.923
49823W        W18217   2.316  21.073  13.111
49824W        W18218  20.539   2.073   1.817
49825W        W18219  36.751  30.477   3.404
49826W        W18220  13.159   1.284  11.193
49827W        W18221  36.301  39.416  10.841
49828W        W18222   6.160  44.472  11.574
49829W        W18223  10.243  30.922   1.188
49830W        W18224   0.754   5.005  10.164
49831W        W18225  38.006  43.396   2.342
49832W        W18226  42.079  24.078  14.854
49833W        W18227  32.971   6.890  11.585
49834W        W18228  18.000  20.120  11.184
49835W        W18229   3.681  33.118  14.836
49836W        W18230   3.258   4.416   1.822
49837W        W18231  25.230  21.589   0.749
49838W        W18232   7.935  21.930  11.182
49839W        W18233   3.598   8.838  10.413
49840W        W18234  22.248  37.411   9.894
49841W        W18235  22.935  23.595  14.674
49842W        W18236  11.368   9.442  12.017
49843W        W18237  14.695  24.557   2.768
49844W        W18238  35.581   0.247  13.941
49845W        W18239  37.592  13.598   3.912
49846W        W18240  12.311  16.691   1.541
49847W        W18241  38.993   4.688   2.620
49848W        W18242  31.538  23.190   3.087
49849W        W18243  30.542  36.384   0.922
49850W        W18244  12.074   2.949  14.317
49851W        W18245   4.367  16.304   5.054
49852W        W18246   0.330  30.585  12.457
49853W        W18247   8.312  28.081   0.260
49854W        W18248  35.619  23.208   0.943
49855W        W18249   0.591  31.965   2.189
49856W        W18250  42.248  28.117   1.349
49857W        W18251  13.925  43.254  14.396
49858W        W18252  16.309  39.446  11.154
49859W        W18253  14.441  31.193   1.432
49860W        W18254  40.358   7.263   4.818
49861W        W18255  32.512  29.662  14.934
49862W        W18256   4.388   0.252   3.087
49863W        W18257  16.653  28.760  12.587
49864W        W18258   7.784  30.728  14.783
49865W        W18259  40.786  37.481   2.767
49866W        W18260   4.459  25.159   5.474
49867W        W18261  36.927  35.756  13.885
49868W        W18262  39.316   6.284  12.574
49869W        W18263  34.230  14.355  14.815
49870W        W18264  15.105  16.294  14.334
49871W        W18265  35.959  22.918  11.184
49872W        W18266  21.536   1.343  13.022
49873W        W18267  10.321  34.682   1.873
49874W        W18268  43.264  14.723  11.787
49875W        W18269  14.799   4.022   2.878
49876W        W18270  33.401   2.644   4.899
49877W        W18271  21.015  27.800  13.457
49878W        W18272  22.256  43.084   2.778
49879W        W18273  10.546  39.256  14.701
49880W        W18274  24.625   9.017   9.947
49881W        W18275  25.998  11.098  12.969
49882W        W18276  14.524  15.206   1.173
49883W        W18277  39.921  22.324  11.194
49884W        W18278  21.614  10.579  11.036
49885W        W18279  19.121  14.728  11.711
49886W        W18280  44.369  15.311   0.407
49887W        W18281   4.108  15.726  10.279
49888W        W18282  19.358  41.869  14.934
49889W        W18283  16.270  24.561   3.701
49890W        W18284  27.621  25.990  11.845
49891W        W18285  40.160   9.035   1.905
49892W        W18286  35.506   2.916   3.645
49893W        W18287   7.219  43.474  11.499
49894W        W18288  39.408  39.648   3.063
49895W        W18289  28.618  44.146  13.870
49896W        W18290  35.116  44.389  11.186
49897W        W18291  29.746  29.432  10.771
49898W        W18292   6.106  39.369  12.396
49899W        W18293   8.346  44.066   1.698
49900W        W18294  40.013   9.589   4.437
49901W        W18295  24.222   4.364  14.525
49902W        W18296  28.663  38.088   0.968
49903W        W18297  17.388  35.429  11.173
49904W        W18298  21.294  36.699   5.268
49905W        W18299   9.979   0.394  13.457
49906W        W18300   4.154   7.976  13.784
49907W        W18301  14.546   4.230   4.703
49908W        W18302  20.341   8.170   2.145
49909W        W18303  41.464  16.830   4.545
49910W        W18304   0.393  30.336   1.683
49911W        W18305   4.280   1.004   3.629
49912W        W18306  30.211  40.361  12.608
49913W        W18307  32.194  26.559   3.588
49914W        W18308   8.959  17.018   2.555
49915W        W18309  40.974  37.787   3.889
49916W        W18310  32.037  33.847  13.320
49917W        W18311   7.947  32.873   3.160
49918W        W18312  31.446   2.950   1.448
49919W        W18313  21.482  14.817   3.368
49920W        W18314  10.421  21.289   5.018
49921W        W18315  35.634   2.710  13.040
49922W        W18316  10.166   1.480  10.620
49923W        W18317  10.145  26.989  12.163
49924W        W18318  25.666  12.053  11.703
49925W        W18319  10.241  20.640   0.287
49926W        W18320  22.033   3.036   1.309
49927W        W18321  16.489   4.274   3.714
49928W        W18322   3.476  30.008   3.567
49929W        W18323  41.113  39.883   1.963
49930W        W18324   6.653   2.644  10.076
49931W        W18325  13.739  23.233   1.866
49932W        W18326   3.702  42.128   3.046
49933W        W18327   9.265  15.490   2.366
49934W        W18328  44.372  42.368   3.697
49935W        W18329   4.730   5.975   0.878
49936W        W18330   3.040  40.851   2.757
49937W        W18331  26.876  12.503   2.000
49938W        W18332  15.031  18.726  11.032
49939W        W18333   2.781  10.089   1.721
49940W        W18334  41.890  14.691   4.154
49941W        W18335  19.592  38.570  12.069
49942W        W18336  41.747  26.055  13.334
49943W        W18337   2.177  27.868   0.383
49944W        W18338  23.386   9.328   2.182
49945W        W18339   1.784  35.928  11.687
49946W        W18340  43.964  30.126  12.897
49947W        W18341   9.301  18.556   2.078
49948W        W18342   5.844   2.312   4.153
49949W        W18343  44.385  21.602  11.526
49950W        W18344  43.788  11.236   1.235
49951W        W18345  15.182  39.136  12.041
49952W        W18346  36.994  32.709  12.965
49953W        W18347  20.372  25.982   4.096
49954W        W18348  34.495  35.890   2.003
49955W        W18349  26.598  10.775   1.953
49956W        W18350  23.571  34.062  14.382
49957W        W18351  16.792   4.326  11.975
49958W        W18352  21.522  35.790  11.689
49959W        W18353   1.959  18.723  13.045
49960W        W18354   1.836  34.444  12.601
49961W        W18355  43.311  16.228   4.579
49962W        W18356  37.441   4.894  13.401
49963W        W18357  13.269  32.130   0.360
49964W        W18358  20.961   4.726   4.114
49965W        W18359  29.664  42.431  14.406
49966W        W18360   9.969  26.679   3.406
49967W        W18361  22.074  40.512   0.834
49968W        W18362  28.487  43.725  11.274
49969W        W18363   7.827   8.211  11.568
49970W        W18364   8.238  28.481  12.659
49971W        W18365  10.725  22.005  12.281
49972W        W18366  34.258  12.579   4.089
49973W        W18367  19.497  38.872   2.307
49974W        W18368  35.105  22.013   4.210
49975W        W18369  38.806  42.922   1.693
49976W        W18370  11.926  34.747  12.047
49977W        W18371  10.232  25.757   1.896
49978W        W18372  16.346   5.679   3.558
49979W        W18373  13.324  17.826  13.971
49980W        W18374  10.746   9.819  14.569
49981W        W18375  33.635  25.985   2.667
49982W        W18376   1.791  18.880  14.040
49983W        W18377   4.354  43.977  11.742
49984W        W18378  36.375  17.261  14.933
49985W        W18379  32.945  41.930   0.951
49986W        W18380  38.401  14.555  13.180
49987W        W18381  35.348   5.304   0.829
49988W        W18382   6.194  29.348   4.505
49989W        W18383  11.284  32.786  13.808
49990W        W18384  10.878   1.922   2.273
49991W        W18385  37.987  34.985   1.323
49992W        W18386  24.024  14.270   0.433
49993W        W18387  24.076  27.354  13.303
49994W        W18388  36.995  29.119   3.876
49995W        W18389  22.860  14.874  13.023
49996W        W18390  40.979  21.059  14.767
49997W        W18391  19.188  40.078   5.050
49998W        W18392  31.714   1.515   0.740
49999W        W18393  22.995  18.132  10.725
50000W        W18394  38.081  39.868  12.492
50001W        W18395  16.751  23.124  14.250
50002W        W18396  18.755  11.533  14.490
50003W        W18397  12.105  44.625  10.931
50004W        W18398  37.500  24.021   1.462
50005W        W18399  34.938  17.078   2.597
50006W        W18400  19.488   1.191  13.069
50007W        W18401   5.756  32.400   1.204
50008W        W18402  25.154  44.924   1.640
50009W        W18403  29.121   0.436  11.228
50010W        W18404  13.373  10.314   0.484
50011W        W18405   8.807  39.008   4.634
50012W        W18406  12.410   1.418   4.174
50013W        W18407  37.892  22.765   3.879
50014W        W18408  30.664   1.372  11.618
50015W        W18409  14.174  31.630   1.316
50016W        W18410   9.883  41.784   1.539
50017W        W18411  20.050  34.422  11.229
50018W        W18412  30.266   0.594   3.665
50019W        W18413   5.891  13.132   2.170
50020W        W18414  34.479  26.561   4.044
50021W        W18415  37.048  24.141   1.711
50022W        W18416  34.124  35.594   4.042
50023W        W18417  31.240  40.549   0.861
50024W        W18418   6.961  24.226  13.983
50025W        W18419  27.423  29.654   0.940
50026W        W18420   3.495  30.508  10.775
50027W        W18421  33.144   5.665   3.209
50028W        W18422  41.468  18.702   2.381
50029W        W18423  19.341  30.697   2.664
50030W        W18424  20.921   9.564  11.626
50031W        W18425   9.104  13.292  14.819
50032W        W18426  20.495  44.531   3.149
50033W        W18427   7.260  22.685  12.029
50034W        W18428  42.120   2.665   0.390
50035W        W18429  33.692  24.012  11.656
50036W        W18430  34.456  33.392   4.253
50037W        W18431  39.484  10.096  12.078
50038W        W18432  24.105  44.127  12.425
50039W        W18433  24.093  36.275  13.763
50040W        W18434  16.349  15.207  11.228
50041W        W18435  21.173  24.189  11.614
50042W        W18436  37.529   5.738   1.836
50043W        W18437  21.999  20.332   2.862
50044W        W18438   1.870  27.922   2.166
50045W        W18439  12.502  44.260  11.700
50046W        W18440  39.290  41.167   3.646
50047W        W18441  17.547  38.156   4.760
50048W        W18442   0.748  17.135  11.673
50049W        W18443  28.541   9.126   4.187
50050W        W18444   1.788  26.503   0.972
50051W        W18445   8.478  27.034   2.949
50052W        W18446  30.371  10.117   4.160
50053W        W18447   5.192  11.077  14.568
50054W        W18448  10.693  40.069   0.236
50055W        W18449  27.269  14.065  12.757
50056W        W18450  20.527  22.276   4.724
50057W        W18451  29.163  39.493  13.114
50058W        W18452  26.058  22.068  11.416
50059W        W18453  23.599  29.416   2.905
50060W        W18454  23.052  44.924   1.123
50061W        W18455  29.681  24.918   2.377
50062W        W18456  44.789  35.858   3.195
50063W        W18457  20.631  36.773   0.028
50064W        W18458   6.705  32.698   2.748
50065W        W18459  30.911  44.119   3.653
50066W        W18460  15.655  35.321   4.056
50067W        W18461  18.336   5.258  14.048
50068W        W18462  24.541  13.245   1.142
50069W        W18463  44.945  43.019  12.511
50070W        W18464  13.332  18.615  11.049
50071W        W18465  44.365  35.236  10.533
50072W        W18466  31.889  30.081   2.838
50073W        W18467   5.675  13.588  13.154
50074W        W18468  44.303  44.862  11.267
50075W        W18469  11.577  14.977   0.525
50076W        W18470   4.557  20.037   3.599
50077W        W18471  35.830  35.537  14.123
50078W        W18472   1.664  31.005  11.083
50079W        W18473  14.084  24.787   3.690
50080W        W18474  13.131  42.007   4.541
50081W        W18475  38.989  23.432  13.395
50082W        W18476  41.505   4.727  12.333
50083W        W18477  35.026   1.800  11.365
50084W        W18478  26.204  19.082   0.453
50085W        W18479   2.498  41.903   0.720
50086W        W18480  28.653  18.259  11.748
50087W        W18481  32.135  36.898  13.508
50088W        W18482  28.133  31.391   0.352
50089W        W18483   0.499  29.500   4.577
50090W        W18484  37.196   6.774   4.422
50091W        W18485  18.981  23.612   2.670
50092W        W18486   0.250  11.603   0.230
50093W        W18487  15.156  43.967   2.466
50094W        W18488  14.315  34.621   3.828
50095W        W18489  25.041  20.249  12.501
50096W        W18490  36.349  20.974  14.457
50097W        W18491   4.414  31.478   0.272
50098W        W18492  21.335  41.838  13.509
50099W        W18493  43.776  35.403  12.110
50100W        W18494  26.116   3.850   3.243
50101W        W18495  15.529   0.268  14.592
50102W        W18496  38.961  14.713   2.188
50103W        W18497  29.659   0.005   3.308
50104W        W18498   3.630  44.695   3.600
50105W        W18499  17.512   1.479  11.963
50106W        W18500  36.045  37.613   4.696
50107W        W18501  28.541  25.803   4.446
50108W        W18502   9.259  33.572   2.747
50109W        W18503  32.039   3.212   2.807
50110W        W18504   4.999  28.621   4.721
50111W        W18505  10.897   7.648   3.439
50112W        W18506   1.652  19.568   0.800
50113W        W18507  43.088   6.621   4.982
50114W        W18508  32.923  42.721   1.942
50115W        W18509   4.322  11.288  12.950
50116W        W18510  34.695   7.806   4.100
50117W        W18511  12.179  39.379  14.046
50118W        W18512  31.404   7.141  12.915
50119W        W18513  36.451  30.913   3.340
50120W        W18514  28.666  36.385   1.756
50121W        W18515  27.064  43.304   0.526
50122W        W18516  39.868  34.039   1.838
50123W        W18517  37.127  33.555  14.257
50124W        W18518  37.840  23.717  14.805
50125W        W18519  42.458  37.813  12.914
50126W        W18520  12.855   2.884   3.772
50127W        W18521  28.199  24.737   1.565
50128W        W18522  16.021  26.827  14.949
50129W        W18523  41.050   6.587  11.461
50130W        W18524  38.528  34.796  14.438
50131W        W18525   7.850  13.008  11.174
50132W        W18526  24.761  44.975  12.061
50133W        W18527  18.799  30.180   3.717
50134W        W18528   5.379  21.460   1.852
50135W        W18529  14.607  24.694   3.622
50136W        W18530  10.543  14.186   0.828
50137W        W18531  23.897  36.492   4.170
50138W        W18532  42.792  43.309  11.585
50139W        W18533  33.609  36.883   4.626
50140W        W18534   5.939  20.079   2.871
50141W        W18535  28.673  38.094   1.862
50142W        W18536  14.808   1.992   3.274
50143W        W18537   8.651  37.170   2.353
50144W        W18538  19.341  41.506   3.145
50145W        W18539  34.355  22.610  12.056
50146W        W18540   1.292  36.009  11.923
50147W        W18541  20.433  20.583   0.768
50148W        W18542  12.864   5.852   2.831
50149W        W18543  17.189  32.254  14.860
50150W        W18544  39.181  36.487   1.218
50151W        W18545  24.982  22.539  11.186
50152W        W18546   1.852  31.137   2.729
50153W        W18547  36.870  30.640  11.741
50154W        W18548  30.737  40.461   0.794
50155W        W18549  33.205  34.629   2.138
50156W        W18550  44.281  35.597  10.935
50157W        W18551  32.346  40.586  13.791
50158W        W18552   6.648   4.216  14.493
50159W        W18553  22.174  40.145  11.060
50160W        W18554  43.691  32.110  12.717
50161W        W18555  37.978   2.241   1.950
50162W        W18556  18.155  19.586   2.629
50163W        W18557   7.722  13.311  13.362
50164W        W18558   9.788  33.184   1.424
50165W        W18559  17.234   9.560  11.985
50166W        W18560   8.291  34.354   2.210
50167W        W18561  23.036   9.671   2.340
50168W        W18562  43.946  33.652   2.763
50169W        W18563  23.012   8.345   2.260
50170W        W18564  26.153  31.838   1.913
50171W        W18565   0.833  18.865  14.774
50172W        W18566   5.162  21.288   2.271
50173W        W18567  16.843  20.029   4.629
50174W        W18568  24.588  42.265   1.854
50175W        W18569   7.874  18.625  12.685
50176W        W18570  33.922  43.939   4.712
50177W        W18571  20.754  24.537  13.307
50178W        W18572  44.494  27.764  11.051
50179W        W18573  39.407  11.660  13.880
50180W        W18574  23.526   2.251   4.917
50181W        W18575  25.424  30.573  14.882
50182W        W18576  16.549   5.186   0.521
50183W        W18577  10.761  25.784   0.394
50184W        W18578  18.843  27.045   4.527
50185W        W18579  17.622  31.936  12.157
50186W        W18580  27.507  33.340  14.048
50187W        W18581  11.357  27.208   1.249
50188W        W18582  35.385  17.717   4.600
50189W        W18583  26.253  25.157  12.496
50190W        W18584   5.328  14.833  13.472
50191W        W18585  40.803  33.088  12.799
50192W        W18586  41.613  15.070  13.350
50193W        W18587  40.807  23.691   1.921
50194W        W18588  23.051  41.754   1.550
50195W        W18589  12.576  40.044   4.572
50196W        W18590  33.360   1.479   1.380
50197W        W18591  17.704   2.922  13.982
50198W        W18592  19.623   8.623   0.837
50199W        W18593   5.288  36.368  11.155
50200W        W18594   3.456  34.956  12.138
50201W        W18595  37.326  12.116  11.790
50202W        W18596  26.083  16.393  11.882
50203W        W18597  26.177  17.330   3.800
50204W        W18598  41.081  17.835   2.605
50205W        W18599  32.595   4.643  14.071
50206W        W18600  14.207   3.191  12.650
50207W        W18601  15.459  20.500   0.163
50208W        W18602  16.283  38.531   3.125
50209W        W18603   0.702   9.025   1.012
50210W        W18604  15.616   5.013   2.139
50211W        W18605  40.462  19.916  11.906
50212W        W18606  33.637  32.527  10.826
50213W        W18607  12.779  26.871   3.739
50214W        W18608  26.188  11.115   4.180
50215W        W18609  10.658   2.234   1.324
50216W        W18610  36.392  12.717  12.671
50217W        W18611  41.443  20.810  14.748
50218W        W18612  29.863  11.122  14.947
50219W        W18613  14.098  30.676  12.618
50220W        W18614  17.670  22.626  13.973
50221W        W18615  22.980   1.419   1.257
50222W        W18616   3.743  34.423   2.823
50223W        W18617  44.736  32.495  11.920
50224W        W18618  43.460  42.811   1.906
50225W        W18619  16.286  44.263   0.418
50226W        W18620   9.781   4.550  14.824
50227W        W18621  18.757  36.059   2.353
50228W        W18622  35.648  40.631  13.981
50229W        W18623  16.195   8.170  14.438
50230W        W18624  14.264   3.291   5.114
50231W        W18625  19.983  11.560   1.625
50232W        W18626  30.024  43.825  11.209
50233W        W18627  12.699  42.149  14.825
50234W        W18628  22.180   2.953   1.873
50235W        W18629   5.181  23.564  11.069
50236W        W18630   1.097  16.050   1.654
50237W        W18631  36.811  26.747   4.272
50238W        W18632  29.762   7.283  12.578
50239W        W18633  30.440  21.059  11.646
50240W        W18634  30.991  11.705   1.972
50241W        W18635   7.200  11.986  12.487
50242W        W18636   9.676  13.696   3.590
50243W        W18637  44.755  23.838  13.075
50244W        W18638  43.854  21.569   1.540
50245W        W18639  43.811  44.551   3.982
50246W        W18640  35.142   6.843   4.567
50247W        W18641  37.595   3.952  10.769
50248W        W18642  27.738  14.142  12.020
50249W        W18643   2.274  34.432  12.284
50250W        W18644   6.434  32.450  11.649
50251W        W18645  29.860   8.746   4.238
50252W        W18646  11.593  33.956   3.373
50253W        W18647   3.290  19.536   3.332
50254W        W18648  23.677  38.780  11.557
50255W        W18649   1.242  44.856   4.053
50256W        W18650  14.163   8.172  14.416
50257W        W18651  30.262  27.129  11.999
50258W        W18652  10.162   5.630   4.970
50259W        W18653  35.144  19.642  11.371
50260W        W18654   3.955   7.664   1.658
50261W        W18655  11.741  16.779   0.711
50262W        W18656   3.448  38.601  11.234
50263W        W18657  43.589  18.197  12.089
50264W        W18658  23.220  40.518  11.646
50265W        W18659  17.481  21.775   0.398
50266W        W18660  12.814   2.436  14.985
50267W        W18661  39.593  28.719   3.856
50268W        W18662  39.003   3.002  13.969
50269W        W18663  33.639  22.639   3.775
50270W        W18664  16.032  39.980  13.552
50271W        W18665  11.597  31.098  12.507
50272W        W18666   3.462  36.090   3.150
50273W        W18667   4.899  36.377   0.978
50274W        W18668  17.501   5.751  12.127
50275W        W18669  30.985  18.235  14.334
50276W        W18670   0.115   2.256   4.240
50277W        W18671   7.898  15.307  11.082
50278W        W18672  29.650  23.754  13.349
50279W        W18673  33.643  22.139  13.113
50280W        W18674  44.199  29.743   4.573
50281W        W18675  14.299  42.520  12.350
50282W        W18676  19.678  23.201  10.918
50283W        W18677  15.242  24.432  12.530
50284W        W18678  43.285  13.124   4.277
50285W        W18679  28.450  28.002  12.686
50286W        W18680  24.334  26.450  13.442
50287W        W18681  39.622   2.270   0.580
50288W        W18682  32.608   3.450  14.290
50289W        W18683  29.042  20.442   4.883
50290W        W18684  12.189  39.046   3.288
50291W        W18685  20.289  24.676   1.860
50292W        W18686  25.129   9.860  11.131
50293W        W18687  15.654  22.279   3.673
50294W        W18688  33.435  42.011   1.900
50295W        W18689   4.014  34.202   4.095
50296W        W18690  36.080   8.764   0.040
50297W        W18691  23.680   8.885  13.247
50298W        W18692  40.010  16.150   1.233
50299W        W18693   2.688   5.363  11.650
50300W        W18694  14.606  18.111   3.450
50301W        W18695  11.679  32.569   2.215
50302W        W18696  14.023  16.952   0.249
50303W        W18697  23.123   4.473  12.175
50304W        W18698  39.961  29.554  11.422
50305W        W18699  25.773  43.278  13.469
50306W        W18700  18.644  38.613   2.246
50307W        W18701   5.834  32.109  10.724
50308W        W18702  23.533   7.747   3.678
50309W        W18703   1.326  32.980   4.517
50310W        W18704  30.763  14.723  11.211
50311W        W18705  16.803  12.982  13.023
50312W        W18706   1.792   5.422   2.713
50313W        W18707  44.453  35.944  13.116
50314W        W18708   3.066  35.558  12.174
50315W        W18709  41.126   8.526  12.879
50316W        W18710  30.009  35.789  11.112
50317W        W18711  35.377   5.816   2.171
50318W        W18712  26.985  31.864   0.312
50319W        W18713  15.647  24.780  11.280
50320W        W18714   8.072  22.373   5.038
50321W        W18715  41.810  10.810   1.339
50322W        W18716   8.160  16.514  13.264
50323W        W18717  10.084  23.792   4.510
50324W        W18718  31.001   4.851  14.530
50325W        W18719   5.470  32.092   3.363
50326W        W18720  28.895  16.261   4.654
50327W        W18721   4.386  42.898  13.485
50328W        W18722  14.516  36.916  11.448
50329W        W18723  33.444   2.059   3.160
50330W        W18724  37.874  31.100   2.615
50331W        W18725  43.905  30.567   1.895
50332W        W18726   8.100   4.920  11.045
50333W        W18727   4.602  38.903   2.135
50334W        W18728  19.779  34.556  12.979
50335W        W18729  19.539  13.652   3.173
50336W        W18730  39.345  40.175   3.101
50337W        W18731  42.374  14.568   2.178
50338W        W18732  23.193   1.651  13.992
50339W        W18733   5.848  21.044   4.850
50340W        W18734   4.804  41.779  12.909
50341W        W18735  41.003   9.333   0.515
50342W        W18736   8.391   9.603  12.060
50343W        W18737   2.995  29.025  13.297
50344W        W18738  11.267  11.789  11.127
50345W        W18739   7.256  43.436   2.671
50346W        W18740  30.227  40.451   0.698
50347W        W18741  32.914  20.926   1.490
50348W        W18742  44.220  26.825   0.086
50349W        W18743  34.442  25.612  12.293
50350W        W18744  24.732   1.485   0.412
50351W        W18745  12.294  10.624   2.260
50352W        W18746  41.617   2.660  11.561
50353W        W18747   4.506  32.061   3.687
50354W        W18748  16.528  15.674  14.330
50355W        W18749  15.342   5.402   1.651
50356W        W18750  33.328  38.547  12.980
50357W        W18751   7.443  33.329   3.297
50358W        W18752  18.689  28.491   0.389
50359W        W18753   5.353   1.812   3.924
50360W        W18754   3.911  36.466   4.175
50361W        W18755   8.841   2.511   9.754
50362W        W18756  22.559  33.858   2.192
50363W        W18757  34.829  20.904  12.529
50364W        W18758  15.599  36.795   3.051
50365W        W18759   0.992  11.623  11.207
50366W        W18760   5.736  37.443   1.304
50367W        W18761  18.200   1.956  13.353
50368W        W18762   3.913  35.040  14.002
50369W        W18763   0.247  12.306  11.505
50370W        W18764  16.149  13.909   2.403
50371W        W18765  44.994  39.060  12.911
50372W        W18766  10.566   8.477  11.687
50373W        W18767  39.923   4.510  11.695
50374W        W18768  42.952  15.322  12.096
50375W        W18769  15.605  36.432   2.662
50376W        W18770   4.098  10.734  11.736
50377W        W18771  28.960   8.735  11.152
50378W        W18772  18.691   7.367   3.930
50379W        W18773   2.476  34.652   0.364
50380W        W18774  39.059   4.239  12.605
50381W        W18775  30.397  14.224   1.403
50382W        W18776  39.365  37.487  10.891
50383W        W18777  13.108   3.224   3.236
50384W        W18778  20.063  44.279  13.370
50385W        W18779  24.094  31.901  12.052
50386W        W18780  14.280   4.389  10.276
50387W        W18781  25.230   9.363  12.470
50388W        W18782  27.374  36.499   0.376
50389W        W18783  26.612   6.542  12.026
50390W        W18784  33.658   6.214  14.885
50391W        W18785  10.931  16.354  13.915
50392W        W18786  30.044  30.045   3.364
50393W        W18787  23.556  42.035   2.152
50394W        W18788  21.707  14.535  11.974
50395W        W18789  24.487   8.357  13.768
50396W        W18790  40.913   8.593   2.342
50397W        W18791  27.734  30.130  12.956
50398W        W18792  42.798   4.700  12.068
50399W        W18793   5.849  41.392  13.771
50400W        W18794  20.412  15.302   1.252
50401W        W18795  39.085   6.482  13.712
50402W        W18796   2.238  26.058   1.477
50403W        W18797  29.106  34.118   3.755
50404W        W18798  10.181  16.533  13.417
50405W        W18799  41.524  23.060  11.958
50406W        W18800  12.463  42.926   0.016
50407W        W18801  35.145  34.631  13.613
50408W        W18802  12.906   1.154   4.183
50409W        W18803  42.899   0.894   0.037
50410W        W18804   4.402  41.674  12.146
50411W        W18805  32.530   0.975  12.586
50412W        W18806  40.276  41.216   0.355
50413W        W18807   1.823  44.528  12.001
50414W        W18808  34.303  23.097  13.081
50415W        W18809  44.693  37.033   2.523
50416W        W18810  43.453  29.689  14.443
50417W        W18811  25.844  42.965   0.689
50418W        W18812  20.421   1.029  11.550
50419W        W18813   3.302  33.411  11.139
50420W        W18814  32.511  14.646   0.443
50421W        W18815  25.687   0.827   3.124
50422W        W18816  29.761  21.591   0.100
50423W        W18817  14.073  14.759   3.285
50424W        W18818  31.644  30.499  14.259
50425W        W18819  16.293  24.008   1.756
50426W        W18820  10.188  35.768  13.318
50427W        W18821  34.097  14.246   4.762
50428W        W18822  21.852   9.323  14.064
50429W        W18823  32.861  15.821  11.627
50430W        W18824  35.080  44.866  11.599
50431W        W18825  33.319  38.421   2.749
50432W        W18826  40.259  13.716   2.648
50433W        W18827  33.916  33.009  11.463
50434W        W18828  38.140  40.351  12.591
50435W        W18829  27.115  43.743   0.846
50436W        W18830   1.899  20.597   3.657
50437W        W18831  42.825  30.945   3.918
50438W        W18832  20.566  21.666  14.266
50439W        W18833   8.317  20.988  12.422
50440W        W18834   5.274  11.069  14.037
50441W        W18835  29.782  31.613  10.754
50442W        W18836  25.769  15.673   2.292
50443W        W18837  29.474  29.903   1.415
50444W        W18838   5.508  30.890   2.342
50445W        W18839  26.035  33.178  11.013
50446W        W18840  34.202  16.561   0.237
50447W        W18841  28.975  38.747   3.335
50448W        W18842  35.306  16.690   4.725
50449W        W18843  11.073   2.756   0.673
50450W        W18844   1.001  33.881   2.810
50451W        W18845   0.112  38.132   5.062
50452W        W18846  18.979  10.985  14.925
50453W        W18847  38.020  30.550  13.819
50454W        W18848  40.672  26.530  10.128
50455W        W18849   4.542  20.222  13.766
50456W        W18850  25.084  19.733  12.436
50457W        W18851   4.744   2.893   0.017
50458W        W18852  39.241  18.071   0.310
50459W        W18853  14.102   1.270   0.215
50460W        W18854  44.026  29.046   4.201
50461W        W18855   6.226  16.667   3.665
50462W        W18856  12.911  13.317  14.812
50463W        W18857  22.143  10.771  14.833
50464W        W18858  10.693  28.659  12.712
50465W        W18859  11.091  22.284  12.586
50466W        W18860  35.012  14.507  12.516
50467W        W18861   4.127  25.001   3.183
50468W        W18862  13.632  41.924  11.204
50469W        W18863  15.102  20.645  14.823
50470W        W18864  26.035   2.416   0.775
50471W        W18865  25.568  21.783   1.354
50472W        W18866  13.061  28.792  11.078
50473W        W18867   5.637  38.918   2.112
50474W        W18868  24.626  17.500   1.037
50475W        W18869  18.579  39.848   4.183
50476W        W18870  11.378  40.913   2.905
50477W        W18871   0.381  26.992   1.275
50478W        W18872   8.885  34.622   4.110
50479W        W18873  24.360  42.872   1.852
50480W        W18874  12.114  26.988   0.833
50481W        W18875  44.684  39.578   4.035
50482W        W18876  14.406  24.695   0.439
50483W        W18877  21.021  23.626  11.993
50484W        W18878   7.202  32.587  12.849
50485W        W18879  34.720  33.426   4.683
50486W        W18880   5.779  33.233   4.551
50487W        W18881  14.818   0.951   4.358
50488W        W18882  25.227  41.799   3.226
50489W        W18883  13.247  35.137  13.791
50490W        W18884  12.814  27.597   0.048
50491W        W18885  21.680   8.391  12.238
50492W        W18886  27.069  20.637   3.129
50493W        W18887  20.583  28.716   3.725
50494W        W18888  25.054   3.392  12.462
50495W        W18889  22.591  44.697   2.471
50496W        W18890  42.528  24.076   2.366
50497W        W18891  32.929  42.398   0.649
50498W        W18892  33.570  17.135  12.515
50499W        W18893  16.666  32.419   1.991
50500W        W18894  32.947  41.289  10.815
50501W        W18895  22.501  36.621   4.120
50502W        W18896  34.861  25.536  10.720
50503W        W18897  12.791   0.030  13.325
50504W        W18898  31.626   7.809   4.768
50505W        W18899  41.867  18.711  11.670
50506W        W18900   2.047  37.985  12.846
50507W        W18901  37.132  38.751   3.233
50508W        W18902  41.488  39.990  11.195
50509W        W18903  42.907  42.578   0.973
50510W        W18904  21.054   9.643   1.346
50511W        W18905   5.643  43.976  12.083
50512W        W18906  15.220  12.181   4.131
50513W        W18907  19.113  30.516   3.498
50514W        W18908   4.724  17.271  10.453
50515W        W18909  44.766  31.537  13.405
50516W        W18910  23.927  20.183  10.604
50517W        W18911  37.291  38.666  11.591
50518W        W18912   7.825  33.790   4.154
50519W        W18913  35.395  13.206   0.986
50520W        W18914  31.333   4.427   2.633
50521W        W18915  30.467  26.092   3.690
50522W        W18916  31.576   0.484   1.351
50523W        W18917  15.338  42.989  14.892
50524W        W18918  18.252   7.203   4.123
50525W        W18919   2.366   6.204   4.632
50526W        W18920   1.914  15.394   3.671
50527W        W18921  44.358   4.056   4.405
50528W        W18922  16.868   2.436  10.604
50529W        W18923  41.306  34.934   0.781
50530W        W18924   3.253  39.126   1.856
50531W        W18925  11.127  30.469   1.630
50532W        W18926  33.115  44.780  12.925
50533W        W18927  32.579  11.282  12.110
50534W        W18928  28.255  32.607   3.940
50535W        W18929  36.903  15.347  12.914
50536W        W18930  15.269  34.436   2.658
50537W        W18931  10.363  30.585  12.177
50538W        W18932   0.639  14.606  13.955
50539W        W18933  31.905  36.053  11.885
50540W        W18934  20.684  37.066  11.197
50541W        W18935  43.816   8.436  11.113
50542W        W18936  22.495  20.953   5.197
50543W        W18937  33.858  17.085   1.415
50544W        W18938  41.310  34.945  13.072
50545W        W18939  11.630  11.724  11.915
50546W        W18940  41.351  17.610   4.059
50547W        W18941  31.154  33.081  11.609
50548W        W18942  23.608  15.484  14.381
50549W        W18943  13.327   1.207   3.060
50550W        W18944  43.578  21.730   2.198
50551W        W18945  19.729  36.361  10.241
50552W        W18946  36.165   2.948  11.592
50553W        W18947  30.799  20.041   2.508
50554W        W18948  35.672  21.065  12.010
50555W        W18949   3.450  27.147   2.304
50556W        W18950   5.644   0.914   0.088
50557W        W18951   0.104  37.400   2.170
50558W        W18952  21.186  30.953   2.679
50559W        W18953  42.353   1.894   4.383
50560W        W18954  38.495  34.851   1.252
50561W        W18955  11.644  15.838  11.996
50562W        W18956  29.723   1.256   1.326
50563W        W18957  22.761  15.741   1.339
50564W        W18958  36.047   0.864   0.486
50565W        W18959  22.737  15.263  14.196
50566W        W18960   5.793   6.064  14.410
50567W        W18961  36.210   3.197   1.101
50568W        W18962  31.380  37.446   4.640
50569W        W18963  20.261  40.635  13.452
50570W        W18964  29.067   0.638  14.318
50571W        W18965  26.062  11.672   1.180
50572W        W18966  32.535  25.009   4.367
50573W        W18967  35.055  32.585  13.859
50574W        W18968  31.975  40.458   1.899
50575W        W18969   4.775   2.767   2.841
50576W        W18970  40.250  32.661   1.378
50577W        W18971   1.968  34.520  10.724
50578W        W18972  25.453  37.099  14.931
50579W        W18973  43.373   9.759  14.336
50580W        W18974  40.524   9.830  12.567
50581W        W18975  29.821  42.849  11.748
50582W        W18976  26.272  28.422  12.124
50583W        W18977  43.900  25.578   3.266
50584W        W18978   1.221  15.849   2.704
50585W        W18979  29.694  14.294  12.020
50586W        W18980   4.390  39.026   0.366
50587W        W18981   6.713  33.304  11.153
50588W        W18982  10.101  27.647  12.529
50589W        W18983   5.621   1.381  10.716
50590W        W18984  41.964  40.017   1.635
50591W        W18985  13.248  39.284   1.296
50592W        W18986  26.144  37.366   3.853
50593W        W18987   4.860   7.647   1.651
50594W        W18988  25.490  37.980  14.875
50595W        W18989  13.986  21.377   2.718
50596W        W18990  27.023  36.924  14.796
50597W        W18991  13.283  38.925  12.882
50598W        W18992  20.285  30.185   0.723
50599W        W18993  37.927  39.901   1.639
50600W        W18994   7.720  27.092  11.563
50601W        W18995  33.135  17.597  14.004
50602W        W18996   1.237  36.892  12.149
50603W        W18997  27.029  33.915  11.151
50604W        W18998  18.111  12.284   3.784
50605W        W18999  31.889   4.288   2.246
50606W        W19000  38.061  13.662   3.700
50607W        W19001  41.896  37.409   4.256
50608W        W19002   2.443  10.117   4.283
50609W        W19003  43.769  37.076   3.574
50610W        W19004   8.968   8.302   3.227
50611W        W19005  41.728  32.344   1.619
50612W        W19006  25.709  43.600  11.215
50613W        W19007  39.509  39.703   4.063
50614W        W19008  13.810  21.489   0.253
50615W        W19009  24.328   6.701   3.647
50616W        W19010  38.071  23.202  10.336
50617W        W19011  36.846  19.612   0.024
50618W        W19012  38.668  38.650   1.406
50619W        W19013  18.274  25.553   1.731
50620W        W19014  42.563  11.979   0.853
50621W        W19015  28.127  30.161  14.629
50622W        W19016  19.877  34.557  12.158
50623W        W19017  44.545  40.824   0.228
50624W        W19018  43.338  41.825  13.494
50625W        W19019  25.216  34.943  14.966
50626W        W19020  42.874  32.515   0.965
50627W        W19021  11.739  15.442   2.839
50628W        W19022  38.571  18.355   3.573
50629W        W19023   6.777  24.086  14.474
50630W        W19024  14.708  33.437  12.906
50631W        W19025  21.601  10.593   3.221
50632W        W19026  40.842   7.816   3.210
50633W        W19027  27.458  19.390   2.685
50634W        W19028  20.987  37.431   0.728
50635W        W19029  25.647  11.030  13.736
50636W        W19030  14.681  20.590   4.484
50637W        W19031   9.801  11.443  12.034
50638W        W19032   8.219   6.203   0.404
50639W        W19033  28.533  11.686  14.288
50640W        W19034  15.822  19.220   3.701
50641W        W19035   7.636  11.201  12.137
50642W        W19036  40.204  36.352  10.210
50643W        W19037  12.439  25.137  14.710
50644W        W19038  37.065  27.746  12.070
50645W        W19039  23.739   9.063   9.803
50646W        W19040  25.441  33.448  13.382
50647W        W19041  30.391  11.150  14.897
50648W        W19042  31.973   3.664  11.134
50649W        W19043  32.628  42.580  11.974
50650W        W19044  24.912   2.880  11.950
50651W        W19045  20.803  16.391   4.221
50652W        W19046  12.647   5.943   1.399
50653W        W19047  13.108  17.026   0.185
50654W        W19048  31.378  16.140   0.942
50655W        W19049  24.694  27.270  12.576
50656W        W19050  37.902  25.551  14.267
50657W        W19051  40.050  26.533   0.242
50658W        W19052  41.332  39.704   4.972
50659W        W19053  33.516  38.541  12.476
50660W        W19054  44.460  42.351   2.763
50661W        W19055  17.572  14.421  14.544
50662W        W19056  32.474  14.341  10.680
50663W        W19057   2.913  34.677  10.968
50664W        W19058  20.950  24.860  12.010
50665W        W19059  39.453  37.644   1.953
50666W        W19060  19.148  10.746  10.627
50667W        W19061   3.514  44.356   4.659
50668W        W19062   5.194  17.161   0.652
50669W        W19063  32.916  32.843   0.042
50670W        W19064   9.203  38.336  11.113
50671W        W19065  38.570   9.278   0.421
50672W        W19066  21.548  34.469  14.954
50673W        W19067  18.062  16.637   4.919
50674W        W19068   1.756  43.261   5.004
50675W        W19069  11.115  43.924   1.801
50676W        W19070  28.051  10.314  13.041
50677W        W19071  34.608  33.501  14.231
50678W        W19072   0.406  12.563  13.511
50679W        W19073  26.019  31.629   4.943
50680W        W19074  17.571   4.905   4.047
50681W        W19075  37.890  16.585  11.979
50682W        W19076  14.727   5.230   5.085
50683W        W19077  44.296  21.237  14.939
50684W        W19078  12.126  26.563   2.683
50685W        W19079  23.797   6.679  13.957
50686W        W19080   5.585  39.300  14.405
50687W        W19081  32.641  29.588  13.518
50688W        W19082  24.713  38.545  14.827
50689W        W19083  26.288  16.875  14.067
50690W        W19084  15.229  36.225  12.378
50691W        W19085  39.137  41.033   3.165
50692W        W19086  38.088  38.083  12.430
50693W        W19087  18.797  26.109   4.096
50694W        W19088   9.141  10.459   2.824
50695W        W19089  41.319  12.399  13.992
50696W        W19090  44.833  11.408  14.921
50697W        W19091  32.571  19.616  11.147
50698W        W19092   8.693   1.487  12.449
50699W        W19093  29.194   9.774  13.148
50700W        W19094   9.709   1.923  13.946
50701W        W19095   6.866  39.567  11.526
50702W        W19096  17.042   3.859  12.840
50703W        W19097  23.255  40.064  14.754
50704W        W19098  43.468   9.885  10.987
50705W        W19099  36.139   9.912   3.383
50706W        W19100  30.320  43.254  13.477
50707W        W19101  28.950  27.656  10.719
50708W        W19102  13.394  27.526   1.703
50709W        W19103  15.380  26.087  11.993
50710W        W19104  13.673  16.031  11.450
50711W        W19105  25.858  11.271  12.523
50712W        W19106  39.859   4.015   0.785
50713W        W19107  44.074  16.785   0.862
50714W        W19108  30.193  20.788  14.734
50715W        W19109  12.162  27.891   2.266
50716W        W19110  40.033  38.332  12.769
50717W        W19111  18.821  41.478   3.290
50718W        W19112  22.828  34.013  13.005
50719W        W19113  12.596  16.431   4.533
50720W        W19114   4.958   4.541  11.484
50721W        W19115  23.426   4.632   1.337
50722W        W19116  42.442   6.807   4.261
50723W        W19117  28.314  11.773   0.860
50724W        W19118  38.985   8.039  13.101
50725W        W19119  18.423   8.078  14.919
50726W        W19120  34.391  24.254   1.170
50727W        W19121  21.442  27.227   4.187
50728W        W19122  44.301  19.631  14.518
50729W        W19123  42.093  38.579  13.880
50730W        W19124  13.385  35.759   5.204
50731W        W19125   7.196  41.739  11.154
50732W        W19126  40.828  30.790   2.438
50733W        W19127  26.159   8.238   3.212
50734W        W19128  16.785  12.581  11.257
50735W        W19129   9.070  25.020   3.659
50736W        W19130  11.124  13.785   3.842
50737W        W19131  25.053  44.849  14.366
50738W        W19132   6.668  43.422  11.535
50739W        W19133  15.687  42.381  11.272
50740W        W19134  14.666  15.714  13.056
50741W        W19135  43.849  36.210   4.057
50742W        W19136  21.155   9.307  10.724
50743W        W19137  23.451  34.957   2.676
50744W        W19138  29.884  29.030   2.368
50745W        W19139  38.946   0.333  10.246
50746W        W19140  26.121  21.683  12.041
50747W        W19141  18.819   1.088  14.018
50748W        W19142  21.398  31.678   2.392
50749W        W19143  10.287  30.122  11.969
50750W        W19144  44.279  27.438   0.866
50751W        W19145  38.547  37.777   4.936
50752W        W19146   0.705   4.402  10.694
50753W        W19147  10.264   8.336   4.554
50754W        W19148  36.377  40.461   1.414
50755W        W19149  36.840  20.930   1.483
50756W        W19150  43.098  19.085   2.187
50757W        W19151  30.341   3.825  12.085
50758W        W19152   1.934  15.438   4.179
50759W        W19153   6.861  10.195   3.878
50760W        W19154  13.792  18.109  10.616
50761W        W19155  25.918  41.930  14.765
50762W        W19156  12.289  32.887  14.846
50763W        W19157  28.221  13.637  14.553
50764W        W19158   6.557  44.423  14.941
50765W        W19159  33.075   5.137   2.426
50766W        W19160  25.857   7.627   3.373
50767W        W19161  17.043  12.251   2.865
50768W        W19162  32.387  25.210  12.013
50769W        W19163  36.613  10.439  11.156
50770W        W19164   6.883   7.614   4.155
50771W        W19165  21.062  23.242  12.660
50772W        W19166  12.396   0.214   1.291
50773W        W19167   8.200  18.034   2.324
50774W        W19168   9.813   7.341   3.161
50775W        W19169   3.973  25.230  13.145
50776W        W19170   9.961  17.568   2.341
50777W        W19171  21.560  31.482   3.400
50778W        W19172  33.505  43.792  12.605
50779W        W19173  13.401  28.168   2.289
50780W        W19174  18.256   6.840  12.474
50781W        W19175  34.541  32.629  13.862
50782W        W19176  33.547  31.644   0.407
50783W        W19177  17.842  34.761  13.176
50784W        W19178  26.644   3.989   1.378
50785W        W19179  18.047  12.479   3.306
50786W        W19180   0.050  21.479   4.025
50787W        W19181  24.129   1.954   0.005
50788W        W19182  22.593  13.180  13.528
50789W        W19183  13.145   3.698  14.448
50790W        W19184   4.852   6.932   2.397
50791W        W19185  26.087   3.620  11.038
50792W        W19186  33.101  39.875  14.271
50793W        W19187  12.466  17.518   1.431
50794W        W19188  31.648  34.577  12.832
50795W        W19189  15.324   3.336   3.135
50796W        W19190   7.920   8.219   1.828
50797W        W19191  10.854  27.609   2.654
50798W        W19192  19.213  28.950   1.240
50799W        W19193  21.759   3.471  13.523
50800W        W19194  14.054  34.339  12.578
50801W        W19195  15.845  41.393  14.586
50802W        W19196  15.669  37.496  13.416
50803W        W19197  28.910  36.465   1.316
50804W        W19198   2.197   0.706  10.630
50805W        W19199  23.933  32.144  13.042
50806W        W19200   7.112  44.873   1.653
50807W        W19201  34.163  24.104   3.071
50808W        W19202  44.878  25.520  10.905
50809W        W19203  41.290  24.018  10.787
50810W        W19204  20.548  11.403   4.265
50811W        W19205  43.345  16.548   4.154
50812W        W19206  28.928   6.923   1.910
50813W        W19207  43.571  30.461   3.284
50814W        W19208  33.006  42.893  12.623
50815W        W19209   5.655  23.141   0.601
50816W        W19210  32.011  23.396   3.595
50817W        W19211  25.601  32.487   2.383
50818W        W19212  36.571  39.543  13.109
50819W        W19213  40.272  22.457   2.222
50820W        W19214  19.072   8.699   2.198
50821W        W19215   8.348   3.180   3.759
50822W        W19216  23.669  21.947   2.399
50823W        W19217   1.807  39.127   2.291
50824W        W19218  36.877  34.868   2.038
50825W        W19219  16.073  33.563   1.267
50826W        W19220  40.830  11.562  13.866
50827W        W19221   4.883   1.360  11.173
50828W        W19222  21.637  23.910  13.616
50829W        W19223   0.915  24.113   4.664
50830W        W19224  18.277  13.875  11.140
50831W        W19225  28.088  22.528   2.622
50832W        W19226  35.551  29.019  14.918
50833W        W19227   9.493   7.704  14.306
50834W        W19228  19.173   7.325  12.231
50835W        W19229  44.924  32.222   1.753
50836W        W19230  23.155  31.354   2.394
50837W        W19231  41.989  31.332  11.105
50838W        W19232  39.619  17.809   4.909
50839W        W19233  16.323  12.052  10.713
50840W        W19234  19.089  39.939  11.381
50841W        W19235   6.651   7.381  12.146
50842W        W19236   0.819  15.227  14.096
50843W        W19237  21.674   4.903   2.955
50844W        W19238   0.115  36.951  10.375
50845W        W19239  21.125  12.609   3.178
50846W        W19240   2.357  33.464  14.774
50847W        W19241  33.553  12.139   1.751
50848W        W19242  31.163  18.786   0.109
50849W        W19243  11.851  44.825  12.384
50850W        W19244  29.609  37.922  10.672
50851W        W19245   1.231  18.676  10.850
50852W        W19246  37.947  27.696  14.339
50853W        W19247  26.967  19.951  13.257
50854W        W19248  35.409  16.266  12.882
50855W        W19249  10.005  30.478  13.489
50856W        W19250  39.749  22.495   2.445
50857W        W19251   2.346  28.046   3.377
50858W        W19252  35.375  23.020  12.944
50859W        W19253  24.470  11.745   4.069
50860W        W19254  26.911  33.076  14.836
50861W        W19255  14.785  28.236   0.406
50862W        W19256  29.118  24.466   3.575
50863W        W19257  14.610  25.206  13.321
50864W        W19258  31.521  13.527   0.427
50865W        W19259  22.471  13.079   1.732
50866W        W19260  38.912   5.107   4.573
50867W        W19261   7.297   8.117  14.942
50868W        W19262  22.526  36.966   2.438
50869W        W19263  31.153  42.282  14.307
50870W        W19264  13.222   5.694  14.501
50871W        W19265  39.259  21.303   1.657
50872W        W19266  26.397  15.651   4.474
50873W        W19267  24.164  29.142   4.372
50874W        W19268  12.106   2.643   3.234
50875W        W19269  17.380  22.684   4.336
50876W        W19270  21.613  16.699   3.312
50877W        W19271   1.532  11.098   2.540
50878W        W19272  23.798  23.260   4.139
50879W        W19273  25.208   1.883  11.503
50880W        W19274  42.450  29.485  11.894
50881W        W19275  10.868  33.579  13.925
50882W        W19276  22.479   6.678   2.399
50883W        W19277  15.968  44.066  12.874
50884W        W19278  23.789  17.973  13.153
50885W        W19279   6.481   5.863   2.406
50886W        W19280  35.158  15.201   0.330
50887W        W19281  27.004  10.583  12.304
50888W        W19282  16.120  22.049  12.836
50889W        W19283  32.435  15.817   4.156
50890W        W19284  39.062  20.110  11.463
50891W        W19285  40.344  35.006  11.084
50892W        W19286  44.062  29.585   2.192
50893W        W19287   5.394   9.702  14.932
50894W        W19288   0.274  31.598  10.675
50895W        W19289   0.271  32.012  14.545
50896W        W19290  30.410   1.721  11.933
50897W        W19291  34.666   0.631  13.045
50898W        W19292   7.581  18.372  14.794
50899W        W19293  40.706  22.240  11.476
50900W        W19294  32.585  34.389   2.594
50901W        W19295  40.785  19.477  13.071
50902W        W19296  16.462  21.149   1.936
50903W        W19297  24.639  10.800   1.306
50904W        W19298  27.915  10.889  14.867
50905W        W19299  19.269  22.108  12.277
50906W        W19300  30.612  19.720   2.138
50907W        W19301  17.116  27.080  11.953
50908W        W19302  29.728   3.298   1.414
50909W        W19303  24.967  18.738   2.376
50910W        W19304  13.844  12.187   1.654
50911W        W19305  21.624   8.166   2.117
50912W        W19306  12.797  43.863  13.456
50913W        W19307  32.656  11.119  14.429
50914W        W19308  24.416  27.214   0.831
50915W        W19309  23.564  20.364   4.339
50916W        W19310   5.919  15.754   3.856
50917W        W19311   1.447  14.859   3.611
50918W        W19312  28.363   1.347  13.532
50919W        W19313  42.021  29.023  14.773
50920W        W19314  25.730  12.758  14.468
50921W        W19315  28.687  23.445   1.324
50922W        W19316   1.793   3.297  12.092
50923W        W19317   7.232  10.865   0.440
50924W        W19318  14.134  16.263   3.666
50925W        W19319  13.219  24.243   1.272
50926W        W19320  44.389  12.888   5.463
50927W        W19321  19.742   7.728  13.804
50928W        W19322  10.648  44.025   0.768
50929W        W19323   4.876  39.974   4.920
50930W        W19324  36.865   8.159   1.750
50931W        W19325  14.785  32.091  11.036
50932W        W19326  29.651  41.543   0.902
50933W        W19327  36.111  27.647  13.944
50934W        W19328  14.792  38.847  13.128
50935W        W19329  10.752  22.093   1.311
50936W        W19330  15.726  38.762  13.063
50937W        W19331  10.458  34.017  13.299
50938W        W19332  23.033  32.626   3.758
50939W        W19333  42.667   6.344   4.191
50940W        W19334  17.665   9.796  10.792
50941W        W19335  11.122  28.825  13.047
50942W        W19336   1.677  39.973  11.534
50943W        W19337   8.790  36.122   2.300
50944W        W19338   3.279   6.061   2.836
50945W        W19339  37.062  11.906   1.623
50946W        W19340  24.938  17.178  11.138
50947W        W19341  23.649   3.520  11.474
50948W        W19342  18.064   8.804  13.036
50949W        W19343  11.877  39.192   0.919
50950W        W19344  41.542  36.639   4.109
50951W        W19345  12.012  39.535   3.199
50952W        W19346  15.203  38.814  11.094
50953W        W19347  12.040  16.612  11.239
50954W        W19348   5.875  28.073   3.681
50955W        W19349  15.880  39.938  10.520
50956W        W19350  38.328  25.901   0.786
50957W        W19351  23.718  26.035   4.111
50958W        W19352   1.582  10.411   3.399
50959W        W19353  10.356  21.893  14.907
50960W        W19354   5.432   4.416   1.370
50961W        W19355  17.531   5.680  14.944
50962W        W19356  35.324  28.550   1.184
50963W        W19357  12.770  33.956  14.262
50964W        W19358  34.752  21.124  12.053
50965W        W19359   5.287  30.731  13.793
50966W        W19360  41.844  14.668  14.067
50967W        W19361  32.429  41.970   4.323
50968W        W19362   6.250  29.664  12.575
50969W        W19363   1.320  32.046   0.393
50970W        W19364  27.587  27.214  11.206
50971W        W19365  38.574  43.052  12.019
50972W        W19366  19.643  13.394  13.907
50973W        W19367  18.694  14.020  10.199
50974W        W19368  42.877  14.403  11.568
50975W        W19369   2.318  37.621   1.880
50976W        W19370  36.369  33.512   0.403
50977W        W19371  43.480  42.806  13.407
50978W        W19372   9.476  12.956   1.176
50979W        W19373  25.605   8.460  11.167
50980W        W19374  14.180  14.329   4.068
50981W        W19375   1.402   8.595  14.273
50982W        W19376  25.645  27.883   0.924
50983W        W19377  39.085  17.930  14.039
50984W        W19378  17.652  13.553   4.617
50985W        W19379  30.443  16.010  13.501
50986W        W19380  33.583   8.186   4.576
50987W        W19381   4.532  22.390  13.026
50988W        W19382  41.885  10.388  13.530
50989W        W19383  16.560  42.363   1.238
50990W        W19384  44.904   2.064   3.807
50991W        W19385   6.383  11.232  13.535
50992W        W19386   7.381  29.871   1.421
50993W        W19387  10.712   2.754   1.355
50994W        W19388  37.039   8.409   1.329
50995W        W19389  39.082   7.382   1.327
50996W        W19390   4.796   3.904   2.714
50997W        W19391   5.754  33.813  13.415
50998W        W19392  16.898   0.432  14.880
50999W        W19393  15.801   8.722  14.987
51000W        W19394  14.693  25.312   0.994
51001W        W19395  10.139  13.341  11.855
51002W        W19396  44.501  15.765   1.046
51003W        W19397  18.584  18.939  13.605
51004W        W19398  43.327  35.477  11.061
51005W        W19399  11.166   2.982  10.751
51006W        W19400   5.020  29.790  11.938
51007W        W19401  39.640  31.580  13.062
51008W        W19402  26.576  20.205   4.796
51009W        W19403   2.188  35.985   2.987
51010W        W19404   2.178  18.738  10.844
51011W        W19405  11.289  14.607  14.860
51012W        W19406  30.476  41.461  12.106
51013W        W19407  30.888  20.108  14.379
51014W        W19408   4.311  16.638  12.025
51015W        W19409  34.461  31.723  13.144
51016W        W19410  15.559  17.298   3.522
51017W        W19411  12.100  43.967  12.101
51018W        W19412  32.491  25.177   3.819
51019W        W19413  10.394   1.200  13.086
51020W        W19414  15.986  10.154  13.326
51021W        W19415   1.890  41.756   2.749
51022W        W19416  30.242  29.205  12.676
51023W        W19417  12.811  19.284   1.256
51024W        W19418  42.067  27.560  11.158
51025W        W19419   0.861   6.869  11.444
51026W        W19420  22.184  20.870   2.852
51027W        W19421  14.434   1.758  14.533
51028W        W19422  24.893  23.904   2.979
51029W        W19423  25.553   4.751  14.955
51030W        W19424  30.146  22.953   3.658
51031W        W19425  44.109   4.735   2.959
51032W        W19426  32.864  33.001   4.582
51033W        W19427   0.978   5.162  11.180
51034W        W19428  41.087  27.531   3.282
51035W        W19429  40.442   0.322   2.913
51036W        W19430   4.805   9.469   1.969
51037W        W19431  35.793  12.443   3.201
51038W        W19432   7.963  28.536   0.989
51039W        W19433  40.149  29.073  11.596
51040W        W19434  17.094  14.403   0.856
51041W        W19435  23.669   6.150   2.632
51042W        W19436  27.949  39.243  14.914
51043W        W19437   4.844  44.561  10.676
51044W        W19438   4.942  24.541  12.657
51045W        W19439  16.737  18.118  11.086
51046W        W19440   2.238   1.439  11.144
51047W        W19441   1.053  18.032   2.248
51048W        W19442  40.983   1.377   3.678
51049W        W19443  35.911  44.559   0.310
51050W        W19444  15.295   3.811   2.923
51051W        W19445   6.710  18.283   0.291
51052W        W19446  21.689   9.225  11.956
51053W        W19447  28.981  43.683  12.777
51054W        W19448  19.365  19.177  14.306
51055W        W19449  22.152  31.023   3.813
51056W        W19450  29.011   6.279  12.159
51057W        W19451   7.913  13.402  12.877
51058W        W19452  38.319  35.961  10.715
51059W        W19453  21.895   8.491   4.664
51060W        W19454  22.798  15.758   2.608
51061W        W19455  20.526   6.185  10.783
51062W        W19456  25.182  39.392  14.058
51063W        W19457  16.192  23.206  14.953
51064W        W19458  12.256   4.693   1.621
51065W        W19459  10.467  32.819   0.296
51066W        W19460  44.690  44.699   0.015
51067W        W19461  38.324   2.871  13.489
51068W        W19462  17.652  38.828   0.222
51069W        W19463  23.241  14.092   5.163
51070W        W19464   3.749  26.457  12.018
51071W        W19465  40.436  38.874   3.156
51072W        W19466  24.736  20.597   2.439
51073W        W19467  35.159  24.348   4.487
51074W        W19468  23.032  12.856   2.307
51075W        W19469   0.930   6.363   1.530
51076W        W19470   1.246  11.374  13.890
51077W        W19471  30.143  33.734   1.761
51078W        W19472  15.565  16.912   4.456
51079W        W19473   3.323  31.231  13.364
51080W        W19474  14.059  32.684  11.667
51081W        W19475  40.096  19.346  11.107
51082W        W19476   0.961  17.331   1.262
51083W        W19477  17.533  23.758   3.654
51084W        W19478   6.142   9.823  11.567
51085W        W19479  32.875   0.993   3.708
51086W        W19480  33.613  34.382   2.332
51087W        W19481  31.113  34.693  13.937
51088W        W19482  10.765  38.058  11.008
51089W        W19483  26.482  12.081  13.059
51090W        W19484  23.472  24.670   1.845
51091W        W19485  23.097  34.157   3.676
51092W        W19486  21.295  31.032  11.450
51093W        W19487   9.856  34.129  14.910
51094W        W19488  10.603   6.303  13.833
51095W        W19489   3.810  33.732   4.170
51096W        W19490  30.977  21.089   5.106
51097W        W19491  22.114  31.384   4.849
51098W        W19492   7.926  23.702   3.699
51099W        W19493   8.826  36.120  11.989
51100W        W19494  12.228  40.170   2.376
51101W        W19495  26.520  26.639   0.175
51102W        W19496  23.079  21.326   3.078
51103W        W19497   6.370  17.793   0.885
51104W        W19498  10.278  24.133   3.697
51105W        W19499  41.921   6.571  11.219
51106W        W19500  38.893  18.941  13.970
51107W        W19501  15.631  27.873   0.087
51108W        W19502   9.486  24.601  11.469
51109W        W19503  28.736  36.901  14.318
51110W        W19504  13.808  17.284  10.815
51111W        W19505  13.525  28.943   0.259
51112W        W19506   9.449  15.063  14.358
51113W        W19507   5.230  30.877  14.302
51114W        W19508  28.764  13.716   2.736
51115W        W19509  27.115  21.092   0.299
51116W        W19510  36.914  37.302   4.497
51117W        W19511  26.869  23.080  12.596
51118W        W19512   7.257   0.679  12.908
51119W        W19513  43.076   3.363  11.595
51120W        W19514  32.092  24.036   1.448
51121W        W19515  13.571  26.798   2.229
51122W        W19516  15.281   3.423   2.247
51123W        W19517   0.317   2.342  10.850
51124W        W19518  10.333  15.777   3.226
51125W        W19519  41.251  31.564  11.953
51126W        W19520   4.252  36.990   4.601
51127W        W19521  20.008   6.945  11.192
51128W        W19522  30.972  26.994  11.364
51129W        W19523  16.507   4.771  12.928
51130W        W19524   5.750  23.797   1.416
51131W        W19525  23.244  21.184  14.527
51132W        W19526  21.223  32.429   0.741
51133W        W19527   7.953  13.988   1.850
51134W        W19528  41.555   8.118  13.053
51135W        W19529  21.047  15.058   5.088
51136W        W19530  17.817   4.361  11.965
51137W        W19531  27.840   4.427   4.236
51138W        W19532  15.207  15.360   0.727
51139W        W19533  28.648  43.798  13.129
51140W        W19534  38.462  21.682  14.470
51141W        W19535  34.883  29.335   1.599
51142W        W19536  18.240  15.741  10.534
51143W        W19537  20.857  22.440   4.353
51144W        W19538  16.996  38.328  12.987
51145W        W19539  32.876  12.740  10.670
51146W        W19540   3.940  16.225  11.115
51147W        W19541  34.958  15.556  14.320
51148W        W19542  38.062   8.048   0.350
51149W        W19543  25.183  21.872  12.542
51150W        W19544   2.527  34.894  10.695
51151W        W19545   9.736  32.078  10.738
51152W        W19546  20.512  42.504  14.316
51153W        W19547  23.494  17.351  11.520
51154W        W19548   7.793  36.096   0.539
51155W        W19549  18.159  43.840   3.673
51156W        W19550  17.293  11.753   4.523
51157W        W19551  32.519  35.944   5.022
51158W        W19552  32.980  22.124  11.716
51159W        W19553  13.782  44.502   0.319
51160W        W19554  16.282  31.971  10.010
51161W        W19555  28.920  20.942  11.603
51162W        W19556  12.841   1.478  14.965
51163W        W19557  22.507   5.744   1.820
51164W        W19558  16.119   3.750  13.359
51165W        W19559   9.813  16.676   0.686
51166W        W19560   8.096   4.932   3.895
51167W        W19561  40.492  36.819   2.675
51168W        W19562  25.897   8.125   3.770
51169W        W19563  14.629  24.135  11.560
51170W        W19564  13.075  38.397   4.209
51171W        W19565  27.839   8.639  12.453
51172W        W19566  40.317  34.837   1.546
51173W        W19567   6.157  41.510   0.899
51174W        W19568  21.790  27.187  10.177
51175W        W19569   1.055   5.174   3.172
51176W        W19570  22.382  12.647  10.681
51177W        W19571  10.161  14.868  12.073
51178W        W19572  40.465  28.319  13.344
51179W        W19573   4.160   2.633   4.883
51180W        W19574  12.134  20.319   3.298
51181W        W19575  42.821   0.401   3.674
51182W        W19576   9.857  30.004  10.735
51183W        W19577  41.759  16.343   4.139
51184W        W19578  15.508   1.734   3.654
51185W        W19579  18.774  13.391  13.912
51186W        W19580   2.355  44.511  12.903
51187W        W19581  26.949   0.810   0.416
51188W        W19582   5.017  38.095   1.633
51189W        W19583  26.480  38.587   2.251
51190W        W19584   4.697  39.950   3.667
51191W        W19585  33.532  44.751   4.653
51192W        W19586  22.285  26.985  12.847
51193W        W19587  25.558   7.344   2.687
51194W        W19588  37.050   0.970  10.799
51195W        W19589  26.497   4.969  11.147
51196W        W19590  15.111  32.272  13.460
51197W        W19591  39.035  25.685  14.966
51198W        W19592  16.364  19.354   1.746
51199W        W19593  40.243  27.388   0.872
51200W        W19594  11.369  39.223  13.113
51201W        W19595  32.730  11.922   0.206
51202W        W19596  21.979  30.553   0.485
51203W        W19597   6.715  20.612  14.319
51204W        W19598  26.396  22.511  11.446
51205W        W19599  19.109  28.165   0.821
51206W        W19600   4.725  33.205  14.801
51207W        W19601  19.282  41.625  10.701
51208W        W19602  25.980  29.639  13.470
51209W        W19603  23.596  33.945   1.337
51210W        W19604  12.344  16.613   3.343
51211W        W19605  23.780   1.525  11.915
51212W        W19606  42.371  28.636   0.538
51213W        W19607   2.360  36.485   3.746
51214W        W19608  32.955  18.467  14.928
51215W        W19609  38.547  22.265  11.061
51216W        W19610  41.565   8.776   1.028
51217W        W19611  25.295  15.296  12.047
51218W        W19612  13.991   6.319   1.081
51219W        W19613  40.064  30.111  12.599
51220W        W19614   0.173  33.869  12.980
51221W        W19615  28.687  27.452   0.891
51222W        W19616  29.615  10.650  11.521
51223W        W19617  42.286  44.523  13.443
51224W        W19618  10.316  26.654  11.254
51225W        W19619  33.083  14.641  14.557
51226W        W19620   6.358  40.366  12.170
51227W        W19621   4.796  29.929   0.951
51228W        W19622  35.979  22.634  13.464
51229W        W19623  17.271  20.321  12.501
51230W        W19624  10.631  36.873  13.804
51231W        W19625   0.073   8.142  12.285
51232W        W19626  36.939  38.435   5.058
51233W        W19627   2.533  18.532  14.964
51234W        W19628  32.585   8.869  11.241
51235W        W19629  43.871  34.002  13.512
51236W        W19630  36.502   8.620   3.387
51237W        W19631   5.740  42.438  11.601
51238W        W19632  10.421  31.653   3.299
51239W        W19633  12.659  12.103   2.921
51240W        W19634   1.863   8.622  11.661
51241W        W19635  44.236  33.331   2.211
51242W        W19636  33.191  30.843  12.491
51243W        W19637  26.511   0.246  14.427
51244W        W19638  14.047  15.153   1.331
51245W        W19639  31.669  41.087  12.321
51246W        W19640  30.626  18.100   2.639
51247W        W19641  42.365  39.931  10.256
51248W        W19642  10.418  38.873   0.661
51249W        W19643  29.023  30.232  14.847
51250W        W19644  10.326  38.795   1.159
51251W        W19645   6.196  40.583  14.256
51252W        W19646  10.676   4.016  13.018
51253W        W19647  35.170   8.099   2.774
51254W        W19648  27.009   4.780  12.924
51255W        W19649  42.446  31.595  13.148
51256W        W19650   1.181  11.782   1.828
51257W        W19651   1.355  24.398  10.636
51258W        W19652  12.711  25.496   5.038
51259W        W19653  19.037   0.028   0.836
51260W        W19654  20.610  24.184  14.407
51261W        W19655   1.239  39.495   4.260
51262W        W19656   2.691  44.934  11.075
51263W        W19657  32.457  29.059  10.774
51264W        W19658  26.091   5.878   4.313
51265W        W19659  42.378  16.528   2.875
51266W        W19660   6.020  23.350   0.329
51267W        W19661  20.554  44.482  13.296
51268W        W19662  42.876  16.168   2.448
51269W        W19663  21.799  24.608  11.512
51270W        W19664  35.931  33.946  10.672
51271W        W19665  44.245  14.828  14.004
51272W        W19666  17.279  23.257  12.429
51273W        W19667  39.990  15.218   4.432
51274W        W19668  22.667  35.043   3.600
51275W        W19669  31.082  28.694  14.322
51276W        W19670  20.023  32.183  12.536
51277W        W19671  43.819  23.951  12.938
51278W        W19672  31.842  42.010   4.997
51279W        W19673  40.356  34.990  11.611
51280W        W19674   4.303   0.389   1.260
51281W        W19675   6.102   5.215   0.355
51282W        W19676  16.056  11.178   3.097
51283W        W19677  44.498  19.561   4.804
51284W        W19678  18.494   6.669  12.945
51285W        W19679  44.466  11.605  13.075
51286W        W19680  28.246   3.751   4.083
51287W        W19681   7.408   7.617   2.264
51288W        W19682   1.524  33.454  11.201
51289W        W19683  37.435   7.421   4.951
51290W        W19684   5.476  42.873   0.794
51291W        W19685  28.445  38.360   4.780
51292W        W19686  25.807  15.634  11.448
51293W        W19687  22.797  19.855   2.214
51294W        W19688   6.499   8.278   1.970
51295W        W19689  41.511  17.049   2.799
51296W        W19690  39.981  40.818   3.217
51297W        W19691   3.729  30.469   1.779
51298W        W19692  22.832  31.647  13.480
51299W        W19693  42.560   8.344   1.188
51300W        W19694   6.110  15.579  12.473
51301W        W19695  37.894  16.685  14.239
51302W        W19696   5.204  38.076   1.150
51303W        W19697  38.218  34.705   3.441
51304W        W19698  40.586   6.188   3.242
51305W        W19699   0.008  17.544  11.326
51306W        W19700   8.716  27.489  11.319
51307W        W19701  25.767  11.890   4.487
51308W        W19702  22.072   8.770  13.545
51309W        W19703  36.571  22.980   1.948
51310W        W19704  23.264  12.747  13.543
51311W        W19705  26.441  39.849  10.997
51312W        W19706  23.027  27.578  11.894
51313W        W19707   1.354  12.344   0.505
51314W        W19708  13.580  32.167   2.448
51315W        W19709  14.575  39.932   2.336
51316W        W19710  20.476  20.004  10.644
51317W        W19711   7.636  36.598   3.343
51318W        W19712  24.073  12.886  13.066
51319W        W19713  12.202  11.229   3.033
51320W        W19714   7.690  29.142  10.326
51321W        W19715  29.275  20.947   2.951
51322W        W19716  43.246   3.699   0.289
51323W        W19717  26.265  32.610   1.668
51324W        W19718  29.825  27.939   1.209
51325W        W19719  27.079  22.945  12.140
51326W        W19720  25.213  13.498   3.407
51327W        W19721   4.693  24.021   5.159
51328W        W19722  10.622  40.192   4.896
51329W        W19723  24.778  22.440   0.886
51330W        W19724  34.115  10.316   1.572
51331W        W19725   1.978   7.158   1.775
51332W        W19726  34.078   9.689  11.663
51333W        W19727  24.037  19.164  14.891
51334W        W19728  13.162  28.597   2.468
51335W        W19729  32.890  10.092   2.426
51336W        W19730  19.615  36.115  11.474
51337W        W19731  41.250  21.393  10.260
51338W        W19732  17.253  16.081  13.790
51339W        W19733  28.272  36.822   3.112
51340W        W19734  15.841  43.051  14.365
51341W        W19735  31.855  24.400  13.156
51342W        W19736  38.951  33.428  10.930
51343W        W19737  16.335  15.309  12.596
51344W        W19738  31.033  33.456   4.189
51345W        W19739  14.904  27.886   2.360
51346W        W19740  43.066  40.460  12.041
51347W        W19741  29.504  15.071  11.586
51348W        W19742  40.487  42.806  11.134
51349W        W19743  14.979   2.134   0.602
51350W        W19744  13.093  11.134   0.746
51351W        W19745   8.289  14.471   0.175
51352W        W19746  13.419  43.258  12.088
51353W        W19747  43.952  42.199   1.924
51354W        W19748  38.867   7.016  14.320
51355W        W19749  35.035   8.584  11.615
51356W        W19750   9.848  16.084   2.143
51357W        W19751  44.082   6.004   0.324
51358W        W19752  17.393   9.321  14.571
51359W        W19753  39.148  12.155  12.025
51360W        W19754   9.797  24.752  14.814
51361W        W19755  33.586  13.152  14.369
51362W        W19756  14.826  41.454   4.944
51363W        W19757  40.319  22.332   4.480
51364W        W19758  39.631   5.771  12.094
51365W        W19759  11.403   6.475  10.614
51366W        W19760  20.784  28.281   1.895
51367W        W19761  31.513  18.286  12.463
51368W        W19762  36.092  26.173   2.973
51369W        W19763   0.502  30.601   3.245
51370W        W19764  26.977   2.521   2.145
51371W        W19765  20.463  39.501   0.504
51372W        W19766  15.131  36.341   1.414
51373W        W19767  21.062  29.737  14.375
51374W        W19768  34.440  43.575  12.979
51375W        W19769  22.088  10.959  14.302
51376W        W19770  33.150  19.265  13.428
51377W        W19771  12.792  36.851   0.723
51378W        W19772  14.718  27.429  13.205
51379W        W19773  12.297  42.208  11.169
51380W        W19774  41.588  41.227  14.890
51381W        W19775  44.692  38.615  12.059
51382W        W19776  20.382  28.901  13.908
51383W        W19777  35.910   3.826  14.013
51384W        W19778  34.378  15.326  13.832
51385W        W19779   0.223  13.815  13.996
51386W        W19780   8.291  13.613   1.909
51387W        W19781   5.342  42.243   4.591
51388W        W19782  24.158  36.895   0.969
51389W        W19783  42.414  16.338   1.510
51390W        W19784   4.097  44.582   3.775
51391W        W19785  13.708  28.474  12.297
51392W        W19786   9.863  29.743   5.096
51393W        W19787  33.295  44.982  12.157
51394W        W19788  16.106  20.104   3.432
51395W        W19789   7.814   5.969  13.121
51396W        W19790  25.527  30.213   0.344
51397W        W19791   5.704  34.849  11.153
51398W        W19792  39.772  33.490   1.364
51399W        W19793  40.418   2.451  11.185
51400W        W19794  40.895  20.332   0.906
51401W        W19795  40.902  32.242  14.809
51402W        W19796   3.943   4.027  10.011
51403W        W19797  11.256  10.235   4.066
51404W        W19798  26.502  39.524  13.885
51405W        W19799  27.865  28.306  11.854
51406W        W19800  41.898   6.707   2.267
51407W        W19801  43.357  12.529  11.674
51408W        W19802  14.650  28.620  14.437
51409W        W19803   2.744  10.804  10.400
51410W        W19804  35.080   8.412  13.507
51411W        W19805  43.115   2.106  13.721
51412W        W19806   1.471  13.181  12.969
51413W        W19807   4.275  30.969  14.336
51414W        W19808  26.137  23.484  11.497
51415W        W19809  43.487   7.154  13.036
51416W        W19810  27.175  16.774   4.315
51417W        W19811  16.407  18.727  10.338
51418W        W19812  11.738  30.306  10.613
51419W        W19813  33.132  24.114  11.670
51420W        W19814  30.134  20.038   3.293
51421W        W19815  35.588  11.926  12.367
51422W        W19816   3.038   8.332   4.852
51423W        W19817  41.610  14.178   0.450
51424W        W19818  14.206  37.747   3.296
51425W        W19819  25.952   3.486  12.649
51426W        W19820  25.625   9.428   4.492
51427W        W19821  29.777   1.026   0.264
51428W        W19822  27.287  33.995   1.809
51429W        W19823   1.905  40.070   0.376
51430W        W19824  16.253  17.130   5.437
51431W        W19825  28.146   8.229  14.357
51432W        W19826  13.249  40.398  14.772
51433W        W19827   7.014  25.081   1.433
51434W        W19828  37.198  40.297   3.019
51435W        W19829  30.311  33.371  13.986
51436W        W19830   5.750  23.288   1.523
51437W        W19831   3.571  37.269   3.752
51438W        W19832   2.087  35.321   2.933
51439W        W19833  13.753  38.754  12.059
51440W        W19834  21.038  19.331   2.757
51441W        W19835  17.091   7.123   3.607
51442W        W19836  10.673  22.928  10.596
51443W        W19837  20.567  40.001  13.813
51444W        W19838   5.338   8.858  14.210
51445W        W19839  40.068  36.853  12.174
51446W        W19840   6.483  31.359   3.821
51447W        W19841   8.929  29.919  11.591
51448W        W19842  39.104  39.243   4.662
51449W        W19843   3.748  38.033  14.705
51450W        W19844  18.926  33.574   0.336
51451W        W19845  27.764  35.757  13.642
51452W        W19846  30.410  24.633   4.512
51453W        W19847  22.918  21.975   4.491
51454W        W19848  17.578   2.152   3.502
51455W        W19849  13.765  20.941   4.739
51456W        W19850  43.468  38.220   2.359
51457W        W19851  17.121  40.001   1.029
51458W        W19852  31.170  35.459  13.496
51459W        W19853  10.886  20.183   0.014
51460W        W19854   2.762  33.395  13.351
51461W        W19855  16.234  16.745   5.093
51462W        W19856  20.224  18.053  12.128
51463W        W19857  26.477  27.506  13.515
51464W        W19858   0.084  31.075  14.875
51465W        W19859  11.917  12.633   2.798
51466W        W19860  10.328  22.722  12.168
51467W        W19861  39.900  38.369   0.845
51468W        W19862  37.560   6.640  14.028
51469W        W19863  29.446  28.414  13.327
51470W        W19864  35.536  15.063  14.965
51471W        W19865  26.320   5.353  13.558
51472W        W19866  24.028  28.589  12.577
51473W        W19867  16.341  24.247  12.637
51474W        W19868  30.856  10.305   1.835
51475W        W19869  32.783  20.558  11.629
51476W        W19870  44.249  35.967  10.555
51477W        W19871  16.283  19.804   4.427
51478W        W19872  20.623  30.308  13.416
51479W        W19873  36.988  20.646  12.970
51480W        W19874  21.887  31.673   2.590
51481W        W19875   7.973   9.813   1.092
51482W        W19876  25.657   4.867  13.953
51483W        W19877  34.802  34.649   1.427
51484W        W19878  43.944  19.598  10.876
51485W        W19879  39.893  27.268   4.124
51486W        W19880  21.603  32.009  12.494
51487W        W19881  29.183  12.357   2.788
51488W        W19882  13.788  14.174   2.226
51489W        W19883  23.544  38.788  11.059
51490W        W19884  16.927  34.628   2.732
51491W        W19885  16.299  13.323   1.214
51492W        W19886  16.615  41.085   3.341
51493W        W19887  12.166  34.150   4.616
51494W        W19888  28.878  33.882   0.754
51495W        W19889  20.552  44.452   4.896
51496W        W19890  15.119  37.778   9.907
51497W        W19891  20.553  26.499   5.377
51498W        W19892  32.064  31.726  11.125
51499W        W19893  36.632  19.985  13.923
51500W        W19894  17.148   4.788   4.954
51501W        W19895  28.454  30.900  11.618
51502W        W19896   8.883  15.993   2.611
51503W        W19897  30.881  32.036  12.453
51504W        W19898  18.892  20.705   2.863
51505W        W19899  24.419  17.131  11.144
51506W        W19900  22.822  42.022   1.144
51507W        W19901  34.319  29.563   0.690
51508W        W19902   7.225  40.262   0.586
51509W        W19903   1.066  12.762  12.707
51510W        W19904   3.380  14.605  11.657
51511W        W19905  35.034  37.971  12.564
51512W        W19906  36.625  19.694   0.984
51513W        W19907   3.502  18.139   1.427
51514W        W19908  34.048   5.932  11.382
51515W        W19909  25.585  34.070   2.592
51516W        W19910  33.546  16.761   2.223
51517W        W19911  29.224   9.879  12.639
51518W        W19912  13.109  16.182  13.471
51519W        W19913  40.766  27.558  12.626
51520W        W19914  36.325  29.970   0.446
51521W        W19915  33.715  20.498  13.891
51522W        W19916   5.625  10.612   4.041
51523W        W19917   9.376   7.374   0.257
51524W        W19918  19.810  34.301   4.254
51525W        W19919  43.400  44.244  14.838
51526W        W19920  23.827  23.356   2.336
51527W        W19921  43.662  27.294   2.030
51528W        W19922  28.588  40.585  10.718
51529W        W19923   9.277   9.988   4.169
51530W        W19924   7.305   9.819  12.510
51531W        W19925  15.345  43.388  10.434
51532W        W19926  43.367  32.423  12.010
51533W        W19927  38.343  27.474   3.825
51534W        W19928  35.247  14.882   4.975
51535W        W19929  42.961  11.447  10.037
51536W        W19930  12.498  17.086  10.923
51537W        W19931  19.718  33.792   1.743
51538W        W19932   4.818  11.867   0.832
51539W        W19933  16.747  35.399   2.388
51540W        W19934  43.363  31.574   3.853
51541W        W19935  44.891   0.458  14.827
51542W        W19936  41.397   3.976   1.934
51543W        W19937  14.389   0.781  14.377
51544W        W19938  26.216  12.225   1.899
51545W        W19939  44.907  10.783   2.701
51546W        W19940  33.424  14.049   2.722
51547W        W19941  13.682  15.959   3.696
51548W        W19942  12.336  22.080   1.764
51549W        W19943  39.027  25.237   4.217
51550W        W19944  21.155  18.540   3.202
51551W        W19945  37.039  11.455   3.199
51552W        W19946  12.647  18.702  14.561
51553W        W19947   3.092   6.551  13.311
51554W        W19948   6.170  39.754   2.936
51555W        W19949  32.824  28.641   0.295
51556W        W19950   5.678  20.169   3.326
51557W        W19951   2.431   7.789  13.874
51558W        W19952  37.508  17.522   4.735
51559W        W19953   4.513  30.033  14.585
51560W        W19954  12.728  10.667   4.133
51561W        W19955   0.633  26.429   4.523
51562W        W19956  10.420  43.657   3.761
51563W        W19957   0.852  42.551   0.298
51564W        W19958  13.723   8.310  12.886
51565W        W19959  32.428  32.988   2.773
51566W        W19960  19.775   1.483   1.492
51567W        W19961  35.558  18.731   3.302
51568W        W19962  14.287  22.099   3.526
51569W        W19963  41.473  31.582  11.437
51570W        W19964  42.560  29.105   3.949
51571W        W19965  42.061  43.639  14.903
51572W        W19966  13.603  42.396  10.988
51573W        W19967  33.261  27.264   1.452
51574W        W19968  32.291  38.415   2.889
51575W        W19969  15.270  34.360   1.636
51576W        W19970  41.776   7.215   2.209
51577W        W19971  16.495   8.412  11.143
51578W        W19972  35.113  23.585   2.312
51579W        W19973  40.387  13.703  10.728
51580W        W19974  27.594   4.287   4.700
51581W        W19975   4.192  33.510   2.651
51582W        W19976  44.913  32.505  14.346
51583W        W19977  25.369  25.544   4.102
51584W        W19978  23.080  32.144   2.860
51585W        W19979  13.114   7.844   4.660
51586W        W19980   8.304  19.223   4.618
51587W        W19981   4.209  32.999   4.892
51588W        W19982  39.313  13.340   1.263
51589W        W19983  23.625  28.311   2.410
51590W        W19984   7.077  39.592  14.098
51591W        W19985  34.181   6.774  11.214
51592W        W19986  11.611   5.355   3.153
51593W        W19987   7.012  13.475   4.465
51594W        W19988  17.094  11.938   0.273
51595W        W19989  15.184  31.175   3.194
51596W        W19990   5.692  40.141  11.853
51597W        W19991  16.019  17.841   2.685
51598W        W19992  39.940  10.183   2.544
51599W        W19993  11.597  34.164  14.816
51600W        W19994  11.268  39.146   4.873
51601W        W19995   2.822  15.583  14.820
51602W        W19996   1.453   8.785   0.620
51603W        W19997  20.091  18.234   0.902
51604W        W19998  41.792   2.940  11.166
51605W        W19999  42.108   0.794   0.354
51606W        W20000  12.061  26.914   4.229
51607W        W20001  11.692  32.916  14.538
51608W        W20002  34.010  26.568   0.413
51609W        W20003  16.520  40.053  13.414
51610W        W20004  23.329  42.572  12.561
51611W        W20005   1.516  38.037   3.094
51612W        W20006  16.552  17.266   0.263
51613W        W20007  26.310  35.006   0.956
51614W        W20008  24.074  27.102   0.190
51615W        W20009  12.238  35.194   4.561
51616W        W20010  18.819  26.054  13.869
51617W        W20011  30.916  12.519   2.174
51618W        W20012  32.007  15.042  13.373
51619W        W20013   4.864  22.169   4.368
51620W        W20014  44.038  39.692  12.165
51621W        W20015  15.481  25.213  13.390
51622W        W20016  22.612  29.120  10.708
51623W        W20017  38.503  27.226   1.271
51624W        W20018  14.704  24.244  13.838
51625W        W20019  22.118  25.896  14.403
51626W        W20020  20.034  27.257   1.737
51627W        W20021  32.492  31.409  11.133
51628W        W20022  42.394   1.538   2.495
51629W        W20023  14.075  44.713  13.391
51630W        W20024  16.325  13.164  12.954
51631W        W20025  22.673  32.112  14.784
51632W        W20026  29.696   5.666   1.779
51633W        W20027  24.981  11.813   3.899
51634W        W20028  39.766  32.940   0.716
51635W        W20029  11.154  35.362  13.091
51636W        W20030  17.496  33.981   4.048
51637W        W20031  32.364  26.510  12.464
51638W        W20032  21.425  22.314  11.482
51639W        W20033  30.093  22.023   1.746
51640W        W20034  11.099  26.441   2.888
51641W        W20035  38.013  41.395   2.778
51642W        W20036   8.140  32.589   1.720
51643W        W20037  31.360  15.176   1.734
51644W        W20038  22.192   2.880  10.456
51645W        W20039  15.866   6.508  14.038
51646W        W20040  17.527  34.404   2.018
51647W        W20041  39.054   6.453   2.148
51648W        W20042  36.832  44.787   1.821
51649W        W20043  32.153   2.851   2.435
51650W        W20044  35.477  29.256  14.444
51651W        W20045  35.610  30.411   3.538
51652W        W20046  12.307  14.639   0.941
51653W        W20047  22.361   9.297   0.385
51654W        W20048   4.217  25.635  12.957
51655W        W20049  33.805  10.432   4.458
51656W        W20050  19.725  17.754   4.085
51657W        W20051  11.852   1.513   3.322
51658W        W20052  13.960  27.205  10.756
51659W        W20053  20.251  32.855   3.307
51660W        W20054  32.187  13.211  12.655
51661W        W20055  27.220  10.197   0.814
51662W        W20056  43.797   1.288  11.761
51663W        W20057  13.923  38.962   3.693
51664W        W20058  40.955  19.681  14.390
51665W        W20059  30.250  32.436  11.944
51666W        W20060   5.219  37.537   1.163
51667W        W20061  18.702  39.954  12.875
51668W        W20062  37.986  19.086  14.980
51669W        W20063  40.486  17.187  11.520
51670W        W20064  40.329  14.257   0.369
51671W        W20065   4.439  44.226   3.136
51672W        W20066   8.660   0.866  14.191
51673W        W20067   6.274  37.015  13.217
51674W        W20068  16.159   1.007   1.692
51675W        W20069  21.753   9.713  11.085
51676W        W20070   4.042   5.485   1.461
51677W        W20071  36.673  15.426   1.318
51678W        W20072  36.406  29.740  14.919
51679W        W20073   5.445  29.602  11.528
51680W        W20074  21.091  35.499   0.810
51681W        W20075  18.315  37.915  11.482
51682W        W20076  14.720  34.366  10.148
51683W        W20077   1.813   4.472   3.202
51684W        W20078  12.240  41.340  14.134
51685W        W20079  35.879  15.869  12.065
51686W        W20080  22.090  33.929   1.902
51687W        W20081  39.769  37.956  12.992
51688W        W20082   4.667   7.278  12.972
51689W        W20083  44.373  18.353   4.278
51690W        W20084  17.556   4.240  11.528
51691W        W20085  30.634   4.753  14.187
51692W        W20086  28.603  24.813  13.294
51693W        W20087  36.557  42.582   3.114
51694W        W20088  31.518   4.295   3.085
51695W        W20089  21.004   5.845  11.915
51696W        W20090  40.790  27.670   0.870
51697W        W20091  33.439  25.361  13.589
51698W        W20092  26.009  23.479   4.775
51699W        W20093   8.307  22.111  13.344
51700W        W20094   0.588  39.081  13.418
51701W        W20095  23.911  35.052   2.891
51702W        W20096  30.878  35.762   3.913
51703W        W20097  22.723  16.220   3.314
51704W        W20098  21.123   8.053   3.838
51705W        W20099  29.423  28.566   0.647
51706W        W20100   8.720  13.841   3.306
51707W        W20101  22.877   8.739   3.274
51708W        W20102   3.937  35.939   0.875
51709W        W20103  30.146  29.734  10.583
51710W        W20104  32.978   9.773  12.998
51711W        W20105  39.979   0.428   2.311
51712W        W20106  41.278  11.895   1.821
51713W        W20107  22.492  34.646  11.171
51714W        W20108   4.756   3.457   4.102
51715W        W20109  44.659  29.982  13.487
51716W        W20110  10.330  38.151  13.819
51717W        W20111  15.006   4.007  14.523
51718W        W20112  43.449  10.367   3.235
51719W        W20113  16.593  22.325  11.970
51720W        W20114  25.169  15.327  11.155
51721W        W20115   0.768  36.391   0.502
51722W        W20116   8.878  42.565  13.434
51723W        W20117   0.173  37.561  12.550
51724W        W20118  33.198   4.842  10.697
51725W        W20119   2.869  43.868  11.719
51726W        W20120  30.290  40.050   0.392
51727W        W20121  25.099  11.642   1.697
51728W        W20122  18.584  31.894  13.511
51729W        W20123  21.589  20.400   0.119
51730W        W20124  35.974  15.936  14.720
51731W        W20125   6.755  40.602  12.915
51732W        W20126   4.370  16.618  13.988
51733W        W20127  41.495  40.987   2.322
51734W        W20128  30.886  28.445  12.513
51735W        W20129  23.015  24.566   1.063
51736W        W20130  27.206  28.047   1.864
51737W        W20131  28.043  30.355   4.034
51738W        W20132  31.065  39.381  11.531
51739W        W20133   8.896   2.006   4.276
51740W        W20134  35.635  36.355   1.391
51741W        W20135  20.992  13.570   2.437
51742W        W20136  27.739   1.178  12.204
51743W        W20137  13.279  34.068  13.013
51744W        W20138  30.144  13.697   1.888
51745W        W20139  19.351   4.559  11.481
51746W        W20140  14.654   7.223   2.126
51747W        W20141   6.222  14.615  11.686
51748W        W20142  21.029  42.795   3.608
51749W        W20143  12.115  44.600  10.416
51750W        W20144  24.393   0.050  14.966
51751W        W20145  27.480  32.005   2.789
51752W        W20146  29.699  29.424  12.070
51753W        W20147   8.349  26.533   4.549
51754W        W20148  42.985  28.241  11.981
51755W        W20149   0.327   5.881  11.058
51756W        W20150  18.715   4.668   1.741
51757W        W20151   8.192   2.712  13.480
51758W        W20152  44.322   3.922   3.905
51759W        W20153  12.803  23.193   2.687
51760W        W20154  23.699   7.613   1.817
51761W        W20155  26.500  39.876   3.772
51762W        W20156  27.571   6.286  11.451
51763W        W20157   8.484  39.170  11.261
51764W        W20158  18.335  14.144  12.603
51765W        W20159  40.929  24.250  13.946
51766W        W20160  10.657  34.310   3.111
51767W        W20161  42.315  35.319  11.887
51768W        W20162  40.092  37.579   1.225
51769W        W20163  42.904  35.459  13.086
51770W        W20164  22.315  18.632   3.540
51771W        W20165  11.287  42.819   1.032
51772W        W20166  12.599   9.255   1.438
51773W        W20167  34.411   0.475  11.623
51774W        W20168  24.772  39.841   4.174
51775W        W20169  39.273  31.619  12.680
51776W        W20170  32.398  42.911   2.874
51777W        W20171  38.482  23.963   1.246
51778W        W20172  40.038  14.729   2.133
51779W        W20173  36.132  43.548  14.847
51780W        W20174  25.830  29.770   2.547
51781W        W20175  11.780   3.367  14.287
51782W        W20176  33.309   2.389  13.719
51783W        W20177  29.783  10.342  11.914
51784W        W20178  20.219  27.849   0.837
51785W        W20179  24.040   6.913  11.347
51786W        W20180  42.515  21.630  12.607
51787W        W20181  20.298  22.436   4.300
51788W        W20182   2.501  36.245   3.318
51789W        W20183  38.523  33.897   2.950
51790W        W20184  18.755  36.257   1.878
51791W        W20185  18.563   0.105   3.218
51792W        W20186  11.791   3.190   3.681
51793W        W20187  10.961  24.440  13.868
51794W        W20188  29.907   0.398  12.059
51795W        W20189  18.653  34.939   3.792
51796W        W20190  19.201  24.008   2.906
51797W        W20191  16.318  31.473   2.779
51798W        W20192  43.635  31.119   4.516
51799W        W20193  42.393  32.862  13.611
51800W        W20194  25.009  27.048  14.220
51801W        W20195  23.130  35.468   4.361
51802W        W20196  35.006   1.364   2.375
51803W        W20197  24.322   7.262  11.553
51804W        W20198  32.146  10.075   0.469
51805W        W20199   3.978  17.673  12.386
51806W        W20200  39.957  43.338   2.188
51807W        W20201   9.685  25.073   0.244
51808W        W20202  20.492  43.308  12.594
51809W        W20203   1.707  26.213   4.435
51810W        W20204  28.673  22.702   3.276
51811W        W20205  37.394  20.993  11.762
51812W        W20206   0.241  12.368   1.379
51813W        W20207  15.380  30.694  14.657
51814W        W20208  27.057   8.043  11.660
51815W        W20209  16.140   5.584   0.955
51816W        W20210   8.453  35.586   2.741
51817W        W20211   4.953  32.114  10.831
51818W        W20212   8.967  14.631   2.908
51819W        W20213  11.501   8.398   0.365
51820W        W20214  14.305  13.636   1.370
51821W        W20215  15.102  22.623  13.737
51822W        W20216  14.303  21.233   1.296
51823W        W20217   4.622  19.995  12.330
51824W        W20218   4.132  26.634   5.146
51825W        W20219  16.112  41.825  12.551
51826W        W20220  40.410   4.690   3.325
51827W        W20221   9.829   9.565  14.387
51828W        W20222  43.232   1.895   4.517
51829W        W20223  20.242  27.340  14.008
51830W        W20224  12.292  12.237   0.240
51831W        W20225  44.701   9.380   2.377
51832W        W20226  32.082  28.754  12.489
51833W        W20227   8.296  38.356   4.569
51834W        W20228   4.469  41.338  13.517
51835W        W20229  29.156   0.424   0.303
51836W        W20230  38.556  22.830   0.516
51837W        W20231  26.213  23.214  14.195
51838W        W20232  39.433   4.277  11.421
51839W        W20233  21.562  20.728  14.213
51840W        W20234   3.249   5.742  14.708
51841W        W20235  24.180  37.594  11.473
51842W        W20236  14.685  11.416  12.088
51843W        W20237  21.721  29.018  13.310
51844W        W20238  43.394   8.084  13.231
51845W        W20239  17.705   6.913   0.466
51846W        W20240  31.560  20.691   1.012
51847W        W20241  38.313  28.568  11.595
51848W        W20242  43.280  31.482  11.702
51849W        W20243  18.369   7.791  11.273
51850W        W20244  41.128  29.570   2.781
51851W        W20245  25.044  23.454   3.585
51852W        W20246  24.338  30.560  11.680
51853W        W20247  38.306  43.656   2.023
51854W        W20248  35.225  21.200   3.628
51855W        W20249   2.976  30.162   3.620
51856W        W20250  42.467  14.281  11.874
51857W        W20251  44.657  26.506  12.148
51858W        W20252  16.249  39.515   2.882
51859W        W20253  40.844  35.213   2.707
51860W        W20254  23.750  33.610   4.013
51861W        W20255   7.888  38.937  12.849
51862W        W20256  19.739  33.662  14.941
51863W        W20257  25.903  34.523   2.762
51864W        W20258  11.195  13.285   4.334
51865W        W20259  36.029   8.896  12.968
51866W        W20260  23.088   3.477   0.976
51867W        W20261  29.899  23.202   4.590
51868W        W20262  15.311  38.036  11.536
51869W        W20263  17.555  11.727   0.380
51870W        W20264  28.074  16.369   4.034
51871W        W20265   4.694   9.444  13.422
51872W        W20266  22.915  26.302  10.703
51873W        W20267   6.067  15.490   3.224
51874W        W20268  17.760  18.814   4.952
51875W        W20269  30.923  32.373  14.888
51876W        W20270  36.085  14.184  10.819
51877W        W20271  41.376  15.791   0.250
51878W        W20272  11.364   5.212  14.495
51879W        W20273  13.315  43.953   1.914
51880W        W20274  27.775  23.389  11.402
51881W        W20275  21.554  40.428  14.980
51882W        W20276  39.411  11.648  12.035
51883W        W20277  13.699  19.671  13.767
51884W        W20278  19.164   8.789  11.067
51885W        W20279  28.971  30.462  12.998
51886W        W20280   4.761   2.421   4.149
51887W        W20281  33.499  37.296   0.726
51888W        W20282   6.914  35.034  11.578
51889W        W20283  27.595   9.921  11.704
51890W        W20284  33.518  23.899  13.364
51891W        W20285  17.631  12.068   3.240
51892W        W20286  24.916  41.326  11.080
51893W        W20287  29.997  24.479   0.682
51894W        W20288  22.980  25.514   3.892
51895W        W20289  34.374  41.825   4.619
51896W        W20290   7.208   2.196   3.858
51897W        W20291  25.330  41.497  13.457
51898W        W20292  21.394  20.235  14.431
51899W        W20293   7.000  22.522   2.757
51900W        W20294  13.229   3.811  11.560
51901W        W20295   3.822  41.205  11.033
51902W        W20296  30.379  19.713   2.642
51903W        W20297  26.714  20.844   2.547
51904W        W20298  21.957  42.318  12.551
51905W        W20299  41.971  42.551  13.500
51906W        W20300  12.254  32.769   3.579
51907W        W20301   0.504  39.304   3.759
51908W        W20302  18.662   1.501  14.312
51909W        W20303  16.576  31.065  14.020
51910W        W20304  25.968  26.705  11.208
51911W        W20305   8.334   0.663  11.418
51912W        W20306   3.371  15.851   2.270
51913W        W20307   4.835  16.566   1.689
51914W        W20308  15.273  25.979  13.045
51915W        W20309  36.070  24.007  13.222
51916W        W20310  42.749  28.214   1.444
51917W        W20311   5.089   9.844  13.344
51918W        W20312   3.171  41.520  13.433
51919W        W20313   1.098  16.726  14.072
51920W        W20314  20.342  18.293   4.594
51921W        W20315  23.649  42.406   4.324
51922W        W20316   4.295   4.860  11.989
51923W        W20317   1.751  11.853   4.352
51924W        W20318  23.568  34.425  12.105
51925W        W20319  42.157  29.308   2.968
51926W        W20320  41.500  44.312  14.741
51927W        W20321  23.539  41.820   3.028
51928W        W20322   8.158  19.760   0.341
51929W        W20323  41.137   4.911  10.857
51930W        W20324  37.708  40.267  12.120
51931W        W20325   2.811  33.887  11.685
51932W        W20326  41.309  42.370  11.180
51933W        W20327  11.688  27.688  12.622
51934W        W20328  44.404  31.822  11.195
51935W        W20329   3.032  30.047   4.129
51936W        W20330  27.425  27.183   4.469
51937W        W20331  42.653  25.559   5.128
51938W        W20332   5.687   4.140   0.367
51939W        W20333  31.499  38.049  10.655
51940W        W20334  29.737  36.592  12.942
51941W        W20335  27.017  36.087   3.866
51942W        W20336  28.029   2.117  14.702
51943W        W20337  22.448  33.167   3.558
51944W        W20338   1.503  15.922  11.916
51945W        W20339   3.418   8.414   4.142
51946W        W20340  16.821  12.084  10.988
51947W        W20341  24.670  40.374   0.228
51948W        W20342  18.757  42.913  13.801
51949W        W20343  34.834   8.957  10.704
51950W        W20344  43.377  28.643  14.445
51951W        W20345   0.165   4.953  11.980
51952W        W20346  14.246  11.651  11.201
51953W        W20347  29.191  44.848   4.165
51954W        W20348  10.702  29.127  12.926
51955W        W20349  19.070  26.244   4.521
51956W        W20350  43.963  30.068   1.971
51957W        W20351  11.156  24.775  12.545
51958W        W20352   8.415  17.122  12.828
51959W        W20353   7.037  30.019  13.397
51960W        W20354  16.676  21.038  11.497
51961W        W20355  44.959  12.220   0.427
51962W        W20356  34.449  20.727  11.154
51963W        W20357  33.846  16.610   1.849
51964W        W20358  40.494  11.808   3.148
51965W        W20359  23.009  26.512  11.176
51966W        W20360  13.855  44.969   2.477
51967W        W20361  31.109  42.083   3.740
51968W        W20362  30.612   2.941  12.517
51969W        W20363  20.471  20.801  12.526
51970W        W20364  17.413  34.472  11.618
51971W        W20365  25.184  40.099  13.787
51972W        W20366  17.137  23.976  11.986
51973W        W20367  11.728   7.310   0.831
51974W        W20368  22.165  38.815   0.365
51975W        W20369  22.216  36.217   2.707
51976W        W20370   7.419   0.256   3.647
51977W        W20371  41.164  13.080  11.326
51978W        W20372  17.555   7.369   1.270
51979W        W20373  23.035  25.979  11.095
51980W        W20374   4.703  43.246  12.878
51981W        W20375  23.135   5.697   3.994
51982W        W20376   9.867  37.447   4.392
51983W        W20377  18.981  16.177  13.858
51984W        W20378   5.017  32.170   3.754
51985W        W20379  12.056   1.843  13.410
51986W        W20380  33.643  28.426  11.671
51987W        W20381  17.216  27.972  12.320
51988W        W20382   3.768  26.596   3.619
51989W        W20383   1.721   9.780   0.371
51990W        W20384  42.969  22.175  13.718
51991W        W20385  41.520   1.304   3.010
51992W        W20386  28.921  43.825   3.263
51993W        W20387  26.890  44.895   2.358
51994W        W20388  11.797  33.951  13.469
51995W        W20389  33.021  30.863   2.107
51996W        W20390   3.508  22.167   0.318
51997W        W20391  41.434   9.409  12.943
51998W        W20392  16.326  19.817  12.550
51999W        W20393  23.116  13.356   3.275
52000W        W20394  37.281   7.930   1.970
52001W        W20395  39.536   4.956  14.882
52002W        W20396   9.462  15.062  13.420
52003W        W20397  42.999  36.114  11.196
52004W        W20398  11.277  20.270   1.381
52005W        W20399  11.276  30.783  13.851
52006W        W20400  27.150  10.068  13.979
52007W        W20401  10.846  44.469  13.027
52008W        W20402  29.525   8.845  13.239
52009W        W20403  34.885   0.273  11.864
52010W        W20404  32.962  16.330  11.635
52011W        W20405  40.280  44.080   4.646
52012W        W20406  36.338  35.443   0.283
52013W        W20407  19.586  13.311   1.750
52014W        W20408  25.409  11.898   3.263
52015W        W20409  19.383  41.263  13.913
52016W        W20410  10.793  23.799  12.369
52017W        W20411  34.438  13.271   2.489
52018W        W20412   8.075  14.548  10.705
52019W        W20413  15.544  17.324  11.380
52020W        W20414  27.116  29.182   2.614
52021W        W20415  10.474  43.338  13.342
52022W        W20416   1.973   4.243  11.203
52023W        W20417  23.034  38.706  12.166
52024W        W20418  14.343  13.790  14.249
52025W        W20419  31.552   8.906   2.728
52026W        W20420  27.234  14.310   1.875
52027W        W20421  10.495  43.006   4.568
52028W        W20422  35.650   9.895  13.249
52029W        W20423  13.508  41.355  11.944
52030W        W20424  26.599  40.566  12.078
52031W        W20425  12.136  17.410  13.955
52032W        W20426  37.228  20.014  14.811
52033W        W20427  19.824  10.670   1.882
52034W        W20428  30.977   6.448   4.927
52035W        W20429  42.719  14.711  10.998
52036W        W20430  35.102  32.463  14.748
52037W        W20431  18.824   3.401  11.207
52038W        W20432  25.255  19.020   2.734
52039W        W20433  44.497  25.293   4.117
52040W        W20434  23.224  24.073  12.390
52041W        W20435   4.206  17.252  10.437
52042W        W20436  14.367   3.229  13.503
52043W        W20437  41.655  17.985  14.129
52044W        W20438  28.195  42.034  13.374
52045W        W20439   2.288  23.974   2.931
52046W        W20440  11.043  10.021  14.937
52047W        W20441  41.299  41.481  10.875
52048W        W20442   1.164   9.768   3.064
52049W        W20443  23.626   3.783  13.502
52050W        W20444  34.912  13.998   4.451
52051W        W20445   3.270  41.455   0.342
52052W        W20446  43.930   6.478   4.601
52053W        W20447  41.361   7.257  11.109
52054W        W20448  40.567  26.640   0.243
52055W        W20449  44.478  42.365  13.571
52056W        W20450   9.392  31.957   2.760
52057W        W20451  18.291   8.403  10.553
52058W        W20452  22.072  16.052   2.672
52059W        W20453   3.907  35.126   0.377
52060W        W20454  13.602  40.091   1.428
52061W        W20455   6.126  32.461  12.048
52062W        W20456   0.439   5.334  10.703
52063W        W20457  38.560  10.731   1.282
52064W        W20458  41.528  18.105   2.718
52065W        W20459  28.153  10.364  14.520
52066W        W20460  36.004   7.436   0.255
52067W        W20461  11.818  43.011   3.436
52068W        W20462  22.458  11.836   1.849
52069W        W20463  43.348   8.497  13.917
52070W        W20464   5.348   0.702   4.697
52071W        W20465  42.824  20.489  12.757
52072W        W20466  34.431  33.822   4.536
52073W        W20467   7.912  19.580   3.339
52074W        W20468   7.255  38.755  13.511
52075W        W20469  41.915   2.221   2.209
52076W        W20470  28.166  43.804   3.960
52077W        W20471   2.314  37.612  12.064
52078W        W20472  18.853  16.283   2.429
52079W        W20473   2.435  27.683  12.407
52080W        W20474  17.628   7.663   0.842
52081W        W20475   9.235  44.509  11.652
52082W        W20476  23.263  12.841   0.482
52083W        W20477  19.511  11.342   1.714
52084W        W20478   3.907  15.321   1.180
52085W        W20479  11.746   9.305  12.992
52086W        W20480  14.007   8.654  11.714
52087W        W20481  18.714  35.417  13.345
52088W        W20482   7.582   2.943  14.901
52089W        W20483  21.055   1.947   4.599
52090W        W20484  16.615   0.469   2.414
52091W        W20485  25.454  16.439  12.155
52092W        W20486  43.737  17.108  13.959
52093W        W20487   3.381  12.454   1.797
52094W        W20488   7.864  27.079   1.174
52095W        W20489   3.400   3.111   4.495
52096W        W20490   8.872  19.769  12.027
52097W        W20491  38.559   1.837  14.309
52098W        W20492  36.996   8.838  11.445
52099W        W20493   4.797  23.737   4.751
52100W        W20494  38.555   2.970  11.478
52101W        W20495  20.830  25.944  10.109
52102W        W20496   2.285  36.754   3.295
52103W        W20497  23.103   5.442   4.849
52104W        W20498   0.992  11.063  11.245
52105W        W20499  16.827   5.567   4.907
52106W        W20500  40.052  34.473   2.802
52107W        W20501  22.739  31.050  11.608
52108W        W20502  21.282  27.937  10.781
52109W        W20503  37.546  19.306   0.232
52110W        W20504   9.427  10.065   1.336
52111W        W20505  26.165  43.010   5.247
52112W        W20506  22.691  20.662   2.750
52113W        W20507  44.885  16.307   3.241
52114W        W20508  34.399   7.120   4.653
52115W        W20509  35.626  36.021  13.956
52116W        W20510  17.025  32.512   0.728
52117W        W20511   0.869  12.347   0.301
52118W        W20512  31.850   1.050  13.593
52119W        W20513  14.115   4.999  13.992
52120W        W20514  12.728   3.921  11.654
52121W        W20515   8.171  26.565  13.371
52122W        W20516  39.066  30.659  13.476
52123W        W20517  12.799  19.225  10.581
52124W        W20518  39.848  20.646   2.806
52125W        W20519   2.001  41.794   0.858
52126W        W20520  22.659   2.185   4.631
52127W        W20521   1.914   9.601   2.802
52128W        W20522  25.697  37.995   4.386
52129W        W20523  11.108  13.926  14.205
52130W        W20524  14.890  31.428   2.347
52131W        W20525  38.098  16.111  12.008
52132W        W20526  40.333  16.609   2.968
52133W        W20527  39.886  32.951   3.765
52134W        W20528  30.385  31.550  12.922
52135W        W20529  25.596   7.961  11.067
52136W        W20530  29.462  22.837  10.537
52137W        W20531  15.491  35.436  12.666
52138W        W20532  40.287   3.162  13.850
52139W        W20533  17.760  29.309  14.238
52140W        W20534  12.846  17.548   4.564
52141W        W20535  27.492  11.313  11.615
52142W        W20536   9.334  30.112  11.947
52143W        W20537   0.147  25.433   3.761
52144W        W20538   1.582  40.353   1.165
52145W        W20539  28.839  28.862  11.177
52146W        W20540  39.504  25.166  13.497
52147W        W20541  31.072   6.815   0.284
52148W        W20542   6.412  27.226  14.829
52149W        W20543   6.344   8.425   3.350
52150W        W20544  41.445  16.691   2.174
52151W        W20545  12.798  16.073   0.840
52152W        W20546  36.857  28.124  11.225
52153W        W20547  33.573   2.240  14.561
52154W        W20548  40.863   0.537   3.787
52155W        W20549  23.429  21.409   1.245
52156W        W20550   1.327  25.981   0.961
52157W        W20551  12.546  36.206  14.968
52158W        W20552  23.731  39.375   2.572
52159W        W20553   5.080   2.221   3.801
52160W        W20554  26.417   7.788  14.516
52161W        W20555  30.077   7.208   2.118
52162W        W20556  19.534  19.476   1.960
52163W        W20557  13.930  15.130  12.173
52164W        W20558   2.680  13.956   3.140
52165W        W20559  18.273  15.604  11.053
52166W        W20560   2.240  36.928   2.794
52167W        W20561  28.592  35.097  10.829
52168W        W20562  15.437  15.869   1.460
52169W        W20563  35.348  27.678   1.747
52170W        W20564   9.307   4.780   0.745
52171W        W20565  14.697  39.891   1.830
52172W        W20566  34.432  24.474  13.157
52173W        W20567  24.024   9.329   3.351
52174W        W20568  11.880  33.721   1.697
52175W        W20569  27.158  44.738  12.044
52176W        W20570  11.881  36.374   4.124
52177W        W20571  28.215  29.359  10.738
52178W        W20572  40.278   8.233   0.879
52179W        W20573  25.203  19.953  13.570
52180W        W20574  30.866   2.775  12.918
52181W        W20575  24.576   8.250   3.061
52182W        W20576  38.742  26.537  10.802
52183W        W20577  36.564  18.130   2.175
52184W        W20578  19.026   9.245  12.418
52185W        W20579  12.266   1.494  12.038
52186W        W20580   6.699  27.509  12.442
52187W        W20581   4.946  35.069   0.688
52188W        W20582  31.062  11.916  13.553
52189W        W20583   0.151   2.847  12.581
52190W        W20584  43.958  37.730  14.566
52191W        W20585  35.567  32.995  14.510
52192W        W20586  19.439  29.182   3.265
52193W        W20587  25.567  15.698   2.755
52194W        W20588  43.363  33.128   1.776
52195W        W20589  36.923  17.995   3.941
52196W        W20590  21.742  29.006   2.394
52197W        W20591  39.555  10.326  11.589
52198W        W20592  22.476  22.928  12.616
52199W        W20593  42.621  37.758  14.064
52200W        W20594  12.166  28.297   1.043
52201W        W20595   3.849  12.131  12.904
52202W        W20596  23.442  36.507   3.326
52203W        W20597   1.954   8.718   0.557
52204W        W20598  39.337   3.995  13.003
52205W        W20599  15.613  41.175  10.267
52206W        W20600  11.132  26.224  10.672
52207W        W20601   9.298  30.425  14.869
52208W        W20602   9.289   2.241   0.695
52209W        W20603   1.178   9.382  14.392
52210W        W20604  23.626   1.882   0.933
52211W        W20605   9.721  23.552   4.135
52212W        W20606  36.671  41.261   0.920
52213W        W20607  29.532  15.313   2.337
52214W        W20608  37.659   5.233   1.817
52215W        W20609  39.925  13.248   4.759
52216W        W20610   8.363  42.039  13.090
52217W        W20611  36.749   9.209  12.166
52218W        W20612   3.287  16.141  14.342
52219W        W20613  28.216   4.013  14.930
52220W        W20614  41.245  11.788   2.718
52221W        W20615  10.892   4.625   3.998
52222W        W20616  18.630  43.986   1.028
52223W        W20617  24.544  18.092  13.259
52224W        W20618  26.961  32.565   2.414
52225W        W20619  19.937   5.141  11.058
52226W        W20620  35.960   0.455   1.846
52227W        W20621  31.429  10.376  11.034
52228W        W20622  42.254  32.217  12.509
52229W        W20623  19.645   0.761   2.700
52230W        W20624   6.385   6.106   0.655
52231W        W20625   8.464   8.392   4.060
52232W        W20626  42.890  17.747   4.372
52233W        W20627  25.963   9.666  14.340
52234W        W20628  44.430   1.874   0.811
52235W        W20629  11.913  11.125  11.202
52236W        W20630   8.765  39.501   1.791
52237W        W20631  38.159  30.089   1.072
52238W        W20632  36.128  14.641  11.087
52239W        W20633  44.342  42.372   4.664
52240W        W20634   9.373  32.148   3.688
52241W        W20635  41.694  21.727   3.659
52242W        W20636  16.738   0.169  13.220
52243W        W20637  19.083  33.118   1.262
52244W        W20638  23.695   7.166   0.890
52245W        W20639   0.729  33.993  12.123
52246W        W20640  11.851  11.737  13.812
52247W        W20641  18.664  12.356   1.735
52248W        W20642  20.739  38.040  14.375
52249W        W20643  13.858  24.587   4.147
52250W        W20644  25.146  24.997  11.710
52251W        W20645   7.964   2.757  11.455
52252W        W20646   4.794  33.695   3.606
52253W        W20647  14.229  35.017   2.941
52254W        W20648  10.966  43.584   0.801
52255W        W20649  39.500   3.475  11.891
52256W        W20650  15.296  10.904  14.817
52257W        W20651   2.946  38.843  11.956
52258W        W20652  40.512  35.929  14.487
52259W        W20653  43.980  17.475  11.493
52260W        W20654  20.045  13.651  13.132
52261W        W20655  26.955  36.535  12.551
52262W        W20656  26.103  18.265   0.792
52263W        W20657  32.497  27.827  12.786
52264W        W20658  37.823  15.711   0.872
52265W        W20659  40.296  14.103  10.401
52266W        W20660   3.484   7.620  10.760
52267W        W20661   0.906  21.539   3.361
52268W        W20662  16.965  17.957  11.528
52269W        W20663  30.412  13.838  11.116
52270W        W20664   5.216  18.816  12.556
52271W        W20665  32.431  29.411   4.180
52272W        W20666   0.351  39.421  10.349
52273W        W20667   9.849  11.640   0.490
52274W        W20668  17.148   5.226   3.695
52275W        W20669  38.986   2.848   0.290
52276W        W20670   9.679  25.442  12.981
52277W        W20671  21.242   8.265   1.766
52278W        W20672   3.005  14.865  13.927
52279W        W20673   4.988  19.619   1.829
52280W        W20674   0.925  20.652   3.282
52281W        W20675  36.924   1.956  12.176
52282W        W20676  40.742  17.904   4.050
52283W        W20677  22.652  32.118   0.667
52284W        W20678  18.590   6.867   0.529
52285W        W20679  38.997  32.478  12.319
52286W        W20680  10.518  37.031  10.935
52287W        W20681  10.875  21.166   0.838
52288W        W20682  43.763  22.887   3.353
52289W        W20683  28.589  26.591  11.061
52290W        W20684  18.330  24.333   1.209
52291W        W20685   2.426   3.213  12.451
52292W        W20686  14.545  33.427  14.722
52293W        W20687  38.152   5.434  13.370
52294W        W20688  37.739  42.498   4.365
52295W        W20689  15.125  34.154  14.480
52296W        W20690  39.438  11.267   3.460
52297W        W20691   8.155  15.054   3.842
52298W        W20692  28.498   8.925   0.951
52299W        W20693  20.134  39.984  13.493
52300W        W20694  14.425  40.391  14.069
52301W        W20695  28.398   2.989   2.632
52302W        W20696  40.276  21.011  14.417
52303W        W20697  20.535   3.431  11.038
52304W        W20698  37.975   3.280   4.201
52305W        W20699  41.263   0.454  12.906
52306W        W20700  17.770  12.599  11.097
52307W        W20701   1.301  40.440  14.762
52308W        W20702  29.103  28.936  13.027
52309W        W20703   4.802  11.202  14.172
52310W        W20704  16.512  27.654   2.321
52311W        W20705  12.932  24.821   1.768
52312W        W20706  19.580  13.562   0.369
52313W        W20707  26.191   6.825   3.596
52314W        W20708  34.211  15.285   2.783
52315W        W20709   7.406  38.280   3.098
52316W        W20710  41.433  19.481  14.455
52317W        W20711  11.891  17.793   2.509
52318W        W20712  28.873  44.051   2.315
52319W        W20713  39.704  11.060   2.416
52320W        W20714   2.216  34.812  11.090
52321W        W20715  11.409  20.563   1.804
52322W        W20716  30.540  14.283   3.618
52323W        W20717  44.903  20.446  14.436
52324W        W20718  44.642  27.148   0.269
52325W        W20719  42.901  33.390   0.442
52326W        W20720  29.761  27.311  12.502
52327W        W20721  42.258  19.158  11.723
52328W        W20722  25.655  16.614   1.271
52329W        W20723  44.505  41.373  11.902
52330W        W20724   2.926  34.693   1.488
52331W        W20725   5.121  19.116   2.668
52332W        W20726  36.575  22.166   3.334
52333W        W20727   9.279  25.115   0.983
52334W        W20728  42.794   5.746   3.348
52335W        W20729  25.329  21.838  10.759
52336W        W20730  34.996  40.430   3.191
52337W        W20731   6.317  34.899   2.776
52338W        W20732  12.922  25.722  12.545
52339W        W20733  26.174  23.571   0.391
52340W        W20734  35.503   2.512  13.535
52341W        W20735  14.089  27.269  11.994
52342W        W20736   9.253  38.143   1.954
52343W        W20737   0.723  26.117  14.755
52344W        W20738  30.419  15.118  12.521
52345W        W20739  42.233  19.949   4.695
52346W        W20740  38.284  42.959  10.291
52347W        W20741  13.854   8.607   2.798
52348W        W20742  34.525  44.979  10.830
52349W        W20743  39.388   9.810  13.472
52350W        W20744   9.093  11.308  13.552
52351W        W20745   7.222  43.992  12.886
52352W        W20746  39.073  31.960   4.736
52353W        W20747  35.003  29.425   2.094
52354W        W20748   8.862  44.362   4.615
52355W        W20749  10.245  36.888  14.908
52356W        W20750  38.945  38.305  10.177
52357W        W20751   7.421  17.253   3.283
52358W        W20752   7.808  28.071   0.179
52359W        W20753  15.354  31.648   3.151
52360W        W20754  19.052  35.990  13.381
52361W        W20755   0.977  31.055   4.115
52362W        W20756  16.348   5.283   3.234
52363W        W20757  23.754  40.957  13.079
52364W        W20758  11.674  17.651   0.939
52365W        W20759  10.663  25.657  13.972
52366W        W20760  30.003  13.295  11.716
52367W        W20761  37.527  38.065   4.535
52368W        W20762  39.005  32.124  12.849
52369W        W20763   0.712  39.554  11.675
52370W        W20764  19.039  29.419   2.185
52371W        W20765  18.011  29.461  13.785
52372W        W20766  43.203  40.372   1.917
52373W        W20767  36.445  12.428   4.089
52374W        W20768  33.116  40.829   2.753
52375W        W20769  36.164  39.991  11.275
52376W        W20770  41.341  17.737   1.679
52377W        W20771  20.942  42.399   1.461
52378W        W20772  39.485  30.090  11.977
52379W        W20773  40.056  22.512   2.861
52380W        W20774  28.488  33.450   0.952
52381W        W20775   4.924   9.096   1.414
52382W        W20776  16.874   6.100   2.777
52383W        W20777  42.300  41.284   3.265
52384W        W20778  14.021   0.209   4.859
52385W        W20779  42.391   8.702   1.523
52386W        W20780  38.851  44.862  10.423
52387W        W20781  43.013   4.789  10.489
52388W        W20782  44.607  32.478  12.418
52389W        W20783  18.352   7.508   4.870
52390W        W20784  41.366  32.098   1.318
52391W        W20785  17.650   7.546  12.032
52392W        W20786  44.791  19.512  11.511
52393W        W20787  39.773  42.609   0.542
52394W        W20788   7.802  19.555   1.831
52395W        W20789  43.211  33.517  12.347
52396W        W20790  12.120   4.937   4.297
52397W        W20791  27.638   0.461   4.595
52398W        W20792  30.137  12.693  11.978
52399W        W20793  38.998   0.281  14.689
52400W        W20794   5.712   2.491   0.916
52401W        W20795  31.455  41.890   0.881
52402W        W20796  29.250   0.208  12.548
52403W        W20797   2.407  19.636  12.893
52404W        W20798  21.026   2.909   3.402
52405W        W20799   7.497   1.925  11.707
52406W        W20800  30.969  32.049   2.312
52407W        W20801  44.198  12.857   2.900
52408W        W20802  26.257  38.587   3.142
52409W        W20803  27.571  44.325   1.447
52410W        W20804  29.613  13.623   1.701
52411W        W20805  16.102  34.014  14.700
52412W        W20806  13.541  26.605  11.650
52413W        W20807   4.652  38.917  10.791
52414W        W20808  26.673  15.682   4.915
52415W        W20809  10.834   8.367   1.737
52416W        W20810  39.878   2.528   2.675
52417W        W20811   8.195  18.244  11.073
52418W        W20812   5.229  43.726  10.780
52419W        W20813  21.460  11.786   1.723
52420W        W20814  31.115   6.422   0.930
52421W        W20815  33.644  35.524  13.404
52422W        W20816   5.829  18.141   2.437
52423W        W20817  37.033  20.818  12.105
52424W        W20818  35.216  13.845  13.947
52425W        W20819  37.517   0.396  13.499
52426W        W20820  31.834   1.300   1.179
52427W        W20821  34.581  44.208  11.214
52428W        W20822  30.242   4.336   3.687
52429W        W20823  13.794   0.778   4.175
52430W        W20824   2.211  10.164  14.434
52431W        W20825   3.305  17.207   5.104
52432W        W20826  13.753   9.733   4.394
52433W        W20827  33.072  43.915   1.983
52434W        W20828  31.070  11.099   3.239
52435W        W20829  25.975   3.447  15.000
52436W        W20830   3.739  21.787  10.593
52437W        W20831  13.651  22.665  12.021
52438W        W20832  38.564  20.325   4.130
52439W        W20833   2.242   8.920  10.320
52440W        W20834  32.780  18.460   0.652
52441W        W20835  21.709  42.496  14.951
52442W        W20836   2.564  34.477  11.879
52443W        W20837  17.757   6.624  12.174
52444W        W20838  26.100  28.454   4.171
52445W        W20839  24.826   4.386   1.892
52446W        W20840  37.967   1.186  14.011
52447W        W20841   0.518   8.795  14.500
52448W        W20842   7.850  10.898  14.399
52449W        W20843  20.771  19.683   0.901
52450W        W20844  18.540  33.989  13.896
52451W        W20845  19.544   6.227  12.293
52452W        W20846  15.544   2.321  11.564
52453W        W20847  43.745  39.439  12.554
52454W        W20848  15.615   4.691  12.982
52455W        W20849  41.970  20.193   0.422
52456W        W20850  27.510  18.030  14.814
52457W        W20851   6.260   9.559   0.264
52458W        W20852  17.103  37.955  12.039
52459W        W20853  38.831  15.197  11.232
52460W        W20854  11.379  33.632  10.297
52461W        W20855   7.000   0.276  13.138
52462W        W20856  25.377  41.361  12.555
52463W        W20857  21.553   0.135   2.342
52464W        W20858  34.443  19.161   0.687
52465W        W20859  28.949  10.633   1.897
52466W        W20860  14.614   0.433  13.485
52467W        W20861  21.412  18.527  12.580
52468W        W20862  14.216  31.687  11.579
52469W        W20863  27.116  42.803  11.647
52470W        W20864  29.679  25.431  10.719
52471W        W20865  33.445  15.475  14.959
52472W        W20866   5.410  32.005   1.059
52473W        W20867  13.042  18.486  10.513
52474W        W20868   6.309   0.503  14.325
52475W        W20869   9.580  29.148  14.319
52476W        W20870  33.114   9.874  11.496
52477W        W20871  42.262  29.479   0.022
52478W        W20872  28.589  35.532   3.937
52479W        W20873   1.422  37.433   0.995
52480W        W20874   1.487  37.111   1.869
52481W        W20875  15.368  23.462   1.435
52482W        W20876  19.705  18.834  14.109
52483W        W20877  34.217  22.052   1.472
52484W        W20878  25.008  20.254  14.484
52485W        W20879   4.927  36.969  13.270
52486W        W20880   8.900  14.358   3.357
52487W        W20881  42.785  14.645  14.463
52488W        W20882   5.446  37.912   3.614
52489W        W20883  34.874  30.699   4.048
52490W        W20884   4.643   5.254  10.717
52491W        W20885  29.926  35.203   4.082
52492W        W20886  29.204  27.495   2.793
52493W        W20887  20.392  17.862   4.872
52494W        W20888   7.598  38.887   3.708
52495W        W20889  37.767  33.797  10.977
52496W        W20890  34.071  37.399  14.763
52497W        W20891  29.052   9.180   4.364
52498W        W20892   7.792  41.479  10.720
52499W        W20893  20.208  19.782  14.918
52500W        W20894  22.696   9.896   0.842
52501W        W20895  23.000   6.211  12.591
52502W        W20896  40.369   2.296   1.733
52503W        W20897  32.475  31.667   2.263
52504W        W20898  23.957  37.756   3.334
52505W        W20899  29.843  25.693  11.127
52506W        W20900  38.054  20.316   4.702
52507W        W20901   6.482  34.607   4.734
52508W        W20902   7.452  23.750   3.918
52509W        W20903   2.952  26.914   3.178
52510W        W20904  11.773  19.673  13.561
52511W        W20905  25.220  11.105  12.092
52512W        W20906  19.111  40.410  14.925
52513W        W20907  15.579  19.491   4.123
52514W        W20908  42.645   7.018   1.933
52515W        W20909   5.079  15.568   2.780
52516W        W20910  35.870  24.439   0.866
52517W        W20911  32.031  29.233   3.608
52518W        W20912  29.211  17.069  13.157
52519W        W20913  21.932   1.903  12.118
52520W        W20914  19.132  33.198  14.512
52521W        W20915   3.503  31.008  11.642
52522W        W20916  29.080  42.919  13.790
52523W        W20917  15.193  20.435   3.798
52524W        W20918  36.786   8.293  13.764
52525W        W20919  16.590  11.494   4.102
52526W        W20920   3.709   2.104  13.185
52527W        W20921   4.370  32.275  14.790
52528W        W20922  39.908  30.045  10.690
52529W        W20923  39.592  43.517   1.352
52530W        W20924   5.182  15.707   0.892
52531W        W20925  10.271  37.913  14.273
52532W        W20926  22.999  29.473  10.665
52533W        W20927  17.132   0.351   0.355
52534W        W20928  32.095  39.943   1.946
52535W        W20929  25.255  27.512   1.817
52536W        W20930  40.201  11.377   0.231
52537W        W20931  42.522  37.669   3.634
52538W        W20932  35.482  32.550   0.274
52539W        W20933  23.226  17.753  13.461
52540W        W20934  37.698  44.370   0.687
52541W        W20935   0.767  24.244  14.753
52542W        W20936   9.699  22.144  13.127
52543W        W20937   0.534   9.382  12.482
52544W        W20938   6.290  24.908   3.734
52545W        W20939  32.095   1.990   2.217
52546W        W20940  43.492  38.131  13.796
52547W        W20941  39.498  25.547   4.854
52548W        W20942  26.303  29.125  12.705
52549W        W20943   4.834  16.770  10.308
52550W        W20944  20.352  13.317  13.379
52551W        W20945  18.174  36.345   0.427
52552W        W20946  28.126  16.780  14.803
52553W        W20947   5.043  20.161   0.254
52554W        W20948   7.501   7.366  12.799
52555W        W20949  21.335  18.244   2.288
52556W        W20950   2.246  35.454   0.813
52557W        W20951  15.900  41.835   4.575
52558W        W20952  19.004  29.985  11.191
52559W        W20953  30.099   4.743   4.556
52560W        W20954   8.240  33.845  10.500
52561W        W20955  30.687  40.086   1.414
52562W        W20956  36.473  39.973   4.881
52563W        W20957  25.124  39.940   3.817
52564W        W20958   6.700  10.143   0.379
52565W        W20959  44.481   1.850   4.051
52566W        W20960  17.377  11.400   2.941
52567W        W20961  23.426  31.904  12.518
52568W        W20962  11.725  25.248  10.779
52569W        W20963  22.639  30.151  11.159
52570W        W20964  28.748  43.021   3.717
52571W        W20965  42.375   6.196  14.772
52572W        W20966  32.890  31.579  12.996
52573W        W20967  43.874  16.742   0.052
52574W        W20968   9.348  22.622   2.287
52575W        W20969  20.152  14.369   2.196
52576W        W20970  17.140  14.351  14.292
52577W        W20971  29.423   0.997  14.482
52578W        W20972  28.856  12.814   3.679
52579W        W20973  44.553  23.768   1.784
52580W        W20974   8.682  20.752  13.390
52581W        W20975   2.433   4.789   0.184
52582W        W20976  28.413  37.045  12.932
52583W        W20977  17.784   4.341   2.352
52584W        W20978  33.030  20.639   0.257
52585W        W20979   5.324  25.975   2.792
52586W        W20980  31.648   9.410   2.762
52587W        W20981   0.489  43.303   0.714
52588W        W20982  23.984  25.012   2.873
52589W        W20983  22.184   1.259   2.664
52590W        W20984   2.969  24.645  14.982
52591W        W20985  30.178  43.700   2.526
52592W        W20986  14.115  34.653  13.225
52593W        W20987  18.211  32.832   1.081
52594W        W20988  27.122  28.221  10.758
52595W        W20989   1.424  16.449   0.779
52596W        W20990  15.301  36.476  13.791
52597W        W20991   0.464  36.842   4.989
52598W        W20992  34.449  20.501   3.181
52599W        W20993  13.333  34.460   2.293
52600W        W20994  23.595  15.265   3.160
52601W        W20995  23.474  17.774   3.888
52602W        W20996  37.585  33.957  12.650
52603W        W20997  31.056  41.485  14.979
52604W        W20998  21.796  27.358   1.737
52605W        W20999   7.972  36.121   1.906
52606W        W21000  20.417  13.055   1.708
52607W        W21001  23.029  34.700   0.717
52608W        W21002   6.609   9.319  10.730
52609W        W21003  37.992   2.282   1.001
52610W        W21004  35.827  43.777  11.896
52611W        W21005  13.598  23.312   1.019
52612W        W21006  29.218  27.446   3.759
52613W        W21007   2.022  27.458   1.196
52614W        W21008  23.704  28.556  12.192
52615W        W21009  25.350  23.718  14.320
52616W        W21010  27.432  23.925  12.626
52617W        W21011  17.840   8.112   0.757
52618W        W21012   7.992   9.713   2.890
52619W        W21013  19.979   5.551   2.605
52620W        W21014  30.482  20.961   3.421
52621W        W21015  39.883   7.299   4.518
52622W        W21016  16.701  24.097  13.013
52623W        W21017  41.972   3.867  12.085
52624W        W21018   8.870   3.068  11.083
52625W        W21019  22.595   2.978  10.779
52626W        W21020  31.548  24.572  10.611
52627W        W21021  39.342  28.111   3.304
52628W        W21022  18.399  14.306  13.494
52629W        W21023  18.152  13.773   3.290
52630W        W21024   7.891  34.470  12.049
52631W        W21025  28.210  41.825  13.887
52632W        W21026  39.088  40.312   1.881
52633W        W21027  29.156  16.224   3.139
52634W        W21028  38.653  26.482   2.911
52635W        W21029  25.545  13.838  13.451
52636W        W21030   6.258   1.239   4.654
52637W        W21031   7.476  25.951  11.947
52638W        W21032  12.098  29.716  13.453
52639W        W21033   5.075  20.226  13.750
52640W        W21034  12.599  11.997   3.423
52641W        W21035  16.200   5.839   2.621
52642W        W21036  11.908  43.828  11.112
52643W        W21037  14.734  19.901   0.311
52644W        W21038  10.737  13.894   3.418
52645W        W21039  39.499  19.908   2.197
52646W        W21040  17.740  23.534  10.756
52647W        W21041  36.619  24.751   1.137
52648W        W21042  27.130   1.442  10.607
52649W        W21043   6.217   6.119   0.171
52650W        W21044  34.408  21.034  13.449
52651W        W21045  24.484  34.967  10.484
52652W        W21046  36.459   4.152   1.746
52653W        W21047  34.560   5.178  12.585
52654W        W21048   9.302  37.631  12.495
52655W        W21049  43.334   9.690   1.230
52656W        W21050   8.822   3.015   1.138
52657W        W21051  10.400  32.024   4.568
52658W        W21052  38.037  26.661  14.817
52659W        W21053  30.247   1.639   4.561
52660W        W21054   1.338  15.597   3.137
52661W        W21055  40.473  43.339   1.758
52662W        W21056  29.178  38.973   3.768
52663W        W21057   3.461  14.124  12.571
52664W        W21058  19.721  39.332   4.724
52665W        W21059  17.227   8.300  11.592
52666W        W21060  39.648  10.279   0.798
52667W        W21061  11.600  33.438  14.437
52668W        W21062  35.920   7.828  10.835
52669W        W21063  14.888  16.437   4.296
52670W        W21064  19.919  23.567   2.673
52671W        W21065  39.351   5.146   0.346
52672W        W21066   1.073  27.232   3.006
52673W        W21067  34.372   2.437  12.436
52674W        W21068  43.390  10.196  10.235
52675W        W21069   5.844   5.121  12.353
52676W        W21070   2.826  20.061   0.694
52677W        W21071  20.527  44.909  12.106
52678W        W21072  38.962   3.754   0.030
52679W        W21073  11.808  37.132  14.253
52680W        W21074  29.541  12.757   2.126
52681W        W21075   2.255  43.292   0.378
52682W        W21076  16.112  15.779   2.002
52683W        W21077  28.989  39.980   3.716
52684W        W21078   3.130  24.576   4.168
52685W        W21079  12.926  19.717   3.683
52686W        W21080  29.557  33.069   4.970
52687W        W21081  18.659   7.656  10.862
52688W        W21082  35.440  43.428   1.291
52689W        W21083  39.032  17.600   0.520
52690W        W21084   4.021  38.882  14.295
52691W        W21085  23.432  19.703  14.469
52692W        W21086  11.490  13.235  10.721
52693W        W21087  33.397   9.336   0.770
52694W        W21088  41.468  21.978   5.002
52695W        W21089  14.900  15.173  13.801
52696W        W21090   6.942  11.338  11.547
52697W        W21091  14.480  18.006   1.417
52698W        W21092  43.471  40.756  14.415
52699W        W21093  20.042  18.647  12.935
52700W        W21094  27.555  30.400   3.830
52701W        W21095  13.288  30.573  13.179
52702W        W21096  40.534  19.246  13.485
52703W        W21097  16.367  16.644  13.968
52704W        W21098  30.168  27.165   4.092
52705W        W21099   4.926  26.714  11.529
52706W        W21100  27.591  40.059   1.479
52707W        W21101  24.136   8.866  14.950
52708W        W21102  37.369  27.683   1.830
52709W        W21103  39.934  25.777  13.968
52710W        W21104  18.046  21.247  14.059
52711W        W21105  36.154  42.581   4.283
52712W        W21106  32.134   3.916   0.525
52713W        W21107  38.957  24.489   4.948
52714W        W21108  44.524  31.911   5.001
52715W        W21109  11.185  33.660   4.210
52716W        W21110  19.205   9.725  11.652
52717W        W21111  23.201   8.423  14.382
52718W        W21112   9.657  13.628  13.863
52719W        W21113   5.397  37.307   1.682
52720W        W21114   2.294   6.303   1.678
52721W        W21115  43.876  10.126  10.023
52722W        W21116   6.375  20.780  12.462
52723W        W21117  22.658  31.323   1.940
52724W        W21118  34.107  18.824   0.471
52725W        W21119   3.384   6.000  13.400
52726W        W21120  24.613  19.162   0.746
52727W        W21121  41.466  18.757  12.072
52728W        W21122  30.463  43.505  11.288
52729W        W21123  10.834  14.207   3.804
52730W        W21124  14.591  26.113  12.429
52731W        W21125  12.616  37.826  12.969
52732W        W21126  34.967  34.936   1.848
52733W        W21127  28.333  23.307  11.364
52734W        W21128  20.488  37.447   0.811
52735W        W21129  34.602  22.162  12.135
52736W        W21130  36.500  41.026  14.363
52737W        W21131  26.913  41.364  14.321
52738W        W21132  36.642  33.055   0.548
52739W        W21133  16.182  38.842   2.176
52740W        W21134  43.345  28.745   0.878
52741W        W21135  27.392  18.531  13.894
52742W        W21136  41.993   3.858  14.576
52743W        W21137  41.322  29.445  11.986
52744W        W21138  33.552  16.300   3.423
52745W        W21139  36.319  40.565  14.511
52746W        W21140   0.603  13.081  10.951
52747W        W21141  11.541  43.098  11.664
52748W        W21142  28.940  39.573   4.036
52749W        W21143  34.336  37.566  11.565
52750W        W21144  26.580  33.609   4.482
52751W        W21145  40.148  16.555  11.044
52752W        W21146  21.962  32.455  14.391
52753W        W21147  39.909  22.480  10.709
52754W        W21148  42.062  25.617  11.686
52755W        W21149  29.233  15.889  12.494
52756W        W21150   2.470   6.674   4.398
52757W        W21151  24.056  23.695  12.717
52758W        W21152  19.048  29.886   4.079
52759W        W21153  41.456   2.494   2.157
52760W        W21154   5.936  25.100  12.020
52761W        W21155   8.257   1.469   1.796
52762W        W21156  17.814  28.362  12.970
52763W        W21157   1.319   4.327  14.069
52764W        W21158  16.443  17.562  13.501
52765W        W21159  21.597  10.332   4.230
52766W        W21160   5.298   3.218  14.969
52767W        W21161   0.018  12.214  13.889
52768W        W21162  30.600  26.198   0.438
52769W        W21163  39.063  17.933  13.026
52770W        W21164  39.120   9.119  13.244
52771W        W21165  24.610  30.227  14.596
52772W        W21166  39.084  10.936   3.601
52773W        W21167  44.780   8.405  14.327
52774W        W21168  12.994  33.668   0.529
52775W        W21169  37.769   6.691  11.720
52776W        W21170   1.752  28.183   0.349
52777W        W21171  43.843  37.879  13.023
52778W        W21172  18.312  32.920   0.593
52779W        W21173   0.798  29.967  14.795
52780W        W21174   2.935  29.890  13.611
52781W        W21175   6.074  31.206  14.819
52782W        W21176  40.564  42.021  10.905
52783W        W21177   2.419  19.295   3.772
52784W        W21178  17.759   3.762   2.800
52785W        W21179  31.171  36.998   0.256
52786W        W21180   1.310   3.669  10.956
52787W        W21181  28.530   7.741   2.234
52788W        W21182  13.763  38.429  13.036
52789W        W21183  14.439  29.224   4.162
52790W        W21184   4.207   4.412   9.731
52791W        W21185  44.426  29.166  11.126
52792W        W21186  18.736  19.414  11.976
52793W        W21187   0.677   4.928   4.843
52794W        W21188  14.647  31.932   2.642
52795W        W21189   9.387  16.889   3.627
52796W        W21190  17.570  44.260   1.071
52797W        W21191  37.598  23.733   2.345
52798W        W21192  18.048  24.533   3.874
52799W        W21193  23.751  10.021  11.986
52800W        W21194  16.086  22.447  11.892
52801W        W21195  34.518  16.525  11.025
52802W        W21196  35.803  30.470   3.006
52803W        W21197  10.856  31.521  11.700
52804W        W21198  40.260  20.233   2.381
52805W        W21199  14.653  11.718   0.362
52806W        W21200  24.526   1.895  12.162
52807W        W21201  37.961  39.311   0.970
52808W        W21202  28.166   0.925  12.473
52809W        W21203  16.279  38.067   2.911
52810W        W21204  40.553  42.329   4.375
52811W        W21205  22.001  34.589  12.125
52812W        W21206  37.978  33.628   1.397
52813W        W21207  20.683  10.609   4.461
52814W        W21208  33.376  31.662   2.308
52815W        W21209  16.320  20.910  11.962
52816W        W21210  38.144   9.838   4.472
52817W        W21211  30.626   1.474  11.102
52818W        W21212   8.213   5.648  12.972
52819W        W21213  25.527  28.986  10.742
52820W        W21214  31.906  42.765   5.129
52821W        W21215   7.752  30.776   0.291
52822W        W21216   5.221  21.274  13.876
52823W        W21217  13.804  42.799   1.904
52824W        W21218  43.546  17.041  12.403
52825W        W21219  15.723   1.691  10.867
52826W        W21220  26.518  15.586  14.078
52827W        W21221   3.475  21.619   1.727
52828W        W21222  24.142  40.811   2.358
52829W        W21223   0.452   2.760  11.096
52830W        W21224  30.758  26.790   1.445
52831W        W21225  27.366  30.594   0.251
52832W        W21226  26.967   0.708   2.778
52833W        W21227  43.742  44.406  14.405
52834W        W21228   2.507  29.892   0.384
52835W        W21229  30.690  25.638   3.805
52836W        W21230  43.850  41.343   1.421
52837W        W21231  15.719  21.270  10.274
52838W        W21232  38.821   2.816   4.064
52839W        W21233  38.540  13.599  13.956
52840W        W21234  24.496   5.411   3.353
52841W        W21235  22.084  31.066   0.288
52842W        W21236  42.512  18.347   1.269
52843W        W21237  28.042   2.730  13.485
52844W        W21238   5.904  40.852   4.764
52845W        W21239  21.538  26.519  10.906
52846W        W21240   3.469  12.905  14.777
52847W        W21241   9.184  42.807   4.879
52848W        W21242   0.516  34.429  10.712
52849W        W21243   1.780  27.317  13.189
52850W        W21244   7.288   5.375   3.675
52851W        W21245  10.287  17.726   0.223
52852W        W21246  27.519  44.799   1.670
52853W        W21247  18.565   5.782   0.778
52854W        W21248  15.673  14.943  13.110
52855W        W21249  13.244   7.006  13.807
52856W        W21250  27.957   9.890  13.547
52857W        W21251  24.336   2.836  11.971
52858W        W21252   8.223  11.187  14.944
52859W        W21253  39.453   5.780   1.449
52860W        W21254   2.799  39.388   3.342
52861W        W21255  36.010  30.856   1.099
52862W        W21256  39.028  35.858   0.732
52863W        W21257  40.269  43.048   1.365
52864W        W21258  13.358  30.609   0.398
52865W        W21259  35.880  39.334  11.560
52866W        W21260  37.873  10.469  12.497
52867W        W21261  16.036  27.684  14.792
52868W        W21262  44.765  22.561   3.292
52869W        W21263  24.450  20.281  13.944
52870W        W21264   4.327  21.227   2.057
52871W        W21265  28.172  26.534   0.448
52872W        W21266  13.498  27.253  11.912
52873W        W21267  37.062  23.457  14.322
52874W        W21268   3.189  25.890   3.748
52875W        W21269   4.255  26.636  12.549
52876W        W21270  15.181  30.104  14.014
52877W        W21271   3.809  41.988   3.531
52878W        W21272  23.250  37.466  14.925
52879W        W21273  36.080  30.476  14.932
52880W        W21274  31.191  32.079  13.873
52881W        W21275   8.327  24.721   1.416
52882W        W21276  28.683  15.693  11.640
52883W        W21277   7.084   3.365   1.431
52884W        W21278  31.881  10.847  11.604
52885W        W21279   4.497  24.143  12.606
52886W        W21280  42.866  19.997  12.632
52887W        W21281  20.998  32.840   0.515
52888W        W21282   4.288   1.504  13.817
52889W        W21283  44.486  16.895   4.691
52890W        W21284  35.143  38.525  11.881
52891W        W21285  26.031  41.239  10.217
52892W        W21286  27.617  16.906  14.700
52893W        W21287  43.541   3.790  11.000
52894W        W21288  18.162  25.740  14.959
52895W        W21289   2.349  10.617  12.590
52896W        W21290  40.534  28.897   3.810
52897W        W21291   4.760  34.012   2.368
52898W        W21292  36.473  32.195   1.765
52899W        W21293  41.540  15.372  13.815
52900W        W21294  23.644  28.796   0.340
52901W        W21295   4.991  23.002  13.800
52902W        W21296  23.731   4.955  12.123
52903W        W21297  28.200  35.021  13.009
52904W        W21298  42.975   3.098   4.077
52905W        W21299   7.722  16.557  13.568
52906W        W21300  26.215  10.232  11.277
52907W        W21301  21.709  42.871   4.247
52908W        W21302   2.797   0.948  13.920
52909W        W21303  13.167  30.968  12.721
52910W        W21304  37.732   4.752   2.003
52911W        W21305  36.844   1.398  13.577
52912W        W21306   0.438  38.470   4.145
52913W        W21307  17.548   7.423   3.601
52914W        W21308  30.666   8.757   2.329
52915W        W21309   5.283  40.299  10.401
52916W        W21310  29.661  37.416  10.335
52917W        W21311   4.645  11.593  14.451
52918W        W21312  39.960  12.232   1.517
52919W        W21313  33.071   4.918   1.626
52920W        W21314  26.787  31.390  14.305
52921W        W21315  41.248  15.312  11.096
52922W        W21316   9.134  29.441  10.267
52923W        W21317  16.735  44.510   0.696
52924W        W21318  23.134  31.860  13.865
52925W        W21319   6.208  13.102  14.404
52926W        W21320  35.513  27.304   3.398
52927W        W21321  17.234  35.228   0.924
52928W        W21322  34.328  14.477   2.957
52929W        W21323  26.646  44.431   2.378
52930W        W21324  15.793  11.415   0.511
52931W        W21325  19.896   1.176  10.771
52932W        W21326  36.662  35.636   1.627
52933W        W21327  37.248  26.344   3.182
52934W        W21328  27.786  37.993   0.397
52935W        W21329  29.279  38.298  12.520
52936W        W21330   6.893  39.986   1.354
52937W        W21331   8.725  13.056   3.542
52938W        W21332  27.462  24.022   1.754
52939W        W21333  33.938  33.386   0.857
52940W        W21334  17.050   5.254   0.383
52941W        W21335  34.486   2.392   2.763
52942W        W21336   0.409  32.020   4.902
52943W        W21337   9.676  15.508  12.537
52944W        W21338   3.369  28.525  14.513
52945W        W21339  36.139   0.908   3.304
52946W        W21340  44.288  26.029   0.283
52947W        W21341   3.496  34.467   2.370
52948W        W21342  18.686  41.996  12.381
52949W        W21343  31.204  32.516   2.381
52950W        W21344  43.775  15.911  11.121
52951W        W21345  32.990  12.558  13.441
52952W        W21346  24.403  15.494   2.308
52953W        W21347   2.682  44.470  12.437
52954W        W21348  21.248  26.948  11.425
52955W        W21349  14.535  31.999   1.203
52956W        W21350  18.626  20.488   4.578
52957W        W21351   9.887  20.360   3.587
52958W        W21352  26.453   1.066   2.794
52959W        W21353   9.214  43.567   1.906
52960W        W21354  40.037  28.906   4.059
52961W        W21355  27.751   6.904  14.038
52962W        W21356  18.082  19.220   0.706
52963W        W21357  16.761   8.023  12.063
52964W        W21358  44.278  31.505   4.811
52965W        W21359   1.025  26.600   0.459
52966W        W21360  26.718  31.492  11.628
52967W        W21361  12.768   5.147   3.275
52968W        W21362  33.195   2.322   2.219
52969W        W21363  29.411  29.937   2.276
52970W        W21364   7.395  13.868  13.956
52971W        W21365  14.657  13.875   3.216
52972W        W21366  18.666   6.572  11.937
52973W        W21367  21.662   2.224   3.264
52974W        W21368  41.441  27.093   1.776
52975W        W21369   8.276  22.411  11.591
52976W        W21370  31.402   0.731  13.538
52977W        W21371   2.029   4.189   1.508
52978W        W21372  32.080  35.126  12.360
52979W        W21373  29.148   8.760   4.753
52980W        W21374  20.772  31.665  13.845
52981W        W21375   2.925  41.973   5.244
52982W        W21376   6.255  40.972  12.924
52983W        W21377  41.425  25.148   3.662
52984W        W21378  22.038  21.691   3.257
52985W        W21379  26.617  12.710   0.076
52986W        W21380   1.923  41.343  11.118
52987W        W21381  32.599  10.847  13.806
52988W        W21382  23.799  11.249   0.778
52989W        W21383  42.443  27.644   1.222
52990W        W21384  33.322  15.531   3.716
52991W        W21385  44.002  39.040  11.559
52992W        W21386  22.552  34.002   4.550
52993W        W21387  42.306  20.198  14.523
52994W        W21388  17.759   0.335   4.168
52995W        W21389  23.031  25.781  10.623
52996W        W21390  12.898  39.795   3.261
52997W        W21391  22.659  20.634   1.310
52998W        W21392  16.071  18.940  10.722
52999W        W21393  37.981  23.220  11.881
53000W        W21394  12.420   0.317   0.541
53001W        W21395  32.978  18.194  11.226
53002W        W21396  35.281  43.752  13.462
53003W        W21397  23.145  29.738   1.392
53004W        W21398  36.142  33.377   2.991
53005W        W21399  24.251  33.380   4.077
53006W        W21400  18.231   8.021  12.967
53007W        W21401  29.363  34.125   0.777
53008W        W21402  21.753  30.495   3.340
53009W        W21403  31.613   4.883   0.361
53010W        W21404   6.854  27.728   4.749
53011W        W21405  32.077  43.114   3.838
53012W        W21406  32.651  28.915   0.724
53013W        W21407   0.924   0.415   3.222
53014W        W21408  32.158  32.525   2.772
53015W        W21409   3.373  39.115  11.082
53016W        W21410  15.141   5.819   2.848
53017W        W21411  40.779  20.229   2.734
53018W        W21412  31.137   6.167  10.616
53019W        W21413   7.882  19.756   4.749
53020W        W21414   0.890   0.280   4.195
53021W        W21415  26.011  32.409  14.107
53022W        W21416  35.917  13.842   3.296
53023W        W21417  40.851  37.402  14.969
53024W        W21418  29.849  39.559  11.192
53025W        W21419  36.326  13.676  12.930
53026W        W21420   1.398  30.257  10.595
53027W        W21421  18.305  22.268   0.002
53028W        W21422  31.724  27.476  14.519
53029W        W21423  13.078   9.046  11.525
53030W        W21424   4.836   6.655   0.059
53031W        W21425  38.612  26.006  11.558
53032W        W21426  16.301  21.106  12.837
53033W        W21427  20.955   0.963  12.421
53034W        W21428  29.665  11.594   2.766
53035W        W21429   6.956  36.003   0.927
53036W        W21430  39.274  27.910   4.159
53037W        W21431  39.493  40.244  13.935
53038W        W21432  44.774  37.842  14.067
53039W        W21433  43.436  11.590   9.891
53040W        W21434  33.670  19.775   1.583
53041W        W21435  31.054  39.457  14.329
53042W        W21436  37.763  11.304  12.716
53043W        W21437  23.428  16.740  14.784
53044W        W21438  38.485  10.159  13.534
53045W        W21439  38.294  18.014  12.147
53046W        W21440  27.171  21.982  14.845
53047W        W21441  38.594  14.812   2.916
53048W        W21442  41.597  13.353  10.647
53049W        W21443  14.488  13.284  12.178
53050W        W21444  27.398  17.982  12.997
53051W        W21445  15.348   9.657  10.873
53052W        W21446  21.582  15.154   3.756
53053W        W21447  44.589   4.201  13.770
53054W        W21448   8.864  20.837   5.007
53055W        W21449  11.911   9.142  13.448
53056W        W21450  35.135  19.151   4.573
53057W        W21451   9.893  12.832  14.509
53058W        W21452  42.283  28.708   3.804
53059W        W21453  44.812  38.079   0.380
53060W        W21454  11.085  37.401  14.561
53061W        W21455  15.737   9.272  13.082
53062W        W21456  18.673  43.460  11.933
53063W        W21457  24.166  24.058   4.946
53064W        W21458  17.816  21.258   2.328
53065W        W21459   9.692   1.966  11.101
53066W        W21460  41.452  30.404   1.744
53067W        W21461  38.412  30.122   3.642
53068W        W21462  30.459  10.713   2.306
53069W        W21463   4.788  11.561  10.745
53070W        W21464  39.469  40.786  12.403
53071W        W21465  40.738  12.243   3.271
53072W        W21466  30.600  18.635   4.587
53073W        W21467  22.600  32.064   2.705
53074W        W21468  39.074   1.949   3.476
53075W        W21469  24.309  39.755  12.394
53076W        W21470  17.578  10.896  14.910
53077W        W21471  23.618  17.892  11.465
53078W        W21472   4.896  23.663   2.914
53079W        W21473  32.630   9.171   3.169
53080W        W21474  11.319  17.366  12.936
53081W        W21475  36.848  43.417   4.072
53082W        W21476  13.272  34.450  12.645
53083W        W21477  43.392  32.367   1.093
53084W        W21478  10.163  14.052  11.686
53085W        W21479  38.997  13.159   4.736
53086W        W21480  36.918   2.302  10.366
53087W        W21481  34.847  16.131  13.371
53088W        W21482  42.534  28.899  14.695
53089W        W21483  10.555   4.428   0.908
53090W        W21484   5.568  39.768  11.229
53091W        W21485  43.487  11.791   0.424
53092W        W21486  32.496   3.659   2.449
53093W        W21487   6.832   6.691   2.124
53094W        W21488  40.164  16.187  13.028
53095W        W21489  22.277  17.599   2.917
53096W        W21490  42.091  33.849   1.944
53097W        W21491  27.383  23.182   0.905
53098W        W21492   1.908   8.613  14.059
53099W        W21493  42.216  29.443  10.900
53100W        W21494  42.935  26.104   2.890
53101W        W21495  12.322  34.830  12.418
53102W        W21496  31.464   5.203  13.846
53103W        W21497  43.464  31.527  13.596
53104W        W21498  19.715  26.535   4.132
53105W        W21499  19.165  41.271   3.593
53106W        W21500  14.828  14.491   9.881
53107W        W21501  24.264  23.059  13.890
53108W        W21502   4.376  38.855   2.639
53109W        W21503   7.414  31.244  12.535
53110W        W21504  24.068  10.653  14.753
53111W        W21505  21.671  22.707  14.996
53112W        W21506   3.108  38.445   3.209
53113W        W21507   2.428  44.423  14.853
53114W        W21508  19.639  39.243   1.318
53115W        W21509  21.983  19.193   0.881
53116W        W21510  39.078  34.374  12.927
53117W        W21511  39.737  42.228  11.143
53118W        W21512  34.868  15.279   4.844
53119W        W21513  27.881  28.148  14.975
53120W        W21514  25.984  25.590   0.781
53121W        W21515  19.556  35.933   3.214
53122W        W21516  31.502  21.382  13.491
53123W        W21517  12.688  13.139   2.685
53124W        W21518  26.084   4.624   0.320
53125W        W21519   8.931  38.056  14.232
53126W        W21520  10.597  37.343  11.701
53127W        W21521  39.803   7.179   2.696
53128W        W21522   3.809  37.018  14.907
53129W        W21523   3.633  37.091  10.786
53130W        W21524  22.650   0.935   1.873
53131W        W21525  29.161  25.759  12.972
53132W        W21526  43.795  26.172  13.428
53133W        W21527  44.020  27.340  12.718
53134W        W21528   6.941  32.832  11.162
53135W        W21529   0.739   3.899  11.576
53136W        W21530  33.198  13.255   1.369
53137W        W21531  35.424  13.910   0.408
53138W        W21532  39.524  43.494   2.901
53139W        W21533  40.509   9.914   1.732
53140W        W21534   8.701  15.287  13.087
53141W        W21535   9.613  32.228   4.146
53142W        W21536   1.770  18.331  13.307
53143W        W21537  26.554  38.932   3.656
53144W        W21538  24.770  17.568   2.417
53145W        W21539  38.481  38.415  11.090
53146W        W21540  41.714   6.225   4.102
53147W        W21541  13.978   7.846   2.320
53148W        W21542  41.228   3.878   2.413
53149W        W21543  12.215  30.388  14.056
53150W        W21544  33.572  32.094  10.504
53151W        W21545  19.789  35.163   0.904
53152W        W21546  20.601  43.479  13.472
53153W        W21547   7.169  33.534   1.297
53154W        W21548  25.930   6.141  13.283
53155W        W21549  19.173   4.411   4.333
53156W        W21550  14.851  15.932   4.241
53157W        W21551   9.168  18.046  11.974
53158W        W21552  34.011  16.248   3.700
53159W        W21553  41.577  23.056   2.929
53160W        W21554  11.679  10.675  11.048
53161W        W21555   5.009   9.701   2.381
53162W        W21556  34.563  36.899  14.408
53163W        W21557  40.421  15.097   3.551
53164W        W21558  11.096  18.727  14.610
53165W        W21559  20.035  35.384  10.654
53166W        W21560  29.040  36.023   3.399
53167W        W21561  35.661  41.291  14.489
53168W        W21562  36.980  31.606   3.936
53169W        W21563  39.177  40.693  11.946
53170W        W21564   9.249  32.573   2.739
53171W        W21565  26.631  19.067  11.644
53172W        W21566  13.157   8.195   5.066
53173W        W21567  10.087  20.104   3.994
53174W        W21568  17.090  14.156  12.069
53175W        W21569  20.105  38.501   3.639
53176W        W21570  40.860  35.350  14.705
53177W        W21571   2.292   9.893   1.717
53178W        W21572  18.326  40.402  12.381
53179W        W21573  43.277  10.213   2.760
53180W        W21574  14.910   4.262   2.162
53181W        W21575   6.504  26.838  11.101
53182W        W21576  43.432  34.800  12.517
53183W        W21577  21.144  35.228   4.826
53184W        W21578  22.735  12.738  12.801
53185W        W21579  15.844  19.464   3.228
53186W        W21580  42.680  42.153   1.777
53187W        W21581  43.946  38.537  12.466
53188W        W21582  27.083  34.442  12.730
53189W        W21583  12.339   7.756   0.328
53190W        W21584  23.549  29.031  10.503
53191W        W21585   1.275  30.712   1.723
53192W        W21586  10.650  29.081  14.409
53193W        W21587   1.960  31.369  11.904
53194W        W21588  25.270  44.166  14.910
53195W        W21589  24.064  29.518   5.125
53196W        W21590  24.013   4.149  13.462
53197W        W21591  25.453  35.347   2.849
53198W        W21592   2.009  35.530  14.115
53199W        W21593   9.259  44.574   3.340
53200W        W21594  16.074  17.023   2.301
53201W        W21595  23.663  19.549  12.822
53202W        W21596  14.592  25.695   2.468
53203W        W21597   3.276  33.914  11.049
53204W        W21598  20.165  12.411   3.666
53205W        W21599  44.092  30.938  12.023
53206W        W21600  40.418  33.070  11.514
53207W        W21601  38.111  23.773   2.380
53208W        W21602  20.030  42.684  10.804
53209W        W21603  37.161   6.999   3.455
53210W        W21604  38.895  37.601   1.901
53211W        W21605  10.738  28.608   3.660
53212W        W21606   6.078  13.578  10.048
53213W        W21607  43.666  30.867  14.390
53214W        W21608  10.648  22.458   2.739
53215W        W21609   0.019  33.217   1.817
53216W        W21610  21.846   8.999   4.756
53217W        W21611  10.430  17.757   3.591
53218W        W21612  19.469  35.550   2.098
53219W        W21613   6.660  29.618  12.251
53220W        W21614  32.900  36.894  11.096
53221W        W21615  21.028  12.017  14.309
53222W        W21616  42.861   4.101  13.471
53223W        W21617  17.697  23.451   1.238
53224W        W21618  44.716  21.616   2.606
53225W        W21619  40.325   9.545  12.173
53226W        W21620   2.116  26.501  11.135
53227W        W21621  42.053  40.350  12.017
53228W        W21622  26.098   4.675   1.167
53229W        W21623  30.886  43.633  13.526
53230W        W21624  14.167  10.317  12.100
53231W        W21625  29.613  42.388  10.614
53232W        W21626   9.930  32.189  14.914
53233W        W21627  22.066   7.415  14.310
53234W        W21628  21.536   4.998  12.699
53235W        W21629  41.723  40.732   0.013
53236W        W21630  34.298  27.877  13.376
53237W        W21631  12.432  37.891   1.030
53238W        W21632  24.690  21.458   2.860
53239W        W21633  34.821  19.873  12.640
53240W        W21634  26.523  12.172  14.258
53241W        W21635  31.519   4.197   4.748
53242W        W21636  25.084  12.773   1.857
53243W        W21637   3.111  25.539  13.713
53244W        W21638   2.951  37.004   4.966
53245W        W21639  14.167  42.822  14.633
53246W        W21640  32.016  34.132  11.237
53247W        W21641   6.205  33.426  11.164
53248W        W21642  40.763  42.392  11.981
53249W        W21643  14.058  34.704   0.346
53250W        W21644  25.660   4.028   4.253
53251W        W21645  12.087  19.772   4.267
53252W        W21646  32.473  42.872  12.774
53253W        W21647   7.369  19.033   1.280
53254W        W21648  26.676  16.759  12.459
53255W        W21649   2.696  24.590   3.905
53256W        W21650  42.646  42.821   2.606
53257W        W21651  21.534  31.439  11.284
53258W        W21652  40.424  23.527  13.431
53259W        W21653  40.439   8.972   1.212
53260W        W21654  18.570  37.239  13.339
53261W        W21655  20.626  14.701   4.093
53262W        W21656   5.817  22.780   1.659
53263W        W21657  43.313  33.691   0.313
53264W        W21658   5.982  43.726  14.438
53265W        W21659  14.256   4.981  11.124
53266W        W21660  43.788   7.600  13.062
53267W        W21661  22.073  22.785   4.030
53268W        W21662  19.311  29.783  14.863
53269W        W21663  17.812  36.814  10.431
53270W        W21664  29.870  26.079   4.917
53271W        W21665   6.845  23.082   5.128
53272W        W21666   9.235  28.188   4.693
53273W        W21667   0.325  29.894  12.988
53274W        W21668  32.923  17.038  13.078
53275W        W21669  18.842  16.358  12.586
53276W        W21670  23.276  19.590   2.209
53277W        W21671  19.548  35.130   1.815
53278W        W21672  43.017  43.900  14.786
53279W        W21673  26.390  16.503  11.497
53280W        W21674  42.802  27.008  10.666
53281W        W21675  13.279  31.590   1.422
53282W        W21676  13.163  15.267  14.428
53283W        W21677  23.051  24.134  11.903
53284W        W21678   2.468   7.344   0.469
53285W        W21679  32.106  43.567  10.830
53286W        W21680   6.530   2.319   2.794
53287W        W21681  25.369   3.215   0.549
53288W        W21682   3.375  31.552   1.055
53289W        W21683  29.416  38.566   2.442
53290W        W21684   7.596  10.078   5.003
53291W        W21685  22.293   5.395  12.516
53292W        W21686  30.751  19.092  13.576
53293W        W21687  28.990  41.005   2.900
53294W        W21688  18.559  26.671  14.032
53295W        W21689  24.540  10.185   4.218
53296W        W21690   7.792  40.910   1.731
53297W        W21691  38.912   4.288  11.140
53298W        W21692  29.165  36.992  10.767
53299W        W21693   0.382  15.569  11.532
53300W        W21694  35.494  17.260   4.848
53301W        W21695   0.610  30.157  12.400
53302W        W21696   6.808   2.862   1.966
53303W        W21697  22.759  19.946   4.144
53304W        W21698  29.231  14.403  13.037
53305W        W21699  33.464  27.613  13.797
53306W        W21700  26.846   1.144  14.801
53307W        W21701  24.889  38.575   4.703
53308W        W21702  42.314  34.540   4.407
53309W        W21703  12.615   8.892  12.095
53310W        W21704   4.033  22.274  12.949
53311W        W21705  20.655  15.205  12.206
53312W        W21706  43.442  23.146  12.179
53313W        W21707  28.989   2.800   4.559
53314W        W21708   5.766  19.234   4.403
53315W        W21709  34.762  25.577  14.121
53316W        W21710  11.667  38.421   4.642
53317W        W21711  43.473  18.349  12.925
53318W        W21712  33.960   8.665   2.778
53319W        W21713  33.844   2.316  11.562
53320W        W21714   1.438   6.150  14.328
53321W        W21715  24.602   3.984  14.009
53322W        W21716  35.350  29.935  12.429
53323W        W21717  35.033  44.780   4.779
53324W        W21718  22.764   8.846  10.177
53325W        W21719  44.172   1.654   1.284
53326W        W21720  22.274  23.160   3.710
53327W        W21721   5.818  36.502   3.405
53328W        W21722  16.814  33.369   1.659
53329W        W21723  26.608   1.216  13.795
53330W        W21724  29.989  43.180   4.286
53331W        W21725  42.167  25.379   3.287
53332W        W21726   6.658  22.180   4.123
53333W        W21727  18.685  37.256  11.886
53334W        W21728   4.553  31.369   4.082
53335W        W21729  23.334   5.321  11.854
53336W        W21730  20.112  25.036   1.373
53337W        W21731  18.550   7.791   2.204
53338W        W21732  21.965  33.031   0.387
53339W        W21733  22.233  28.729   4.552
53340W        W21734  42.349  23.393   4.880
53341W        W21735  26.767   7.648   0.924
53342W        W21736   3.899   5.541   0.945
53343W        W21737  35.179  17.773  13.878
53344W        W21738  38.680   3.021  12.751
53345W        W21739  35.492  42.342  11.937
53346W        W21740  17.216   1.244  12.805
53347W        W21741   1.437  42.352   3.117
53348W        W21742  16.915  31.028  10.704
53349W        W21743   6.872  38.316   2.243
53350W        W21744  24.177  36.802   4.538
53351W        W21745  12.722  26.505  11.122
53352W        W21746  34.593  27.441  13.388
53353W        W21747  29.003  16.519   2.721
53354W        W21748   8.291  21.875  10.794
53355W        W21749   5.961  13.251  11.223
53356W        W21750  13.127  33.085  12.935
53357W        W21751  43.836  35.448   0.615
53358W        W21752  13.029  33.606  12.978
53359W        W21753  40.987  36.988  11.940
53360W        W21754  10.680  40.438  13.314
53361W        W21755  23.125  33.097  13.310
53362W        W21756  42.138   5.122   4.958
53363W        W21757   8.718  38.018   4.580
53364W        W21758   7.630  32.081   2.098
53365W        W21759  44.234  44.796   3.589
53366W        W21760   5.199  29.308  11.865
53367W        W21761  12.576  12.336  13.371
53368W        W21762  38.514  27.743   1.280
53369W        W21763  26.561  38.810  12.469
53370W        W21764  32.383   8.165   1.291
53371W        W21765  11.777   3.215  10.011
53372W        W21766  15.744  29.131   4.595
53373W        W21767  13.249   0.854  11.485
53374W        W21768   3.462  37.143  13.624
53375W        W21769  16.982  10.056   3.317
53376W        W21770  10.380   6.447   0.895
53377W        W21771  21.912  14.866  12.439
53378W        W21772  24.088  36.250  11.201
53379W        W21773  22.012  29.159   4.710
53380W        W21774  43.675   4.414   4.788
53381W        W21775   8.648   0.734  10.630
53382W        W21776  29.371  13.339   4.250
53383W        W21777   4.145  31.469   2.188
53384W        W21778  22.161   7.465  13.256
53385W        W21779  14.869   4.805   1.241
53386W        W21780  22.310   2.952   4.253
53387W        W21781  14.202  42.247  13.923
53388W        W21782  10.850  43.970   3.726
53389W        W21783  32.448  15.146   0.746
53390W        W21784  42.890   9.302  12.580
53391W        W21785  22.151  20.670   4.163
53392W        W21786  37.921  13.130  12.655
53393W        W21787  13.582   0.585  14.417
53394W        W21788  43.739   0.016  11.872
53395W        W21789  34.156  42.845  13.435
53396W        W21790  41.279  24.594   2.472
53397W        W21791  33.325  28.475   0.390
53398W        W21792  35.150  18.862  12.664
53399W        W21793  35.550   7.839   4.874
53400W        W21794  42.934  40.676  11.587
53401W        W21795  11.281  11.567  14.776
53402W        W21796  35.282  36.582   1.746
53403W        W21797  17.320  14.335   0.382
53404W        W21798  17.783   6.365   3.509
53405W        W21799  35.899  22.620   1.978
53406W        W21800  22.307  16.073  14.365
53407W        W21801  28.383   2.099   4.357
53408W        W21802  34.114  29.969   2.780
53409W        W21803  12.089  35.902   4.037
53410W        W21804   6.655   6.917  13.845
53411W        W21805   0.858  44.776   0.414
53412W        W21806  40.438  41.285   3.782
53413W        W21807  43.924  10.894   4.624
53414W        W21808  42.862   7.830  11.584
53415W        W21809  40.248  40.076  10.123
53416W        W21810   4.815  15.951  10.729
53417W        W21811  25.556  19.603  12.188
53418W        W21812  35.054  39.518  14.809
53419W        W21813  20.579  18.778  14.046
53420W        W21814   1.236  22.611  14.933
53421W        W21815   5.236   8.661   3.836
53422W        W21816  29.602  12.610   0.186
53423W        W21817  28.477   6.279  12.138
53424W        W21818  26.138   5.122  14.017
53425W        W21819  33.115  40.926   0.658
53426W        W21820  13.713  28.417  12.802
53427W        W21821  19.926   9.157   3.086
53428W        W21822   3.926  37.550   1.755
53429W        W21823   0.897  17.374   4.182
53430W        W21824  21.822  37.173  14.463
53431W        W21825   0.179  18.742   3.851
53432W        W21826  16.947   8.930   1.155
53433W        W21827  26.133  26.737  14.343
53434W        W21828  17.713   7.376  10.291
53435W        W21829  18.558  35.650   3.300
53436W        W21830  22.204  27.376   1.327
53437W        W21831  34.371  38.958  13.363
53438W        W21832  22.082  30.600   2.700
53439W        W21833  17.199   0.604   4.975
53440W        W21834  29.143  40.349   2.293
53441W        W21835  28.508  43.424   0.404
53442W        W21836  42.941  16.206  10.934
53443W        W21837  44.422  28.666   1.267
53444W        W21838  30.463  23.761  11.569
53445W        W21839  44.616   2.336   4.182
53446W        W21840  12.633  18.754  10.705
53447W        W21841  15.727  34.923  13.534
53448W        W21842  12.224  39.593  10.434
53449W        W21843  43.466  15.654  11.455
53450W        W21844   3.753  33.427   0.918
53451W        W21845   0.247  34.912   0.721
53452W        W21846  17.809  34.575   1.034
53453W        W21847   0.269  14.792   0.450
53454W        W21848  30.139  25.023  13.419
53455W        W21849  38.918  12.698  11.201
53456W        W21850  21.012  44.260   3.722
53457W        W21851  20.944   8.575   4.754
53458W        W21852  23.000  25.520   4.916
53459W        W21853   1.936  43.440   4.543
53460W        W21854  20.019  13.943  11.500
53461W        W21855  25.109   3.491   4.031
53462W        W21856  37.896  11.815   2.192
53463W        W21857  10.043   9.902  13.660
53464W        W21858  40.293   5.730   0.954
53465W        W21859  11.433  40.554   1.789
53466W        W21860   0.502  40.003   4.130
53467W        W21861  33.452  31.945   9.992
53468W        W21862  15.614  39.349   0.881
53469W        W21863  37.092  20.527  14.803
53470W        W21864  34.104  20.762  12.104
53471W        W21865  16.648   7.932   3.645
53472W        W21866   5.423  38.535  11.582
53473W        W21867  41.437  39.369   2.464
53474W        W21868  14.469  24.467  14.986
53475W        W21869  17.744  42.474   4.284
53476W        W21870  36.981  24.076   4.712
53477W        W21871   7.919  35.009  10.533
53478W        W21872   9.190   3.763   1.326
53479W        W21873  22.081  36.419   3.859
53480W        W21874  37.583  25.556  11.418
53481W        W21875   4.880  26.099  11.141
53482W        W21876  15.610   1.923   0.730
53483W        W21877   5.946  24.397  11.468
53484W        W21878  15.699  25.297   3.577
53485W        W21879  10.205  16.056   1.272
53486W        W21880  37.491   4.032  13.058
53487W        W21881   2.832  39.421  12.348
53488W        W21882  13.112  18.398   1.583
53489W        W21883  30.369  29.113   2.537
53490W        W21884  39.771  12.900  11.878
53491W        W21885  17.338   9.892   0.361
53492W        W21886  17.588   5.292   0.401
53493W        W21887  33.058  27.089   4.623
53494W        W21888  14.619  12.844   0.088
53495W        W21889  36.366  40.322   3.650
53496W        W21890  37.513  35.321  10.757
53497W        W21891  38.010  15.323  10.669
53498W        W21892  27.163  22.486  11.952
53499W        W21893  42.453  34.835  13.469
53500W        W21894  25.412  43.586  12.139
53501W        W21895  36.129  24.411   1.782
53502W        W21896  42.451   5.034   0.262
53503W        W21897   6.165  33.195   3.265
53504W        W21898  23.080  25.905  12.954
53505W        W21899  40.513  21.192  11.958
53506W        W21900  26.483  12.783   1.075
53507W        W21901  23.746   2.489   4.113
53508W        W21902  32.032  24.821  13.372
53509W        W21903   3.295  39.928   4.765
53510W        W21904  42.591  40.765   4.185
53511W        W21905  28.090  12.241  12.121
53512W        W21906  14.236  40.071  11.004
53513W        W21907  36.224  16.373  14.870
53514W        W21908  36.975  43.283   3.144
53515W        W21909  23.568  20.032   0.806
53516W        W21910   1.738  33.878   1.725
53517W        W21911  41.430  22.266   1.889
53518W        W21912  35.732  34.922   2.751
53519W        W21913  40.753  41.530   0.369
53520W        W21914  28.421   9.678  10.890
53521W        W21915  42.409  43.740   3.620
53522W        W21916   6.942  10.531   0.147
53523W        W21917  37.387  20.791   2.112
53524W        W21918  21.074  18.211   0.900
53525W        W21919  21.066  12.762  12.554
53526W        W21920  33.357  35.124  13.634
53527W        W21921   6.115  25.513  11.502
53528W        W21922   7.837  40.541   1.354
53529W        W21923  41.278  33.863   1.249
53530W        W21924  12.867   5.275  11.892
53531W        W21925   5.873  37.324   1.923
53532W        W21926  22.113  28.774   3.761
53533W        W21927  29.672   8.480   2.284
53534W        W21928  27.648  11.145   4.821
53535W        W21929  31.355  43.313   0.767
53536W        W21930  44.451  31.171  12.654
53537W        W21931  17.749   6.146  12.420
53538W        W21932  17.670  24.979   2.314
53539W        W21933   7.311   3.906  11.881
53540W        W21934  17.525  12.727   4.053
53541W        W21935  35.442  38.896  14.481
53542W        W21936  31.681  12.807   1.502
53543W        W21937   2.558   9.850   5.199
53544W        W21938  38.038  24.169  12.052
53545W        W21939  25.341  12.966   3.436
53546W        W21940   3.880  37.465  13.310
53547W        W21941  44.862  39.873  12.618
53548W        W21942  17.545  37.932  14.010
53549W        W21943  28.999   0.815  10.912
53550W        W21944   7.134  17.123   0.428
53551W        W21945   3.168  21.228   1.897
53552W        W21946  16.088  30.189  14.343
53553W        W21947  15.159  28.662   2.366
53554W        W21948  37.964  23.178  10.864
53555W        W21949  31.106  15.533   4.515
53556W        W21950  28.997  28.555  14.796
53557W        W21951  20.572  19.585  11.871
53558W        W21952  14.883  41.856   4.571
53559W        W21953  26.028  29.537  14.422
53560W        W21954  37.002  20.231   1.605
53561W        W21955  33.514  20.362   4.817
53562W        W21956  10.688  27.010  11.149
53563W        W21957  35.110  17.087  13.454
53564W        W21958  17.972  33.938   0.347
53565W        W21959  30.535  41.446  13.531
53566W        W21960  17.286  36.501   3.078
53567W        W21961  41.839  42.487   4.612
53568W        W21962   5.082  24.543   4.014
53569W        W21963  32.883  20.473   1.232
53570W        W21964  34.643   2.994  13.552
53571W        W21965  24.517  22.338   1.740
53572W        W21966  40.813  33.708  12.023
53573W        W21967  38.582   1.954   0.359
53574W        W21968  40.105  43.756  11.983
53575W        W21969  23.560  24.164  11.995
53576W        W21970   9.605  37.361  14.014
53577W        W21971  18.160  24.500  10.348
53578W        W21972  41.817  18.621   0.225
53579W        W21973   2.741  23.584   1.796
53580W        W21974  17.580   8.720   9.985
53581W        W21975  23.413   2.257  12.940
53582W        W21976  32.579  44.956  13.424
53583W        W21977  33.950  21.630   3.702
53584W        W21978   5.625  15.037  10.936
53585W        W21979  34.389  18.126   0.454
53586W        W21980   0.530  38.427  11.077
53587W        W21981  44.496  27.914  13.938
53588W        W21982  33.945  30.555   2.364
53589W        W21983   2.675   5.176  14.271
53590W        W21984  35.448   6.651   0.379
53591W        W21985  14.067  11.864   1.995
53592W        W21986  43.806  22.750  14.062
53593W        W21987   9.161  26.268   3.575
53594W        W21988  14.106  39.953   4.810
53595W        W21989   8.254  12.880  12.477
53596W        W21990  32.432  19.760   1.890
53597W        W21991  32.906  15.233   2.198
53598W        W21992   3.123  42.341  12.526
53599W        W21993   4.339  25.602   5.714
53600W        W21994  39.566  24.495  13.951
53601W        W21995  27.698  26.193   3.421
53602W        W21996  18.285  21.765   1.706
53603W        W21997   9.334  13.749  12.850
53604W        W21998   3.664  23.474  12.958
53605W        W21999  18.697   5.936   2.599
53606W        W22000   1.214  36.891   2.774
53607W        W22001  25.145   0.293   3.793
53608W        W22002   0.970  38.754  13.053
53609W        W22003  10.417  24.527   1.252
53610W        W22004  21.102   1.640   3.761
53611W        W22005   6.858  24.065   4.043
53612W        W22006  14.412   0.482  11.893
53613W        W22007  18.816   7.612  11.471
53614W        W22008  14.716  21.067  14.387
53615W        W22009  35.972  11.576  11.453
53616W        W22010  10.945  43.954   4.521
53617W        W22011  40.033  21.310  13.550
53618W        W22012  16.993   4.089  12.395
53619W        W22013  33.811   8.666  14.444
53620W        W22014  40.010  24.442   2.703
53621W        W22015   9.098  11.734   2.643
53622W        W22016  30.116  14.140   0.993
53623W        W22017   1.892  10.876   2.204
53624W        W22018  36.548  44.444   4.545
53625W        W22019  12.137  44.260   1.327
53626W        W22020  11.922  37.283   2.106
53627W        W22021  26.380   4.258   1.737
53628W        W22022  21.193  27.491   2.131
53629W        W22023   3.975  36.087   3.308
53630W        W22024  22.902  35.892   1.165
53631W        W22025  24.456   0.788   1.702
53632W        W22026   9.390  13.001  11.524
53633W        W22027  13.590  34.177  12.359
53634W        W22028  35.535  40.587   0.505
53635W        W22029  12.366  12.411   1.569
53636W        W22030   3.030   1.358  14.721
53637W        W22031  42.024  20.490   0.841
53638W        W22032   8.567  30.919  13.542
53639W        W22033  26.461  42.215   4.950
53640W        W22034   3.137  23.182   1.779
53641W        W22035  18.819  42.297   1.802
53642W        W22036  44.927  39.513   4.523
53643W        W22037  17.561  26.977  13.318
53644W        W22038   6.531  17.385   1.873
53645W        W22039  18.708  35.081  14.461
53646W        W22040  33.656  15.197  12.020
53647W        W22041  26.420   7.892  12.216
53648W        W22042  39.575  29.001   4.291
53649W        W22043  20.006  17.507  13.258
53650W        W22044  27.560  36.515  11.563
53651W        W22045  34.915  24.485  11.162
53652W        W22046  40.277   9.963   1.252
53653W        W22047  43.988   2.498  11.181
53654W        W22048  36.060   9.108   0.932
53655W        W22049  25.628   5.701  11.518
53656W        W22050  28.062   8.214  11.527
53657W        W22051  31.553   8.923   1.842
53658W        W22052  43.740  43.941   0.284
53659W        W22053  13.636  11.351  12.937
53660W        W22054   7.624  15.253  11.516
53661W        W22055  13.095   2.778  14.584
53662W        W22056  36.562  36.816   0.862
53663W        W22057   7.260  35.090  12.986
53664W        W22058  32.633  38.068  10.857
53665W        W22059  44.713  13.276   1.387
53666W        W22060  20.691  16.757  10.676
53667W        W22061  27.420  41.463  14.373
53668W        W22062  11.383   2.747  13.040
53669W        W22063   0.316   3.129   0.223
53670W        W22064  30.752  17.448   1.663
53671W        W22065   6.223   7.470  11.847
53672W        W22066  13.766  18.080   2.787
53673W        W22067  27.877  11.427   2.727
53674W        W22068  25.405  28.060  10.801
53675W        W22069  33.000  38.510   2.323
53676W        W22070   0.556  26.098   2.136
53677W        W22071   2.380  24.263  13.983
53678W        W22072  23.020  38.474  13.881
53679W        W22073  11.023  28.711   1.328
53680W        W22074   5.139  33.688   2.266
53681W        W22075  31.597  40.981  14.409
53682W        W22076  34.987  21.734  14.811
53683W        W22077  37.969   2.318   3.816
53684W        W22078  37.512  44.811   3.784
53685W        W22079  15.773  28.495   0.961
53686W        W22080  38.402  42.391  11.045
53687W        W22081  14.741  26.179   4.700
53688W        W22082  35.564  11.738  13.772
53689W        W22083  17.575  31.864  13.042
53690W        W22084  34.158  37.927   1.139
53691W        W22085  37.846  14.497   1.186
53692W        W22086  22.576  22.278   0.883
53693W        W22087   4.876   6.291  12.488
53694W        W22088  38.920  38.264   3.764
53695W        W22089  30.512  40.004   0.906
53696W        W22090  26.477  26.591  12.080
53697W        W22091  41.309  15.829   3.153
53698W        W22092  27.965  26.639  11.902
53699W        W22093  26.049  13.563  10.680
53700W        W22094  12.738   4.801  10.168
53701W        W22095  44.685  16.416   4.695
53702W        W22096  28.030  39.329  12.937
53703W        W22097  32.000   7.867  13.849
53704W        W22098  10.578  23.038   4.258
53705W        W22099   5.976   3.516   3.624
53706W        W22100  19.626  38.352   3.659
53707W        W22101  25.264  35.537   1.377
53708W        W22102   6.769  10.147  13.326
53709W        W22103  22.837   7.401  11.892
53710W        W22104  26.513  12.592   1.561
53711W        W22105   3.871  22.761   3.208
53712W        W22106   8.998   0.273  13.471
53713W        W22107  35.869  26.420  14.437
53714W        W22108  29.586  25.652   1.045
53715W        W22109  23.508  29.676   3.765
53716W        W22110  13.191  43.018   4.761
53717W        W22111  41.938  13.416  11.575
53718W        W22112  38.878  33.300   1.397
53719W        W22113  12.160  23.119   1.402
53720W        W22114   2.306  42.548  12.409
53721W        W22115  38.378  26.204  14.463
53722W        W22116   2.838  16.058   1.375
53723W        W22117  25.641  43.006   2.179
53724W        W22118  12.187  35.933   1.755
53725W        W22119  24.678   3.744   4.578
53726W        W22120  25.844   7.317  10.316
53727W        W22121  37.697   0.468  13.015
53728W        W22122   3.608   4.333   0.503
53729W        W22123   6.162  22.109  14.080
53730W        W22124  28.398  10.040  13.272
53731W        W22125  11.181   9.496  13.767
53732W        W22126  26.098  26.568   2.198
53733W        W22127  29.100  33.593  12.101
53734W        W22128   6.797  20.002   4.584
53735W        W22129   2.910  32.059  12.525
53736W        W22130  17.373  35.730   2.403
53737W        W22131   4.624   9.335   2.848
53738W        W22132  12.190  15.197   1.785
53739W        W22133   3.462  43.386   2.747
53740W        W22134  34.419  37.324  13.170
53741W        W22135  25.920   1.515  14.475
53742W        W22136  19.225  38.019  10.248
53743W        W22137   9.927  20.680  14.297
53744W        W22138   7.110  17.945   1.003
53745W        W22139  41.289  44.332  13.477
53746W        W22140   0.278   0.457   0.400
53747W        W22141  15.812  24.248  12.596
53748W        W22142  38.888  42.510   1.980
53749W        W22143   5.296  18.227  14.525
53750W        W22144  27.732  25.552  13.057
53751W        W22145  26.404  44.803  10.951
53752W        W22146  31.978  17.088  11.980
53753W        W22147  12.348  35.087   0.875
53754W        W22148  31.312  38.928  11.496
53755W        W22149   8.481  35.057   1.665
53756W        W22150  20.996  17.564  14.221
53757W        W22151  18.817  12.340  13.866
53758W        W22152  13.151  13.162   0.283
53759W        W22153  26.561  36.497   1.419
53760W        W22154  39.511  25.030   3.965
53761W        W22155  15.772   1.484  12.876
53762W        W22156  10.920  17.613  11.939
53763W        W22157  15.105  34.650  14.792
53764W        W22158   5.209  33.326  10.442
53765W        W22159  10.798   8.636   4.577
53766W        W22160  28.559  17.364  14.461
53767W        W22161   8.913  10.090   3.125
53768W        W22162   6.407  17.639   3.895
53769W        W22163  40.217  27.881  14.735
53770W        W22164  19.972  22.470  11.403
53771W        W22165   5.590  27.097  10.691
53772W        W22166  34.242   7.623  12.156
53773W        W22167  36.384   7.394  11.599
53774W        W22168   2.515  17.496   2.146
53775W        W22169  11.841  20.705   4.625
53776W        W22170   3.816   9.243  10.706
53777W        W22171   8.077  16.213  11.744
53778W        W22172   6.208  25.250  12.455
53779W        W22173  33.594  42.851   0.520
53780W        W22174  21.921  15.185  11.191
53781W        W22175   0.773  43.965   4.887
53782W        W22176   7.621   5.701   0.922
53783W        W22177  40.749  37.096  12.953
53784W        W22178  26.585   2.611  14.914
53785W        W22179  13.780  22.288   4.398
53786W        W22180  15.237  37.506  14.755
53787W        W22181  16.942  24.676   4.608
53788W        W22182  31.169   9.882   1.793
53789W        W22183  28.873  10.616   3.195
53790W        W22184   6.444   6.579   3.257
53791W        W22185   0.274   9.956   2.919
53792W        W22186  26.482   3.744   4.507
53793W        W22187  31.613   9.964  14.242
53794W        W22188  16.707  14.259  14.534
53795W        W22189  28.381  15.996   2.583
53796W        W22190  25.351  27.928  14.264
53797W        W22191  13.282  12.999   4.514
53798W        W22192  11.185  33.048   1.689
53799W        W22193  11.140  11.330  14.320
53800W        W22194  10.220  22.972   0.517
53801W        W22195  37.925  26.200  11.993
53802W        W22196  15.550  26.469   2.327
53803W        W22197  12.628  41.580  12.963
53804W        W22198   8.440  36.364   1.366
53805W        W22199   4.615  12.187  11.554
53806W        W22200  31.201   2.373  14.074
53807W        W22201   6.274   9.459   3.411
53808W        W22202  28.479  41.497   3.780
53809W        W22203   9.991  32.755   1.854
53810W        W22204  22.304  24.472  11.605
53811W        W22205  36.641  32.847   0.023
53812W        W22206  21.658  13.275  10.547
53813W        W22207   1.040  34.406   2.897
53814W        W22208  11.725  23.512  14.182
53815W        W22209  33.654  15.794   5.058
53816W        W22210  38.308   8.491   0.900
53817W        W22211  37.538  22.145   3.647
53818W        W22212   0.479  30.377   2.322
53819W        W22213   9.311   5.577  12.361
53820W        W22214  20.246  32.693  11.111
53821W        W22215  20.567   2.331   4.990
53822W        W22216  14.807  29.898  10.763
53823W        W22217  39.465  30.187   0.805
53824W        W22218  42.835  13.230   1.347
53825W        W22219  39.542  10.806   0.918
53826W        W22220  35.426  33.380   0.226
53827W        W22221   4.634   6.390  11.020
53828W        W22222  17.522   0.703  11.537
53829W        W22223  33.851  36.747  12.432
53830W        W22224  37.892  35.813  11.964
53831W        W22225  18.161  14.771  12.175
53832W        W22226  16.424  44.132  11.524
53833W        W22227   1.014  15.329   1.419
53834W        W22228  23.290  15.197  14.866
53835W        W22229  42.857  15.604  13.444
53836W        W22230  37.070  18.348  12.009
53837W        W22231   9.387  25.422   3.877
53838W        W22232  32.667  12.783  12.068
53839W        W22233  33.890   7.622   0.409
53840W        W22234  11.217  16.428   2.283
53841W        W22235  12.098  28.092   4.390
53842W        W22236   1.214   4.238   4.550
53843W        W22237  19.375  34.302   0.911
53844W        W22238  25.150  44.467   3.507
53845W        W22239   4.884  33.025   4.146
53846W        W22240  20.486  15.721   4.835
53847W        W22241  41.370  17.740   2.189
53848W        W22242  40.087  31.955   5.089
53849W        W22243  17.535   0.780   2.945
53850W        W22244  34.504  29.039   1.436
53851W        W22245  13.276  32.535  13.038
53852W        W22246  39.301  33.677   2.262
53853W        W22247  25.094  15.894  12.943
53854W        W22248  31.157  11.850  12.485
53855W        W22249  36.120  28.361   5.082
53856W        W22250  41.464  30.008   4.098
53857W        W22251  31.088   2.742  12.447
53858W        W22252  37.833  23.167  11.369
53859W        W22253  10.171  25.087   2.412
53860W        W22254  33.830   6.427  11.418
53861W        W22255  36.946  28.391  10.773
53862W        W22256  30.856  37.535  11.688
53863W        W22257  25.568  14.729  14.836
53864W        W22258  28.438   5.695  14.409
53865W        W22259   6.406   7.081   3.204
53866W        W22260  35.390  25.387   3.692
53867W        W22261  26.371  21.760   0.314
53868W        W22262  40.294  12.671   0.843
53869W        W22263   1.392   0.976  11.143
53870W        W22264  23.404  37.970   0.554
53871W        W22265  26.650  10.258  12.896
53872W        W22266  26.199  25.929   1.793
53873W        W22267  34.461   0.292   1.710
53874W        W22268  17.314  39.729  10.343
53875W        W22269  26.025  30.926   0.554
53876W        W22270  18.351  10.300   3.664
53877W        W22271  18.020  36.380   4.518
53878W        W22272  42.563  24.226   1.841
53879W        W22273  44.435  21.791  12.930
53880W        W22274  22.975  25.019   0.817
53881W        W22275  42.304   5.449   1.209
53882W        W22276  28.996   4.692   2.713
53883W        W22277  10.472   8.151  12.971
53884W        W22278  28.561  28.034  10.206
53885W        W22279  42.411   3.686  10.522
53886W        W22280  28.612  36.072  11.970
53887W        W22281  43.358   6.668   2.624
53888W        W22282  11.003  12.955   3.877
53889W        W22283  22.194  35.837  14.418
53890W        W22284  35.876  35.371   0.058
53891W        W22285   2.813  28.541  10.627
53892W        W22286  21.016  38.488   4.494
53893W        W22287  15.669   4.159  12.995
53894W        W22288   7.440  22.131   9.843
53895W        W22289  32.107   8.217   3.269
53896W        W22290  22.631  37.564   0.452
53897W        W22291  43.585  43.398  13.038
53898W        W22292  22.683  19.824  11.094
53899W        W22293   5.488  40.023   1.104
53900W        W22294  22.631  10.595   4.313
53901W        W22295  12.278  32.012   2.559
53902W        W22296  38.339  16.348  13.534
53903W        W22297  18.753  26.708  12.055
53904W        W22298  27.700  40.203  13.342
53905W        W22299   2.366  43.779   1.412
53906W        W22300  27.440  13.301   4.189
53907W        W22301  17.056  15.196  14.468
53908W        W22302  36.564  43.602   3.209
53909W        W22303  10.790  41.898   1.136
53910W        W22304  30.682  27.981  12.429
53911W        W22305  39.819  20.665   3.629
53912W        W22306  43.251   7.142   0.533
53913W        W22307  40.081  13.796   4.105
53914W        W22308   5.298  28.648  13.360
53915W        W22309  17.824  32.996   4.109
53916W        W22310  20.118  17.519   0.262
53917W        W22311  16.634  10.151  14.215
53918W        W22312  36.874   5.948   4.035
53919W        W22313  33.419  21.570   1.932
53920W        W22314  36.309   3.248   2.753
53921W        W22315  20.559   2.236   3.933
53922W        W22316  38.586  26.216  12.966
53923W        W22317  26.192  24.394   2.385
53924W        W22318  20.411   1.860  12.532
53925W        W22319  12.915  36.036  12.097
53926W        W22320  16.207   9.340  11.818
53927W        W22321  41.207  27.863  14.945
53928W        W22322  21.556  19.679   3.458
53929W        W22323  44.451  30.535   0.421
53930W        W22324  43.022  37.511   0.049
53931W        W22325  26.027  13.119  12.031
53932W        W22326  16.090   9.727   5.445
53933W        W22327   2.691  13.758  12.743
53934W        W22328   1.154  15.596   1.883
53935W        W22329  41.004  14.129  13.826
53936W        W22330  23.969   6.291   0.372
53937W        W22331  38.807   8.307   1.768
53938W        W22332  17.112   0.908  14.975
53939W        W22333  41.286  31.823   2.974
53940W        W22334  39.002  16.288  12.145
53941W        W22335  32.864  16.286  12.437
53942W        W22336  11.959   2.871  11.231
53943W        W22337  23.238  22.143   4.075
53944W        W22338  32.073   1.797  12.583
53945W        W22339  19.566  14.298  14.958
53946W        W22340  41.469  13.261  12.548
53947W        W22341   4.875  12.795   1.392
53948W        W22342   4.740  17.075  14.492
53949W        W22343  39.797   4.013  11.704
53950W        W22344  43.945  20.150  14.255
53951W        W22345   3.495  20.718   1.801
53952W        W22346  35.890  21.949   0.899
53953W        W22347  37.171  18.147  14.575
53954W        W22348  33.401  15.818   3.295
53955W        W22349  23.139   4.228  11.173
53956W        W22350  18.993  35.973   1.487
53957W        W22351  10.242  23.584  13.476
53958W        W22352   1.891  37.273   2.649
53959W        W22353  20.950  21.545  11.983
53960W        W22354   4.471  14.195  14.902
53961W        W22355   2.741  23.274   0.800
53962W        W22356  40.595  20.799   0.949
53963W        W22357  43.851   2.781   4.578
53964W        W22358  10.251  20.445  11.932
53965W        W22359  15.715  43.763  12.531
53966W        W22360   7.796   6.481  12.939
53967W        W22361   7.347  30.057   3.796
53968W        W22362  15.053   2.790  10.428
53969W        W22363  25.071  36.518  12.610
53970W        W22364   5.284  42.720   0.302
53971W        W22365  38.662  26.516   1.729
53972W        W22366  42.359  33.152   2.645
53973W        W22367  40.227  18.853   3.113
53974W        W22368  33.916  33.965  14.598
53975W        W22369  29.798  19.540  14.844
53976W        W22370   0.033  13.535  12.137
53977W        W22371   7.954  15.924   3.694
53978W        W22372   5.959  37.392  14.411
53979W        W22373  33.262  41.079  13.854
53980W        W22374  14.803  27.807   4.714
53981W        W22375  38.595  12.302  13.048
53982W        W22376  10.637   7.535  11.668
53983W        W22377  28.792  30.422   4.509
53984W        W22378  30.075  28.671  14.028
53985W        W22379  17.874  22.677   4.202
53986W        W22380  37.480  33.541   1.249
53987W        W22381   0.026  30.709  12.064
53988W        W22382  44.012   6.275  14.874
53989W        W22383  37.145  44.862   4.153
53990W        W22384  30.129  44.947  12.372
53991W        W22385  38.333  28.530  13.408
53992W        W22386  42.439  17.041   2.834
53993W        W22387  24.556  25.053   4.901
53994W        W22388  43.012  28.386   0.219
53995W        W22389  32.964  25.627   3.394
53996W        W22390  39.736  37.400  14.330
53997W        W22391   8.837  21.929   2.780
53998W        W22392  17.193  23.460  13.343
53999W        W22393  20.015  12.653   4.607
54000W        W22394  14.857  12.182   4.503
54001W        W22395   6.416   4.980   5.329
54002W        W22396  20.652  20.061  14.948
54003W        W22397  44.265  16.811  13.019
54004W        W22398  12.487  32.509   1.944
54005W        W22399  44.608  24.550   4.766
54006W        W22400   0.244  13.965  12.906
54007W        W22401   5.930   8.871   1.920
54008W        W22402  17.567  44.438  12.528
54009W        W22403  19.590  16.863  12.502
54010W        W22404   1.950   5.116   2.323
54011W        W22405  30.135   6.644   4.416
54012W        W22406  10.705  26.222  12.419
54013W        W22407  40.356   9.470   1.401
54014W        W22408  11.259  36.950   2.613
54015W        W22409  33.080  26.698  14.268
54016W        W22410  23.928  15.626  10.039
54017W        W22411  15.747  34.450   1.860
54018W        W22412  34.767  12.241  12.287
54019W        W22413  39.137  19.575  14.522
54020W        W22414  21.580  43.465  14.859
54021W        W22415   9.321  28.833   2.992
54022W        W22416  33.887  27.761   4.565
54023W        W22417  30.044   8.944  12.004
54024W        W22418  22.027  10.304   3.170
54025W        W22419  17.256  11.378  10.706
54026W        W22420  29.239  11.141   0.298
54027W        W22421   6.552  25.721  10.754
54028W        W22422   2.036   0.717   4.550
54029W        W22423  25.918  15.334   0.482
54030W        W22424  34.894   9.304   3.262
54031W        W22425  38.447  41.078   2.767
54032W        W22426  33.085  21.637   4.678
54033W        W22427   5.237  23.411   0.719
54034W        W22428  21.623  10.728  14.851
54035W        W22429  30.861   2.888   3.884
54036W        W22430  26.460  18.331   2.871
54037W        W22431  39.989  16.179   2.448
54038W        W22432   7.172  24.538  12.000
54039W        W22433   0.297  39.959  10.983
54040W        W22434  28.440  20.573  12.543
54041W        W22435  20.968  42.250  10.796
54042W        W22436  10.371   3.343  12.490
54043W        W22437  40.046  33.939   3.933
54044W        W22438  34.888  38.310   0.488
54045W        W22439   9.572  40.564   0.464
54046W        W22440  26.529  43.437  11.261
54047W        W22441  14.601  29.923  13.020
54048W        W22442  32.402  17.591   3.361
54049W        W22443  19.179  28.347   0.315
54050W        W22444  19.600  16.333  14.873
54051W        W22445   2.765  22.113   1.882
54052W        W22446  25.602  38.886   4.589
54053W        W22447   6.980   3.768  12.845
54054W        W22448  42.076  22.548   4.421
54055W        W22449  42.395  42.058   2.231
54056W        W22450  35.728   9.627  12.087
54057W        W22451  41.508  31.141  11.710
54058W        W22452  33.469  42.053  14.000
54059W        W22453  29.497  18.711   3.755
54060W        W22454   7.337  40.589   4.623
54061W        W22455   2.382  33.493   1.903
54062W        W22456  36.310  28.002   3.641
54063W        W22457  29.767   1.467   3.780
54064W        W22458  35.991  21.500   4.254
54065W        W22459  38.991  24.181   0.434
54066W        W22460   4.910  10.683  11.908
54067W        W22461  24.710   1.551  10.609
54068W        W22462   4.936  14.648  12.897
54069W        W22463  37.440   5.459  11.396
54070W        W22464  29.667  11.519   0.343
54071W        W22465  36.244  36.703   3.269
54072W        W22466  31.251  38.788  14.570
54073W        W22467   2.061  23.318   1.240
54074W        W22468  26.172  42.964   2.138
54075W        W22469  23.197  26.163   1.370
54076W        W22470  19.655  36.514  14.030
54077W        W22471   2.022  35.819   4.239
54078W        W22472  33.557  36.472  13.612
54079W        W22473   0.421   7.434  13.761
54080W        W22474   8.127  39.525  13.075
54081W        W22475  21.549  13.723  12.847
54082W        W22476  21.542  16.237  12.466
54083W        W22477   0.507  11.445  11.133
54084W        W22478  25.627  11.574  12.890
54085W        W22479  33.493  35.832  11.132
54086W        W22480   2.721  11.825   4.854
54087W        W22481  30.556   7.203  12.178
54088W        W22482   3.907  37.051  12.450
54089W        W22483  43.359   5.613  11.193
54090W        W22484   1.002  38.027  10.250
54091W        W22485   9.823  27.184   0.462
54092W        W22486  22.528  23.460  12.589
54093W        W22487  41.346  33.558   4.042
54094W        W22488  35.534   1.209   2.806
54095W        W22489  36.958  32.023   1.781
54096W        W22490  37.907   6.251   3.642
54097W        W22491  28.917  37.312   3.234
54098W        W22492  24.786  42.959   2.155
54099W        W22493  33.147  22.971  13.042
54100W        W22494  43.780  43.517   3.722
54101W        W22495  34.018  38.018  10.707
54102W        W22496  14.558  38.325  12.562
54103W        W22497  43.833  12.372  14.828
54104W        W22498   5.826  29.591   4.797
54105W        W22499  34.828  42.015   1.788
54106W        W22500  33.162   4.391   1.012
54107W        W22501  10.386  41.087   2.140
54108W        W22502  37.452  39.369   1.331
54109W        W22503  12.134  20.231  11.152
54110W        W22504   7.369  10.356  12.484
54111W        W22505  19.479   6.839  11.095
54112W        W22506  16.126  41.551   4.941
54113W        W22507  35.834  22.139  11.561
54114W        W22508  38.342  33.504  13.556
54115W        W22509  16.056  32.946  12.143
54116W        W22510  13.139  27.008   0.774
54117W        W22511  32.059   5.049  12.439
54118W        W22512  10.638  40.822   4.072
54119W        W22513   2.961  22.191  12.889
54120W        W22514  41.185  39.370   4.574
54121W        W22515   6.832  40.287   0.934
54122W        W22516  42.984   6.251   1.081
54123W        W22517  34.636  20.314  14.840
54124W        W22518  19.264  19.784  14.912
54125W        W22519  10.608  12.261  12.636
54126W        W22520  35.391  42.344  13.607
54127W        W22521  40.452   3.272  10.771
54128W        W22522  18.510  29.955  14.671
54129W        W22523  20.031  10.441  14.977
54130W        W22524  42.826   8.219  11.203
54131W        W22525  44.140   8.381   1.436
54132W        W22526  40.554  18.814   4.638
54133W        W22527   9.950  41.044  12.016
54134W        W22528  20.611   9.478   2.371
54135W        W22529   2.320  35.456  12.814
54136W        W22530   2.393   7.156   4.578
54137W        W22531  34.485  44.244   0.229
54138W        W22532  10.476   0.416   9.775
54139W        W22533   7.333  43.337  14.663
54140W        W22534  19.323  22.469  12.958
54141W        W22535  36.676  24.192  14.949
54142W        W22536   5.450  33.833  14.483
54143W        W22537  11.338  10.239   2.320
54144W        W22538  12.594  19.125  13.000
54145W        W22539  10.404  22.547   0.311
54146W        W22540  22.024   9.773   3.245
54147W        W22541  35.288  36.277   3.113
54148W        W22542  33.942  43.671  12.859
54149W        W22543   0.290  20.240   3.865
54150W        W22544  43.234  30.293  11.195
54151W        W22545  11.162  42.243  13.027
54152W        W22546  22.217  25.679  10.339
54153W        W22547   9.839  32.160   2.594
54154W        W22548  43.024  29.000  11.458
54155W        W22549   3.022  41.274   4.215
54156W        W22550  33.134  13.332  11.425
54157W        W22551  11.487  30.478   1.233
54158W        W22552  44.261  44.452   1.210
54159W        W22553  25.998  35.510   4.232
54160W        W22554  19.639  31.490  10.646
54161W        W22555   8.481  13.285   5.002
54162W        W22556  28.191  26.435  13.442
54163W        W22557  13.319  27.840   3.687
54164W        W22558  14.123   1.607  12.394
54165W        W22559  17.583  38.369  14.310
54166W        W22560   0.837  22.016  14.828
54167W        W22561  32.691  25.081  12.445
54168W        W22562   1.554  29.506   3.823
54169W        W22563  44.057  44.326   0.257
54170W        W22564  10.294  12.981   3.305
54171W        W22565  32.811  41.024  12.958
54172W        W22566  33.451   9.721   3.611
54173W        W22567   3.828   8.927  14.900
54174W        W22568  28.641  14.367  12.078
54175W        W22569  12.465  19.514   0.439
54176W        W22570  22.189   7.342   4.616
54177W        W22571  10.445  38.923  12.203
54178W        W22572  44.711  19.745   1.744
54179W        W22573  22.464   9.365   1.198
54180W        W22574  34.369  17.800  11.620
54181W        W22575   4.230   5.916   3.311
54182W        W22576   4.011  37.450   4.582
54183W        W22577  11.158  14.673   0.351
54184W        W22578  34.055  18.322   4.721
54185W        W22579  44.553  41.292  10.743
54186W        W22580   4.265  19.695  14.380
54187W        W22581  22.360  20.545  11.606
54188W        W22582   5.909  20.133   0.255
54189W        W22583  37.437  44.887   2.740
54190W        W22584  39.925  14.878  10.655
54191W        W22585  26.246   9.190  10.708
54192W        W22586   2.308  40.026  10.693
54193W        W22587  11.254  39.171   3.554
54194W        W22588  40.314  13.338   3.947
54195W        W22589   4.556  27.934   0.520
54196W        W22590  19.125  40.690  10.776
54197W        W22591  12.725  38.321   3.230
54198W        W22592  31.953  21.811  12.635
54199W        W22593  21.513  24.544  13.862
54200W        W22594  15.779   9.164  11.573
54201W        W22595  36.275   0.198  10.291
54202W        W22596  12.915  11.592  11.639
54203W        W22597  38.581   6.792   4.068
54204W        W22598  20.523  20.999  10.881
54205W        W22599   1.526  43.076   0.825
54206W        W22600  34.144  40.995   3.594
54207W        W22601   5.325  34.788   0.995
54208W        W22602   8.793  43.282   1.125
54209W        W22603  41.783  26.227   1.369
54210W        W22604  24.041   5.360  13.770
54211W        W22605  35.179  20.095   2.098
54212W        W22606  22.017   8.971  13.054
54213W        W22607  36.754   5.023   1.766
54214W        W22608  44.572  13.177  10.756
54215W        W22609  10.287  19.612   1.996
54216W        W22610  26.095  41.534  12.245
54217W        W22611  14.265  22.104   0.597
54218W        W22612  12.638  42.403   1.858
54219W        W22613   4.454  28.956  12.161
54220W        W22614  36.027  10.692  13.090
54221W        W22615  31.496  26.767  10.948
54222W        W22616  29.968  43.413  13.085
54223W        W22617  29.029  19.780   0.970
54224W        W22618  39.956  11.768  13.986
54225W        W22619  10.646  42.236  13.928
54226W        W22620   6.609  22.856   2.651
54227W        W22621  33.610  28.683   4.081
54228W        W22622  28.438  16.697  13.157
54229W        W22623  12.408  24.882   1.801
54230W        W22624   8.312  36.338   2.249
54231W        W22625  30.609  36.512  12.973
54232W        W22626   1.303   4.831  13.938
54233W        W22627   9.145   4.764  11.922
54234W        W22628  20.143  26.049   3.141
54235W        W22629  21.078  20.022  12.481
54236W        W22630  32.656   6.994   4.346
54237W        W22631  26.451   6.379  13.016
54238W        W22632  35.379  19.715   2.436
54239W        W22633  37.714   8.860   5.138
54240W        W22634  17.184  11.954  13.537
54241W        W22635   3.514  29.456  10.741
54242W        W22636  44.984  27.939  14.810
54243W        W22637  13.625  12.641   1.848
54244W        W22638  19.186  16.754   3.694
54245W        W22639   4.472  29.533  14.406
54246W        W22640   6.503  11.333  14.883
54247W        W22641  24.128  40.527  14.943
54248W        W22642  18.136  13.072   1.846
54249W        W22643  44.469  11.930   2.834
54250W        W22644  31.620  32.000  12.995
54251W        W22645  38.964  35.876   4.591
54252W        W22646  14.160  30.433   4.670
54253W        W22647   0.891  25.734  14.026
54254W        W22648  23.072  25.489  14.344
54255W        W22649   7.758  17.335   0.866
54256W        W22650  32.615   5.522  11.828
54257W        W22651  26.367  32.857  10.791
54258W        W22652  27.600  28.727   0.572
54259W        W22653   9.892   5.331   2.838
54260W        W22654  44.714  15.028  12.040
54261W        W22655   0.276  34.394  12.308
54262W        W22656  22.207   1.358   4.510
54263W        W22657  30.476   0.207  14.225
54264W        W22658  22.006  15.982  12.491
54265W        W22659   4.199  44.448  11.899
54266W        W22660  38.337  39.126  12.977
54267W        W22661  18.940  24.561   4.210
54268W        W22662   1.233   2.071  12.109
54269W        W22663  19.605  37.634  11.987
54270W        W22664  27.554  28.528  10.679
54271W        W22665  18.726  44.715  12.191
54272W        W22666  18.496  16.203  14.048
54273W        W22667  15.925  32.455  11.523
54274W        W22668  17.315  36.924  13.036
54275W        W22669  15.046  29.341   1.694
54276W        W22670  35.608  38.429  13.326
54277W        W22671   6.505  25.187  12.887
54278W        W22672   5.671   4.959  12.813
54279W        W22673   8.761   9.186   4.607
54280W        W22674   2.418  21.517   0.813
54281W        W22675  36.716  16.080   0.346
54282W        W22676  21.295  19.331  13.551
54283W        W22677  19.735  33.513  12.611
54284W        W22678   7.885  42.065  12.913
54285W        W22679  33.371  20.592  14.881
54286W        W22680  21.152   4.962   3.173
54287W        W22681  17.142  22.978   2.699
54288W        W22682  19.016  31.592  11.407
54289W        W22683  33.993  11.455  10.676
54290W        W22684  24.199  25.811  10.650
54291W        W22685  32.694   6.297   0.866
54292W        W22686  13.837  31.904  14.669
54293W        W22687  26.188  39.938   4.598
54294W        W22688  36.515   9.646   4.578
54295W        W22689  27.006   8.799  12.016
54296W        W22690  39.297  24.770  10.792
54297W        W22691  39.069  38.655   0.212
54298W        W22692   7.888  30.995  10.486
54299W        W22693  13.321  23.008  14.514
54300W        W22694   0.346  20.422  10.795
54301W        W22695   0.671  24.433   2.203
54302W        W22696  14.678   5.146   9.767
54303W        W22697  17.159  37.076   3.554
54304W        W22698   4.349   2.652   4.389
54305W        W22699   9.275  38.907  11.011
54306W        W22700  15.456  39.012   1.292
54307W        W22701  26.665  27.079   3.286
54308W        W22702   5.916  41.607   0.430
54309W        W22703  17.112   2.384   3.616
54310W        W22704  14.491  28.131   1.354
54311W        W22705   8.332  25.552   1.930
54312W        W22706  13.224  39.855   2.601
54313W        W22707  25.291   2.356  12.581
54314W        W22708  18.279  16.877   0.088
54315W        W22709   2.280   9.264  12.054
54316W        W22710  16.039  22.781  10.636
54317W        W22711   7.738   1.464   3.330
54318W        W22712  27.394  10.196   3.246
54319W        W22713  28.160  21.470  14.047
54320W        W22714  38.017  38.710  10.225
54321W        W22715   7.800  32.587   2.182
54322W        W22716   0.483  38.525  12.491
54323W        W22717  42.082  17.643   3.600
54324W        W22718   0.277  13.116  11.715
54325W        W22719   6.197  26.493  14.340
54326W        W22720  40.024  16.271  10.627
54327W        W22721   2.324  30.639   4.171
54328W        W22722  15.432  15.401   1.223
54329W        W22723   6.747   0.011   3.832
54330W        W22724  10.686   9.115  13.920
54331W        W22725  34.857  18.113   1.475
54332W        W22726  37.576  32.578  10.413
54333W        W22727   8.205  31.006   0.383
54334W        W22728  20.862  21.808  11.062
54335W        W22729  30.769   0.619   3.775
54336W        W22730  44.552   3.794   0.763
54337W        W22731   1.179  17.355  14.751
54338W        W22732   8.698  39.501  14.387
54339W        W22733  14.709  30.335   0.243
54340W        W22734  37.355   9.037  12.972
54341W        W22735  21.235   2.974  12.964
54342W        W22736  40.396   0.256  12.619
54343W        W22737  27.202   0.286  12.056
54344W        W22738  34.824   5.919  13.522
54345W        W22739  29.850   7.216  10.752
54346W        W22740  10.400  40.400  12.899
54347W        W22741  30.327  33.091  11.113
54348W        W22742  41.063  38.699  11.715
54349W        W22743  43.889  17.734   2.285
54350W        W22744  21.979  42.323  10.643
54351W        W22745  35.594  19.427   1.685
54352W        W22746  19.350  40.671   0.304
54353W        W22747  26.168  44.972  13.687
54354W        W22748  17.808   5.914  11.011
54355W        W22749  44.383  17.700   3.434
54356W        W22750  32.718  30.693  12.926
54357W        W22751  14.612  13.354  10.794
54358W        W22752   5.862  41.720   4.744
54359W        W22753  40.658   8.571  14.247
54360W        W22754  11.052  26.727   0.354
54361W        W22755  28.189  10.419   0.102
54362W        W22756  12.091  26.578   0.237
54363W        W22757  14.314   8.393   3.259
54364W        W22758  15.548  44.236   1.332
54365W        W22759  37.016  20.196   4.632
54366W        W22760   0.198  27.047   3.332
54367W        W22761  28.714  25.091   2.788
54368W        W22762   5.652  35.898   2.701
54369W        W22763  34.109  33.046   1.320
54370W        W22764  38.008  37.458   3.142
54371W        W22765  40.422  36.841  11.207
54372W        W22766  16.203  41.735  11.687
54373W        W22767   8.655  43.888   1.304
54374W        W22768  32.008  13.574   4.139
54375W        W22769  26.902  26.498  12.944
54376W        W22770  11.680  33.613  11.638
54377W        W22771  38.048  32.896  10.892
54378W        W22772   0.420  16.082   3.151
54379W        W22773   3.930  12.621  11.314
54380W        W22774  13.408  28.029  10.629
54381W        W22775  42.013  12.597   4.052
54382W        W22776  22.869  43.235   2.156
54383W        W22777  24.901  18.689   0.804
54384W        W22778  39.078  21.829   2.183
54385W        W22779   2.107  39.464   4.417
54386W        W22780  14.696  22.835   0.428
54387W        W22781   3.217   5.760   1.825
54388W        W22782  36.335  17.134   3.176
54389W        W22783  33.432  13.301   3.417
54390W        W22784  32.020  21.575   3.332
54391W        W22785  12.533  16.224   1.291
54392W        W22786   6.721   8.426   4.857
54393W        W22787  35.509  41.938  12.860
54394W        W22788  20.540  12.012  12.552
54395W        W22789  13.032  16.113   1.329
54396W        W22790  32.616  21.391   3.774
54397W        W22791  21.741  31.108  13.041
54398W        W22792  22.249  35.517   1.242
54399W        W22793  25.124  30.593   3.113
54400W        W22794  23.960  26.391   0.810
54401W        W22795  34.909   4.850   3.467
54402W        W22796  11.827  34.917   1.009
54403W        W22797  11.845  24.275  10.817
54404W        W22798  17.287  21.159  12.955
54405W        W22799  30.962   2.837   2.211
54406W        W22800   3.879  32.656   1.391
54407W        W22801  28.700  27.156   3.133
54408W        W22802  10.945   0.547  12.532
54409W        W22803  23.455  35.825  10.620
54410W        W22804  28.437  27.525  11.448
54411W        W22805   9.905  44.277   4.369
54412W        W22806  43.509  34.213  11.449
54413W        W22807   7.854  25.741   0.809
54414W        W22808  28.261  31.474   1.615
54415W        W22809  10.722  22.506  10.195
54416W        W22810   7.839   3.373  14.955
54417W        W22811  34.709  30.295   2.219
54418W        W22812  25.573  12.357   4.651
54419W        W22813  28.414   5.943   2.657
54420W        W22814  28.977  30.762  13.998
54421W        W22815  25.018   0.312  10.332
54422W        W22816  26.359  19.229   1.742
54423W        W22817  19.799   8.696  12.506
54424W        W22818  40.818  28.246  14.972
54425W        W22819  38.953   8.827   1.804
54426W        W22820  41.425  12.186  12.612
54427W        W22821  20.145  19.276  14.965
54428W        W22822  15.888  43.800  11.651
54429W        W22823   5.947  41.691  11.085
54430W        W22824   3.230   3.418  11.629
54431W        W22825  31.022  24.514  14.935
54432W        W22826  19.520  20.724   3.696
54433W        W22827  16.327  18.390  12.847
54434W        W22828  15.215  18.874  13.402
54435W        W22829   5.214  16.581  14.726
54436W        W22830  12.642  23.507   3.339
54437W        W22831  18.078  11.378  13.382
54438W        W22832  35.980   4.470   0.907
54439W        W22833   0.183  24.223   4.148
54440W        W22834  40.111   2.676  12.838
54441W        W22835   5.999  44.319   3.602
54442W        W22836  22.189  28.960  14.421
54443W        W22837  30.895   3.123  12.134
54444W        W22838  25.991  38.520  12.999
54445W        W22839   0.871  40.121   3.748
54446W        W22840  25.541  17.157  12.375
54447W        W22841  29.161  27.164  10.724
54448W        W22842  23.220  14.207   4.589
54449W        W22843  24.062  19.373  13.085
54450W        W22844  38.557  41.492   0.583
54451W        W22845  21.802  11.637   1.203
54452W        W22846  10.621   5.993   3.507
54453W        W22847  10.626  37.815  10.548
54454W        W22848  19.333  37.445   2.934
54455W        W22849  42.522  41.847   0.895
54456W        W22850  40.444  35.140   3.842
54457W        W22851   0.275  34.853   1.228
54458W        W22852  43.906  30.630   4.539
54459W        W22853   5.279  22.045  13.400
54460W        W22854  37.584  15.048   2.324
54461W        W22855  37.829  42.327  14.919
54462W        W22856  24.972  40.805   0.337
54463W        W22857  42.474  36.107  11.078
54464W        W22858   3.801   4.682  14.353
54465W        W22859  24.719  36.160  10.646
54466W        W22860  38.265  16.408   4.646
54467W        W22861  14.213  40.381   4.535
54468W        W22862   9.388  11.743  11.929
54469W        W22863  40.398   0.853   4.674
54470W        W22864   7.098  43.411   3.755
54471W        W22865  42.270   7.904   0.391
54472W        W22866  25.571  17.175  14.885
54473W        W22867  38.113  19.773  11.163
54474W        W22868  24.488  26.002   4.782
54475W        W22869  35.336   4.298   0.526
54476W        W22870  20.664   6.140  11.617
54477W        W22871  15.000   9.724  11.617
54478W        W22872  21.259  30.838  11.913
54479W        W22873  18.256  14.216   0.751
54480W        W22874  18.300   4.132   3.247
54481W        W22875   4.943  44.289   3.073
54482W        W22876   2.715  41.801   3.202
54483W        W22877  41.879  22.052  12.180
54484W        W22878  24.328  31.979  13.362
54485W        W22879   4.941  29.967  13.984
54486W        W22880  20.634  14.744  11.938
54487W        W22881  24.804  43.688  11.222
54488W        W22882  19.641   9.473  10.713
54489W        W22883   8.597  38.987   2.761
54490W        W22884  25.769  31.922   3.202
54491W        W22885  22.343  14.569  12.360
54492W        W22886  11.148  34.218   3.232
54493W        W22887  28.538   6.901   1.590
54494W        W22888   6.679  13.540  13.855
54495W        W22889  12.262  22.661   0.016
54496W        W22890   4.735  33.900  11.167
54497W        W22891   9.823   5.326  14.295
54498W        W22892  21.517  38.523  11.437
54499W        W22893   0.361  10.005  11.143
54500W        W22894  30.278  13.073  11.303
54501W        W22895  11.188  25.306  12.641
54502W        W22896  30.823  24.411  11.071
54503W        W22897  39.567  14.803   1.263
54504W        W22898  38.355  37.923   4.403
54505W        W22899  23.214  26.698  11.621
54506W        W22900  27.015  26.669  12.026
54507W        W22901  15.147   9.308  13.304
54508W        W22902  31.432  40.570  13.925
54509W        W22903  12.902  29.427  13.019
54510W        W22904  35.310  15.203  13.551
54511W        W22905  37.034  39.927  13.334
54512W        W22906  32.078   6.309   4.149
54513W        W22907  27.069  43.442  14.483
54514W        W22908  17.592  13.100   0.929
54515W        W22909  27.463  37.944   3.280
54516W        W22910  22.233  40.886   4.777
54517W        W22911  29.706  24.166  11.724
54518W        W22912   4.950  17.992   0.518
54519W        W22913   3.424   3.952   2.865
54520W        W22914  22.084  17.604   3.397
54521W        W22915  40.017   7.803   0.716
54522W        W22916  25.891   2.909  13.342
54523W        W22917  19.315  34.892   0.914
54524W        W22918  23.881  32.976   2.286
54525W        W22919  43.209   5.615  10.711
54526W        W22920   7.215  44.241  12.240
54527W        W22921  38.981  32.120  13.722
54528W        W22922  29.149  31.629  14.473
54529W        W22923  23.222  42.379  11.201
54530W        W22924   1.232   3.144  11.041
54531W        W22925  15.062   3.230   1.307
54532W        W22926  26.782  17.854  11.104
54533W        W22927  23.264  28.477   1.818
54534W        W22928   9.033  35.096  11.629
54535W        W22929  15.089  40.055   2.363
54536W        W22930  43.097  21.624  14.001
54537W        W22931  42.627  13.346   2.560
54538W        W22932  15.263  28.696  12.634
54539W        W22933  10.228  13.593   4.161
54540W        W22934  31.607  33.581   0.189
54541W        W22935  41.384  21.265   0.760
54542W        W22936  39.475   5.994  14.877
54543W        W22937   0.922   5.518  10.784
54544W        W22938  43.862  28.464  10.576
54545W        W22939  18.077  28.603  13.853
54546W        W22940   6.731   4.189  11.272
54547W        W22941  38.759   4.356   3.428
54548W        W22942  23.774  15.797  12.767
54549W        W22943  42.580  36.449  11.441
54550W        W22944  10.363  38.428   0.388
54551W        W22945  36.555   2.757  11.862
54552W        W22946   4.164  16.451   2.467
54553W        W22947   7.124  42.004  11.618
54554W        W22948  27.341  29.974  11.400
54555W        W22949  13.461  32.747  12.503
54556W        W22950  19.396   3.526   4.410
54557W        W22951   7.605  26.224   4.900
54558W        W22952  10.408  44.481   0.915
54559W        W22953   9.690  16.093   3.169
54560W        W22954   3.516   2.740  12.592
54561W        W22955   3.125  33.439   3.665
54562W        W22956   0.716  14.565   2.618
54563W        W22957  29.715   0.908   3.031
54564W        W22958   6.695  25.274   3.669
54565W        W22959  44.423  40.339   0.408
54566W        W22960  36.871  39.323  14.326
54567W        W22961  36.400  43.026  14.984
54568W        W22962  13.919   1.559   2.389
54569W        W22963   9.081  19.147  12.020
54570W        W22964   0.505  36.011  11.163
54571W        W22965  29.521  19.820   2.201
54572W        W22966   9.904  37.679   4.842
54573W        W22967  36.097  12.008   3.756
54574W        W22968   3.663  24.188  13.846
54575W        W22969  14.902  23.749   2.447
54576W        W22970   4.064  29.873   1.232
54577W        W22971  40.702  25.205   0.893
54578W        W22972  12.454  28.207   1.447
54579W        W22973  10.690  13.366   2.473
54580W        W22974  12.775  33.031   5.006
54581W        W22975  40.742  17.255  14.392
54582W        W22976   4.466  38.230   3.197
54583W        W22977  12.323  40.813   0.255
54584W        W22978  35.134   2.171  10.572
54585W        W22979  42.666   4.463  14.918
54586W        W22980  30.814  16.185  11.180
54587W        W22981  34.421  41.494   0.991
54588W        W22982  10.435   9.937  13.293
54589W        W22983   9.023  26.978  10.045
54590W        W22984   5.195  29.026   1.894
54591W        W22985  35.559  31.204   1.145
54592W        W22986  41.025   3.412  10.688
54593W        W22987   8.413  25.524  13.459
54594W        W22988  20.522  34.968   1.727
54595W        W22989  26.635  27.523  11.970
54596W        W22990  28.939   2.575   0.408
54597W        W22991  29.589  26.137   3.931
54598W        W22992  41.535  17.505  12.638
54599W        W22993  27.010  10.611  14.826
54600W        W22994  19.902  21.683   2.275
54601W        W22995   4.999  21.182   4.817
54602W        W22996  26.148  18.281   0.211
54603W        W22997   7.187   6.593   0.478
54604W        W22998  36.057  25.089  10.601
54605W        W22999  36.125  35.034   2.405
54606W        W23000  19.090  32.699  14.401
54607W        W23001   3.690   3.797  14.758
54608W        W23002  21.211  32.881  10.163
54609W        W23003  33.345  18.790  14.783
54610W        W23004  31.835  26.484  12.604
54611W        W23005  33.042   2.132  11.141
54612W        W23006  36.556   7.327   4.578
54613W        W23007  32.037  14.651   3.306
54614W        W23008   9.371  23.711  11.543
54615W        W23009  30.067   3.377  11.963
54616W        W23010   7.184   1.968  12.938
54617W        W23011  13.286  43.526   0.984
54618W        W23012  44.256  41.756   2.711
54619W        W23013  28.215  26.211  12.087
54620W        W23014  22.912  33.020   0.281
54621W        W23015  33.873  11.111  13.815
54622W        W23016   1.608   2.616  14.865
54623W        W23017   6.967  34.940   3.410
54624W        W23018  34.357  21.531   0.938
54625W        W23019  43.258  27.763  10.549
54626W        W23020   2.150  24.078   1.126
54627W        W23021  25.120  40.379   0.542
54628W        W23022  43.773  38.559   2.100
54629W        W23023  35.041  29.970   2.958
54630W        W23024  10.796  29.136   0.378
54631W        W23025  39.558  15.150  12.100
54632W        W23026  30.116  29.880   0.642
54633W        W23027  18.769  34.175  10.731
54634W        W23028  30.129  14.319  14.693
54635W        W23029  24.150  14.697  12.518
54636W        W23030  18.743  25.014  10.315
54637W        W23031  35.997  15.915   2.100
54638W        W23032  15.277   4.312   4.644
54639W        W23033  34.033   2.989   0.792
54640W        W23034  21.240   8.400  13.446
54641W        W23035  29.104  15.073  14.401
54642W        W23036  44.276  16.639  10.676
54643W        W23037  19.305  32.954   2.206
54644W        W23038   3.775  16.608  13.180
54645W        W23039  30.089  44.022  12.097
54646W        W23040   0.191  30.729  13.402
54647W        W23041  12.204  26.062  14.142
54648W        W23042  32.790   8.842  14.449
54649W        W23043  17.926  28.409   1.304
54650W        W23044   5.860  35.885  13.509
54651W        W23045  31.569  22.214  10.662
54652W        W23046  15.594  31.865  12.111
54653W        W23047   2.147  12.870  14.636
54654W        W23048   1.858  26.812  14.379
54655W        W23049  43.983  35.555   4.077
54656W        W23050  38.072  11.248   3.599
54657W        W23051  41.804  13.236  12.089
54658W        W23052  41.879  13.300   4.094
54659W        W23053  44.817  17.648  13.023
54660W        W23054  13.616  25.468   3.701
54661W        W23055  34.943  14.516  10.613
54662W        W23056   4.198  27.176  11.861
54663W        W23057  19.134  17.740  12.452
54664W        W23058  17.261   5.009  12.445
54665W        W23059   5.677  15.389   3.587
54666W        W23060   6.959   0.497   3.709
54667W        W23061   6.083  14.164  11.489
54668W        W23062  31.925  40.745   3.224
54669W        W23063  41.819   6.642   0.389
54670W        W23064  27.637  20.190   0.430
54671W        W23065  34.301  12.012  13.503
54672W        W23066  20.890  11.758   4.815
54673W        W23067  21.541  23.698   1.588
54674W        W23068  36.378  38.058   4.039
54675W        W23069  12.688  22.286  12.081
54676W        W23070  28.102  23.149  12.614
54677W        W23071  17.317  18.431   1.308
54678W        W23072  20.719  14.102  13.616
54679W        W23073  10.162  20.738  13.390
54680W        W23074   9.903  17.358  14.996
54681W        W23075  30.588  19.720   3.131
54682W        W23076  13.275  10.733   2.624
54683W        W23077  43.193   8.739   1.680
54684W        W23078   0.900  12.092   0.751
54685W        W23079  16.011   2.703   0.046
54686W        W23080   5.191  36.904   4.160
54687W        W23081   3.224  23.907  12.332
54688W        W23082  43.426  41.505  11.565
54689W        W23083  16.817  27.888  13.788
54690W        W23084   5.813  40.262  14.405
54691W        W23085  26.699  13.292  14.447
54692W        W23086  38.997  22.996  11.968
54693W        W23087  21.220   1.180  13.829
54694W        W23088  22.974  36.551  13.115
54695W        W23089  37.498  16.610  13.301
54696W        W23090  35.878  44.972  12.376
54697W        W23091  36.925  28.715   0.616
54698W        W23092  16.050  21.288   4.187
54699W        W23093   5.243  29.532  12.335
54700W        W23094   4.146  30.712   1.543
54701W        W23095  12.148  16.205  10.937
54702W        W23096   3.462  21.122   1.462
54703W        W23097   1.167  40.792  11.297
54704W        W23098  19.548  22.630   3.303
54705W        W23099  44.412  32.380   1.399
54706W        W23100   3.048  17.102  14.709
54707W        W23101  37.361  15.855  14.739
54708W        W23102   7.189  19.510   0.414
54709W        W23103  24.491  19.905   2.817
54710W        W23104  20.070  39.629  10.677
54711W        W23105  26.196  11.220   0.316
54712W        W23106   1.271  13.861   3.748
54713W        W23107   9.947   8.849   3.416
54714W        W23108  41.507  20.088   0.271
54715W        W23109  10.593  43.953   1.733
54716W        W23110  36.428  31.657  11.122
54717W        W23111  26.847  28.090  14.848
54718W        W23112  28.575  42.564   5.120
54719W        W23113  19.582   8.345   0.405
54720W        W23114  27.242  40.046  13.137
54721W        W23115   6.109   6.467   2.394
54722W        W23116  21.354  35.626  13.459
54723W        W23117  42.038   4.293  13.688
54724W        W23118   5.692   0.926   0.606
54725W        W23119  23.647   4.387   0.216
54726W        W23120  43.860   5.775  14.884
54727W        W23121   0.369  41.370   3.373
54728W        W23122   7.835   7.909  14.840
54729W        W23123  34.774  17.678  11.937
54730W        W23124  21.176   0.892  14.264
54731W        W23125  40.541  14.263  11.665
54732W        W23126   5.644   5.790   2.711
54733W        W23127   6.219  37.322  11.197
54734W        W23128  30.715  15.223  13.908
54735W        W23129   1.376  23.412  10.503
54736W        W23130  23.152   9.660   1.818
54737W        W23131  43.987  21.521   4.087
54738W        W23132  23.436  19.802   3.127
54739W        W23133  11.364   4.994  14.969
54740W        W23134  24.980  19.797  11.571
54741W        W23135  31.229  30.520   4.218
54742W        W23136  31.122  34.464   2.059
54743W        W23137  29.096  28.037   2.742
54744W        W23138  11.793  24.055  12.063
54745W        W23139   2.034  14.701   0.470
54746W        W23140   1.884   5.465  11.636
54747W        W23141  36.409  26.410   3.323
54748W        W23142   5.151  28.027  10.601
54749W        W23143  23.711   7.972   4.569
54750W        W23144  38.140  11.693  14.850
54751W        W23145  11.727  38.874  13.060
54752W        W23146  36.685  16.053  12.553
54753W        W23147  24.689  29.321   1.754
54754W        W23148   2.847  21.629  11.646
54755W        W23149  15.045   7.367   2.855
54756W        W23150  30.660  43.258   3.665
54757W        W23151  12.449   7.912  11.229
54758W        W23152  14.325  11.883  14.946
54759W        W23153  22.578  30.924   1.617
54760W        W23154  10.861  31.765   4.624
54761W        W23155  16.616  33.841  14.708
54762W        W23156  17.102   6.291   3.220
54763W        W23157  13.007  39.985   0.816
54764W        W23158  40.545   2.924   3.596
54765W        W23159  31.539   9.901  12.362
54766W        W23160  17.299  14.335  13.442
54767W        W23161   7.098  32.479  14.986
54768W        W23162  18.568  27.530   0.227
54769W        W23163  22.271   5.705   2.719
54770W        W23164   2.272  26.597  13.468
54771W        W23165  29.985  39.818  13.990
54772W        W23166  34.063  19.873  11.964
54773W        W23167  40.991  43.260  12.004
54774W        W23168  16.307  17.273   3.147
54775W        W23169   9.265  26.559  12.664
54776W        W23170  43.850  16.500  12.914
54777W        W23171  19.795   8.362  14.909
54778W        W23172  18.849  38.926  12.063
54779W        W23173  42.851  21.684   1.709
54780W        W23174  44.961  13.091   0.954
54781W        W23175  32.502   2.446   3.360
54782W        W23176   6.484  14.665   2.277
54783W        W23177  38.367   9.065  12.370
54784W        W23178  29.103  20.574  13.021
54785W        W23179  20.252  32.016   1.906
54786W        W23180  32.258  15.481   4.500
54787W        W23181  44.918   3.694  12.002
54788W        W23182  43.604  15.542   4.090
54789W        W23183   2.342  23.668  10.757
54790W        W23184  28.112   1.666   4.237
54791W        W23185  40.897  28.674   0.252
54792W        W23186  20.472  34.766  13.230
54793W        W23187   1.287  28.462  13.858
54794W        W23188  31.268   4.767  10.670
54795W        W23189   8.937  12.653  10.729
54796W        W23190  29.527   3.705  14.973
54797W        W23191  13.718   5.331   0.212
54798W        W23192  10.793   1.804   4.136
54799W        W23193  27.189  36.973  12.426
54800W        W23194  18.664  21.536   2.381
54801W        W23195  13.959  31.104   1.243
54802W        W23196  13.488  19.395  14.787
54803W        W23197  30.012   5.928   0.321
54804W        W23198  24.762  43.374  13.466
54805W        W23199   3.376  34.447   1.419
54806W        W23200  26.577  43.015  10.968
54807W        W23201  36.836  26.169   3.486
54808W        W23202  24.031  24.484  11.149
54809W        W23203  26.689   3.894   2.807
54810W        W23204  33.367   6.322   3.791
54811W        W23205  23.486  44.382   0.502
54812W        W23206  18.335  43.956  13.015
54813W        W23207  43.234  19.123  13.596
54814W        W23208  32.525   1.008   3.349
54815W        W23209  24.511   9.700  14.253
54816W        W23210   3.926   8.166  12.133
54817W        W23211   1.648   2.278   1.726
54818W        W23212  38.071  13.698  11.448
54819W        W23213  10.751  35.560  11.186
54820W        W23214  39.528  44.878  14.386
54821W        W23215  31.431  10.675  14.106
54822W        W23216   0.376   3.367   1.523
54823W        W23217   6.643  28.971  13.331
54824W        W23218  26.088  11.802  11.506
54825W        W23219  10.849  25.270   4.873
54826W        W23220  38.276  17.538   4.141
54827W        W23221  35.313  42.503   3.702
54828W        W23222  13.701  10.639  14.044
54829W        W23223   9.435  40.767  14.520
54830W        W23224  33.431  23.195  10.810
54831W        W23225  34.492  16.877  11.388
54832W        W23226  22.049  29.797  14.379
54833W        W23227  42.479   5.222   4.027
54834W        W23228  13.874  25.039  12.120
54835W        W23229   1.344  38.589   1.721
54836W        W23230  41.788  27.965   5.043
54837W        W23231  22.154  25.374  13.253
54838W        W23232  29.733   8.647  10.761
54839W        W23233  35.848  28.448   2.843
54840W        W23234  39.415  15.079  13.068
54841W        W23235  30.348  16.070   0.806
54842W        W23236  35.034   3.455  12.523
54843W        W23237  38.178  23.664   3.331
54844W        W23238   4.484   4.389  12.131
54845W        W23239  19.326   8.932   4.076
54846W        W23240  42.876   0.299  13.317
54847W        W23241   9.176  17.254   0.354
54848W        W23242  34.515   1.158  12.933
54849W        W23243  16.761  25.955  13.891
54850W        W23244  31.053  28.475   1.681
54851W        W23245  23.279  40.354   0.298
54852W        W23246  44.547  43.307   5.116
54853W        W23247   8.164  42.561  14.821
54854W        W23248  38.171  30.545  10.634
54855W        W23249  44.992  13.550   1.758
54856W        W23250  28.958  17.688  11.086
54857W        W23251   2.021  12.084  12.146
54858W        W23252  22.270  17.844  11.708
54859W        W23253  34.073  24.078  13.167
54860W        W23254  35.052  22.046   3.668
54861W        W23255  10.803   4.443   2.253
54862W        W23256   1.434  42.336  13.874
54863W        W23257  10.247   3.961   2.740
54864W        W23258  37.329  37.161  12.974
54865W        W23259  28.569  22.793   0.371
54866W        W23260  25.126  29.263   1.495
54867W        W23261  30.872  28.519  11.190
54868W        W23262   0.233  15.150  13.335
54869W        W23263  27.704   0.908  12.671
54870W        W23264  23.998  33.032  10.649
54871W        W23265  30.010  39.501   1.553
54872W        W23266   5.708  16.586  12.987
54873W        W23267  19.713  22.324  12.454
54874W        W23268  38.916  10.194  10.985
54875W        W23269  15.803  22.250   2.212
54876W        W23270  43.864  20.215  13.371
54877W        W23271  30.541  11.640  11.552
54878W        W23272   7.121   9.238   1.231
54879W        W23273  30.352  23.154  13.471
54880W        W23274  35.620   3.505   2.261
54881W        W23275  22.331  11.949  12.545
54882W        W23276   7.550  13.904   0.425
54883W        W23277   1.412  22.514  10.785
54884W        W23278  38.552  16.220   1.390
54885W        W23279   8.731  21.107   1.899
54886W        W23280  41.366  18.331   3.149
54887W        W23281  26.743  26.416  10.803
54888W        W23282  44.914  28.956   3.693
54889W        W23283  42.083   7.420  14.608
54890W        W23284  25.253  28.887   3.689
54891W        W23285  34.949  40.252   1.240
54892W        W23286  29.252  17.773  11.519
54893W        W23287   2.427  18.759   3.713
54894W        W23288  40.132   2.515  14.434
54895W        W23289   6.773  13.910   2.786
54896W        W23290  17.007   9.567  11.498
54897W        W23291  19.833  26.102  11.083
54898W        W23292  10.885  18.753  11.875
54899W        W23293  42.514   4.232   2.711
54900W        W23294  19.579  13.850  12.957
54901W        W23295   9.925  15.951  12.310
54902W        W23296  37.724  31.947  13.916
54903W        W23297  17.362  24.936  13.138
54904W        W23298  43.438  34.092  10.932
54905W        W23299   2.354  10.302   0.906
54906W        W23300   4.562  43.868  12.998
54907W        W23301   5.687  42.406   1.673
54908W        W23302   5.408  29.383  12.797
54909W        W23303  39.096   8.827  14.387
54910W        W23304  19.300  23.129  12.449
54911W        W23305  31.574  11.271  13.440
54912W        W23306  28.420   2.701   2.212
54913W        W23307  40.341  41.888  13.335
54914W        W23308   6.231  21.048   4.077
54915W        W23309  28.031  43.368   0.637
54916W        W23310   8.419  16.805   0.488
54917W        W23311  21.173  12.314  12.986
54918W        W23312  12.816  40.638   3.672
54919W        W23313  16.790  41.924   1.133
54920W        W23314   9.370  16.724  12.044
54921W        W23315  42.060  12.918  11.615
54922W        W23316  15.328  25.418  12.392
54923W        W23317  23.336  44.695   3.215
54924W        W23318  30.872  11.120  13.943
54925W        W23319  42.885   7.153   3.575
54926W        W23320  27.499  13.640  12.007
54927W        W23321  44.535   3.020   1.879
54928W        W23322  22.496  15.117   4.724
54929W        W23323   6.072  40.810   3.327
54930W        W23324  14.777  16.875  11.653
54931W        W23325  41.004  21.653   0.969
54932W        W23326  37.703   5.682  14.093
54933W        W23327  15.987  16.147   4.523
54934W        W23328   3.526   8.650   0.893
54935W        W23329  20.214   6.040   0.393
54936W        W23330  24.992  28.759   2.370
54937W        W23331   5.426  26.202  11.160
54938W        W23332  16.611   1.888  13.015
54939W        W23333   2.429   2.514   0.386
54940W        W23334   4.955  12.706  13.864
54941W        W23335  23.553   7.834  13.909
54942W        W23336  38.821   0.929  12.040
54943W        W23337  22.399  15.052  12.609
54944W        W23338   8.664  18.653  10.670
54945W        W23339  10.165  34.903   3.632
54946W        W23340  11.553  30.964  11.800
54947W        W23341  34.332  17.230  12.144
54948W        W23342  31.480  40.371   0.195
54949W        W23343  18.042  24.229   2.743
54950W        W23344  33.148  18.514  12.039
54951W        W23345  23.308  21.288   1.747
54952W        W23346  27.548  12.526  10.721
54953W        W23347  22.128  13.790   3.773
54954W        W23348   3.411   4.370  14.494
54955W        W23349  34.584  12.633  14.095
54956W        W23350   1.877   1.718   0.477
54957W        W23351  43.377  24.656   3.715
54958W        W23352  22.981  43.820  14.829
54959W        W23353   8.742  26.969   0.291
54960W        W23354  42.745  36.029   1.926
54961W        W23355  35.397  29.670   4.745
54962W        W23356  16.778   9.803  13.547
54963W        W23357  18.725  36.432  10.506
54964W        W23358  21.944  38.566  12.942
54965W        W23359  13.169   8.554  11.598
54966W        W23360  27.178  35.103   0.935
54967W        W23361  38.077  14.621   1.688
54968W        W23362  10.317   2.440   2.694
54969W        W23363  17.206  19.297  14.389
54970W        W23364  44.446  11.547   4.184
54971W        W23365   4.804  36.486  13.423
54972W        W23366  12.908  22.103   3.520
54973W        W23367  38.101  31.712   1.790
54974W        W23368  43.758  11.339   0.632
54975W        W23369  33.156  33.438   3.731
54976W        W23370   8.352  40.773  10.682
54977W        W23371   4.236  27.444   2.443
54978W        W23372  19.302  20.293  14.830
54979W        W23373   7.744  36.663  14.847
54980W        W23374   7.865  18.272   0.942
54981W        W23375  42.530  14.297   2.584
54982W        W23376  16.352  22.016  13.486
54983W        W23377  24.172  37.271   3.281
54984W        W23378   6.119   5.945   1.097
54985W        W23379  26.981   6.854   2.211
54986W        W23380  35.301  16.170   4.494
54987W        W23381  31.213   7.797  13.420
54988W        W23382   8.155   0.240  14.661
54989W        W23383   4.432  39.200   4.657
54990W        W23384  17.071  35.621  12.070
54991W        W23385  19.751  42.875   4.064
54992W        W23386  31.414  33.336  11.987
54993W        W23387   9.114  30.909   3.208
54994W        W23388  38.759  15.083  11.735
54995W        W23389   6.780   2.266  13.006
54996W        W23390   3.430  26.631  11.134
54997W        W23391  20.592  17.222   2.845
54998W        W23392  11.462  11.333  11.358
54999W        W23393   0.340  41.264   1.020
55000W        W23394  35.775  31.504   4.510
55001W        W23395   1.368  13.736   1.924
55002W        W23396  35.840  36.504  13.874
55003W        W23397  19.741  15.310   1.992
55004W        W23398  39.579  43.782  13.337
55005W        W23399  39.373   4.313   1.249
55006W        W23400   4.224  15.308   0.762
55007W        W23401  28.405  10.111  10.591
55008W        W23402  13.325  40.955   0.488
55009W        W23403  20.450  41.132  13.333
55010W        W23404  11.470  28.960   3.770
55011W        W23405  29.703  40.499   0.558
55012W        W23406  12.684  21.703   1.750
55013W        W23407  29.425  27.639   0.465
55014W        W23408  10.822   4.513   3.220
55015W        W23409  15.134  43.305  13.778
55016W        W23410  37.038  26.295   0.874
55017W        W23411   5.772  22.283   3.721
55018W        W23412  16.178  38.035  13.862
55019W        W23413  13.628   3.306   3.283
55020W        W23414  18.770  40.292  12.106
55021W        W23415  17.047  26.556  13.079
55022W        W23416   1.426   7.713  10.991
55023W        W23417  42.120  12.621   0.608
55024W        W23418  20.314   2.969   1.788
55025W        W23419   8.815  14.074   3.785
55026W        W23420  40.163  32.874  11.129
55027W        W23421  20.233  35.442  12.187
55028W        W23422  12.877  43.191   2.816
55029W        W23423   6.363  36.029  10.770
55030W        W23424   3.732  19.989   4.075
55031W        W23425   9.262  44.242  12.096
55032W        W23426  26.059  39.543  14.602
55033W        W23427  25.069   9.617  10.229
55034W        W23428  20.983  32.520  13.353
55035W        W23429   4.795   0.382  14.986
55036W        W23430   0.835  10.186  11.231
55037W        W23431  37.408  31.751   3.657
55038W        W23432  38.983  41.525  14.309
55039W        W23433  37.737  24.227   2.353
55040W        W23434  33.868  17.218  14.042
55041W        W23435   7.536   7.323  11.519
55042W        W23436  14.384  32.572   0.186
55043W        W23437   0.310  40.847  11.883
55044W        W23438  27.996  25.553  14.393
55045W        W23439  40.460  22.002   4.856
55046W        W23440   4.695  22.507   1.340
55047W        W23441   7.569  27.062   4.166
55048W        W23442  21.890  31.000   0.770
55049W        W23443   9.218   1.717   1.793
55050W        W23444   7.871  27.068   1.693
55051W        W23445  16.222  44.814   4.818
55052W        W23446  27.618   2.261   3.315
55053W        W23447  31.967  36.153  14.055
55054W        W23448  33.737  17.896  12.126
55055W        W23449  15.961  15.638   0.257
55056W        W23450  17.558   2.765  11.337
55057W        W23451  35.393   0.273  13.378
55058W        W23452  14.333   3.846   4.315
55059W        W23453  44.511  11.362   0.335
55060W        W23454  18.225  16.872   1.384
55061W        W23455  31.447  39.936  12.796
55062W        W23456  35.967   5.898   4.594
55063W        W23457  13.903  37.202  14.813
55064W        W23458   2.484  23.040   1.180
55065W        W23459  14.031  34.106   1.941
55066W        W23460  23.319  25.452   1.846
55067W        W23461  40.143  17.582   2.659
55068W        W23462   8.256  40.775  11.674
55069W        W23463  44.678  19.031  11.711
55070W        W23464  35.558   9.292  12.453
55071W        W23465   1.519  44.297  14.366
55072W        W23466  30.144   3.208  11.476
55073W        W23467  30.735   8.294   0.298
55074W        W23468  31.047  41.979  11.122
55075W        W23469   2.001   0.952   1.779
55076W        W23470   6.498  21.596   3.640
55077W        W23471  38.649  40.035  14.888
55078W        W23472  25.546  39.477   2.758
55079W        W23473   9.810  29.023  12.478
55080W        W23474   1.472  31.716   2.142
55081W        W23475  19.027  41.460  14.882
55082W        W23476   2.912   2.272  12.990
55083W        W23477  24.963  17.751   4.865
55084W        W23478  22.606  18.498   3.932
55085W        W23479  44.459  21.540   9.857
55086W        W23480  42.366  11.766   4.755
55087W        W23481  43.209   7.185  10.306
55088W        W23482  32.059   8.748   2.620
55089W        W23483   3.987  24.610  14.984
55090W        W23484  10.801  18.157  14.327
55091W        W23485   4.155   3.423  10.701
55092W        W23486   9.302  30.940  12.829
55093W        W23487  18.741  24.257   1.996
55094W        W23488  43.587   3.451  14.930
55095W        W23489  32.556  23.143  11.120
55096W        W23490  10.859  41.808   3.223
55097W        W23491  16.588  23.301  11.971
55098W        W23492  23.939  41.946  14.723
55099W        W23493  41.021  38.469  10.760
55100W        W23494  15.607  35.450   2.684
55101W        W23495  17.214  35.990   3.339
55102W        W23496   9.263  31.728  10.694
55103W        W23497  11.636  12.170  13.535
55104W        W23498  36.881   8.292  13.260
55105W        W23499  28.662   4.593   3.762
55106W        W23500  39.461  12.144  14.780
55107W        W23501  37.379   5.259  11.865
55108W        W23502  12.627   7.213   2.854
55109W        W23503  28.085  32.133   3.203
55110W        W23504  27.505  31.369   0.974
55111W        W23505   5.247  29.021  14.788
55112W        W23506  15.187  33.212  10.441
55113W        W23507  25.754  19.331   5.007
55114W        W23508   9.616  28.866  12.015
55115W        W23509  15.163  10.614   4.091
55116W        W23510   9.940  18.696   1.303
55117W        W23511  13.236  38.334  13.941
55118W        W23512  33.286  24.120  10.311
55119W        W23513   5.505   2.172   9.807
55120W        W23514  16.250  16.565  11.404
55121W        W23515  20.971  39.762  10.780
55122W        W23516  28.257  36.053   1.772
55123W        W23517  27.862  19.988  12.533
55124W        W23518   6.416  39.876  10.893
55125W        W23519   3.674   1.565   2.342
55126W        W23520  38.798  34.452  10.655
55127W        W23521  11.923   0.236  13.536
55128W        W23522  29.842  16.093   0.923
55129W        W23523  41.537  14.141   1.023
55130W        W23524  41.577  12.208  11.101
55131W        W23525  29.651  27.591   4.639
55132W        W23526  28.646   9.243   1.578
55133W        W23527  41.265  17.880  13.565
55134W        W23528  18.289  32.781   4.126
55135W        W23529  13.594   7.818  14.952
55136W        W23530  35.347  10.930   2.627
55137W        W23531   9.843  22.557  12.828
55138W        W23532  29.603  32.378   0.285
55139W        W23533  38.598  12.661   1.310
55140W        W23534  32.791  12.099  13.191
55141W        W23535   4.214  30.187   4.749
55142W        W23536  27.016  43.365  12.125
55143W        W23537  16.490  36.950   5.133
55144W        W23538  44.988  35.255   1.381
55145W        W23539   2.260  38.664  14.920
55146W        W23540   6.108  19.713   3.723
55147W        W23541  33.854  24.033  12.136
55148W        W23542  26.545   8.512   1.985
55149W        W23543  22.150  39.193  13.580
55150W        W23544  26.599  43.534   2.321
55151W        W23545  12.249  34.151   0.982
55152W        W23546   7.710  30.966  14.039
55153W        W23547   4.626   8.820   4.384
55154W        W23548  37.340  41.749  11.088
55155W        W23549  36.043  26.542   3.648
55156W        W23550  11.052   9.818   2.595
55157W        W23551  13.304  29.057   2.230
55158W        W23552  44.261   9.793  10.484
55159W        W23553  32.563  27.595  14.124
55160W        W23554  21.169   1.564  14.798
55161W        W23555   9.798   8.893  10.551
55162W        W23556   3.654  34.039  14.840
55163W        W23557   0.263  35.181  11.294
55164W        W23558  27.149  27.993   4.272
55165W        W23559  27.515   2.408   9.642
55166W        W23560   4.393  35.792   1.663
55167W        W23561  38.839  15.662  11.051
55168W        W23562   4.398   1.749  12.530
55169W        W23563  27.157   7.681   3.064
55170W        W23564  20.896  32.642  14.276
55171W        W23565   0.427  12.023   0.540
55172W        W23566  41.201  23.613   4.050
55173W        W23567  17.131  20.058  12.072
55174W        W23568  34.908  16.807  13.865
55175W        W23569   1.267  16.660   3.601
55176W        W23570  42.306  36.908  11.469
55177W        W23571  21.539   2.868   1.252
55178W        W23572  21.776  30.943   1.794
55179W        W23573  26.799   5.455  11.996
55180W        W23574  37.194  19.479   1.341
55181W        W23575  24.705  17.081  13.569
55182W        W23576  11.681   4.850  13.425
55183W        W23577  37.336  43.803  12.275
55184W        W23578  15.476   2.833  12.270
55185W        W23579  44.464  23.587   4.070
55186W        W23580  18.748   9.333  11.144
55187W        W23581  35.973  24.156   3.368
55188W        W23582  20.061  12.159   2.807
55189W        W23583  11.719  21.728   3.877
55190W        W23584   4.703  16.080  12.441
55191W        W23585  43.605  40.602  13.603
55192W        W23586  32.494  38.447   4.135
55193W        W23587  10.929  35.303   3.168
55194W        W23588   2.275  41.490  13.416
55195W        W23589  18.703  11.787  12.474
55196W        W23590  39.854   5.361  11.159
55197W        W23591  20.724  21.178   3.798
55198W        W23592  11.026  12.805   4.405
55199W        W23593  29.461  37.447  13.347
55200W        W23594  19.294  30.843   0.309
55201W        W23595  31.558  44.990  10.631
55202W        W23596  38.371   7.236   1.029
55203W        W23597  26.114  10.770  11.325
55204W        W23598  41.920  26.912   2.341
55205W        W23599  23.800  33.563  11.636
55206W        W23600  34.260   1.777   4.436
55207W        W23601   2.799  19.546  11.099
55208W        W23602  29.787  36.729   0.085
55209W        W23603  17.993   7.752  13.367
55210W        W23604  25.160  19.748   2.853
55211W        W23605  11.582   9.664  14.297
55212W        W23606   4.310  34.780   1.788
55213W        W23607  19.304  43.580   4.170
55214W        W23608  11.067  31.179  12.633
55215W        W23609  41.865   4.163  13.168
55216W        W23610  26.979  40.623   3.787
55217W        W23611   6.383   2.989   1.669
55218W        W23612  44.767  10.154  11.136
55219W        W23613   8.759  11.693  12.592
55220W        W23614  42.436  23.278  13.111
55221W        W23615  29.859   8.717   1.038
55222W        W23616  30.102  30.800   4.837
55223W        W23617  43.767   9.688   4.281
55224W        W23618  43.771  17.224   0.807
55225W        W23619   5.718  11.139   2.391
55226W        W23620  43.891  10.921  12.925
55227W        W23621  40.079   6.193   3.137
55228W        W23622  16.309  23.469  13.416
55229W        W23623   0.790  23.627   1.034
55230W        W23624  19.029   5.129   2.614
55231W        W23625  15.691  27.048  10.351
55232W        W23626  17.426  34.258  10.450
55233W        W23627  18.682  14.195  12.979
55234W        W23628  16.073  35.898   1.977
55235W        W23629  22.261  10.235   0.879
55236W        W23630  40.944   8.297  12.434
55237W        W23631  33.375  10.778  13.361
55238W        W23632   3.214  42.375   1.618
55239W        W23633  25.240  12.717  11.071
55240W        W23634  10.713   0.239   2.938
55241W        W23635   9.091  28.687  12.814
55242W        W23636   1.222  14.383   0.719
55243W        W23637  44.491  22.957  13.347
55244W        W23638  42.974  12.281   0.809
55245W        W23639  42.335  24.161   1.349
55246W        W23640  18.283  41.045  13.920
55247W        W23641   4.526  25.684   0.395
55248W        W23642  33.360  14.036  14.491
55249W        W23643  26.161  20.193   4.091
55250W        W23644   3.575  10.494  10.649
55251W        W23645  36.108  35.613   4.589
55252W        W23646  43.729  25.706   1.313
55253W        W23647  21.757  30.613  10.643
55254W        W23648  29.723   5.828   4.211
55255W        W23649  31.098  14.325   3.711
55256W        W23650  42.503  22.055  11.962
55257W        W23651   2.825  36.522   1.424
55258W        W23652  25.424  15.730   9.812
55259W        W23653  18.708  42.821   1.790
55260W        W23654   3.786  38.453  13.529
55261W        W23655  20.484  10.256   0.803
55262W        W23656   6.755   4.484  13.116
55263W        W23657  24.566  15.866   3.995
55264W        W23658  37.494  29.082   4.128
55265W        W23659  15.794  16.332  11.604
55266W        W23660  17.537   8.302   3.208
55267W        W23661   5.067  40.928  13.622
55268W        W23662  16.230  20.845  14.333
55269W        W23663  33.455  23.767  14.460
55270W        W23664  35.475   1.265   0.036
55271W        W23665  37.897  36.902   0.498
55272W        W23666  42.358  21.287   3.287
55273W        W23667  35.582  28.437   2.413
55274W        W23668  20.685  30.526  12.946
55275W        W23669  38.313  20.637   2.343
55276W        W23670   4.886  36.231  14.329
55277W        W23671  37.937  33.860  14.457
55278W        W23672  12.337  24.464  12.788
55279W        W23673  10.418  35.479   0.324
55280W        W23674  19.283  23.226   4.643
55281W        W23675   0.808   5.764  12.403
55282W        W23676   0.563  25.107  11.531
55283W        W23677  21.287  42.503   4.202
55284W        W23678  11.805  44.817   3.134
55285W        W23679  41.218  21.539   2.325
55286W        W23680  15.509  37.130   1.239
55287W        W23681  22.431  44.920   3.318
55288W        W23682  34.571  25.511   4.115
55289W        W23683   4.400   2.469   2.610
55290W        W23684  42.465  19.747   0.766
55291W        W23685  10.682  24.738  13.506
55292W        W23686  22.206  41.713  13.581
55293W        W23687  30.579  12.876  14.877
55294W        W23688   6.581  21.340   1.757
55295W        W23689  35.350  27.744  11.055
55296W        W23690  28.959  15.448   2.175
55297W        W23691  21.471  22.392  12.499
55298W        W23692  22.818  11.565   3.182
55299W        W23693  26.792  27.570   0.433
55300W        W23694  10.928  17.092   3.813
55301W        W23695  32.863  23.573   5.055
55302W        W23696  19.117  34.152  11.109
55303W        W23697  29.928  10.701   3.669
55304W        W23698  43.157   1.303  10.721
55305W        W23699  44.698  25.971  14.916
55306W        W23700   4.912   8.372   4.114
55307W        W23701  26.017  44.291   0.929
55308W        W23702  34.255  35.949   2.869
55309W        W23703  17.221  19.767  11.660
55310W        W23704   8.844  33.427  11.231
55311W        W23705  13.775   9.616  13.983
55312W        W23706  35.400  44.872   0.813
55313W        W23707   5.182  25.528   1.845
55314W        W23708  38.370  21.545  13.462
55315W        W23709  37.962   3.763   4.023
55316W        W23710  30.047  25.507   4.631
55317W        W23711  21.746   4.161  12.842
55318W        W23712  24.184  24.260   3.993
55319W        W23713  42.439   7.556  11.702
55320W        W23714   4.902  23.144  10.551
55321W        W23715  30.692   4.932  11.899
55322W        W23716  12.754   0.004   1.698
55323W        W23717   0.269  17.703  12.779
55324W        W23718   5.446  14.545  12.498
55325W        W23719  29.543  19.781  10.284
55326W        W23720  21.063  12.590  14.287
55327W        W23721   0.029   4.354  14.601
55328W        W23722  12.351   4.364  12.337
55329W        W23723   3.524   4.115   3.334
55330W        W23724  15.112   9.129   1.849
55331W        W23725  34.893   9.998  12.582
55332W        W23726  31.188  20.579  10.665
55333W        W23727  34.199   3.239   0.331
55334W        W23728  31.901  42.492  13.425
55335W        W23729   8.355   4.522   0.644
55336W        W23730  31.522   6.924  14.741
55337W        W23731  10.202   5.928   2.310
55338W        W23732  16.589  12.499  10.786
55339W        W23733  43.750   5.276   2.378
55340W        W23734  15.042   9.651   0.973
55341W        W23735  23.483   9.679   4.091
55342W        W23736  33.792  29.902   1.285
55343W        W23737  42.947  30.198  10.760
55344W        W23738  14.065  43.721  12.465
55345W        W23739  37.092  40.946   1.002
55346W        W23740  39.753  39.496   9.779
55347W        W23741  39.113  16.121  14.425
55348W        W23742  42.492  24.180   0.466
55349W        W23743   7.368  20.094  13.135
55350W        W23744  37.809  16.682   4.603
55351W        W23745  24.203  15.838  13.107
55352W        W23746   3.652  22.704   4.197
55353W        W23747  42.502   1.010   3.195
55354W        W23748  35.805  41.802   4.622
55355W        W23749   3.258   9.295   3.631
55356W        W23750  35.112   6.795  12.546
55357W        W23751   7.812   9.507  11.797
55358W        W23752  30.861  11.698  14.377
55359W        W23753  33.834   7.701   1.295
55360W        W23754  43.490  23.732   0.970
55361W        W23755  15.351  28.202  14.776
55362W        W23756  25.186  12.370  12.831
55363W        W23757  41.661  30.810  12.090
55364W        W23758  43.677  23.268   3.701
55365W        W23759  40.408  26.132   0.285
55366W        W23760  27.624  37.616  12.119
55367W        W23761  17.630  32.620  11.010
55368W        W23762  26.532  26.851   1.892
55369W        W23763   1.443  24.046  13.396
55370W        W23764   3.695  32.988  12.214
55371W        W23765  44.346  38.860   0.133
55372W        W23766  24.259  35.350  11.207
55373W        W23767  41.407   6.378   1.708
55374W        W23768   6.302  24.085   4.127
55375W        W23769   6.778   8.726   1.272
55376W        W23770  29.640   9.951   1.679
55377W        W23771   2.818  10.308  10.224
55378W        W23772  34.442  12.141   3.191
55379W        W23773   7.135   7.737   0.281
55380W        W23774   3.471  29.482   3.938
55381W        W23775  42.552  13.339   0.398
55382W        W23776   8.457  39.096  12.160
55383W        W23777   7.840  37.984   4.829
55384W        W23778  37.314  32.499   4.941
55385W        W23779  20.259   7.667  13.913
55386W        W23780  37.476  34.369  10.860
55387W        W23781  37.565  34.988   2.339
55388W        W23782   4.904  43.109   3.147
55389W        W23783  40.692  11.093   2.182
55390W        W23784   9.899  38.279  14.118
55391W        W23785  28.221  15.025   1.841
55392W        W23786  14.990   1.978   4.560
55393W        W23787  35.550  31.660   3.192
55394W        W23788  32.838  39.006  10.786
55395W        W23789  33.526  22.092  14.806
55396W        W23790  26.643  40.904   2.817
55397W        W23791  22.050   2.164   0.305
55398W        W23792  24.729  19.013  13.820
55399W        W23793  15.678  38.341  14.973
55400W        W23794  21.008  36.368   2.182
55401W        W23795   0.195  15.186   1.050
55402W        W23796  37.566  32.089  10.593
55403W        W23797  18.271  42.311   2.739
55404W        W23798  26.556  41.695  14.467
55405W        W23799  30.224  42.715   0.221
55406W        W23800  31.853   5.670   4.936
55407W        W23801  38.911  44.136   4.058
55408W        W23802  12.625   9.197   4.674
55409W        W23803  15.819  18.295  12.987
55410W        W23804  10.967  35.020  12.253
55411W        W23805  26.512   1.560   1.846
55412W        W23806  39.054  31.541   3.890
55413W        W23807  42.796  44.863  12.067
55414W        W23808  26.136   5.928  11.526
55415W        W23809  26.074  14.988  13.624
55416W        W23810  39.738  29.943   2.836
55417W        W23811  18.496  19.337  10.787
55418W        W23812  15.157   6.447   0.668
55419W        W23813  12.569  16.330  11.921
55420W        W23814   0.529  41.036  12.562
55421W        W23815  36.629  23.553  14.030
55422W        W23816   0.715  31.364  10.852
55423W        W23817  13.880   7.492  12.522
55424W        W23818  11.738   4.505   3.712
55425W        W23819  30.063  24.499   2.669
55426W        W23820  27.708  30.174   3.359
55427W        W23821  39.756   3.665  13.023
55428W        W23822  24.960  42.012   1.511
55429W        W23823  43.239  13.875   2.559
55430W        W23824   8.846  19.628   4.115
55431W        W23825   4.335  34.819   3.993
55432W        W23826  26.134  40.747  11.835
55433W        W23827  16.303  37.812   0.048
55434W        W23828  12.430  29.397  12.010
55435W        W23829  17.618  39.843   2.640
55436W        W23830  25.032  24.157   4.417
55437W        W23831  12.055  15.285   2.255
55438W        W23832  44.308  24.641  14.037
55439W        W23833  36.084  40.620   3.175
55440W        W23834  44.496  20.585   0.309
55441W        W23835  16.777  29.219   0.212
55442W        W23836  44.215  16.316  12.031
55443W        W23837  34.419  33.940  14.475
55444W        W23838   6.233  27.571   2.502
55445W        W23839  43.489  19.819   4.524
55446W        W23840  34.882  44.371   5.067
55447W        W23841   0.900  21.188  13.730
55448W        W23842  14.224  38.781  14.350
55449W        W23843   7.945  24.488  14.893
55450W        W23844  13.699  31.555   1.129
55451W        W23845  38.275  26.112   2.910
55452W        W23846   0.597  41.799   3.181
55453W        W23847   3.160  43.019  13.821
55454W        W23848   2.371  26.552   1.705
55455W        W23849  21.782  21.934   2.371
55456W        W23850  14.130   3.733  11.677
55457W        W23851  42.404  36.642  11.013
55458W        W23852  23.875  37.338   1.127
55459W        W23853  42.532  26.537  14.261
55460W        W23854  37.376  33.045  12.936
55461W        W23855  32.363  16.994   1.881
55462W        W23856   2.028  30.197  13.512
55463W        W23857  16.666  15.830  10.666
55464W        W23858  20.843  23.760  14.244
55465W        W23859  42.456  33.531  13.209
55466W        W23860  41.622  39.168   4.311
55467W        W23861  35.890  34.620   3.235
55468W        W23862   2.428  18.595   2.209
55469W        W23863  26.227  36.403  14.009
55470W        W23864  21.227  30.551  12.911
55471W        W23865   6.899  28.741   1.690
55472W        W23866  21.268  16.680  13.743
55473W        W23867  19.685  27.968   0.118
55474W        W23868   5.334  25.311   3.544
55475W        W23869  12.354  39.430  11.559
55476W        W23870  38.913   9.337   4.006
55477W        W23871  19.531   1.254  13.601
55478W        W23872   7.859  39.839  14.456
55479W        W23873  43.336   3.365  12.575
55480W        W23874  14.679  11.272  11.122
55481W        W23875   9.665   1.461  11.044
55482W        W23876   9.586  43.858   0.499
55483W        W23877  10.521   0.338  13.486
55484W        W23878  42.827  24.084  10.778
55485W        W23879  20.513   7.400   0.933
55486W        W23880   2.711   7.277   2.668
55487W        W23881  28.101  13.744   1.459
55488W        W23882  15.230  21.488  12.418
55489W        W23883  17.400   6.258  12.040
55490W        W23884   5.330  23.489  12.514
55491W        W23885  26.558   7.673   5.000
55492W        W23886   1.011  13.185   4.190
55493W        W23887  40.099  32.927   4.253
55494W        W23888  43.231  28.138  11.187
55495W        W23889  38.273   6.266   2.776
55496W        W23890  36.377  17.233   1.755
55497W        W23891   6.391  22.282  12.027
55498W        W23892   9.177  26.098   5.248
55499W        W23893  28.492  34.138   3.300
55500W        W23894   1.347  30.927  13.404
55501W        W23895  27.448  16.413  14.574
55502W        W23896  10.266  23.796   1.767
55503W        W23897  36.619   2.057   0.400
55504W        W23898  43.555  24.964  11.188
55505W        W23899  18.773  11.894  14.112
55506W        W23900  16.225  11.679  12.869
55507W        W23901  20.783   5.984   1.662
55508W        W23902  19.823  23.233  11.812
55509W        W23903  16.566   1.317  13.891
55510W        W23904  23.294  40.592  14.820
55511W        W23905  40.995  23.254   0.777
55512W        W23906  30.130   8.727   2.368
55513W        W23907  42.976   6.372  10.734
55514W        W23908  16.382  28.749  13.445
55515W        W23909  17.441  42.509   3.109
55516W        W23910  15.718  41.158   3.198
55517W        W23911  27.837  40.375   4.676
55518W        W23912  31.167  17.932  12.355
55519W        W23913  25.139  16.124  11.899
55520W        W23914  29.498  42.414   4.762
55521W        W23915   7.358   0.917  11.076
55522W        W23916  11.843  35.846   0.394
55523W        W23917  14.763  29.567  11.697
55524W        W23918   4.085   4.780   3.694
55525W        W23919  11.319  26.714   3.277
55526W        W23920   4.926  25.472  11.310
55527W        W23921  21.508   3.795  14.739
55528W        W23922  19.134   2.755   4.127
55529W        W23923   9.237  35.752   4.643
55530W        W23924  10.409  29.360   4.075
55531W        W23925  18.564   3.395   2.833
55532W        W23926  19.904  36.393   4.372
55533W        W23927  43.945  44.884   1.434
55534W        W23928  40.324  43.516   2.985
55535W        W23929  21.046  13.704  12.392
55536W        W23930  33.466   1.496   3.155
55537W        W23931   9.630  12.766  12.522
55538W        W23932   3.697  34.948  13.385
55539W        W23933   2.858  22.554   3.744
55540W        W23934   7.125  41.853   4.441
55541W        W23935  13.106  24.550  12.332
55542W        W23936  26.457  19.681   4.788
55543W        W23937  26.565   0.550   9.892
55544W        W23938   9.174  23.810   0.277
55545W        W23939  18.557  19.269   4.923
55546W        W23940  32.932  44.836  10.891
55547W        W23941  37.544   1.409  12.317
55548W        W23942  24.239  28.270  13.997
55549W        W23943  43.153  35.152  11.452
55550W        W23944   6.289  42.347   1.728
55551W        W23945  42.056  27.986  12.349
55552W        W23946  40.449  27.629   0.450
55553W        W23947  44.927  12.620  13.285
55554W        W23948  38.953  34.621   3.311
55555W        W23949   7.460   6.302  12.397
55556W        W23950  23.745  13.134   4.071
55557W        W23951  18.141   0.984   2.213
55558W        W23952  34.284   5.260   2.872
55559W        W23953   8.829   5.453  10.847
55560W        W23954  39.355  43.299  10.970
55561W        W23955  33.999  16.474  11.101
55562W        W23956  34.069  27.438  14.517
55563W        W23957  13.823  31.915  10.599
55564W        W23958  25.683  40.905   4.145
55565W        W23959  44.818  37.548  14.511
55566W        W23960   7.777  35.518  11.841
55567W        W23961  40.499  30.479   3.308
55568W        W23962  19.435  26.644  14.926
55569W        W23963  17.116  37.998  14.332
55570W        W23964   1.747  18.748  11.580
55571W        W23965   6.645  23.414  10.811
55572W        W23966   1.971   4.759  11.181
55573W        W23967   8.211  10.626   4.403
55574W        W23968  23.660  42.756  12.169
55575W        W23969  19.673  40.784   5.352
55576W        W23970   4.007  21.507   2.824
55577W        W23971  39.583  24.976  12.830
55578W        W23972   2.839  34.574  14.406
55579W        W23973  26.790  38.534  14.401
55580W        W23974  10.877  29.133  12.456
55581W        W23975  36.842  22.065   2.917
55582W        W23976  34.525   9.984  14.395
55583W        W23977  42.820  22.276   0.429
55584W        W23978  22.923  36.004  13.138
55585W        W23979  42.879  29.639   3.383
55586W        W23980   7.628  17.230   0.362
55587W        W23981  23.885  19.996   1.204
55588W        W23982  31.190   1.299   2.620
55589W        W23983  43.799  31.928  14.804
55590W        W23984  35.513  41.968   0.075
55591W        W23985   4.480  39.473   1.854
55592W        W23986  42.528  34.531   3.020
55593W        W23987  44.512   2.535  14.324
55594W        W23988  24.064  21.006   4.207
55595W        W23989  14.371  27.684  13.482
55596W        W23990  12.162  14.793   3.896
55597W        W23991  44.346  34.054  10.439
55598W        W23992   3.507  33.952  12.930
55599W        W23993  10.739  43.737   0.342
55600W        W23994  38.051   1.876   2.333
55601W        W23995  28.621  22.690   3.788
55602W        W23996   3.362   5.301   2.649
55603W        W23997   0.652  42.208   4.736
55604W        W23998  17.453   7.298   4.462
55605W        W23999   0.872  11.862   1.425
55606W        W24000  16.625  17.650   0.904
55607W        W24001  16.148  31.111   1.484
55608W        W24002  15.364  12.984   4.678
55609W        W24003  40.985  30.417   1.482
55610W        W24004  41.460  31.354   0.891
55611W        W24005  38.640   1.630  12.975
55612W        W24006  38.101  15.985  12.495
55613W        W24007  22.608  26.131  10.124
55614W        W24008  36.991   6.659   4.975
55615W        W24009  19.070   3.718   0.274
55616W        W24010   5.295  29.170   0.905
55617W        W24011   2.608  29.679   2.215
55618W        W24012   9.919   9.446   0.552
55619W        W24013  22.996  32.463   3.276
55620W        W24014  12.851   4.446  13.426
55621W        W24015   9.379  19.272  10.714
55622W        W24016  32.256   3.756  10.680
55623W        W24017  26.292  10.645  13.046
55624W        W24018  18.168   5.996   1.703
55625W        W24019  29.136  44.274  10.931
55626W        W24020  44.200   1.342   4.905
55627W        W24021  12.469   9.800  10.612
55628W        W24022  32.954  18.612  11.562
55629W        W24023  21.252  24.464   4.203
55630W        W24024  26.562  43.100   1.192
55631W        W24025   0.067  38.917   1.924
55632W        W24026  12.100  44.396  12.512
55633W        W24027  20.633   5.823   3.094
55634W        W24028  26.933   2.793  12.121
55635W        W24029  37.220  32.097  10.991
55636W        W24030   9.806  30.139  13.965
55637W        W24031  10.385  44.459   1.646
55638W        W24032   9.735   6.389   1.783
55639W        W24033   6.132  23.562   4.963
55640W        W24034   0.207  37.032   9.850
55641W        W24035   2.871  10.596   1.770
55642W        W24036  24.648  38.693  12.960
55643W        W24037  23.511  38.005   3.468
55644W        W24038   5.388  35.794  12.393
55645W        W24039  15.850  37.870  14.225
55646W        W24040  13.976  40.195   2.771
55647W        W24041  18.550  44.973  12.977
55648W        W24042  19.194  37.172  12.039
55649W        W24043   8.549  21.117  11.160
55650W        W24044   0.746  38.001  11.278
55651W        W24045  24.499  37.849   4.648
55652W        W24046  40.254  21.946  11.567
55653W        W24047   5.303  12.548  14.919
55654W        W24048  17.580  11.495   4.860
55655W        W24049  26.502  11.113  13.009
55656W        W24050   8.114   3.042  13.096
55657W        W24051  13.410  43.945   1.273
55658W        W24052  43.397  14.396   4.759
55659W        W24053  40.031  10.576  11.561
55660W        W24054   9.709  15.319  11.116
55661W        W24055   6.696   8.198   2.442
55662W        W24056  32.720  27.136   3.296
55663W        W24057  36.905   9.865  11.678
55664W        W24058  38.446  44.224  11.496
55665W        W24059  18.738   0.217   0.432
55666W        W24060  37.753  23.711  12.796
55667W        W24061  18.036  15.204   0.750
55668W        W24062  30.044  44.217  11.610
55669W        W24063  41.464  33.107  11.595
55670W        W24064   3.819  35.026   3.742
55671W        W24065  23.050  41.939   3.113
55672W        W24066  10.033   3.685   5.052
55673W        W24067  29.800  14.715   4.530
55674W        W24068   9.333  36.434   3.252
55675W        W24069  36.839  43.773   1.751
55676W        W24070  25.470  28.985  11.666
55677W        W24071  39.306   6.882   2.271
55678W        W24072   6.665  27.409   0.766
55679W        W24073  38.057  18.620   3.754
55680W        W24074  14.234  39.498  11.951
55681W        W24075   6.202   2.274  10.688
55682W        W24076   5.631   9.498  13.420
55683W        W24077  29.856   7.318  11.261
55684W        W24078   7.107   9.656  11.155
55685W        W24079  41.733  38.827   3.456
55686W        W24080  12.497   3.469  11.706
55687W        W24081  33.916  43.912  14.104
55688W        W24082  44.606   8.309   1.677
55689W        W24083  22.005  16.392  11.423
55690W        W24084   2.442  33.008  12.049
55691W        W24085  42.989  10.466   1.665
55692W        W24086  31.218  17.482   0.293
55693W        W24087  28.615  12.944  10.987
55694W        W24088   2.455  21.230  12.176
55695W        W24089   4.768  27.469   0.712
55696W        W24090  12.797  33.447  14.308
55697W        W24091  28.018  44.764   1.541
55698W        W24092  16.386  21.813  14.504
55699W        W24093   2.925  40.548  12.986
55700W        W24094  33.178  37.555  14.237
55701W        W24095  22.510  27.628   2.347
55702W        W24096   9.109  20.612  11.441
55703W        W24097   1.533   9.093  14.140
55704W        W24098   8.379  19.060  14.325
55705W        W24099  38.049  11.773  11.562
55706W        W24100  29.750  30.150  12.986
55707W        W24101   0.312  43.057  13.087
55708W        W24102  32.457  31.129   3.038
55709W        W24103  15.601  18.522   0.732
55710W        W24104  10.246  17.234  11.097
55711W        W24105  41.278  22.434  10.856
55712W        W24106  29.873  39.269   3.236
55713W        W24107  23.276  42.833   2.714
55714W        W24108  10.352  24.303  13.031
55715W        W24109   1.807   6.169   1.495
55716W        W24110  31.142   5.781   4.124
55717W        W24111  41.035  29.371  13.015
55718W        W24112  12.294   8.406   0.941
55719W        W24113   1.832  32.193   1.534
55720W        W24114  10.706  38.275  12.882
55721W        W24115   0.663  32.953  13.148
55722W        W24116   2.003  20.950  12.172
55723W        W24117  41.113  15.661  13.836
55724W        W24118  16.740   4.385  11.125
55725W        W24119   7.325   1.748   1.620
55726W        W24120  26.672   2.829  10.773
55727W        W24121   8.416   3.292  10.016
55728W        W24122  26.666  23.463   4.100
55729W        W24123   4.194  21.923  12.539
55730W        W24124  24.341   2.399   2.963
55731W        W24125   8.367  19.255  11.419
55732W        W24126   8.877  16.647  10.842
55733W        W24127  22.271   2.782  14.455
55734W        W24128   0.759  28.520   3.763
55735W        W24129   5.322  37.677   2.037
55736W        W24130  36.527  17.641  11.757
55737W        W24131   5.703  10.307  11.861
55738W        W24132  44.262  22.635   2.379
55739W        W24133  30.136  34.663   3.248
55740W        W24134  39.781  26.469  10.654
55741W        W24135  41.560  13.070  11.667
55742W        W24136  14.819  16.294   1.886
55743W        W24137  21.799  17.738  10.452
55744W        W24138  11.375  13.528   4.744
55745W        W24139  12.164  44.811  12.814
55746W        W24140   2.603  44.011   2.790
55747W        W24141  11.093  33.480  14.401
55748W        W24142  14.290  14.149   1.360
55749W        W24143  25.655  44.483   3.370
55750W        W24144  23.151   0.659  14.967
55751W        W24145  33.989  17.785   4.157
55752W        W24146  30.369  13.097   4.206
55753W        W24147   4.473  30.957  12.811
55754W        W24148   8.761   0.500   2.190
55755W        W24149  20.092  19.504  12.088
55756W        W24150  23.581  22.060  13.169
55757W        W24151  34.396  17.215  13.970
55758W        W24152  16.258   3.012  13.888
55759W        W24153  38.407   4.427   1.051
55760W        W24154  39.051  11.602  13.449
55761W        W24155  29.963  37.769   1.836
55762W        W24156  20.227   1.441  10.461
55763W        W24157  11.047  20.985  12.915
55764W        W24158  18.066   7.161  14.073
55765W        W24159   1.012  43.713  11.071
55766W        W24160  27.464   0.488  13.469
55767W        W24161  41.365   9.955  12.892
55768W        W24162  26.363  39.007  11.244
55769W        W24163  38.926  42.049  12.855
55770W        W24164  24.853   2.377   2.831
55771W        W24165   6.761  44.657  14.288
55772W        W24166  33.042  43.191  14.253
55773W        W24167  12.262   7.414  11.856
55774W        W24168   9.786  34.322   1.661
55775W        W24169  16.883  31.078  11.932
55776W        W24170  37.881  20.955  14.412
55777W        W24171   3.746  13.133  11.514
55778W        W24172  10.256   0.327  13.938
55779W        W24173   0.345  10.685   0.953
55780W        W24174  15.837  24.834   3.771
55781W        W24175   6.669  32.579  14.253
55782W        W24176  33.828  38.775  10.771
55783W        W24177  21.119  43.785   0.231
55784W        W24178  16.473   7.866  10.443
55785W        W24179   4.914  28.863   1.075
55786W        W24180   3.437   0.552   3.701
55787W        W24181   1.837  15.423   1.622
55788W        W24182  32.993   6.426  13.928
55789W        W24183  17.319   0.989  12.010
55790W        W24184  16.052  43.794   0.252
55791W        W24185  13.468  43.764   3.066
55792W        W24186   0.201  22.127   2.481
55793W        W24187  29.971  42.978   3.231
55794W        W24188  29.991  25.056  14.567
55795W        W24189  44.705  30.065   0.334
55796W        W24190  14.354  32.859  12.544
55797W        W24191   9.739   9.189   2.764
55798W        W24192  28.873  35.040   0.875
55799W        W24193  16.809  15.766   2.178
55800W        W24194  24.601  16.051  11.190
55801W        W24195  41.018  25.502   0.463
55802W        W24196  13.843  11.096  10.515
55803W        W24197  41.424  35.454  10.541
55804W        W24198  41.003   5.299   0.460
55805W        W24199  38.486  24.463  11.079
55806W        W24200   5.371  29.438  14.462
55807W        W24201  18.874  25.323   1.065
55808W        W24202  37.343   5.789   4.198
55809W        W24203  20.061  42.202  11.622
55810W        W24204  33.385  30.754  14.487
55811W        W24205  39.284   2.829  12.639
55812W        W24206  29.316  12.678   4.947
55813W        W24207  28.068  30.457   0.985
55814W        W24208   5.496   5.431  14.928
55815W        W24209  41.207  35.957  12.097
55816W        W24210  24.275   2.988   2.351
55817W        W24211  30.524  18.262  11.635
55818W        W24212  22.151  17.366   4.034
55819W        W24213  22.518  32.345   3.152
55820W        W24214   9.723  40.811   1.380
55821W        W24215  20.054  16.518   1.709
55822W        W24216  40.349   0.541  14.439
55823W        W24217  41.292  19.650  13.057
55824W        W24218  42.624   6.269   2.319
55825W        W24219  28.193   2.591   4.156
55826W        W24220  30.970  43.820   3.131
55827W        W24221  32.628  41.312  12.105
55828W        W24222  22.005  13.388   3.253
55829W        W24223  25.704  36.064  11.979
55830W        W24224   8.296  23.813   4.898
55831W        W24225  41.367  33.713   2.672
55832W        W24226  34.027   2.543  14.570
55833W        W24227   4.992  36.828  10.994
55834W        W24228  42.581  23.694   1.483
55835W        W24229   3.495  21.589   2.860
55836W        W24230  16.815  42.413  11.461
55837W        W24231  40.027  38.310   1.737
55838W        W24232  31.491  13.262  11.978
55839W        W24233  41.629  42.926  13.466
55840W        W24234  22.237  15.911   4.517
55841W        W24235  16.089  39.966   0.433
55842W        W24236   7.251  10.848   2.434
55843W        W24237  11.354  35.705  12.719
55844W        W24238  16.155  30.836   3.254
55845W        W24239   3.181   1.029   3.732
55846W        W24240  13.133   4.588   9.895
55847W        W24241  25.897  35.941  13.977
55848W        W24242  34.957   0.110   1.743
55849W        W24243   4.672   4.006   4.051
55850W        W24244  43.201  23.998  13.987
55851W        W24245  11.408  39.273  10.999
55852W        W24246  40.062  27.504  11.572
55853W        W24247   8.204  32.072   4.130
55854W        W24248  28.751  25.567   0.123
55855W        W24249   7.306  14.058  12.952
55856W        W24250   9.670  43.921  11.933
55857W        W24251  33.395   3.319  13.582
55858W        W24252   1.261  35.169   4.118
55859W        W24253  22.700  44.339   4.987
55860W        W24254  27.927  19.206   3.756
55861W        W24255   1.325  29.425   0.813
55862W        W24256  28.070   6.467  13.950
55863W        W24257   1.444  10.848  14.458
55864W        W24258  35.013  26.975   2.249
55865W        W24259  44.588  29.996   0.871
55866W        W24260  44.936  38.553   4.797
55867W        W24261  39.319   0.752   0.436
55868W        W24262  23.506   4.692   2.760
55869W        W24263  30.359  23.022   2.789
55870W        W24264  26.444  43.443  10.721
55871W        W24265   1.146  33.078   3.047
55872W        W24266  44.179  39.010  12.463
55873W        W24267  27.667   1.989  10.702
55874W        W24268   1.964  38.344  13.965
55875W        W24269   8.243  36.427  14.870
55876W        W24270  16.828  14.819  14.761
55877W        W24271  15.860  26.676   1.947
55878W        W24272   9.781  26.252  13.776
55879W        W24273  10.580  40.818  14.974
55880W        W24274  31.115  18.454   1.389
55881W        W24275  14.138  24.309  11.556
55882W        W24276  21.227  33.322  10.648
55883W        W24277   2.945   4.211  10.941
55884W        W24278  20.060  20.444   1.129
55885W        W24279   2.833  43.978  14.313
55886W        W24280  28.941  35.975  13.358
55887W        W24281   5.189  41.944   1.109
55888W        W24282  25.827   3.494  13.168
55889W        W24283  43.553  35.703   1.888
55890W        W24284   2.196  26.439   5.052
55891W        W24285   5.021   5.032  11.587
55892W        W24286  27.493  26.468  12.026
55893W        W24287  16.623  13.124  13.940
55894W        W24288  29.946  24.075  10.828
55895W        W24289  30.286   2.561  12.598
55896W        W24290   3.947   2.986   4.574
55897W        W24291  38.361  35.825  14.519
55898W        W24292   3.395   7.481  13.286
55899W        W24293  20.242  33.631   3.678
55900W        W24294  35.527  11.856  11.467
55901W        W24295  43.783  39.086   1.953
55902W        W24296   9.295  13.992  11.539
55903W        W24297   8.751   9.309   0.726
55904W        W24298  27.773  12.716   4.797
55905W        W24299  13.622  13.364  13.999
55906W        W24300   0.483  20.450  13.499
55907W        W24301  17.330  30.209   1.860
55908W        W24302  29.149  15.848  11.608
55909W        W24303  36.560  19.265   4.244
55910W        W24304  14.252   2.772  14.859
55911W        W24305  25.041  21.752  14.722
55912W        W24306  38.740  31.017  11.129
55913W        W24307  11.444  17.119  12.498
55914W        W24308  35.350  22.673  13.335
55915W        W24309  40.538   5.632  13.387
55916W        W24310  37.844   2.434  10.999
55917W        W24311   8.774  19.434   4.578
55918W        W24312   6.213  14.443   0.278
55919W        W24313  36.987  12.553  13.928
55920W        W24314  36.554  25.646  14.838
55921W        W24315   6.215   8.600  14.242
55922W        W24316  34.984  43.295  10.414
55923W        W24317   9.601  14.588   3.930
55924W        W24318   9.062  15.754  13.098
55925W        W24319  27.075  16.418  13.345
55926W        W24320  33.355  29.073   4.287
55927W        W24321  31.696   4.689   2.024
55928W        W24322  39.980   6.243  12.948
55929W        W24323  21.811  26.045  12.165
55930W        W24324  24.080  43.216  11.552
55931W        W24325   4.181  13.808   0.836
55932W        W24326  25.261   7.869   3.563
55933W        W24327  20.005  15.141  13.907
55934W        W24328  31.637  16.796  10.653
55935W        W24329  17.557  38.882  14.354
55936W        W24330  20.617  16.746   2.294
55937W        W24331  28.545  37.565  11.200
55938W        W24332  32.795   5.591   2.720
55939W        W24333  21.515  42.941   1.411
55940W        W24334   8.081  37.635  12.027
55941W        W24335  42.146   5.284  13.874
55942W        W24336  35.461   0.486   4.536
55943W        W24337  33.504  27.674  12.383
55944W        W24338  19.727  21.778  14.509
55945W        W24339   8.890  24.805   2.144
55946W        W24340  35.481   3.226  14.470
55947W        W24341  42.780   1.964  11.367
55948W        W24342  15.636  21.179  13.895
55949W        W24343  43.149  44.905  14.222
55950W        W24344  38.135  13.440  10.465
55951W        W24345  18.564  23.338   2.870
55952W        W24346  19.935  10.867  13.032
55953W        W24347  18.024  32.612   4.555
55954W        W24348  14.159  19.042   3.016
55955W        W24349   4.787  11.680   0.348
55956W        W24350  27.232  37.542  10.698
55957W        W24351   4.910  12.325   0.214
55958W        W24352  32.175  34.865  14.497
55959W        W24353   1.938   8.758   3.331
55960W        W24354  18.906  44.510  12.629
55961W        W24355  27.178  36.967  13.346
55962W        W24356  42.878  18.634   2.316
55963W        W24357   1.326  18.219  14.232
55964W        W24358  43.943  21.547   0.498
55965W        W24359  34.627  24.720   3.774
55966W        W24360  24.692  30.049  13.590
55967W        W24361  38.772  18.598  13.550
55968W        W24362  10.942   8.598   3.299
55969W        W24363  44.431   1.949   3.527
55970W        W24364  17.582  11.078   3.271
55971W        W24365  44.693   2.511   1.811
55972W        W24366   5.167  17.361  10.739
55973W        W24367  42.183  38.074  14.095
55974W        W24368   4.399   5.519   2.413
55975W        W24369  44.273  30.278  13.322
55976W        W24370  27.286   9.468   1.448
55977W        W24371   1.826  20.290   1.741
55978W        W24372  27.052  37.890   2.214
55979W        W24373  18.175  26.193  11.036
55980W        W24374  29.473  34.793  11.731
55981W        W24375   0.007   3.862   3.716
55982W        W24376  26.903  23.890  13.418
55983W        W24377   0.436   3.435  11.525
55984W        W24378  32.129  42.773   0.856
55985W        W24379  30.596  14.292  12.952
55986W        W24380   7.880   6.495   2.757
55987W        W24381  38.074  15.230   4.614
55988W        W24382  11.448   1.898   4.712
55989W        W24383  29.429  10.287   0.365
55990W        W24384  22.747  23.160   1.670
55991W        W24385  17.564  18.841  14.186
55992W        W24386   9.097  37.670   4.478
55993W        W24387  39.993  19.607   5.004
55994W        W24388   0.966  22.849  12.393
55995W        W24389  43.061  32.938   2.303
55996W        W24390  44.623  21.228   2.251
55997W        W24391  11.241   0.447   4.702
55998W        W24392   0.593   4.858  13.254
55999W        W24393  30.106   2.928  14.822
56000W        W24394  17.081   4.901   3.253
56001W        W24395  24.438  10.651  12.471
56002W        W24396  28.959   7.426   2.702
56003W        W24397  41.550  28.618   2.695
56004W        W24398  33.888  28.998  11.909
56005W        W24399  12.856  36.630   1.651
56006W        W24400  18.621   3.394  10.737
56007W        W24401  10.867  16.006   4.221
56008W        W24402  17.666  35.369   4.697
56009W        W24403   2.379  23.667   4.290
56010W        W24404  39.895   9.399  14.859
56011W        W24405   9.885  31.648   0.825
56012W        W24406  18.319  28.989   2.772
56013W        W24407  25.231  44.591   1.136
56014W        W24408  26.449  28.389  12.596
56015W        W24409   2.455  38.648  12.760
56016W        W24410  42.032  38.728   4.828
56017W        W24411  17.624  30.682   1.353
56018W        W24412  10.633  22.041  12.766
56019W        W24413  30.272  31.983  14.803
56020W        W24414  37.873  29.545   1.698
56021W        W24415  37.843  36.846   2.708
56022W        W24416  11.806   6.744   3.763
56023W        W24417  28.707  14.221   0.783
56024W        W24418  30.176  29.495  11.408
56025W        W24419  10.313  42.511  14.402
56026W        W24420  23.333  24.584  11.642
56027W        W24421   5.475  27.940  12.348
56028W        W24422  11.125  30.248  12.402
56029W        W24423  15.251  27.728   2.753
56030W        W24424  31.674   2.201   4.172
56031W        W24425  37.096  11.526   3.735
56032W        W24426   7.170  27.386  14.791
56033W        W24427  37.652  38.469   1.209
56034W        W24428  39.459  29.501   1.866
56035W        W24429  43.715  23.809  14.800
56036W        W24430  15.162   7.001  12.987
56037W        W24431  32.179  18.915  13.923
56038W        W24432  23.083  26.976  14.560
56039W        W24433  22.828   5.374  11.683
56040W        W24434  32.043  14.218   2.387
56041W        W24435  10.152   7.878   2.169
56042W        W24436  11.640   8.289  14.873
56043W        W24437   6.421  14.915  12.047
56044W        W24438  22.233  15.567   4.939
56045W        W24439  25.427  27.017   3.797
56046W        W24440  23.042  38.711  14.596
56047W        W24441  21.043   2.990  11.299
56048W        W24442   9.164  11.674  14.889
56049W        W24443  43.999  29.964  10.741
56050W        W24444  10.034  14.677  10.634
56051W        W24445  18.745  37.980  11.132
56052W        W24446  32.836   1.756  12.121
56053W        W24447  33.352  42.430  13.334
56054W        W24448  32.496  21.191   3.315
56055W        W24449   1.239  41.007   3.024
56056W        W24450  27.277   1.782   4.572
56057W        W24451   4.444  19.706   4.241
56058W        W24452   0.976  34.614  10.522
56059W        W24453   9.835  22.193  14.067
56060W        W24454  44.751   4.165   4.070
56061W        W24455  15.178  23.004   0.269
56062W        W24456  40.777  18.139   0.428
56063W        W24457  23.273  14.335   1.373
56064W        W24458  44.022  42.513   3.266
56065W        W24459  37.878   2.944  11.038
56066W        W24460  21.233  20.779   4.262
56067W        W24461   5.242  29.677   0.904
56068W        W24462   2.969  16.672   4.590
56069W        W24463  40.355  11.178   0.876
56070W        W24464   9.927  27.319  14.280
56071W        W24465  17.401  26.254   0.297
56072W        W24466   4.545   1.291   5.050
56073W        W24467   0.396   5.891   3.420
56074W        W24468   8.463   0.251  10.617
56075W        W24469  17.198  37.968   2.413
56076W        W24470   8.827  36.453  14.933
56077W        W24471  16.849   8.755  13.613
56078W        W24472  26.241  18.106  11.634
56079W        W24473  18.264  33.859  12.603
56080W        W24474  15.923   0.483   1.851
56081W        W24475  40.494  32.888   1.889
56082W        W24476  25.262  15.195  13.406
56083W        W24477  19.997  29.742   9.847
56084W        W24478  11.751  30.138  12.894
56085W        W24479   5.466  36.832  11.165
56086W        W24480   4.873  17.755  12.045
56087W        W24481  14.838  24.050   1.594
56088W        W24482  34.670  12.857   0.554
56089W        W24483   2.523  32.985   2.039
56090W        W24484  42.047   1.594   3.650
56091W        W24485  44.892  27.745   4.561
56092W        W24486  44.132  41.308   3.896
56093W        W24487  39.875  31.455   3.701
56094W        W24488   0.362   9.690   2.481
56095W        W24489  13.251   3.509   0.349
56096W        W24490  38.299  20.171  11.416
56097W        W24491  44.769  44.834  12.610
56098W        W24492  20.556   2.381   0.534
56099W        W24493  43.850  20.484  13.828
56100W        W24494  16.234   6.975   1.306
56101W        W24495  43.937  27.666   4.769
56102W        W24496  38.906   6.040  13.552
56103W        W24497  16.685  40.702   4.966
56104W        W24498  36.053  16.693   4.202
56105W        W24499  10.034  20.834  10.010
56106W        W24500  41.434  37.927  14.294
56107W        W24501  15.157  11.080  14.333
56108W        W24502  18.196  42.582  10.221
56109W        W24503  43.846  36.783  14.418
56110W        W24504   6.832  27.167   3.666
56111W        W24505  42.464  27.342  10.892
56112W        W24506  22.093  27.174   3.408
56113W        W24507   5.226   2.790   2.610
56114W        W24508  27.387  42.887  11.189
56115W        W24509   0.453  11.160  11.963
56116W        W24510  42.416  43.584   4.285
56117W        W24511  21.035  27.567   4.195
56118W        W24512  11.153  44.710   0.428
56119W        W24513  30.649  20.287   0.563
56120W        W24514  21.257  37.882   3.763
56121W        W24515  22.661  44.248  10.893
56122W        W24516  38.782  14.845  13.825
56123W        W24517  30.887  31.563  12.664
56124W        W24518  10.175  10.183  14.961
56125W        W24519  24.752  36.456   1.380
56126W        W24520   0.003  27.012  14.782
56127W        W24521   9.421   2.200   1.724
56128W        W24522  41.701  37.157  10.844
56129W        W24523  14.868   5.177   3.174
56130W        W24524   3.883  38.516   4.533
56131W        W24525   5.422  25.119  12.035
56132W        W24526  34.531  16.969   0.277
56133W        W24527  43.745   1.883   4.699
56134W        W24528   4.410  13.200   1.691
56135W        W24529  31.453   6.295   4.553
56136W        W24530  42.257  31.953  13.506
56137W        W24531   6.187  44.940   3.182
56138W        W24532  29.016   6.933   2.820
56139W        W24533   9.150  18.806  10.722
56140W        W24534   6.634  39.409  11.065
56141W        W24535  20.743   2.194  13.589
56142W        W24536   6.152   6.496  10.463
56143W        W24537  15.643   7.749  14.712
56144W        W24538  12.236  27.246   4.635
56145W        W24539  12.872   5.624  12.698
56146W        W24540   7.022  32.127   1.485
56147W        W24541  27.084   4.892   2.044
56148W        W24542  23.522  12.675  12.177
56149W        W24543  38.382  42.924  14.426
56150W        W24544  31.500   4.854   1.201
56151W        W24545  25.122  34.086  12.573
56152W        W24546  13.910  35.197   0.369
56153W        W24547  25.060  29.212   2.144
56154W        W24548  17.183  18.652  12.871
56155W        W24549  42.433   0.490  14.542
56156W        W24550  27.875  36.865   0.002
56157W        W24551  34.290   7.417   0.828
56158W        W24552   3.171   8.749  10.683
56159W        W24553  12.158  12.302  12.466
56160W        W24554  10.618  22.516   1.790
56161W        W24555  23.052  24.680  14.633
56162W        W24556   9.369  22.779  10.338
56163W        W24557   0.670  10.585  13.778
56164W        W24558   0.398   0.888   4.678
56165W        W24559   1.591  16.716  14.262
56166W        W24560  40.834   2.725  11.267
56167W        W24561  43.830  30.985   1.097
56168W        W24562  29.783  39.772  10.722
56169W        W24563  35.882  40.022  12.154
56170W        W24564  42.614  30.633   3.285
56171W        W24565  19.245  13.903   2.204
56172W        W24566  16.686   1.771   1.694
56173W        W24567  27.519  24.029  11.494
56174W        W24568  36.437  16.123   3.240
56175W        W24569  25.709  31.524  12.499
56176W        W24570  26.295  31.124  13.309
56177W        W24571   4.681  14.993   3.686
56178W        W24572  29.526  19.379   4.284
56179W        W24573   6.199  30.412  13.410
56180W        W24574   7.868   5.189   2.350
56181W        W24575  20.803  24.726  10.940
56182W        W24576  25.661  14.088  12.985
56183W        W24577  39.017  36.263  10.949
56184W        W24578  40.129   6.908  12.373
56185W        W24579   0.445  36.120  12.414
56186W        W24580   1.210  34.744  12.564
56187W        W24581   3.476  24.705  14.888
56188W        W24582  15.572   0.089   0.405
56189W        W24583  13.341  21.378  12.061
56190W        W24584  18.725   4.255   4.103
56191W        W24585  29.027  16.489   0.279
56192W        W24586  16.339  19.632   0.872
56193W        W24587  36.870  41.120   2.492
56194W        W24588  18.462  17.515  10.759
56195W        W24589   1.740  27.658  11.927
56196W        W24590  32.923  31.950   0.588
56197W        W24591  29.511  41.805  12.932
56198W        W24592  23.630  36.738   3.829
56199W        W24593   3.340   8.819   0.045
56200W        W24594  38.875   6.384   3.970
56201W        W24595   9.073  23.129   4.247
56202W        W24596  32.167  41.573   5.041
56203W        W24597  19.039  24.825   0.792
56204W        W24598  25.211   6.988  11.147
56205W        W24599  20.552  12.846  13.416
56206W        W24600  35.354   6.196   2.885
56207W        W24601  16.767  17.284  13.825
56208W        W24602  33.038   7.381  10.437
56209W        W24603  23.114  37.790   0.982
56210W        W24604  34.880  33.922   2.918
56211W        W24605  13.100  18.552  12.220
56212W        W24606  17.746  30.916   4.544
56213W        W24607  19.119  25.666   3.682
56214W        W24608   5.344   8.884  13.707
56215W        W24609  41.844  31.721  13.322
56216W        W24610  17.086  44.834   4.901
56217W        W24611  34.762   0.208  11.370
56218W        W24612  28.521   6.960   2.627
56219W        W24613  41.964   5.170   0.459
56220W        W24614  43.489   2.469  13.573
56221W        W24615  30.195  28.008  12.297
56222W        W24616   7.896  12.887   1.415
56223W        W24617  44.848  30.645   1.914
56224W        W24618  34.214   9.632   4.069
56225W        W24619  11.101  25.207  14.973
56226W        W24620   1.402   9.391  12.624
56227W        W24621  14.049  14.190  11.113
56228W        W24622   3.880   4.097  10.510
56229W        W24623   3.948  17.321  13.592
56230W        W24624   4.901  32.695   3.728
56231W        W24625  13.948   7.934   4.862
56232W        W24626   0.429  38.073   0.811
56233W        W24627   5.424   3.718   3.571
56234W        W24628  39.267  41.948  11.670
56235W        W24629  13.295  17.854   2.790
56236W        W24630  43.327  44.257   3.357
56237W        W24631  29.072   3.108   0.550
56238W        W24632  24.160  32.439  13.562
56239W        W24633  12.028  38.013  11.519
56240W        W24634  42.918   7.142   3.060
56241W        W24635  23.078  35.617  11.798
56242W        W24636  12.357  15.226   3.622
56243W        W24637   9.282  41.527   1.017
56244W        W24638  21.912  43.212   1.221
56245W        W24639  36.382  35.037  11.609
56246W        W24640  24.081  13.768  14.688
56247W        W24641  31.518   3.415  10.419
56248W        W24642  40.095   0.491  14.883
56249W        W24643  18.779   4.133   4.598
56250W        W24644  33.909   9.806   4.456
56251W        W24645  33.476  36.536   3.011
56252W        W24646  29.505  35.998  10.449
56253W        W24647  37.870  24.666  12.175
56254W        W24648  30.400  33.288   4.943
56255W        W24649  31.635  12.643   2.963
56256W        W24650  18.731  21.533   1.864
56257W        W24651  26.030  29.958  11.081
56258W        W24652  40.782  16.863   2.701
56259W        W24653  24.215  22.281   2.652
56260W        W24654  30.079  40.117  14.907
56261W        W24655  14.320  11.971  11.598
56262W        W24656  12.870   1.381   3.281
56263W        W24657  26.199   2.259  12.921
56264W        W24658  21.202  12.255   0.854
56265W        W24659   0.549  12.240  10.539
56266W        W24660   0.347  34.654   1.706
56267W        W24661  36.325   3.145   5.163
56268W        W24662   5.355  22.035  14.373
56269W        W24663   0.039  44.340   3.899
56270W        W24664  29.633  25.435   0.034
56271W        W24665  10.315  36.586  12.964
56272W        W24666  15.632  23.998   3.341
56273W        W24667  20.733  34.899   3.356
56274W        W24668  19.627   5.851  10.817
56275W        W24669  43.654  16.291   1.496
56276W        W24670   9.175  17.144  14.444
56277W        W24671  15.109   3.257  10.216
56278W        W24672  20.835  44.895  12.593
56279W        W24673  16.297  10.028   0.454
56280W        W24674  41.907   8.446   4.097
56281W        W24675  39.687   3.294   3.848
56282W        W24676  24.305  17.658  13.050
56283W        W24677  10.452  18.606  11.030
56284W        W24678  22.510  43.323   3.978
56285W        W24679   7.866  31.901  12.451
56286W        W24680  20.644  16.693   4.633
56287W        W24681  13.811  10.615   0.872
56288W        W24682  26.119  32.016  11.841
56289W        W24683  15.945  36.424  12.731
56290W        W24684   6.338  28.111  10.204
56291W        W24685  13.125  40.683   2.200
56292W        W24686   6.894  37.969  12.556
56293W        W24687  43.641  30.409   4.151
56294W        W24688  34.053  16.824  10.716
56295W        W24689   7.647  14.203   2.259
56296W        W24690  26.961   7.376   1.334
56297W        W24691  18.025   1.579   4.150
56298W        W24692  14.581   0.460  12.385
56299W        W24693  41.277   5.720   0.297
56300W        W24694  32.419  21.204  12.091
56301W        W24695  33.506  39.811  13.537
56302W        W24696  41.818  29.137  13.419
56303W        W24697  43.242   9.232  14.995
56304W        W24698  11.309  10.598  13.099
56305W        W24699  13.310  19.771  12.313
56306W        W24700  11.454   0.968  10.177
56307W        W24701  23.698  40.051  14.480
56308W        W24702   9.498  34.767   4.656
56309W        W24703  20.194   7.698  11.645
56310W        W24704  17.831   8.031  12.099
56311W        W24705  27.507  10.924   1.001
56312W        W24706  34.151  20.180   2.289
56313W        W24707  30.990  20.307  13.899
56314W        W24708  10.666   5.827   2.129
56315W        W24709  38.110   3.686  11.597
56316W        W24710  11.211  32.900   1.200
56317W        W24711   7.875  37.502  13.470
56318W        W24712   4.697  39.605  13.018
56319W        W24713  13.213  39.046  14.264
56320W        W24714   2.847  31.754   4.866
56321W        W24715  39.184  20.038   2.555
56322W        W24716  26.091  19.759   3.123
56323W        W24717  14.657   5.996  13.629
56324W        W24718  16.922  11.630   0.716
56325W        W24719  19.529  14.652  11.407
56326W        W24720  19.314  30.750   4.481
56327W        W24721   0.505  26.494   1.378
56328W        W24722   6.793  30.530  12.601
56329W        W24723   4.229  18.348   0.306
56330W        W24724  32.121  18.770   2.394
56331W        W24725  39.137  38.157   0.346
56332W        W24726  44.499  43.007  11.046
56333W        W24727  30.517  33.896   0.032
56334W        W24728  21.933   0.201  12.448
56335W        W24729  41.960  36.616   2.208
56336W        W24730  15.337  13.109   2.257
56337W        W24731  15.160  27.698   3.291
56338W        W24732  35.677   9.876  11.614
56339W        W24733  29.489  31.724  12.817
56340W        W24734  43.324   6.772  12.698
56341W        W24735   8.747  22.661   4.519
56342W        W24736  14.099  15.716   1.792
56343W        W24737  21.085  10.787   4.748
56344W        W24738  20.999  12.963  10.757
56345W        W24739  33.967  31.191   4.070
56346W        W24740  40.291  40.305  13.051
56347W        W24741  40.017   6.338  13.924
56348W        W24742  36.640  43.482   0.015
56349W        W24743  10.631  33.403   2.212
56350W        W24744  31.912   4.120   3.354
56351W        W24745  44.060  30.349  13.803
56352W        W24746  25.259  17.763  11.051
56353W        W24747  18.804  17.119  12.144
56354W        W24748  42.097  40.022  13.242
56355W        W24749  27.100  23.659   2.371
56356W        W24750  29.387  24.685   4.651
56357W        W24751   7.215   0.884   4.700
56358W        W24752  23.398  34.042   2.684
56359W        W24753  33.391  25.519   2.666
56360W        W24754  21.001  17.163   3.238
56361W        W24755   4.306  23.349   2.727
56362W        W24756  30.326  44.907   2.705
56363W        W24757  20.038  40.330   0.832
56364W        W24758  40.964  32.404  13.069
56365W        W24759  13.994  42.531  11.931
56366W        W24760   8.482   7.020  13.077
56367W        W24761  25.344  36.021  11.137
56368W        W24762  30.551  13.752   1.182
56369W        W24763  13.861  19.713  11.480
56370W        W24764  44.020   9.601  14.916
56371W        W24765  38.833   2.830  13.499
56372W        W24766  16.052  30.006   0.813
56373W        W24767  28.382  21.701  14.491
56374W        W24768   7.948  42.969   3.113
56375W        W24769  42.341   3.818   0.723
56376W        W24770  44.893  35.451  14.033
56377W        W24771  33.550  36.445   4.259
56378W        W24772  10.290  24.312  11.649
56379W        W24773   2.503   1.457   1.503
56380W        W24774   0.415   3.831  11.187
56381W        W24775  43.770  22.572   0.600
56382W        W24776  16.170   3.639   2.595
56383W        W24777   6.206  33.740  13.672
56384W        W24778  10.870  40.359   4.090
56385W        W24779  26.938  40.490  14.463
56386W        W24780  41.172  22.504  11.373
56387W        W24781   9.604  13.451  14.720
56388W        W24782   6.253  40.473  13.138
56389W        W24783  42.280  12.713  12.572
56390W        W24784  16.119   6.464  13.026
56391W        W24785  38.002  31.471  14.041
56392W        W24786  15.648  13.580   0.684
56393W        W24787  13.051  23.612   2.532
56394W        W24788  11.706  28.279   9.929
56395W        W24789  13.551  30.495  12.517
56396W        W24790  35.083  10.253   0.512
56397W        W24791  10.051  33.392  12.105
56398W        W24792   4.762  22.688   2.898
56399W        W24793  29.557  20.202  11.520
56400W        W24794  44.682  26.387   2.344
56401W        W24795   2.778   8.234   1.454
56402W        W24796   4.800   4.260  14.434
56403W        W24797  29.959   8.546   9.877
56404W        W24798   2.396  26.562   2.289
56405W        W24799  26.144  18.745  12.056
56406W        W24800  44.029   1.238   3.088
56407W        W24801  20.355  33.130   3.705
56408W        W24802   1.224  29.656   0.345
56409W        W24803  14.652  36.849   1.729
56410W        W24804   1.337  37.364  11.400
56411W        W24805  23.475  10.679  14.047
56412W        W24806  17.774   8.841  13.951
56413W        W24807  32.422  15.353   2.373
56414W        W24808  43.764  32.840  14.722
56415W        W24809   3.136  22.633  13.091
56416W        W24810  10.115  28.042  11.028
56417W        W24811  42.801  32.475   2.371
56418W        W24812  15.079  31.775  12.112
56419W        W24813  22.698  22.163  12.735
56420W        W24814  13.222   3.520  12.184
56421W        W24815  13.450  42.259   1.370
56422W        W24816  10.928  32.614   4.016
56423W        W24817  33.641  21.153   3.648
56424W        W24818  15.636  38.414  14.453
56425W        W24819  29.086  33.409  10.412
56426W        W24820  25.166  41.414   0.754
56427W        W24821  25.947   1.294   3.914
56428W        W24822   3.794   1.815  10.786
56429W        W24823  16.180  27.969  10.135
56430W        W24824  34.386   0.890   4.492
56431W        W24825   4.818  36.232  12.966
56432W        W24826  35.101  38.077   3.400
56433W        W24827  11.818   6.148  12.019
56434W        W24828   7.627  41.979  11.535
56435W        W24829  30.869  17.028  11.214
56436W        W24830  30.032  28.221  12.990
56437W        W24831   1.779  11.537   2.721
56438W        W24832   5.390  42.935  13.454
56439W        W24833  20.354  12.203  14.987
56440W        W24834   3.699  18.078   5.167
56441W        W24835   1.341   2.373   0.245
56442W        W24836  43.245  19.610  14.502
56443W        W24837  29.648  20.339   3.136
56444W        W24838  10.854   9.715   0.847
56445W        W24839  25.078  13.897   3.715
56446W        W24840  44.745  36.763   3.849
56447W        W24841  32.411  11.751  10.017
56448W        W24842  40.268  12.913   3.619
56449W        W24843  23.664  40.556   2.328
56450W        W24844   3.949  44.804  13.436
56451W        W24845   3.686  32.982   3.281
56452W        W24846  29.452  15.686   3.785
56453W        W24847  32.406  24.995   1.805
56454W        W24848   7.910  43.943  14.910
56455W        W24849  44.263  30.904  11.175
56456W        W24850   0.532  39.562  13.559
56457W        W24851  40.056  43.314  14.997
56458W        W24852   9.783  36.920   4.364
56459W        W24853   4.359  31.629   3.120
56460W        W24854  27.996  24.432  10.496
56461W        W24855  13.274  26.580   1.849
56462W        W24856  38.249  39.251  14.369
56463W        W24857  35.039   1.218   4.800
56464W        W24858  10.620  35.144   3.669
56465W        W24859  34.186  16.697   1.499
56466W        W24860  13.828  13.397  10.911
56467W        W24861  24.720  14.900   3.332
56468W        W24862  42.213   0.836   3.607
56469W        W24863  16.315  35.009   1.772
56470W        W24864   2.281  21.109  14.088
56471W        W24865  27.658  30.514   0.661
56472W        W24866   2.753   7.429   0.035
56473W        W24867  38.917  29.262  11.117
56474W        W24868  24.531  21.699   1.352
56475W        W24869  28.920   5.750   2.255
56476W        W24870  20.450  24.698  14.225
56477W        W24871   2.789  26.203   0.895
56478W        W24872  43.396  11.821  14.502
56479W        W24873   6.992  18.115  11.062
56480W        W24874  28.386   6.625   0.186
56481W        W24875   3.230  42.070  13.376
56482W        W24876  29.738  20.477  12.503
56483W        W24877   9.617  24.455  12.624
56484W        W24878  22.116  41.433  10.586
56485W        W24879   9.416  27.435  14.313
56486W        W24880  19.889   6.461  11.086
56487W        W24881  31.536  30.286   0.232
56488W        W24882   9.145  20.852   2.243
56489W        W24883   8.891  28.676  14.780
56490W        W24884  21.248  14.833  11.062
56491W        W24885  20.023  36.068   0.325
56492W        W24886  30.684  14.168   1.831
56493W        W24887  38.127  44.895   3.285
56494W        W24888  18.726  41.406   4.747
56495W        W24889  12.694  29.522   1.288
56496W        W24890  19.478   1.587  12.719
56497W        W24891  20.851  20.229  14.421
56498W        W24892  42.483  19.663  11.810
56499W        W24893  38.939  16.637   4.651
56500W        W24894  29.820   9.844  12.059
56501W        W24895  42.831  31.798   1.717
56502W        W24896  17.950  21.554   0.413
56503W        W24897  43.354  41.700  11.090
56504W        W24898  41.302  39.377   1.976
56505W        W24899   2.459  35.677   0.343
56506W        W24900  40.309  34.985   1.027
56507W        W24901  42.475  31.074  11.150
56508W        W24902   9.286  26.059  12.502
56509W        W24903  22.495   1.377   0.050
56510W        W24904   0.505  41.868   2.304
56511W        W24905  40.410  30.175   3.697
56512W        W24906   1.425   6.545   1.701
56513W        W24907  14.474  20.467   2.093
56514W        W24908  28.033   5.362  11.276
56515W        W24909   9.943  37.315   0.018
56516W        W24910  43.520   6.239  13.489
56517W        W24911  33.807  33.835   0.088
56518W        W24912  31.135  38.114  12.827
56519W        W24913  20.253  23.588   3.641
56520W        W24914   7.703  29.404  11.987
56521W        W24915   1.981  11.372  13.439
56522W        W24916  29.883  44.369  14.298
56523W        W24917   3.702  21.724  14.299
56524W        W24918  23.342  28.343  11.901
56525W        W24919   9.744  16.675  10.726
56526W        W24920  29.977   6.807  12.627
56527W        W24921  27.709   0.559   3.715
56528W        W24922  19.341  28.254  14.831
56529W        W24923  11.705   0.346  11.724
56530W        W24924  36.364  14.552  14.519
56531W        W24925  14.204   0.734  13.402
56532W        W24926  29.763  22.766   1.814
56533W        W24927  18.391  17.946  11.962
56534W        W24928   6.967   6.800  14.244
56535W        W24929  43.406  12.608  14.084
56536W        W24930   4.400  41.456  10.408
56537W        W24931  42.893  27.256  11.193
56538W        W24932  19.231  15.684  11.504
56539W        W24933  15.932   5.440  13.294
56540W        W24934   8.827  16.515   2.555
56541W        W24935  44.716  28.459  12.587
56542W        W24936  15.139   9.996  11.192
56543W        W24937  11.971  20.637  13.248
56544W        W24938  38.917  32.387  11.033
56545W        W24939  19.603  37.644   0.859
56546W        W24940  16.709  15.231   0.048
56547W        W24941  14.585  25.610  12.987
56548W        W24942   0.971   7.858   3.393
56549W        W24943  29.375   4.648  11.309
56550W        W24944   8.743  19.152   1.665
56551W        W24945  16.730  13.491  13.019
56552W        W24946   2.925   8.117   2.417
56553W        W24947   3.941   4.874   4.184
56554W        W24948  25.290  30.482  13.461
56555W        W24949  37.838   5.582  14.594
56556W        W24950  40.927  42.252   2.293
56557W        W24951  25.912   5.648  13.413
56558W        W24952  22.901   2.732  11.122
56559W        W24953  17.509   6.352   2.213
56560W        W24954  43.423  26.347  10.986
56561W        W24955   5.367  22.574  14.426
56562W        W24956  32.532  18.458  13.801
56563W        W24957  39.487   1.971   4.243
56564W        W24958  24.871  11.597  14.850
56565W        W24959  14.369  43.353   3.659
56566W        W24960   3.855  29.380  14.949
56567W        W24961  41.717  11.620  13.070
56568W        W24962  37.641  16.659  12.413
56569W        W24963  31.929  18.610  14.798
56570W        W24964  36.828  35.633   0.215
56571W        W24965  35.600  44.983   0.353
56572W        W24966   9.195  13.168   2.286
56573W        W24967  35.383   4.620   1.713
56574W        W24968  16.602  12.219   1.153
56575W        W24969  15.121  12.775   2.915
56576W        W24970  41.819  20.466   1.739
56577W        W24971  12.588  36.130  11.275
56578W        W24972   9.815  38.223   4.923
56579W        W24973  13.729   1.350  11.113
56580W        W24974  30.030   7.816  13.867
56581W        W24975  29.192  12.810  10.446
56582W        W24976   6.908  30.811   2.316
56583W        W24977   0.410  32.043   1.685
56584W        W24978  11.906  11.201   4.125
56585W        W24979  26.132  42.951  13.282
56586W        W24980   3.723  11.749  10.484
56587W        W24981   2.309   8.259   1.263
56588W        W24982  26.659  23.651  12.999
56589W        W24983   4.681  17.726  11.143
56590W        W24984   0.764  23.598   3.725
56591W        W24985  22.306  18.675   1.753
56592W        W24986  29.632   5.042  14.447
56593W        W24987  33.314  25.530   1.797
56594W        W24988   8.873  21.600  12.329
56595W        W24989  22.578  24.987  14.538
56596W        W24990  38.574  14.158  13.951
56597W        W24991  42.238  32.386  11.540
56598W        W24992  22.145  33.933   1.001
56599W        W24993  41.011  12.400  12.846
56600W        W24994   9.716  27.485   4.953
56601W        W24995  21.642  15.041  12.006
56602W        W24996   2.295   8.357   3.873
56603W        W24997  16.011  35.348  13.433
56604W        W24998  39.502  33.834  13.782
56605W        W24999  23.042  14.192   2.272
56606W        W25000   3.177  21.947   0.809
56607W        W25001   9.243  42.700   1.464
56608W        W25002   1.663  43.324   4.119
56609W        W25003  42.075  42.339   0.375
56610W        W25004  42.311  17.235  12.740
56611W        W25005  31.062  21.503   2.461
56612W        W25006  26.656  19.832   2.449
56613W        W25007  37.833   0.969   4.406
56614W        W25008  20.926  23.794  11.055
56615W        W25009   3.443  29.379   0.367
56616W        W25010   7.840  38.105   3.305
56617W        W25011  17.625  31.562   1.718
56618W        W25012   7.805  28.496   1.476
56619W        W25013  15.408  43.383  12.697
56620W        W25014  35.124  33.437  14.257
56621W        W25015  37.861  37.190   1.297
56622W        W25016  28.471  11.352  13.396
56623W        W25017  40.957  15.194   0.749
56624W        W25018   1.494  20.195  11.124
56625W        W25019  36.909  22.100   0.136
56626W        W25020  13.506  11.715  14.568
56627W        W25021   6.770  32.230  14.620
56628W        W25022  35.334  36.776   3.273
56629W        W25023  16.598  22.462   2.239
56630W        W25024  37.073  15.094  11.699
56631W        W25025  28.082  36.816   2.435
56632W        W25026  19.166  34.704   2.660
56633W        W25027  17.155  21.232  11.614
56634W        W25028   6.685  21.779   3.201
56635W        W25029   5.339  43.848   2.831
56636W        W25030  19.813  31.580  14.822
56637W        W25031  27.939   3.268  10.739
56638W        W25032  38.383   4.488  12.103
56639W        W25033  38.429  24.594  11.573
56640W        W25034  13.699  19.220  12.464
56641W        W25035  17.203  33.589   2.615
56642W        W25036  38.023  24.683  11.185
56643W        W25037  29.011  16.329  10.780
56644W        W25038  33.534  26.339  10.706
56645W        W25039  31.054  19.740  10.119
56646W        W25040  28.230  18.333   0.891
56647W        W25041   0.806  32.765   3.371
56648W        W25042  44.449  12.321   4.628
56649W        W25043   6.326  17.096  13.835
56650W        W25044   8.267  13.061  11.542
56651W        W25045  25.123   8.369   1.747
56652W        W25046   9.988   8.373  13.911
56653W        W25047  19.768  21.292  14.370
56654W        W25048   8.904   9.662  13.476
56655W        W25049  43.875  30.916   4.087
56656W        W25050  31.452  29.418   1.832
56657W        W25051   0.458  37.843   2.189
56658W        W25052  43.858   2.965   1.243
56659W        W25053  35.520  19.627  13.184
56660W        W25054  11.220  14.016   4.742
56661W        W25055  34.637  19.066   4.618
56662W        W25056  13.629  10.794  14.529
56663W        W25057  27.828  14.398   2.628
56664W        W25058   7.223  31.221   4.344
56665W        W25059  16.388  37.068  13.375
56666W        W25060  28.867  12.152   4.104
56667W        W25061  17.194  26.529   5.177
56668W        W25062  38.957  32.916   3.638
56669W        W25063   5.495  13.728  14.483
56670W        W25064  29.895   3.019   2.240
56671W        W25065  25.513  37.891  11.771
56672W        W25066   8.986   0.341  10.729
56673W        W25067  16.153   9.666  10.189
56674W        W25068   8.334  32.131  13.979
56675W        W25069  44.760  12.419   1.105
56676W        W25070  44.773   4.771  14.415
56677W        W25071  30.156  22.691   0.345
56678W        W25072  27.330  26.827  13.820
56679W        W25073  21.044  34.508   3.606
56680W        W25074  43.028  36.333   1.309
56681W        W25075  14.185  13.511  10.544
56682W        W25076   7.613  11.633   2.695
56683W        W25077  31.517  15.379  13.067
56684W        W25078  41.014  31.537   1.761
56685W        W25079  13.264   2.500  14.181
56686W        W25080  24.070  38.294   4.716
56687W        W25081  31.150   1.334  14.921
56688W        W25082  41.274  30.618  14.418
56689W        W25083  38.539  23.479  14.013
56690W        W25084  37.534   0.336   3.706
56691W        W25085  37.611  13.841   2.034
56692W        W25086   5.517  17.549   4.093
56693W        W25087  11.835  33.034   3.319
56694W        W25088  19.298  39.334   2.592
56695W        W25089  25.198  34.679  14.503
56696W        W25090  22.902   4.192  13.632
56697W        W25091   2.460  18.091   4.686
56698W        W25092  10.249   8.289   4.035
56699W        W25093  16.210   9.174  10.311
56700W        W25094  22.987  31.536  11.522
56701W        W25095   8.209  22.732   3.051
56702W        W25096   4.455  22.988   4.471
56703W        W25097  31.928  27.775   0.921
56704W        W25098   3.935  18.583  14.878
56705W        W25099   1.514  21.535   2.665
56706W        W25100  43.192  40.328  14.435
56707W        W25101  27.546  12.268   2.174
56708W        W25102  22.212  30.622   0.017
56709W        W25103  25.670  14.889   2.270
56710W        W25104  31.767  28.103   1.767
56711W        W25105  38.560  22.397  10.542
56712W        W25106  24.942  43.463  14.393
56713W        W25107  10.153   7.266  10.840
56714W        W25108  28.065  25.241  10.184
56715W        W25109  44.475  18.266  11.161
56716W        W25110  27.140  34.329   0.478
56717W        W25111   9.322  16.297  14.951
56718W        W25112  36.423  25.688  13.100
56719W        W25113  17.413  34.808   2.343
56720W        W25114  25.605  13.572  13.002
56721W        W25115  41.446   2.753  12.808
56722W        W25116  31.133  26.067  11.238
56723W        W25117  35.629  16.051   4.111
56724W        W25118   5.178  18.638  13.028
56725W        W25119  34.545   8.669  13.924
56726W        W25120   3.375  26.100  13.963
56727W        W25121  26.271   4.817  13.604
56728W        W25122  15.048  20.954  11.717
56729W        W25123  34.159  38.128   4.309
56730W        W25124  37.858  23.658   1.007
56731W        W25125  40.876  20.243  12.517
56732W        W25126   5.849  25.187   1.403
56733W        W25127   3.972  18.512  13.943
56734W        W25128  18.681  11.912   2.010
56735W        W25129  23.519  20.060   2.691
56736W        W25130  32.399  33.984   3.660
56737W        W25131   4.028  33.638  13.874
56738W        W25132  17.487  18.040  14.907
56739W        W25133  32.492  40.991   4.372
56740W        W25134   0.471  36.968  11.543
56741W        W25135  43.389  29.984   1.275
56742W        W25136  43.181   5.283  14.812
56743W        W25137  42.483  15.853   1.698
56744W        W25138  29.602  25.092  11.569
56745W        W25139  37.620  27.019   4.818
56746W        W25140  27.461   6.168   1.938
56747W        W25141  37.124  41.884   4.301
56748W        W25142   4.974  26.746   0.041
56749W        W25143  17.714  44.716   2.343
56750W        W25144  35.499  43.838   1.630
56751W        W25145  35.792  30.034   3.829
56752W        W25146  43.301  44.306  13.515
56753W        W25147   9.421  18.600   3.111
56754W        W25148   0.308  22.399   0.873
56755W        W25149  43.724   0.782  14.377
56756W        W25150   0.531  42.799  12.666
56757W        W25151   9.666   5.513  12.984
56758W        W25152   0.344  21.665  11.159
56759W        W25153  23.222  21.780   1.848
56760W        W25154  27.645  35.891   4.223
56761W        W25155  17.605   5.802   4.202
56762W        W25156  13.270  21.072  13.986
56763W        W25157  31.724   8.899   9.999
56764W        W25158  19.601  22.735  14.487
56765W        W25159  17.165  36.626  13.665
56766W        W25160  43.653  23.181  14.380
56767W        W25161   6.250  36.374   3.145
56768W        W25162   5.318  34.562  10.414
56769W        W25163  10.340  22.190  12.043
56770W        W25164  39.960   2.808   1.327
56771W        W25165  36.877  18.690   1.297
56772W        W25166   8.185   6.824  10.718
56773W        W25167  35.006  17.756  10.493
56774W        W25168  38.260   8.806  13.284
56775W        W25169   2.430   3.564   4.074
56776W        W25170   5.952   3.388   3.082
56777W        W25171   7.645  23.438   1.220
56778W        W25172  21.753   2.431   3.737
56779W        W25173  17.221  14.904   2.835
56780W        W25174  28.440  10.584   1.747
56781W        W25175  44.601  14.113   2.871
56782W        W25176   9.446  24.111  12.974
56783W        W25177   8.941  17.359   4.918
56784W        W25178  26.627  21.845  12.150
56785W        W25179  19.743  21.791   4.906
56786W        W25180  17.053  35.538  10.743
56787W        W25181  39.604  13.208   1.751
56788W        W25182  44.058  36.789   3.218
56789W        W25183  23.661  12.076  13.914
56790W        W25184  29.069   3.535   0.244
56791W        W25185  10.909  30.881  11.147
56792W        W25186  31.883   0.041   2.546
56793W        W25187   6.625  42.528  11.461
56794W        W25188  44.868   3.557  11.449
56795W        W25189  30.968  11.562  12.879
56796W        W25190  36.749  39.056  11.528
56797W        W25191  18.029   4.272  10.650
56798W        W25192  38.022  21.158  13.552
56799W        W25193  42.020  19.808  13.353
56800W        W25194  21.515  37.635  11.833
56801W        W25195  36.101   7.206  12.794
56802W        W25196   0.851  28.555  10.700
56803W        W25197  36.946   0.456  14.840
56804W        W25198  24.927  42.519   0.549
56805W        W25199  23.248  36.556  14.791
56806W        W25200  21.835   1.342  10.666
56807W        W25201  41.523  11.248   3.602
56808W        W25202  34.911  33.853  13.049
56809W        W25203  38.101  41.102   2.370
56810W        W25204   5.906  20.499  11.927
56811W        W25205  39.401   4.983  12.933
56812W        W25206  30.599  21.340   0.496
56813W        W25207  32.856  43.053  11.959
56814W        W25208   3.459   0.063  12.334
56815W        W25209   7.279  14.869   4.635
56816W        W25210   1.399  23.413   1.152
56817W        W25211  43.478  13.677  11.005
56818W        W25212  32.596  18.161  14.698
56819W        W25213  10.128  11.196   3.320
56820W        W25214  33.863  31.434   2.231
56821W        W25215  12.300  40.518  12.495
56822W        W25216  15.333  20.730   1.956
56823W        W25217  42.131  23.703  11.133
56824W        W25218  23.003  40.447   4.207
56825W        W25219  11.554   1.696  13.388
56826W        W25220  35.452  15.967  14.876
56827W        W25221   3.640   2.211   1.063
56828W        W25222  23.705  22.497  12.916
56829W        W25223  39.806  17.339   4.595
56830W        W25224   6.380  37.896   4.797
56831W        W25225  42.790   2.948  14.796
56832W        W25226  28.072  27.920   0.417
56833W        W25227  17.521  16.185   2.585
56834W        W25228  26.033  23.072  11.964
56835W        W25229  32.896   6.495   1.304
56836W        W25230  42.789   2.855  13.952
56837W        W25231  19.882  21.884  13.617
56838W        W25232  16.789   7.082  14.974
56839W        W25233  32.626  36.677   1.292
56840W        W25234  28.544   5.699   0.355
56841W        W25235   7.946  16.774  11.298
56842W        W25236  21.295  31.494  13.931
56843W        W25237  20.655  36.031   4.622
56844W        W25238  26.721  41.257  13.825
56845W        W25239  20.206  13.136  11.472
56846W        W25240   1.638  24.294  11.117
56847W        W25241   5.308  24.592   2.720
56848W        W25242  42.305   0.869   0.854
56849W        W25243  29.891  26.922   0.346
56850W        W25244  15.535  37.525   0.436
56851W        W25245  11.371  29.924  10.584
56852W        W25246   0.258  40.293  12.660
56853W        W25247  24.942  37.350  13.858
56854W        W25248   5.535   0.324  13.329
56855W        W25249  29.246  31.659  13.296
56856W        W25250  19.786  44.917  14.751
56857W        W25251  27.070  24.655   1.019
56858W        W25252   1.645  14.586   1.369
56859W        W25253  38.370   5.409  11.472
56860W        W25254   0.817  11.182  12.872
56861W        W25255  33.133  40.496   4.860
56862W        W25256  37.684  13.928   2.547
56863W        W25257  40.836  35.884  13.309
56864W        W25258  20.171   2.991  11.921
56865W        W25259  32.607   8.918   0.827
56866W        W25260  28.106  15.241  11.700
56867W        W25261  17.864  33.500   1.491
56868W        W25262   9.764  25.967   2.053
56869W        W25263  11.120  13.794  14.714
56870W        W25264   2.915   2.882   3.748
56871W        W25265  35.567  25.807   0.262
56872W        W25266  33.957  13.803  13.411
56873W        W25267  42.373  35.099  10.147
56874W        W25268  14.898  24.005  13.420
56875W        W25269  40.748  32.175  11.673
56876W        W25270  35.924  43.476  11.182
56877W        W25271  31.484   2.286  14.758
56878W        W25272   4.413   2.309  12.864
56879W        W25273  34.190  21.172  11.407
56880W        W25274  25.490  17.309  11.075
56881W        W25275  42.406  25.895  12.777
56882W        W25276  36.854  17.752  10.629
56883W        W25277   3.936  36.473  13.309
56884W        W25278  38.551  43.841  13.501
56885W        W25279  38.847  19.477  11.653
56886W        W25280  36.094  40.706   3.913
56887W        W25281  29.218  27.298   4.572
56888W        W25282  37.029  17.644  14.365
56889W        W25283  32.860  29.662   1.687
56890W        W25284  18.537  34.420   4.465
56891W        W25285   0.211  39.604   0.829
56892W        W25286  26.943   2.405  10.778
56893W        W25287   6.799   4.763   3.005
56894W        W25288  37.347   1.365  13.834
56895W        W25289  32.513  25.207  13.986
56896W        W25290   4.818  32.519  14.942
56897W        W25291  16.259   1.491  13.016
56898W        W25292   8.731  23.825   4.615
56899W        W25293  32.097   9.634   5.178
56900W        W25294  40.671  44.482  12.865
56901W        W25295   6.278   2.175   0.379
56902W        W25296  37.942  41.287  14.794
56903W        W25297  19.699  17.826  12.371
56904W        W25298  17.262  29.166  14.437
56905W        W25299  14.589  37.144   4.416
56906W        W25300  28.500  21.242  11.496
56907W        W25301  26.745  11.551  12.422
56908W        W25302  35.814  34.355  14.318
56909W        W25303  16.807   2.094  13.460
56910W        W25304  32.974  10.828   4.275
56911W        W25305  21.022  27.904   3.598
56912W        W25306  19.803  30.019   0.820
56913W        W25307  37.252  21.418   4.151
56914W        W25308  19.843  16.110   3.274
56915W        W25309  28.599   0.461  14.901
56916W        W25310   5.815  41.890   1.438
56917W        W25311  32.996  31.047   3.626
56918W        W25312  14.834   9.637  13.550
56919W        W25313   8.789  12.523   2.317
56920W        W25314   5.755   5.492   2.258
56921W        W25315  44.533  37.951  14.670
56922W        W25316  41.316   4.406  13.082
56923W        W25317   4.973   2.312  11.155
56924W        W25318  28.285   6.631  11.328
56925W        W25319  17.259   8.678   0.253
56926W        W25320  31.017  35.085  11.634
56927W        W25321  41.767   1.080  10.736
56928W        W25322  35.027  43.697   4.049
56929W        W25323  12.614  18.240  10.647
56930W        W25324  41.002  34.024   3.612
56931W        W25325   8.408  43.461   4.889
56932W        W25326  26.223  35.876   0.720
56933W        W25327   0.253  44.247  12.436
56934W        W25328  20.536  38.348  12.483
56935W        W25329   8.310   2.644   4.630
56936W        W25330   4.672  28.062   1.704
56937W        W25331  40.804  11.801  13.404
56938W        W25332  33.154  23.331  12.192
56939W        W25333  34.518  21.594   0.405
56940W        W25334  13.617  43.335   4.641
56941W        W25335  38.588  31.884  14.508
56942W        W25336  43.966  40.292  10.306
56943W        W25337   0.882  41.075   3.863
56944W        W25338  19.714   8.486   2.742
56945W        W25339  28.907   3.957  11.217
56946W        W25340  17.631  21.427  11.570
56947W        W25341  35.076  19.516   2.843
56948W        W25342  31.611   6.113  13.851
56949W        W25343  42.098  44.850   2.630
56950W        W25344  31.966  26.732   4.026
56951W        W25345  33.142  28.585   3.307
56952W        W25346  40.042   9.519   1.837
56953W        W25347  37.210  36.359   3.324
56954W        W25348   1.917  27.770   3.328
56955W        W25349   3.843  43.365  11.554
56956W        W25350   2.396  27.533   4.190
56957W        W25351  13.211  32.370   0.812
56958W        W25352  41.390  43.829   1.010
56959W        W25353   8.661   4.157   2.206
56960W        W25354   5.355  22.648  13.011
56961W        W25355  40.063   4.768  12.120
56962W        W25356   6.323  27.195   0.385
56963W        W25357  27.993   8.608  12.947
56964W        W25358   6.693  12.069   0.895
56965W        W25359   9.732   9.668   4.896
56966W        W25360  42.226  39.242  12.933
56967W        W25361  16.241  29.536  11.626
56968W        W25362  30.222  19.727  11.931
56969W        W25363   0.955   4.661  14.291
56970W        W25364   9.548  32.597  11.592
56971W        W25365  33.520  30.613  13.611
56972W        W25366  38.303  38.818  13.435
56973W        W25367   9.117  39.017   4.199
56974W        W25368   7.192  41.625  13.350
56975W        W25369   0.535   4.576   3.969
56976W        W25370  23.769  10.075  10.082
56977W        W25371  16.653  10.635   4.505
56978W        W25372  18.614  25.196   1.512
56979W        W25373  24.477  21.676  13.342
56980W        W25374  31.364  11.728  14.633
56981W        W25375  18.324  30.128  11.269
56982W        W25376  42.616   6.270   1.459
56983W        W25377  26.324  37.776   2.929
56984W        W25378  30.698   8.367  13.919
56985W        W25379   9.028  27.484  10.480
56986W        W25380  44.800  37.873  13.482
56987W        W25381   1.462  37.922   4.084
56988W        W25382  25.407   7.485  11.173
56989W        W25383  23.687  17.225   3.957
56990W        W25384  31.237  22.738  10.048
56991W        W25385  12.619  11.722   2.239
56992W        W25386  25.523  21.169  10.510
56993W        W25387  19.918  24.924   2.754
56994W        W25388   0.663  13.964  14.932
56995W        W25389  42.414  18.237  11.510
56996W        W25390  15.719   3.196   3.432
56997W        W25391  18.664  11.452   2.502
56998W        W25392  14.656  41.634   1.310
56999W        W25393  10.124   3.695  11.860
57000W        W25394  13.852  27.968   0.390
57001W        W25395  32.933   7.133  12.406
57002W        W25396  10.090   6.328   2.689
57003W        W25397  43.806  19.081   0.791
57004W        W25398  44.871  17.238   4.435
57005W        W25399  42.005  19.537  14.898
57006W        W25400   3.856  15.664   3.537
57007W        W25401  21.525  43.022   3.294
57008W        W25402  13.220  10.092  12.472
57009W        W25403  12.322  31.517  11.595
57010W        W25404  28.055  38.771   2.807
57011W        W25405  33.414   4.750   3.756
57012W        W25406  26.262   8.151   1.731
57013W        W25407  32.556  19.786  12.891
57014W        W25408  33.557  20.665   1.759
57015W        W25409  24.489  32.993  11.516
57016W        W25410  24.759   2.367  12.551
57017W        W25411  13.983  26.990   3.096
57018W        W25412  29.461  30.463   1.739
57019W        W25413   1.892  15.586   5.077
57020W        W25414  11.364  18.484   0.013
57021W        W25415  11.711  33.836   2.675
57022W        W25416   9.679  31.078   2.410
57023W        W25417  39.967   0.458   4.281
57024W        W25418   5.359  16.363   4.856
57025W        W25419  30.615   1.237   4.542
57026W        W25420  17.161  39.595  12.178
57027W        W25421  21.557   4.798   1.176
57028W        W25422   9.264  43.388  13.940
57029W        W25423   9.269  29.883   3.021
57030W        W25424   3.294  43.172  12.313
57031W        W25425  30.506  16.342   3.351
57032W        W25426  15.348  10.279   0.370
57033W        W25427  16.590  13.341   2.009
57034W        W25428  21.145   6.939  14.508
57035W        W25429  43.993  37.285   3.140
57036W        W25430   1.671  24.790   0.803
57037W        W25431   9.609  16.394  13.976
57038W        W25432  35.632  30.129   4.629
57039W        W25433  11.122   5.476   3.165
57040W        W25434   8.910   6.105  11.565
57041W        W25435  28.649  12.842  11.639
57042W        W25436  32.222  39.470   3.578
57043W        W25437  24.557  19.560   0.315
57044W        W25438  33.943  38.370  14.772
57045W        W25439   5.279  36.594  13.568
57046W        W25440  30.024  35.390  10.711
57047W        W25441  18.103   8.688   4.285
57048W        W25442  24.209  22.093  10.641
57049W        W25443  29.058  27.215   1.439
57050W        W25444  36.498  42.866  14.000
57051W        W25445  11.804  42.988   2.920
57052W        W25446  14.304  41.384   4.755
57053W        W25447   0.668  25.557   0.863
57054W        W25448   8.164  23.962  12.500
57055W        W25449  22.953  14.536   0.787
57056W        W25450  24.204  16.318   1.896
57057W        W25451  44.862  29.643  14.627
57058W        W25452  23.416  13.544   1.876
57059W        W25453   4.877  17.745   2.326
57060W        W25454  19.618  35.692   0.269
57061W        W25455   9.800  23.511  10.743
57062W        W25456  27.518   9.417  12.946
57063W        W25457  31.183   9.211   2.920
57064W        W25458  35.262  15.502  14.925
57065W        W25459   7.065   2.387  12.577
57066W        W25460   5.465   5.854   1.231
57067W        W25461   5.700   4.622  12.370
57068W        W25462  28.657  44.107  10.956
57069W        W25463  19.250  34.009  12.493
57070W        W25464   9.335  18.592  13.718
57071W        W25465  15.022  26.001   2.475
57072W        W25466  19.254  36.170  11.099
57073W        W25467  21.979  27.580   3.106
57074W        W25468  23.326  24.677   2.388
57075W        W25469   6.918  44.578   0.261
57076W        W25470  23.041  20.032  10.769
57077W        W25471  30.362  22.293  13.469
57078W        W25472  24.468   1.043   3.602
57079W        W25473  10.709  11.836  12.358
57080W        W25474   4.800  25.541   5.442
57081W        W25475  30.455  39.583  13.993
57082W        W25476  33.001  11.774  14.771
57083W        W25477  34.525  17.854   1.817
57084W        W25478  30.181   8.471  11.868
57085W        W25479   5.069  15.796   5.008
57086W        W25480  32.966  23.668  14.712
57087W        W25481  15.694  30.922   2.301
57088W        W25482   0.760  42.075  11.943
57089W        W25483  26.621  31.023   4.491
57090W        W25484  10.748  13.714   1.080
57091W        W25485  17.239  17.502  13.869
57092W        W25486  44.641   9.267  11.120
57093W        W25487  38.879  41.100  11.181
57094W        W25488  12.042  11.843  14.711
57095W        W25489  18.058   7.786   4.555
57096W        W25490  41.499  36.067   2.775
57097W        W25491   2.451   9.602   4.332
57098W        W25492  17.749  32.556   0.969
57099W        W25493  17.179  17.498   3.636
57100W        W25494  44.578  20.288   4.126
57101W        W25495  29.757   9.851  14.486
57102W        W25496   9.226   6.725   1.282
57103W        W25497  39.608   4.207   0.363
57104W        W25498  18.521   6.467  13.558
57105W        W25499  42.579  15.314   0.567
57106W        W25500  35.028   6.241   2.236
57107W        W25501   2.754  22.262   0.841
57108W        W25502  36.922  10.657   1.199
57109W        W25503  28.453  28.564  12.441
57110W        W25504  17.485  15.314   2.630
57111W        W25505  44.996  29.889  11.662
57112W        W25506  21.204  25.703   3.602
57113W        W25507  43.046  29.657  13.380
57114W        W25508  38.854   4.368   0.301
57115W        W25509  17.193   7.414  10.338
57116W        W25510  43.842  12.398   0.763
57117W        W25511  25.505  36.797  12.396
57118W        W25512  15.591  29.372  11.435
57119W        W25513  26.970   8.728  11.108
57120W        W25514   2.544  22.459  14.431
57121W        W25515  13.678  35.825  11.638
57122W        W25516  22.826  43.904  10.550
57123W        W25517  36.074  26.994   1.493
57124W        W25518   0.282  21.164   2.879
57125W        W25519  39.301   2.539   2.730
57126W        W25520  42.251   4.579   0.212
57127W        W25521  31.996  42.598   3.752
57128W        W25522  44.888  43.789   4.319
57129W        W25523  19.623  25.651   3.796
57130W        W25524  23.797  20.342   0.432
57131W        W25525  36.675  17.926   3.439
57132W        W25526  27.522  39.091   0.212
57133W        W25527  40.428  20.290  12.259
57134W        W25528  36.030  12.586  11.699
57135W        W25529  38.370  13.385   2.099
57136W        W25530  38.558  23.371   3.149
57137W        W25531   2.427  20.141  12.441
57138W        W25532  41.413  44.450  11.957
57139W        W25533  29.620  27.531   0.937
57140W        W25534  34.399  25.886  14.383
57141W        W25535   0.789  43.224  12.914
57142W        W25536  21.072  38.126   1.830
57143W        W25537   1.061  21.931  12.020
57144W        W25538   1.486  43.049  14.931
57145W        W25539  10.902  41.328  13.896
57146W        W25540   6.394  18.015  13.951
57147W        W25541   1.886  33.969   3.906
57148W        W25542  43.928   0.214  11.186
57149W        W25543  44.268  34.218  11.394
57150W        W25544   3.742  18.121  14.668
57151W        W25545  19.606  29.438  13.053
57152W        W25546  41.431  36.442   2.342
57153W        W25547  36.285  23.446   4.616
57154W        W25548  22.483  40.963  13.941
57155W        W25549  20.629  25.200   1.400
57156W        W25550  16.320  38.927  13.487
57157W        W25551  26.045  23.476  12.848
57158W        W25552  41.798   9.918   2.187
57159W        W25553  20.080  43.586   3.119
57160W        W25554  32.439  41.396   2.039
57161W        W25555  44.783  20.070  11.573
57162W        W25556  39.965  39.698   0.380
57163W        W25557  35.391  25.052   0.313
57164W        W25558  20.728   7.150   3.424
57165W        W25559   7.626   9.156   1.332
57166W        W25560   2.198  20.185  13.006
57167W        W25561   4.810  13.155  13.033
57168W        W25562   3.275  28.414  12.591
57169W        W25563  24.181   3.577  10.286
57170W        W25564  29.720  34.809   2.429
57171W        W25565  18.559  37.639  14.785
57172W        W25566   2.242  15.595   0.682
57173W        W25567  25.812  44.533  14.818
57174W        W25568   9.409  22.583  13.137
57175W        W25569   0.299  16.286  11.162
57176W        W25570  24.543  23.997  14.891
57177W        W25571  12.362  13.312   3.765
57178W        W25572  30.592  28.587  14.130
57179W        W25573  44.748   5.370   0.899
57180W        W25574  24.000   0.350   4.375
57181W        W25575  16.953  35.618  13.381
57182W        W25576  18.840   4.855  13.324
57183W        W25577  44.570  26.518  13.123
57184W        W25578  23.405   5.775  12.132
57185W        W25579  24.653  42.677  11.198
57186W        W25580   1.418  34.039   0.559
57187W        W25581  17.203  35.093  12.094
57188W        W25582  42.819  25.612   2.765
57189W        W25583   5.153  42.500   3.267
57190W        W25584  28.677  42.627  11.901
57191W        W25585  23.965   2.671   3.262
57192W        W25586  41.501  30.044   0.332
57193W        W25587   0.365  37.675   5.226
57194W        W25588  24.117   2.452   2.139
57195W        W25589  26.583  13.614  14.035
57196W        W25590  35.366  38.155   0.678
57197W        W25591  14.286  40.633  11.190
57198W        W25592  43.005  10.709  11.409
57199W        W25593  23.092  36.434   0.920
57200W        W25594  44.005  23.772   3.782
57201W        W25595  42.945  35.109   1.831
57202W        W25596  12.511  25.656  14.063
57203W        W25597  20.966  41.849   2.171
57204W        W25598  14.646   5.222  10.273
57205W        W25599  22.445   4.144   4.757
57206W        W25600  42.776  40.263   4.110
57207W        W25601  35.377   6.775  10.454
57208W        W25602  42.299  20.145  11.965
57209W        W25603   7.904  35.954   2.906
57210W        W25604  43.264   7.614  14.811
57211W        W25605   3.191  17.173   0.209
57212W        W25606  25.583   6.441   0.494
57213W        W25607   7.886  28.167  12.427
57214W        W25608  43.543  26.729   2.832
57215W        W25609  32.947   2.248   3.209
57216W        W25610  10.283  24.519  14.877
57217W        W25611   0.975  44.028   0.049
57218W        W25612  18.622  33.413  12.052
57219W        W25613  21.956   5.900   3.648
57220W        W25614  14.590  31.505   1.026
57221W        W25615  38.094  40.497   4.798
57222W        W25616  33.883   5.530  13.023
57223W        W25617  32.401  44.603  10.706
57224W        W25618  26.660  36.963  12.505
57225W        W25619  31.604   1.508   2.396
57226W        W25620  12.353   7.432  13.889
57227W        W25621  31.649  42.512  12.085
57228W        W25622  19.006   3.903  14.002
57229W        W25623  38.262  43.208  11.621
57230W        W25624  14.148  34.155  10.689
57231W        W25625  15.375  35.941  11.921
57232W        W25626  19.096  20.514  12.595
57233W        W25627  26.639   8.839  14.293
57234W        W25628  39.081   2.713   2.284
57235W        W25629  17.681  33.057  14.766
57236W        W25630  24.835  26.548  13.381
57237W        W25631  24.159  13.823   4.569
57238W        W25632  30.273  26.514  11.657
57239W        W25633  34.852   8.187  13.097
57240W        W25634  39.901  34.862  12.397
57241W        W25635  29.392   6.224   4.111
57242W        W25636  14.766  26.907  11.753
57243W        W25637  36.328  32.652  11.032
57244W        W25638  10.638  16.088   2.008
57245W        W25639  44.768  13.710   2.608
57246W        W25640  35.011  17.878  12.517
57247W        W25641  43.934   5.511   3.290
57248W        W25642  24.765  19.080  14.388
57249W        W25643  12.230  26.109  14.659
57250W        W25644  10.582  36.618   3.839
57251W        W25645   6.712  31.578  11.777
57252W        W25646  18.396  27.465  13.812
57253W        W25647  21.589  23.211   0.737
57254W        W25648   4.617  28.045   3.103
57255W        W25649  18.925  30.444   1.482
57256W        W25650  16.731  13.132   0.812
57257W        W25651  21.319  11.137  14.777
57258W        W25652   1.720   0.955   2.213
57259W        W25653   5.850   9.833  10.657
57260W        W25654  17.073  26.984   9.797
57261W        W25655  19.228   9.079   1.355
57262W        W25656   6.444  44.210   3.870
57263W        W25657  14.882   7.668   1.206
57264W        W25658  44.093  18.256   1.421
57265W        W25659  15.619  39.910   4.390
57266W        W25660  32.042  36.397  13.167
57267W        W25661  37.018  39.939   1.717
57268W        W25662   4.629   9.902   4.628
57269W        W25663  18.098  24.579  13.611
57270W        W25664  36.715   0.940  12.091
57271W        W25665  12.539   6.191  11.445
57272W        W25666   4.856  29.958   1.851
57273W        W25667  35.673  35.125  10.429
57274W        W25668   2.350  39.808   2.343
57275W        W25669  29.895  30.625  13.566
57276W        W25670   8.866  32.014   3.686
57277W        W25671  36.891  43.807   4.442
57278W        W25672  39.602  25.000   0.433
57279W        W25673  25.628  34.384  13.826
57280W        W25674  41.769  14.597  13.496
57281W        W25675  36.452   8.862   1.949
57282W        W25676   0.728  19.647  11.422
57283W        W25677  22.524  43.265  13.253
57284W        W25678  25.384  31.477   2.204
57285W        W25679  36.275  14.266  13.553
57286W        W25680   4.730  35.158   3.766
57287W        W25681  24.706  33.601  12.908
57288W        W25682  41.401   9.683  14.799
57289W        W25683  32.076  38.464   1.689
57290W        W25684   3.915  10.111   0.501
57291W        W25685  41.107  30.943   4.283
57292W        W25686  24.050  25.423  14.465
57293W        W25687   8.345  28.014  14.285
57294W        W25688   0.867  20.420  12.948
57295W        W25689  14.696   1.455  14.891
57296W        W25690  26.778  34.491   4.583
57297W        W25691  25.746  26.415  11.582
57298W        W25692  30.149   1.511  12.942
57299W        W25693  33.383  29.620   1.702
57300W        W25694  22.266   5.229   3.610
57301W        W25695  43.399  26.585   1.446
57302W        W25696  15.739  18.723  11.586
57303W        W25697  41.442  16.312   4.594
57304W        W25698   4.811  40.187  12.086
57305W        W25699  40.856  36.023  13.814
57306W        W25700   0.032  20.166  12.049
57307W        W25701  32.042  12.057   3.183
57308W        W25702  21.969  11.803  10.201
57309W        W25703  42.485  24.840  11.900
57310W        W25704  27.990   3.552  12.471
57311W        W25705  17.749  44.293   1.555
57312W        W25706  42.561  42.994  13.731
57313W        W25707  13.265  37.856  10.590
57314W        W25708   4.634   4.094  12.553
57315W        W25709  29.416  21.975  11.028
57316W        W25710  39.346  21.111  14.743
57317W        W25711   0.332  15.894  12.819
57318W        W25712  35.808   4.715  13.524
57319W        W25713  36.994  26.442   3.895
57320W        W25714  30.670   6.047   4.136
57321W        W25715  19.168   2.236  12.074
57322W        W25716  38.979  16.892   4.200
57323W        W25717   4.866  39.872   0.295
57324W        W25718   8.971  31.886  13.047
57325W        W25719  20.027  41.323  14.829
57326W        W25720  27.438  14.756   1.693
57327W        W25721  32.313  11.811  12.453
57328W        W25722   2.672  41.772   2.356
57329W        W25723   6.060  43.458  10.745
57330W        W25724   2.928  36.407  11.655
57331W        W25725  36.473  31.400  11.581
57332W        W25726   1.734  34.299   3.154
57333W        W25727   3.351   3.223  12.578
57334W        W25728  40.314  16.183   1.660
57335W        W25729  43.424  23.997  11.661
57336W        W25730  42.452  11.416  14.317
57337W        W25731  42.529   3.386   2.340
57338W        W25732  15.564  38.874   4.200
57339W        W25733  36.322  20.158   4.403
57340W        W25734   0.855  37.341  13.002
57341W        W25735  18.925  15.355  13.482
57342W        W25736  16.825  23.755   0.262
57343W        W25737  33.622  22.983   4.784
57344W        W25738  25.515  15.547   4.187
57345W        W25739   9.145  28.964  14.086
57346W        W25740   2.819   9.076   0.798
57347W        W25741  26.678  26.927  11.683
57348W        W25742  29.819  31.555   2.377
57349W        W25743  21.687  37.451  13.449
57350W        W25744   3.295  11.922  10.241
57351W        W25745  14.606  17.478   0.408
57352W        W25746   4.970  38.125   2.722
57353W        W25747  22.787   1.964  14.897
57354W        W25748  43.515   3.976   0.751
57355W        W25749  29.172  23.533  13.380
57356W        W25750  30.547  40.543   1.648
57357W        W25751   6.783  19.633  11.948
57358W        W25752   7.807   0.763  14.737
57359W        W25753  10.266   6.424   4.519
57360W        W25754   2.804  39.392  10.925
57361W        W25755  20.553  17.760   0.419
57362W        W25756  27.831   8.680   5.073
57363W        W25757  31.140   2.779  14.943
57364W        W25758  34.120  15.824   0.893
57365W        W25759  25.336  21.348   1.195
57366W        W25760   7.096  12.294   1.147
57367W        W25761  23.099  29.837  11.976
57368W        W25762  35.531  20.107   3.329
57369W        W25763  42.513   8.187  13.348
57370W        W25764   0.459  11.858  12.903
57371W        W25765  35.751  28.261   4.293
57372W        W25766  13.236   9.289   3.205
57373W        W25767  40.946  12.384   1.453
57374W        W25768  43.735  19.270  13.562
57375W        W25769  32.055  39.560   0.990
57376W        W25770  43.504   0.573  13.865
57377W        W25771  34.524  34.851   0.362
57378W        W25772  36.569  27.079   2.199
57379W        W25773  35.376   2.477   2.372
57380W        W25774  41.034  22.140   1.134
57381W        W25775  37.572  42.073   4.109
57382W        W25776  15.158  23.519  12.581
57383W        W25777  44.961   4.404  11.447
57384W        W25778  26.006  31.484  14.992
57385W        W25779  38.864   1.208  12.466
57386W        W25780  23.233  34.465   1.416
57387W        W25781  35.962   8.716   0.547
57388W        W25782   8.125  37.288   4.495
57389W        W25783  25.989   7.385   4.210
57390W        W25784  33.389   1.107  13.564
57391W        W25785  38.385  35.236  12.792
57392W        W25786  17.154  12.864   5.102
57393W        W25787  18.238  38.536   4.151
57394W        W25788  32.579  40.496   4.233
57395W        W25789  14.209  38.376  11.609
57396W        W25790  12.600  43.842  12.033
57397W        W25791  22.981   6.092   3.656
57398W        W25792   8.160  19.022   2.134
57399W        W25793  16.707  37.765   4.214
57400W        W25794  42.708  16.578  14.275
57401W        W25795  18.453  33.691   3.187
57402W        W25796   9.858   2.270   1.428
57403W        W25797  43.874  34.457   4.636
57404W        W25798   0.295  43.030   4.185
57405W        W25799  11.810  29.126   0.724
57406W        W25800   8.887  16.026  14.200
57407W        W25801   8.379  15.774   0.344
57408W        W25802  22.036  20.095   0.870
57409W        W25803  12.381  36.395   3.953
57410W        W25804  44.793  44.871   3.286
57411W        W25805   6.110   3.389   4.614
57412W        W25806  40.320  39.182   5.088
57413W        W25807  27.990  10.795  10.887
57414W        W25808  35.239  37.287   1.319
57415W        W25809   5.267  30.060   4.139
57416W        W25810  27.343  44.896   2.132
57417W        W25811   8.267   2.482  13.936
57418W        W25812  29.450  24.932  12.034
57419W        W25813  14.261  17.757   3.911
57420W        W25814  35.004  11.852   0.831
57421W        W25815  22.013  32.560   0.161
57422W        W25816  10.303  26.606   2.219
57423W        W25817   2.742  20.728  10.756
57424W        W25818   7.214  36.963   3.351
57425W        W25819  19.747  41.398  14.294
57426W        W25820  23.431  28.185  10.949
57427W        W25821   1.034  11.295   1.828
57428W        W25822  18.505  25.587  12.925
57429W        W25823  12.618  38.074   2.572
57430W        W25824  22.528  41.789   0.765
57431W        W25825  32.022  13.881   4.606
57432W        W25826  34.429  42.846   2.459
57433W        W25827  26.962  15.178  14.916
57434W        W25828  40.833  14.157   0.301
57435W        W25829   6.846  39.828   4.337
57436W        W25830  24.929  18.125  14.103
57437W        W25831   2.699  24.973  10.587
57438W        W25832  44.757  41.448  13.493
57439W        W25833  32.697  12.864   0.195
57440W        W25834   4.891   1.247   1.113
57441W        W25835  27.184  30.008  11.953
57442W        W25836   3.802  15.332   4.055
57443W        W25837  27.425  44.993  14.657
57444W        W25838   8.320  36.921  11.060
57445W        W25839  39.915   1.719  14.420
57446W        W25840  22.230  11.198   2.734
57447W        W25841  32.120  20.734   4.498
57448W        W25842  20.637  13.652   0.469
57449W        W25843  15.631  34.535  10.188
57450W        W25844  23.334  28.686   3.736
57451W        W25845   2.379  12.090  14.727
57452W        W25846  34.730  37.310   1.268
57453W        W25847  39.087  15.511   4.569
57454W        W25848  30.349  31.030  13.095
57455W        W25849  34.538  21.473  12.669
57456W        W25850  16.842  39.441  10.995
57457W        W25851  37.479  30.836   2.388
57458W        W25852  40.072  24.512  13.984
57459W        W25853   3.396  28.621   3.304
57460W        W25854   6.261   6.972   5.267
57461W        W25855  21.268  38.365   2.249
57462W        W25856   0.455  43.260  14.039
57463W        W25857  41.034  30.524   3.689
57464W        W25858  32.985  27.028  11.961
57465W        W25859  11.898  24.065   2.006
57466W        W25860  34.949  37.570  14.538
57467W        W25861  15.737  20.809  14.832
57468W        W25862  12.784  41.148   2.694
57469W        W25863  34.900   9.618   0.296
57470W        W25864  28.667  39.927  14.324
57471W        W25865  15.228  10.931  13.443
57472W        W25866  27.007   7.849  10.795
57473W        W25867  10.641   7.033   1.331
57474W        W25868  15.629  33.090  12.884
57475W        W25869   3.265  15.772   1.296
57476W        W25870  15.455  38.848   2.166
57477W        W25871  25.821  24.301   2.792
57478W        W25872  13.676  19.175  12.971
57479W        W25873  36.043  20.010   0.928
57480W        W25874  23.552  39.786  13.572
57481W        W25875  17.250  18.833   3.404
57482W        W25876  38.851  10.887   0.854
57483W        W25877  19.307   8.266   1.976
57484W        W25878  14.064  39.470   2.363
57485W        W25879  20.767   0.363   1.850
57486W        W25880   6.450  15.009  11.162
57487W        W25881   6.623  41.485  10.441
57488W        W25882   2.298   9.097   0.803
57489W        W25883  30.965  23.728  11.725
57490W        W25884  42.925  41.495  13.519
57491W        W25885  41.237  21.028  14.299
57492W        W25886  22.702  17.303   3.443
57493W        W25887  23.314  25.051  11.897
57494W        W25888  40.474   1.793  13.535
57495W        W25889   8.756  42.556   3.606
57496W        W25890  29.169  10.275  12.937
57497W        W25891  43.456  13.776  12.380
57498W        W25892  31.626  17.766  11.581
57499W        W25893  32.467  28.398  14.988
57500W        W25894  38.418  43.252  12.463
57501W        W25895  17.267  41.371   4.480
57502W        W25896   2.877   8.056  13.753
57503W        W25897  32.937  11.253  14.917
57504W        W25898  10.993  15.105  11.996
57505W        W25899   2.964   5.696  13.370
57506W        W25900  29.953  40.679   2.299
57507W        W25901   8.943   7.973  10.789
57508W        W25902   8.202  31.533   4.204
57509W        W25903  25.468  21.441  14.364
57510W        W25904  13.216   7.467   1.234
57511W        W25905  18.632  15.997   0.053
57512W        W25906  20.542  42.087   1.314
57513W        W25907   2.344  24.989   1.270
57514W        W25908  24.953  30.694   1.189
57515W        W25909  32.420  41.911  12.994
57516W        W25910  27.484  23.144   4.727
57517W        W25911   9.396   0.518  11.520
57518W        W25912  28.176  28.001   4.024
57519W        W25913  14.672  39.583  14.451
57520W        W25914  27.195  40.960  14.477
57521W        W25915   6.765  37.862   0.770
57522W        W25916  23.269  22.442  11.561
57523W        W25917  11.711   0.351   4.514
57524W        W25918  31.974   6.658  11.590
57525W        W25919  20.107  23.742  10.847
57526W        W25920  25.105  19.541   1.930
57527W        W25921  34.977  17.710   4.915
57528W        W25922  27.022  19.379  14.084
57529W        W25923   4.413  37.049  13.106
57530W        W25924  12.102  35.361   0.442
57531W        W25925  17.609   1.748  10.701
57532W        W25926  25.166   7.415   2.300
57533W        W25927  27.224  15.222   0.914
57534W        W25928   5.949  12.732   4.546
57535W        W25929  28.953   0.921  11.560
57536W        W25930  44.686  26.973  14.319
57537W        W25931  16.658  10.355  14.688
57538W        W25932  31.557  18.039  14.920
57539W        W25933  40.110  21.678   1.236
57540W        W25934  29.578   4.634   3.389
57541W        W25935  25.171   2.283  11.202
57542W        W25936  17.691  22.250  11.251
57543W        W25937  40.053  14.143  14.924
57544W        W25938   5.214  13.717   2.631
57545W        W25939   5.395  10.869   0.465
57546W        W25940  37.364  40.631  12.244
57547W        W25941  39.779  30.483  14.520
57548W        W25942  20.750   6.025  10.335
57549W        W25943  10.265   4.264   0.520
57550W        W25944   8.112   4.993   0.674
57551W        W25945  41.423  32.722   1.816
57552W        W25946  27.631  27.987   4.060
57553W        W25947  35.830  40.439  14.442
57554W        W25948  36.184  30.013  14.416
57555W        W25949  15.184  13.145  12.936
57556W        W25950  21.693  27.654  14.962
57557W        W25951  11.785  37.308   3.691
57558W        W25952  16.330  42.452   2.578
57559W        W25953  29.853  26.206  14.970
57560W        W25954  18.808  44.357   2.591
57561W        W25955  25.663  31.216   0.260
57562W        W25956  20.744   9.747   3.326
57563W        W25957  30.644  38.396   4.635
57564W        W25958   2.919   2.393   2.317
57565W        W25959  13.739  39.339  14.531
57566W        W25960   7.456  43.969   2.335
57567W        W25961  33.128  15.135  12.030
57568W        W25962  41.344  20.210   5.003
57569W        W25963  25.508  11.133  14.239
57570W        W25964  29.928  14.938   0.831
57571W        W25965  19.584  41.811   1.237
57572W        W25966  12.718  35.136   2.850
57573W        W25967  25.018  13.746  12.199
57574W        W25968  37.054  41.110  14.347
57575W        W25969   3.388  33.010  11.694
57576W        W25970  39.361  35.408   1.879
57577W        W25971  16.206  16.301   2.020
57578W        W25972   4.381   7.811   3.459
57579W        W25973   8.717  28.157   4.726
57580W        W25974  21.684  32.246  11.484
57581W        W25975  44.927  40.059  11.649
57582W        W25976  10.666  20.791   1.130
57583W        W25977  26.416  17.813   3.755
57584W        W25978   9.962   0.541  11.084
57585W        W25979   5.107  11.693  11.162
57586W        W25980  20.065  22.753  12.371
57587W        W25981  14.214  16.320   3.133
57588W        W25982   5.580  31.769   4.313
57589W        W25983  40.522  36.654  13.057
57590W        W25984  41.515   0.793   0.314
57591W        W25985  15.035  37.502   2.262
57592W        W25986  20.686  24.228   4.626
57593W        W25987  31.912  37.345   0.317
57594W        W25988   9.339  27.118   4.114
57595W        W25989  37.914  21.525  13.158
57596W        W25990  36.167  32.639  14.728
57597W        W25991  38.524  13.049  14.761
57598W        W25992   1.337  13.667  11.173
57599W        W25993   6.151  20.945   2.302
57600W        W25994  22.552   1.199  10.190
57601W        W25995  32.079  43.364   1.251
57602W        W25996  42.775   8.954   4.683
57603W        W25997  29.734  40.163   4.189
57604W        W25998  35.298   5.365  11.053
57605W        W25999  41.731  26.564  13.405
57606W        W26000   4.651   1.254  10.314
57607W        W26001  34.453   3.951  11.972
57608W        W26002  39.607  40.997  14.312
57609W        W26003   0.738  35.293   2.924
57610W        W26004  27.694  16.744   1.017
57611W        W26005  39.850  24.791  14.372
57612W        W26006  26.196   9.096  13.475
57613W        W26007  43.320  30.240   3.754
57614W        W26008  38.703  33.914  13.629
57615W        W26009  40.510  38.595  10.768
57616W        W26010  18.437  25.524   0.826
57617W        W26011   1.675  20.007   2.751
57618W        W26012  25.100  19.726   3.853
57619W        W26013  35.415  19.215  12.374
57620W        W26014  28.353  30.226  11.105
57621W        W26015  32.071  27.260   4.541
57622W        W26016  13.083  35.545  12.161
57623W        W26017  44.272  10.139   2.847
57624W        W26018  12.754   6.305   1.798
57625W        W26019  20.360  21.107  14.809
57626W        W26020  25.720   8.358   2.872
57627W        W26021   5.993  13.698   2.382
57628W        W26022  39.964  24.144   1.294
57629W        W26023  26.242  15.128  11.887
57630W        W26024  17.769  28.542  12.070
57631W        W26025  10.666  10.152   2.683
57632W        W26026  35.115  25.557   2.408
57633W        W26027  22.029  31.477   0.608
57634W        W26028  18.096   6.981  11.522
57635W        W26029  32.632  14.374   2.173
57636W        W26030  39.518  33.862  10.622
57637W        W26031  14.079  15.364  13.440
57638W        W26032   8.701   9.890  12.603
57639W        W26033  41.741  27.726  11.511
57640W        W26034  44.460  30.542  14.881
57641W        W26035  16.540  43.100   4.180
57642W        W26036   9.383  33.661  13.338
57643W        W26037  35.295  30.514   3.139
57644W        W26038  25.973   7.284  12.795
57645W        W26039  19.012  18.081  13.867
57646W        W26040  38.130  37.232   5.010
57647W        W26041  36.780  18.084  14.216
57648W        W26042  17.570  44.743   1.276
57649W        W26043  23.937   8.717   1.738
57650W        W26044  22.277   9.140   3.962
57651W        W26045  43.825   8.836  12.082
57652W        W26046  32.116  44.741   2.900
57653W        W26047   4.868   4.287  14.947
57654W        W26048  11.419  27.508  11.176
57655W        W26049  23.297  12.218  12.357
57656W        W26050  44.896  28.243  13.931
57657W        W26051  43.463   5.385  14.403
57658W        W26052  12.382   9.904  12.960
57659W        W26053  31.059   7.434   4.639
57660W        W26054  26.647  37.585  11.997
57661W        W26055  24.039  21.824   1.211
57662W        W26056  13.648   0.957   3.416
57663W        W26057  10.266  11.125  14.578
57664W        W26058   8.746  13.441   2.706
57665W        W26059  18.807   2.935  11.005
57666W        W26060  18.802  26.436   1.853
57667W        W26061  19.159  25.163  12.652
57668W        W26062  19.504  39.301  11.623
57669W        W26063  27.031   4.538   0.482
57670W        W26064  27.040  28.383  13.958
57671W        W26065   8.890   5.184   4.229
57672W        W26066  26.827  10.734  13.071
57673W        W26067  17.703  18.540  12.112
57674W        W26068  34.620   6.759   4.343
57675W        W26069   5.962   4.511   1.464
57676W        W26070  13.188  14.301  14.510
57677W        W26071  10.809  40.965  12.579
57678W        W26072  30.412   5.710   3.769
57679W        W26073  44.530  28.843  14.512
57680W        W26074  44.056  30.255   0.557
57681W        W26075  32.526  18.144   2.635
57682W        W26076  35.961  11.700   0.213
57683W        W26077  31.553  39.601   1.706
57684W        W26078  27.458  42.011  14.425
57685W        W26079  15.460   7.683  12.589
57686W        W26080  11.884  39.684   1.044
57687W        W26081   7.211  23.591  12.197
57688W        W26082  20.127  22.068   0.916
57689W        W26083  20.657  42.310   0.838
57690W        W26084  39.285  33.199  13.482
57691W        W26085  18.102   5.463  10.941
57692W        W26086  27.758  22.174  12.540
57693W        W26087  15.281  34.394   2.138
57694W        W26088  41.719  36.600   3.354
57695W        W26089  16.080  37.418  10.305
57696W        W26090  42.942  30.862  13.806
57697W        W26091  28.226  21.677  11.593
57698W        W26092   4.246  27.871   1.327
57699W        W26093  36.158  33.407   3.627
57700W        W26094  25.151  28.719  14.002
57701W        W26095  17.378  36.923   5.368
57702W        W26096  10.444  44.053   4.323
57703W        W26097  43.782   1.377   4.581
57704W        W26098  41.860  36.435   2.654
57705W        W26099  28.175  32.489  14.640
57706W        W26100  32.494  25.495  11.564
57707W        W26101  22.560  17.333  14.805
57708W        W26102  24.006  30.544   3.645
57709W        W26103  37.730  15.273  13.956
57710W        W26104   1.270  20.279   4.612
57711W        W26105  32.840  40.545   0.937
57712W        W26106  42.744   9.296  14.941
57713W        W26107  26.101  33.702   1.211
57714W        W26108  43.573  36.205   0.262
57715W        W26109  36.902   1.999  14.961
57716W        W26110  15.571   6.405   2.354
57717W        W26111  37.899  27.127  13.603
57718W        W26112  30.760   4.234   3.682
57719W        W26113   4.623  32.975  11.923
57720W        W26114   4.317  21.244  13.894
57721W        W26115  14.412  16.862  12.676
57722W        W26116  20.709  15.174   4.249
57723W        W26117  16.281  12.917   2.338
57724W        W26118   5.821  41.937  11.538
57725W        W26119  40.188  29.366  10.718
57726W        W26120  31.341  26.231   0.193
57727W        W26121  25.006   2.275  14.094
57728W        W26122  44.763  20.245  12.493
57729W        W26123  37.542  30.883   0.526
57730W        W26124  10.833  43.105  11.381
57731W        W26125  20.318  42.339   1.713
57732W        W26126  23.721  18.399   1.905
57733W        W26127  26.316  10.619  14.587
57734W        W26128   8.415  23.089  13.416
57735W        W26129   6.439  33.351  10.714
57736W        W26130  10.176   3.054  10.589
57737W        W26131  18.441  33.000  12.267
57738W        W26132  16.712   5.233  12.076
57739W        W26133   8.318  42.120   4.428
57740W        W26134  12.926   9.707  10.359
57741W        W26135   2.369  40.805   1.536
57742W        W26136  25.993  43.292   3.079
57743W        W26137   8.871   1.860  10.353
57744W        W26138  42.988  43.246  11.121
57745W        W26139  30.926  44.529   1.798
57746W        W26140  16.316  23.637   0.294
57747W        W26141  37.978  15.086  12.166
57748W        W26142  22.421  35.857  12.948
57749W        W26143  30.165  23.747  12.077
57750W        W26144  34.968  37.487   4.906
57751W        W26145  39.914  38.387  11.475
57752W        W26146  21.419  19.897   4.321
57753W        W26147   8.375  38.600  12.920
57754W        W26148  11.248  31.855   3.248
57755W        W26149  18.684  22.475   1.350
57756W        W26150  14.188  39.775  10.559
57757W        W26151   4.184  39.127   1.143
57758W        W26152  43.660   6.779  14.378
57759W        W26153  44.311  23.300   1.764
57760W        W26154  42.431  41.369   0.738
57761W        W26155   3.561  31.472  12.776
57762W        W26156  21.429  24.809  10.208
57763W        W26157  15.586  42.976   3.158
57764W        W26158  22.808  24.898  11.994
57765W        W26159  19.461  18.349   0.633
57766W        W26160  32.883  42.495  11.549
57767W        W26161   1.806  28.727   0.435
57768W        W26162   4.145   4.794   2.705
57769W        W26163   6.763  41.108  13.069
57770W        W26164  25.157  30.682  12.921
57771W        W26165  42.382  22.213  12.916
57772W        W26166  16.703  29.394   4.733
57773W        W26167   4.704  13.614   1.811
57774W        W26168  44.034  41.448  12.135
57775W        W26169  36.392  14.082   3.212
57776W        W26170   2.106   3.406   2.744
57777W        W26171  38.111  32.703  13.356
57778W        W26172  24.654  19.963   1.138
57779W        W26173   9.755  25.110   1.735
57780W        W26174  18.683  37.562  12.879
57781W        W26175   2.809  28.947   4.678
57782W        W26176   9.725   1.247   0.076
57783W        W26177  20.123  29.246  11.985
57784W        W26178  38.472  44.056  12.959
57785W        W26179  26.499  17.711   2.158
57786W        W26180  22.209  11.231  13.843
57787W        W26181  44.551  14.835   4.597
57788W        W26182  30.066   3.780   2.638
57789W        W26183  12.155  25.567   3.645
57790W        W26184   9.846  26.497   1.289
57791W        W26185   5.397   4.814   1.845
57792W        W26186  18.697  23.352  14.279
57793W        W26187   4.512  43.608   0.017
57794W        W26188  13.559  31.732   4.243
57795W        W26189  36.396  16.790   0.193
57796W        W26190   5.637  44.554   0.274
57797W        W26191  14.917  44.455   3.799
57798W        W26192  44.386  30.373   1.854
57799W        W26193  33.576  27.159  11.081
57800W        W26194  38.898  12.187   1.272
57801W        W26195  17.642  24.669   4.885
57802W        W26196  14.808   5.902   2.422
57803W        W26197  16.789  37.304  13.813
57804W        W26198  29.227   4.193  12.512
57805W        W26199  16.891   0.204   2.762
57806W        W26200  35.469  16.804  13.911
57807W        W26201   8.727   6.083  12.789
57808W        W26202  11.457  16.364   4.103
57809W        W26203   8.289  21.834   2.634
57810W        W26204  19.459  14.529  14.467
57811W        W26205   2.979   0.275  10.793
57812W        W26206  11.579  14.325   4.557
57813W        W26207  32.808  17.515  14.854
57814W        W26208  40.918  34.577  12.685
57815W        W26209  22.800   6.203  13.875
57816W        W26210  37.813  38.958   1.312
57817W        W26211  19.663   5.618   1.361
57818W        W26212  25.607  32.129   1.187
57819W        W26213  21.943  34.117   1.449
57820W        W26214  36.977   3.514  13.927
57821W        W26215  32.236  27.731  14.533
57822W        W26216  17.413  31.847   2.963
57823W        W26217  26.434  14.808   2.444
57824W        W26218   6.856   0.428   0.487
57825W        W26219   0.174  14.759  11.396
57826W        W26220   3.606  33.599  11.636
57827W        W26221  10.421  19.190   0.652
57828W        W26222   4.902  19.008  12.187
57829W        W26223  24.147  15.328   2.741
57830W        W26224  11.735   8.036   3.154
57831W        W26225   7.164  26.343   9.613
57832W        W26226  39.136  32.746   2.239
57833W        W26227   6.389  19.830   1.928
57834W        W26228  42.456  39.874   4.254
57835W        W26229  43.730   1.914  10.498
57836W        W26230  40.059  42.836   2.375
57837W        W26231  13.788  21.510   1.230
57838W        W26232  12.899  17.012   1.811
57839W        W26233  14.070  33.641  12.962
57840W        W26234   7.721  39.465  13.430
57841W        W26235  44.982  35.656  12.008
57842W        W26236  20.585   1.399   4.566
57843W        W26237   0.587   4.343  13.359
57844W        W26238  19.394  14.496  13.485
57845W        W26239  17.268  24.787   3.228
57846W        W26240  17.309  21.491   1.841
57847W        W26241  36.797  35.156   0.012
57848W        W26242  29.975   2.691   4.195
57849W        W26243  43.375  27.727   4.684
57850W        W26244  28.421   4.203  13.532
57851W        W26245  15.889  17.208   4.206
57852W        W26246  34.930   8.805   4.189
57853W        W26247   5.957  28.399  14.437
57854W        W26248  42.000   7.140   3.692
57855W        W26249  26.527  35.632  10.781
57856W        W26250  44.072   6.043   3.330
57857W        W26251  20.735  11.639   1.243
57858W        W26252  43.054  19.036  12.361
57859W        W26253  31.494   0.993  13.973
57860W        W26254  42.654  40.249  10.570
57861W        W26255  10.825  41.804  13.730
57862W        W26256  30.667  38.335   1.297
57863W        W26257  13.917  38.957  13.767
57864W        W26258  40.338  11.366   1.893
57865W        W26259  39.328  21.306  11.715
57866W        W26260  32.212  26.292  12.921
57867W        W26261  32.145  40.961   1.936
57868W        W26262   0.791  37.398  12.101
57869W        W26263  32.790  21.806  13.406
57870W        W26264  14.727  20.612   3.993
57871W        W26265  29.476   9.214   4.021
57872W        W26266  39.787   4.949  14.385
57873W        W26267  20.734  42.197  11.951
57874W        W26268   0.321   8.253  14.312
57875W        W26269  14.532  17.038   1.230
57876W        W26270   3.974   9.909   0.971
57877W        W26271  31.473  22.613  14.562
57878W        W26272  28.258   3.006  12.550
57879W        W26273  15.454   0.463   1.668
57880W        W26274  14.100   7.198   2.795
57881W        W26275  16.229  22.450  13.244
57882W        W26276   5.219  21.005  11.706
57883W        W26277  17.826   0.768   3.915
57884W        W26278  39.440   8.332   4.890
57885W        W26279   4.490   1.507  14.758
57886W        W26280  36.290   2.810   0.742
57887W        W26281  35.743  22.794  11.653
57888W        W26282  18.071  27.669   0.254
57889W        W26283  32.154  16.668   3.280
57890W        W26284  14.889  25.505  11.609
57891W        W26285  39.341  11.895  14.332
57892W        W26286  29.633  26.160  14.334
57893W        W26287   6.644  12.583   0.984
57894W        W26288  38.854   1.015  12.987
57895W        W26289  11.022  32.044  14.962
57896W        W26290  20.877  11.247   2.344
57897W        W26291   4.933   8.897   2.870
57898W        W26292  23.185  24.558  12.141
57899W        W26293  36.812  36.990   0.412
57900W        W26294  13.081  26.625   2.365
57901W        W26295   2.349  10.790   2.840
57902W        W26296  16.341  26.115   4.674
57903W        W26297  30.655   7.961   1.834
57904W        W26298  32.886  21.571  10.551
57905W        W26299  34.892   3.510   5.149
57906W        W26300  34.508  32.382   4.891
57907W        W26301  43.512  44.399  13.045
57908W        W26302  39.347  41.321  14.608
57909W        W26303  14.313  44.308   0.435
57910W        W26304  33.106  19.956  12.029
57911W        W26305  27.909  27.715   1.261
57912W        W26306  35.046   6.399   3.239
57913W        W26307  42.462  29.400   3.557
57914W        W26308  14.216  43.894   0.740
57915W        W26309  17.051  31.421   0.407
57916W        W26310  26.548   7.248  12.949
57917W        W26311  41.550  11.309  11.121
57918W        W26312  19.682  21.926   2.745
57919W        W26313  32.177   3.626   4.129
57920W        W26314   0.819   8.419  14.291
57921W        W26315  21.981  44.889  10.553
57922W        W26316  36.497  30.223  14.773
57923W        W26317   0.420  31.086  12.383
57924W        W26318   8.718   3.323   2.896
57925W        W26319  32.028  21.055   0.780
57926W        W26320  24.683   7.895   1.805
57927W        W26321  24.589  37.637  13.071
57928W        W26322  33.520  40.910  11.960
57929W        W26323  20.773  16.269   3.228
57930W        W26324  33.924   6.213   2.676
57931W        W26325  24.101   7.236   3.851
57932W        W26326  40.781  38.865   3.794
57933W        W26327   7.178  10.211  12.029
57934W        W26328   7.764  14.375   0.446
57935W        W26329  12.341  21.720   3.064
57936W        W26330  11.777  15.738  14.817
57937W        W26331  38.453  12.781   0.212
57938W        W26332  18.722  28.898  11.686
57939W        W26333  39.799   2.030   1.984
57940W        W26334   4.730  34.740   2.635
57941W        W26335   2.101  14.035   0.776
57942W        W26336   4.723  19.151   2.335
57943W        W26337  10.419  27.595   2.350
57944W        W26338   2.806  13.300   1.777
57945W        W26339   8.180  13.824   3.221
57946W        W26340  40.778  34.868  11.372
57947W        W26341  18.433  12.589   4.586
57948W        W26342  31.003  11.609   4.592
57949W        W26343   5.590  21.339  13.464
57950W        W26344   5.191   3.906  14.768
57951W        W26345  37.130   3.001   1.296
57952W        W26346   1.325  34.811  12.063
57953W        W26347   1.479  44.891   1.188
57954W        W26348  32.474   0.205  14.962
57955W        W26349  28.640   5.881  12.924
57956W        W26350  31.232  10.746  12.521
57957W        W26351  38.491  40.778  14.270
57958W        W26352  20.476  23.572  11.185
57959W        W26353  39.861   1.904   2.902
57960W        W26354  15.750  19.697   2.743
57961W        W26355  14.407  11.219   1.195
57962W        W26356   6.923  37.984   4.186
57963W        W26357   6.816  19.507  11.154
57964W        W26358  25.103  34.921   2.695
57965W        W26359  29.948  27.136  13.947
57966W        W26360   3.364  31.241   4.096
57967W        W26361  34.486  35.402   4.670
57968W        W26362  24.239   1.621  13.965
57969W        W26363  26.219   7.224  11.122
57970W        W26364   8.335   0.037   3.377
57971W        W26365  24.708  13.330   0.306
57972W        W26366   4.660   4.180  13.080
57973W        W26367  35.885  24.744   4.089
57974W        W26368  23.484  20.301   1.824
57975W        W26369  22.170  27.948  14.342
57976W        W26370  26.215  31.594  12.572
57977W        W26371  16.567   0.312  12.354
57978W        W26372  44.998   6.121   1.469
57979W        W26373  15.198   3.659  10.530
57980W        W26374  39.796   6.907   0.233
57981W        W26375   1.630   1.453  13.418
57982W        W26376  30.233  10.671   2.771
57983W        W26377  25.212  20.020  12.037
57984W        W26378   9.653   7.168   4.049
57985W        W26379  22.762   1.242   3.344
57986W        W26380   0.065  30.110   0.732
57987W        W26381  37.579  14.452   4.202
57988W        W26382   2.952  17.745   2.181
57989W        W26383  15.419  24.542   0.215
57990W        W26384   5.710  35.573   3.842
57991W        W26385  10.955  22.010  14.297
57992W        W26386   2.844  14.636   0.887
57993W        W26387  16.353   6.297   4.165
57994W        W26388  17.521   5.663  14.031
57995W        W26389  15.213  10.226  11.652
57996W        W26390  19.767  27.126   2.203
57997W        W26391  16.121  30.392   1.766
57998W        W26392  12.300  20.644  11.462
57999W        W26393  29.296   6.821  11.491
58000W        W26394  24.818  12.773  14.303
58001W        W26395  10.741  26.167   4.062
58002W        W26396  40.871  41.805   3.233
58003W        W26397  18.864  14.292  11.829
58004W        W26398  19.235  24.435  13.911
58005W        W26399  23.905   7.754   0.306
58006W        W26400   1.469  14.187   2.157
58007W        W26401  36.538  25.908  12.011
58008W        W26402   6.166  32.619  12.545
58009W        W26403  13.697  23.131  11.558
58010W        W26404  19.874  18.088  14.719
58011W        W26405  28.709  23.089  11.672
58012W        W26406  18.534  18.615   0.207
58013W        W26407  23.638  30.711   4.659
58014W        W26408  37.464  12.861   1.832
58015W        W26409  25.447   0.116  12.499
58016W        W26410  24.254   3.324   2.749
58017W        W26411  31.543  12.136   3.042
58018W        W26412  24.682   9.622   5.261
58019W        W26413  25.678  23.579   1.493
58020W        W26414   1.975  10.242   0.439
58021W        W26415   8.724  41.770   2.294
58022W        W26416  22.209  10.599   0.328
58023W        W26417  37.533  37.987  10.183
58024W        W26418  44.387  22.198   3.170
58025W        W26419   8.942   8.804  10.488
58026W        W26420  42.097  23.758  13.473
58027W        W26421   6.893   9.238   3.370
58028W        W26422  32.367   1.171   3.802
58029W        W26423  40.530  30.577   4.570
58030W        W26424  41.532  10.077  11.615
58031W        W26425  24.439  17.172   1.461
58032W        W26426   2.547  26.448  12.961
58033W        W26427   5.773  18.755  14.136
58034W        W26428  34.165  32.459   2.048
58035W        W26429  30.004  35.521   3.681
58036W        W26430  37.008   8.415   3.281
58037W        W26431  36.494  36.103   2.429
58038W        W26432   1.861  22.543   3.752
58039W        W26433  19.462   6.223   3.828
58040W        W26434   8.179  13.682   1.032
58041W        W26435  16.253  21.664  11.493
58042W        W26436  37.355  17.606  10.570
58043W        W26437  30.206  27.036  10.729
58044W        W26438  15.787  11.347  13.733
58045W        W26439   3.926   2.710  11.855
58046W        W26440  28.564  25.982   3.139
58047W        W26441  13.706  37.587   1.164
58048W        W26442   1.808   8.571   1.902
58049W        W26443  32.924  43.308  10.606
58050W        W26444   4.432  37.174   2.213
58051W        W26445  44.513   5.165   2.783
58052W        W26446  34.087  21.814   0.595
58053W        W26447   3.166  20.970   5.212
58054W        W26448   3.303   5.406   4.641
58055W        W26449  32.677   4.655  11.545
58056W        W26450  37.888  13.173   3.918
58057W        W26451  16.789  33.879   3.737
58058W        W26452  24.886  39.511  10.615
58059W        W26453  35.036  28.335   3.644
58060W        W26454  30.559   6.352   4.583
58061W        W26455   6.773   6.575   5.267
58062W        W26456  25.426  35.861  14.817
58063W        W26457  24.739  36.851  11.207
58064W        W26458  25.632  39.614   2.223
58065W        W26459  44.428  13.828   0.532
58066W        W26460  15.827  29.105   0.939
58067W        W26461  14.782   4.927  10.752
58068W        W26462  32.567  36.935  14.231
58069W        W26463   9.185  19.162   0.443
58070W        W26464  17.692  24.737   3.567
58071W        W26465  26.446   2.130  14.801
58072W        W26466  17.303  40.040  12.005
58073W        W26467  42.666   6.875  13.480
58074W        W26468   7.771  16.979  14.940
58075W        W26469  39.073  16.203   0.371
58076W        W26470  18.320   2.339  13.016
58077W        W26471  17.205  22.220   0.541
58078W        W26472  14.643  40.991   2.111
58079W        W26473   1.875  28.922  12.428
58080W        W26474  16.096  25.105   0.462
58081W        W26475  25.520  37.454  13.546
58082W        W26476  31.914  11.766   4.058
58083W        W26477  25.645   2.888  10.800
58084W        W26478  30.584  20.215  13.233
58085W        W26479  35.424   6.267   1.272
58086W        W26480   1.163  21.633  13.449
58087W        W26481   7.908   0.066   1.384
58088W        W26482  12.324  23.203  14.112
58089W        W26483  25.587   7.900  11.573
58090W        W26484  14.178   9.118  10.676
58091W        W26485  29.320  39.864   1.746
58092W        W26486  19.209  21.787  11.488
58093W        W26487  24.810  15.152  12.076
58094W        W26488  25.282  32.425   0.901
58095W        W26489  14.567   4.957  11.539
58096W        W26490  26.909   6.081  13.054
58097W        W26491   5.327  32.593  14.069
58098W        W26492  33.454   0.506   1.511
58099W        W26493  18.007   3.772   2.346
58100W        W26494   6.101  43.039   4.433
58101W        W26495  29.663  10.706   0.180
58102W        W26496   0.339  25.450   4.627
58103W        W26497  24.326  29.560   4.682
58104W        W26498  15.362  32.096   0.279
58105W        W26499  22.250  34.916   2.263
58106W        W26500  13.601  18.581  12.097
58107W        W26501  22.875  28.962   4.134
58108W        W26502  36.995  13.104  13.911
58109W        W26503  40.916   5.803   3.422
58110W        W26504  33.372   7.575  13.258
58111W        W26505  41.082   4.042   3.786
58112W        W26506   0.810  13.778   4.639
58113W        W26507  42.886   6.109  14.039
58114W        W26508  36.808  21.507   4.387
58115W        W26509  20.988  15.866   4.551
58116W        W26510   1.019   1.912  13.818
58117W        W26511  16.671  33.206  11.763
58118W        W26512  21.482  38.891  13.945
58119W        W26513  28.469  37.089   0.820
58120W        W26514   8.027   5.664   2.278
58121W        W26515   6.359  21.315   4.508
58122W        W26516  37.796  20.063  11.631
58123W        W26517  29.472  35.860  13.358
58124W        W26518  22.003  15.887  11.583
58125W        W26519   1.085  36.537   4.156
58126W        W26520  24.276  40.953  13.095
58127W        W26521  23.503   4.304  13.413
58128W        W26522  14.253   5.330   4.893
58129W        W26523  11.740   4.527  11.634
58130W        W26524  25.451  32.302  14.399
58131W        W26525  32.466   2.895  14.099
58132W        W26526  37.379  31.923   1.465
58133W        W26527  14.040  25.715   4.708
58134W        W26528   8.488   1.053  13.759
58135W        W26529  40.336  25.661   2.398
58136W        W26530  22.543  26.581   2.492
58137W        W26531  18.280  42.424  14.394
58138W        W26532  27.965  37.374   0.152
58139W        W26533  26.520   0.711   0.981
58140W        W26534  29.661  20.001   3.520
58141W        W26535  15.090  26.247   0.746
58142W        W26536   2.833  36.489   4.768
58143W        W26537  39.706   0.317  11.488
58144W        W26538  34.577   7.195  10.692
58145W        W26539  44.693  34.594   4.098
58146W        W26540  17.687  42.276   0.759
58147W        W26541  44.804  10.134  14.950
58148W        W26542  18.463  10.220   4.935
58149W        W26543  44.953   6.583   3.138
58150W        W26544  19.835  30.129   2.331
58151W        W26545  27.953  30.438  10.417
58152W        W26546   0.938  10.113   1.946
58153W        W26547   7.865   2.857   1.214
58154W        W26548  36.382  21.297   2.755
58155W        W26549   1.307  34.457   4.606
58156W        W26550  43.110  27.004   1.288
58157W        W26551  24.035  22.034  13.481
58158W        W26552  37.919  12.659  10.919
58159W        W26553   9.364  24.276  13.883
58160W        W26554  32.281  24.540  11.225
58161W        W26555  40.527  16.185  13.572
58162W        W26556  13.735  25.052   3.973
58163W        W26557   7.617  13.005  14.797
58164W        W26558  41.068  38.295   4.611
58165W        W26559   4.842  41.004   0.904
58166W        W26560  18.748  32.952   0.891
58167W        W26561  35.903  34.842  11.753
58168W        W26562  33.362  27.227  10.601
58169W        W26563  33.501  34.821  11.231
58170W        W26564   3.912  31.979   0.574
58171W        W26565  38.798  35.307  11.155
58172W        W26566  44.005  43.301   2.812
58173W        W26567  30.050  13.246   3.188
58174W        W26568  14.201  44.819  12.450
58175W        W26569   9.798  10.505  13.087
58176W        W26570  12.668  38.566  14.956
58177W        W26571  27.130  30.159   2.675
58178W        W26572  18.065  11.759  10.792
58179W        W26573   3.630  19.868   4.625
58180W        W26574   7.302   4.745  14.864
58181W        W26575   8.900  15.746  11.269
58182W        W26576  26.531  11.726   1.410
58183W        W26577  40.355  42.527   3.307
58184W        W26578   6.622  25.028  11.588
58185W        W26579  44.799   2.716  11.580
58186W        W26580  18.521  14.394  12.189
58187W        W26581  38.547   3.284  13.711
58188W        W26582  37.787   8.445   0.847
58189W        W26583  23.521   8.385   2.269
58190W        W26584  36.374  44.050   0.943
58191W        W26585   8.825   6.880   1.678
58192W        W26586  19.363  42.050   3.193
58193W        W26587  38.068   7.226   3.403
58194W        W26588   6.704   8.377  13.271
58195W        W26589   3.073  31.692   1.972
58196W        W26590   5.272  38.566   0.023
58197W        W26591   2.436   3.972  12.835
58198W        W26592  19.548  36.822  14.465
58199W        W26593  24.550   1.482   2.740
58200W        W26594  38.290  20.692   3.861
58201W        W26595   2.891  16.209   3.288
58202W        W26596   2.248  39.570  12.602
58203W        W26597  36.211  17.202   0.882
58204W        W26598  15.038   7.493   0.719
58205W        W26599   1.388  31.438  12.091
58206W        W26600   2.345  36.973  12.053
58207W        W26601  23.360  37.537   1.759
58208W        W26602  27.510  37.436  14.470
58209W        W26603  43.389  28.902  13.988
58210W        W26604   2.858   8.793  14.808
58211W        W26605   6.466  16.364   4.444
58212W        W26606  28.886  14.696   5.065
58213W        W26607  37.031  27.034   2.460
58214W        W26608  26.647  14.367  10.609
58215W        W26609  14.252   0.355  12.766
58216W        W26610  21.605  17.566   4.213
58217W        W26611   7.899  15.271   4.234
58218W        W26612  22.674  34.988  13.927
58219W        W26613  33.651  16.007  11.868
58220W        W26614   7.871  27.733   2.667
58221W        W26615  35.657  40.513   4.182
58222W        W26616  14.556  43.326  12.970
58223W        W26617  23.008  35.411   2.445
58224W        W26618  41.032  16.031  11.538
58225W        W26619  22.568  40.477  13.062
58226W        W26620  10.422  17.745  11.995
58227W        W26621   3.383  22.464   0.871
58228W        W26622  16.197  28.826   4.518
58229W        W26623  40.624   4.997  10.728
58230W        W26624  37.425   6.909   4.866
58231W        W26625  40.868  36.881  10.936
58232W        W26626  13.687  42.930  13.444
58233W        W26627   3.849  15.006  14.233
58234W        W26628  44.878  25.684   1.927
58235W        W26629  25.850  29.885   3.074
58236W        W26630  44.241  44.338   4.926
58237W        W26631  35.185  34.277  14.799
58238W        W26632   2.653  17.252   4.341
58239W        W26633  44.332  40.416   4.525
58240W        W26634  12.028  26.496  10.239
58241W        W26635   3.403  37.092   1.727
58242W        W26636  19.053  20.636  11.989
58243W        W26637  18.399   1.882  11.621
58244W        W26638  18.194  41.659   5.401
58245W        W26639  26.197   2.802  12.895
58246W        W26640  16.071  41.828  13.394
58247W        W26641  16.653  23.191   4.452
58248W        W26642  35.362  30.973   3.930
58249W        W26643  36.954  38.061  13.886
58250W        W26644  33.378   4.079  12.922
58251W        W26645  41.335  36.066   5.080
58252W        W26646  19.091  23.564  11.709
58253W        W26647  36.273   1.264   2.326
58254W        W26648  13.767  35.974   2.785
58255W        W26649  36.371  11.851   2.435
58256W        W26650  27.881   8.400  10.409
58257W        W26651  39.150  17.553   2.384
58258W        W26652  28.186  36.366  13.076
58259W        W26653  20.694  13.352   3.825
58260W        W26654  18.307  20.772  13.056
58261W        W26655  43.374  14.274  12.568
58262W        W26656  26.592  12.700  14.458
58263W        W26657   9.577  28.439   2.745
58264W        W26658   2.380  31.562  13.013
58265W        W26659  40.786  27.399   3.669
58266W        W26660  25.995  23.042   1.810
58267W        W26661   7.878   7.233   2.210
58268W        W26662   0.044  39.050  10.615
58269W        W26663  16.244   4.435  14.044
58270W        W26664  25.201   5.995  11.455
58271W        W26665   7.128  12.309  11.545
58272W        W26666  33.802   9.153  13.421
58273W        W26667   6.922  42.308   2.274
58274W        W26668   5.750  44.686   3.331
58275W        W26669  17.217  35.441   0.323
58276W        W26670  17.206  28.441  12.672
58277W        W26671  29.474  22.973  12.053
58278W        W26672   8.405  26.586   2.267
58279W        W26673  21.332  18.032   3.131
58280W        W26674  17.179  11.775  14.015
58281W        W26675  20.971   2.207  10.748
58282W        W26676   1.390   9.366   1.621
58283W        W26677  29.245   2.798   3.573
58284W        W26678  41.223  23.036  13.013
58285W        W26679  14.747  11.452   3.075
58286W        W26680  32.659  15.850  14.556
58287W        W26681  38.955  33.833   0.521
58288W        W26682  23.314  13.157   3.732
58289W        W26683  41.037  32.698   0.890
58290W        W26684  12.312  22.934  12.510
58291W        W26685   3.785  16.430  11.548
58292W        W26686   5.892   2.021   1.041
58293W        W26687  40.007  25.231   2.453
58294W        W26688  31.553  41.898  10.932
58295W        W26689  39.455  29.371   2.369
58296W        W26690  25.935   4.070   3.811
58297W        W26691  42.768  13.161  11.124
58298W        W26692   4.303   1.788   4.302
58299W        W26693  36.293  26.654   4.264
58300W        W26694  36.115  21.518  14.953
58301W        W26695   4.343  20.699  14.970
58302W        W26696  42.002  43.401  12.032
58303W        W26697   0.315   7.537  12.760
58304W        W26698  34.066  30.413  12.852
58305W        W26699  40.617   3.386  12.103
58306W        W26700  44.817   9.950   1.672
58307W        W26701  29.113  10.187  14.841
58308W        W26702  34.112  42.287  12.948
58309W        W26703  17.575  27.360   4.351
58310W        W26704   5.247   6.652   2.567
58311W        W26705  34.045  11.607   2.468
58312W        W26706  28.673  31.401  11.679
58313W        W26707   7.309  19.760   0.840
58314W        W26708   0.616  15.862  14.856
58315W        W26709  10.632  19.177  12.048
58316W        W26710  40.906  26.691   2.926
58317W        W26711   9.064   3.666  14.428
58318W        W26712   2.208   0.806  11.524
58319W        W26713  43.086  23.922   0.680
58320W        W26714  23.264  11.199   0.857
58321W        W26715   6.645   2.383  11.764
58322W        W26716  16.654   9.422  11.108
58323W        W26717  26.910  32.345  11.478
58324W        W26718  12.401   4.283  11.050
58325W        W26719  32.638  26.085   2.812
58326W        W26720  23.904  15.306  10.461
58327W        W26721   7.224  37.390  13.851
58328W        W26722  28.042  10.616   2.882
58329W        W26723   1.539  10.780  12.797
58330W        W26724  39.071  15.216  13.588
58331W        W26725  22.993   7.345  10.531
58332W        W26726  20.146  31.871  12.927
58333W        W26727  30.399   2.964  11.925
58334W        W26728  19.012  30.463   2.332
58335W        W26729  32.416  43.935  13.634
58336W        W26730  14.839  40.898   1.621
58337W        W26731  38.368  23.321   1.798
58338W        W26732  27.302   5.249   1.749
58339W        W26733   3.467  26.998  13.428
58340W        W26734  26.971   5.965   4.554
58341W        W26735  28.178  14.726   2.846
58342W        W26736  15.518  24.628   4.158
58343W        W26737  44.341   5.625  13.334
58344W        W26738  23.951   8.332  12.384
58345W        W26739   0.732  40.465   4.109
58346W        W26740  30.934  24.774   2.747
58347W        W26741  10.095   8.280  11.608
58348W        W26742  15.781  14.361  11.514
58349W        W26743  40.969  34.355  14.022
58350W        W26744   7.896   4.619   0.962
58351W        W26745   1.961  34.993  14.739
58352W        W26746   4.900  27.185  12.625
58353W        W26747  39.429  17.569   3.381
58354W        W26748  10.121  23.370   2.069
58355W        W26749  19.991  37.580  14.294
58356W        W26750  36.443   6.480   1.936
58357W        W26751  33.880  33.826  13.302
58358W        W26752   1.032  24.621  12.278
58359W        W26753  29.736  31.991  14.847
58360W        W26754  43.238  43.499  14.516
58361W        W26755  25.699  36.549  11.651
58362W        W26756  36.997  42.815  12.984
58363W        W26757  27.909  39.869  13.830
58364W        W26758  27.766  15.393   2.843
58365W        W26759   7.202   7.469  10.416
58366W        W26760  30.513  44.961   2.217
58367W        W26761   4.848  31.655   3.741
58368W        W26762  11.419  35.388   3.700
58369W        W26763  37.261  14.808   0.604
58370W        W26764  17.774  10.604   3.210
58371W        W26765   7.375   4.294  12.496
58372W        W26766  14.460   5.004   3.624
58373W        W26767   8.702   9.170   0.243
58374W        W26768   0.924  34.581  14.366
58375W        W26769   8.985   4.283  11.791
58376W        W26770  13.772  40.043  10.733
58377W        W26771  30.071  41.888  13.785
58378W        W26772  39.301  24.573   4.571
58379W        W26773  31.102  42.875  11.239
58380W        W26774  27.633   9.388  10.957
58381W        W26775  22.616  42.511   1.337
58382W        W26776  22.595  26.451   2.984
58383W        W26777  34.913  18.459   3.807
58384W        W26778  38.085  16.303  14.578
58385W        W26779  44.680  38.654  12.946
58386W        W26780  23.176  19.649   4.127
58387W        W26781  41.529  16.158   3.693
58388W        W26782  35.596  24.047  13.436
58389W        W26783   9.919   2.273  11.761
58390W        W26784  28.674  29.842   1.027
58391W        W26785   9.143  31.416   4.244
58392W        W26786  29.049  22.263   1.243
58393W        W26787  30.713  16.443   0.778
58394W        W26788   0.015  37.312   4.591
58395W        W26789  44.451   5.598   4.527
58396W        W26790  23.042  40.273  13.854
58397W        W26791  25.353  42.803   0.687
58398W        W26792  39.295   4.663   3.767
58399W        W26793  14.266  43.652  14.339
58400W        W26794  36.781  10.109   3.701
58401W        W26795  17.163  33.559   0.273
58402W        W26796  25.495  32.379   3.394
58403W        W26797  24.471   9.567   3.224
58404W        W26798  18.089  44.342  11.494
58405W        W26799   6.198   1.235   3.773
58406W        W26800  16.599   4.448   3.238
58407W        W26801   9.467  32.509  13.786
58408W        W26802  28.099  11.283   0.701
58409W        W26803   0.711  24.695  13.914
58410W        W26804  25.272  21.780  11.627
58411W        W26805   4.790  17.255   0.003
58412W        W26806   3.451  11.653   1.223
58413W        W26807   1.419  32.549  12.722
58414W        W26808  36.456   6.281  12.489
58415W        W26809   6.832  16.692   4.598
58416W        W26810  42.103  10.647   2.601
58417W        W26811  14.681  31.426   0.505
58418W        W26812  12.107  32.943  11.197
58419W        W26813  35.670  31.184   4.911
58420W        W26814  44.531  30.977  11.679
58421W        W26815  21.746  25.405  13.587
58422W        W26816  15.780  26.611   0.962
58423W        W26817  12.293  17.243  11.469
58424W        W26818  35.149  15.434   2.173
58425W        W26819  15.580  19.691  13.179
58426W        W26820  44.946  11.063   3.591
58427W        W26821   0.349  15.405   1.855
58428W        W26822  31.889   4.463   2.756
58429W        W26823  44.768  21.107  12.695
58430W        W26824   0.792  37.786  13.838
58431W        W26825  43.881   3.152   0.238
58432W        W26826  31.046   8.195  14.898
58433W        W26827  36.402  32.208  11.998
58434W        W26828  33.396   4.949   4.253
58435W        W26829   9.701  24.103  11.407
58436W        W26830  33.891   6.431  10.926
58437W        W26831   1.423  21.234   0.423
58438W        W26832  16.339  34.955  10.616
58439W        W26833  43.998  13.655  14.411
58440W        W26834  32.962   3.225   1.462
58441W        W26835  33.653  20.462   3.621
58442W        W26836   9.490  32.657  14.286
58443W        W26837  28.930   5.367  12.991
58444W        W26838  30.860  22.055   4.682
58445W        W26839  19.073  37.560  11.116
58446W        W26840  42.531  24.502   3.216
58447W        W26841  15.023  23.643   1.943
58448W        W26842  32.247   3.378  14.895
58449W        W26843  16.574  19.319   2.250
58450W        W26844   7.760   8.362   3.202
58451W        W26845  14.303  18.262   4.649
58452W        W26846  43.011  17.730   0.975
58453W        W26847  11.094  35.434   0.587
58454W        W26848  27.764  42.428  14.392
58455W        W26849  44.420   3.047  14.368
58456W        W26850  44.588  26.563   2.861
58457W        W26851  37.583   1.432   4.169
58458W        W26852  15.360  18.510   4.069
58459W        W26853  39.317  20.228  13.811
58460W        W26854   4.996   5.394   3.057
58461W        W26855  15.273  36.605   0.330
58462W        W26856  21.588   0.490   1.539
58463W        W26857  23.451  43.023  13.461
58464W        W26858   9.952  29.039  11.608
58465W        W26859  26.891  21.061  10.282
58466W        W26860  32.574  17.277  12.756
58467W        W26861  38.649  35.810   4.194
58468W        W26862  21.656  31.571  12.010
58469W        W26863  32.774   7.495   1.067
58470W        W26864  36.135   7.002  12.330
58471W        W26865  19.724   4.431   2.263
58472W        W26866  20.409   7.784   1.277
58473W        W26867   1.201  40.684   1.225
58474W        W26868   2.518  22.126   0.244
58475W        W26869  20.131  28.570  13.037
58476W        W26870  39.778  42.047   3.686
58477W        W26871  13.217  30.067  12.352
58478W        W26872   7.672  14.450   5.002
58479W        W26873  28.105  39.963  14.487
58480W        W26874   7.365  42.088   2.673
58481W        W26875  26.589  42.562   3.237
58482W        W26876  22.580  22.779   5.173
58483W        W26877  10.515   3.225   2.853
58484W        W26878   9.162   7.262  14.789
58485W        W26879  29.488  13.521  11.028
58486W        W26880  28.568  14.307   4.388
58487W        W26881   3.015  21.458   0.647
58488W        W26882  20.479  30.980   4.425
58489W        W26883  21.041  35.840   2.291
58490W        W26884   4.750  22.070  11.647
58491W        W26885   7.869  19.817  12.069
58492W        W26886  44.638  31.911   1.440
58493W        W26887  42.652  35.673   9.455
58494W        W26888  16.624  18.949  10.761
58495W        W26889  11.958   2.130  12.526
58496W        W26890  34.874  13.833   0.402
58497W        W26891  28.565  39.786  11.139
58498W        W26892   4.294  25.772   4.252
58499W        W26893  15.170  35.324   4.183
58500W        W26894  36.783   1.213   4.443
58501W        W26895  20.821  29.662  13.899
58502W        W26896   2.664  25.435   3.096
58503W        W26897  12.651  26.174  13.304
58504W        W26898   0.529  21.230  10.979
58505W        W26899  12.857  34.702  12.461
58506W        W26900  40.591  32.787   4.153
58507W        W26901  42.831  26.195   4.331
58508W        W26902  33.626   3.453  10.773
58509W        W26903  29.136  42.385   3.023
58510W        W26904  35.638  10.648  11.198
58511W        W26905  21.069  24.892   3.977
58512W        W26906  28.700  44.915   4.085
58513W        W26907  36.865  36.504  11.556
58514W        W26908  20.653  43.228  13.902
58515W        W26909  10.763  44.936  10.836
58516W        W26910  39.972  28.253   1.833
58517W        W26911  29.577  32.141   0.767
58518W        W26912  38.450   7.743   0.251
58519W        W26913  18.539  13.654   0.321
58520W        W26914  26.501  35.261  12.577
58521W        W26915  33.008  23.423   1.360
58522W        W26916  33.918  12.761  14.370
58523W        W26917  37.138   0.640  11.198
58524W        W26918  21.055  28.701   3.117
58525W        W26919  15.518   3.871  14.534
58526W        W26920   8.955  29.352   5.042
58527W        W26921   9.053   4.937  11.001
58528W        W26922  28.059  36.355   3.131
58529W        W26923  15.371  17.171   5.430
58530W        W26924  10.594  26.149  13.294
58531W        W26925  35.765  36.486   1.897
58532W        W26926  37.295   1.194   3.725
58533W        W26927   6.509  14.628   4.904
58534W        W26928  14.324  40.782   3.296
58535W        W26929  27.174  39.015  11.570
58536W        W26930  15.788  44.807   4.492
58537W        W26931  32.849  19.327   0.359
58538W        W26932  22.549  42.584   0.314
58539W        W26933  31.860  33.656   4.083
58540W        W26934  17.626   1.910  12.998
58541W        W26935  14.544  15.653   4.586
58542W        W26936  34.863   1.719  14.592
58543W        W26937  32.703   0.928   0.453
58544W        W26938  19.332  13.748  10.706
58545W        W26939  41.807  14.029   4.675
58546W        W26940   7.177  15.592  12.202
58547W        W26941  32.962  42.393   1.182
58548W        W26942  21.464  19.565   0.244
58549W        W26943  42.740  23.563  14.698
58550W        W26944  16.532   2.953   1.319
58551W        W26945  14.703  20.046  12.168
58552W        W26946  30.391   2.898  13.088
58553W        W26947  23.466   9.198   2.680
58554W        W26948   8.366  19.545  12.667
58555W        W26949   8.541  42.045   1.887
58556W        W26950  32.299  44.053   0.294
58557W        W26951  21.107  29.062   1.785
58558W        W26952  10.424  33.822   2.435
58559W        W26953  12.807  29.156   4.096
58560W        W26954   8.230   2.742   2.328
58561W        W26955  30.443  15.118   0.976
58562W        W26956  27.250  22.704   4.553
58563W        W26957  35.261  19.554  14.502
58564W        W26958  12.777  22.006   2.160
58565W        W26959  35.568  16.576   1.527
58566W        W26960  37.564  15.188  10.386
58567W        W26961   6.631   0.856  13.992
58568W        W26962  29.422  13.149  11.397
58569W        W26963  30.595  43.949   4.234
58570W        W26964  10.423  36.906  11.467
58571W        W26965  17.976  41.992   2.461
58572W        W26966  31.142  30.200  12.118
58573W        W26967  34.931  29.772   4.510
58574W        W26968  12.229  34.077   1.771
58575W        W26969  37.894   7.878  14.042
58576W        W26970   8.265  43.933  12.977
58577W        W26971   3.114  26.939  13.793
58578W        W26972  24.380  31.532   2.715
58579W        W26973  24.605  42.689   3.249
58580W        W26974   3.975  39.855  11.121
58581W        W26975   1.764  23.329   0.788
58582W        W26976  37.066  22.045   2.460
58583W        W26977  29.044  19.053  11.937
58584W        W26978  18.522  11.212  13.156
58585W        W26979  22.617  16.955  11.184
58586W        W26980  27.196   0.355  14.353
58587W        W26981  19.177  35.631  13.741
58588W        W26982   2.908   2.312   4.535
58589W        W26983  37.417  33.956  14.366
58590W        W26984   0.881  21.981   1.234
58591W        W26985   6.101  28.920  14.390
58592W        W26986   7.460  26.103   2.919
58593W        W26987  13.809  40.546   4.804
58594W        W26988  33.550   5.155   5.135
58595W        W26989  38.329   9.279   2.800
58596W        W26990  35.888  25.544   3.622
58597W        W26991   7.745   2.672  10.452
58598W        W26992   5.878  36.029   0.963
58599W        W26993   8.659  42.184  14.012
58600W        W26994   8.956  10.345  12.664
58601W        W26995  43.797  24.261   2.867
58602W        W26996   0.900  11.101   3.644
58603W        W26997   8.183   8.275  11.925
58604W        W26998  17.557  16.797   1.757
58605W        W26999   3.939  43.820   4.039
58606W        W27000  42.811   4.567   3.680
58607W        W27001  17.319  10.655   0.869
58608W        W27002  34.416   6.450   2.479
58609W        W27003  22.021  40.715  13.850
58610W        W27004  13.668  24.941   4.472
58611W        W27005  30.017  13.361   0.521
58612W        W27006  29.197   7.760  13.355
58613W        W27007  14.718  39.004  10.279
58614W        W27008   1.717  33.625  13.301
58615W        W27009  43.617  12.225   1.721
58616W        W27010   6.975  21.503   3.849
58617W        W27011  25.628  37.584   2.165
58618W        W27012  17.821  17.085  11.999
58619W        W27013  31.145   4.418   4.487
58620W        W27014   3.763  43.284   1.919
58621W        W27015   8.778   1.224  13.335
58622W        W27016   2.873  26.591   4.535
58623W        W27017  42.338  34.820   3.548
58624W        W27018  44.049  42.768   3.716
58625W        W27019  27.203  11.334   2.171
58626W        W27020   2.838  18.603  10.619
58627W        W27021   2.935  41.932   1.915
58628W        W27022  10.370  44.168   3.819
58629W        W27023  19.184  24.243  13.443
58630W        W27024  25.892   8.527  14.827
58631W        W27025  35.453   6.727  10.957
58632W        W27026  28.479  17.140  14.981
58633W        W27027  41.893   5.756  13.965
58634W        W27028  20.284  35.807  12.578
58635W        W27029   2.078  39.414   2.670
58636W        W27030  17.330   3.308  14.021
58637W        W27031   6.018  17.739  12.390
58638W        W27032   0.331  14.265   4.729
58639W        W27033  21.786  38.387   2.225
58640W        W27034  44.361   3.900  14.770
58641W        W27035  36.341  38.658   1.699
58642W        W27036  37.383   7.984   4.173
58643W        W27037  17.670   7.039  14.866
58644W        W27038   9.723  16.941  14.725
58645W        W27039  15.748  25.246   1.748
58646W        W27040   3.424  19.771   1.866
58647W        W27041   9.387  18.473  11.143
58648W        W27042  16.831  21.012  11.988
58649W        W27043  40.056  33.532  11.591
58650W        W27044  26.396  39.527  10.574
58651W        W27045  32.059  32.848   1.761
58652W        W27046  42.540  27.002  13.496
58653W        W27047  24.999  11.450  11.730
58654W        W27048  12.172  21.230  13.914
58655W        W27049  23.697  26.597  10.751
58656W        W27050   5.908  10.853   2.788
58657W        W27051  25.221   3.926   3.159
58658W        W27052  34.980  18.761  12.183
58659W        W27053   2.267   8.408  10.482
58660W        W27054  14.225  27.794  11.929
58661W        W27055  20.058  40.132  10.781
58662W        W27056   8.963  10.568   3.281
58663W        W27057  36.805  14.722   2.185
58664W        W27058  42.488   7.798   0.889
58665W        W27059  44.762  28.723  14.051
58666W        W27060  13.123  16.572  12.481
58667W        W27061  16.701  32.682  11.935
58668W        W27062  25.451  23.577   3.219
58669W        W27063  18.116   3.813   1.189
58670W        W27064  44.971  19.036   0.044
58671W        W27065  20.626  19.201   0.209
58672W        W27066   2.201  24.154   4.423
58673W        W27067  31.997  10.127  12.126
58674W        W27068   7.930   9.149   0.318
58675W        W27069  29.554   6.856  12.339
58676W        W27070   7.202   5.816   2.924
58677W        W27071   7.675  20.694  13.388
58678W        W27072  44.312   1.167  12.126
58679W        W27073  36.318   8.763   4.463
58680W        W27074  15.700  42.599   0.271
58681W        W27075  40.097  37.298   1.671
58682W        W27076  43.391  29.473   4.641
58683W        W27077  42.753  44.915   3.860
58684W        W27078  31.941  19.526   1.837
58685W        W27079  16.391  10.518  10.103
58686W        W27080  44.555   6.287  11.214
58687W        W27081  35.268  12.337   1.030
58688W        W27082   3.939  44.791  11.556
58689W        W27083  38.259  14.113   3.534
58690W        W27084   4.712  31.085   3.673
58691W        W27085  13.653   3.276  11.978
58692W        W27086  20.195  13.374   5.121
58693W        W27087  24.891  17.490   1.514
58694W        W27088  33.190  13.589  10.855
58695W        W27089  41.608  22.958  13.738
58696W        W27090  10.451  42.320   0.276
58697W        W27091   8.184  32.634  14.930
58698W        W27092  42.855  29.460   5.344
58699W        W27093  26.791  39.406   4.480
58700W        W27094  19.613  28.000   3.224
58701W        W27095  33.124   9.107   3.348
58702W        W27096  13.286  25.574   0.677
58703W        W27097  34.153  30.077  12.031
58704W        W27098  26.211  40.745   2.551
58705W        W27099  42.534  32.700  12.342
58706W        W27100  28.534  38.885   4.107
58707W        W27101  24.309   0.984  11.314
58708W        W27102  13.810  26.266   0.884
58709W        W27103  10.867  10.115   2.197
58710W        W27104  14.778  41.816   1.788
58711W        W27105  13.284  28.543  13.065
58712W        W27106  27.082  40.514   4.566
58713W        W27107  39.751  22.636  11.555
58714W        W27108  19.308   0.887  14.938
58715W        W27109  11.577   9.367  12.500
58716W        W27110  26.970  21.568  13.527
58717W        W27111  43.020  23.529  11.138
58718W        W27112  40.534  33.224   4.429
58719W        W27113  29.921   7.193  13.609
58720W        W27114  21.630  14.313  14.032
58721W        W27115   4.665   9.731  11.072
58722W        W27116  34.071  14.663  10.746
58723W        W27117  37.013   3.151   2.304
58724W        W27118  29.134  23.577  12.074
58725W        W27119  42.096  26.481  12.075
58726W        W27120   3.751  32.914   0.935
58727W        W27121  14.257  29.998   0.684
58728W        W27122   0.762  27.737  12.042
58729W        W27123  43.038  20.015   4.207
58730W        W27124  26.179  40.756  10.452
58731W        W27125  44.950  38.423   4.287
58732W        W27126  27.046   8.443   2.172
58733W        W27127   9.627   9.489   1.845
58734W        W27128  38.534  14.233  11.487
58735W        W27129  11.816  41.327   4.507
58736W        W27130  25.037  39.923  11.568
58737W        W27131  34.117  23.198  11.171
58738W        W27132  15.361   9.696  11.963
58739W        W27133  43.930   5.358  11.061
58740W        W27134  30.189  39.912   1.310
58741W        W27135  40.474  12.511  11.833
58742W        W27136  14.811  34.085   3.391
58743W        W27137   9.827  16.244  13.112
58744W        W27138  22.742   5.820  14.236
58745W        W27139  32.930  12.920   5.134
58746W        W27140  31.144  21.910  13.004
58747W        W27141  29.626   1.927   2.140
58748W        W27142  13.883   6.925   0.326
58749W        W27143  24.902   4.709   1.489
58750W        W27144  27.608  26.930  11.649
58751W        W27145  14.599  17.669  13.184
58752W        W27146   7.015  37.485   1.248
58753W        W27147  16.910  10.176  12.270
58754W        W27148  26.193  22.259   0.812
58755W        W27149  13.907  23.785  10.939
58756W        W27150   8.860   2.780   0.325
58757W        W27151  37.571  34.887  12.563
58758W        W27152  21.097  16.388  11.529
58759W        W27153  19.590  35.894  10.494
58760W        W27154  44.935  22.012   0.808
58761W        W27155  40.587  24.729   1.885
58762W        W27156   4.990  31.056   4.105
58763W        W27157  17.155   2.710  12.918
58764W        W27158  16.763  18.527   0.264
58765W        W27159   9.362  25.114  11.329
58766W        W27160  15.134  40.072   4.533
58767W        W27161  43.694   3.266  12.226
58768W        W27162  12.504  35.339  14.929
58769W        W27163   5.178  25.516   0.905
58770W        W27164  22.230  31.374   2.251
58771W        W27165   8.120  30.171   0.808
58772W        W27166  40.249   1.142   2.978
58773W        W27167  40.778   8.837  11.632
58774W        W27168  25.560  21.021  12.475
58775W        W27169  36.648  11.229  13.572
58776W        W27170  29.019   9.226  13.039
58777W        W27171  21.792  14.549   1.414
58778W        W27172  35.543  29.991   1.715
58779W        W27173  31.952   7.641  10.822
58780W        W27174   1.356  25.886  10.612
58781W        W27175  37.678  31.580  10.543
58782W        W27176   2.168  16.644  12.415
58783W        W27177  33.983  12.514  11.478
58784W        W27178  42.413  44.459   0.267
58785W        W27179   3.706  43.012  13.039
58786W        W27180  16.167  43.789   2.223
58787W        W27181  12.651   9.403  12.192
58788W        W27182  31.799  17.979  14.049
58789W        W27183  35.213   9.587   4.133
58790W        W27184  43.040  30.039  11.606
58791W        W27185  41.227  31.455   0.085
58792W        W27186  35.538  29.572   3.887
58793W        W27187  23.139  32.115   1.941
58794W        W27188  13.867  20.480   4.938
58795W        W27189   3.575  14.059  11.648
58796W        W27190  38.935  38.422   1.011
58797W        W27191  34.461  39.604  14.024
58798W        W27192   9.566  40.347   2.858
58799W        W27193  22.673  42.000  12.938
58800W        W27194  40.679  12.075  13.011
58801W        W27195   5.465  28.582   1.942
58802W        W27196  19.725   6.810  13.369
58803W        W27197   8.748  13.010   2.997
58804W        W27198  17.156  19.198  10.813
58805W        W27199  27.897  33.532   4.190
58806W        W27200  33.575  39.855   1.853
58807W        W27201   7.109  16.391  14.776
58808W        W27202  25.177  21.500  13.814
58809W        W27203  26.446  13.762  14.529
58810W        W27204  15.834  32.906   2.800
58811W        W27205   7.204  11.657  12.882
58812W        W27206  10.743  21.222  13.855
58813W        W27207  33.655   2.446   1.338
58814W        W27208   8.433  34.382   3.301
58815W        W27209  19.279  27.990  11.274
58816W        W27210  27.315  16.591   0.049
58817W        W27211  21.834  39.980  12.854
58818W        W27212  22.709   5.760  12.574
58819W        W27213  17.988  36.864   1.702
58820W        W27214  26.495  23.961   3.997
58821W        W27215  22.334  14.610   4.693
58822W        W27216   7.804   6.240  10.224
58823W        W27217  16.755  43.351   1.112
58824W        W27218   1.751  18.335   3.332
58825W        W27219  42.827  30.638  11.079
58826W        W27220   6.636  31.384  13.169
58827W        W27221   1.473   0.424  12.992
58828W        W27222  38.475  29.696  10.697
58829W        W27223   4.674  18.916  11.620
58830W        W27224  13.118  40.292   1.270
58831W        W27225  28.151   8.755   2.796
58832W        W27226   6.857  42.573   0.351
58833W        W27227   8.366  25.242  14.006
58834W        W27228  39.607  22.481   0.226
58835W        W27229  32.161  19.606   3.299
58836W        W27230  30.951  16.188   2.984
58837W        W27231   8.822  10.024  13.105
58838W        W27232  14.815  30.597  10.376
58839W        W27233  14.073   5.064   2.827
58840W        W27234   9.776  35.966  12.220
58841W        W27235   6.902  14.751  14.535
58842W        W27236   0.266  43.988  14.830
58843W        W27237   3.681  31.107   3.729
58844W        W27238  42.833  39.365   3.927
58845W        W27239   7.818  18.150  11.395
58846W        W27240  23.362  23.803  10.749
58847W        W27241   7.318   1.449   2.105
58848W        W27242  18.322   4.838  11.503
58849W        W27243  37.526  39.607   1.786
58850W        W27244  17.015   3.784   2.325
58851W        W27245  14.825  26.594  10.621
58852W        W27246  15.733   9.362  11.093
58853W        W27247  38.330  16.892  12.025
58854W        W27248  25.023   3.807   0.838
58855W        W27249  13.390  21.322  14.982
58856W        W27250  28.111  42.833   2.958
58857W        W27251  43.372  16.408   2.322
58858W        W27252   9.178  22.012   4.295
58859W        W27253  16.941  40.232   4.970
58860W        W27254   0.786   7.162  13.505
58861W        W27255   8.174  34.584  14.402
58862W        W27256   3.748  22.182  12.519
58863W        W27257  38.876  24.908   4.631
58864W        W27258  16.664  28.912   1.173
58865W        W27259  35.141  36.110   0.178
58866W        W27260  29.931  13.818  12.467
58867W        W27261   3.505   5.631  11.559
58868W        W27262  21.589  10.804  10.568
58869W        W27263   7.265  41.854   0.286
58870W        W27264  12.632  26.951   0.845
58871W        W27265   0.724   2.327  12.956
58872W        W27266  28.530   7.250   0.770
58873W        W27267  40.620   2.865   2.603
58874W        W27268  24.461  10.997  14.925
58875W        W27269   9.486   4.892   4.993
58876W        W27270  28.945  30.555   0.824
58877W        W27271  18.941   3.989  12.330
58878W        W27272  42.820  44.026  12.634
58879W        W27273   0.239  29.551   3.270
58880W        W27274  44.877   5.512   2.968
58881W        W27275  17.643  28.312  14.484
58882W        W27276  26.553  32.174   1.700
58883W        W27277  25.047   3.453   3.116
58884W        W27278  20.074  37.425  13.808
58885W        W27279  27.408  42.379  11.520
58886W        W27280  21.796  35.862   2.686
58887W        W27281   9.837  20.910   1.916
58888W        W27282  19.835  25.900  13.030
58889W        W27283  33.927  42.160  10.704
58890W        W27284  16.755  42.344  10.968
58891W        W27285  41.063  13.184  14.281
58892W        W27286  12.674   2.506   3.421
58893W        W27287  23.029  33.467  12.128
58894W        W27288  39.581  42.383   4.656
58895W        W27289   1.244  23.560   0.676
58896W        W27290  26.600   6.947  12.376
58897W        W27291  16.314  17.014   4.000
58898W        W27292   4.803   6.868   4.275
58899W        W27293  31.448  34.587  11.459
58900W        W27294   4.855  12.340  10.385
58901W        W27295  10.907   5.284  13.517
58902W        W27296  19.636  42.778  11.158
58903W        W27297   1.535  36.482  12.017
58904W        W27298  11.620   1.800   1.237
58905W        W27299  23.831  13.431  11.716
58906W        W27300  19.980   0.944  13.668
58907W        W27301  38.597  31.119  11.618
58908W        W27302  41.346  25.622   2.358
58909W        W27303  10.240  27.918   1.422
58910W        W27304  30.165  27.613   1.458
58911W        W27305  28.435  20.197  13.339
58912W        W27306  32.126  31.804   1.842
58913W        W27307   3.767   9.212  11.212
58914W        W27308   0.238  24.512   4.618
58915W        W27309  44.273  26.015   4.603
58916W        W27310  30.876  42.383  13.896
58917W        W27311  44.807  15.466  14.268
58918W        W27312  33.339  41.864   4.562
58919W        W27313  12.275  38.378  14.026
58920W        W27314  37.663  12.281   2.201
58921W        W27315   6.354  21.458   9.864
58922W        W27316   7.602  41.959   4.607
58923W        W27317  11.343  14.436  10.954
58924W        W27318  10.449   5.967   2.756
58925W        W27319  34.573  24.007  13.382
58926W        W27320  34.517   8.668   4.475
58927W        W27321   7.205  29.588   1.893
58928W        W27322  38.303  40.749   2.060
58929W        W27323  24.544   2.845   1.460
58930W        W27324  29.091   1.838  10.611
58931W        W27325  43.932  34.458  11.711
58932W        W27326  31.054  19.100   2.863
58933W        W27327  13.940  15.274  11.156
58934W        W27328  39.052  44.236  14.911
58935W        W27329  16.225  16.066   0.077
58936W        W27330  21.104  36.091  12.603
58937W        W27331   6.835  33.623   4.318
58938W        W27332  33.973  11.016   3.308
58939W        W27333  18.760  40.873  11.532
58940W        W27334   0.472  31.512   4.839
58941W        W27335  37.458  16.784   2.251
58942W        W27336  29.789  23.728  14.540
58943W        W27337   1.055  24.931  11.397
58944W        W27338  14.151  12.631   4.211
58945W        W27339  39.064  19.097  10.397
58946W        W27340  28.332  38.369  11.530
58947W        W27341  16.004  11.676  10.531
58948W        W27342  44.200  13.026   1.623
58949W        W27343   5.856   9.630   3.684
58950W        W27344   9.707  43.441   1.734
58951W        W27345   0.180  27.511   2.154
58952W        W27346  17.991   3.626  14.139
58953W        W27347  42.874  29.112   2.638
58954W        W27348   3.660  24.113  12.138
58955W        W27349  32.139  20.018   4.104
58956W        W27350  41.327  30.100   3.589
58957W        W27351  14.407  19.989  14.883
58958W        W27352  39.318  22.289   2.678
58959W        W27353   7.277  35.896   4.695
58960W        W27354  18.765   7.686  14.888
58961W        W27355  21.089   6.525  14.218
58962W        W27356  11.905  38.429   3.596
58963W        W27357  13.569  15.032  11.451
58964W        W27358  20.518  21.145   1.804
58965W        W27359   0.796   8.622   0.360
58966W        W27360  16.017  42.825   4.833
58967W        W27361  34.309  19.433  12.022
58968W        W27362   6.722  42.774   4.100
58969W        W27363  13.131  15.293  11.551
58970W        W27364   4.195   3.107  11.631
58971W        W27365  26.739   3.443  12.077
58972W        W27366  17.753  44.289  10.636
58973W        W27367   3.954  37.522  11.590
58974W        W27368  44.683  23.035  14.340
58975W        W27369  17.835  18.303  14.658
58976W        W27370  44.210  25.984   1.432
58977W        W27371  33.868  19.937   1.123
58978W        W27372  27.545  28.774  12.009
58979W        W27373   6.348  28.625   3.282
58980W        W27374  14.624   3.786  11.479
58981W        W27375  15.407   7.981   5.041
58982W        W27376   7.967  37.466  14.391
58983W        W27377   5.976  32.881  14.516
58984W        W27378  11.094  42.455  12.558
58985W        W27379  34.496  17.353  11.192
58986W        W27380  33.657  43.731  11.403
58987W        W27381  12.455  38.569  14.481
58988W        W27382  11.003  42.905   4.649
58989W        W27383  27.334  28.917  13.277
58990W        W27384  27.183  25.140   3.604
58991W        W27385  30.036  14.641   3.114
58992W        W27386   9.218  29.992  12.555
58993W        W27387  33.075   8.347   3.748
58994W        W27388   2.451  29.046  13.209
58995W        W27389   3.782  28.377  11.554
58996W        W27390  30.943  30.500   4.647
58997W        W27391   0.759  15.068   0.994
58998W        W27392  31.954  34.118  13.872
58999W        W27393   0.393   4.895   3.152
59000W        W27394  12.199  14.252  12.993
59001W        W27395  32.870  40.361   1.428
59002W        W27396  22.195  17.776   2.221
59003W        W27397   0.307  39.826  12.857
59004W        W27398  12.723  31.849  11.648
59005W        W27399  22.012  25.213   1.808
59006W        W27400   8.979  34.862   4.603
59007W        W27401  17.651  40.619   2.023
59008W        W27402  31.222  23.451  14.479
59009W        W27403  34.917  40.364  11.655
59010W        W27404  32.557  18.302   0.208
59011W        W27405  33.622  19.616  12.071
59012W        W27406   4.722   1.863  11.141
59013W        W27407   4.709  37.329   1.259
59014W        W27408  26.542  29.932  14.538
59015W        W27409  27.889  38.444  13.076
59016W        W27410  13.619  25.421   4.663
59017W        W27411  20.161  26.773  12.201
59018W        W27412  16.461  13.788   1.421
59019W        W27413   2.169  11.880  12.619
59020W        W27414   7.072  17.752  11.405
59021W        W27415   2.220  44.335  14.379
59022W        W27416  42.883  36.626  14.759
59023W        W27417  23.269  41.348   2.395
59024W        W27418  16.689   8.262  11.602
59025W        W27419  24.282  21.654  11.619
59026W        W27420   3.214  27.019  11.953
59027W        W27421  39.874   0.919  10.836
59028W        W27422   5.917   6.973  14.380
59029W        W27423  23.767  21.085  11.162
59030W        W27424   8.943  34.790   1.651
59031W        W27425  28.198  36.072   0.398
59032W        W27426  33.664  34.951  14.582
59033W        W27427  26.587   6.164  14.958
59034W        W27428   6.195  31.202  12.437
59035W        W27429  21.112  36.310   1.299
59036W        W27430  11.605  39.844   1.773
59037W        W27431  26.612  19.012  14.354
59038W        W27432  12.023  34.790   2.325
59039W        W27433  40.483  18.068  12.977
59040W        W27434  37.186   3.320   4.477
59041W        W27435   2.750  21.842  12.558
59042W        W27436  40.324  19.266  13.963
59043W        W27437   5.830  40.782   0.730
59044W        W27438  23.982  35.075   1.374
59045W        W27439  27.031  38.752  10.127
59046W        W27440  24.187  43.313   1.634
59047W        W27441  20.066  26.225  13.368
59048W        W27442   8.357  31.668  12.530
59049W        W27443  28.626  34.328  12.105
59050W        W27444  21.595  43.953  13.755
59051W        W27445  29.516  42.510   0.536
59052W        W27446  21.187   5.703  10.955
59053W        W27447  29.926  18.167  14.115
59054W        W27448  32.930  44.588   1.216
59055W        W27449  24.809  44.780  14.839
59056W        W27450   5.697  13.340  10.777
59057W        W27451  34.725   6.668   4.845
59058W        W27452  24.179  43.347   9.871
59059W        W27453  18.613  36.655   0.515
59060W        W27454  32.933  27.991  11.998
59061W        W27455  39.814  10.853   4.676
59062W        W27456  33.987   5.836  14.697
59063W        W27457  25.270  26.226   3.558
59064W        W27458  26.118   5.719  13.921
59065W        W27459   3.336  22.501   2.359
59066W        W27460  14.836  18.614  13.119
59067W        W27461  27.222  23.754   3.211
59068W        W27462  19.015  38.741   3.221
59069W        W27463  22.680  23.441  12.066
59070W        W27464  41.503   6.262  10.746
59071W        W27465   8.812  43.700   0.805
59072W        W27466  24.253  36.932   3.653
59073W        W27467   2.701  44.861  14.094
59074W        W27468  39.144  12.005   3.696
59075W        W27469  17.113  24.650   1.817
59076W        W27470   3.366  15.811  12.611
59077W        W27471  44.184  42.224  11.507
59078W        W27472  28.995  31.124  12.089
59079W        W27473  12.709  20.126   0.183
59080W        W27474  25.059  28.035   4.768
59081W        W27475   5.814   6.835   5.053
59082W        W27476   1.989   7.248   4.245
59083W        W27477  36.560  42.504   2.140
59084W        W27478   7.769  40.924   2.740
59085W        W27479   8.134  19.073  12.688
59086W        W27480  26.041  12.064  12.792
59087W        W27481  22.243  44.103  11.175
59088W        W27482   2.355  14.558  11.398
59089W        W27483  18.670   7.361  12.050
59090W        W27484  19.945  28.876  14.714
59091W        W27485   5.235  30.855   3.692
59092W        W27486  41.477  12.687  11.220
59093W        W27487  39.963  36.636   2.719
59094W        W27488  21.927  28.234   3.660
59095W        W27489   8.775   9.173  13.873
59096W        W27490  40.030   9.308  14.363
59097W        W27491  35.422  16.267   3.323
59098W        W27492  29.957   3.253   0.943
59099W        W27493  29.496  17.296   3.639
59100W        W27494  14.089  34.826  12.740
59101W        W27495  41.102  15.289  12.538
59102W        W27496  36.897  23.100  13.176
59103W        W27497  44.493  25.392   2.154
59104W        W27498  28.108  31.930  11.074
59105W        W27499  36.347  28.795   1.189
59106W        W27500   7.767   6.292   9.689
59107W        W27501  21.790  15.068  13.495
59108W        W27502  33.047   9.198   2.802
59109W        W27503  35.444  35.645  14.872
59110W        W27504  43.544  16.744   0.860
59111W        W27505  33.026   7.653  12.280
59112W        W27506  26.754   9.223   4.459
59113W        W27507  44.778   7.109   0.506
59114W        W27508  44.927  16.890  10.652
59115W        W27509   4.250  22.088  13.385
59116W        W27510  28.910  31.008   0.438
59117W        W27511  15.176  36.703  12.201
59118W        W27512  35.144  25.222  14.372
59119W        W27513  34.922  41.293  10.748
59120W        W27514  34.840  28.749   1.096
59121W        W27515  33.055   8.640   2.902
59122W        W27516  37.307  41.992   0.752
59123W        W27517  16.313  43.930  14.255
59124W        W27518  15.801  19.970   4.174
59125W        W27519  19.411  22.724   4.569
59126W        W27520   3.491  12.182   4.560
59127W        W27521   6.800  15.086  14.941
59128W        W27522  17.855  33.584  11.576
59129W        W27523  13.715  29.914   4.262
59130W        W27524  30.397  36.497  13.440
59131W        W27525   6.477  24.581  14.807
59132W        W27526  18.584  16.126  10.607
59133W        W27527  36.132  34.562   1.445
59134W        W27528  10.318  14.205   3.704
59135W        W27529   2.724  42.404   1.821
59136W        W27530   4.874   7.375   3.468
59137W        W27531  40.112   5.959  13.344
59138W        W27532  21.047  44.909   2.773
59139W        W27533  12.785  38.517   1.780
59140W        W27534  21.814  22.801  14.514
59141W        W27535   0.686  34.807  13.933
59142W        W27536  28.636  25.152  10.745
59143W        W27537  21.438  29.635   0.727
59144W        W27538  32.944  39.058   1.856
59145W        W27539   5.859   2.726  14.446
59146W        W27540  14.574  10.776   0.401
59147W        W27541  34.877  10.266  13.058
59148W        W27542  33.179  41.429  11.250
59149W        W27543   8.518  21.239   3.639
59150W        W27544  15.906  24.529   1.308
59151W        W27545  23.770  44.442  13.780
59152W        W27546  38.456  15.578  13.043
59153W        W27547  35.840  39.316   0.244
59154W        W27548  40.432  21.752   3.181
59155W        W27549  13.752  19.525   1.460
59156W        W27550  41.199  15.701  14.769
59157W        W27551  12.718  38.087   1.476
59158W        W27552  17.099  22.156   2.437
59159W        W27553  13.193  36.357   4.606
59160W        W27554  34.941   4.730  13.003
59161W        W27555  13.229  41.604   3.307
59162W        W27556  44.328  26.129   2.675
59163W        W27557   9.408  20.550  14.273
59164W        W27558  40.458  34.006  11.112
59165W        W27559  22.324  18.096   4.670
59166W        W27560  29.694  11.926   1.780
59167W        W27561  28.233   3.800   2.641
59168W        W27562  29.430  29.506   0.175
59169W        W27563   8.771  17.306   3.913
59170W        W27564  38.469   0.004   0.949
59171W        W27565  16.347  29.960   2.809
59172W        W27566  26.192   1.426   3.099
59173W        W27567  41.785  40.720  12.938
59174W        W27568  16.743  34.025   3.246
59175W        W27569  37.555  44.276   3.793
59176W        W27570  19.653  22.215  11.950
59177W        W27571  24.193  24.953   1.909
59178W        W27572  41.536  11.788   2.297
59179W        W27573  36.845   4.381   0.476
59180W        W27574  16.318  38.552   2.606
59181W        W27575   4.182  28.854   2.672
59182W        W27576  22.019  19.200  12.110
59183W        W27577  18.340  36.367  14.931
59184W        W27578  29.982  37.552  10.726
59185W        W27579   2.725  26.138  12.083
59186W        W27580  36.572   1.808  11.452
59187W        W27581  11.842  30.421   4.048
59188W        W27582   2.022  21.571   2.785
59189W        W27583  31.379  20.598  11.628
59190W        W27584  43.927  36.722   2.292
59191W        W27585  40.877  26.773  12.223
59192W        W27586  39.973   4.782   3.063
59193W        W27587  22.243   6.724  12.167
59194W        W27588  25.487  10.206   2.269
59195W        W27589  19.274  41.030  13.001
59196W        W27590  15.496  30.120   2.949
59197W        W27591  32.477   5.439  11.317
59198W        W27592  34.488   3.294   1.794
59199W        W27593  28.141  43.311   4.131
59200W        W27594  14.615  39.292   5.179
59201W        W27595  24.252  21.556   3.631
59202W        W27596  29.497  13.142   2.484
59203W        W27597  31.299  40.061  13.890
59204W        W27598   9.336  29.205   4.646
59205W        W27599  17.284   2.422   1.345
59206W        W27600  44.691  22.633   0.564
59207W        W27601  40.949  13.934   3.417
59208W        W27602  27.491  11.744  11.004
59209W        W27603   6.273  42.039   4.436
59210W        W27604  43.914  39.536  10.449
59211W        W27605  41.051  21.098   3.629
59212W        W27606  18.636  16.257   4.639
59213W        W27607  18.820  31.593  13.964
59214W        W27608  37.903  34.257  13.567
59215W        W27609  11.298  21.723  10.532
59216W        W27610  23.102   6.182  13.457
59217W        W27611   1.773   6.196  13.599
59218W        W27612   0.219  19.230   3.715
59219W        W27613  39.773  12.303  11.228
59220W        W27614  17.780   4.409  11.083
59221W        W27615  23.503  16.232  13.979
59222W        W27616  34.581   3.548   2.301
59223W        W27617   0.756  44.308   2.679
59224W        W27618  10.774   0.690  12.058
59225W        W27619   1.134   0.670   0.731
59226W        W27620  35.382  23.043  14.497
59227W        W27621  15.131  40.727   1.227
59228W        W27622  39.781  10.835   1.947
59229W        W27623  23.300  17.309   3.626
59230W        W27624  18.011  35.452   0.936
59231W        W27625  42.079  30.568   2.394
59232W        W27626  36.498  30.178   1.857
59233W        W27627  26.344  33.427  12.544
59234W        W27628   3.882  26.548   4.132
59235W        W27629  25.286  21.591   3.777
59236W        W27630  33.796   6.763  10.550
59237W        W27631  12.242   1.502  14.359
59238W        W27632  35.525  37.905  12.509
59239W        W27633   1.049  40.329   4.564
59240W        W27634   9.616  11.803   1.528
59241W        W27635  33.688  26.595   0.003
59242W        W27636  12.548  37.324  13.075
59243W        W27637  22.023  21.170   3.269
59244W        W27638   3.862  13.561   2.765
59245W        W27639  40.504  44.289  14.671
59246W        W27640  20.148  23.172   4.638
59247W        W27641  18.170  15.495   1.688
59248W        W27642  29.682  18.650  14.897
59249W        W27643  32.157  33.138  11.965
59250W        W27644  20.294  33.918   0.737
59251W        W27645  30.445   6.253  11.925
59252W        W27646   6.674  39.029  10.698
59253W        W27647  32.969  11.818  10.679
59254W        W27648   7.828   3.970  14.096
59255W        W27649  18.963   8.549   1.704
59256W        W27650  23.953  15.458   0.928
59257W        W27651  43.703  44.124   4.294
59258W        W27652  21.117   8.425  14.381
59259W        W27653  31.206  31.158   0.319
59260W        W27654  27.027  39.787  14.092
59261W        W27655  43.216  28.867  13.128
59262W        W27656  44.643  36.289  11.302
59263W        W27657  33.110  28.667  12.477
59264W        W27658  13.550  41.770  13.477
59265W        W27659  21.804   5.406  14.474
59266W        W27660  39.140  37.073  10.672
59267W        W27661  38.508   8.453   3.161
59268W        W27662  38.207  35.484   0.853
59269W        W27663  16.840  22.285   3.683
59270W        W27664   1.425  17.932   3.206
59271W        W27665  30.544  13.247   3.707
59272W        W27666  20.751   3.057   2.702
59273W        W27667  22.767  15.683  11.178
59274W        W27668  29.804   4.721  11.621
59275W        W27669  40.102  25.777   3.267
59276W        W27670  32.882  30.438  12.506
59277W        W27671  22.081   4.072   1.122
59278W        W27672  19.560  29.687   3.262
59279W        W27673  28.384   4.718  13.214
59280W        W27674  24.537  11.692  13.381
59281W        W27675  29.520  40.872  14.792
59282W        W27676  32.351  18.372  10.730
59283W        W27677  14.369   6.719  13.407
59284W        W27678  14.877   2.965   3.059
59285W        W27679  40.094  18.869  10.986
59286W        W27680  32.221  21.241   0.294
59287W        W27681  34.926  12.430   3.415
59288W        W27682  22.390  33.053  11.522
59289W        W27683   9.284  34.852  14.971
59290W        W27684  37.574  28.521   0.420
59291W        W27685  30.185   3.487  13.989
59292W        W27686  12.416   0.915   3.766
59293W        W27687  12.015   6.880  14.849
59294W        W27688  29.048   3.312   4.342
59295W        W27689   0.880  37.518  11.144
59296W        W27690  14.757  38.264   4.893
59297W        W27691   9.173  42.206  12.967
59298W        W27692  44.449  14.331  14.728
59299W        W27693  37.121   9.899  14.944
59300W        W27694  15.614  24.759  12.636
59301W        W27695  33.990  43.776  12.363
59302W        W27696  31.368   6.078   3.669
59303W        W27697   6.448  28.292   4.145
59304W        W27698  14.201  41.265   3.297
59305W        W27699  23.074  12.323   2.175
59306W        W27700  26.245  15.259   3.672
59307W        W27701  43.160  40.494   5.312
59308W        W27702  12.144  21.945   1.305
59309W        W27703  23.712  27.500  14.015
59310W        W27704  35.505  43.266  14.398
59311W        W27705  24.132  41.913  13.083
59312W        W27706  11.288  40.374   0.922
59313W        W27707  37.122  21.079   4.540
59314W        W27708  39.932   6.437   0.389
59315W        W27709  11.928  30.154   1.289
59316W        W27710  42.870  34.873   5.247
59317W        W27711  33.851   8.112  10.921
59318W        W27712  31.631  44.641  14.083
59319W        W27713  44.339  14.271  11.249
59320W        W27714  36.598  27.410  12.075
59321W        W27715   6.923  17.281   0.005
59322W        W27716  41.330  15.583   0.798
59323W        W27717  32.191   8.245   2.723
59324W        W27718   8.889  15.232   1.270
59325W        W27719  35.579  15.141   2.156
59326W        W27720  24.507  38.156  13.998
59327W        W27721  23.565   8.188   3.431
59328W        W27722  10.821  26.605  13.270
59329W        W27723  22.410  10.705   2.707
59330W        W27724   2.433  27.038   3.444
59331W        W27725  29.098   6.068   0.693
59332W        W27726   7.957  28.980   3.519
59333W        W27727  19.876  16.648  10.254
59334W        W27728  19.445  40.483  14.339
59335W        W27729  17.558  35.469  12.060
59336W        W27730  40.125  13.773  13.484
59337W        W27731  37.830  42.886  14.367
59338W        W27732  42.647  36.515  13.891
59339W        W27733  37.545  14.794  12.166
59340W        W27734  37.989   3.350   3.667
59341W        W27735  34.279  32.573  14.304
59342W        W27736  44.219   0.795  14.481
59343W        W27737  14.619  35.559  12.422
59344W        W27738   3.419   7.109   1.902
59345W        W27739  27.382   4.208   4.236
59346W        W27740  43.840  12.773   2.553
59347W        W27741  42.402   4.616   3.028
59348W        W27742  29.988  21.276   4.065
59349W        W27743  37.755  27.397   2.072
59350W        W27744  11.157  20.769  12.404
59351W        W27745  21.821   4.393  14.464
59352W        W27746  27.570   9.143  10.508
59353W        W27747  16.748  20.098   1.286
59354W        W27748  11.702  36.983   0.765
59355W        W27749  14.705  39.299  12.857
59356W        W27750  12.112  39.030   0.475
59357W        W27751   5.710  16.300   1.450
59358W        W27752  40.011  22.251  13.932
59359W        W27753  38.101  14.843   2.735
59360W        W27754   2.382  29.876   2.957
59361W        W27755  19.292   8.319   2.495
59362W        W27756  30.185  37.009  11.591
59363W        W27757  36.972  33.602  10.580
59364W        W27758  38.559  34.392  13.388
59365W        W27759  31.054  20.614  14.328
59366W        W27760  39.415  30.620  12.718
59367W        W27761  18.080  25.392  10.599
59368W        W27762  34.647  35.521   1.648
59369W        W27763  15.811   0.746   1.411
59370W        W27764   5.508   0.910  13.560
59371W        W27765  25.706  28.837  14.015
59372W        W27766  20.653  14.306  12.223
59373W        W27767   2.369   9.036   1.373
59374W        W27768  25.997  28.172  12.500
59375W        W27769  39.045  34.440   1.822
59376W        W27770  32.181  33.999  14.742
59377W        W27771  18.177  20.707   4.708
59378W        W27772  33.654  21.034  14.850
59379W        W27773  12.515  10.593   0.457
59380W        W27774  12.849  35.117   3.353
59381W        W27775  25.222  26.125  12.002
59382W        W27776  24.009  13.719  10.729
59383W        W27777  24.786  12.632   0.988
59384W        W27778   6.339  43.010   2.366
59385W        W27779  18.523  11.359  11.094
59386W        W27780  25.766   8.377  11.665
59387W        W27781  33.598  22.993  13.582
59388W        W27782   6.409  34.030   2.311
59389W        W27783   8.004  44.361  13.116
59390W        W27784  39.326  29.677  13.011
59391W        W27785  36.889   0.452   3.171
59392W        W27786  40.827  36.368   4.435
59393W        W27787  16.235  37.931   0.555
59394W        W27788  28.280  24.339   2.508
59395W        W27789   5.971  26.112  13.501
59396W        W27790  38.596   8.361   3.707
59397W        W27791  15.271   4.857   0.769
59398W        W27792  19.617  38.296  14.556
59399W        W27793  10.042  21.281  11.933
59400W        W27794  28.390  22.189  14.300
59401W        W27795  39.328  21.832  11.592
59402W        W27796  33.480   4.441   4.185
59403W        W27797   1.910   2.201   4.424
59404W        W27798  24.972  39.671   1.251
59405W        W27799  22.978  38.253  14.361
59406W        W27800  32.127  26.699  14.726
59407W        W27801  28.493   6.376  13.074
59408W        W27802  31.835  42.907   2.918
59409W        W27803  11.373  20.882  14.275
59410W        W27804  19.521  28.070   5.585
59411W        W27805  14.922  35.554   3.322
59412W        W27806  21.809  14.194  13.004
59413W        W27807  42.993  18.657   0.582
59414W        W27808  31.174  22.019   3.325
59415W        W27809  28.386  18.215   2.296
59416W        W27810  12.955  30.420   1.071
59417W        W27811  17.644  26.512  13.576
59418W        W27812  11.272  15.592  12.450
59419W        W27813   9.612  38.063  12.006
59420W        W27814   6.326   8.053  13.070
59421W        W27815   1.602   6.739   3.098
59422W        W27816  38.318  12.787   2.752
59423W        W27817  38.283   8.864  14.745
59424W        W27818  24.840  25.006  13.071
59425W        W27819  29.538  21.585   4.036
59426W        W27820   0.958  21.221  13.195
59427W        W27821  34.594   9.760   0.921
59428W        W27822  17.330   8.973   3.826
59429W        W27823  42.864   2.004   1.716
59430W        W27824   3.493   4.567  13.583
59431W        W27825   5.483  30.506   1.491
59432W        W27826   8.644   4.971  13.563
59433W        W27827  42.878  21.243   3.756
59434W        W27828  30.448  38.036   1.730
59435W        W27829  18.666  15.335   0.877
59436W        W27830  12.859  35.919   0.977
59437W        W27831   3.638  20.316  13.131
59438W        W27832  30.027   0.020   0.910
59439W        W27833   9.097  27.007  12.095
59440W        W27834  32.634  42.984   4.259
59441W        W27835  10.711  18.151  12.951
59442W        W27836  27.947  11.828   2.285
59443W        W27837  25.245  43.357  11.304
59444W        W27838  16.816   2.800   0.898
59445W        W27839  38.873  19.277  11.191
59446W        W27840  39.404   9.273   4.774
59447W        W27841  10.821  44.469   3.872
59448W        W27842  43.865  36.953  13.436
59449W        W27843   4.362  32.601  11.593
59450W        W27844  37.027  33.439  12.965
59451W        W27845  13.685  24.042   4.935
59452W        W27846  35.969   2.611   3.276
59453W        W27847  13.246  14.549   3.791
59454W        W27848  10.708  23.960  10.744
59455W        W27849  22.870  43.454  11.909
59456W        W27850  20.191   2.592  14.740
59457W        W27851   3.343  27.531  14.927
59458W        W27852  12.766  29.091   0.920
59459W        W27853  12.195  43.255  14.334
59460W        W27854   4.893  15.102   2.828
59461W        W27855  17.975  18.070   3.826
59462W        W27856  31.369  31.514  12.895
59463W        W27857  27.113  33.619  13.067
59464W        W27858  26.151  31.029   4.718
59465W        W27859  31.899  35.540  10.547
59466W        W27860  32.386  12.581  14.282
59467W        W27861  31.892  31.407   3.087
59468W        W27862  43.450  27.666   1.279
59469W        W27863   8.123  35.578   3.213
59470W        W27864  38.374  14.066  12.995
59471W        W27865   2.367  39.578  12.089
59472W        W27866  39.200  16.303   1.967
59473W        W27867   1.240  42.478  12.773
59474W        W27868   8.214  23.466  12.498
59475W        W27869  18.303  19.627  14.759
59476W        W27870  12.158   3.101  11.649
59477W        W27871  11.837  33.539  13.938
59478W        W27872  13.813  22.027   1.395
59479W        W27873  26.346   8.887   4.946
59480W        W27874  42.984  31.467  12.964
59481W        W27875  30.836  12.600  14.367
59482W        W27876  44.187   7.225   3.702
59483W        W27877   6.377  15.779   3.595
59484W        W27878  36.144  30.142   4.614
59485W        W27879  32.911  44.821  11.504
59486W        W27880  39.485  32.621   1.361
59487W        W27881  20.291  42.081   0.374
59488W        W27882  12.246  22.766   1.788
59489W        W27883  42.379  40.023   3.773
59490W        W27884   1.537  40.740  12.609
59491W        W27885  21.242  31.432   1.030
59492W        W27886   7.757  18.819   3.814
59493W        W27887   4.194  43.197  12.454
59494W        W27888  19.218  38.065   3.733
59495W        W27889  41.507  33.841   4.457
59496W        W27890  21.071  29.371   1.359
59497W        W27891  44.104  33.611  12.105
59498W        W27892  39.043  43.292   3.590
59499W        W27893  25.724  14.295   2.692
59500W        W27894   1.949   7.018  14.859
59501W        W27895  35.838  41.724  12.464
59502W        W27896  34.072  17.049   0.060
59503W        W27897  13.378  36.686  13.910
59504W        W27898  11.134  35.321   2.327
59505W        W27899  10.346  37.605   4.580
59506W        W27900  28.945  14.056   3.092
59507W        W27901  19.670  27.968  14.570
59508W        W27902  17.775  32.138  12.611
59509W        W27903  43.553  36.122   3.628
59510W        W27904   4.426  13.417   2.186
59511W        W27905  12.491  26.732  11.540
59512W        W27906  12.225   6.901  11.914
59513W        W27907  43.313  25.721   3.720
59514W        W27908  37.920  30.079   4.420
59515W        W27909  38.069   5.342  12.452
59516W        W27910  12.990   4.394   3.656
59517W        W27911  13.110  28.148   0.864
59518W        W27912  39.124  12.108  13.910
59519W        W27913  40.468  20.038  11.410
59520W        W27914  10.366  22.496  13.611
59521W        W27915  20.839  14.338  11.724
59522W        W27916  33.130  31.116  12.056
59523W        W27917   6.804   1.636  14.886
59524W        W27918  32.465  38.462   1.372
59525W        W27919  42.449   6.420   3.718
59526W        W27920   0.905   7.352  13.969
59527W        W27921   7.438  31.690  13.775
59528W        W27922  30.689   3.270  13.307
59529W        W27923   0.053   8.104   1.480
59530W        W27924  14.285   2.172   1.869
59531W        W27925  31.539   1.707  12.518
59532W        W27926   1.058  17.588  11.630
59533W        W27927   4.725  26.359  13.404
59534W        W27928  13.554   2.761  12.037
59535W        W27929  33.609  41.982  13.423
59536W        W27930  22.713  13.987   3.059
59537W        W27931  22.265  36.982  11.198
59538W        W27932  23.435  35.687  13.141
59539W        W27933  44.459  27.857  10.545
59540W        W27934  43.463  15.670  11.974
59541W        W27935  13.209  13.071   2.845
59542W        W27936  27.492  39.978   2.851
59543W        W27937   1.330  29.623  11.648
59544W        W27938  28.506  41.077   3.105
59545W        W27939  35.063  20.156   4.555
59546W        W27940  19.006  28.690   0.773
59547W        W27941  27.515  10.881  13.967
59548W        W27942  28.700  17.153   1.851
59549W        W27943  33.417  10.257  13.535
59550W        W27944   7.440  14.044  10.221
59551W        W27945  10.743  15.793  13.760
59552W        W27946  10.302   8.102  10.635
59553W        W27947  11.785  24.890  11.188
59554W        W27948  19.236  38.193   5.427
59555W        W27949  12.295   3.090  12.666
59556W        W27950  30.625   8.307  12.999
59557W        W27951   5.962   2.362   2.796
59558W        W27952   1.365  28.498  14.878
59559W        W27953  38.312  29.107   0.985
59560W        W27954  11.214  40.786  11.810
59561W        W27955   9.838  11.676   2.463
59562W        W27956  27.024  20.629   4.064
59563W        W27957  11.551   4.487   3.231
59564W        W27958  32.687  42.532   2.538
59565W        W27959   6.322   1.641   2.400
59566W        W27960  13.070  29.295   2.760
59567W        W27961  28.140  28.417   3.702
59568W        W27962  25.002   1.021  12.536
59569W        W27963  39.325  22.427   2.156
59570W        W27964  28.057  32.090   1.517
59571W        W27965  35.586  15.715  12.475
59572W        W27966   3.384  26.942   1.780
59573W        W27967  16.248  16.122  10.724
59574W        W27968  30.809   1.856  13.025
59575W        W27969  42.757  21.976   0.881
59576W        W27970   4.038   6.942   3.255
59577W        W27971  15.859  37.794   2.790
59578W        W27972  24.513  43.310  10.282
59579W        W27973  38.804  42.106  10.927
59580W        W27974  36.304  23.573   1.792
59581W        W27975   4.173   4.445  11.185
59582W        W27976  27.539  17.627   1.986
59583W        W27977  34.415  39.469  10.529
59584W        W27978  18.628   1.204  13.557
59585W        W27979   8.541  42.304  11.647
59586W        W27980   6.707  21.579   4.796
59587W        W27981  33.643  16.776  14.271
59588W        W27982   0.479  28.837  10.425
59589W        W27983  23.434   2.502  10.681
59590W        W27984  13.128  21.495   3.643
59591W        W27985   3.396  35.952  14.348
59592W        W27986  26.893  17.756   0.718
59593W        W27987  12.169  19.240   0.751
59594W        W27988  42.078  24.667   1.313
59595W        W27989  24.228  36.783  11.153
59596W        W27990  31.496  23.499   2.680
59597W        W27991  21.070   4.428  11.081
59598W        W27992   7.342  18.818  14.857
59599W        W27993  34.183  23.140   3.302
59600W        W27994  42.283   2.853  13.878
59601W        W27995  32.032  23.765  12.523
59602W        W27996  29.911  38.621  13.073
59603W        W27997  12.226  24.684  13.273
59604W        W27998   7.096  28.561  11.383
59605W        W27999   9.740  36.575  12.950
59606W        W28000  22.069   7.592   2.587
59607W        W28001  36.771  42.515  11.794
59608W        W28002  19.656   3.881  11.013
59609W        W28003  20.697  41.879  10.519
59610W        W28004   3.779  34.544  14.018
59611W        W28005  14.974  26.965   2.799
59612W        W28006  34.939  27.945  14.863
59613W        W28007  39.259  24.743   2.201
59614W        W28008   5.561  43.345  10.817
59615W        W28009  10.470  28.214   0.220
59616W        W28010  40.960  18.605   3.338
59617W        W28011  39.471  44.002   1.433
59618W        W28012  42.249  30.928  14.417
59619W        W28013  37.344  15.642  10.608
59620W        W28014  44.753  38.889  11.092
59621W        W28015   3.903  16.195  10.213
59622W        W28016  10.528  11.241   3.679
59623W        W28017  22.000  11.038   0.480
59624W        W28018   1.810  22.006  14.748
59625W        W28019  15.721  34.529  14.342
59626W        W28020  31.989  39.013  12.165
59627W        W28021  26.642  33.928  12.835
59628W        W28022   1.312  29.932  13.647
59629W        W28023  37.392  13.375   0.760
59630W        W28024  39.615  17.190  14.831
59631W        W28025   5.423   3.395   3.168
59632W        W28026  32.114  21.207   3.677
59633W        W28027  27.577  10.366  13.962
59634W        W28028  22.114   4.498  14.871
59635W        W28029  23.879  39.550   2.116
59636W        W28030  21.168  35.617   1.823
59637W        W28031   0.527   0.988  11.604
59638W        W28032   1.931   7.590   2.554
59639W        W28033  38.432  16.893   4.665
59640W        W28034  18.606  21.762   3.230
59641W        W28035  26.867  16.645  12.923
59642W        W28036  12.694  29.061  13.950
59643W        W28037  17.810  21.137  13.046
59644W        W28038  38.935  16.601  14.310
59645W        W28039   0.837  34.889   4.286
59646W        W28040  40.084  27.095  10.660
59647W        W28041  32.593  12.897   3.917
59648W        W28042   2.225   4.724  13.478
59649W        W28043  13.622  22.767  12.913
59650W        W28044  21.949  13.579  11.352
59651W        W28045   4.211  25.271  10.784
59652W        W28046  36.030  38.594  13.083
59653W        W28047  43.601  31.371  14.083
59654W        W28048   1.040  42.947   0.791
59655W        W28049  24.465  12.949   0.725
59656W        W28050  32.055  31.670   3.937
59657W        W28051  10.823  43.094   0.844
59658W        W28052  40.279  27.049  13.641
59659W        W28053  31.221   0.520  11.995
59660W        W28054   1.754  41.349  13.322
59661W        W28055  14.289  42.994   2.785
59662W        W28056  34.159  31.444   2.673
59663W        W28057  41.005  14.036  14.822
59664W        W28058  19.265  40.407  12.122
59665W        W28059  42.622  43.960   1.797
59666W        W28060  29.208  22.660   4.410
59667W        W28061   5.639  13.364  11.611
59668W        W28062   8.196  43.034   4.660
59669W        W28063  18.271   1.766   1.785
59670W        W28064   2.019   1.536   5.023
59671W        W28065  42.474  39.798   3.093
59672W        W28066  41.022  29.122  12.472
59673W        W28067  20.444  33.612  11.169
59674W        W28068  33.817  38.770  12.074
59675W        W28069  20.611   1.837   4.831
59676W        W28070  20.258  42.096  13.357
59677W        W28071  23.610  25.971   2.687
59678W        W28072  21.512   7.329   0.049
59679W        W28073  24.549  35.488  14.904
59680W        W28074  42.234  11.328   1.396
59681W        W28075  38.270  17.312   3.265
59682W        W28076  21.734  16.539  12.868
59683W        W28077  19.381  31.097   3.391
59684W        W28078  40.349  26.159  11.129
59685W        W28079  17.368  27.900  10.198
59686W        W28080  29.207  29.116  12.521
59687W        W28081  37.495  33.163   2.204
59688W        W28082  38.826  21.250   1.344
59689W        W28083  27.961   2.338   4.545
59690W        W28084  39.510  34.855  11.533
59691W        W28085  41.011   7.615   2.070
59692W        W28086  29.670  12.596   4.043
59693W        W28087  11.097   7.526   2.231
59694W        W28088   9.774  27.198   3.375
59695W        W28089  22.783  10.898   1.590
59696W        W28090  10.493  11.220  11.514
59697W        W28091  30.110  19.693   1.155
59698W        W28092  14.312  42.650   1.870
59699W        W28093  23.709  25.463   2.783
59700W        W28094  30.200  24.194  11.799
59701W        W28095   5.811   1.492   4.631
59702W        W28096  35.070  15.793   1.742
59703W        W28097  42.446  11.678  12.527
59704W        W28098  22.022   0.365   2.372
59705W        W28099  39.775  25.544  10.724
59706W        W28100  36.604  15.927   1.468
59707W        W28101  44.351  31.822  13.558
59708W        W28102  28.890   9.428   2.525
59709W        W28103  43.287  10.990   2.043
59710W        W28104  40.907  38.257   3.634
59711W        W28105  14.169   5.716  12.472
59712W        W28106   2.013  34.437  11.665
59713W        W28107  13.879  24.147  12.558
59714W        W28108  44.246  37.467   0.899
59715W        W28109  38.599  26.650   0.399
59716W        W28110  29.117  44.216   1.752
59717W        W28111  14.234  38.499  12.105
59718W        W28112  15.884  27.490   0.680
59719W        W28113   8.180  25.618  11.736
59720W        W28114  18.638   6.627   0.984
59721W        W28115   1.475  42.569   0.838
59722W        W28116  42.968  18.237  12.936
59723W        W28117  18.087  39.661   4.156
59724W        W28118  43.283  41.006   0.745
59725W        W28119  38.749  38.231   4.618
59726W        W28120  42.018  27.749  13.020
59727W        W28121  29.595  30.722  14.444
59728W        W28122   8.650  42.872   2.926
59729W        W28123  22.695  21.700   0.063
59730W        W28124  27.555   0.774  11.275
59731W        W28125  43.329  42.481   3.756
59732W        W28126  10.292  29.102   0.255
59733W        W28127  16.500  41.682   0.777
59734W        W28128  31.961  31.896   4.417
59735W        W28129  14.460   7.959   4.733
59736W        W28130  13.658  39.586   1.406
59737W        W28131  37.063  34.987  12.420
59738W        W28132  28.853   4.708   0.641
59739W        W28133  29.527  14.164   3.829
59740W        W28134  23.777  37.026  12.965
59741W        W28135   6.950  37.847  14.885
59742W        W28136  39.290  30.712   2.766
59743W        W28137  30.097   4.618   1.332
59744W        W28138   7.981  38.358  12.647
59745W        W28139  33.965  19.766  12.949
59746W        W28140  16.314  34.065   3.680
59747W        W28141  42.011  34.438  11.625
59748W        W28142  29.772  15.439   0.931
59749W        W28143   5.746  44.959  14.957
59750W        W28144  38.786  11.790  12.038
59751W        W28145  44.226  38.965  13.431
59752W        W28146  25.518  18.176  13.912
59753W        W28147  36.587   4.601   4.097
59754W        W28148  32.972   3.765   2.258
59755W        W28149  24.446   2.708   4.717
59756W        W28150  21.130  39.731  11.271
59757W        W28151  33.831  22.416  14.382
59758W        W28152  38.896   4.667   0.737
59759W        W28153   9.920  26.766  13.795
59760W        W28154  30.087  40.259  14.307
59761W        W28155  34.840  24.212  12.975
59762W        W28156  37.916  28.375  10.728
59763W        W28157   1.292  27.160  11.260
59764W        W28158  11.934  19.143  11.678
59765W        W28159  30.097   3.160  10.796
59766W        W28160  16.328  17.251   0.735
59767W        W28161  43.132   6.521  13.766
59768W        W28162  33.373  29.022  13.875
59769W        W28163  43.140  39.178   1.424
59770W        W28164  29.666  23.678   4.656
59771W        W28165  23.532   8.261  12.057
59772W        W28166  40.296   1.683   4.251
59773W        W28167  28.222  30.616   2.181
59774W        W28168  26.093  13.897   4.900
59775W        W28169  37.541  36.923   4.439
59776W        W28170   6.342  10.068  11.148
59777W        W28171  26.682  12.264   1.180
59778W        W28172  12.180  31.545   2.357
59779W        W28173  32.917   7.795   3.619
59780W        W28174  34.501  11.629   3.103
59781W        W28175  31.016  36.112   0.870
59782W        W28176  34.178  30.496   1.914
59783W        W28177  24.526  12.136   5.581
59784W        W28178  10.344  23.992   2.769
59785W        W28179  22.644  33.650  14.793
59786W        W28180   2.708  11.091  13.974
59787W        W28181   4.920  27.297   4.942
59788W        W28182  18.812  37.305   3.625
59789W        W28183  44.451  21.703   2.173
59790W        W28184  30.670  27.725   1.665
59791W        W28185  17.634  37.358  11.660
59792W        W28186   1.326  44.495  12.097
59793W        W28187  14.605   2.676  11.179
59794W        W28188   0.669  24.767   0.465
59795W        W28189  43.747   7.253   0.704
59796W        W28190  16.681  43.570  12.113
59797W        W28191  20.681  16.098   2.387
59798W        W28192  11.140  41.527   0.307
59799W        W28193  37.828  40.897   0.719
59800W        W28194  12.736  33.088   3.440
59801W        W28195  15.616  26.337   0.545
59802W        W28196  26.108   7.879  11.606
59803W        W28197   8.866   7.724  13.459
59804W        W28198  23.989  39.087   3.723
59805W        W28199  24.082  35.849   0.002
59806W        W28200  10.322  10.719  12.843
59807W        W28201  42.963   2.526  12.348
59808W        W28202  25.848   8.709   4.066
59809W        W28203  28.852  22.099  10.650
59810W        W28204  10.632  29.644   0.385
59811W        W28205  32.492  33.544   9.787
59812W        W28206  16.067  40.126   4.600
59813W        W28207   5.200  35.501  11.519
59814W        W28208  24.374  41.868   4.869
59815W        W28209   0.040  30.013   3.188
59816W        W28210   0.655  17.645  11.968
59817W        W28211  35.887  19.144  10.691
59818W        W28212   0.225  12.880  12.182
59819W        W28213  22.706  22.928  12.154
59820W        W28214   7.407  19.074  13.292
59821W        W28215  20.501  10.883   2.438
59822W        W28216  42.965  11.819  14.789
59823W        W28217  14.252  20.293  12.090
59824W        W28218   0.301  30.568   0.779
59825W        W28219  14.153   1.844  12.881
59826W        W28220   5.214  14.676  14.360
59827W        W28221  12.716  12.835  13.121
59828W        W28222   4.168  41.506   1.646
59829W        W28223  10.626  24.022  13.350
59830W        W28224   8.785  23.361  10.703
59831W        W28225   7.438  31.071  14.963
59832W        W28226  10.193  44.844   4.924
59833W        W28227  19.538  26.927   0.396
59834W        W28228   7.514  29.434   3.300
59835W        W28229  44.234  44.316   3.776
59836W        W28230   4.405  16.088  11.016
59837W        W28231  34.893  23.795  12.651
59838W        W28232  21.453  40.081  13.222
59839W        W28233   7.546  22.879  11.037
59840W        W28234  20.482   7.091  11.022
59841W        W28235  17.192  32.747  13.381
59842W        W28236  20.509   9.298  11.461
59843W        W28237  33.675  12.730   4.734
59844W        W28238  31.471   4.955  14.331
59845W        W28239  25.973  28.879   0.234
59846W        W28240  33.879  42.074   4.647
59847W        W28241  33.785  19.513   4.566
59848W        W28242  16.263  11.349  12.443
59849W        W28243  39.992  26.594   1.722
59850W        W28244  43.405  14.161   0.738
59851W        W28245  14.184  27.124   4.731
59852W        W28246  32.431   9.369   1.067
59853W        W28247  13.866   6.635   2.001
59854W        W28248   1.329  41.063  12.974
59855W        W28249  35.052  30.540  10.822
59856W        W28250  27.246  32.513   1.464
59857W        W28251   7.690  39.489  11.151
59858W        W28252  19.650  42.921  12.111
59859W        W28253  40.822   2.896  12.160
59860W        W28254  24.079  11.454   4.439
59861W        W28255  29.390  37.289  12.851
59862W        W28256   2.499  24.758  13.997
59863W        W28257   1.552   6.933  13.361
59864W        W28258  19.681  37.067  11.904
59865W        W28259   5.765  31.873  13.522
59866W        W28260  44.987  40.891   0.847
59867W        W28261   9.269   4.179  10.646
59868W        W28262  21.055  36.613  12.593
59869W        W28263  36.943  18.543   5.049
59870W        W28264   8.284  40.185   4.334
59871W        W28265  16.761  22.026  11.510
59872W        W28266  43.527  23.433   1.387
59873W        W28267   7.643  35.149   0.300
59874W        W28268  10.939  38.031   0.941
59875W        W28269  39.460   8.084  12.916
59876W        W28270  20.729  32.736  13.785
59877W        W28271  35.033   2.248  11.076
59878W        W28272  28.946  29.198   4.388
59879W        W28273  44.882  14.591   0.741
59880W        W28274  26.214   7.450  10.652
59881W        W28275   0.622  11.948   0.057
59882W        W28276   9.733  26.378   2.378
59883W        W28277  17.085  34.145  13.857
59884W        W28278  38.005  40.040   4.551
59885W        W28279  34.123   6.628   3.708
59886W        W28280   2.022  35.869  13.461
59887W        W28281  12.828  34.521   2.388
59888W        W28282  25.231  42.467   2.807
59889W        W28283   9.667   4.283   3.735
59890W        W28284  15.380  18.104  10.693
59891W        W28285   7.927  32.122   3.687
59892W        W28286  42.319  27.352   2.885
59893W        W28287  24.219  28.354  12.146
59894W        W28288  40.792   9.020  14.871
59895W        W28289   3.278   2.742   4.060
59896W        W28290  39.292  14.886  13.935
59897W        W28291  31.886  15.437   1.319
59898W        W28292  29.625   5.149   1.826
59899W        W28293   0.384   5.857  14.856
59900W        W28294  41.924  17.080   1.384
59901W        W28295  11.707   6.861   1.819
59902W        W28296  44.792  23.475   0.077
59903W        W28297  26.952  34.629  10.631
59904W        W28298  40.032   9.125   0.341
59905W        W28299  35.703  43.352  12.905
59906W        W28300  15.488   4.111  12.097
59907W        W28301  42.400  28.216  11.598
59908W        W28302   9.821  40.461  13.997
59909W        W28303  42.018  15.604  13.836
59910W        W28304  10.181  10.698  14.882
59911W        W28305  11.828  15.598  14.266
59912W        W28306   2.239  22.728  10.680
59913W        W28307  11.640  33.665  12.921
59914W        W28308  23.889  31.492   0.138
59915W        W28309  33.018  20.318  13.339
59916W        W28310  35.163   7.140   0.472
59917W        W28311  42.063  19.653   9.783
59918W        W28312  41.840  33.472   3.770
59919W        W28313  12.699  38.313  12.759
59920W        W28314  22.943   7.614   1.895
59921W        W28315   8.893  11.472  12.131
59922W        W28316  18.176   0.307   1.180
59923W        W28317  19.283   8.168  12.052
59924W        W28318   9.156  36.114   0.277
59925W        W28319   0.158   6.750  11.177
59926W        W28320  22.026  40.193  13.973
59927W        W28321   7.599   6.738   0.222
59928W        W28322  35.997  38.552  13.640
59929W        W28323  35.015  42.122  11.921
59930W        W28324  22.049  28.681   1.752
59931W        W28325   3.636  34.511   0.960
59932W        W28326  23.649  34.824  10.806
59933W        W28327   0.676  21.297   2.060
59934W        W28328  18.469  26.821  13.463
59935W        W28329  21.661  15.252   1.663
59936W        W28330  23.250  31.106  11.624
59937W        W28331  34.622  27.147  12.577
59938W        W28332   8.760  22.636  12.380
59939W        W28333  16.235  20.300  14.329
59940W        W28334  35.402  42.329  14.109
59941W        W28335  22.944  16.667   0.771
59942W        W28336   6.548  32.050   4.512
59943W        W28337   7.293  41.101   2.762
59944W        W28338  33.622  32.016  12.884
59945W        W28339   3.900  20.894  11.504
59946W        W28340  43.520   0.189   1.518
59947W        W28341  42.941   4.756  12.923
59948W        W28342  17.667  35.844  12.416
59949W        W28343  22.764  13.634   0.731
59950W        W28344   7.302   9.917  13.858
59951W        W28345   7.152  25.721  11.593
59952W        W28346   7.965  33.839   4.673
59953W        W28347  14.490  25.687   3.382
59954W        W28348  33.908  11.368  12.351
59955W        W28349  22.006   6.823   3.299
59956W        W28350  27.168  19.986  14.120
59957W        W28351  23.745  41.972   1.141
59958W        W28352  32.675  35.013   0.487
59959W        W28353  10.050  27.071  14.792
59960W        W28354  36.585  39.239   0.737
59961W        W28355  13.951  26.193  13.237
59962W        W28356  34.085   8.777   0.951
59963W        W28357   3.405  19.366  12.389
59964W        W28358  10.360  29.531  14.965
59965W        W28359  19.753  10.320   2.897
59966W        W28360  23.398  29.477   1.008
59967W        W28361  31.664  36.897   0.304
59968W        W28362  28.698   6.872  12.143
59969W        W28363   6.901  14.026  13.920
59970W        W28364  32.442  14.314  14.403
59971W        W28365  33.514   3.732  14.431
59972W        W28366  12.327  10.830   2.738
59973W        W28367  26.496  11.722  14.493
59974W        W28368  12.026  41.588  14.537
59975W        W28369  33.385   2.880  13.885
59976W        W28370  35.409  41.517   3.868
59977W        W28371  41.157  28.922  11.552
59978W        W28372  38.244  37.445   4.141
59979W        W28373  30.871  29.129  10.705
59980W        W28374  10.873  18.331  11.493
59981W        W28375  25.027  44.290  12.573
59982W        W28376  39.493   3.204  13.371
59983W        W28377  20.780  11.579  10.914
59984W        W28378  34.781  10.903   1.750
59985W        W28379   6.893  14.945   1.947
59986W        W28380  11.225   0.386   2.196
59987W        W28381  42.193  21.256  11.117
59988W        W28382  26.533  11.298   0.738
59989W        W28383  37.152  18.661   2.717
59990W        W28384  17.255  44.470   0.311
59991W        W28385  14.603  28.886   1.172
59992W        W28386  26.607  24.079   0.081
59993W        W28387   1.221  14.183   1.203
59994W        W28388  33.076  33.071   1.345
59995W        W28389  20.830   8.605  11.944
59996W        W28390  27.045  37.252  11.998
59997W        W28391  24.577  26.440   2.122
59998W        W28392  40.982  29.252   2.368
59999W        W28393  40.016   9.351   3.166
60000W        W28394  41.408  36.629   2.839
60001W        W28395   2.714  33.639   2.384
60002W        W28396  37.120  35.314  11.988
60003W        W28397  13.328  40.542   5.320
60004W        W28398   3.148  25.395   2.829
60005W        W28399  13.220  17.345   2.734
60006W        W28400  38.743  40.069   2.238
60007W        W28401  16.721  13.125   4.610
60008W        W28402  21.524  36.071   2.254
60009W        W28403  41.018  28.545  12.001
60010W        W28404   0.438  33.371  14.842
60011W        W28405  13.059  12.646  12.362
60012W        W28406   0.855  28.116  13.838
60013W        W28407  37.560   5.982   2.301
60014W        W28408  27.185  18.801  14.973
60015W        W28409  44.493   1.581  14.310
60016W        W28410  25.797  21.628  10.731
60017W        W28411  20.146  43.212   2.746
60018W        W28412  16.206  11.147  13.429
60019W        W28413  28.369  36.787   1.229
60020W        W28414  42.261  13.626  13.006
60021W        W28415  39.892  35.175   4.684
60022W        W28416  38.482  20.721   1.848
60023W        W28417   8.621  22.268   0.911
60024W        W28418  20.188  21.552  14.589
60025W        W28419  22.617  37.895  13.301
60026W        W28420   7.076  40.247  12.049
60027W        W28421  24.614  10.702   4.136
60028W        W28422   6.151  19.002  11.617
60029W        W28423  15.343  33.895   0.424
60030W        W28424   6.952  27.568  10.645
60031W        W28425   4.891  18.348   1.480
60032W        W28426  27.082  34.732  14.037
60033W        W28427  12.353  13.909  11.997
60034W        W28428  34.471  15.710   0.543
60035W        W28429   5.784   2.437   3.279
60036W        W28430   8.772  13.690  14.719
60037W        W28431  21.533   8.673   0.255
60038W        W28432  24.860  23.036  11.226
60039W        W28433  12.897  32.474  11.242
60040W        W28434  34.412  34.428   1.739
60041W        W28435  42.885   6.730   4.516
60042W        W28436  21.193   3.727   1.313
60043W        W28437   2.248  30.231   1.260
60044W        W28438  22.042   8.826  14.100
60045W        W28439  14.861  37.317   0.045
60046W        W28440   4.389   7.714   1.951
60047W        W28441   6.325  28.930  11.420
60048W        W28442   6.946  14.800  11.161
60049W        W28443  28.986  16.181  13.521
60050W        W28444  37.366  21.614  12.430
60051W        W28445  35.930  36.036   1.695
60052W        W28446  26.456  17.473   0.731
60053W        W28447   2.413  43.964  13.645
60054W        W28448   8.599  37.470  12.684
60055W        W28449   5.358  22.637  11.244
60056W        W28450  17.805  38.878   1.133
60057W        W28451  15.776  20.117   0.326
60058W        W28452   1.518  29.548   4.694
60059W        W28453  43.886  12.625  14.380
60060W        W28454  17.518   4.001  13.452
60061W        W28455  37.012  36.001   0.953
60062W        W28456  38.404  13.329  11.320
60063W        W28457   8.808  37.775   1.718
60064W        W28458   3.267  26.782   1.276
60065W        W28459  20.432  15.246  12.645
60066W        W28460  19.051   0.415  14.954
60067W        W28461  33.528  21.416  14.325
60068W        W28462  32.542   9.764  13.278
60069W        W28463  21.815  44.037   0.786
60070W        W28464  44.112  38.576  14.289
60071W        W28465  41.134  22.837  13.530
60072W        W28466  41.582   3.899   3.720
60073W        W28467  44.667  43.741  13.989
60074W        W28468  44.902   2.351   3.387
60075W        W28469  41.387  14.143   3.936
60076W        W28470   9.272  42.835   0.586
60077W        W28471  38.075   4.858   1.622
60078W        W28472  13.765   4.859  13.296
60079W        W28473  43.888  32.435  11.398
60080W        W28474  41.927   2.732   2.247
60081W        W28475  32.048  42.892   1.428
60082W        W28476  32.133   6.850  12.041
60083W        W28477  27.176  25.614   2.435
60084W        W28478  19.078  44.041  12.500
60085W        W28479  10.270  15.201  10.453
60086W        W28480  35.569  18.536  14.458
60087W        W28481  21.671  30.172  12.458
60088W        W28482  22.496  27.603   0.955
60089W        W28483   0.167   4.870  14.076
60090W        W28484  17.316   7.821   3.114
60091W        W28485  24.592   4.663   2.841
60092W        W28486  19.459  13.380  11.980
60093W        W28487  28.567  12.229   1.942
60094W        W28488   0.026   8.318   1.987
60095W        W28489  25.088  23.644   4.522
60096W        W28490  42.831  43.868   2.307
60097W        W28491  42.556   7.372   2.730
60098W        W28492  39.342  19.795  10.647
60099W        W28493   8.619   7.819  13.917
60100W        W28494  18.262  42.315  12.574
60101W        W28495   2.907  15.654   2.178
60102W        W28496  18.177  13.229   2.376
60103W        W28497  31.011  37.797  14.220
60104W        W28498  12.772  35.345  11.818
60105W        W28499  15.283  40.874  12.539
60106W        W28500   6.301  34.540   1.754
60107W        W28501  33.888  39.807   4.173
60108W        W28502  30.178  26.437  13.391
60109W        W28503  38.524   9.529   3.211
60110W        W28504  30.204  14.694   2.636
60111W        W28505  23.454   7.981   0.384
60112W        W28506  32.891  26.625  12.381
60113W        W28507  22.010  15.592  14.225
60114W        W28508   6.802  33.630   2.694
60115W        W28509  20.143  16.593   1.210
60116W        W28510   1.410  32.577   3.841
60117W        W28511  39.983  37.856   0.226
60118W        W28512   9.758  36.967  13.295
60119W        W28513  28.223  24.437   3.718
60120W        W28514  23.810   1.925  14.132
60121W        W28515  37.350  43.017  10.599
60122W        W28516   7.358  15.845   0.628
60123W        W28517  23.358  44.812  13.073
60124W        W28518   9.956  12.006  12.019
60125W        W28519  14.982  20.072  14.138
60126W        W28520  14.876   4.625   3.930
60127W        W28521  44.047  20.056  10.659
60128W        W28522  26.179   6.247   2.761
60129W        W28523   1.746  31.399   0.791
60130W        W28524  35.421  28.908  13.430
60131W        W28525  26.043  31.439  12.095
60132W        W28526  22.268  36.550  12.062
60133W        W28527  33.077  19.968  12.909
60134W        W28528  24.238   3.840  12.792
60135W        W28529  43.767   7.714  10.641
60136W        W28530  22.463  10.150  13.154
60137W        W28531   3.458  28.859   0.370
60138W        W28532  20.561  26.502  11.359
60139W        W28533  12.066   0.069  10.663
60140W        W28534   7.223  30.394  14.572
60141W        W28535  16.083   4.375   3.073
60142W        W28536  23.265  34.672  13.957
60143W        W28537  12.397  31.095   4.297
60144W        W28538  29.206  34.616  12.877
60145W        W28539  25.997  19.141  13.305
60146W        W28540   6.307  19.817  14.970
60147W        W28541  36.093  18.336  12.296
60148W        W28542  27.376   9.290   3.202
60149W        W28543  29.301  18.986   1.369
60150W        W28544  42.310  28.436   3.371
60151W        W28545  10.844  25.719  13.503
60152W        W28546  28.115  30.896   4.757
60153W        W28547   0.809   4.342  12.896
60154W        W28548  15.432  33.574  13.092
60155W        W28549  16.066  41.325   0.090
60156W        W28550  15.977  34.686   2.359
60157W        W28551  11.694  25.269  12.530
60158W        W28552   0.501  26.564  12.002
60159W        W28553  18.021  20.699  13.489
60160W        W28554  22.508  38.867  14.930
60161W        W28555  24.893  18.576   4.588
60162W        W28556  27.954   5.049   0.711
60163W        W28557  20.053  44.262   2.275
60164W        W28558  33.235  40.296  13.398
60165W        W28559  18.679   3.034  14.199
60166W        W28560  38.470  33.448   2.689
60167W        W28561  20.050  14.924   4.889
60168W        W28562  17.603  14.035  12.157
60169W        W28563  22.780  16.028   3.850
60170W        W28564  14.735  36.530   4.366
60171W        W28565   8.403  22.653  14.308
60172W        W28566  38.401  31.081   0.371
60173W        W28567   9.202  19.054  13.837
60174W        W28568  40.823   8.173   4.569
60175W        W28569   6.845  11.615   3.067
60176W        W28570  37.349  42.796   4.562
60177W        W28571   3.401  33.312   5.046
60178W        W28572  40.653  33.973  14.290
60179W        W28573   4.765  12.658  12.871
60180W        W28574  22.654   4.669   0.716
60181W        W28575  28.552  36.901   2.675
60182W        W28576  33.059  38.534   1.708
60183W        W28577  16.154  17.024  11.175
60184W        W28578  18.161  24.536   4.785
60185W        W28579  17.716   5.217  12.573
60186W        W28580  38.966  38.858   0.685
60187W        W28581  19.603   1.095  11.494
60188W        W28582  28.174   2.500  12.832
60189W        W28583  42.958  20.296   1.240
60190W        W28584  25.267  18.948   0.060
60191W        W28585  39.848  35.690  14.814
60192W        W28586  17.561  42.314   2.240
60193W        W28587  22.357  41.008  11.833
60194W        W28588  18.469  26.737   3.841
60195W        W28589  36.004  34.804  14.580
60196W        W28590  42.422  21.227   0.782
60197W        W28591  36.091   4.585   2.772
60198W        W28592  43.496  25.181  14.806
60199W        W28593  12.256  39.566  12.085
60200W        W28594  23.794   2.855   2.179
60201W        W28595  28.141  37.830   1.234
60202W        W28596  24.489  37.888  14.948
60203W        W28597  28.698  41.269   0.878
60204W        W28598   3.367  22.620  11.413
60205W        W28599  30.223   5.229  12.038
60206W        W28600  28.085  34.529  12.928
60207W        W28601  20.067  34.974   4.882
60208W        W28602  19.715  36.374   5.141
60209W        W28603  23.450  44.238  10.233
60210W        W28604  16.290  33.629  14.348
60211W        W28605   4.837  31.248   4.558
60212W        W28606  10.997   2.847  13.505
60213W        W28607  30.408  33.368  12.047
60214W        W28608  10.667  15.616   2.235
60215W        W28609   3.906  31.895  13.609
60216W        W28610  39.231  37.495  14.286
60217W        W28611  18.777  35.633  11.825
60218W        W28612  27.161  25.635   3.410
60219W        W28613   4.371  33.879   3.857
60220W        W28614  38.053  15.600   1.792
60221W        W28615  18.239  25.894  10.601
60222W        W28616  21.258  30.797  13.472
60223W        W28617  33.987  32.828  12.734
60224W        W28618  42.238  16.067  12.117
60225W        W28619  23.008  28.514  10.998
60226W        W28620  18.613  42.534   2.266
60227W        W28621  22.976   2.305   4.216
60228W        W28622  38.164  19.567   4.178
60229W        W28623  27.359  29.191   0.676
60230W        W28624  31.909  37.899   4.660
60231W        W28625  40.931  19.138  10.657
60232W        W28626   6.200  11.913  10.773
60233W        W28627  10.295  12.577   2.380
60234W        W28628  40.340  33.454  12.462
60235W        W28629  30.680  12.116  10.650
60236W        W28630   3.204  40.984   1.237
60237W        W28631   6.194  38.154  12.206
60238W        W28632  25.426  15.173  11.564
60239W        W28633  10.574  28.669   0.417
60240W        W28634  17.242  32.857  10.732
60241W        W28635   8.409  38.042   4.983
60242W        W28636  35.586   4.271   4.531
60243W        W28637  27.779  13.386  13.380
60244W        W28638   0.919   0.779  12.274
60245W        W28639  27.714  37.045  11.546
60246W        W28640   1.311  36.632  14.938
60247W        W28641  29.442  26.647  12.967
60248W        W28642   9.128  32.145  13.470
60249W        W28643  27.640  37.253  13.396
60250W        W28644   7.990  28.509  14.408
60251W        W28645  11.062   7.270   5.031
60252W        W28646  12.213  43.313   3.353
60253W        W28647   6.439  38.598   2.257
60254W        W28648  44.299  36.342   3.786
60255W        W28649  18.393  16.316   4.187
60256W        W28650  38.613   2.480   0.420
60257W        W28651  43.297  27.086  13.065
60258W        W28652  41.291   7.316  11.615
60259W        W28653  29.007  10.526   4.563
60260W        W28654   9.180  26.199   0.442
60261W        W28655   8.799  23.994  14.243
60262W        W28656  22.044  37.216   2.692
60263W        W28657   4.027  28.181   0.835
60264W        W28658  10.433  25.931  14.599
60265W        W28659  27.439   5.129   3.689
60266W        W28660   0.557  44.539  11.299
60267W        W28661   3.723  18.571  11.519
60268W        W28662  30.556  38.396   3.624
60269W        W28663  23.105  31.561   4.605
60270W        W28664   7.608   3.975   2.829
60271W        W28665   1.868  37.741   2.853
60272W        W28666   0.841  30.617  13.612
60273W        W28667   8.979  31.578   1.756
60274W        W28668  28.819  30.669   4.031
60275W        W28669  39.773  17.581  13.376
60276W        W28670   0.567  24.744   3.271
60277W        W28671  29.018   1.738   4.359
60278W        W28672   4.745   0.441   4.505
60279W        W28673   4.997   0.419  14.511
60280W        W28674  18.170   3.865  14.556
60281W        W28675   3.622  18.980  14.704
60282W        W28676  33.335  27.211   2.294
60283W        W28677  39.008  33.455   2.750
60284W        W28678  33.088  30.868  11.580
60285W        W28679  41.817  23.526   1.752
60286W        W28680  21.450  41.887   1.375
60287W        W28681  13.291   3.989   2.759
60288W        W28682  41.202  30.505   2.699
60289W        W28683  11.781  12.659   3.783
60290W        W28684  23.614  23.576   0.424
60291W        W28685   1.873  40.972  12.237
60292W        W28686  22.074  39.392   3.888
60293W        W28687   3.811  34.072  11.657
60294W        W28688  18.514  19.827  12.822
60295W        W28689   7.541  44.464   4.151
60296W        W28690  23.816   0.968  13.765
60297W        W28691  35.381  32.451   4.924
60298W        W28692  33.964   8.307   2.359
60299W        W28693  17.266  22.076  13.059
60300W        W28694   1.682  15.582   2.752
60301W        W28695  38.574  42.420   2.397
60302W        W28696  10.699   3.628   1.944
60303W        W28697  42.575  13.847   0.378
60304W        W28698   0.057  38.160  12.132
60305W        W28699  31.423  12.689   3.933
60306W        W28700   8.877   1.766   0.381
60307W        W28701   0.436   7.472  13.255
60308W        W28702  38.803   9.393  11.957
60309W        W28703  20.540  33.119  11.067
60310W        W28704  19.300   5.922   4.209
60311W        W28705  43.785  13.329  11.999
60312W        W28706   2.489  33.433  13.812
60313W        W28707  31.988  44.969   3.473
60314W        W28708  34.666  17.781  13.976
60315W        W28709  30.809  24.493  11.980
60316W        W28710  20.156  27.683  12.103
60317W        W28711  29.985   8.379   3.889
60318W        W28712   3.853  42.847  10.212
60319W        W28713  39.913  10.616  12.426
60320W        W28714   2.723   3.845  13.704
60321W        W28715   2.946  26.792  12.914
60322W        W28716  36.899  29.069  12.398
60323W        W28717  27.932  30.474  10.928
60324W        W28718  44.555  21.757   3.368
60325W        W28719  12.117   1.987  14.230
60326W        W28720  36.896   2.111  14.093
60327W        W28721  25.174  12.456   4.290
60328W        W28722  26.921  17.302  14.477
60329W        W28723  33.835  25.163   3.740
60330W        W28724   5.705  27.973  11.274
60331W        W28725  24.510  35.817   3.553
60332W        W28726   3.844  22.792  10.398
60333W        W28727   3.239  35.505   2.306
60334W        W28728  28.132   1.902   1.640
60335W        W28729  40.936   4.198   1.776
60336W        W28730  10.758  35.985  13.386
60337W        W28731   3.452  37.766  13.776
60338W        W28732  33.074  29.421   2.107
60339W        W28733  39.907   1.946  13.504
60340W        W28734  32.497  17.847  10.735
60341W        W28735  38.420  22.324   3.192
60342W        W28736  10.629  18.266   0.208
60343W        W28737  16.341   1.802  12.582
60344W        W28738  32.479  41.313   3.605
60345W        W28739  43.090  23.155   1.423
60346W        W28740   3.437  43.013   3.964
60347W        W28741   3.636  38.991   4.704
60348W        W28742  19.098  35.953  14.454
60349W        W28743   0.200  13.719  14.868
60350W        W28744  12.809  41.031  10.233
60351W        W28745   8.324   2.748  12.177
60352W        W28746  32.531  34.290  11.431
60353W        W28747  40.976  29.357   5.084
60354W        W28748  32.536   7.125   3.873
60355W        W28749  12.747  41.968   0.305
60356W        W28750  28.673  29.069  12.574
60357W        W28751  20.180  26.235  12.870
60358W        W28752  15.869   9.306   0.784
60359W        W28753  41.624  39.655   4.530
60360W        W28754  10.296  11.327  12.930
60361W        W28755  34.719  36.503   3.976
60362W        W28756  17.782  26.434  14.968
60363W        W28757  26.405  18.140   4.203
60364W        W28758  16.622  32.224   0.563
60365W        W28759  42.012   6.250  10.793
60366W        W28760  40.978  17.930  12.908
60367W        W28761  38.295   7.926  14.769
60368W        W28762  11.554  44.960   1.719
60369W        W28763   5.157  18.684  14.343
60370W        W28764  25.266  15.876  14.306
60371W        W28765  10.197  42.728   3.574
60372W        W28766   7.938  34.231   3.199
60373W        W28767  37.149  32.189  14.608
60374W        W28768   4.234  19.967  12.667
60375W        W28769   3.362   2.588   4.539
60376W        W28770  26.885   3.346   1.900
60377W        W28771   7.162  41.599   2.722
60378W        W28772  24.370   9.245   0.334
60379W        W28773  20.574  21.263  13.294
60380W        W28774  36.067  25.280  13.146
60381W        W28775  27.052  11.991  12.351
60382W        W28776  10.930  39.096  12.169
60383W        W28777  39.692  34.777  11.043
60384W        W28778  10.249  40.576  12.027
60385W        W28779  36.153  14.259  11.567
60386W        W28780  29.073  30.226   4.109
60387W        W28781  13.195  44.559  11.089
60388W        W28782   2.927  23.406   2.251
60389W        W28783  19.555  28.845   4.503
60390W        W28784  16.031   7.844  13.478
60391W        W28785  29.840  29.146  11.199
60392W        W28786  39.752  21.564  13.051
60393W        W28787  27.213  20.594   2.627
60394W        W28788   0.966  36.840  10.220
60395W        W28789  26.233  22.321  11.008
60396W        W28790   2.252  30.896  12.423
60397W        W28791  20.173  18.874  11.114
60398W        W28792  26.164  42.972  10.641
60399W        W28793  36.325  23.706  14.456
60400W        W28794  16.358  13.096  14.820
60401W        W28795  22.034  13.509   0.279
60402W        W28796  26.973   0.647  14.868
60403W        W28797  11.485  33.044   3.733
60404W        W28798  20.602  40.507   1.495
60405W        W28799  14.243  42.399  14.951
60406W        W28800   4.012  24.617   4.927
60407W        W28801  21.108   6.170  10.704
60408W        W28802  31.429  40.323   1.279
60409W        W28803  20.144  29.952   5.005
60410W        W28804   9.041  21.052   3.609
60411W        W28805   1.469  30.142   0.173
60412W        W28806  19.293  20.196  12.149
60413W        W28807  27.039  13.857  13.944
60414W        W28808   3.828  22.286  10.438
60415W        W28809  22.929  30.175  13.266
60416W        W28810  25.219  27.084  13.314
60417W        W28811   2.377   4.755  14.354
60418W        W28812   1.157  32.545   2.664
60419W        W28813  18.103  25.453   0.401
60420W        W28814  35.586   0.687  11.202
60421W        W28815   7.675   6.729   9.936
60422W        W28816  32.234  13.006  11.150
60423W        W28817   5.256  30.076  12.333
60424W        W28818   5.272  27.624   3.178
60425W        W28819  30.381   3.916   3.431
60426W        W28820  24.402   1.012  14.527
60427W        W28821  19.580  16.595  11.254
60428W        W28822  23.544  13.838  13.887
60429W        W28823  19.532  30.216  13.493
60430W        W28824   2.303   3.210   2.305
60431W        W28825  13.446  43.274   2.840
60432W        W28826  11.169  17.609  11.444
60433W        W28827  37.462  31.690  14.755
60434W        W28828  13.139   8.847  12.017
60435W        W28829  44.440  24.038  14.672
60436W        W28830   8.080  38.510   1.658
60437W        W28831  23.219  25.423  12.663
60438W        W28832  13.294   2.127  13.849
60439W        W28833  27.177  14.865   0.342
60440W        W28834  24.210  31.479  13.381
60441W        W28835  28.771  37.318  13.938
60442W        W28836  34.882   1.986   1.611
60443W        W28837   5.396  35.381   0.616
60444W        W28838  24.135  33.845   0.784
60445W        W28839   2.426   6.119   9.974
60446W        W28840  28.178  32.393   1.934
60447W        W28841  38.039   4.681   2.458
60448W        W28842  11.682  29.116   0.196
60449W        W28843  19.268  10.153  11.393
60450W        W28844  23.002  36.091  14.961
60451W        W28845  41.456   9.930   3.367
60452W        W28846  43.670  29.464  11.899
60453W        W28847  19.908  42.485  13.473
60454W        W28848   6.239  33.925  12.402
60455W        W28849   8.759   5.904  10.266
60456W        W28850   6.282  34.965  10.675
60457W        W28851  26.565  21.268   0.393
60458W        W28852   4.232  28.527  11.388
60459W        W28853  11.248   8.014  10.682
60460W        W28854  15.180  36.604   4.648
60461W        W28855  26.117  26.218  13.168
60462W        W28856  26.420  31.889  14.317
60463W        W28857  43.603  41.449  12.570
60464W        W28858  35.360  34.130  13.015
60465W        W28859  38.442  38.475  12.459
60466W        W28860   6.117  28.669   3.749
60467W        W28861  10.043  22.104  13.513
60468W        W28862   3.388  39.021   0.970
60469W        W28863  10.551   2.396  13.716
60470W        W28864  11.663   5.424  12.684
60471W        W28865  31.032  26.535   0.466
60472W        W28866  33.980  33.837  10.373
60473W        W28867   4.127  12.546   2.386
60474W        W28868  44.969  44.873  10.633
60475W        W28869  32.464   0.925   4.270
60476W        W28870  15.151  44.529   1.480
60477W        W28871  17.938  42.393   3.236
60478W        W28872  26.946  37.962  10.705
60479W        W28873  43.521  10.539   0.847
60480W        W28874  31.684  21.741  11.313
60481W        W28875  28.235  40.353   0.712
60482W        W28876   9.309   8.723   1.260
60483W        W28877  27.584  28.138   0.503
60484W        W28878  40.786   7.706  12.959
60485W        W28879   1.287  32.618   0.403
60486W        W28880  14.418  18.152   0.901
60487W        W28881  33.598  24.436   0.836
60488W        W28882  16.915   9.140  14.715
60489W        W28883   5.323  16.212   3.525
60490W        W28884  27.715   1.200   1.229
60491W        W28885  38.965  29.696   0.107
60492W        W28886  31.159   1.245   1.369
60493W        W28887  32.368  13.608   1.301
60494W        W28888   7.762  41.472  13.797
60495W        W28889  14.290  17.604   2.396
60496W        W28890   0.302  27.228   1.737
60497W        W28891  12.791   4.732   1.791
60498W        W28892  41.529  44.027   2.959
60499W        W28893   6.357   4.290  12.526
60500W        W28894  14.763  20.278  11.687
60501W        W28895  37.756  20.838   4.802
60502W        W28896  17.686  29.116   4.482
60503W        W28897  23.127   2.243  11.142
60504W        W28898   0.389   2.031   2.035
60505W        W28899  32.030  36.546  11.696
60506W        W28900  32.036  19.671   0.104
60507W        W28901  41.767  40.483   4.132
60508W        W28902  27.113   8.606   3.574
60509W        W28903  28.370  12.922  13.976
60510W        W28904  28.950  14.492  12.518
60511W        W28905  38.971  15.271  14.118
60512W        W28906  26.410  29.050   1.459
60513W        W28907  25.580  43.969   2.634
60514W        W28908  31.658  26.015   4.268
60515W        W28909   0.168   5.949   3.867
60516W        W28910  37.879  14.544  10.932
60517W        W28911  33.458  17.054   3.647
60518W        W28912  14.011  43.188   3.216
60519W        W28913   8.618   5.731   1.765
60520W        W28914  25.216  17.848   2.304
60521W        W28915  24.157  15.839   2.640
60522W        W28916  20.601  40.418  14.124
60523W        W28917  33.446  14.325   2.277
60524W        W28918  32.933   5.674  14.486
60525W        W28919   1.445  26.454   3.242
60526W        W28920  11.377   5.193   1.274
60527W        W28921   1.700  21.686  14.316
60528W        W28922  24.672   8.754  10.963
60529W        W28923  13.950  32.388   2.045
60530W        W28924  18.797  44.075  14.740
60531W        W28925  13.739  39.375  14.009
60532W        W28926   3.786  42.376   3.892
60533W        W28927  12.538  28.244  11.146
60534W        W28928  11.595  30.501   3.616
60535W        W28929   3.501  25.616  11.090
60536W        W28930  43.403  10.840  10.513
60537W        W28931  15.636  16.773  10.647
60538W        W28932   5.950  23.610  11.262
60539W        W28933  37.036  14.365  13.134
60540W        W28934  34.419  41.179   0.575
60541W        W28935  36.564  13.352  13.815
60542W        W28936  31.601  24.224  13.559
60543W        W28937  36.888  30.664   4.237
60544W        W28938  32.518  42.783  11.010
60545W        W28939  18.440  20.126  14.603
60546W        W28940  18.575   1.068   3.727
60547W        W28941  10.597  30.583   1.393
60548W        W28942  21.725  40.586   3.122
60549W        W28943  39.478  28.044   2.294
60550W        W28944  23.791  29.125   2.505
60551W        W28945  44.805   5.287  13.327
60552W        W28946  37.993   9.643   3.389
60553W        W28947  44.938  44.912  12.030
60554W        W28948  41.246  40.780   0.225
60555W        W28949  34.858  30.723  13.416
60556W        W28950  32.960  21.489  11.432
60557W        W28951  33.796  44.194  11.566
60558W        W28952  29.408  30.934   0.339
60559W        W28953  20.587  26.464  10.847
60560W        W28954   8.346  43.735  11.515
60561W        W28955  40.701   8.206  12.894
60562W        W28956  16.106  27.624  11.444
60563W        W28957  14.539  12.715  12.383
60564W        W28958   8.307   2.407  13.053
60565W        W28959  25.171  36.447   2.788
60566W        W28960  30.110   9.887  13.493
60567W        W28961   8.401   6.060  11.560
60568W        W28962  27.491  30.471   2.911
60569W        W28963  13.734   9.792  10.930
60570W        W28964   4.035  41.428  11.890
60571W        W28965  43.948  21.045   1.750
60572W        W28966   3.399   1.034   1.819
60573W        W28967  43.042   2.751  11.702
60574W        W28968  42.561  25.686  11.646
60575W        W28969  39.401  40.505  14.376
60576W        W28970   0.236  16.574   4.076
60577W        W28971  39.444  15.608  11.882
60578W        W28972  11.720  25.678   0.823
60579W        W28973   9.182   6.524  11.673
60580W        W28974  21.044  35.939   0.485
60581W        W28975   9.486   8.576   2.309
60582W        W28976  10.635  32.343   2.992
60583W        W28977   5.793   2.172  13.859
60584W        W28978   1.451  17.347  10.883
60585W        W28979  25.507  38.426   0.550
60586W        W28980  10.400   7.277   0.395
60587W        W28981  23.582  38.488   0.656
60588W        W28982  41.762  30.072  13.024
60589W        W28983  14.581  43.761  10.872
60590W        W28984   0.042  40.962   4.100
60591W        W28985  14.871  23.003   1.316
60592W        W28986   2.540   0.863   4.561
60593W        W28987  15.676  20.304  12.149
60594W        W28988  35.181  19.696  13.573
60595W        W28989  22.765  30.790   4.519
60596W        W28990  42.237  20.649  14.286
60597W        W28991  38.019  14.319   4.471
60598W        W28992  16.173  39.426   3.864
60599W        W28993  42.207  14.120  13.279
60600W        W28994  19.683  15.285  13.066
60601W        W28995  41.840  14.157   4.179
60602W        W28996  40.297  25.103  14.086
60603W        W28997  27.397   3.932   2.374
60604W        W28998  21.997  13.675  10.555
60605W        W28999  16.647   9.142   1.916
60606W        W29000  15.715  15.379  11.819
60607W        W29001  24.292  23.617   2.305
60608W        W29002  18.346  31.546   4.311
60609W        W29003  27.805  32.142  10.195
60610W        W29004   4.867  44.589  13.432
60611W        W29005   5.247  31.582  11.492
60612W        W29006  38.653  41.776   1.829
60613W        W29007  34.091   5.419  13.485
60614W        W29008   3.413  27.493   2.742
60615W        W29009  15.334  35.373   0.328
60616W        W29010  35.397   5.193  14.906
60617W        W29011  27.080  33.674  14.145
60618W        W29012  33.323  44.719   2.350
60619W        W29013  35.397   1.819  14.348
60620W        W29014  34.743  40.397  12.554
60621W        W29015   9.328  36.688  13.396
60622W        W29016  14.541  34.080  12.120
60623W        W29017  31.028  22.116   0.675
60624W        W29018  25.745  30.753  11.246
60625W        W29019  35.139   2.542   4.712
60626W        W29020  39.507   1.753   3.770
60627W        W29021  19.673   1.027   2.257
60628W        W29022  19.636  10.888   2.750
60629W        W29023  25.627  26.632   2.697
60630W        W29024  13.316   4.930  13.965
60631W        W29025   1.287  30.653  13.850
60632W        W29026   5.342  33.456   2.683
60633W        W29027  34.894  43.742   2.331
60634W        W29028  18.462  38.516  12.933
60635W        W29029  12.895  43.364  13.590
60636W        W29030  41.017   6.796   4.406
60637W        W29031  16.327   1.899  13.469
60638W        W29032  34.434  24.020   4.241
60639W        W29033  40.981   0.208  13.297
60640W        W29034  18.112  16.721  12.701
60641W        W29035  41.408  20.622  11.374
60642W        W29036  43.038  39.460  14.777
60643W        W29037  42.839  11.834   1.673
60644W        W29038   7.287  27.005   0.242
60645W        W29039  22.017   0.949   0.687
60646W        W29040  10.683  20.346  14.568
60647W        W29041  17.584  39.430   3.595
60648W        W29042  20.167   4.849  13.009
60649W        W29043  32.655  29.502  11.441
60650W        W29044  38.330   6.480  12.809
60651W        W29045   5.201  40.452  10.901
60652W        W29046  11.982   7.440  11.450
60653W        W29047  22.218  13.840  11.000
60654W        W29048  31.411  32.011   0.723
60655W        W29049  35.621  39.476   3.176
60656W        W29050   8.153  37.073  11.513
60657W        W29051  21.680  32.325  13.943
60658W        W29052  19.814   2.855   1.774
60659W        W29053   7.600  26.210  11.480
60660W        W29054  21.674  41.121  13.970
60661W        W29055  20.969   7.202   2.951
60662W        W29056  28.923  35.151   1.378
60663W        W29057  13.737  11.164  11.892
60664W        W29058   2.729  13.381  14.327
60665W        W29059   8.317  43.461  12.378
60666W        W29060  20.170  43.365   3.660
60667W        W29061  29.832  28.435   0.384
60668W        W29062  33.658  10.447  11.692
60669W        W29063  17.770  15.652   4.175
60670W        W29064   4.977  32.109   1.299
60671W        W29065  30.629  32.691  14.289
60672W        W29066  34.288  16.729  12.366
60673W        W29067  15.281  14.044  13.160
60674W        W29068  26.022  39.452  14.114
60675W        W29069  13.088  25.936  12.109
60676W        W29070  42.361  38.997   2.789
60677W        W29071  34.567  36.382   4.451
60678W        W29072  25.750  35.619  14.481
60679W        W29073  41.104  13.314   3.584
60680W        W29074  39.368   8.220  12.008
60681W        W29075  31.343  32.704   4.144
60682W        W29076  29.146  13.305   4.730
60683W        W29077  21.517  35.636   0.557
60684W        W29078  19.955   8.379  14.376
60685W        W29079  30.920  40.378  11.606
60686W        W29080  19.722  26.454  13.031
60687W        W29081  38.594  16.249  14.517
60688W        W29082  37.455  21.275   0.232
60689W        W29083  10.371   6.830  11.071
60690W        W29084  16.680  35.796  13.783
60691W        W29085   3.332  34.592  14.281
60692W        W29086  35.918   0.381  14.298
60693W        W29087  29.023   8.709   2.262
60694W        W29088  20.199  30.501   4.164
60695W        W29089  22.602   7.884   3.266
60696W        W29090  37.649  36.926   4.968
60697W        W29091  38.794  36.532  11.425
60698W        W29092  19.296  30.060   1.396
60699W        W29093   9.078   4.612   4.980
60700W        W29094  11.676  41.250   2.650
60701W        W29095   6.361  23.748   9.534
60702W        W29096  33.974   4.758  11.952
60703W        W29097  18.065  12.167   4.560
60704W        W29098  22.391  28.154   0.525
60705W        W29099  41.226  10.924  11.150
60706W        W29100  27.175  12.714   2.507
60707W        W29101  35.391  10.316  12.487
60708W        W29102   6.891  17.072   0.884
60709W        W29103  12.264   4.523  11.857
60710W        W29104  17.495  28.607   4.694
60711W        W29105  36.667  42.763  11.140
60712W        W29106   9.194  35.301  11.154
60713W        W29107  38.818  44.265   3.570
60714W        W29108  41.368  42.720   4.605
60715W        W29109  30.029  29.965   2.848
60716W        W29110   2.653  21.318  13.477
60717W        W29111  17.688  27.610  12.588
60718W        W29112   0.515  13.018   3.233
60719W        W29113   2.269  36.638  12.430
60720W        W29114  28.469   9.248   0.549
60721W        W29115   9.279  32.313  12.924
60722W        W29116  36.210  24.212  11.295
60723W        W29117  25.061  33.400  14.295
60724W        W29118  11.718  33.002   0.433
60725W        W29119  34.380  34.595  14.890
60726W        W29120  42.036  31.270   4.087
60727W        W29121  21.406   9.711  11.524
60728W        W29122  11.840  15.250  13.844
60729W        W29123  41.364  35.502  14.873
60730W        W29124  40.898   3.232   1.852
60731W        W29125  18.294   3.496  13.561
60732W        W29126  36.606  44.171  12.859
60733W        W29127   6.418   3.660   0.307
60734W        W29128  40.624  14.240  12.918
60735W        W29129  21.192  40.066   4.740
60736W        W29130  14.316  12.386   3.815
60737W        W29131  27.736  14.727   1.232
60738W        W29132   6.639   1.956  12.051
60739W        W29133  13.416  25.888   3.442
60740W        W29134  28.936  23.691  12.942
60741W        W29135  23.460  30.817  11.243
60742W        W29136  33.937  16.079   1.622
60743W        W29137  40.563  36.966   4.232
60744W        W29138   9.618   6.725  14.135
60745W        W29139  32.939  32.365   0.253
60746W        W29140  26.946   7.695  11.301
60747W        W29141   6.381  26.398  11.339
60748W        W29142  12.289  13.292   2.372
60749W        W29143  20.850  39.774   4.448
60750W        W29144  24.509  15.915   3.176
60751W        W29145  16.096  33.046  13.128
60752W        W29146  23.591  32.777   5.007
60753W        W29147  40.829  29.130  13.424
60754W        W29148  28.185   0.239   1.705
60755W        W29149   4.188  11.787  12.379
60756W        W29150   0.489  16.065  11.585
60757W        W29151   0.368   1.955  12.537
60758W        W29152  35.632  18.407   1.735
60759W        W29153  31.950   1.748  14.017
60760W        W29154  24.314  31.849   3.120
60761W        W29155  20.453  28.675   4.226
60762W        W29156  24.188  34.621   2.732
60763W        W29157  29.951   6.438   3.371
60764W        W29158  21.504  18.928   3.240
60765W        W29159  42.314  27.826  13.438
60766W        W29160   6.828   0.932   2.972
60767W        W29161  25.167   1.006  13.764
60768W        W29162  33.041  27.271  11.506
60769W        W29163  31.359  25.272  12.723
60770W        W29164  28.200  38.405  12.078
60771W        W29165  24.225  27.396   4.682
60772W        W29166  27.931  42.427   1.806
60773W        W29167  12.832   8.439  11.960
60774W        W29168  41.036  43.650  12.354
60775W        W29169   2.716  44.392   5.122
60776W        W29170  24.193   9.439   4.632
60777W        W29171   9.508   3.185   0.025
60778W        W29172  27.678  18.023   4.552
60779W        W29173   7.873  35.106   0.762
60780W        W29174  18.733   6.795  10.464
60781W        W29175  13.620  38.830  13.350
60782W        W29176  43.326  44.235   1.355
60783W        W29177  42.599  29.168   4.460
60784W        W29178  26.083  28.671   3.698
60785W        W29179   0.181  42.339   4.930
60786W        W29180  20.802  38.666   2.253
60787W        W29181  23.643  34.036   0.834
60788W        W29182  24.028  30.013  13.365
60789W        W29183  40.063  14.678   1.619
60790W        W29184  31.646  41.466   0.626
60791W        W29185  16.101  42.333   4.585
60792W        W29186  28.617   2.177   0.370
60793W        W29187  11.462  27.076  10.710
60794W        W29188  29.697  28.372  14.219
60795W        W29189   2.790  24.807  13.508
60796W        W29190   9.873   5.934   3.606
60797W        W29191  29.701   4.676   1.661
60798W        W29192  40.954  11.370  11.880
60799W        W29193  29.428  21.579  10.650
60800W        W29194  11.172  40.735   3.818
60801W        W29195  29.300  18.351   2.295
60802W        W29196   9.080   2.706   0.808
60803W        W29197  28.613  20.830   4.145
60804W        W29198  38.089  10.896  11.473
60805W        W29199  43.789  32.225  12.221
60806W        W29200   9.954  21.057   0.442
60807W        W29201  24.584  38.165  12.957
60808W        W29202  31.620  29.615  14.346
60809W        W29203  16.825  24.552   3.346
60810W        W29204   4.902  29.183   0.164
60811W        W29205   7.703  29.846  10.792
60812W        W29206   5.602   6.334   2.375
60813W        W29207  12.763  14.065   2.158
60814W        W29208  18.638   2.847   4.187
60815W        W29209   9.766  26.583  11.907
60816W        W29210  13.364  21.672  13.830
60817W        W29211  19.732  39.752  10.261
60818W        W29212  13.708  35.394   1.926
60819W        W29213  20.549  36.900   4.424
60820W        W29214  21.652  31.222   3.834
60821W        W29215  31.630  20.598  12.119
60822W        W29216  30.282  13.318   2.202
60823W        W29217   0.239  24.502  13.813
60824W        W29218  12.868  28.328   0.292
60825W        W29219  17.758   2.848   4.493
60826W        W29220  25.044  28.159  12.369
60827W        W29221  40.048  22.918   2.309
60828W        W29222  20.158   4.406   1.988
60829W        W29223  39.669   8.850   1.037
60830W        W29224  17.506  16.162   0.758
60831W        W29225  30.414  18.432  10.571
60832W        W29226  32.410  36.077   2.795
60833W        W29227  20.196   3.518   2.194
60834W        W29228  42.423  10.396   2.905
60835W        W29229  17.133  36.159  14.626
60836W        W29230  27.039  20.668  12.404
60837W        W29231  11.017   7.202  11.631
60838W        W29232  13.116  41.065   3.635
60839W        W29233  40.449  37.532  12.839
60840W        W29234  27.955  19.201  11.976
60841W        W29235  44.471  37.113  10.932
60842W        W29236  35.387  22.375  11.638
60843W        W29237   0.297  38.277   0.354
60844W        W29238  29.620  28.608  10.285
60845W        W29239  32.379  22.067  11.071
60846W        W29240  39.089  32.284   1.211
60847W        W29241  38.023  38.062  11.597
60848W        W29242  29.117  40.903  11.917
60849W        W29243  26.022  43.587  13.826
60850W        W29244   6.850  23.887  10.752
60851W        W29245  14.120  39.356   1.361
60852W        W29246  12.387  38.107  13.367
60853W        W29247  37.860  10.521  10.568
60854W        W29248   1.498   6.681  12.890
60855W        W29249   4.289  27.815  14.815
60856W        W29250  41.513   3.266  11.441
60857W        W29251  23.377  24.963  12.978
60858W        W29252  29.432  17.843  14.561
60859W        W29253  19.125  37.042   2.712
60860W        W29254  16.540   8.731   2.198
60861W        W29255   2.810  34.391  13.420
60862W        W29256  34.174   1.379   1.734
60863W        W29257  14.761  22.338   3.613
60864W        W29258  21.062  24.112  12.556
60865W        W29259  26.908  24.540   1.880
60866W        W29260   3.958  14.101  13.845
60867W        W29261  18.221  30.468  14.739
60868W        W29262  18.503  43.450   0.819
60869W        W29263   2.820  39.290  14.880
60870W        W29264  17.459  10.869  11.550
60871W        W29265  40.833  27.710  12.159
60872W        W29266   1.260  42.996  11.711
60873W        W29267  25.672  10.814   1.979
60874W        W29268   8.168  14.472   0.768
60875W        W29269  44.913  18.279  13.768
60876W        W29270  28.140  33.146   2.709
60877W        W29271   4.930  34.562  10.763
60878W        W29272  28.344  32.655   0.609
60879W        W29273  42.607  12.309   1.844
60880W        W29274  36.056  34.897  10.693
60881W        W29275   0.886  39.839  14.513
60882W        W29276   7.254  29.502   0.343
60883W        W29277  24.959   1.757  13.538
60884W        W29278  33.696  39.932  11.118
60885W        W29279  24.473  19.254   4.099
60886W        W29280  41.947  10.756   3.797
60887W        W29281  24.781  11.534   2.118
60888W        W29282   7.271  16.892  14.814
60889W        W29283  35.480  44.945   4.573
60890W        W29284  26.156  19.494  10.633
60891W        W29285  39.974  15.692  11.239
60892W        W29286  36.073   2.245  14.508
60893W        W29287   7.462  43.343  11.925
60894W        W29288  39.952  23.465  12.885
60895W        W29289  21.972  16.661   0.036
60896W        W29290  20.978  26.044  14.061
60897W        W29291  25.360  26.601  13.503
60898W        W29292  25.000  30.912  13.467
60899W        W29293  38.284  13.670  14.428
60900W        W29294   3.186  11.472   3.996
60901W        W29295  39.389  12.780  13.020
60902W        W29296  27.028  36.837   1.709
60903W        W29297  24.568  17.966  13.787
60904W        W29298   2.238  32.400   0.340
60905W        W29299  37.614  43.704  11.060
60906W        W29300  15.059  42.943   3.175
60907W        W29301  36.005  25.116  14.092
60908W        W29302  36.009  23.829   4.449
60909W        W29303  31.075   2.409  12.061
60910W        W29304  40.352  21.271   5.113
60911W        W29305  40.564   1.231  13.450
60912W        W29306   3.297  26.713   4.804
60913W        W29307  23.153   9.831   0.474
60914W        W29308  23.948  20.889  12.482
60915W        W29309  28.422  21.051  12.351
60916W        W29310   7.875  20.352  12.141
60917W        W29311   1.915  10.863  13.588
60918W        W29312  32.027  16.971   4.758
60919W        W29313  15.358  38.148  10.168
60920W        W29314  44.629  26.097   1.748
60921W        W29315  42.285  28.961   3.345
60922W        W29316   6.745  19.633   0.746
60923W        W29317  23.661  44.957  13.498
60924W        W29318   3.930  33.600  14.813
60925W        W29319  33.822  11.841  10.351
60926W        W29320  23.358  27.788   0.528
60927W        W29321   6.276  12.716  11.815
60928W        W29322  40.392  21.270  13.919
60929W        W29323  26.679   9.840   2.928
60930W        W29324  20.665   3.470   2.424
60931W        W29325  20.018   3.650   9.859
60932W        W29326  37.222   2.503  13.944
60933W        W29327  33.809  12.626   2.022
60934W        W29328  29.354   9.176  11.577
60935W        W29329  15.507  29.692   4.653
60936W        W29330  25.681  40.796  11.590
60937W        W29331  34.910  10.075   3.685
60938W        W29332  36.237  22.908  14.964
60939W        W29333  32.491  39.295   0.812
60940W        W29334   6.248  23.596   2.228
60941W        W29335  43.486  37.503  14.821
60942W        W29336  25.227  31.591   1.718
60943W        W29337  14.617  37.881  12.863
60944W        W29338   1.916  21.575   3.754
60945W        W29339  37.432  17.623   0.871
60946W        W29340  42.287  26.014  13.276
60947W        W29341  10.920  42.762   3.270
60948W        W29342  35.485  33.649   4.127
60949W        W29343  37.363   3.944   1.556
60950W        W29344  32.569  34.501  13.886
60951W        W29345   5.768  15.546  10.888
60952W        W29346  18.595  43.961   4.965
60953W        W29347  18.215  15.835   1.285
60954W        W29348  43.370  38.973  13.985
60955W        W29349  17.367  37.086   2.278
60956W        W29350  32.031   2.494   2.070
60957W        W29351  11.314  33.159  14.802
60958W        W29352   4.394  44.780  10.630
60959W        W29353  36.595  40.124  14.424
60960W        W29354  41.306   1.801   3.266
60961W        W29355  32.144   3.365  13.042
60962W        W29356   6.613  26.692   3.656
60963W        W29357  39.525  41.833  12.098
60964W        W29358  43.201  10.242  13.572
60965W        W29359   2.833  37.411   3.304
60966W        W29360  26.991  16.109  13.735
60967W        W29361  19.681   0.715  12.891
60968W        W29362   9.395  11.896   4.676
60969W        W29363  12.640   7.343   1.933
60970W        W29364  34.906   5.949  10.331
60971W        W29365   4.434  18.137   1.636
60972W        W29366  15.243  31.881  11.116
60973W        W29367  39.428  26.898   3.901
60974W        W29368  35.732   2.503   3.804
60975W        W29369   1.769  10.769  11.891
60976W        W29370  33.856  10.093   3.660
60977W        W29371  26.192  13.629  14.990
60978W        W29372   0.886   4.157  14.302
60979W        W29373  31.147  33.664   2.818
60980W        W29374  14.715   4.112  12.845
60981W        W29375  25.077   0.907   2.289
60982W        W29376  16.725  23.808  11.134
60983W        W29377   7.229  31.632   2.544
60984W        W29378  17.573  39.123   2.115
60985W        W29379  14.814  32.183  14.324
60986W        W29380  22.584  14.613   0.378
60987W        W29381  34.614   1.344  10.687
60988W        W29382  43.285  13.646  13.980
60989W        W29383   1.530  44.685  14.796
60990W        W29384  33.409  36.187  14.983
60991W        W29385  28.688  24.149   3.667
60992W        W29386   9.381  13.236  12.971
60993W        W29387  18.572  27.862  13.531
60994W        W29388  16.875  19.905  12.491
60995W        W29389  36.724  36.082   1.945
60996W        W29390   2.826  43.383  12.532
60997W        W29391   1.343  32.086  10.848
60998W        W29392   7.227   8.926  11.568
60999W        W29393  19.209  39.756  13.811
61000W        W29394  14.691  36.132  11.250
61001W        W29395  44.454  22.218   3.684
61002W        W29396  27.290  43.336  12.558
61003W        W29397  23.717  28.477  14.924
61004W        W29398  33.540  40.486  12.242
61005W        W29399  19.746   8.369   4.876
61006W        W29400  35.532  23.264  11.508
61007W        W29401   3.470  30.952   3.281
61008W        W29402   8.333   0.327   0.157
61009W        W29403   6.737  37.004  13.462
61010W        W29404  44.203  27.518  11.508
61011W        W29405  27.963  20.048  14.047
61012W        W29406   1.202  14.845   1.410
61013W        W29407  41.652  30.913   4.210
61014W        W29408   9.553  13.129  13.777
61015W        W29409  44.421  42.216  14.897
61016W        W29410  38.133  21.327  11.151
61017W        W29411  22.140  15.248   0.904
61018W        W29412   8.665   7.766  12.153
61019W        W29413  44.077  23.675   4.837
61020W        W29414  19.435  29.528   4.966
61021W        W29415  19.763  24.618   1.001
61022W        W29416   4.699  29.491  11.622
61023W        W29417  12.073  37.586  14.381
61024W        W29418  36.055  35.590  12.393
61025W        W29419  10.898  35.780  12.941
61026W        W29420  17.548  30.091  14.474
61027W        W29421  20.331  19.983  13.263
61028W        W29422  27.298  12.661   4.588
61029W        W29423  26.581  30.406  13.130
61030W        W29424   2.311  28.261  14.531
61031W        W29425  33.565  34.594   2.826
61032W        W29426  30.131  41.444  14.772
61033W        W29427  40.796  25.988  14.514
61034W        W29428  28.534   9.288  12.882
61035W        W29429  40.503  10.676   0.811
61036W        W29430   1.772  19.225   2.447
61037W        W29431  17.161  38.856   2.290
61038W        W29432  23.694  24.674   3.133
61039W        W29433  12.839   0.461  14.660
61040W        W29434  41.988  32.811   1.623
61041W        W29435  44.808  34.996  10.626
61042W        W29436  35.433   7.880  10.650
61043W        W29437  27.117  29.033  11.804
61044W        W29438  35.808  22.755   3.383
61045W        W29439   2.188  37.635   3.608
61046W        W29440  26.975  28.425  12.575
61047W        W29441  15.913  38.339   0.824
61048W        W29442   0.824   4.271   0.668
61049W        W29443  36.576   2.299   2.693
61050W        W29444  25.747  13.274  11.632
61051W        W29445   4.797  41.348   2.159
61052W        W29446  34.839   7.666  13.028
61053W        W29447  33.436   9.098   9.982
61054W        W29448  22.485  40.820   4.083
61055W        W29449  36.276   1.900   2.861
61056W        W29450  24.714  32.608   0.098
61057W        W29451  31.302  43.401  13.332
61058W        W29452  42.491  17.811   4.708
61059W        W29453  39.828  24.014  10.676
61060W        W29454  20.202   1.843   3.942
61061W        W29455  42.639  33.345  13.662
61062W        W29456  29.914  19.145   3.257
61063W        W29457   9.360  20.256   4.500
61064W        W29458   4.985  33.037   1.320
61065W        W29459  14.737  39.450   3.300
61066W        W29460  30.883  34.948   1.815
61067W        W29461  44.994  30.570  14.914
61068W        W29462  11.370   1.453   4.449
61069W        W29463  19.187  16.360  14.291
61070W        W29464  24.622  16.582  11.199
61071W        W29465  40.693  23.676   3.996
61072W        W29466  38.052  30.013  14.657
61073W        W29467  41.004  22.601   0.865
61074W        W29468  16.668  16.654  13.433
61075W        W29469  29.545  18.151  14.982
61076W        W29470   2.792  17.203  11.349
61077W        W29471   8.360  34.488  13.898
61078W        W29472  33.527  15.672  12.251
61079W        W29473  24.790   9.757  12.040
61080W        W29474  17.119  35.430  14.801
61081W        W29475  30.577  35.466   1.879
61082W        W29476  12.737  15.612  12.908
61083W        W29477   1.609  28.036  11.096
61084W        W29478   7.300   8.729   1.378
61085W        W29479  40.909   7.595  13.441
61086W        W29480   1.910  12.791   3.287
61087W        W29481  32.538  13.418   3.916
61088W        W29482  13.918  30.494   3.215
61089W        W29483  10.653  27.074   4.105
61090W        W29484  33.599  15.856  13.660
61091W        W29485  25.850   5.148  13.564
61092W        W29486  12.719  41.983   2.191
61093W        W29487  37.892   1.665  12.605
61094W        W29488  34.974  29.956  12.958
61095W        W29489   1.869  15.938   1.486
61096W        W29490  38.565  32.463  13.589
61097W        W29491  20.801  18.046  14.442
61098W        W29492   5.400  16.774  14.277
61099W        W29493   9.236  44.891  10.709
61100W        W29494  27.688  25.139  13.384
61101W        W29495   4.303  15.624   4.547
61102W        W29496  28.800   5.691   3.907
61103W        W29497  12.078  36.813  13.798
61104W        W29498  42.928  27.479   4.453
61105W        W29499  20.549  34.033  13.808
61106W        W29500  13.324  40.378   2.668
61107W        W29501  41.986   7.973  13.360
61108W        W29502  17.213   0.576   3.261
61109W        W29503  20.689  14.198  10.871
61110W        W29504   1.762  13.170   1.420
61111W        W29505   7.347  34.174  14.058
61112W        W29506  43.179  35.649   2.833
61113W        W29507  11.271  30.447   0.324
61114W        W29508  27.510  27.670  11.438
61115W        W29509  17.980  25.783  14.044
61116W        W29510   8.425   2.183  10.620
61117W        W29511  12.077   8.388   4.084
61118W        W29512   3.993  35.450  10.543
61119W        W29513  30.569  32.160   1.058
61120W        W29514  17.082   1.064   1.474
61121W        W29515  12.722  22.783  11.759
61122W        W29516  21.535  32.119   2.624
61123W        W29517   4.600  22.663  14.797
61124W        W29518   6.675  22.547  11.125
61125W        W29519  42.376   6.896  13.976
61126W        W29520  28.151  15.069  14.450
61127W        W29521  17.053  40.786  14.418
61128W        W29522  16.347  44.258   0.934
61129W        W29523  27.602  18.547   2.982
61130W        W29524  34.192   6.025  11.887
61131W        W29525  19.360  38.088  12.145
61132W        W29526  42.357  14.139  13.970
61133W        W29527  21.596  25.079  10.643
61134W        W29528  43.048  32.516   1.468
61135W        W29529  41.064   4.451   4.133
61136W        W29530  28.431   2.483  11.643
61137W        W29531  41.506  25.680   4.656
61138W        W29532  14.839  18.634   2.135
61139W        W29533  42.510  11.947  10.696
61140W        W29534   0.488  30.380   3.708
61141W        W29535   1.694  40.320  12.358
61142W        W29536   4.281   8.690   3.563
61143W        W29537  11.245   4.462  14.872
61144W        W29538  12.732   2.327  12.040
61145W        W29539   4.615  34.853  13.451
61146W        W29540  19.827  39.037  11.926
61147W        W29541  33.167  32.277  12.578
61148W        W29542  28.868   9.570  14.587
61149W        W29543  19.621   9.117  13.748
61150W        W29544  31.464  25.684  11.057
61151W        W29545   7.763  24.740   2.316
61152W        W29546  31.560   8.210   3.240
61153W        W29547  10.903  28.425  14.971
61154W        W29548   8.405  36.824  12.962
61155W        W29549  44.332   6.068  10.293
61156W        W29550  14.141   4.430   0.733
61157W        W29551  40.798  15.517  11.577
61158W        W29552  40.232  26.622  11.885
61159W        W29553  31.863   5.104   4.146
61160W        W29554  26.578  25.532   2.742
61161W        W29555  32.177   1.478  13.654
61162W        W29556  21.509  12.095   5.016
61163W        W29557  33.652  15.907   3.763
61164W        W29558  25.669  23.677  13.916
61165W        W29559  20.488   0.795   1.942
61166W        W29560  25.151  13.809   2.728
61167W        W29561  24.654  20.653  11.896
61168W        W29562  31.701  41.537   4.841
61169W        W29563   3.196  24.124  13.663
61170W        W29564  36.430   6.877  11.702
61171W        W29565  43.837  19.105   4.269
61172W        W29566  14.539   4.465   2.953
61173W        W29567  43.000   0.424  14.215
61174W        W29568   7.297  35.237   2.744
61175W        W29569   7.938   5.808  11.608
61176W        W29570  11.633  23.954  14.480
61177W        W29571  42.700  20.218   2.217
61178W        W29572  31.667  26.965   1.455
61179W        W29573  29.147  21.997   1.735
61180W        W29574  15.306   0.177  13.791
61181W        W29575  23.567  29.059  13.396
61182W        W29576  22.515  11.621   2.758
61183W        W29577  20.857  40.090   2.193
61184W        W29578   3.795  27.943   4.620
61185W        W29579   4.547  28.018   4.371
61186W        W29580  14.028  35.842   4.133
61187W        W29581  32.412  23.226   3.892
61188W        W29582  25.080  23.038   1.853
61189W        W29583  38.875   8.185  12.224
61190W        W29584   3.983  36.970   2.391
61191W        W29585  43.830  31.780  14.317
61192W        W29586  35.508  31.805   2.684
61193W        W29587  42.256  17.738  11.416
61194W        W29588  26.022  34.029  13.901
61195W        W29589   5.384  31.029  10.755
61196W        W29590   7.813  32.151  12.006
61197W        W29591   4.199  27.670   4.459
61198W        W29592  21.283  36.170  11.410
61199W        W29593  35.454  43.000   5.023
61200W        W29594   8.767  40.926   0.325
61201W        W29595  43.771  26.693   5.099
61202W        W29596  33.325   5.272  11.348
61203W        W29597  12.817  40.490   4.648
61204W        W29598  35.831  18.099  14.648
61205W        W29599  26.650  12.575  13.074
61206W        W29600  15.326  28.662   2.858
61207W        W29601   0.356  40.739  13.402
61208W        W29602   0.364   0.902  11.119
61209W        W29603  13.515  36.475   2.677
61210W        W29604  30.048  43.984  14.893
61211W        W29605  44.787  24.075  11.678
61212W        W29606  35.017   7.505  10.566
61213W        W29607   3.057  22.305  14.452
61214W        W29608  20.177  10.439   4.192
61215W        W29609  33.496   4.613  13.034
61216W        W29610  40.501   0.129   1.089
61217W        W29611   1.523  17.195   0.184
61218W        W29612  14.508  14.166  11.991
61219W        W29613  42.725  20.701  11.968
61220W        W29614   0.710  16.081   0.320
61221W        W29615  25.424  11.186  11.616
61222W        W29616  40.951   1.259   4.730
61223W        W29617  34.117  38.785   2.889
61224W        W29618  18.479  36.861   1.524
61225W        W29619  21.740  31.167  11.686
61226W        W29620  12.329  28.583  14.090
61227W        W29621  34.067  39.533   4.591
61228W        W29622  31.237  15.227  13.973
61229W        W29623  12.720  34.837  13.808
61230W        W29624  12.905  38.412   2.278
61231W        W29625   9.294  21.808  13.856
61232W        W29626  34.016  17.792   4.715
61233W        W29627  39.819  39.333  11.431
61234W        W29628   6.105  15.167   0.994
61235W        W29629  16.791   1.266   3.648
61236W        W29630  12.113  43.478  13.822
61237W        W29631  22.715  32.194  10.663
61238W        W29632   6.297   6.140  13.405
61239W        W29633  16.538  16.900  12.974
61240W        W29634  40.270  34.316  10.755
61241W        W29635  23.134  25.977   0.194
61242W        W29636  35.068  12.805  10.719
61243W        W29637  23.146  43.103  11.659
61244W        W29638   9.590  18.144   2.343
61245W        W29639   6.592  20.756   0.951
61246W        W29640  42.254  24.899   3.344
61247W        W29641  25.645   1.364   0.405
61248W        W29642  42.451  30.966  11.655
61249W        W29643  31.086  23.029   3.254
61250W        W29644   7.422  36.112  11.955
61251W        W29645  23.135  39.991  13.360
61252W        W29646  38.382  15.373  11.973
61253W        W29647  13.593  24.633  12.494
61254W        W29648  10.245  10.859  10.686
61255W        W29649  28.596  32.676  13.088
61256W        W29650  36.969  16.645  14.772
61257W        W29651  19.582  43.085  11.623
61258W        W29652  11.262  37.964  12.747
61259W        W29653   4.362  16.771  10.531
61260W        W29654  35.571  42.287  11.110
61261W        W29655  34.515  29.641  13.886
61262W        W29656  36.321  35.777  11.924
61263W        W29657  14.557  13.751   2.230
61264W        W29658   0.869  26.017   4.281
61265W        W29659  36.685  44.937  13.456
61266W        W29660  14.966   4.730   9.883
61267W        W29661  26.768  10.223   5.090
61268W        W29662  32.026  41.239   2.370
61269W        W29663  22.725   9.569  13.931
61270W        W29664  33.934  41.058   0.404
61271W        W29665  11.583  39.857  14.597
61272W        W29666  39.067  20.555   1.806
61273W        W29667  44.916  14.215  11.394
61274W        W29668  39.411  33.981  12.939
61275W        W29669  41.959   0.126   3.700
61276W        W29670  34.913  27.724   0.340
61277W        W29671  19.050  30.604  14.703
61278W        W29672  19.237  15.013  13.149
61279W        W29673  28.634  25.717  12.978
61280W        W29674   7.105   5.352   1.825
61281W        W29675  28.342  40.780   4.065
61282W        W29676  36.634  42.367  12.425
61283W        W29677  28.960   4.974   4.612
61284W        W29678  38.277  36.550   0.517
61285W        W29679  25.949  15.343  12.812
61286W        W29680   1.380  44.858  14.322
61287W        W29681  35.997   7.514   4.123
61288W        W29682  22.617  25.975   2.751
61289W        W29683   6.291  27.612   1.946
61290W        W29684  11.601   7.813   2.049
61291W        W29685   9.901   9.851   1.197
61292W        W29686  24.116   0.237  13.404
61293W        W29687  29.180  32.076  13.929
61294W        W29688  12.665  41.903   1.686
61295W        W29689  33.696  11.013   5.042
61296W        W29690  39.329  30.723   0.773
61297W        W29691   8.514   5.468   2.222
61298W        W29692  25.243  37.347   4.032
61299W        W29693   3.363  43.223   2.249
61300W        W29694  14.095   2.776  13.514
61301W        W29695  38.593  16.196  12.518
61302W        W29696   9.857  39.479   0.768
61303W        W29697  15.968  21.755   1.239
61304W        W29698   4.407  12.031  14.306
61305W        W29699  33.438  41.030  12.465
61306W        W29700  31.930  40.564  14.428
61307W        W29701  27.906  17.137   3.040
61308W        W29702  44.342  16.137   4.421
61309W        W29703   0.294   5.591   2.353
61310W        W29704  38.207  11.130   1.271
61311W        W29705  12.233  26.361  11.217
61312W        W29706  44.456  26.116   0.771
61313W        W29707   4.397  25.083   2.713
61314W        W29708  42.519  20.617   1.326
61315W        W29709  25.630  17.630  14.635
61316W        W29710  14.336   7.596  12.989
61317W        W29711  34.904  19.298   0.455
61318W        W29712   3.552  21.192   4.133
61319W        W29713  12.637  10.890   0.884
61320W        W29714  28.989  36.514  11.523
61321W        W29715   6.214   3.166  14.502
61322W        W29716   4.690  23.976   0.251
61323W        W29717  23.474  30.347   4.314
61324W        W29718  42.968   2.243   4.786
61325W        W29719  14.749  43.451  14.960
61326W        W29720   1.735  25.593   0.404
61327W        W29721  14.133  44.853  14.743
61328W        W29722  29.589  35.279  11.658
61329W        W29723  11.868   7.558   0.366
61330W        W29724  10.846   0.172  13.844
61331W        W29725  17.093   4.389  13.470
61332W        W29726  22.886  44.869  10.819
61333W        W29727  27.450  11.729   0.330
61334W        W29728   7.431   9.787  14.723
61335W        W29729   9.712  37.403   1.431
61336W        W29730   1.438  20.019   0.566
61337W        W29731  15.787   2.411  14.379
61338W        W29732  19.063  36.548   2.860
61339W        W29733  43.530  43.370  13.558
61340W        W29734   9.484  41.009   1.827
61341W        W29735  20.271  30.639  14.335
61342W        W29736  25.709  17.491   3.209
61343W        W29737  12.655  24.116  11.816
61344W        W29738  15.802   2.777  11.850
61345W        W29739  12.056   8.669  12.071
61346W        W29740  23.957  21.315   1.226
61347W        W29741  17.849  23.112  14.012
61348W        W29742  23.551  31.071   5.037
61349W        W29743   8.987  29.530   3.287
61350W        W29744  20.519  12.389  12.199
61351W        W29745  22.882  37.646   1.594
61352W        W29746  10.921  40.565   1.825
61353W        W29747  40.848   2.952   4.541
61354W        W29748   0.073  36.758  14.767
61355W        W29749  27.916  23.862   4.448
61356W        W29750  28.189  14.776   0.229
61357W        W29751   9.991  18.703   0.429
61358W        W29752  39.851  37.385   0.373
61359W        W29753  22.263  35.559  11.004
61360W        W29754  17.134  30.533  10.741
61361W        W29755  25.972  21.156  10.747
61362W        W29756  23.181  22.658  10.555
61363W        W29757  34.486  24.669   2.462
61364W        W29758   2.381  44.298   1.509
61365W        W29759  28.733  43.825   2.766
61366W        W29760  17.825  28.946  13.290
61367W        W29761  21.198  12.308  11.931
61368W        W29762  44.724  38.877  14.216
61369W        W29763  31.125  34.479   3.058
61370W        W29764  38.269  38.376  13.805
61371W        W29765  17.522  36.965   1.352
61372W        W29766   9.687   0.440   1.920
61373W        W29767  28.566  27.075  11.229
61374W        W29768  12.200  16.187   3.623
61375W        W29769  27.974  11.601  13.291
61376W        W29770  27.554  37.780  12.605
61377W        W29771  34.903  43.729  13.126
61378W        W29772  17.044  29.633   0.732
61379W        W29773  42.753  29.416  12.358
61380W        W29774  31.826  28.944  13.947
61381W        W29775  16.790  26.607   2.008
61382W        W29776   1.248  38.081  13.866
61383W        W29777   7.560  26.170   0.672
61384W        W29778  35.128  23.778  13.952
61385W        W29779  19.532  32.313  14.415
61386W        W29780  14.980   3.216   0.787
61387W        W29781  20.980   5.247  10.756
61388W        W29782   3.625   5.280   5.021
61389W        W29783  19.252  19.503  13.870
61390W        W29784  22.103  43.482  14.918
61391W        W29785   0.055  20.597   0.814
61392W        W29786  33.463  16.640   4.388
61393W        W29787  18.417  44.227  14.385
61394W        W29788  22.179  30.126   0.714
61395W        W29789  39.064  39.784   2.681
61396W        W29790   3.095  28.476   4.655
61397W        W29791  24.754  30.555   0.720
61398W        W29792   6.834  23.033   9.663
61399W        W29793  34.489  18.745  13.805
61400W        W29794  33.930  22.715  12.365
61401W        W29795  33.619  39.338   1.796
61402W        W29796  12.768  25.953  14.793
61403W        W29797  14.586  42.514   0.341
61404W        W29798  29.961  44.913   3.729
61405W        W29799  37.030   7.851  13.529
61406W        W29800   5.806  34.793  14.325
61407W        W29801  22.730  26.614  14.442
61408W        W29802  17.207   9.866   5.187
61409W        W29803  32.563  25.346   1.393
61410W        W29804  21.319   4.246  14.538
61411W        W29805  26.240   4.862  12.322
61412W        W29806  28.499  38.523   0.687
61413W        W29807  38.521  28.480   2.791
61414W        W29808  22.175   5.433   0.883
61415W        W29809  36.360  26.056   1.580
61416W        W29810  35.433   2.809   4.152
61417W        W29811  20.782  26.525   0.445
61418W        W29812  16.052  10.586  11.537
61419W        W29813  27.387  27.104   2.711
61420W        W29814  26.442  36.934   3.606
61421W        W29815  24.674   3.749   1.474
61422W        W29816   4.443  18.675  12.036
61423W        W29817  16.318  37.649  13.037
61424W        W29818  29.364  23.153   4.603
61425W        W29819  39.352   6.775  13.373
61426W        W29820  43.553  19.379   0.395
61427W        W29821   6.590  36.337  13.916
61428W        W29822  40.895  28.885   2.013
61429W        W29823  37.951  17.828   1.397
61430W        W29824  44.798  10.255  14.091
61431W        W29825   4.347  13.822   4.045
61432W        W29826   9.174  33.812   2.278
61433W        W29827  12.422  21.246   2.479
61434W        W29828  13.063   4.453  10.393
61435W        W29829  19.610  11.743  13.479
61436W        W29830  12.384  37.980  11.002
61437W        W29831   5.187  16.193   4.007
61438W        W29832  17.328  36.584  14.887
61439W        W29833  17.839  21.251   4.098
61440W        W29834   6.344  16.792  10.460
61441W        W29835  17.897  16.872   0.440
61442W        W29836  22.085  24.923   3.179
61443W        W29837  14.109  18.405  11.363
61444W        W29838   7.910  33.993   3.676
61445W        W29839  37.983  37.044   3.668
61446W        W29840  27.084  10.713  10.898
61447W        W29841  30.692  19.572  14.769
61448W        W29842  29.078   5.440  11.162
61449W        W29843  44.588  36.016  12.151
61450W        W29844   8.098   6.858   4.911
61451W        W29845  13.358  35.166  11.852
61452W        W29846  18.509  31.648   0.379
61453W        W29847  37.018  16.639   4.904
61454W        W29848  19.589   0.728   4.632
61455W        W29849  30.847  42.675  14.389
61456W        W29850  26.338  31.937  10.749
61457W        W29851  12.777  31.875  10.785
61458W        W29852  24.561   9.168  11.258
61459W        W29853  22.204  21.675  13.363
61460W        W29854   2.713  30.405  13.522
61461W        W29855  28.677  16.362   2.375
61462W        W29856  23.474   8.736  11.505
61463W        W29857  25.357   4.227   0.898
61464W        W29858  32.146  12.385   0.305
61465W        W29859  44.411  21.733   0.825
61466W        W29860  11.675   5.703  13.793
61467W        W29861  16.001  26.074   2.293
61468W        W29862  13.265  28.580  14.073
61469W        W29863  15.130  36.346  10.531
61470W        W29864  18.021  29.769   3.333
61471W        W29865   5.491  35.052   2.004
61472W        W29866   3.401  19.036  12.015
61473W        W29867  26.926  14.732   1.694
61474W        W29868  17.789   2.879   2.740
61475W        W29869  15.053  15.041   1.167
61476W        W29870  34.095   8.314   4.557
61477W        W29871  25.553   9.469  11.227
61478W        W29872  18.271   5.293   4.397
61479W        W29873  16.752  33.017   4.702
61480W        W29874  32.468  38.078   4.542
61481W        W29875   8.416   5.025   4.364
61482W        W29876  31.917   3.769  14.843
61483W        W29877  25.918  34.364   1.813
61484W        W29878   8.330   1.775  10.335
61485W        W29879  30.411  12.735   0.371
61486W        W29880  29.600  21.205   1.915
61487W        W29881  16.547   3.854   0.462
61488W        W29882  15.880  35.981  11.873
61489W        W29883   7.850  22.682   1.649
61490W        W29884  11.645  38.454  14.840
61491W        W29885  36.238  43.815   2.354
61492W        W29886  30.877  39.970  13.594
61493W        W29887  21.461  12.312  12.565
61494W        W29888  33.450  39.215  12.848
61495W        W29889  39.831  15.783  13.178
61496W        W29890  18.651  29.969   5.109
61497W        W29891  11.896  42.526   3.157
61498W        W29892  21.254  36.896   3.362
61499W        W29893  19.469  25.409   0.495
61500W        W29894  26.499   8.377  10.484
61501W        W29895  31.414  15.891  12.928
61502W        W29896  28.974  34.095  14.865
61503W        W29897  31.560  25.991  14.207
61504W        W29898  38.768  27.569  12.354
61505W        W29899  19.548   7.815  11.091
61506W        W29900  21.631  34.394   4.800
61507W        W29901  44.611  24.719   1.644
61508W        W29902  39.964  21.131   3.351
61509W        W29903   1.723   9.716  10.862
61510W        W29904  19.566  14.576   0.407
61511W        W29905  23.436  21.060  12.362
61512W        W29906  22.182   6.074   0.204
61513W        W29907  12.370  27.790   4.677
61514W        W29908   7.933  24.445   4.160
61515W        W29909  39.232  15.325   2.900
61516W        W29910  36.761  18.957  10.728
61517W        W29911   7.789  35.128   2.366
61518W        W29912  28.427  27.562   4.197
61519W        W29913  29.601  27.503  14.057
61520W        W29914  32.315  44.752   2.402
61521W        W29915  20.403  21.647   0.767
61522W        W29916  20.503   3.976   1.308
61523W        W29917  41.754  23.218  10.927
61524W        W29918  35.093   7.887  11.324
61525W        W29919   5.597  26.664  10.980
61526W        W29920  28.446  19.245  12.845
61527W        W29921  28.644  32.185  13.911
61528W        W29922  21.863  25.455  14.484
61529W        W29923  10.848  30.813   4.252
61530W        W29924   0.191  43.732   0.551
61531W        W29925  13.703  41.202   2.724
61532W        W29926   1.224  37.884   0.452
61533W        W29927  39.788  22.094   0.508
61534W        W29928   2.656  24.633   1.697
61535W        W29929   0.198  19.758   3.261
61536W        W29930   7.882  29.960   4.121
61537W        W29931  17.098  28.246   2.786
61538W        W29932  16.010   1.489   3.205
61539W        W29933   8.855  38.808  13.626
61540W        W29934  24.559  28.208   0.267
61541W        W29935  33.933  27.920  10.516
61542W        W29936  34.803  29.321  11.158
61543W        W29937  34.455  38.744   3.802
61544W        W29938  22.126  34.039   0.462
61545W        W29939  33.489  27.048  12.932
61546W        W29940  30.969  42.071  12.951
61547W        W29941  39.065  33.627   9.911
61548W        W29942  26.641  34.521  13.893
61549W        W29943  32.835   5.078   2.863
61550W        W29944   7.472  44.392  13.111
61551W        W29945  18.709  23.153   0.279
61552W        W29946  29.956  18.149   2.666
61553W        W29947  41.824   1.732   3.193
61554W        W29948  34.609   4.687   0.886
61555W        W29949  26.218  42.847  14.351
61556W        W29950  22.327  24.443   2.645
61557W        W29951  28.937  12.679   1.400
61558W        W29952  25.709  20.714  10.772
61559W        W29953  15.635  31.061   1.378
61560W        W29954  17.219  19.299   1.671
61561W        W29955  39.016  29.723  14.270
61562W        W29956  38.230  37.789  10.112
61563W        W29957  28.707   6.917   4.279
61564W        W29958  22.464  41.320  12.209
61565W        W29959  39.499  29.607  11.776
61566W        W29960  15.758  43.129   0.184
61567W        W29961   2.988  11.368   2.282
61568W        W29962  12.100  34.952  11.599
61569W        W29963  33.295  38.736  12.078
61570W        W29964  29.373  13.279  13.814
61571W        W29965  27.080  35.142   2.676
61572W        W29966  13.282  27.507   0.327
61573W        W29967   6.879  13.080  13.590
61574W        W29968  25.134  34.860  10.737
61575W        W29969  26.663  40.854  12.504
61576W        W29970  44.144  23.375  10.154
61577W        W29971  42.392  34.574  14.085
61578W        W29972  36.983  31.413  13.541
61579W        W29973  17.582   5.718  12.667
61580W        W29974  27.981  38.468  11.161
61581W        W29975  22.060  34.902  11.723
61582W        W29976  37.854  27.878  13.823
61583W        W29977   4.750   5.958   3.295
61584W        W29978  16.061  38.394   0.327
61585W        W29979  14.298  13.681  11.917
61586W        W29980  20.118  15.697  14.770
61587W        W29981   2.055  39.817   3.257
61588W        W29982  31.333  14.174  12.475
61589W        W29983  43.388  12.947   2.360
61590W        W29984  26.121  21.085   1.833
61591W        W29985  37.111  14.787  10.300
61592W        W29986   1.408  21.686  14.824
61593W        W29987  33.470  37.826  11.844
61594W        W29988   3.840  16.327   2.872
61595W        W29989  17.176  21.344  12.464
61596W        W29990  30.426   9.414  10.727
61597W        W29991  22.643  33.109  14.824
61598W        W29992  32.233   1.934   4.856
61599W        W29993  16.669   8.952   4.497
61600W        W29994   8.524   1.667   4.520
61601W        W29995  36.088  26.982   3.916
61602W        W29996  22.128   0.384   1.497
61603W        W29997  36.415  41.750   0.939
61604W        W29998  30.071  10.170  10.924
61605W        W29999  38.765  31.633  12.816
61606W        W30000  16.782  42.361   0.752
61607W        W30001  16.007  34.089  13.796
61608W        W30002  42.953  19.172   0.383
61609W        W30003  16.140  34.052   1.763
61610W        W30004  16.194  17.106   9.737
61611W        W30005  19.017  26.086   9.851
61612W        W30006   1.993   1.398   1.463
61613W        W30007  39.611   0.316   4.647
61614W        W30008  30.462  38.508   0.821
61615W        W30009  33.786   0.288  14.361
61616W        W30010  44.361  19.765  11.659
61617W        W30011   4.234  40.141   3.738
61618W        W30012  25.180  36.934   3.157
61619W        W30013  17.577   5.510   4.637
61620W        W30014  10.251  26.090  10.102
61621W        W30015  12.732  36.719  14.361
61622W        W30016  26.193  36.924  10.770
61623W        W30017  18.020  22.036   3.983
61624W        W30018  16.414  32.330  11.520
61625W        W30019  37.927  22.648   1.320
61626W        W30020  12.706  31.533  14.882
61627W        W30021  15.155  23.134   1.794
61628W        W30022  42.005  33.223  14.846
61629W        W30023  38.784  20.238  13.909
61630W        W30024  13.319  28.147  12.271
61631W        W30025  39.634   7.393   4.068
61632W        W30026  29.132  44.426  11.430
61633W        W30027  36.623  24.462   3.910
61634W        W30028   2.765  11.237  14.828
61635W        W30029   5.866  38.993  12.145
61636W        W30030  21.932  22.775  12.344
61637W        W30031  10.869  11.545   0.526
61638W        W30032  19.225  24.060  11.859
61639W        W30033  44.008  26.149   3.335
61640W        W30034  41.909  11.832   5.453
61641W        W30035  10.685  15.961  14.265
61642W        W30036   0.346  19.255   3.208
61643W        W30037   5.163  20.484   2.618
61644W        W30038  31.188  27.978  12.534
61645W        W30039   1.565  33.983  10.901
61646W        W30040  29.350  33.513   3.168
61647W        W30041  27.513  11.172  10.726
61648W        W30042  36.913  44.502  13.495
61649W        W30043  22.773  28.282   4.961
61650W        W30044   1.824  40.461   0.723
61651W        W30045  24.972  44.100  11.495
61652W        W30046  25.967   3.421  10.121
61653W        W30047  41.985  32.973   2.948
61654W        W30048   4.684  36.892   3.227
61655W        W30049  11.571  14.233   3.124
61656W        W30050  23.432  37.401   4.103
61657W        W30051   9.013   8.453   2.402
61658W        W30052   1.079   3.567  13.505
61659W        W30053  43.264  11.312   0.483
61660W        W30054  28.469  34.557  13.447
61661W        W30055   2.252  13.608  12.966
61662W        W30056  11.173  29.414  13.933
61663W        W30057  17.461  26.668   3.766
61664W        W30058  32.013  27.253  11.527
61665W        W30059  26.689  36.070  12.982
61666W        W30060  30.873  35.877  13.614
61667W        W30061  13.309   5.911   4.519
61668W        W30062   4.264  19.277  11.547
61669W        W30063   9.590  11.731  12.868
61670W        W30064  34.914  23.464   0.416
61671W        W30065  39.017  41.500   5.008
61672W        W30066   5.850  15.114  13.144
61673W        W30067  31.437  43.816   4.856
61674W        W30068  29.215   9.204   2.191
61675W        W30069  40.608  17.212  13.262
61676W        W30070  29.980  23.708   4.147
61677W        W30071  28.241  17.560  13.040
61678W        W30072  29.722  16.651   1.280
61679W        W30073  11.110   6.200   1.204
61680W        W30074  40.788  42.242  14.089
61681W        W30075  29.415  36.958  12.117
61682W        W30076  13.196  19.104   4.161
61683W        W30077  42.007   8.684   2.389
61684W        W30078  16.739  31.937   2.151
61685W        W30079  39.482  25.524  13.842
61686W        W30080   3.266  38.039   2.737
61687W        W30081  17.610  18.093   2.402
61688W        W30082  37.007  24.219  12.961
61689W        W30083  39.304   7.871  13.491
61690W        W30084  21.118  29.426   3.834
61691W        W30085  30.450  28.907  11.875
61692W        W30086  17.009  33.662  13.744
61693W        W30087   9.499  25.807   9.806
61694W        W30088  17.214   8.724   4.625
61695W        W30089  31.700   3.753   0.835
61696W        W30090  36.683  33.082  12.811
61697W        W30091  25.404  40.438  12.909
61698W        W30092  12.369  18.576  11.191
61699W        W30093  17.056  26.108  12.402
61700W        W30094  16.600  42.080   4.193
61701W        W30095  16.344  19.091   3.805
61702W        W30096  39.903  33.794  14.964
61703W        W30097  11.817  14.012   1.434
61704W        W30098   7.871  35.671  13.588
61705W        W30099  10.393  19.288  14.334
61706W        W30100  34.885  25.485  12.637
61707W        W30101  22.113  16.883  11.404
61708W        W30102   2.093  15.856   3.756
61709W        W30103  23.839  13.898  13.443
61710W        W30104  19.097  29.195  13.425
61711W        W30105   5.976  33.579  14.928
61712W        W30106  20.147   0.450  13.762
61713W        W30107  18.178  39.057  11.623
61714W        W30108  13.469   4.809   0.965
61715W        W30109  44.282  43.744   2.840
61716W        W30110  37.874  24.163  12.532
61717W        W30111  22.793   8.245  13.478
61718W        W30112  41.434  15.720  11.385
61719W        W30113   4.702  34.079  14.761
61720W        W30114   4.293  14.769   2.164
61721W        W30115  10.642  41.576   4.564
61722W        W30116  21.281  28.957   4.028
61723W        W30117  26.651  27.569  13.996
61724W        W30118  37.803  38.570  11.558
61725W        W30119  24.204  23.956   3.551
61726W        W30120   3.180   5.169   1.291
61727W        W30121  40.313  17.551   4.078
61728W        W30122  16.713  34.899   3.634
61729W        W30123  12.357  29.445   0.894
61730W        W30124  27.075  27.006   1.800
61731W        W30125  12.167   6.465   3.059
61732W        W30126  23.712  13.961   2.815
61733W        W30127  39.630   0.401  13.832
61734W        W30128  34.316   1.278  11.136
61735W        W30129   2.833  34.217   3.185
61736W        W30130  32.912  20.259  12.444
61737W        W30131   8.747  31.151  11.036
61738W        W30132   9.233  14.317  12.670
61739W        W30133   7.445  37.394  11.358
61740W        W30134  28.255  32.491  12.750
61741W        W30135   8.218  33.573  14.333
61742W        W30136   7.787  16.725   2.173
61743W        W30137  29.100   7.569  14.208
61744W        W30138  16.191  11.137  14.799
61745W        W30139  26.241  22.100  14.958
61746W        W30140  26.212   7.234   3.248
61747W        W30141  10.295   3.927   1.779
61748W        W30142  31.253  19.452   5.079
61749W        W30143  12.698  44.698  11.142
61750W        W30144  33.365  34.424   1.275
61751W        W30145  12.631  23.674   2.836
61752W        W30146  30.096  42.474  13.008
61753W        W30147  15.611  24.969   1.323
61754W        W30148  10.405  44.002  14.336
61755W        W30149   6.204  44.011  13.787
61756W        W30150  33.498  41.995  14.528
61757W        W30151  38.136  26.484   4.209
61758W        W30152  38.529   1.840   4.938
61759W        W30153  10.695  24.914  11.962
61760W        W30154  20.220  17.677  11.780
61761W        W30155  11.220  10.179   1.211
61762W        W30156   1.453  12.382  11.347
61763W        W30157  39.670  29.702   0.870
61764W        W30158   5.665  13.313   0.218
61765W        W30159  24.065  19.343   1.657
61766W        W30160  28.591  10.642   0.345
61767W        W30161  32.096  42.431   4.675
61768W        W30162  12.670  32.862  13.863
61769W        W30163  11.266  39.729  13.044
61770W        W30164  20.847  37.096   4.836
61771W        W30165   1.807   9.175  12.328
61772W        W30166  11.073  39.498   4.503
61773W        W30167  23.829  36.177  13.323
61774W        W30168  37.282  35.651   0.474
61775W        W30169  15.619   9.365   0.323
61776W        W30170  23.327  13.846   4.151
61777W        W30171   5.314  41.809   4.071
61778W        W30172  41.087  30.978  13.849
61779W        W30173  23.995   9.838   3.180
61780W        W30174  19.778  26.592  14.048
61781W        W30175  14.809  34.952  10.571
61782W        W30176  24.157  21.558   1.686
61783W        W30177  37.422  43.591  11.831
61784W        W30178   7.209  23.517   2.484
61785W        W30179  37.987  32.416  10.702
61786W        W30180  43.387   7.787   1.821
61787W        W30181  12.443   0.925   1.765
61788W        W30182  29.565  30.177  14.947
61789W        W30183   0.277  28.589  14.087
61790W        W30184  26.982  44.124  11.482
61791W        W30185   6.881  41.581   1.378
61792W        W30186  34.936  33.095   2.907
61793W        W30187  25.267   0.873  10.967
61794W        W30188  43.791  38.313  13.386
61795W        W30189   7.145  18.646  13.402
61796W        W30190  40.294  11.401   3.375
61797W        W30191  25.889  22.769  11.070
61798W        W30192   1.420  33.539   0.125
61799W        W30193   7.477  14.247  11.636
61800W        W30194  32.040   0.801   2.140
61801W        W30195  27.081  12.711  13.341
61802W        W30196  31.520  31.339  10.456
61803W        W30197  10.812  40.996   2.792
61804W        W30198  27.987  30.057  12.429
61805W        W30199   1.962  43.358   0.798
61806W        W30200  12.142  25.651   1.694
61807W        W30201   0.957   5.237  12.073
61808W        W30202  30.618  13.197   5.026
61809W        W30203  17.279  17.330   3.149
61810W        W30204  25.007  33.420   0.667
61811W        W30205   7.930  14.931  12.453
61812W        W30206   4.237  31.780   4.065
61813W        W30207  34.531  43.246   3.935
61814W        W30208  25.229  11.219  13.389
61815W        W30209  13.531  18.719  13.942
61816W        W30210  18.674  33.386   2.157
61817W        W30211   5.457  28.739   4.905
61818W        W30212  35.932   4.793  12.008
61819W        W30213  14.040  44.393   2.876
61820W        W30214  10.665  28.283   1.380
61821W        W30215   8.834  27.897  11.675
61822W        W30216  16.964   7.142  10.731
61823W        W30217  19.313  42.470   1.846
61824W        W30218  18.072   5.238   4.885
61825W        W30219  23.230   0.371   3.408
61826W        W30220  40.539   1.515  13.034
61827W        W30221  24.896   4.578  11.809
61828W        W30222  40.502  15.182   4.561
61829W        W30223  22.046  26.589  13.920
61830W        W30224  35.627  35.606  12.130
61831W        W30225  24.969  40.916  13.737
61832W        W30226   8.175  41.288   1.878
61833W        W30227  13.909  16.195   4.129
61834W        W30228  34.859  10.681   4.205
61835W        W30229  32.984  27.939  12.932
61836W        W30230  25.146  10.123  12.015
61837W        W30231  34.174   1.817   0.443
61838W        W30232  24.622  26.114  10.627
61839W        W30233  12.128  22.513  11.456
61840W        W30234  25.971   0.859   5.000
61841W        W30235   6.160  28.362   1.406
61842W        W30236  24.566  12.257   1.278
61843W        W30237   0.159  37.079   1.664
61844W        W30238  42.610   1.986  13.816
61845W        W30239   7.745   8.712   1.713
61846W        W30240  13.416   0.291   3.272
61847W        W30241  32.037  19.181  12.489
61848W        W30242  20.100   6.002  11.017
61849W        W30243   9.315  38.340   0.500
61850W        W30244   2.721  38.024  11.470
61851W        W30245  33.440  15.119  13.383
61852W        W30246   1.486  39.842  11.072
61853W        W30247   1.416  13.552   4.148
61854W        W30248   7.228  12.390   4.025
61855W        W30249  10.477   9.700  10.704
61856W        W30250   2.377   3.196  13.303
61857W        W30251   4.239   4.086   4.394
61858W        W30252  13.991  11.302   4.088
61859W        W30253  19.606  33.629   2.817
61860W        W30254  21.131  44.110  13.968
61861W        W30255   9.278  34.476  14.145
61862W        W30256  17.744  12.643   0.721
61863W        W30257  14.678  41.135   0.390
61864W        W30258  24.101  14.316   4.728
61865W        W30259  15.642   1.944   2.747
61866W        W30260  36.814  32.446  11.073
61867W        W30261   9.595   3.911  12.482
61868W        W30262  28.049  14.775  11.015
61869W        W30263  16.642   9.481  10.198
61870W        W30264   8.573  38.523   1.801
61871W        W30265  34.326  42.127   1.758
61872W        W30266  38.906   7.224  14.846
61873W        W30267   7.109   0.983   2.181
61874W        W30268  14.763  43.485  13.442
61875W        W30269  24.068  16.642  12.493
61876W        W30270   9.852   8.402   1.670
61877W        W30271  40.968  41.303  13.001
61878W        W30272  35.807  25.002   3.637
61879W        W30273  28.625  14.091  12.532
61880W        W30274  39.167  18.664   1.427
61881W        W30275  20.178  12.285  11.845
61882W        W30276  36.410  44.787   0.259
61883W        W30277  38.342  25.393   0.864
61884W        W30278  38.452   3.254  14.197
61885W        W30279  19.032   0.190  12.946
61886W        W30280   0.786  18.309  12.491
61887W        W30281   8.264  38.106   4.079
61888W        W30282  36.159   9.382  13.617
61889W        W30283  40.971   5.841   4.968
61890W        W30284  16.060  10.317   3.618
61891W        W30285   0.009   7.705  10.958
61892W        W30286  22.011  40.113   2.659
61893W        W30287  33.415  24.337  13.779
61894W        W30288  13.705  39.814  13.131
61895W        W30289  27.866   5.983  12.509
61896W        W30290   4.509  43.346   1.187
61897W        W30291  21.158   1.726   2.475
61898W        W30292  32.130  35.153  11.842
61899W        W30293  32.522  21.718   3.386
61900W        W30294  42.542  41.491   4.352
61901W        W30295  32.186  31.324   0.295
61902W        W30296   4.000   0.914  12.507
61903W        W30297  14.871  18.768  12.043
61904W        W30298  19.166  11.704  11.666
61905W        W30299  40.245  18.120   0.392
61906W        W30300   5.217  34.086  10.643
61907W        W30301  14.723  42.243   2.862
61908W        W30302   1.294   5.774   2.322
61909W        W30303  29.303  22.948   3.158
61910W        W30304  25.350  38.563   3.742
61911W        W30305  44.961  40.798  14.890
61912W        W30306  25.519   6.720   4.276
61913W        W30307  26.550  28.554   2.231
61914W        W30308   5.909  37.859   4.571
61915W        W30309   6.752  12.602   4.051
61916W        W30310   9.149  22.955  10.781
61917W        W30311  19.914  18.991  12.052
61918W        W30312  11.305   2.676   3.643
61919W        W30313  40.889  28.314   2.820
61920W        W30314  29.925  41.566  11.541
61921W        W30315   1.675  14.260  14.761
61922W        W30316  26.116  34.808   2.351
61923W        W30317  29.955  27.013   3.649
61924W        W30318  38.869  24.619  10.569
61925W        W30319   0.831  36.547  12.893
61926W        W30320  37.514   4.273  11.157
61927W        W30321  35.448  38.618   1.657
61928W        W30322  24.999  27.998   1.689
61929W        W30323  24.531  28.950   2.155
61930W        W30324   5.684   4.085  14.638
61931W        W30325  27.287  36.464   1.971
61932W        W30326   1.290   1.956  12.605
61933W        W30327  33.599   0.397  12.385
61934W        W30328  41.671  29.499   2.820
61935W        W30329  36.584  37.569   3.289
61936W        W30330   1.496  12.208  14.495
61937W        W30331   9.075  23.636  10.320
61938W        W30332  12.060  35.317   2.315
61939W        W30333   1.503  22.118   0.169
61940W        W30334   0.955  18.820   4.170
61941W        W30335  31.189  23.084  10.450
61942W        W30336  16.164  35.296  12.116
61943W        W30337  27.353  38.508  13.078
61944W        W30338  36.025   3.932  11.519
61945W        W30339  43.472  28.556   4.543
61946W        W30340  41.372  39.335  14.044
61947W        W30341  14.669   5.489   3.552
61948W        W30342  11.796   0.475   0.485
61949W        W30343   9.217  43.988  11.609
61950W        W30344  28.465  38.878   3.196
61951W        W30345  35.621  44.951   3.286
61952W        W30346  28.250  30.245  12.847
61953W        W30347  18.157   5.465   1.864
61954W        W30348  23.950  19.779  14.457
61955W        W30349  43.312  18.051  12.512
61956W        W30350  31.692  10.200  12.781
61957W        W30351  17.964  24.948  14.493
61958W        W30352  26.222   1.221  11.943
61959W        W30353  22.976  25.340  13.776
61960W        W30354  22.115  44.424  12.684
61961W        W30355   5.603  27.087  12.132
61962W        W30356  27.325   9.761  12.107
61963W        W30357  16.180  26.097  12.170
61964W        W30358  37.963  38.395  13.371
61965W        W30359  30.463  19.502  12.890
61966W        W30360   1.215   8.345   0.426
61967W        W30361   7.221  15.133  12.606
61968W        W30362  35.693   0.247   3.713
61969W        W30363  25.760   6.735  13.819
61970W        W30364  42.850  43.160  14.587
61971W        W30365  33.895  27.560   0.534
61972W        W30366   1.617   2.657   2.360
61973W        W30367   0.971   8.146   4.289
61974W        W30368   8.213   2.445  14.827
61975W        W30369   1.068  34.430  13.870
61976W        W30370  28.325  14.677  13.047
61977W        W30371  33.414  12.397  11.672
61978W        W30372   6.015  36.917   3.754
61979W        W30373  13.659  41.983   4.504
61980W        W30374  27.461  38.390   4.615
61981W        W30375  29.624  28.058   2.788
61982W        W30376  18.681  14.188   0.418
61983W        W30377   8.816  41.825   0.932
61984W        W30378  14.229  39.000  12.012
61985W        W30379  27.358  14.340   0.511
61986W        W30380   1.103  35.512   2.620
61987W        W30381  28.553   9.611  12.482
61988W        W30382  37.368   6.495   3.438
61989W        W30383   7.111  28.677  13.338
61990W        W30384  13.685   8.322  12.392
61991W        W30385  34.167  28.350   0.721
61992W        W30386  42.624  14.246  13.539
61993W        W30387  10.984  37.976  13.182
61994W        W30388  35.877   9.587   3.727
61995W        W30389   3.196   2.377   1.899
61996W        W30390  15.310  27.849   4.652
61997W        W30391  25.548   3.659   2.465
61998W        W30392  11.125  24.143  13.302
61999W        W30393   9.386  37.338  14.959
62000W        W30394  12.943   3.267   1.317
62001W        W30395  35.955   8.407   4.384
62002W        W30396  31.334   2.964  12.866
62003W        W30397  13.721  11.287   0.433
62004W        W30398  23.678   9.142  12.690
62005W        W30399  16.840  28.075  10.235
62006W        W30400  17.904  12.949   3.070
62007W        W30401   4.028  31.345  12.970
62008W        W30402  18.648  32.475   2.174
62009W        W30403  18.149  16.692  14.631
62010W        W30404   5.383   8.762   2.206
62011W        W30405  18.586  40.901  12.412
62012W        W30406  40.015  40.037   2.689
62013W        W30407  26.531   2.466   1.204
62014W        W30408   5.912   4.381   2.319
62015W        W30409  18.671  35.530  10.754
62016W        W30410  15.171   8.121   1.159
62017W        W30411  16.339  37.783   1.399
62018W        W30412  38.544   3.475  10.703
62019W        W30413  15.007  34.536  12.399
62020W        W30414  12.639   9.257  11.696
62021W        W30415  14.255  12.760  11.949
62022W        W30416  15.662  29.857  14.156
62023W        W30417  27.602  24.030  10.645
62024W        W30418  43.939  22.362   3.551
62025W        W30419  17.567   5.955   3.253
62026W        W30420  30.723   3.869   0.386
62027W        W30421   4.785   1.173   3.732
62028W        W30422   0.708  23.549   2.408
62029W        W30423  16.701   4.791   3.704
62030W        W30424   4.886   1.760  10.305
62031W        W30425  26.046  30.870   4.222
62032W        W30426  16.488  35.761  14.276
62033W        W30427  40.740  35.704  11.124
62034W        W30428  34.990  26.932   1.723
62035W        W30429  16.086  33.048  12.632
62036W        W30430  29.184   2.438  13.297
62037W        W30431   2.499  20.080   4.263
62038W        W30432  44.135  27.919  13.585
62039W        W30433  26.340   0.632   5.328
62040W        W30434  21.077  15.537   0.820
62041W        W30435  19.979  30.710   4.623
62042W        W30436   6.422  42.505  14.246
62043W        W30437  13.532   8.267   4.715
62044W        W30438   6.444  40.442   1.247
62045W        W30439  20.571  19.758   1.382
62046W        W30440  23.285   1.002  11.473
62047W        W30441  35.045  10.910   4.605
62048W        W30442  20.279   9.783   0.870
62049W        W30443   5.196  12.734   0.996
62050W        W30444  28.494   0.962   3.572
62051W        W30445  32.391   6.377  14.594
62052W        W30446   5.696  30.907   4.130
62053W        W30447  44.997  21.055  13.140
62054W        W30448   1.303   4.052   3.734
62055W        W30449  22.565  27.218  11.884
62056W        W30450  20.987   2.908   3.906
62057W        W30451   8.484  33.013   3.718
62058W        W30452  29.564  13.138   0.266
62059W        W30453  44.874   2.886   3.416
62060W        W30454  33.242  42.381  14.763
62061W        W30455  37.294  28.280  12.528
62062W        W30456   9.954  23.566   1.294
62063W        W30457  27.218  43.744   2.771
62064W        W30458  35.178  38.321  11.326
62065W        W30459  34.677   5.871  12.016
62066W        W30460  26.547  42.823  13.928
62067W        W30461  30.957  28.156   2.499
62068W        W30462  20.586   4.409   4.256
62069W        W30463  33.323  23.272   4.387
62070W        W30464  39.958  15.696   2.658
62071W        W30465  12.693  37.529  13.872
62072W        W30466   9.573  34.516  14.698
62073W        W30467   8.430  38.591   1.232
62074W        W30468  23.150  19.300  11.521
62075W        W30469  22.448  43.802   4.179
62076W        W30470  12.604  13.604  13.469
62077W        W30471  24.628  21.573   0.373
62078W        W30472  12.445  36.435   0.750
62079W        W30473  15.761   9.994   2.357
62080W        W30474  20.683  37.507  10.884
62081W        W30475  42.490  36.076   4.569
62082W        W30476  32.132   9.188   2.887
62083W        W30477  44.979  11.987   0.926
62084W        W30478   1.246   0.966   1.169
62085W        W30479  18.154   1.128  13.062
62086W        W30480  43.171  16.048   3.708
62087W        W30481  35.007  42.926   5.294
62088W        W30482   1.856   8.774  14.546
62089W        W30483  34.089  28.627   2.860
62090W        W30484   4.808  22.861  11.884
62091W        W30485  33.515  16.415  12.842
62092W        W30486  37.965  28.900  13.811
62093W        W30487  29.477  23.411  13.764
62094W        W30488  15.159  40.424  11.634
62095W        W30489  37.165  28.272   4.091
62096W        W30490  21.699  36.360   1.576
62097W        W30491   3.442  33.636  12.499
62098W        W30492  28.939  16.489   3.823
62099W        W30493  10.070   1.115  11.913
62100W        W30494  21.019  21.680  14.793
62101W        W30495  11.647  23.218   1.466
62102W        W30496   1.744  18.748   4.374
62103W        W30497  29.498  41.288   1.860
62104W        W30498  39.941   0.450   2.903
62105W        W30499   8.196  30.430   1.250
62106W        W30500  16.250  16.135  13.192
62107W        W30501  22.474  40.095  14.538
62108W        W30502  19.802   0.734   0.873
62109W        W30503  23.598  12.314   3.356
62110W        W30504   9.763  39.910  11.629
62111W        W30505  39.769  14.810   4.116
62112W        W30506  38.445  34.831  13.118
62113W        W30507  10.208  35.484   2.973
62114W        W30508  30.466  26.576  10.769
62115W        W30509  31.641  14.440   0.337
62116W        W30510   2.381  35.883  14.826
62117W        W30511   1.930  18.542   2.884
62118W        W30512  17.173  16.226   0.347
62119W        W30513  26.020  43.493   1.276
62120W        W30514  41.955  20.692   3.411
62121W        W30515  22.555  18.794   1.307
62122W        W30516  19.119  37.373   1.546
62123W        W30517  33.371  37.958  14.527
62124W        W30518  39.990   8.612  12.479
62125W        W30519  15.761  27.922   1.001
62126W        W30520  40.227  29.075  13.069
62127W        W30521  27.534  43.919   0.616
62128W        W30522  30.844  24.051  10.665
62129W        W30523  38.686  18.703   4.363
62130W        W30524   3.401  24.165   3.815
62131W        W30525  20.023   9.791  11.999
62132W        W30526  35.870  42.902   1.038
62133W        W30527  18.489  15.662  13.068
62134W        W30528  18.774  35.307  13.860
62135W        W30529  16.545  34.634  11.593
62136W        W30530  30.134  26.543   4.983
62137W        W30531  41.760  44.644   0.843
62138W        W30532  14.157  36.044  11.020
62139W        W30533  39.467  26.037   4.096
62140W        W30534  40.955  42.288  12.963
62141W        W30535  39.912  12.119   2.030
62142W        W30536  20.324   7.853  14.717
62143W        W30537  10.937  39.394  10.751
62144W        W30538  12.651   2.668  13.542
62145W        W30539  14.905  21.048   0.839
62146W        W30540  43.098  35.355   0.086
62147W        W30541  12.084  23.008   0.558
62148W        W30542  16.912  34.533  14.995
62149W        W30543  41.531  44.374   1.239
62150W        W30544  39.801   1.971  12.882
62151W        W30545  43.395  37.304  12.097
62152W        W30546  24.180  24.479   0.340
62153W        W30547  10.700   6.219   4.319
62154W        W30548  12.906   0.097   0.440
62155W        W30549  24.060  28.058   1.736
62156W        W30550  28.592  12.366  12.110
62157W        W30551  17.920   1.328   1.695
62158W        W30552  42.450   6.009   0.251
62159W        W30553  29.071  15.052   3.319
62160W        W30554   6.237   4.206   1.137
62161W        W30555   0.826  18.931   3.235
62162W        W30556   5.699  28.998  12.980
62163W        W30557  30.438   6.797   4.827
62164W        W30558   3.819   2.838  11.369
62165W        W30559  25.216  43.020   0.244
62166W        W30560  35.810  26.643   2.607
62167W        W30561  35.150   2.952  12.380
62168W        W30562   8.465  27.570   3.203
62169W        W30563   4.874   5.520   4.041
62170W        W30564   6.879  35.392   4.123
62171W        W30565   3.022  20.581  14.430
62172W        W30566  17.185   6.436  11.603
62173W        W30567  23.130  22.631   2.081
62174W        W30568  13.785  11.214   4.549
62175W        W30569  40.044   4.646   4.167
62176W        W30570   9.553  35.181  11.531
62177W        W30571  31.059  23.616  10.854
62178W        W30572  25.998  24.917   4.102
62179W        W30573   6.966  11.775   1.298
62180W        W30574  35.100  30.043   2.416
62181W        W30575   9.117  11.899  12.876
62182W        W30576  27.736  19.716  11.150
62183W        W30577  20.788   8.106  14.688
62184W        W30578  29.518   9.624  14.094
62185W        W30579  21.707  30.994   1.267
62186W        W30580  20.322   7.460  14.384
62187W        W30581  19.512  17.745   1.341
62188W        W30582  42.896  14.666   1.269
62189W        W30583  19.763   3.706   5.006
62190W        W30584   9.637  13.505  12.470
62191W        W30585  13.890   5.545  10.752
62192W        W30586  41.559   2.996   3.706
62193W        W30587   5.298  34.354   3.241
62194W        W30588   0.384  37.273  13.737
62195W        W30589  42.050  32.006  12.066
62196W        W30590  11.754  41.037  13.105
62197W        W30591  12.242  21.732  13.166
62198W        W30592  11.720   3.739  11.175
62199W        W30593  28.337   8.363  11.927
62200W        W30594  41.903  13.720  10.438
62201W        W30595  14.024  36.432   2.726
62202W        W30596   8.688   4.295  11.375
62203W        W30597  43.882  33.124   1.347
62204W        W30598  25.036  29.521   2.996
62205W        W30599  13.898  15.677   4.071
62206W        W30600  23.546  29.012   1.187
62207W        W30601  14.557  31.285   1.965
62208W        W30602  30.879  31.507   3.222
62209W        W30603  27.253  10.973   5.089
62210W        W30604   2.494  17.081   9.989
62211W        W30605  19.093   7.562  13.060
62212W        W30606   9.662   8.364   0.677
62213W        W30607   5.399   2.935  13.900
62214W        W30608  14.082  44.176  13.448
62215W        W30609  11.940  28.499   2.214
62216W        W30610  30.538  14.647   1.676
62217W        W30611  34.375  13.937   2.214
62218W        W30612  11.699  34.115  11.635
62219W        W30613  22.536  28.713  11.011
62220W        W30614  32.887   2.741   1.607
62221W        W30615   0.369  30.901  12.910
62222W        W30616  22.888  39.999  10.504
62223W        W30617  27.341   1.413  13.414
62224W        W30618  40.451  19.557   1.090
62225W        W30619  23.096   4.828   0.965
62226W        W30620  36.491  24.035   3.278
62227W        W30621  36.576  35.116  12.570
62228W        W30622  17.721  28.479  13.498
62229W        W30623  18.555   8.618   4.581
62230W        W30624  22.169  28.064   2.649
62231W        W30625   3.008  40.764  10.450
62232W        W30626  38.938  13.317  13.013
62233W        W30627  30.055  27.946   4.690
62234W        W30628   3.971  26.904  13.506
62235W        W30629  40.008  43.010   2.883
62236W        W30630  15.050  28.531  14.100
62237W        W30631   4.925  41.517  12.095
62238W        W30632  40.420  37.422   5.487
62239W        W30633  35.928  14.096   0.292
62240W        W30634  21.984  37.942  12.476
62241W        W30635  26.699  33.770  13.330
62242W        W30636  36.914  30.584   4.753
62243W        W30637  43.013   2.175   0.849
62244W        W30638   2.206  39.588  13.116
62245W        W30639  33.831  29.687  10.428
62246W        W30640   9.773  18.312   2.803
62247W        W30641  22.048  24.703   4.574
62248W        W30642  42.099  11.383  13.338
62249W        W30643   7.413  41.939   3.618
62250W        W30644  18.141  37.343  13.054
62251W        W30645  39.030  29.052  10.653
62252W        W30646   9.467   4.307  11.540
62253W        W30647  39.466  17.588  10.736
62254W        W30648   7.977  40.057   2.232
62255W        W30649  14.283  25.725   1.660
62256W        W30650  23.037  39.029   3.559
62257W        W30651   1.031  26.521  13.136
62258W        W30652  16.407  14.697  14.485
62259W        W30653   7.466   6.265   1.607
62260W        W30654  27.503  15.631  14.103
62261W        W30655  11.775  42.543   1.498
62262W        W30656  39.555  16.505  13.570
62263W        W30657  10.723   6.148  14.735
62264W        W30658  44.506  40.752  12.401
62265W        W30659  19.490  33.995  13.919
62266W        W30660  32.597   9.867   0.211
62267W        W30661  34.921  25.136   1.647
62268W        W30662   4.567  26.099   3.614
62269W        W30663  40.759  42.967   0.477
62270W        W30664  27.493  26.442   4.162
62271W        W30665  15.088   5.222   4.205
62272W        W30666  26.177   5.272   0.339
62273W        W30667  37.638  18.062   3.216
62274W        W30668  42.791  17.364  13.937
62275W        W30669  32.728  10.079  10.703
62276W        W30670  42.704  38.816   3.184
62277W        W30671  34.385   3.677   1.372
62278W        W30672  30.399   7.906  11.178
62279W        W30673   1.074  32.945  13.492
62280W        W30674  40.616  29.624   2.716
62281W        W30675  21.302  14.306   1.450
62282W        W30676  22.986   3.467   0.449
62283W        W30677   6.293  10.248  13.463
62284W        W30678  19.820  28.466  11.653
62285W        W30679  15.911   8.587   4.893
62286W        W30680   6.292  33.432   2.624
62287W        W30681  10.637  21.546   2.890
62288W        W30682   7.103  31.809  11.988
62289W        W30683   3.213  32.062   5.119
62290W        W30684  41.833  15.310   4.643
62291W        W30685  18.011  15.846  12.793
62292W        W30686  21.303  40.370  14.519
62293W        W30687  25.140  41.036  14.333
62294W        W30688  14.027  35.956   0.374
62295W        W30689  36.138  25.999  14.685
62296W        W30690  36.791  13.273   1.178
62297W        W30691   3.645  36.541  14.757
62298W        W30692   7.804  20.119  11.678
62299W        W30693  25.019  20.673   4.266
62300W        W30694  22.707  32.203   2.214
62301W        W30695  23.226   1.769   2.623
62302W        W30696  18.179  26.705  10.860
62303W        W30697  22.136  33.412   1.025
62304W        W30698  33.120  36.616   1.102
62305W        W30699   3.814   0.432   1.423
62306W        W30700  11.554   1.201   2.937
62307W        W30701   0.847  15.283  12.002
62308W        W30702  14.270  30.993  11.879
62309W        W30703   0.241  27.177  12.593
62310W        W30704  28.592  44.917   1.659
62311W        W30705  20.956  39.734  10.248
62312W        W30706  10.521  15.180  12.230
62313W        W30707   6.091   8.662  11.068
62314W        W30708  24.719  36.890  13.454
62315W        W30709  34.894  23.441  12.283
62316W        W30710  15.698  10.839   4.195
62317W        W30711   9.242   0.826   3.786
62318W        W30712  19.229   2.775  12.071
62319W        W30713  38.194  37.844  11.161
62320W        W30714   8.735  27.683  14.105
62321W        W30715  40.093   1.697  11.437
62322W        W30716   7.908  20.202  14.511
62323W        W30717  14.992  12.671  12.815
62324W        W30718   9.791  35.294  10.644
62325W        W30719  34.105  23.142  14.955
62326W        W30720  24.101  14.927  13.024
62327W        W30721  38.968   4.341  10.630
62328W        W30722  37.426   9.752   2.693
62329W        W30723  26.705  21.448   4.178
62330W        W30724  43.293  17.870  13.107
62331W        W30725  33.087  14.241   0.459
62332W        W30726  32.112  23.531  11.016
62333W        W30727  34.348  15.091   4.876
62334W        W30728  30.205  14.314  13.878
62335W        W30729   6.232  18.463   0.378
62336W        W30730  29.361  14.920  13.953
62337W        W30731  30.835  18.486   4.103
62338W        W30732  17.487  21.981   1.179
62339W        W30733   3.803  40.125   0.402
62340W        W30734  41.819  17.504   3.158
62341W        W30735  38.509   4.854   1.318
62342W        W30736  44.809   3.893   1.732
62343W        W30737  22.683  38.630   3.416
62344W        W30738   8.941  44.214   0.795
62345W        W30739  30.207  21.486   2.606
62346W        W30740   5.284   4.810  13.119
62347W        W30741   5.485  40.090  13.161
62348W        W30742   5.884  21.510   4.444
62349W        W30743  29.170  43.751   4.757
62350W        W30744  21.278  42.606  13.894
62351W        W30745   1.161  25.343  13.783
62352W        W30746  19.155   7.356   0.044
62353W        W30747  24.764   3.859   4.081
62354W        W30748  17.781  34.346  13.451
62355W        W30749   8.191   3.556  11.463
62356W        W30750  13.033  25.920  12.992
62357W        W30751  38.022  40.981  14.383
62358W        W30752   7.453  33.416  14.871
62359W        W30753  38.827   3.321   5.286
62360W        W30754  24.407  35.099   1.970
62361W        W30755  37.378   7.498  14.334
62362W        W30756   8.763  10.218   3.612
62363W        W30757  12.250  31.983  13.009
62364W        W30758  14.502  31.402  10.923
62365W        W30759  18.024  26.091  14.483
62366W        W30760   5.354   9.457   3.587
62367W        W30761  40.735  28.706  12.434
62368W        W30762   6.507  15.178  13.380
62369W        W30763  40.866  40.805   1.026
62370W        W30764  21.089  14.384  14.793
62371W        W30765  19.506  34.870  13.825
62372W        W30766  13.550  12.623  12.549
62373W        W30767  38.557  20.102  13.443
62374W        W30768   2.930  12.232  14.084
62375W        W30769  34.911  42.982   1.713
62376W        W30770   8.500  16.435   4.118
62377W        W30771  15.255  29.550   4.092
62378W        W30772  37.696  26.568   2.663
62379W        W30773   0.766   6.671  13.380
62380W        W30774  16.023  35.503  12.587
62381W        W30775   6.319  17.558  14.278
62382W        W30776  40.334  33.887  12.755
62383W        W30777  41.910  42.004  13.480
62384W        W30778   8.220  32.795  13.588
62385W        W30779  14.280  17.584  11.984
62386W        W30780   5.861   8.011  13.437
62387W        W30781  33.504  35.112  12.181
62388W        W30782   3.462   3.853  12.974
62389W        W30783  27.728  31.531  12.491
62390W        W30784  30.545  40.807   3.758
62391W        W30785  33.918   5.600  11.736
62392W        W30786   9.451  22.469  14.413
62393W        W30787  27.935  39.354  13.895
62394W        W30788  24.412  11.355  11.172
62395W        W30789  39.447  21.176  13.239
62396W        W30790   4.244  23.469   1.803
62397W        W30791  26.183  42.605   0.801
62398W        W30792  43.320  43.793   4.150
62399W        W30793   0.546  44.403   3.717
62400W        W30794  16.733  37.897   0.690
62401W        W30795   0.381   0.427  12.177
62402W        W30796   3.333  16.697  14.449
62403W        W30797  19.672   7.922   4.588
62404W        W30798  12.124   5.217  12.781
62405W        W30799  18.987   0.950   3.460
62406W        W30800  33.921  36.603   3.260
62407W        W30801  26.208   8.343   4.119
62408W        W30802  33.148   1.849  12.574
62409W        W30803  31.873   5.340   0.359
62410W        W30804  41.843  15.474  12.628
62411W        W30805   9.841  39.018  12.119
62412W        W30806  15.881  14.627   0.381
62413W        W30807  11.229  36.181   3.342
62414W        W30808  12.655  20.733   3.563
62415W        W30809  36.935  18.433   3.642
62416W        W30810  31.313   2.858  13.950
62417W        W30811  17.857  30.618  14.386
62418W        W30812  10.851  14.277  11.133
62419W        W30813  27.787  17.690   3.247
62420W        W30814  33.418  38.930   0.439
62421W        W30815  35.139  25.570   0.428
62422W        W30816  34.510  19.325  10.761
62423W        W30817   8.830  36.483  11.608
62424W        W30818  18.284   4.422  12.982
62425W        W30819   2.158  14.124  12.151
62426W        W30820  20.684  25.490  14.903
62427W        W30821   5.260   3.045   1.415
62428W        W30822   5.019   5.603   3.538
62429W        W30823  35.817   8.504  13.273
62430W        W30824  19.736  40.279   1.283
62431W        W30825  28.894  30.676   2.694
62432W        W30826  43.966  31.255  12.422
62433W        W30827  40.025  43.697  11.170
62434W        W30828  38.548  10.095   2.308
62435W        W30829   6.664  15.399   1.845
62436W        W30830  41.946  19.277   3.748
62437W        W30831   3.046  21.134   3.594
62438W        W30832  29.063  33.486  10.945
62439W        W30833  35.461  28.933  12.502
62440W        W30834  21.317   0.484  13.043
62441W        W30835  22.532  25.493   3.656
62442W        W30836  24.369   1.406   2.166
62443W        W30837  40.423   1.650  10.198
62444W        W30838  14.665  36.523   3.219
62445W        W30839   7.800   9.639   4.820
62446W        W30840  43.990  27.612  11.060
62447W        W30841  32.454  17.169  10.167
62448W        W30842   8.547  18.689   1.491
62449W        W30843   1.144  20.519  14.877
62450W        W30844  29.962  39.896   2.606
62451W        W30845  37.114  43.097   2.651
62452W        W30846   3.366  22.651   3.773
62453W        W30847  14.270  41.026  14.761
62454W        W30848  21.740  38.295   3.071
62455W        W30849  35.818  37.228   0.487
62456W        W30850  36.011  19.699  13.006
62457W        W30851  44.424  29.285   4.472
62458W        W30852  39.711  32.876  13.495
62459W        W30853  22.308  20.544   0.935
62460W        W30854  16.770   8.635  14.637
62461W        W30855  43.835  16.170   3.303
62462W        W30856  41.415   8.688   3.270
62463W        W30857  20.098  11.171  13.438
62464W        W30858  11.671  22.179   2.464
62465W        W30859  26.427  20.974  12.595
62466W        W30860  25.617  20.275   3.810
62467W        W30861  28.608   0.622  11.285
62468W        W30862  16.154   6.372  12.192
62469W        W30863  22.771  41.926   2.667
62470W        W30864  24.478  24.172  13.462
62471W        W30865  26.764  20.000  14.456
62472W        W30866  38.447   4.611  13.506
62473W        W30867  42.881   1.243  12.080
62474W        W30868  23.189   3.561  11.770
62475W        W30869  30.362  31.589   2.322
62476W        W30870  39.878  43.865   3.289
62477W        W30871  26.105   0.852   4.070
62478W        W30872  25.962  12.764   1.788
62479W        W30873  26.644   9.845   0.285
62480W        W30874  22.804   9.399  11.601
62481W        W30875   2.370  17.211   4.761
62482W        W30876  30.125  33.074   1.352
62483W        W30877  17.086  36.420   0.337
62484W        W30878   4.038  18.241   4.546
62485W        W30879  30.613  35.090   0.285
62486W        W30880  32.532  25.839   1.270
62487W        W30881  15.579  25.034  12.177
62488W        W30882  23.803   5.347  10.694
62489W        W30883  10.079  41.011  14.899
62490W        W30884  10.707   1.406   3.720
62491W        W30885  23.129  41.760   2.081
62492W        W30886  34.347  39.515   2.440
62493W        W30887  24.979  23.714  12.877
62494W        W30888  38.384  39.116   2.716
62495W        W30889   1.775  19.287   0.374
62496W        W30890  14.567   4.324   1.734
62497W        W30891  31.096   0.242   1.432
62498W        W30892   8.248   9.845  11.028
62499W        W30893  31.136  28.134   0.868
62500W        W30894  33.009  36.110   0.345
62501W        W30895  20.647  44.536  11.771
62502W        W30896  19.730  10.152   4.188
62503W        W30897   4.878  25.409  12.373
62504W        W30898  16.824   9.117   2.411
62505W        W30899  33.588  11.548   4.160
62506W        W30900   2.641  35.466  11.905
62507W        W30901   2.329  19.080   3.283
62508W        W30902   2.785   7.105   0.801
62509W        W30903  43.468  16.365  13.457
62510W        W30904   0.013  39.551   2.308
62511W        W30905  26.398  24.179  10.736
62512W        W30906  10.132   1.187   2.384
62513W        W30907  38.558  29.409  13.470
62514W        W30908   1.021  30.130   4.178
62515W        W30909  29.991  17.572   2.253
62516W        W30910  15.503  36.293   3.169
62517W        W30911  26.896  43.010   3.321
62518W        W30912  28.232  39.316   3.444
62519W        W30913  37.374  19.342   1.828
62520W        W30914  40.822  38.826  10.383
62521W        W30915   8.075  11.242   0.453
62522W        W30916  15.474   6.977  10.451
62523W        W30917  14.540   0.733  13.005
62524W        W30918  34.543   5.703   2.907
62525W        W30919  22.818  42.910   1.771
62526W        W30920  41.549  34.163  12.297
62527W        W30921  30.410  22.486   3.673
62528W        W30922   6.464  39.961   0.543
62529W        W30923  42.783  40.928   3.615
62530W        W30924   2.603  40.432  10.407
62531W        W30925  31.933  23.008   3.923
62532W        W30926   1.346  26.793   2.829
62533W        W30927  26.936  40.877  14.951
62534W        W30928  13.207  30.873  14.563
62535W        W30929  21.083  30.011  10.599
62536W        W30930  32.156  43.830  11.582
62537W        W30931  22.108  10.402   4.102
62538W        W30932  32.914   0.195   3.200
62539W        W30933  34.594  16.715   1.184
62540W        W30934  17.890  41.977  13.697
62541W        W30935  20.087  17.600  14.715
62542W        W30936  14.179   3.942  14.007
62543W        W30937  23.478  11.711   1.823
62544W        W30938  19.279  44.305  12.108
62545W        W30939  39.347  38.479   0.686
62546W        W30940  13.475   4.338   0.117
62547W        W30941  26.098  26.146  10.572
62548W        W30942  30.168  14.147   3.270
62549W        W30943  38.009  14.965   1.288
62550W        W30944  28.576  44.787   0.387
62551W        W30945  21.551   9.137   0.018
62552W        W30946   9.263  10.054  13.515
62553W        W30947   2.081  29.624  14.318
62554W        W30948  42.206   8.769   0.013
62555W        W30949  20.064  30.255  11.180
62556W        W30950  44.415   8.412   4.138
62557W        W30951  40.301  31.650  14.477
62558W        W30952  16.399  35.009   0.809
62559W        W30953  43.270  22.947   3.755
62560W        W30954   3.874   2.198   2.993
62561W        W30955  20.807  24.526  12.373
62562W        W30956  21.175  41.264  13.845
62563W        W30957   6.407   7.326  14.051
62564W        W30958  20.001  14.810  11.232
62565W        W30959  20.275  38.586   2.248
62566W        W30960  23.223  13.001   0.994
62567W        W30961  44.824  24.363   1.944
62568W        W30962  30.829  43.874  11.528
62569W        W30963  39.462  11.229  14.815
62570W        W30964  24.365  38.507  12.099
62571W        W30965  16.637  16.067  12.004
62572W        W30966   6.127  16.558   4.130
62573W        W30967   9.805  23.107  13.792
62574W        W30968  33.938  18.983   1.446
62575W        W30969  42.991  11.104   2.843
62576W        W30970  26.546  32.932  12.651
62577W        W30971   6.461   5.186   9.840
62578W        W30972  20.222   0.172  10.332
62579W        W30973  40.016   8.690   3.864
62580W        W30974   4.311   9.779   2.838
62581W        W30975  29.943  17.197  12.023
62582W        W30976   6.292  40.874  10.379
62583W        W30977  27.902  31.699  11.909
62584W        W30978  34.232  20.783   4.889
62585W        W30979  39.535  39.891  12.942
62586W        W30980  15.834  22.704   1.462
62587W        W30981  25.161   8.224  11.665
62588W        W30982  22.158  19.773  10.908
62589W        W30983  33.586   5.916   2.177
62590W        W30984  12.105  15.183  11.840
62591W        W30985  16.620  15.159   0.772
62592W        W30986  11.001  13.772  13.369
62593W        W30987  38.559   9.552  14.100
62594W        W30988   0.942  42.715   2.117
62595W        W30989   8.858  15.710   3.697
62596W        W30990  41.030  30.867  12.891
62597W        W30991   8.529   2.779  10.207
62598W        W30992   1.354  10.893  11.590
62599W        W30993  33.982   3.981  11.030
62600W        W30994   7.790   5.274  12.323
62601W        W30995  38.427  29.891   3.164
62602W        W30996   7.834  39.014   1.451
62603W        W30997  10.139  27.898   0.906
62604W        W30998  41.284  16.773   3.663
62605W        W30999  41.279   0.275   0.467
62606W        W31000   7.684   8.597   2.234
62607W        W31001   5.809  14.168   0.518
62608W        W31002  17.201  27.523  14.410
62609W        W31003   4.033   6.769  12.378
62610W        W31004  40.770  29.474   4.064
62611W        W31005   6.129  17.185  10.718
62612W        W31006  37.816   1.730   3.340
62613W        W31007  34.147  24.442  12.058
62614W        W31008  22.591  21.715  13.001
62615W        W31009  44.001  24.233  14.892
62616W        W31010  40.911  42.781  13.208
62617W        W31011  15.146  30.852  11.958
62618W        W31012   3.503  44.035  10.133
62619W        W31013  17.159  11.424  13.634
62620W        W31014  43.817  44.362   1.452
62621W        W31015  31.508  10.958   4.221
62622W        W31016  20.628  38.899   3.842
62623W        W31017  43.314  15.500  12.450
62624W        W31018  20.691  39.020  14.328
62625W        W31019  37.249  28.862   0.168
62626W        W31020  43.340  21.108  14.373
62627W        W31021  16.462   9.325  13.306
62628W        W31022  17.599  22.216   4.234
62629W        W31023   1.458  21.926  13.857
62630W        W31024  18.262   0.793  12.632
62631W        W31025  35.649  44.253   4.248
62632W        W31026  30.233  11.254  12.905
62633W        W31027  27.194  10.394  14.368
62634W        W31028  44.149  13.784  11.843
62635W        W31029   7.105  18.638  14.224
62636W        W31030  12.309  21.259  12.966
62637W        W31031   1.910   2.552   4.050
62638W        W31032  24.069  11.106   0.322
62639W        W31033  44.331  15.817   0.552
62640W        W31034  14.874   2.277   1.074
62641W        W31035  34.817  17.196   1.123
62642W        W31036  20.007  38.984   3.187
62643W        W31037  30.607  15.172   3.761
62644W        W31038  27.667  33.493  11.986
62645W        W31039   7.939   7.399   1.531
62646W        W31040  30.430  15.431   3.307
62647W        W31041  14.533  37.941   1.660
62648W        W31042  40.451  34.070  13.232
62649W        W31043  19.056  21.668  13.957
62650W        W31044  21.632  18.638  13.642
62651W        W31045  38.037  19.686   2.787
62652W        W31046  41.990  34.899  11.412
62653W        W31047   8.524   3.391   4.290
62654W        W31048   0.448   6.717  12.488
62655W        W31049   9.368  41.721  12.989
62656W        W31050   4.433   8.586  13.385
62657W        W31051   3.663  19.908  11.568
62658W        W31052  27.314  39.795  10.888
62659W        W31053  13.312  42.790  13.866
62660W        W31054   4.481  17.860   1.176
62661W        W31055  20.389  43.878   0.954
62662W        W31056  40.732  11.329   0.255
62663W        W31057  30.424  34.215   2.378
62664W        W31058  36.074  35.910   2.707
62665W        W31059  31.601  10.628  14.956
62666W        W31060  15.740  36.372   1.734
62667W        W31061  33.029  16.341   2.660
62668W        W31062   0.455  34.570   9.871
62669W        W31063  16.213  11.886  11.531
62670W        W31064  29.593  34.700   1.208
62671W        W31065  34.462  34.878  11.184
62672W        W31066   5.134  44.469   0.403
62673W        W31067  23.091  44.045   2.172
62674W        W31068   4.967  28.641  12.665
62675W        W31069  16.101  33.572  13.816
62676W        W31070  14.908  38.517   3.141
62677W        W31071   2.685   9.840  11.515
62678W        W31072   8.419  11.885  10.964
62679W        W31073  19.772   3.904   4.488
62680W        W31074  23.253   5.137  12.844
62681W        W31075  29.882  39.548  12.098
62682W        W31076  33.991  24.957   2.340
62683W        W31077   6.620   0.869   0.312
62684W        W31078  36.232  26.993   0.724
62685W        W31079   9.146  15.524   3.247
62686W        W31080  25.662  16.367   1.845
62687W        W31081  13.802  16.238  10.637
62688W        W31082  21.039  36.649  11.438
62689W        W31083  19.321  15.815   3.178
62690W        W31084  22.519  27.764   4.406
62691W        W31085  13.078  10.981  12.912
62692W        W31086  11.159  34.429  11.578
62693W        W31087  44.891  31.231  10.639
62694W        W31088   5.705  20.836  13.419
62695W        W31089   8.144  17.802  11.586
62696W        W31090  35.091  28.623   3.226
62697W        W31091  11.616  15.457   4.394
62698W        W31092  19.513  23.538   3.145
62699W        W31093   6.686  21.434   1.244
62700W        W31094  10.600  35.369  13.023
62701W        W31095  11.098  43.343  14.451
62702W        W31096  18.853  17.016  13.011
62703W        W31097  38.267  28.041  13.536
62704W        W31098   0.809  14.124   3.771
62705W        W31099  33.004  43.845  14.809
62706W        W31100  27.862  12.084   3.949
62707W        W31101  10.194  28.624   0.011
62708W        W31102  26.052  38.871   3.638
62709W        W31103  35.225  16.353  13.964
62710W        W31104  25.093  29.998  10.976
62711W        W31105  21.772  20.137   3.288
62712W        W31106   5.273  39.430   4.039
62713W        W31107   4.218  12.106   5.082
62714W        W31108   2.707  19.614   0.989
62715W        W31109  28.099  13.632   4.779
62716W        W31110   0.244  33.578  14.384
62717W        W31111  36.738  31.223  14.611
62718W        W31112  25.531   0.854   0.507
62719W        W31113  37.384   2.175  12.078
62720W        W31114  26.800  16.645   1.341
62721W        W31115   2.652  36.300  12.526
62722W        W31116   7.377  35.461  13.552
62723W        W31117  13.872   4.525  10.618
62724W        W31118  30.143  36.928   5.176
62725W        W31119  22.916  29.128   3.128
62726W        W31120  10.056   7.479   0.775
62727W        W31121  32.324  24.555   4.510
62728W        W31122  27.561   0.906  13.152
62729W        W31123   1.726  21.058   4.142
62730W        W31124   8.209   4.499  11.423
62731W        W31125   3.794  31.501  12.276
62732W        W31126   4.969  21.711  12.915
62733W        W31127  43.076  36.111   0.341
62734W        W31128  34.645  26.016   4.770
62735W        W31129   2.774  12.174  11.192
62736W        W31130  39.344   4.277  13.476
62737W        W31131  38.731  11.684   1.925
62738W        W31132  34.420  21.133   1.893
62739W        W31133  31.672  38.378   4.719
62740W        W31134  18.427   3.982  12.360
62741W        W31135  19.633  29.035   0.953
62742W        W31136  15.139   3.551   5.117
62743W        W31137  43.328  43.324   3.871
62744W        W31138  26.372  12.817   3.476
62745W        W31139  42.950  11.321   3.304
62746W        W31140  34.445  13.786   4.625
62747W        W31141  41.093  11.677   1.038
62748W        W31142  29.089  40.047   4.239
62749W        W31143  39.193  33.103   9.963
62750W        W31144  22.066   9.244  12.337
62751W        W31145  42.901  30.439  14.096
62752W        W31146   2.068  31.439   1.973
62753W        W31147  13.659  22.575   2.259
62754W        W31148  18.488  39.789  13.318
62755W        W31149  39.009   1.815  13.424
62756W        W31150  31.606  25.537   0.795
62757W        W31151  37.599  28.564  12.863
62758W        W31152   2.927  24.142  12.698
62759W        W31153  28.298   1.300   3.901
62760W        W31154  43.189  14.566  11.140
62761W        W31155  14.216  31.052   2.312
62762W        W31156  16.284  20.252   0.275
62763W        W31157  23.464  22.003  11.731
62764W        W31158  30.882  19.574   3.602
62765W        W31159  23.690  34.646   0.494
62766W        W31160   8.943  24.646   2.996
62767W        W31161   3.280  25.153   1.447
62768W        W31162  40.739  15.696   1.970
62769W        W31163  32.909  19.720  12.485
62770W        W31164  10.231  34.908   1.006
62771W        W31165  15.144   7.332  13.408
62772W        W31166  44.063   6.239  11.450
62773W        W31167   0.958   8.254   3.749
62774W        W31168   3.157  36.957  10.709
62775W        W31169  18.062  31.113   0.964
62776W        W31170  30.714  36.947   2.884
62777W        W31171   7.663  24.554  12.147
62778W        W31172  18.299  40.094   0.418
62779W        W31173  27.101  39.445   0.222
62780W        W31174  33.324  17.718   3.080
62781W        W31175  34.532  18.757   3.623
62782W        W31176   1.974  36.316   0.728
62783W        W31177  20.339   6.333  11.953
62784W        W31178  16.299   3.773   1.765
62785W        W31179  36.802  34.111   0.680
62786W        W31180   9.413  20.195   2.756
62787W        W31181  26.986  25.048  11.958
62788W        W31182  11.804   7.665  11.992
62789W        W31183  40.813  44.441   4.773
62790W        W31184  19.514  18.668  13.147
62791W        W31185  17.272  37.569  12.585
62792W        W31186  28.603   4.973  13.983
62793W        W31187  44.490  15.740   4.118
62794W        W31188   8.760  10.142  14.034
62795W        W31189   1.483  28.534   3.270
62796W        W31190  13.159  18.767   4.569
62797W        W31191  35.663   3.978  13.115
62798W        W31192   2.219  27.158   4.718
62799W        W31193  12.147  13.872  10.606
62800W        W31194   2.233   6.533   0.788
62801W        W31195   6.835  31.570   4.142
62802W        W31196  41.954   3.250   2.302
62803W        W31197   9.781  18.207   3.317
62804W        W31198  43.496  43.909  12.888
62805W        W31199  32.390  40.898   0.110
62806W        W31200  36.445   4.165  12.691
62807W        W31201   7.252   6.698  14.834
62808W        W31202  34.243   4.249  13.227
62809W        W31203  44.972  40.581   3.717
62810W        W31204  29.500  22.520   1.344
62811W        W31205   0.938  19.615  12.397
62812W        W31206  42.212  37.428   3.304
62813W        W31207  34.932   7.450  11.073
62814W        W31208  44.285   1.422   4.398
62815W        W31209  34.602  27.931  14.432
62816W        W31210   4.192  39.119   3.650
62817W        W31211  23.088  33.965   0.017
62818W        W31212  10.740  15.756  10.047
62819W        W31213  30.742  10.683   2.779
62820W        W31214  15.806  14.296   2.317
62821W        W31215   4.530   8.341  13.841
62822W        W31216  19.630  32.656  13.570
62823W        W31217  27.032   4.153  11.104
62824W        W31218  31.278   2.255  12.548
62825W        W31219   4.642  23.921  12.154
62826W        W31220  21.468  23.128  14.788
62827W        W31221  32.007   2.933  14.432
62828W        W31222  44.839  22.034  12.433
62829W        W31223   0.355  18.709   1.381
62830W        W31224   5.017  40.000  12.997
62831W        W31225  35.417  42.983  10.483
62832W        W31226  24.193   6.593  10.958
62833W        W31227  11.558  19.340   1.487
62834W        W31228  40.024  33.853  13.400
62835W        W31229  10.867  40.032   2.711
62836W        W31230  35.168  10.128  11.194
62837W        W31231  31.304  39.484   1.230
62838W        W31232   4.526   8.726   2.078
62839W        W31233  30.079  26.667  11.165
62840W        W31234  20.652  10.491   1.639
62841W        W31235  16.026  36.575  10.485
62842W        W31236  35.661   3.463  13.254
62843W        W31237  14.186   5.769  11.585
62844W        W31238  31.701  26.541   3.564
62845W        W31239   2.456  29.450   1.771
62846W        W31240   1.160  38.400  14.314
62847W        W31241  11.162  24.785  11.118
62848W        W31242  35.574  35.509  11.229
62849W        W31243   3.423  37.528   3.235
62850W        W31244  39.935  40.102   1.345
62851W        W31245  23.046  15.363  10.408
62852W        W31246  13.491  22.032  10.557
62853W        W31247  40.335   9.592   3.486
62854W        W31248  41.263  17.198   0.961
62855W        W31249  21.407  36.566  11.086
62856W        W31250  38.658  36.798   3.076
62857W        W31251  38.622  25.586  13.580
62858W        W31252  27.314  37.146   1.346
62859W        W31253  44.379  24.962   2.401
62860W        W31254  27.129   6.361   2.279
62861W        W31255  11.238  26.247  14.376
62862W        W31256   8.686  40.870   1.261
62863W        W31257   6.875  31.173   1.446
62864W        W31258  43.342  33.630  14.382
62865W        W31259  24.459  22.492  14.995
62866W        W31260  20.596  23.766  10.662
62867W        W31261  28.223  17.989   3.244
62868W        W31262  32.466  30.552  14.834
62869W        W31263  27.622   5.504   4.014
62870W        W31264  33.512   6.355   5.238
62871W        W31265  24.929  19.059  11.960
62872W        W31266  13.142   8.835   0.228
62873W        W31267   1.053  17.812   0.527
62874W        W31268  38.340  15.787   0.947
62875W        W31269  13.570  36.310  13.592
62876W        W31270   3.768  19.047   2.667
62877W        W31271  13.681   1.404   4.843
62878W        W31272  11.149  20.804   2.399
62879W        W31273  18.644  27.816  14.422
62880W        W31274  41.784  36.073  14.896
62881W        W31275   5.665  15.322   2.277
62882W        W31276  10.160  16.151   2.933
62883W        W31277   3.025  31.558   0.242
62884W        W31278  34.840  13.695  12.852
62885W        W31279   4.352  11.755   1.148
62886W        W31280  40.111  27.704   1.824
62887W        W31281   5.006  35.017   2.267
62888W        W31282   7.976   6.612  12.057
62889W        W31283  19.155   2.489  12.511
62890W        W31284   6.360  13.686  12.022
62891W        W31285  41.613  44.787  12.485
62892W        W31286  14.898  44.044   3.324
62893W        W31287  18.520  18.941  12.231
62894W        W31288  25.108   9.803   0.361
62895W        W31289  41.869  37.792   0.401
62896W        W31290   0.496  42.541   2.694
62897W        W31291  11.160   2.808  12.544
62898W        W31292  41.470   5.336   3.818
62899W        W31293   7.796   1.501   1.488
62900W        W31294  34.202  12.346  14.333
62901W        W31295   8.603  40.537   2.679
62902W        W31296  10.896   6.403  13.415
62903W        W31297  16.721   4.708   0.394
62904W        W31298  17.196  20.738   5.070
62905W        W31299   6.601  30.841   3.792
62906W        W31300   8.830  14.821  12.872
62907W        W31301  12.367  44.855  12.357
62908W        W31302  38.452  30.159   2.719
62909W        W31303   2.952  17.077  11.857
62910W        W31304  38.596   0.843   2.180
62911W        W31305  26.983  20.454  11.131
62912W        W31306  21.905  17.045   3.573
62913W        W31307  27.249  16.533   3.865
62914W        W31308  19.012  34.338   1.725
62915W        W31309  18.868   9.884   4.025
62916W        W31310   1.916   3.086  14.903
62917W        W31311  24.662  15.330  14.903
62918W        W31312   2.484  23.026   0.335
62919W        W31313  23.148  10.085   4.381
62920W        W31314  20.800   4.278  14.603
62921W        W31315   7.405  36.768   2.601
62922W        W31316   3.734  24.948   5.201
62923W        W31317  26.379   1.053   3.640
62924W        W31318  13.590  20.159   0.193
62925W        W31319  37.853  18.599   0.173
62926W        W31320   6.602  17.104   4.845
62927W        W31321  23.869  35.872   4.800
62928W        W31322  27.218  43.335   3.088
62929W        W31323  44.313   1.451  13.315
62930W        W31324  43.200  21.479  11.084
62931W        W31325  24.233  29.025   3.363
62932W        W31326  21.505  37.604  14.407
62933W        W31327   7.400  24.365   3.128
62934W        W31328   6.167   3.697   1.230
62935W        W31329  41.962  15.416   2.243
62936W        W31330  27.677   1.227   3.227
62937W        W31331  41.330  33.433   3.097
62938W        W31332  21.744  24.997  13.970
62939W        W31333  42.378   8.655   3.257
62940W        W31334  43.203   2.440   1.858
62941W        W31335  23.569  22.564   0.388
62942W        W31336  11.662  17.475   1.886
62943W        W31337   7.701  12.148  11.498
62944W        W31338  12.923  30.145   2.754
62945W        W31339  28.509  15.171   0.351
62946W        W31340  36.585  40.776   3.675
62947W        W31341  14.578  19.566  12.003
62948W        W31342  21.111  40.353   1.431
62949W        W31343  35.412  17.138  12.350
62950W        W31344  22.607  26.591  12.982
62951W        W31345  27.060   6.906  10.472
62952W        W31346   2.374  29.647   0.839
62953W        W31347  25.941  37.493  12.464
62954W        W31348   8.101  29.862  13.460
62955W        W31349   8.488  25.161   1.192
62956W        W31350  16.771  11.403  14.075
62957W        W31351  12.168  37.150  14.664
62958W        W31352  42.893  13.302   3.981
62959W        W31353  29.999  29.462   2.646
62960W        W31354  26.910  40.212   1.736
62961W        W31355   2.977  39.461   4.684
62962W        W31356  21.092  35.606   3.005
62963W        W31357  24.495  22.305   0.478
62964W        W31358  44.963  24.506   3.212
62965W        W31359   6.856  10.120  11.177
62966W        W31360  10.304   5.004   2.799
62967W        W31361  16.149  31.154  13.014
62968W        W31362  27.585   1.707   4.150
62969W        W31363   6.928   4.458   2.483
62970W        W31364   1.493  29.408  12.511
62971W        W31365  19.606  32.153   0.757
62972W        W31366   5.468  13.088  11.180
62973W        W31367  28.558  31.201  11.220
62974W        W31368   4.345  41.849  12.636
62975W        W31369  35.418  36.365  12.569
62976W        W31370  20.290  14.230  14.322
62977W        W31371  17.666  25.097  10.431
62978W        W31372  22.536  27.710  12.048
62979W        W31373   7.327  31.576   3.978
62980W        W31374  36.892   1.255  12.934
62981W        W31375  24.015  18.640   0.473
62982W        W31376   8.336   7.393  11.986
62983W        W31377  22.638   7.738   5.332
62984W        W31378  10.667  25.544   1.741
62985W        W31379  22.496  11.255   1.298
62986W        W31380  19.695   7.506   2.598
62987W        W31381  30.917   2.904   4.392
62988W        W31382  13.315  38.530   4.645
62989W        W31383  10.609  33.678  14.374
62990W        W31384  41.354   8.271   1.829
62991W        W31385  39.475   1.428   1.499
62992W        W31386  19.738  21.555   3.267
62993W        W31387  15.845  28.492  11.521
62994W        W31388  34.425  22.073   0.915
62995W        W31389   7.932  16.122  12.651
62996W        W31390  30.240  29.173   0.403
62997W        W31391  39.623  26.499   2.725
62998W        W31392  25.629  39.342  13.341
62999W        W31393  20.738  32.474   4.129
63000W        W31394   8.203  37.323  12.415
63001W        W31395  37.980  31.611   2.641
63002W        W31396  30.939  28.177  14.294
63003W        W31397   3.370  11.399  10.308
63004W        W31398  20.303   5.411  14.327
63005W        W31399   5.319  10.183   4.037
63006W        W31400  43.991   9.867   2.479
63007W        W31401  10.805  42.555   1.859
63008W        W31402   0.880  29.016  14.363
63009W        W31403  41.679   8.673  14.992
63010W        W31404   0.294  38.989  14.808
63011W        W31405  17.087  20.835   1.439
63012W        W31406   4.282  22.278  13.864
63013W        W31407  39.423   9.318  11.621
63014W        W31408  39.570   4.375   1.722
63015W        W31409  30.051  38.190  13.434
63016W        W31410  26.405  10.480  11.673
63017W        W31411  33.045   0.901  14.442
63018W        W31412  25.705  42.311  13.533
63019W        W31413  21.050  15.720  11.015
63020W        W31414  16.256  37.431   5.058
63021W        W31415   2.492  31.010   4.519
63022W        W31416   3.740  33.373   2.384
63023W        W31417  16.593  32.826  13.346
63024W        W31418  43.294   1.845   3.262
63025W        W31419  30.357   1.815  14.867
63026W        W31420  44.885   2.951  14.547
63027W        W31421  20.681  41.183  14.549
63028W        W31422  24.011  31.058   4.529
63029W        W31423  11.137  20.476  12.850
63030W        W31424   3.601  13.422  13.199
63031W        W31425   3.430  30.985   0.251
63032W        W31426  11.592  13.402  11.638
63033W        W31427  33.101  30.866   0.290
63034W        W31428  41.753  27.217   0.457
63035W        W31429  12.392  30.864   2.977
63036W        W31430  38.163  39.680   0.643
63037W        W31431  42.586  18.193   4.357
63038W        W31432  25.585   3.093   1.052
63039W        W31433  21.260  34.151  12.475
63040W        W31434  22.265   9.765  12.365
63041W        W31435  41.326  32.048  13.333
63042W        W31436  39.378   9.845  12.547
63043W        W31437  40.906  15.001  14.368
63044W        W31438  13.603  27.744  14.988
63045W        W31439  15.143  20.937   3.821
63046W        W31440  10.968  39.417   0.870
63047W        W31441  32.118  33.389  14.003
63048W        W31442   5.280  33.429  12.691
63049W        W31443  31.443  20.959   0.600
63050W        W31444  36.091   5.674   1.927
63051W        W31445  25.270   5.593   0.249
63052W        W31446   0.125  11.751  12.525
63053W        W31447  34.203  25.063  11.045
63054W        W31448   2.936  41.791   4.111
63055W        W31449  40.996  29.400  11.592
63056W        W31450  28.944  27.676   2.370
63057W        W31451  30.401  37.499   1.758
63058W        W31452  13.732   6.411   0.241
63059W        W31453  16.535  16.039   4.677
63060W        W31454  13.046  23.116   0.323
63061W        W31455  27.109  25.597   1.927
63062W        W31456   3.249  35.570  10.936
63063W        W31457   7.819  27.643   0.485
63064W        W31458   0.419  22.419   3.720
63065W        W31459  41.721  42.350   3.772
63066W        W31460  44.837  25.067  10.648
63067W        W31461   3.482   1.743   0.895
63068W        W31462  40.575  44.787  12.440
63069W        W31463  39.914  15.235   3.417
63070W        W31464  28.732   4.976  14.872
63071W        W31465  25.950  31.010   1.861
63072W        W31466   2.316  21.186  11.272
63073W        W31467  10.108  19.392  12.858
63074W        W31468  44.239  30.128  11.163
63075W        W31469  44.477  39.900   3.168
63076W        W31470   5.433  34.084   0.263
63077W        W31471  16.916   6.021   1.321
63078W        W31472   1.946  13.632  13.816
63079W        W31473  30.438   9.440   4.023
63080W        W31474   9.227  34.491  10.802
63081W        W31475  36.296   8.187  12.242
63082W        W31476  38.337  35.072  11.073
63083W        W31477  12.764  10.659  14.056
63084W        W31478  41.750  26.236  11.042
63085W        W31479  13.884  18.335   2.338
63086W        W31480   5.871  35.533  10.378
63087W        W31481  11.903  38.893  11.042
63088W        W31482  21.104  22.712  12.897
63089W        W31483   7.177  18.548   1.176
63090W        W31484  33.072  28.107   2.121
63091W        W31485  17.888  44.470   2.761
63092W        W31486  26.229  29.861   3.502
63093W        W31487  26.231   5.416  13.044
63094W        W31488  18.069  35.948  12.873
63095W        W31489  33.600  42.900   1.034
63096W        W31490  26.077  24.129   3.683
63097W        W31491  28.489  32.778  10.763
63098W        W31492  30.867  21.641  10.983
63099W        W31493  32.983   5.350  10.605
63100W        W31494   6.883  33.937  13.993
63101W        W31495  13.362   2.169  11.509
63102W        W31496  30.905  28.611   1.167
63103W        W31497  35.189  43.307  12.965
63104W        W31498   8.170   9.307   2.345
63105W        W31499  40.260  33.983   2.871
63106W        W31500   0.285  32.015   0.064
63107W        W31501   3.253  20.307   2.726
63108W        W31502  17.344  35.935  11.085
63109W        W31503  18.896  25.996   2.604
63110W        W31504  31.158  36.915  12.490
63111W        W31505  32.874  30.748   4.971
63112W        W31506   3.915  23.162   0.638
63113W        W31507  19.771  25.552   4.267
63114W        W31508  41.397  23.482  10.655
63115W        W31509   5.671   0.480  12.379
63116W        W31510  42.382  13.177   3.210
63117W        W31511   9.052  36.547  14.431
63118W        W31512  17.194  25.684   1.393
63119W        W31513  26.990  34.528   1.855
63120W        W31514  42.769  17.285   1.897
63121W        W31515  33.161  11.882  11.144
63122W        W31516  25.989  27.441  10.680
63123W        W31517  44.269  11.181   2.133
63124W        W31518   7.210  26.539   0.485
63125W        W31519  29.333  23.201  11.205
63126W        W31520   9.852  14.392  14.480
63127W        W31521  39.493  15.779   2.869
63128W        W31522  10.886  32.702   0.606
63129W        W31523  36.883   6.822  10.987
63130W        W31524  42.860  33.081   2.772
63131W        W31525  31.161  32.972   2.150
63132W        W31526  41.936  18.352   1.886
63133W        W31527  38.839  42.035   2.208
63134W        W31528  28.636   8.573  13.451
63135W        W31529  13.443   3.313   1.397
63136W        W31530  22.797  12.817   4.285
63137W        W31531  29.123  40.033  14.114
63138W        W31532  19.034  28.884   3.237
63139W        W31533  39.364  43.435   5.006
63140W        W31534   0.624  37.365   9.702
63141W        W31535   9.604  38.135   0.120
63142W        W31536  29.888   4.970   4.954
63143W        W31537   5.407  39.121   2.538
63144W        W31538  41.254   3.957  12.810
63145W        W31539  15.268  25.013   3.494
63146W        W31540  12.327  20.240   4.215
63147W        W31541   6.916  41.981   2.943
63148W        W31542  44.892  37.510   2.635
63149W        W31543  39.997  41.554  13.749
63150W        W31544  36.110   2.486  12.476
63151W        W31545  31.345  13.813  14.457
63152W        W31546  44.789  41.768  10.779
63153W        W31547  34.472  16.174  13.002
63154W        W31548   0.970  35.597  12.039
63155W        W31549  43.084  42.806  12.420
63156W        W31550  40.527  38.059  10.769
63157W        W31551  27.635  14.315  13.459
63158W        W31552  37.429  22.170   0.260
63159W        W31553  27.642  33.354  14.855
63160W        W31554  32.377   0.420   0.442
63161W        W31555  37.551  27.493  11.064
63162W        W31556   3.469   5.432   3.154
63163W        W31557  28.583  13.072   1.327
63164W        W31558  41.083  41.257  14.997
63165W        W31559  25.179  44.026  11.978
63166W        W31560   5.941  15.821   1.321
63167W        W31561   7.399  39.608  11.556
63168W        W31562  17.690   1.900   2.890
63169W        W31563  43.980  14.083   1.087
63170W        W31564  31.362  12.184  13.943
63171W        W31565  42.899   5.645   1.928
63172W        W31566  27.511  36.121   3.664
63173W        W31567  34.614  22.277  14.665
63174W        W31568  30.963  10.112   1.366
63175W        W31569   7.643  12.163  10.637
63176W        W31570  31.998  41.019   4.557
63177W        W31571  32.123  39.205  11.233
63178W        W31572   9.862  11.487  13.214
63179W        W31573  11.404  14.561   2.164
63180W        W31574  30.013  42.500  13.978
63181W        W31575   2.295  37.299   2.333
63182W        W31576   8.740  33.625   2.672
63183W        W31577  25.294  20.213   3.061
63184W        W31578  21.965  28.096  10.171
63185W        W31579   5.293   5.353  12.502
63186W        W31580   2.989  39.252  13.954
63187W        W31581  18.862  32.889   3.378
63188W        W31582   3.194   5.916  11.936
63189W        W31583  29.929  20.758   0.187
63190W        W31584  32.438  34.032   1.891
63191W        W31585  33.584  29.220  11.100
63192W        W31586  27.498  39.347  13.621
63193W        W31587  33.554  36.968   2.690
63194W        W31588  18.111   6.255   1.190
63195W        W31589  18.166  39.488  12.388
63196W        W31590  15.245   3.685   1.439
63197W        W31591  18.270  36.525  12.264
63198W        W31592  10.104   6.606  13.226
63199W        W31593   8.763  42.762  11.514
63200W        W31594  18.244   3.355   1.471
63201W        W31595  23.448  13.857   2.301
63202W        W31596  13.944   8.831   1.350
63203W        W31597  22.714  42.838  12.971
63204W        W31598  41.048   0.709   1.235
63205W        W31599  18.706   8.927  12.979
63206W        W31600  30.107  44.041  13.912
63207W        W31601  22.146  18.650   4.070
63208W        W31602  43.762  14.655   2.393
63209W        W31603   9.302  22.215  12.793
63210W        W31604  43.820   6.690   1.726
63211W        W31605   7.451  42.736  11.107
63212W        W31606   2.450  14.322  14.937
63213W        W31607  22.181  24.679  12.556
63214W        W31608   2.293  28.558   3.146
63215W        W31609  15.997  23.511  11.543
63216W        W31610   7.635  19.307  14.037
63217W        W31611  13.877   4.045  10.406
63218W        W31612  21.731  14.099  10.703
63219W        W31613   0.240   2.123   2.607
63220W        W31614   3.016  44.994  13.295
63221W        W31615  34.445   4.967  12.061
63222W        W31616  16.786   3.399  12.905
63223W        W31617   8.937  39.967   0.867
63224W        W31618   6.548   2.276  12.536
63225W        W31619  15.188  10.884   3.635
63226W        W31620  11.613   5.246   3.830
63227W        W31621  12.767  24.264   4.676
63228W        W31622  13.196  24.002  11.867
63229W        W31623  23.508  32.204  13.842
63230W        W31624  44.246   4.854  14.468
63231W        W31625  15.679  26.529  13.547
63232W        W31626  20.587  36.062  13.140
63233W        W31627  16.772   4.214   0.176
63234W        W31628  43.712   0.803  11.567
63235W        W31629  21.509  21.655   3.633
63236W        W31630  44.027  39.580  13.048
63237W        W31631   5.938   2.704   3.705
63238W        W31632  23.727   3.326   3.574
63239W        W31633  26.664  40.515   1.342
63240W        W31634  30.047  32.403   2.513
63241W        W31635  20.622  17.580   1.409
63242W        W31636  30.533   2.405  13.070
63243W        W31637  31.158  13.626  12.113
63244W        W31638   5.162  41.525   1.835
63245W        W31639  44.996  10.466  12.464
63246W        W31640  24.546  23.501   2.873
63247W        W31641  14.584   7.286   2.637
63248W        W31642  11.690   4.889   0.378
63249W        W31643  32.093  22.569  11.626
63250W        W31644  13.763  14.850  14.991
63251W        W31645  28.736  27.527   4.657
63252W        W31646  17.282  43.149   4.807
63253W        W31647   3.529   9.992  11.273
63254W        W31648   6.759   2.367   4.076
63255W        W31649  30.820  26.968  13.853
63256W        W31650  36.143  19.777   3.674
63257W        W31651  18.744  42.200  14.293
63258W        W31652   2.963  44.826   1.979
63259W        W31653  24.935  36.388   0.484
63260W        W31654   8.270  38.608  11.194
63261W        W31655  13.753  41.996   2.251
63262W        W31656  39.340  33.950   1.826
63263W        W31657  12.649   3.470  14.925
63264W        W31658   3.000  25.698  11.973
63265W        W31659  32.691   6.873  11.996
63266W        W31660   5.130   8.485   1.839
63267W        W31661  33.377   1.795  13.086
63268W        W31662  43.269  18.294   2.290
63269W        W31663  29.734  38.454  10.737
63270W        W31664  13.709  18.793  11.638
63271W        W31665  36.515  25.683  11.040
63272W        W31666  43.836  32.621  11.897
63273W        W31667  37.644   5.352  13.270
63274W        W31668  31.409  19.617  13.105
63275W        W31669  21.280  31.045   1.800
63276W        W31670  44.248  43.415   2.316
63277W        W31671  44.209   6.792   1.336
63278W        W31672  32.867   1.720  12.996
63279W        W31673   6.951   1.524   0.815
63280W        W31674  25.784  24.742   3.633
63281W        W31675  34.392  16.580   3.644
63282W        W31676   3.977  17.809   1.791
63283W        W31677  25.278  15.325  14.263
63284W        W31678  24.165   9.082   2.121
63285W        W31679   2.339   5.032  13.891
63286W        W31680  22.123  10.635   3.632
63287W        W31681  44.527  41.751   2.208
63288W        W31682  11.091  39.934  14.408
63289W        W31683  11.647  23.653  13.693
63290W        W31684   9.155  21.019  13.402
63291W        W31685  36.819  11.608  12.971
63292W        W31686  43.290  29.391  13.843
63293W        W31687  44.495  32.460   1.934
63294W        W31688   6.899  29.050   0.392
63295W        W31689  29.613  39.459  14.537
63296W        W31690  29.597  26.305  10.352
63297W        W31691   4.521   5.893  11.418
63298W        W31692   3.312   7.300  14.397
63299W        W31693  16.854   3.376   1.293
63300W        W31694  22.779   0.530   0.331
63301W        W31695   2.410  22.174  12.191
63302W        W31696  18.142  22.762   3.353
63303W        W31697  21.541  38.569   4.497
63304W        W31698  33.990  41.784   3.238
63305W        W31699   4.355   7.717  12.973
63306W        W31700   6.216  22.756  12.044
63307W        W31701  10.830  18.011   3.844
63308W        W31702  37.613   6.960  11.022
63309W        W31703  23.151  27.075   2.201
63310W        W31704  39.055  11.833   4.634
63311W        W31705  25.395  39.489  12.821
63312W        W31706   8.459  24.635  11.712
63313W        W31707   8.845  43.715  12.656
63314W        W31708  40.864   7.719   4.274
63315W        W31709  43.483  11.903   3.626
63316W        W31710   9.479   8.869   4.909
63317W        W31711   8.647  24.150  12.486
63318W        W31712  27.954   9.649   2.587
63319W        W31713   1.437  24.132   4.619
63320W        W31714   3.320  10.115  14.443
63321W        W31715  21.461  32.408  12.197
63322W        W31716  29.127  24.228   4.515
63323W        W31717  36.998   5.693  14.897
63324W        W31718  39.105  34.648  11.970
63325W        W31719   6.944  10.842  14.730
63326W        W31720   4.375   5.146  12.968
63327W        W31721  19.848  25.137   0.908
63328W        W31722   2.347  17.156  12.431
63329W        W31723   2.835  34.188  11.193
63330W        W31724  35.270  11.090  13.644
63331W        W31725  24.537  32.437  11.529
63332W        W31726  44.237  10.232  12.036
63333W        W31727   7.584  34.001   1.126
63334W        W31728  38.248  17.785   2.162
63335W        W31729  13.017  35.754  14.344
63336W        W31730  11.196  23.076   3.355
63337W        W31731  28.204  17.045   1.762
63338W        W31732  18.119  36.048   4.148
63339W        W31733  26.187   1.327  10.565
63340W        W31734  27.782  38.955  14.475
63341W        W31735  40.887  19.703   1.411
63342W        W31736  34.174   1.913  11.615
63343W        W31737  10.134  30.014  12.456
63344W        W31738  38.016   0.477   2.461
63345W        W31739  44.234   7.928   4.211
63346W        W31740  30.298   8.628  10.734
63347W        W31741  26.673   6.695   0.702
63348W        W31742  12.356  23.157  13.583
63349W        W31743  22.217  15.828  13.814
63350W        W31744  43.494  28.566  10.974
63351W        W31745  32.438   1.209   4.708
63352W        W31746  37.525  23.355   0.035
63353W        W31747  33.584  36.847   1.932
63354W        W31748  13.701  26.032   1.387
63355W        W31749  26.517   5.961   2.239
63356W        W31750   8.202   6.984  13.745
63357W        W31751  15.840  42.498  14.346
63358W        W31752  21.681  17.483   3.714
63359W        W31753  30.725  22.067   2.354
63360W        W31754  25.254  39.759   3.144
63361W        W31755   6.784  20.661  13.279
63362W        W31756  17.091  26.589  12.185
63363W        W31757  11.644  42.242   1.950
63364W        W31758  41.735  24.896   3.318
63365W        W31759  16.026  10.173  10.192
63366W        W31760   0.952  23.754  14.298
63367W        W31761   3.272  42.311   0.617
63368W        W31762   4.201   3.304  13.044
63369W        W31763  13.699  32.238   4.283
63370W        W31764  41.458  42.325  10.685
63371W        W31765  20.121  39.015   3.695
63372W        W31766  19.130   5.839  10.555
63373W        W31767  22.609  42.376   2.460
63374W        W31768  40.987  23.063  12.034
63375W        W31769   1.378  41.250   2.375
63376W        W31770  10.493  13.232  10.597
63377W        W31771  10.295  35.106   1.490
63378W        W31772  35.856  18.170   3.832
63379W        W31773  17.057  28.267   4.085
63380W        W31774  29.238   4.677  10.802
63381W        W31775  12.632   5.177  12.892
63382W        W31776  11.115  16.729  11.373
63383W        W31777   0.823  44.679   2.320
63384W        W31778  44.080   1.776   0.341
63385W        W31779   2.985  20.073   4.995
63386W        W31780   3.737  37.686  12.029
63387W        W31781  35.321   3.358   2.930
63388W        W31782  35.443  25.250  11.918
63389W        W31783   1.290  22.254   3.117
63390W        W31784  25.611   8.710  10.726
63391W        W31785  23.764  19.642   1.937
63392W        W31786   3.709  25.003   1.246
63393W        W31787  40.509  25.739  10.865
63394W        W31788   3.344  12.156  13.438
63395W        W31789  19.034   5.745  12.854
63396W        W31790  19.491  30.681  12.444
63397W        W31791  11.204   3.470   4.143
63398W        W31792  11.122  12.212  13.444
63399W        W31793  15.373  17.303  12.634
63400W        W31794  33.588  21.851  10.018
63401W        W31795  19.408  16.085  10.611
63402W        W31796  36.892  35.081   0.961
63403W        W31797  20.533  29.459   0.235
63404W        W31798  30.701  12.140   1.877
63405W        W31799  12.601   0.454   3.585
63406W        W31800  13.049  19.588  13.129
63407W        W31801  32.528  33.056  14.212
63408W        W31802  17.718  38.590  14.760
63409W        W31803  27.055   0.974  13.375
63410W        W31804  36.537  20.719  11.523
63411W        W31805  29.453  43.034   3.181
63412W        W31806  12.091  42.011   0.973
63413W        W31807  44.758  10.663  13.733
63414W        W31808  25.636   2.311   0.458
63415W        W31809  12.280  31.779   3.845
63416W        W31810   4.266  22.017  10.551
63417W        W31811  31.828   4.671  12.836
63418W        W31812  18.109  23.497  11.131
63419W        W31813  10.103  24.736   2.030
63420W        W31814  38.104  11.834  12.537
63421W        W31815   5.379   5.347  13.040
63422W        W31816  11.676  22.228  12.122
63423W        W31817   2.838   9.607   3.676
63424W        W31818  12.727  34.230  14.715
63425W        W31819   7.379  12.375   3.142
63426W        W31820  16.225  31.448  13.438
63427W        W31821  23.191  13.109   1.501
63428W        W31822   9.335  13.053  14.370
63429W        W31823  29.312  15.413  14.738
63430W        W31824  21.672   3.331  14.949
63431W        W31825  39.703  38.540  14.717
63432W        W31826  40.201  26.501   4.057
63433W        W31827   5.177  10.710   3.210
63434W        W31828  18.679  24.184  12.882
63435W        W31829  43.481   4.700   1.224
63436W        W31830  10.194  14.607  12.571
63437W        W31831  13.723  12.345  10.612
63438W        W31832  32.249  33.901  11.628
63439W        W31833  30.164  31.014   4.382
63440W        W31834  13.166  21.430  12.902
63441W        W31835  43.896  21.023  10.973
63442W        W31836   1.056  12.306  10.590
63443W        W31837   7.615  21.140   0.087
63444W        W31838  23.426   2.817  13.535
63445W        W31839  32.435  34.535   1.731
63446W        W31840  13.788   4.548  14.724
63447W        W31841  32.401  17.241   4.279
63448W        W31842  37.234  22.099  13.235
63449W        W31843  33.347  26.259   0.490
63450W        W31844  28.651  34.651  12.937
63451W        W31845  34.494   3.272   4.872
63452W        W31846   1.632   6.942  10.436
63453W        W31847   5.415  35.954   3.173
63454W        W31848  39.904  20.151   2.045
63455W        W31849  39.550  13.772   0.389
63456W        W31850   5.691  24.758  13.793
63457W        W31851  21.521  13.271  11.937
63458W        W31852  29.458  10.147  11.538
63459W        W31853   7.933  16.855   1.117
63460W        W31854  31.574  41.497  10.617
63461W        W31855  30.097  38.955   2.839
63462W        W31856  27.917  31.505  11.267
63463W        W31857  27.459  25.999  13.843
63464W        W31858   2.510  33.106   2.933
63465W        W31859  41.018  36.836  12.431
63466W        W31860   6.199  42.268  11.427
63467W        W31861  12.050  24.451  11.282
63468W        W31862  11.780  11.417   4.560
63469W        W31863  40.509   8.259   1.391
63470W        W31864   8.683  33.112  10.509
63471W        W31865  34.963  42.876  10.716
63472W        W31866  20.947  34.445   4.126
63473W        W31867  16.355  35.924   4.663
63474W        W31868  35.613   8.883   2.278
63475W        W31869  41.350  35.067   2.845
63476W        W31870  39.766   6.862  12.774
63477W        W31871  15.130   1.457   1.390
63478W        W31872  40.476   5.985  12.134
63479W        W31873  14.618  40.541   1.296
63480W        W31874  21.738   9.352  14.583
63481W        W31875   3.149  35.938  11.758
63482W        W31876  17.047  32.555   1.241
63483W        W31877   2.413  19.780   2.898
63484W        W31878  23.018  42.782   4.683
63485W        W31879  12.874  28.244  14.399
63486W        W31880  35.022   1.262  11.593
63487W        W31881  13.325  20.981   3.644
63488W        W31882   2.214  17.947  14.209
63489W        W31883  29.886   8.236  14.230
63490W        W31884  30.383  38.785   1.262
63491W        W31885  37.583  25.828  13.774
63492W        W31886  40.154  14.042  13.020
63493W        W31887   0.792  42.911   4.173
63494W        W31888  10.860  31.183  13.507
63495W        W31889  18.325  21.036   4.106
63496W        W31890  22.888  17.677  13.853
63497W        W31891  26.110   9.699   0.371
63498W        W31892  41.042  35.631   3.352
63499W        W31893  42.755  10.215   3.636
63500W        W31894   4.865  44.937  14.701
63501W        W31895  13.253  37.377   1.380
63502W        W31896   4.883  24.021  13.879
63503W        W31897  21.472  38.122  10.610
63504W        W31898  16.723   4.452  14.272
63505W        W31899  17.756  14.155  11.227
63506W        W31900  42.975  26.559   0.510
63507W        W31901  12.345   9.174  10.509
63508W        W31902   9.149   1.092  14.253
63509W        W31903  31.414  30.251  13.502
63510W        W31904  18.200  27.877   2.126
63511W        W31905  25.613  21.191   2.016
63512W        W31906  24.295  15.813  12.547
63513W        W31907  13.116   2.927   0.962
63514W        W31908  15.510   7.744  13.476
63515W        W31909  21.575  16.573  14.482
63516W        W31910  31.159   3.333   0.858
63517W        W31911  38.746  29.968  13.875
63518W        W31912   3.486   8.438   4.637
63519W        W31913  28.080  13.885   0.146
63520W        W31914   2.680  34.474   4.087
63521W        W31915  43.847  21.557   2.860
63522W        W31916  34.366  44.864  14.957
63523W        W31917  13.746  34.581   3.589
63524W        W31918   4.682  41.915  14.410
63525W        W31919  42.446  40.843  14.553
63526W        W31920   0.424  27.496   3.156
63527W        W31921   0.339  11.764  14.227
63528W        W31922   5.662  27.503  10.988
63529W        W31923  44.486  19.836   4.356
63530W        W31924   7.194   1.777   4.202
63531W        W31925  35.160  36.050  10.559
63532W        W31926  25.288  11.837   0.045
63533W        W31927  35.407  42.621  11.471
63534W        W31928   4.767   3.226   1.262
63535W        W31929  12.528   2.759  11.821
63536W        W31930  43.938   9.298  10.670
63537W        W31931  12.326  15.800  14.033
63538W        W31932  36.496   1.292  13.946
63539W        W31933  11.698   6.257   0.762
63540W        W31934  12.658  36.335  10.790
63541W        W31935   5.693   2.776  11.530
63542W        W31936  17.965   4.910   0.307
63543W        W31937   4.224   5.822   4.520
63544W        W31938  41.826  10.632  13.969
63545W        W31939  29.427  42.858  12.085
63546W        W31940  11.632   4.302  13.909
63547W        W31941  21.437  44.982  12.910
63548W        W31942  43.804  29.106   2.881
63549W        W31943  34.059  18.532   3.720
63550W        W31944  36.218  32.391  13.315
63551W        W31945  11.009   5.894   1.679
63552W        W31946  33.068  32.423   0.767
63553W        W31947  37.106  19.193  11.654
63554W        W31948  28.240   3.440  14.251
63555W        W31949   8.817  24.081  11.142
63556W        W31950  29.461   2.069   3.726
63557W        W31951  13.873  34.989  14.590
63558W        W31952  13.691  13.797   4.918
63559W        W31953  25.018  38.120   3.737
63560W        W31954  32.125  38.396   3.367
63561W        W31955  16.555  29.632   0.438
63562W        W31956  13.114  27.086   1.776
63563W        W31957   6.851  10.393   2.906
63564W        W31958   4.281   7.801  11.155
63565W        W31959   7.567   2.440   4.961
63566W        W31960   5.198  36.356   0.492
63567W        W31961  24.161  32.371   4.035
63568W        W31962  11.907  43.246  13.376
63569W        W31963   4.814  21.751   4.071
63570W        W31964  24.786  31.702  13.485
63571W        W31965   6.001  40.024   0.345
63572W        W31966  22.122  30.439  11.670
63573W        W31967  19.880  36.731   3.161
63574W        W31968  21.672  44.037  11.540
63575W        W31969   7.267  19.868  11.022
63576W        W31970  12.738   6.094  12.482
63577W        W31971  24.088  11.828  12.103
63578W        W31972  21.912   0.835   1.727
63579W        W31973   7.822  34.421   1.861
63580W        W31974   5.745  44.061   0.389
63581W        W31975  37.933   7.678   4.614
63582W        W31976  20.781   0.452   4.124
63583W        W31977  20.821  30.553   2.632
63584W        W31978  29.406  22.419   2.175
63585W        W31979   8.741  32.399  14.400
63586W        W31980   4.452  17.117  10.893
63587W        W31981  44.029  19.813   4.652
63588W        W31982  21.731  40.046  11.826
63589W        W31983   0.222  28.870   0.144
63590W        W31984  12.345  21.077  11.979
63591W        W31985  21.182  38.905   4.175
63592W        W31986  23.273   2.850   2.186
63593W        W31987  28.068   2.951  13.026
63594W        W31988  14.667  27.500   4.326
63595W        W31989  38.299  13.664   3.232
63596W        W31990  44.014   1.811   3.830
63597W        W31991  18.890  12.122   3.264
63598W        W31992  34.542  44.084   1.064
63599W        W31993  31.678  26.057  11.370
63600W        W31994  42.018  16.042  11.460
63601W        W31995  33.952  16.273  13.096
63602W        W31996  33.432   6.207  11.683
63603W        W31997  22.261   4.358  10.658
63604W        W31998  32.468  20.655   1.468
63605W        W31999  10.623  19.525   1.016
63606W        W32000  44.385   2.057  12.448
63607W        W32001   5.621  41.279   4.919
63608W        W32002   0.688  31.187   2.006
63609W        W32003   4.187  20.604   0.481
63610W        W32004  24.879  44.957   3.472
63611W        W32005  17.748   4.708  12.452
63612W        W32006  44.576  43.611   3.261
63613W        W32007  38.583  21.603   2.283
63614W        W32008  14.313  12.206  14.531
63615W        W32009   4.238   7.269   0.356
63616W        W32010   1.901  15.758   4.589
63617W        W32011   8.987   6.805  13.045
63618W        W32012  33.328  21.032  12.057
63619W        W32013  36.364  20.961   1.708
63620W        W32014  32.036  33.790   1.279
63621W        W32015  12.063  30.151   3.672
63622W        W32016  10.432  17.771   2.266
63623W        W32017  12.259  43.279   4.366
63624W        W32018  19.836  33.698   3.352
63625W        W32019  12.145  40.934  12.787
63626W        W32020  19.591  28.115  12.626
63627W        W32021  42.693   5.311   1.525
63628W        W32022  21.739  28.584  11.504
63629W        W32023  34.467   1.454   3.661
63630W        W32024  44.278   2.209  13.915
63631W        W32025  28.650  27.948  12.121
63632W        W32026  39.607   1.524  11.438
63633W        W32027  34.088  43.961  14.974
63634W        W32028  20.097  14.946   5.446
63635W        W32029  44.701  30.813   3.691
63636W        W32030   9.416   9.339   0.539
63637W        W32031  30.701   4.801  14.991
63638W        W32032  33.425  15.329   1.005
63639W        W32033  24.540  27.599  13.505
63640W        W32034   0.708  21.198   0.046
63641W        W32035  16.329  33.011   1.593
63642W        W32036  32.064  38.733   4.209
63643W        W32037  38.643  14.087  10.677
63644W        W32038   0.110  21.449  13.437
63645W        W32039  12.170  20.801   0.696
63646W        W32040  37.487  44.886   0.845
63647W        W32041  27.326  29.628  12.460
63648W        W32042  41.247  44.734   0.827
63649W        W32043   5.934  39.964   1.392
63650W        W32044  37.779   9.912  11.540
63651W        W32045   3.359  40.923   4.546
63652W        W32046  26.579  44.674  13.201
63653W        W32047  30.344  16.276   4.927
63654W        W32048  14.575   4.771   4.875
63655W        W32049  11.882  33.486  12.492
63656W        W32050  42.126   8.955   1.958
63657W        W32051  20.474   7.947  13.544
63658W        W32052  18.399  20.179   3.269
63659W        W32053  19.156  12.443   4.965
63660W        W32054  31.663  41.173   1.553
63661W        W32055  37.455  23.490   4.156
63662W        W32056  38.092  44.403  10.725
63663W        W32057   2.403  34.356  14.223
63664W        W32058  29.020   0.950  13.018
63665W        W32059  37.784  29.097  14.330
63666W        W32060  18.652   0.771  11.812
63667W        W32061  21.483  14.091  11.146
63668W        W32062  30.889  34.108   2.759
63669W        W32063  28.976   8.877   1.765
63670W        W32064  32.732  42.300  14.698
63671W        W32065  33.999   4.763   2.082
63672W        W32066  21.687  13.245   2.287
63673W        W32067  40.194  23.090   2.786
63674W        W32068  14.665  34.785  14.044
63675W        W32069   2.292   0.530   3.271
63676W        W32070  26.056   6.212   3.269
63677W        W32071  38.430  39.265  14.865
63678W        W32072  28.920  15.551  11.188
63679W        W32073   5.570  36.112   2.250
63680W        W32074  15.655  11.780   1.381
63681W        W32075  32.232  36.931   1.789
63682W        W32076  14.196  27.355   3.428
63683W        W32077  41.838   3.005  10.656
63684W        W32078  35.118  22.549  13.834
63685W        W32079  17.768  37.784   1.924
63686W        W32080  14.340  31.090  12.407
63687W        W32081  36.546   0.235  14.465
63688W        W32082   7.410  29.638  14.848
63689W        W32083   2.150  25.664   0.836
63690W        W32084  25.342   5.011   2.420
63691W        W32085  32.945   5.675   3.701
63692W        W32086  18.288  21.066   2.268
63693W        W32087   7.277  32.838   1.839
63694W        W32088  23.561  29.842   4.252
63695W        W32089   1.630   9.880  11.563
63696W        W32090  41.730  20.241  13.490
63697W        W32091  41.007   1.490  14.952
63698W        W32092  29.234  29.494  13.964
63699W        W32093  37.661  24.219  14.765
63700W        W32094  23.960  32.842   4.647
63701W        W32095  25.719  14.655  13.872
63702W        W32096   0.760  22.194  10.628
63703W        W32097  35.022  23.577  14.875
63704W        W32098  16.363  10.794  10.942
63705W        W32099  17.239  18.698   4.401
63706W        W32100  26.023  23.650   3.928
63707W        W32101   3.116  13.288   5.792
63708W        W32102  22.213  24.278  13.424
63709W        W32103  14.788  26.080  12.919
63710W        W32104  35.935  43.970  13.735
63711W        W32105  24.222  22.741   2.860
63712W        W32106  25.588  24.546  10.574
63713W        W32107  31.022   8.160   2.576
63714W        W32108   2.407  22.691   0.777
63715W        W32109   3.638  29.335   4.912
63716W        W32110   2.017   4.468   4.280
63717W        W32111  31.394  28.053   2.153
63718W        W32112  18.814   5.563   1.220
63719W        W32113   7.397   4.631   2.296
63720W        W32114  27.248  37.732   1.683
63721W        W32115  39.864  36.113  12.940
63722W        W32116  24.434   2.278  14.727
63723W        W32117   0.771  35.324   4.685
63724W        W32118  22.127   1.579  12.477
63725W        W32119   9.078   4.182   3.501
63726W        W32120  31.862   6.896   3.700
63727W        W32121  30.248  22.047  13.027
63728W        W32122   6.708  16.093  14.997
63729W        W32123  32.068  41.778  13.429
63730W        W32124   2.900  40.357  11.261
63731W        W32125  12.930  19.287  11.496
63732W        W32126  22.927  19.704   3.116
63733W        W32127  21.117   0.826   1.159
63734W        W32128   8.253  23.589   4.123
63735W        W32129   9.162   9.191  12.029
63736W        W32130  22.365  41.400  14.489
63737W        W32131  36.001  34.178   4.690
63738W        W32132   8.857  42.194  12.535
63739W        W32133   9.002  29.602  14.807
63740W        W32134  24.472  10.627   2.778
63741W        W32135  26.501  31.208  12.006
63742W        W32136   4.770  22.743  10.878
63743W        W32137   0.757   9.795   0.513
63744W        W32138  12.825  24.976   0.820
63745W        W32139  38.007  38.468  14.342
63746W        W32140  16.812   8.295   2.232
63747W        W32141   6.784  20.624  13.792
63748W        W32142   6.816  16.719   2.270
63749W        W32143  34.475  13.596   4.136
63750W        W32144  22.569  37.007  13.379
63751W        W32145  40.878  44.129  10.755
63752W        W32146   3.951  18.605   1.350
63753W        W32147  17.745  24.761  12.587
63754W        W32148  16.194  26.595  13.566
63755W        W32149  25.620  29.316   9.887
63756W        W32150  43.475  16.996  14.402
63757W        W32151  27.451   2.906   1.147
63758W        W32152  11.494  41.339   3.183
63759W        W32153  10.670   8.540   3.756
63760W        W32154   7.619  20.342  12.608
63761W        W32155  29.443  35.133   1.458
63762W        W32156  38.577  21.681   4.938
63763W        W32157   8.795  15.849  11.770
63764W        W32158  12.569   0.885  13.897
63765W        W32159  14.582  13.775   0.112
63766W        W32160  41.131   3.326  12.162
63767W        W32161  25.970  36.485  12.679
63768W        W32162  13.847  15.705   2.261
63769W        W32163  38.559   3.781   4.665
63770W        W32164  31.017  10.803   3.660
63771W        W32165  24.549   3.747   2.809
63772W        W32166  23.636   5.382  14.436
63773W        W32167  14.612  10.138  14.308
63774W        W32168  30.884  36.777  11.155
63775W        W32169  29.939  25.618   3.270
63776W        W32170  16.526  25.119  14.313
63777W        W32171  16.640  29.218  12.365
63778W        W32172  18.299   5.364   0.918
63779W        W32173  36.908  23.973   2.896
63780W        W32174  30.675   2.928   3.408
63781W        W32175  32.438  40.226   2.545
63782W        W32176  26.236  39.414  11.517
63783W        W32177  42.594   3.787   4.677
63784W        W32178  32.959   9.150  14.858
63785W        W32179  23.048   0.244   4.865
63786W        W32180   5.400  32.188   1.549
63787W        W32181   9.807   2.859   2.190
63788W        W32182   4.794  26.388  10.693
63789W        W32183  18.678  42.563  14.791
63790W        W32184   9.707   7.703   3.904
63791W        W32185   0.177  43.512   3.963
63792W        W32186  38.400  25.384  14.017
63793W        W32187  28.214   5.356  13.935
63794W        W32188  11.810  44.876   4.720
63795W        W32189   3.848  38.916  11.179
63796W        W32190   6.231  15.149  11.613
63797W        W32191  34.474  13.680   3.221
63798W        W32192   6.858  33.058   4.047
63799W        W32193  42.482  27.103   0.939
63800W        W32194   4.839  35.509   2.446
63801W        W32195  31.342   1.863   0.813
63802W        W32196  38.739  14.221   2.164
63803W        W32197  37.162   0.343  13.105
63804W        W32198  26.557  28.463   3.646
63805W        W32199   3.319  30.805  14.311
63806W        W32200  33.104  20.973   4.585
63807W        W32201  33.070  30.107  11.967
63808W        W32202  42.540  34.114   1.749
63809W        W32203  14.210  23.287  11.639
63810W        W32204   3.105  40.758   4.108
63811W        W32205  14.741  11.088  14.611
63812W        W32206   1.018  11.180  14.351
63813W        W32207  36.355  42.586  10.758
63814W        W32208   6.450   3.956  14.049
63815W        W32209  44.295  43.367  13.867
63816W        W32210  24.881  37.815  14.077
63817W        W32211  24.736  34.150   4.268
63818W        W32212  24.357  32.521  14.722
63819W        W32213  36.290  25.968  12.456
63820W        W32214  15.498  27.980  11.035
63821W        W32215  21.004  37.757   1.468
63822W        W32216  38.084  13.553  10.968
63823W        W32217  25.933  24.991   1.683
63824W        W32218   3.939  11.192   2.708
63825W        W32219  10.156  29.255   2.686
63826W        W32220   7.479  33.635   4.644
63827W        W32221  22.579  42.338   2.975
63828W        W32222  39.635  37.083  10.592
63829W        W32223  17.606  33.073  10.435
63830W        W32224  19.560  25.472  12.937
63831W        W32225  35.039  42.749  14.300
63832W        W32226  20.730   7.496  13.698
63833W        W32227  22.502  25.738  14.003
63834W        W32228  11.348  13.417  14.393
63835W        W32229  22.831  15.093  13.499
63836W        W32230   1.326   0.455  11.048
63837W        W32231   7.423   7.224   3.228
63838W        W32232  44.024  14.942  11.045
63839W        W32233  32.963   4.579   3.123
63840W        W32234  10.582  36.397   0.316
63841W        W32235  36.920  34.078  10.374
63842W        W32236  16.200   1.563  11.011
63843W        W32237  35.497  26.371   2.932
63844W        W32238  36.919  12.732   4.704
63845W        W32239  22.113  22.128  13.610
63846W        W32240  42.037  31.194   1.519
63847W        W32241  25.043  15.571  14.669
63848W        W32242   9.601  14.004   0.866
63849W        W32243  24.453  32.193  14.327
63850W        W32244  14.502  13.265   4.999
63851W        W32245  11.964  31.266  14.306
63852W        W32246  22.274  31.123  14.811
63853W        W32247  27.705  24.644  12.025
63854W        W32248   7.848  30.635  11.347
63855W        W32249  13.236  37.111  14.804
63856W        W32250  26.920   0.422  12.521
63857W        W32251  34.928  42.473  13.846
63858W        W32252  20.125  42.384  14.942
63859W        W32253  14.292  33.891  12.564
63860W        W32254   8.778  29.183   1.332
63861W        W32255  17.965  10.285   0.146
63862W        W32256  37.410  36.612  13.011
63863W        W32257  14.112  30.086   2.705
63864W        W32258   0.852  14.953  13.562
63865W        W32259  44.906  18.771   1.136
63866W        W32260  23.802  13.365  13.885
63867W        W32261  33.612  32.633   4.234
63868W        W32262  38.801  37.729   2.769
63869W        W32263  24.183  37.345  12.888
63870W        W32264   4.544  35.999   2.177
63871W        W32265  34.146  44.700   2.710
63872W        W32266  15.052  24.630  13.876
63873W        W32267  21.160  18.139  11.476
63874W        W32268  15.811  14.194  13.505
63875W        W32269  19.996   0.889   1.365
63876W        W32270  23.298  38.307  14.791
63877W        W32271  16.199  39.169  12.531
63878W        W32272  24.957  25.383  11.406
63879W        W32273   5.000   0.848  10.351
63880W        W32274  11.857  27.413   2.334
63881W        W32275  22.140   2.879  10.978
63882W        W32276  13.263  24.180  14.594
63883W        W32277  35.617  37.566  12.117
63884W        W32278   6.140  12.256   4.620
63885W        W32279  13.713  16.539   1.300
63886W        W32280  13.222  11.316  13.271
63887W        W32281   8.859  36.064  10.151
63888W        W32282  29.917  21.206   1.407
63889W        W32283  23.543  22.600   1.736
63890W        W32284  42.405   9.869   3.771
63891W        W32285   2.374  44.245   3.863
63892W        W32286  21.003   8.730   4.257
63893W        W32287  25.210  40.008   4.387
63894W        W32288  26.035  11.122   3.250
63895W        W32289  38.696   8.234  14.994
63896W        W32290  41.996  13.566   4.890
63897W        W32291  33.911  30.572  11.905
63898W        W32292  24.862  28.009   2.928
63899W        W32293  12.646  18.638   0.550
63900W        W32294  43.912  12.152  13.470
63901W        W32295  29.959  40.976   4.511
63902W        W32296  42.967  11.167   4.726
63903W        W32297  21.472   3.865   0.322
63904W        W32298  24.619  38.545   2.242
63905W        W32299  35.419  41.467  12.612
63906W        W32300  40.993  41.900   0.975
63907W        W32301   8.911  40.856  14.411
63908W        W32302  35.116  17.632   0.216
63909W        W32303  40.104   1.486  13.415
63910W        W32304  16.237  19.965   3.909
63911W        W32305  37.438   9.237   2.534
63912W        W32306  28.966  31.669   3.532
63913W        W32307  26.319  42.484  11.737
63914W        W32308  43.677  34.831  13.873
63915W        W32309  14.287   3.172  10.824
63916W        W32310  42.947  41.278  14.040
63917W        W32311   6.214  34.016  11.025
63918W        W32312   8.435  16.117  12.578
63919W        W32313  28.460  27.254   2.674
63920W        W32314   2.052  19.090  12.702
63921W        W32315  25.432  40.264  14.458
63922W        W32316   9.769  12.380   2.244
63923W        W32317  10.901  15.229  12.588
63924W        W32318   5.503   4.709   3.892
63925W        W32319   5.708  27.536  12.917
63926W        W32320  29.290  37.437  12.369
63927W        W32321  14.338  20.081  13.493
63928W        W32322   9.109  33.886  11.272
63929W        W32323  12.628  39.270  12.368
63930W        W32324  29.473  43.744   0.774
63931W        W32325  26.763  23.252   2.392
63932W        W32326  43.349  21.204   0.422
63933W        W32327  27.051  36.549  11.588
63934W        W32328   8.759   4.461  13.468
63935W        W32329   8.653  14.354   4.279
63936W        W32330  27.072  28.705  14.387
63937W        W32331  33.155  31.487  14.358
63938W        W32332  11.138   3.346  13.369
63939W        W32333  21.647  24.265   2.897
63940W        W32334  35.123  25.072  10.733
63941W        W32335  36.929  28.924   1.975
63942W        W32336  15.500  37.258   2.069
63943W        W32337  12.926  21.200   4.905
63944W        W32338  30.982  23.423  13.960
63945W        W32339  35.849  16.170   1.677
63946W        W32340  31.350  26.021   4.674
63947W        W32341  36.116  24.295   4.211
63948W        W32342  18.053  44.816   3.789
63949W        W32343  34.831   2.008   2.909
63950W        W32344  33.976  25.557  13.015
63951W        W32345   1.906  24.264  13.288
63952W        W32346   0.240  26.799  10.982
63953W        W32347   0.612  32.873   2.241
63954W        W32348  15.117  39.367   1.133
63955W        W32349  26.470  14.962  14.940
63956W        W32350  26.805  22.731   2.231
63957W        W32351   0.356  13.910   1.697
63958W        W32352  12.165  22.101   0.418
63959W        W32353  18.781   6.283   5.019
63960W        W32354  21.735  12.387  10.701
63961W        W32355  33.247  35.174   5.022
63962W        W32356  41.375  40.337  14.957
63963W        W32357  17.074  26.994   0.851
63964W        W32358   9.863  25.000  10.619
63965W        W32359  13.021  18.961  11.908
63966W        W32360  18.040  26.186  12.598
63967W        W32361  35.534  13.709  13.533
63968W        W32362  41.763  30.787  14.405
63969W        W32363   9.142  30.692   0.305
63970W        W32364  42.565  32.746   1.375
63971W        W32365   3.383  19.159   0.598
63972W        W32366  43.380   8.142  14.827
63973W        W32367   0.272  13.424  13.024
63974W        W32368   3.449   5.479  12.066
63975W        W32369  41.082  19.156   2.193
63976W        W32370  30.742   1.611  14.257
63977W        W32371  17.877  28.666  14.849
63978W        W32372   3.936  42.464  13.943
63979W        W32373  12.974  32.373   3.179
63980W        W32374  44.704  11.591  10.811
63981W        W32375  26.942  38.734  11.991
63982W        W32376   4.842   7.781   1.148
63983W        W32377  11.922  25.689  14.338
63984W        W32378  20.024  31.647   0.294
63985W        W32379  11.148  23.410  12.991
63986W        W32380  11.247  15.787   3.577
63987W        W32381   2.847   6.207  11.479
63988W        W32382  29.675  38.261   3.723
63989W        W32383  15.678  14.338   3.889
63990W        W32384  11.949  11.891  12.787
63991W        W32385  34.026  24.438   2.290
63992W        W32386  39.752  26.136  12.460
63993W        W32387   4.365   2.813  12.990
63994W        W32388  32.445   3.036   0.836
63995W        W32389  35.383  18.448   0.337
63996W        W32390   4.926  35.631   4.506
63997W        W32391   2.722  31.949   1.688
63998W        W32392   8.820   5.601  14.055
63999W        W32393   1.179  32.172  14.463
64000W        W32394  21.628  18.683  11.412
64001W        W32395  18.105  19.103  13.722
64002W        W32396   7.769  12.146   3.472
64003W        W32397  43.770  30.305   2.829
64004W        W32398  30.695  34.338  13.911
64005W        W32399   4.292  13.742  13.543
64006W        W32400  12.244  15.202  11.359
64007W        W32401  38.707  17.080   0.016
64008W        W32402  17.094  23.742  14.803
64009W        W32403   8.814  10.485  14.481
64010W        W32404  20.409  33.119  14.692
64011W        W32405  41.813   6.750  10.742
64012W        W32406   3.320  40.017   2.126
64013W        W32407  22.473   9.949  10.641
64014W        W32408  37.863  39.566  14.311
64015W        W32409   1.066  21.784   4.313
64016W        W32410  28.713  12.195   0.955
64017W        W32411  43.864  44.418   3.436
64018W        W32412  16.258  10.178  12.873
64019W        W32413  42.260  35.759   3.693
64020W        W32414  10.916  14.194   0.441
64021W        W32415  39.031  27.986   4.628
64022W        W32416   4.705  22.659  12.367
64023W        W32417  39.336  24.286  13.513
64024W        W32418  29.142   5.865  14.684
64025W        W32419  26.643   2.223  12.646
64026W        W32420  44.541   0.680   4.034
64027W        W32421  31.988  37.637   2.320
64028W        W32422  27.490  26.637   1.877
64029W        W32423  37.326   9.386   1.667
64030W        W32424  29.956   3.421  14.974
64031W        W32425   8.642  39.526  12.937
64032W        W32426  15.481  38.335   4.185
64033W        W32427  21.521  17.863  14.830
64034W        W32428  28.372   6.870  13.150
64035W        W32429   3.974  12.179  10.726
64036W        W32430   8.496  24.247  12.957
64037W        W32431   9.973   5.440   0.759
64038W        W32432   2.385  17.097   3.132
64039W        W32433  36.443  11.445  11.175
64040W        W32434  15.809   4.196   4.465
64041W        W32435  18.996  31.092  13.959
64042W        W32436  26.156  15.369  11.126
64043W        W32437  12.187   9.264  11.404
64044W        W32438  32.676  12.637  13.856
64045W        W32439  30.700   7.499  12.567
64046W        W32440  23.135  28.527  11.481
64047W        W32441  13.599  37.902  11.456
64048W        W32442  19.525  22.561  11.151
64049W        W32443   2.817  42.996  14.602
64050W        W32444  38.794   8.291   0.886
64051W        W32445  37.284  31.476   1.724
64052W        W32446  40.524   6.704  11.437
64053W        W32447  25.267  17.743   1.798
64054W        W32448   5.791  18.681   0.469
64055W        W32449  29.627  31.838   3.740
64056W        W32450  36.764  17.604  14.818
64057W        W32451  23.293  10.630  12.727
64058W        W32452   9.372   2.931   3.332
64059W        W32453   2.881  22.112   1.338
64060W        W32454  43.057  11.387   1.814
64061W        W32455  41.898  21.608   3.194
64062W        W32456  26.758  42.344   5.383
64063W        W32457   5.718  36.374   2.895
64064W        W32458  40.042  33.520   2.652
64065W        W32459  12.611  17.793  14.672
64066W        W32460   5.431   7.118  13.689
64067W        W32461   2.956  15.782   2.677
64068W        W32462  42.269   5.158  10.443
64069W        W32463  35.539  33.807   1.504
64070W        W32464  12.659  37.558   2.663
64071W        W32465  38.499  14.290   2.627
64072W        W32466  42.940  27.401   0.481
64073W        W32467  22.931  33.644   4.396
64074W        W32468   6.938   5.450  12.939
64075W        W32469  38.186   4.020  12.115
64076W        W32470  11.371   4.997  12.956
64077W        W32471  12.586  40.705  11.103
64078W        W32472   6.173  18.049   3.711
64079W        W32473   7.276   6.722   3.904
64080W        W32474  22.723   6.871  11.162
64081W        W32475   2.659   5.874  11.819
64082W        W32476  41.646  14.738  12.093
64083W        W32477  23.695  26.534   5.062
64084W        W32478  12.896  30.944   2.323
64085W        W32479  36.375  28.706  14.804
64086W        W32480  11.739  31.739   3.288
64087W        W32481  19.742  20.021  14.957
64088W        W32482  39.655   8.061  10.601
64089W        W32483   8.809   6.310   2.331
64090W        W32484   4.188  42.085   2.315
64091W        W32485  15.000  35.686  11.099
64092W        W32486   8.765  19.056  11.078
64093W        W32487   6.831  29.991   3.894
64094W        W32488  41.559  26.454   4.810
64095W        W32489  21.304  30.599  12.374
64096W        W32490  40.937  40.551  14.403
64097W        W32491  24.034  11.003  13.404
64098W        W32492  10.905  32.717   4.517
64099W        W32493   6.718  36.938   3.200
64100W        W32494  25.929  24.407   0.913
64101W        W32495  41.526  41.349  13.397
64102W        W32496   2.151  15.101  14.349
64103W        W32497  22.275  13.163  13.928
64104W        W32498  18.456  34.168  12.975
64105W        W32499   2.055  32.910  13.113
64106W        W32500  26.849  44.659   2.816
64107W        W32501  26.248  20.638   1.631
64108W        W32502  42.347  16.249   4.710
64109W        W32503  34.722  23.629  14.245
64110W        W32504  25.541  32.502  11.981
64111W        W32505  21.747  13.635   4.307
64112W        W32506  28.117  40.337  14.846
64113W        W32507   4.986  24.535   3.132
64114W        W32508   8.228  27.528  14.104
64115W        W32509  37.915  28.205   3.338
64116W        W32510  43.897   0.178   0.739
64117W        W32511   8.074  41.353   0.968
64118W        W32512  39.663   6.786  13.779
64119W        W32513  25.167  37.442  14.332
64120W        W32514   8.196  25.994  13.432
64121W        W32515   9.791  39.185   2.776
64122W        W32516   4.901  33.201   2.768
64123W        W32517  18.013  22.719   1.825
64124W        W32518   1.480   8.656   0.109
64125W        W32519  44.982  17.027  11.245
64126W        W32520  30.350   0.123  11.233
64127W        W32521  39.918  19.655   4.396
64128W        W32522  31.485   4.890  11.963
64129W        W32523  15.579   5.234  10.317
64130W        W32524  44.794  16.552   0.380
64131W        W32525   2.251  38.047  12.374
64132W        W32526  25.156   2.343   1.404
64133W        W32527  31.373  10.614  11.496
64134W        W32528  23.576  24.355   0.873
64135W        W32529  34.003   0.177  11.680
64136W        W32530  43.928  15.995   4.718
64137W        W32531   5.116  12.638   4.164
64138W        W32532  38.423  28.182  10.669
64139W        W32533  22.887  23.578  10.741
64140W        W32534  42.007  33.405   0.335
64141W        W32535   9.866  30.462  12.096
64142W        W32536   1.403   8.839   2.113
64143W        W32537  43.322   8.420   3.277
64144W        W32538   6.775   1.780  10.124
64145W        W32539  36.513  33.572  12.678
64146W        W32540  16.776   0.302   3.258
64147W        W32541  21.150  28.985   0.386
64148W        W32542  26.582  41.964  14.039
64149W        W32543   8.374   2.768   1.272
64150W        W32544  23.212  41.050  11.671
64151W        W32545  30.602   6.188  14.061
64152W        W32546   2.216  21.143  12.615
64153W        W32547  31.217   1.457  14.421
64154W        W32548  42.787  35.172  12.646
64155W        W32549  44.387   3.388   3.808
64156W        W32550  36.946   7.754   0.125
64157W        W32551  37.416  35.521   3.792
64158W        W32552  12.399  24.668  14.982
64159W        W32553  23.774  19.709  11.268
64160W        W32554  23.256  14.056  14.277
64161W        W32555  19.524  44.991   4.199
64162W        W32556  25.185  12.947  10.253
64163W        W32557  16.060  33.915  11.983
64164W        W32558  34.854  34.835  13.995
64165W        W32559  18.302  18.917  10.511
64166W        W32560   8.384  40.428   1.324
64167W        W32561   0.753  25.347  12.919
64168W        W32562  12.382  43.380   0.800
64169W        W32563  34.345  23.606   1.722
64170W        W32564  42.003  12.699  11.152
64171W        W32565  11.642  26.532   1.193
64172W        W32566  30.144  17.595  11.767
64173W        W32567  23.440  26.783  12.141
64174W        W32568  14.575  28.736  13.430
64175W        W32569  37.004  16.528   0.276
64176W        W32570   5.147  10.846  11.453
64177W        W32571  22.257  36.028  12.041
64178W        W32572   4.397   1.051   1.864
64179W        W32573   0.046  26.700  13.046
64180W        W32574   9.361  24.451  14.802
64181W        W32575  13.256  28.513  13.573
64182W        W32576  26.190  20.558  13.062
64183W        W32577  17.790   5.800   0.372
64184W        W32578  28.027  12.839   1.179
64185W        W32579  31.540  16.380   2.188
64186W        W32580  17.649  37.612  13.602
64187W        W32581  16.369  17.735   3.577
64188W        W32582  41.493   1.113  13.847
64189W        W32583  20.183  20.696   0.068
64190W        W32584   0.740   6.741   1.186
64191W        W32585   5.400   5.348   1.269
64192W        W32586   5.350  23.949  10.768
64193W        W32587   9.948  29.234  12.919
64194W        W32588   3.478  31.505   0.018
64195W        W32589   5.285  20.530  13.380
64196W        W32590   4.371   0.435  14.033
64197W        W32591   8.122   9.643   4.181
64198W        W32592  11.923  35.281   3.767
64199W        W32593  15.609  41.317  11.779
64200W        W32594  43.505  34.311   3.704
64201W        W32595  23.108  44.366  14.557
64202W        W32596  20.647  26.156   3.039
64203W        W32597  20.204  41.388  11.089
64204W        W32598  23.155  14.374  13.888
64205W        W32599  10.788   2.945   2.274
64206W        W32600  22.845  16.456  13.513
64207W        W32601  22.189  30.108   0.179
64208W        W32602  12.398  36.130  11.988
64209W        W32603  24.120  40.010  14.794
64210W        W32604  20.597  32.040   0.930
64211W        W32605   4.921   8.499  10.798
64212W        W32606  41.919  25.602   2.621
64213W        W32607  16.595  37.426   0.289
64214W        W32608   8.360  40.753  12.173
64215W        W32609   2.686  44.499   2.630
64216W        W32610  21.645  40.396  12.563
64217W        W32611  16.124  43.426   3.968
64218W        W32612  30.132   4.640   3.255
64219W        W32613  18.097  42.017   1.950
64220W        W32614  19.425  25.359   4.589
64221W        W32615  12.585  13.311   0.694
64222W        W32616  43.724  27.983  13.265
64223W        W32617   5.674  22.332   4.236
64224W        W32618  20.614   3.402   1.906
64225W        W32619  28.049  39.857   0.012
64226W        W32620  25.742  14.598  12.937
64227W        W32621  14.284  40.280  11.533
64228W        W32622  17.583   6.857  14.117
64229W        W32623  41.975  17.174  10.644
64230W        W32624  14.865  34.969  14.481
64231W        W32625  41.805  27.707  14.099
64232W        W32626  12.198  20.031   4.942
64233W        W32627  21.494   3.985  12.395
64234W        W32628  26.928  36.991   2.712
64235W        W32629  38.843   8.364  14.101
64236W        W32630  31.804  13.329  11.136
64237W        W32631  22.678  20.464  13.191
64238W        W32632   9.615  44.745   3.682
64239W        W32633  21.300   0.385   1.947
64240W        W32634  36.646  39.891  10.562
64241W        W32635  44.313  19.290   0.818
64242W        W32636   1.278  18.161   0.224
64243W        W32637  43.268   7.901   0.273
64244W        W32638  12.782   7.725   2.860
64245W        W32639   9.368  21.725  12.942
64246W        W32640  39.118  25.327   2.309
64247W        W32641  11.692  25.767  10.576
64248W        W32642  27.495  28.611  14.092
64249W        W32643  41.923   9.666  14.966
64250W        W32644  35.358  14.809  10.704
64251W        W32645  12.170  13.389   3.280
64252W        W32646  35.525   6.399  12.575
64253W        W32647  12.995  43.833   2.860
64254W        W32648  20.573  43.967  13.316
64255W        W32649  40.513   7.239  10.344
64256W        W32650   0.674  14.955  12.858
64257W        W32651  27.233  28.550   1.834
64258W        W32652  27.248  29.414  10.604
64259W        W32653  33.069  20.310   2.852
64260W        W32654  38.915  43.336   4.741
64261W        W32655  22.505  34.435  12.947
64262W        W32656  29.921  38.957  10.831
64263W        W32657  19.281   0.235  11.704
64264W        W32658   1.885  29.993   3.077
64265W        W32659  16.600  31.122  12.773
64266W        W32660  40.010   7.303  11.221
64267W        W32661  33.027  43.495   0.301
64268W        W32662  38.541   9.657   4.210
64269W        W32663   2.472   8.614   0.677
64270W        W32664  22.105  41.814   1.513
64271W        W32665  20.119   5.822   0.890
64272W        W32666   5.844  16.955   3.837
64273W        W32667  19.635  24.248  14.168
64274W        W32668  41.482   0.408  13.379
64275W        W32669  31.050   5.918   1.680
64276W        W32670  33.186  25.270  12.396
64277W        W32671  15.084  25.010   1.365
64278W        W32672  32.694   5.400  13.593
64279W        W32673  20.617   3.589   0.490
64280W        W32674  37.913  27.147  12.107
64281W        W32675  13.215   0.447   2.408
64282W        W32676  17.213  28.051  14.276
64283W        W32677   5.626   3.951   2.226
64284W        W32678  34.260  11.220  11.480
64285W        W32679  13.136  37.524  11.783
64286W        W32680  38.026  36.849  11.159
64287W        W32681  13.768  28.089   3.683
64288W        W32682  11.175  30.475   4.479
64289W        W32683   2.354  37.486   9.977
64290W        W32684  10.250  14.714  14.887
64291W        W32685  27.770  13.081   3.830
64292W        W32686  11.364   2.984   4.083
64293W        W32687   1.843  28.370  14.753
64294W        W32688  10.392   9.909   1.004
64295W        W32689   0.437  26.729   2.685
64296W        W32690  15.058   0.969   3.387
64297W        W32691   9.891   1.381   4.096
64298W        W32692   8.376  31.030   3.979
64299W        W32693  20.104  29.689   0.493
64300W        W32694  44.340   0.500   0.468
64301W        W32695  35.932  25.217  11.635
64302W        W32696   6.846  13.757  11.221
64303W        W32697  23.622  36.028   2.854
64304W        W32698  39.488  36.271  11.650
64305W        W32699  40.885  25.078   4.695
64306W        W32700  10.216  41.912   0.494
64307W        W32701  10.146  12.078  11.127
64308W        W32702  34.628  24.658  12.730
64309W        W32703  12.236  20.274  14.345
64310W        W32704  43.662  31.237   2.767
64311W        W32705   9.696   2.195  10.326
64312W        W32706   9.320  20.110  14.613
64313W        W32707  33.792  32.522  14.495
64314W        W32708  22.228  38.078  14.423
64315W        W32709  25.866  16.286   3.567
64316W        W32710  36.675  32.428  14.692
64317W        W32711  14.698  13.650   3.661
64318W        W32712  35.947  28.420  10.515
64319W        W32713   5.675  19.461   2.333
64320W        W32714  31.077  19.551   0.434
64321W        W32715   8.955  29.412  13.419
64322W        W32716  23.243  12.226   1.677
64323W        W32717  39.475  38.296   1.150
64324W        W32718  36.484  27.473  13.628
64325W        W32719  41.745  27.587  12.391
64326W        W32720  10.088  44.273   1.273
64327W        W32721  16.823  16.568   3.307
64328W        W32722  41.713  22.555  12.071
64329W        W32723  12.679  15.928   1.692
64330W        W32724   9.343   6.136  12.546
64331W        W32725  30.708  16.778  12.904
64332W        W32726  11.566   2.679  14.911
64333W        W32727  44.996  36.040   1.758
64334W        W32728  20.022  32.464  10.719
64335W        W32729  33.901   9.236   0.814
64336W        W32730   2.826   2.857  13.769
64337W        W32731  39.709  37.894   4.774
64338W        W32732  13.313   3.396   3.704
64339W        W32733  16.791  18.813   3.621
64340W        W32734  21.161  28.872   1.295
64341W        W32735  44.701   1.526  12.950
64342W        W32736  34.684  25.998   2.644
64343W        W32737  23.240   8.945  11.942
64344W        W32738   6.233  41.633  12.629
64345W        W32739  14.961  35.078   0.528
64346W        W32740  40.084   0.065   0.168
64347W        W32741  38.577  12.689  13.427
64348W        W32742   2.403  38.107   3.624
64349W        W32743  10.990  38.000   2.772
64350W        W32744  38.949  23.682   3.873
64351W        W32745   4.860  32.494   4.197
64352W        W32746  19.123  12.551   1.896
64353W        W32747  28.942  17.089   1.384
64354W        W32748  20.714   9.348  10.465
64355W        W32749  16.781   6.669   4.305
64356W        W32750  38.737  31.970  13.272
64357W        W32751  41.123  28.749  13.867
64358W        W32752  11.892   8.348   9.894
64359W        W32753  38.932  12.740   3.200
64360W        W32754  16.574  17.681  12.104
64361W        W32755  29.586  33.591   2.047
64362W        W32756  17.737   0.351   3.158
64363W        W32757   1.980  10.605   3.766
64364W        W32758   3.514   0.971   2.715
64365W        W32759  31.113  43.744  13.985
64366W        W32760  18.976  29.813  12.498
64367W        W32761  21.679   9.797  13.924
64368W        W32762  24.160  41.779   4.175
64369W        W32763  35.573  37.712   4.470
64370W        W32764  37.669  18.293   3.687
64371W        W32765   5.694  39.576   3.106
64372W        W32766  22.713  39.377   3.332
64373W        W32767  43.525   8.173   2.871
64374W        W32768  27.808  33.684   3.352
64375W        W32769  10.770  38.968   3.501
64376W        W32770   6.629   7.138   4.110
64377W        W32771  16.003  37.407   1.329
64378W        W32772  18.215  22.710   1.338
64379W        W32773  28.562  31.693   5.093
64380W        W32774  36.064  31.226  14.429
64381W        W32775  10.376   1.720  14.475
64382W        W32776  34.165  41.408  12.009
64383W        W32777  36.538  20.207   2.294
64384W        W32778  28.380  19.133  10.702
64385W        W32779  39.628  42.380  13.354
64386W        W32780  11.567  43.061   0.224
64387W        W32781  41.418  26.464   1.641
64388W        W32782  25.531  19.122   4.605
64389W        W32783  22.207  16.907   4.296
64390W        W32784  41.353  24.123   0.986
64391W        W32785   7.227  41.433  13.899
64392W        W32786  15.724  11.088   4.661
64393W        W32787  26.177   0.593  11.192
64394W        W32788  44.705  35.597   1.130
64395W        W32789  37.879  12.165   1.216
64396W        W32790   4.501  35.573  10.596
64397W        W32791  37.932  11.585  10.772
64398W        W32792  18.834  26.149   3.103
64399W        W32793  27.617  24.286   3.596
64400W        W32794  31.364  16.058  14.736
64401W        W32795   5.272  14.265  12.094
64402W        W32796  37.567   0.903  12.408
64403W        W32797  17.313   9.939   3.698
64404W        W32798   7.207  36.832   4.735
64405W        W32799  19.577  38.081   4.550
64406W        W32800  28.063  31.895  13.335
64407W        W32801  39.413   9.833  10.819
64408W        W32802  44.349  32.646   4.498
64409W        W32803   0.573  15.736  11.975
64410W        W32804  43.804  10.097   0.786
64411W        W32805  28.093  34.861  11.581
64412W        W32806  15.305  40.897   3.339
64413W        W32807  39.590  26.626  11.122
64414W        W32808  20.965  36.777  10.906
64415W        W32809  23.100   7.916   3.895
64416W        W32810  24.542   6.794  11.512
64417W        W32811   3.269  10.107  13.525
64418W        W32812  36.152   5.272  12.578
64419W        W32813  15.347  26.625  13.937
64420W        W32814  43.264  36.460   2.508
64421W        W32815   4.945  27.604   0.235
64422W        W32816  23.225  43.424  14.215
64423W        W32817  18.599  16.128  12.179
64424W        W32818  25.690  38.095   4.897
64425W        W32819  44.327  42.841  12.144
64426W        W32820  15.825  33.594   3.205
64427W        W32821  27.358  28.454   4.122
64428W        W32822  39.981  40.294  11.588
64429W        W32823  37.150   6.667   1.158
64430W        W32824   6.327   4.771  11.716
64431W        W32825  35.333   9.186  11.158
64432W        W32826  34.150  35.628   0.188
64433W        W32827  42.833  14.562  12.602
64434W        W32828  38.041   2.181   3.151
64435W        W32829  15.545  41.785  11.473
64436W        W32830  30.147  25.644   3.751
64437W        W32831  25.852  42.896   3.444
64438W        W32832  17.282  18.271  14.493
64439W        W32833  14.890  17.267  12.475
64440W        W32834   9.420  26.634  13.856
64441W        W32835  24.468   8.765  14.093
64442W        W32836  41.301  40.803  14.711
64443W        W32837  29.912  10.385   1.574
64444W        W32838  22.352  37.044  11.932
64445W        W32839  37.886   7.378  14.192
64446W        W32840  40.236  31.507   2.608
64447W        W32841  42.964  10.668   3.777
64448W        W32842  30.915  10.742  14.331
64449W        W32843  38.950  23.397   0.572
64450W        W32844  36.122  12.899   1.616
64451W        W32845   6.180  14.206  13.390
64452W        W32846   1.377  13.217   4.564
64453W        W32847  40.313   2.933   0.202
64454W        W32848  19.138  36.115  10.606
64455W        W32849  42.318   8.786  11.506
64456W        W32850   9.119  12.793  13.839
64457W        W32851  17.599   4.184  12.408
64458W        W32852  36.082  18.177   2.907
64459W        W32853   0.160  42.552  12.438
64460W        W32854   6.589   3.434   3.291
64461W        W32855   8.120  32.426   2.585
64462W        W32856  10.182   2.738   4.693
64463W        W32857  36.138   3.002  12.611
64464W        W32858   8.225  14.131  12.959
64465W        W32859  28.557   0.277   3.208
64466W        W32860  40.808  22.583  12.190
64467W        W32861  35.339  40.982  12.457
64468W        W32862  11.161   0.212  12.873
64469W        W32863  44.076  43.890   4.643
64470W        W32864  40.697   1.606  13.974
64471W        W32865  24.634  24.679   1.988
64472W        W32866  22.879   1.497  13.566
64473W        W32867  17.110  27.654  11.890
64474W        W32868  25.701  17.136  10.615
64475W        W32869   2.003  38.013   3.292
64476W        W32870  14.128  29.653  11.068
64477W        W32871  43.879  19.541   2.858
64478W        W32872  12.283  26.693   4.654
64479W        W32873  25.300  22.238  14.072
64480W        W32874  24.586  12.869   2.528
64481W        W32875  32.377  18.907  10.836
64482W        W32876   2.807   5.395   3.861
64483W        W32877  26.670   0.100  10.142
64484W        W32878  29.408  34.753  14.394
64485W        W32879  32.892  23.063   2.219
64486W        W32880  38.010   5.176   4.463
64487W        W32881   5.800   3.403   0.836
64488W        W32882  23.657  15.031   2.686
64489W        W32883  23.813  39.576   1.277
64490W        W32884  20.038  44.977  13.961
64491W        W32885  35.816  28.676  13.670
64492W        W32886  31.535   4.943  11.069
64493W        W32887  13.959  32.582  12.394
64494W        W32888  39.059  17.683  12.026
64495W        W32889  29.715  12.585   4.568
64496W        W32890  44.261  41.311   2.426
64497W        W32891   9.927  20.017  14.753
64498W        W32892  28.099  26.344   5.052
64499W        W32893  31.599   6.238   0.907
64500W        W32894  37.474   3.516  13.124
64501W        W32895   0.281  38.348   2.187
64502W        W32896  36.171   5.432   3.872
64503W        W32897  15.760   0.576   0.412
64504W        W32898  13.349   2.291   4.857
64505W        W32899  39.963  37.797   1.741
64506W        W32900  18.537  28.404  13.720
64507W        W32901  37.280  19.249   3.744
64508W        W32902  13.833  19.707  12.397
64509W        W32903  20.681  18.984   2.097
64510W        W32904  18.251  41.102  10.258
64511W        W32905  17.087  40.908  10.013
64512W        W32906  36.535  41.002  12.413
64513W        W32907  27.465  23.629   4.526
64514W        W32908  39.290  14.829   3.795
64515W        W32909  19.489  40.997   2.360
64516W        W32910  19.196  28.933   5.624
64517W        W32911  23.001   6.488  10.138
64518W        W32912   1.884   9.086   2.860
64519W        W32913   2.855  33.675  11.235
64520W        W32914  43.775  15.312   4.508
64521W        W32915   3.900  39.555  12.356
64522W        W32916  34.108  18.132  12.411
64523W        W32917  32.297  31.487   3.412
64524W        W32918  34.033   3.924  14.547
64525W        W32919   8.888   1.950   4.790
64526W        W32920   0.244  13.260   1.391
64527W        W32921  43.214  12.584  12.396
64528W        W32922  41.341  13.450  13.056
64529W        W32923  18.907  34.150   4.225
64530W        W32924   3.017   8.778   2.149
64531W        W32925  43.854  18.811  11.556
64532W        W32926  42.602  39.833  12.501
64533W        W32927   4.226  28.434   4.557
64534W        W32928  15.565  34.114  11.987
64535W        W32929  37.090  43.748  10.386
64536W        W32930  30.859  43.722  11.040
64537W        W32931  40.634  39.860  13.901
64538W        W32932  14.578  30.586   4.145
64539W        W32933  21.931  15.752   4.138
64540W        W32934   6.587   5.347   1.855
64541W        W32935  34.497  11.474   4.028
64542W        W32936   1.571  40.870   0.929
64543W        W32937  23.999  31.702  10.537
64544W        W32938  44.188   6.491   0.456
64545W        W32939  18.971   6.154   4.550
64546W        W32940  13.593  38.882  11.582
64547W        W32941  44.857  17.550   2.172
64548W        W32942  29.365  29.161  11.617
64549W        W32943   6.977  42.358   0.815
64550W        W32944  21.708   9.840  14.446
64551W        W32945  31.619   5.801   0.219
64552W        W32946  11.030  39.339  14.873
64553W        W32947   8.884  20.617  13.861
64554W        W32948  44.324  27.659   1.576
64555W        W32949  10.165   8.349   0.388
64556W        W32950  19.136   3.017  13.346
64557W        W32951   9.624  38.605  13.299
64558W        W32952  43.379  31.083   4.073
64559W        W32953  31.114  24.589   1.400
64560W        W32954  37.541  36.046   0.230
64561W        W32955  12.138  19.567  12.007
64562W        W32956  11.070  27.033  14.933
64563W        W32957   1.737  41.187   3.200
64564W        W32958  33.016  14.401   0.996
64565W        W32959   3.302  30.518   1.172
64566W        W32960   5.289   1.852   0.396
64567W        W32961  15.440  15.842  13.515
64568W        W32962  35.100  35.524   4.018
64569W        W32963  25.988  39.838  10.762
64570W        W32964  33.317  41.996  10.208
64571W        W32965  19.656  39.104  14.850
64572W        W32966  36.588  20.705   0.703
64573W        W32967  33.345  19.728  10.717
64574W        W32968  13.841   5.380  14.219
64575W        W32969  24.536   1.284   4.487
64576W        W32970  15.294  12.491   3.705
64577W        W32971  38.518   4.940  10.588
64578W        W32972   4.155   3.293  14.018
64579W        W32973   7.081  41.980   1.699
64580W        W32974  44.347  11.599  14.903
64581W        W32975   4.394  32.863  12.917
64582W        W32976   9.148  33.509   3.606
64583W        W32977  40.208   0.368   1.800
64584W        W32978  33.013  40.409  11.217
64585W        W32979  14.081  24.806   0.013
64586W        W32980  21.241  41.577   1.818
64587W        W32981  17.973  31.797  10.681
64588W        W32982   8.875  38.599  10.774
64589W        W32983   4.425  44.516   2.354
64590W        W32984  27.167  11.751   4.657
64591W        W32985  35.622  37.339   4.851
64592W        W32986  42.514  42.503  13.021
64593W        W32987  44.523   9.567   1.887
64594W        W32988  36.693   4.838   4.543
64595W        W32989  13.256  13.609   0.494
64596W        W32990  27.090   2.781   3.043
64597W        W32991  37.095  14.123  13.986
64598W        W32992  32.548   5.127  12.178
64599W        W32993   9.204   9.932  12.482
64600W        W32994  16.657  38.579   3.503
64601W        W32995   6.145   2.384   1.328
64602W        W32996  31.158  19.204   3.878
64603W        W32997   4.504  39.106  14.266
64604W        W32998  38.299  13.136  13.406
64605W        W32999  13.345  17.417  14.749
64606W        W33000   3.443  16.226  10.448
64607W        W33001  41.869  12.619   4.553
64608W        W33002  42.417  22.616   3.623
64609W        W33003  29.241  30.441   2.258
64610W        W33004   4.953  11.052   0.166
64611W        W33005  23.717  43.430   1.403
64612W        W33006  21.126  15.782   0.354
64613W        W33007  21.148   1.773   3.003
64614W        W33008  41.656  15.226  11.392
64615W        W33009  12.648  11.013   3.750
64616W        W33010  40.274  33.257   1.370
64617W        W33011   8.737  26.177   2.301
64618W        W33012   4.449  18.370   1.156
64619W        W33013  43.259  23.560   2.147
64620W        W33014  27.579   5.481   2.643
64621W        W33015  23.222   9.603   4.574
64622W        W33016   6.008  24.604   3.375
64623W        W33017  20.656  23.172   2.371
64624W        W33018   1.728  24.327   4.221
64625W        W33019  26.588  43.062   4.121
64626W        W33020  25.634   1.726   2.910
64627W        W33021  32.154  38.009   1.283
64628W        W33022  36.572   9.155   0.825
64629W        W33023  23.132   1.333   4.517
64630W        W33024  42.534  17.528  13.491
64631W        W33025  37.547   8.283   2.825
64632W        W33026  19.764  41.745   3.345
64633W        W33027   1.461  22.639  14.449
64634W        W33028   4.370   1.987   2.792
64635W        W33029  28.898  39.482  12.043
64636W        W33030  17.739  29.377   3.138
64637W        W33031  33.872  28.211  13.377
64638W        W33032  13.641  30.863   3.017
64639W        W33033  34.977  39.027   4.620
64640W        W33034  41.078   5.961  10.671
64641W        W33035  25.332  14.184  11.642
64642W        W33036  25.437  15.617   0.391
64643W        W33037  29.668  26.558   2.783
64644W        W33038  31.171   0.875   0.589
64645W        W33039   3.840  13.640  11.886
64646W        W33040  31.587  34.304   3.289
64647W        W33041  13.860  35.165  11.006
64648W        W33042  16.684  20.842  14.643
64649W        W33043   2.974   2.345   1.299
64650W        W33044   0.496  33.994  12.583
64651W        W33045  26.411  43.330   2.767
64652W        W33046  18.708  43.046   2.277
64653W        W33047  15.275  16.176   4.045
64654W        W33048  14.828   8.392  11.862
64655W        W33049  33.006   3.300   4.445
64656W        W33050  33.957   5.640   3.622
64657W        W33051   8.351   5.668   3.121
64658W        W33052  25.762  10.448  11.099
64659W        W33053   4.810  13.033  14.545
64660W        W33054  27.002  32.372   0.293
64661W        W33055   7.168  13.199  10.632
64662W        W33056  37.556  29.851   0.492
64663W        W33057  11.089  10.432   2.728
64664W        W33058   9.818  24.196   2.733
64665W        W33059  38.861   8.844   3.858
64666W        W33060  19.066  12.751  14.443
64667W        W33061  26.046  11.486  14.489
64668W        W33062  18.134  40.599   4.508
64669W        W33063  30.119   2.540   2.238
64670W        W33064   0.335  33.348   2.199
64671W        W33065  29.676  27.504   1.882
64672W        W33066  31.576  32.484   0.858
64673W        W33067  24.320  43.804  10.717
64674W        W33068  38.995   6.707  14.719
64675W        W33069  28.163  20.557  10.593
64676W        W33070  22.196  22.611   0.752
64677W        W33071  21.836  25.018  12.010
64678W        W33072   8.828  25.556   1.702
64679W        W33073  44.769  39.850   1.575
64680W        W33074  20.472  34.624  11.015
64681W        W33075   9.566  23.049   4.223
64682W        W33076   5.363  22.796   0.318
64683W        W33077  33.696  24.397  12.468
64684W        W33078  36.643   2.283   3.660
64685W        W33079   9.107  22.077  14.643
64686W        W33080  24.131  14.778   3.973
64687W        W33081  34.574  41.978   0.956
64688W        W33082  26.248  26.059   2.293
64689W        W33083  12.717  30.090   0.764
64690W        W33084  41.579  28.429  10.740
64691W        W33085  20.516   8.809  13.477
64692W        W33086  34.082   3.179  11.937
64693W        W33087  29.275  20.320   2.222
64694W        W33088  40.902   1.347  11.638
64695W        W33089  37.281  14.005   3.863
64696W        W33090  11.908  16.077  14.060
64697W        W33091  22.399  11.883   4.460
64698W        W33092  20.125  11.231  10.600
64699W        W33093   8.798  35.287  13.962
64700W        W33094  23.718  33.968  13.304
64701W        W33095  39.045  27.007   1.821
64702W        W33096  37.755  17.234   2.247
64703W        W33097  27.468  29.140   1.191
64704W        W33098  18.014   1.387  12.096
64705W        W33099  14.232  26.078  11.531
64706W        W33100  40.591   8.380  13.360
64707W        W33101  43.945  41.782   3.896
64708W        W33102   7.882  10.647  13.923
64709W        W33103  10.935  42.279  13.496
64710W        W33104  17.026   4.495   0.970
64711W        W33105  19.120  10.764   4.487
64712W        W33106  34.859  24.701   3.318
64713W        W33107  19.546   4.270  14.370
64714W        W33108  29.479  44.521   0.311
64715W        W33109  37.272   1.162   5.191
64716W        W33110  19.651  13.901  12.426
64717W        W33111   3.698  22.059   0.798
64718W        W33112  10.023  11.606   1.285
64719W        W33113  38.275  26.132  11.143
64720W        W33114  13.687  35.893  13.899
64721W        W33115  38.109  34.108   4.195
64722W        W33116  23.614   9.476   3.102
64723W        W33117   3.405  27.805  12.100
64724W        W33118   8.163  34.701   2.971
64725W        W33119  28.522  32.704  11.280
64726W        W33120   8.427  15.697   1.937
64727W        W33121  41.838  39.767  10.922
64728W        W33122   7.301  39.232  12.104
64729W        W33123  16.330   9.697  12.611
64730W        W33124  17.004  16.170   2.679
64731W        W33125  36.328  42.897   4.665
64732W        W33126  32.142  10.958   1.644
64733W        W33127   0.432  42.215   0.042
64734W        W33128  13.834  30.354   0.512
64735W        W33129   7.147  30.711   4.116
64736W        W33130  29.728   2.824  10.638
64737W        W33131  25.690  26.022   0.880
64738W        W33132  11.669   8.304  10.667
64739W        W33133   4.922   8.670   2.396
64740W        W33134  24.514  27.413   1.340
64741W        W33135  12.665  26.360   3.881
64742W        W33136  12.967   8.343   4.626
64743W        W33137  42.360  15.252   4.837
64744W        W33138  31.333  37.324   3.710
64745W        W33139  17.140  10.414   3.640
64746W        W33140  10.212  35.120  12.104
64747W        W33141  34.608  28.228   2.193
64748W        W33142   5.055  41.887   2.570
64749W        W33143  17.680  36.504  11.152
64750W        W33144  27.125  35.108   4.331
64751W        W33145  31.144  37.158   5.017
64752W        W33146  12.629  21.005  13.807
64753W        W33147  13.284   1.888   9.456
64754W        W33148  12.645  17.164  11.856
64755W        W33149   1.948   2.030  11.476
64756W        W33150  22.626  40.369   3.168
64757W        W33151   0.285  44.722  13.779
64758W        W33152  17.650  43.730   3.676
64759W        W33153  31.011  15.845  12.596
64760W        W33154  12.013  31.000   0.126
64761W        W33155  14.227  40.886  13.871
64762W        W33156  10.148  36.592   4.581
64763W        W33157   1.032  11.392  13.351
64764W        W33158  18.329  16.189   2.335
64765W        W33159  39.555   8.944  11.185
64766W        W33160  38.460   5.022   4.242
64767W        W33161  21.693  29.533  13.361
64768W        W33162  31.713  34.636  14.356
64769W        W33163   8.944  35.283  12.563
64770W        W33164  26.963  26.536   0.981
64771W        W33165  39.102  43.022  12.043
64772W        W33166  37.832   9.211  12.900
64773W        W33167   7.229  33.134  12.889
64774W        W33168  17.030   4.234  11.536
64775W        W33169  14.973  24.725  10.306
64776W        W33170  19.095  10.754   2.604
64777W        W33171  31.605  28.959  12.465
64778W        W33172  38.309   7.357   1.968
64779W        W33173   0.078  21.466  14.255
64780W        W33174  35.644  26.280   1.030
64781W        W33175  10.435  13.476   5.065
64782W        W33176  24.069  13.359  12.160
64783W        W33177   7.769  43.836   3.349
64784W        W33178  38.391  25.229   2.312
64785W        W33179  24.457   2.300  12.968
64786W        W33180   7.235  11.149  13.028
64787W        W33181  44.655  44.436   3.537
64788W        W33182   2.375  32.180   3.874
64789W        W33183  41.589  25.581   1.379
64790W        W33184   2.987   0.294  14.249
64791W        W33185  25.180  29.784   1.498
64792W        W33186  21.009  11.249   1.436
64793W        W33187   4.755  32.382  14.444
64794W        W33188  32.131  26.143   1.263
64795W        W33189  38.982  44.452   2.210
64796W        W33190  31.546   3.479  10.924
64797W        W33191   8.331  42.263   3.943
64798W        W33192  18.640   0.723   0.539
64799W        W33193  30.271   1.707   2.705
64800W        W33194  30.447  31.970   0.537
64801W        W33195  36.490  37.126  13.005
64802W        W33196  14.656  32.699   3.282
64803W        W33197   8.586  40.705  13.067
64804W        W33198  33.685   0.409   3.912
64805W        W33199  29.043   1.969  12.551
64806W        W33200   9.223  31.192   0.308
64807W        W33201  13.411  11.663  11.530
64808W        W33202  42.505  44.053   2.702
64809W        W33203  29.329  16.179   1.818
64810W        W33204  10.877   9.078  13.436
64811W        W33205  19.827  22.564  13.660
64812W        W33206  25.831   3.188  11.963
64813W        W33207  30.321  23.389   0.324
64814W        W33208   2.408  43.515  11.244
64815W        W33209  33.587  34.897   3.753
64816W        W33210  18.819  20.102  12.440
64817W        W33211  16.305  39.375   1.383
64818W        W33212   2.440  14.345   2.870
64819W        W33213  33.229  37.143  11.410
64820W        W33214   0.545  40.927   4.221
64821W        W33215  28.174  42.457  11.110
64822W        W33216  32.651  39.129  14.964
64823W        W33217  43.524  21.772  14.264
64824W        W33218  22.642  20.967  12.787
64825W        W33219  23.481  15.348   1.115
64826W        W33220  17.977  40.851   2.357
64827W        W33221  10.776  10.868  13.096
64828W        W33222  20.114   0.728   2.420
64829W        W33223  26.524  19.244   1.263
64830W        W33224  26.571  38.994  14.268
64831W        W33225  27.995  19.004  12.870
64832W        W33226  27.921  18.540   4.248
64833W        W33227   0.873  30.141   1.938
64834W        W33228  11.868  13.930  12.158
64835W        W33229   4.285   1.602  11.578
64836W        W33230  39.999  11.270  14.752
64837W        W33231  40.887  18.417  13.116
64838W        W33232  19.998  19.101  10.700
64839W        W33233  25.676  38.398   1.467
64840W        W33234  25.523  43.705  14.954
64841W        W33235   3.403   8.346   3.187
64842W        W33236  33.900  10.436   2.043
64843W        W33237  35.493  17.549  14.257
64844W        W33238   5.709  34.156   3.474
64845W        W33239   0.331  15.820   4.531
64846W        W33240  10.313  10.042  11.095
64847W        W33241  28.530  27.997  14.484
64848W        W33242   2.346  15.287  11.979
64849W        W33243  14.854  38.574   1.848
64850W        W33244   3.003  37.522  11.533
64851W        W33245  18.984  41.790   2.464
64852W        W33246  15.850  26.719  14.003
64853W        W33247   3.898  10.567   4.717
64854W        W33248  21.571  32.333   1.797
64855W        W33249   2.962  15.338   3.180
64856W        W33250  37.510   1.905   2.278
64857W        W33251  23.850   9.364   2.390
64858W        W33252  38.357  44.847   4.573
64859W        W33253  31.113   6.978   1.834
64860W        W33254  14.662  10.418   0.795
64861W        W33255  39.704   0.249   1.782
64862W        W33256  19.808   4.476  14.756
64863W        W33257  27.649  32.963   0.804
64864W        W33258   7.512  20.898  11.102
64865W        W33259  32.591   9.294  13.935
64866W        W33260  23.049   0.906  11.021
64867W        W33261  23.549  15.761   0.765
64868W        W33262  23.719  30.620  12.323
64869W        W33263  30.064  43.375   1.436
64870W        W33264  30.927   0.886   0.061
64871W        W33265  36.513  32.998   4.667
64872W        W33266  29.387  20.433   3.579
64873W        W33267  42.274  14.517   3.834
64874W        W33268  29.640  21.725   1.739
64875W        W33269   2.782  26.012  10.632
64876W        W33270  24.574  43.447  11.621
64877W        W33271   3.181  39.916   2.610
64878W        W33272  37.537  12.135  13.035
64879W        W33273   9.907   0.786  13.082
64880W        W33274  12.879  34.931  14.633
64881W        W33275  32.932  11.791   1.200
64882W        W33276  31.069   0.415  10.678
64883W        W33277  17.858  24.460   1.412
64884W        W33278  34.756  40.412   2.681
64885W        W33279  18.862  21.258  14.568
64886W        W33280  36.417   6.743  11.216
64887W        W33281  32.531  25.737  12.032
64888W        W33282  28.581  30.146  12.027
64889W        W33283  37.820  41.541   3.676
64890W        W33284   0.929  36.877   1.235
64891W        W33285  38.015  26.410   1.180
64892W        W33286  17.975  36.472   3.825
64893W        W33287  10.646  42.157  11.753
64894W        W33288  14.114  28.702  12.045
64895W        W33289  22.823  23.247  13.915
64896W        W33290   0.210  12.621   3.357
64897W        W33291  14.787   7.387  14.794
64898W        W33292  23.982  41.412  12.992
64899W        W33293  14.283  17.249  13.503
64900W        W33294  34.208  36.273  11.032
64901W        W33295  23.405   6.907   2.695
64902W        W33296  20.032  44.389   4.932
64903W        W33297  34.398   5.497   3.364
64904W        W33298  25.536  30.438   3.586
64905W        W33299   7.820  28.692  14.892
64906W        W33300  26.297  28.120  11.073
64907W        W33301  44.722  28.622  10.386
64908W        W33302  23.733  19.591   2.478
64909W        W33303  21.040   6.719  12.133
64910W        W33304  28.075  37.523   2.126
64911W        W33305   1.416  15.364   3.600
64912W        W33306  14.214  32.854   2.149
64913W        W33307  38.413   7.390  14.870
64914W        W33308  25.310  44.659  14.786
64915W        W33309  29.504  40.307   4.640
64916W        W33310  15.636  15.253   4.815
64917W        W33311  36.600   7.331   0.408
64918W        W33312   8.780  42.513  12.073
64919W        W33313  17.201  39.405   2.354
64920W        W33314  43.065   3.333  13.989
64921W        W33315  41.704  35.485   2.773
64922W        W33316   1.405  25.717   1.396
64923W        W33317  11.249  30.443  10.536
64924W        W33318  13.832  17.170   0.666
64925W        W33319  10.420  19.778   3.780
64926W        W33320  18.070  38.592   2.697
64927W        W33321  34.100  13.778   2.855
64928W        W33322   2.813  38.593  12.380
64929W        W33323   0.294   1.951  12.037
64930W        W33324  14.375  12.792   2.264
64931W        W33325  25.228  32.233  13.024
64932W        W33326  19.250  39.743   2.900
64933W        W33327  13.262  41.529   3.824
64934W        W33328  31.043   9.877   3.738
64935W        W33329  20.531  37.230   4.017
64936W        W33330  36.073  34.060  14.660
64937W        W33331  36.333  25.542  10.568
64938W        W33332  14.352  27.596  10.611
64939W        W33333  23.526   1.979   3.950
64940W        W33334  28.571   2.029  11.467
64941W        W33335   8.799  14.879   4.239
64942W        W33336  32.491   0.060  14.464
64943W        W33337  27.211  34.825   0.506
64944W        W33338  43.231   9.454  11.869
64945W        W33339   1.722   6.627  12.180
64946W        W33340   9.151  21.093  12.049
64947W        W33341  29.279  31.678  10.772
64948W        W33342  17.334  37.530   3.684
64949W        W33343  17.045  33.569  11.936
64950W        W33344  12.590  42.940  14.499
64951W        W33345  18.253   5.728  11.777
64952W        W33346  40.884  38.527  13.909
64953W        W33347   3.797  40.272  13.826
64954W        W33348  26.463   8.988   1.758
64955W        W33349   3.195  33.834  14.726
64956W        W33350   1.968  14.163   1.316
64957W        W33351  16.602  11.874   3.307
64958W        W33352  41.218   7.740  10.947
64959W        W33353  32.966  24.442   1.098
64960W        W33354  38.612  25.707   2.321
64961W        W33355  17.213   2.063   3.149
64962W        W33356  12.299   3.441  10.692
64963W        W33357  33.271  30.163  14.791
64964W        W33358   5.730  28.388  13.506
64965W        W33359  32.239   2.481  14.344
64966W        W33360  34.052  18.994   4.605
64967W        W33361  15.247  39.034   4.623
64968W        W33362  25.502  34.591  13.355
64969W        W33363  13.051  14.442  12.007
64970W        W33364  41.953  21.758   0.432
64971W        W33365  32.106  39.332   4.854
64972W        W33366  41.801  37.406   0.754
64973W        W33367  22.285  29.709   3.395
64974W        W33368   5.555  35.405   2.839
64975W        W33369  21.110  34.846   2.402
64976W        W33370  22.271   4.588   0.358
64977W        W33371  28.497  36.899  13.850
64978W        W33372   7.238  20.563   0.398
64979W        W33373  15.692  19.003  13.949
64980W        W33374   3.926   0.309  11.649
64981W        W33375  26.002  35.980   1.217
64982W        W33376  43.902  37.373  13.779
64983W        W33377  12.596  15.868  13.336
64984W        W33378   6.758  35.469  12.369
64985W        W33379  41.512  32.919   0.010
64986W        W33380   6.135  16.640  12.506
64987W        W33381  13.726  38.292  11.814
64988W        W33382  16.793  21.142   2.364
64989W        W33383  11.284  31.512   2.821
64990W        W33384   9.695   6.519   0.300
64991W        W33385  39.648  35.516  12.128
64992W        W33386  10.009  35.030   2.792
64993W        W33387  13.099  12.074  11.567
64994W        W33388   6.968  26.189   1.353
64995W        W33389  26.030  35.140  12.813
64996W        W33390  31.128   3.787  11.516
64997W        W33391  20.384  28.365  14.874
64998W        W33392  11.218  30.824   3.435
64999W        W33393  19.077   1.714  13.038
65000W        W33394  34.345  40.581   2.358
65001W        W33395   6.176  12.868   1.823
65002W        W33396  28.005  42.709   0.025
65003W        W33397  15.882  13.878  12.108
65004W        W33398   2.921  19.030  13.518
65005W        W33399  11.233   0.235   4.221
65006W        W33400  17.864  26.350  12.153
65007W        W33401  12.380  11.848  12.490
65008W        W33402  13.240  16.649   3.558
65009W        W33403  35.983  18.668  10.554
65010W        W33404  14.364  19.556   1.783
65011W        W33405  26.208   1.654  13.004
65012W        W33406  19.622  39.401   3.028
65013W        W33407   7.674  35.293   4.088
65014W        W33408   9.909  17.528  11.377
65015W        W33409  25.539  22.596   1.284
65016W        W33410  15.976  40.970  13.515
65017W        W33411  44.866   0.304   1.328
65018W        W33412   3.245  12.395   3.748
65019W        W33413  14.308  37.325  10.707
65020W        W33414   0.054  25.500  10.418
65021W        W33415   9.240  37.408  14.451
65022W        W33416  41.592  27.579   3.397
65023W        W33417  34.986  18.785   2.286
65024W        W33418  29.800  33.860   0.934
65025W        W33419  13.477  19.780   3.547
65026W        W33420  14.826   9.740  10.150
65027W        W33421  17.234  13.301   4.280
65028W        W33422  11.294   5.946   0.788
65029W        W33423  33.369  25.941  11.479
65030W        W33424  14.794  14.329  13.833
65031W        W33425   1.739  42.369  13.462
65032W        W33426  14.520   1.705   1.824
65033W        W33427  19.302   7.975  12.854
65034W        W33428  12.392  41.206  11.135
65035W        W33429  33.412  12.645  10.701
65036W        W33430  37.344   4.384   2.588
65037W        W33431  14.814  14.062  13.402
65038W        W33432  23.543  35.563  11.994
65039W        W33433  10.380  26.259   1.824
65040W        W33434  26.524  13.257  12.005
65041W        W33435   2.984  37.912   3.165
65042W        W33436   6.419   6.943  12.061
65043W        W33437  16.698  37.966  12.378
65044W        W33438  39.774  31.648   4.457
65045W        W33439  11.652   4.875   2.923
65046W        W33440  24.997   7.848  12.030
65047W        W33441  40.825  13.381   1.277
65048W        W33442  22.559  18.587  11.785
65049W        W33443  35.933  21.126   2.960
65050W        W33444  29.383  30.469  11.127
65051W        W33445  14.510   6.769  11.789
65052W        W33446  29.569   7.380   1.050
65053W        W33447  21.609  26.289   4.383
65054W        W33448  32.116   8.776  11.392
65055W        W33449  36.007  27.206  13.615
65056W        W33450  11.239  32.378   1.283
65057W        W33451  15.658  41.658  10.463
65058W        W33452  23.948   3.751  12.379
65059W        W33453  43.551  26.626  12.919
65060W        W33454  13.017  15.206  14.928
65061W        W33455  38.172  13.928   4.153
65062W        W33456  20.027  10.444   9.931
65063W        W33457  17.769   3.211   0.710
65064W        W33458  24.741  16.109   2.760
65065W        W33459   2.917  32.844   0.736
65066W        W33460  35.544  32.233  12.005
65067W        W33461  19.816  20.285  12.162
65068W        W33462  24.392   1.885   0.443
65069W        W33463   7.713  18.325   3.750
65070W        W33464  36.544  40.190   1.838
65071W        W33465  34.452  34.036   2.686
65072W        W33466  16.148  25.929  14.699
65073W        W33467  13.631  24.648  14.810
65074W        W33468  35.375   1.510  13.347
65075W        W33469  26.187  43.915  14.204
65076W        W33470  36.012  10.609   1.413
65077W        W33471  25.188   4.491  11.394
65078W        W33472  12.538  44.063   2.924
65079W        W33473   9.024   5.766   2.889
65080W        W33474  16.285  39.505  11.705
65081W        W33475   9.725  15.121  13.925
65082W        W33476   9.888  25.300  12.428
65083W        W33477  31.111   5.263   4.178
65084W        W33478  18.124  26.608  13.790
65085W        W33479  27.279   5.144   4.186
65086W        W33480  13.603  14.413  11.147
65087W        W33481   7.900  31.395  12.465
65088W        W33482  23.947  43.780  13.685
65089W        W33483  41.252  18.238   2.292
65090W        W33484  37.582  21.610   4.509
65091W        W33485  32.677   5.610  12.326
65092W        W33486  14.361  41.726  13.978
65093W        W33487  40.108   2.379   0.717
65094W        W33488  21.723  28.668   4.588
65095W        W33489  21.067   8.102  12.504
65096W        W33490   2.331  18.418  10.477
65097W        W33491  17.462  20.998   1.813
65098W        W33492  26.120  33.306   2.173
65099W        W33493  11.437   6.539   2.118
65100W        W33494  44.349  37.531  14.269
65101W        W33495  42.395  23.391  10.431
65102W        W33496   3.755  21.558  12.586
65103W        W33497  40.535  23.189  12.289
65104W        W33498  30.218  28.629   2.464
65105W        W33499  17.193  24.484  11.894
65106W        W33500   7.445   7.362  14.186
65107W        W33501  15.390   3.219  13.988
65108W        W33502  17.049  31.067   4.018
65109W        W33503  35.618  12.534  13.833
65110W        W33504  24.157  40.219  14.325
65111W        W33505  17.228  37.519   2.762
65112W        W33506  18.543  35.719  12.525
65113W        W33507  19.667  39.080  13.072
65114W        W33508   1.816  39.554   3.616
65115W        W33509   9.188  42.041  10.755
65116W        W33510  27.084   1.885   0.842
65117W        W33511  32.470  13.124   2.940
65118W        W33512  26.421  29.223   3.210
65119W        W33513  22.672  16.776   2.776
65120W        W33514  11.435   8.713   0.928
65121W        W33515  30.389  40.942  14.839
65122W        W33516  17.299  11.801  13.017
65123W        W33517  10.031   8.957   1.092
65124W        W33518  39.379  19.574   0.547
65125W        W33519  20.760   0.216   3.655
65126W        W33520  38.224  18.933  12.270
65127W        W33521  33.486  36.952  13.390
65128W        W33522  43.516   8.365   0.284
65129W        W33523  28.891  42.745  10.682
65130W        W33524  42.857  26.317  10.299
65131W        W33525  12.232   7.394   1.620
65132W        W33526  24.096  28.154   2.248
65133W        W33527  29.096   0.011  12.098
65134W        W33528  26.159  40.768  14.281
65135W        W33529  35.092  27.396  12.478
65136W        W33530  21.550  40.077   1.412
65137W        W33531  41.413  35.932  14.570
65138W        W33532  23.229  16.064   1.773
65139W        W33533   5.919  26.213  12.083
65140W        W33534  33.554  13.582  11.238
65141W        W33535  36.044  44.305   4.599
65142W        W33536   5.849  37.343   0.251
65143W        W33537   3.738  33.688  11.144
65144W        W33538  42.830  22.659   0.025
65145W        W33539  20.729  25.645  12.590
65146W        W33540  29.833   5.605  11.964
65147W        W33541   1.868  33.518  10.750
65148W        W33542  29.194  28.100   4.122
65149W        W33543  17.774  40.604   4.163
65150W        W33544  21.263  16.252   3.742
65151W        W33545  21.441  10.305   1.216
65152W        W33546   6.826   8.837   3.701
65153W        W33547  21.072  40.558   2.811
65154W        W33548  41.644  31.248   2.741
65155W        W33549  38.919  17.740   1.393
65156W        W33550  35.471   8.570  11.962
65157W        W33551  11.934  29.632   3.629
65158W        W33552  10.533  10.839   4.258
65159W        W33553  18.154  38.898  13.066
65160W        W33554  10.609  14.703   4.764
65161W        W33555  42.836  35.400  14.623
65162W        W33556  39.391  39.428  13.547
65163W        W33557  44.458  28.768   4.416
65164W        W33558  35.538  20.187   4.323
65165W        W33559  26.041  16.175  12.761
65166W        W33560  23.519  42.389   0.895
65167W        W33561  29.182  14.597   0.406
65168W        W33562   4.248  29.047   3.129
65169W        W33563  15.675  10.788  12.857
65170W        W33564  16.187  24.705  13.436
65171W        W33565  16.862  36.175   2.985
65172W        W33566  14.561  32.499   1.359
65173W        W33567  40.512  20.672   2.186
65174W        W33568  33.513  38.928   4.001
65175W        W33569  10.745  37.870   3.256
65176W        W33570  15.897  43.940   3.137
65177W        W33571  18.600  10.901   4.162
65178W        W33572  44.317  21.757   2.908
65179W        W33573  31.592  24.268   2.299
65180W        W33574  29.942  22.027  12.607
65181W        W33575  41.941  35.707   3.205
65182W        W33576  38.821  11.185  11.170
65183W        W33577  31.328   8.731   3.184
65184W        W33578  25.164  39.942   4.900
65185W        W33579  23.123   5.174   0.288
65186W        W33580  41.794  12.246  13.875
65187W        W33581  20.062   4.746   4.100
65188W        W33582  22.793  33.953  12.122
65189W        W33583  31.294  21.754  14.861
65190W        W33584  34.545  26.013  14.899
65191W        W33585  16.802   5.571  14.543
65192W        W33586  29.467   8.169  11.636
65193W        W33587  19.678  20.728  11.404
65194W        W33588  40.752  21.132   1.603
65195W        W33589  25.474  41.547   2.451
65196W        W33590  13.034  39.197   3.311
65197W        W33591  12.381   5.914   0.921
65198W        W33592   6.170  32.895   4.710
65199W        W33593   5.681  30.319  13.410
65200W        W33594  42.306   9.252   0.180
65201W        W33595   4.264  11.664   0.179
65202W        W33596  24.749  13.640  13.863
65203W        W33597  24.625  41.547   3.763
65204W        W33598  23.837   4.941   1.425
65205W        W33599  28.711  34.150  10.789
65206W        W33600  10.798  13.113   3.034
65207W        W33601  38.165  29.024  11.740
65208W        W33602  25.472  21.497   9.986
65209W        W33603  32.338  17.725  14.615
65210W        W33604  13.886  28.078   2.140
65211W        W33605  42.907  19.774  11.523
65212W        W33606   9.424  34.240   4.914
65213W        W33607  38.950  37.993  14.419
65214W        W33608  39.838  19.124   1.779
65215W        W33609  26.645  42.802   9.468
65216W        W33610  40.832  11.111   4.563
65217W        W33611  34.882  44.918  14.043
65218W        W33612  14.111  38.870   4.212
65219W        W33613   5.401  29.385   0.435
65220W        W33614  39.974  38.827  10.623
65221W        W33615  40.398  17.046   4.802
65222W        W33616  16.870  17.901   3.606
65223W        W33617  13.763  36.331   1.781
65224W        W33618  43.301  15.718  10.977
65225W        W33619   9.887  20.181   4.450
65226W        W33620   3.447  42.715  12.689
65227W        W33621   3.487  17.159  13.812
65228W        W33622  34.892   8.878  13.587
65229W        W33623  25.644   3.805   4.725
65230W        W33624   5.352  32.990   4.382
65231W        W33625  21.677  21.350   0.438
65232W        W33626   5.089  14.350  13.371
65233W        W33627   8.571   1.887   1.317
65234W        W33628   2.269   5.745  14.460
65235W        W33629  41.079  38.569   0.293
65236W        W33630   5.932  12.207   3.295
65237W        W33631  25.753  39.257  12.464
65238W        W33632  21.153  31.597   4.675
65239W        W33633  25.047  42.822  12.611
65240W        W33634  21.276  38.300  11.845
65241W        W33635  24.153  38.804   2.397
65242W        W33636  25.659  17.086   2.171
65243W        W33637   0.277  11.840   3.810
65244W        W33638  10.311  32.835  14.463
65245W        W33639  18.773  37.075   2.343
65246W        W33640  20.488  41.746  11.888
65247W        W33641  11.410  33.940  10.741
65248W        W33642  22.528   8.563   4.857
65249W        W33643  38.946  34.850   0.449
65250W        W33644   9.337   3.655  14.896
65251W        W33645  12.037  21.353  12.512
65252W        W33646  27.185   8.394   4.925
65253W        W33647  37.832  16.820   1.428
65254W        W33648  22.085  21.509   4.587
65255W        W33649  30.047   3.859   3.793
65256W        W33650  36.390  30.660   2.104
65257W        W33651   6.156  18.812  13.303
65258W        W33652  21.538  23.275   1.248
65259W        W33653  15.898  30.178  13.831
65260W        W33654  44.077  36.371   5.032
65261W        W33655   9.268  22.956   0.102
65262W        W33656   2.754   2.851  13.266
65263W        W33657  17.124  43.056  14.872
65264W        W33658  34.588   2.251  14.753
65265W        W33659  35.083   0.425  14.821
65266W        W33660  39.089  32.058   4.206
65267W        W33661   3.394  20.657  14.017
65268W        W33662  32.946  36.545   2.279
65269W        W33663  17.573   4.506  13.347
65270W        W33664  10.579  21.170   3.716
65271W        W33665  12.962   3.397  12.946
65272W        W33666   3.252  43.305  14.697
65273W        W33667  27.656  29.157   4.194
65274W        W33668  35.085  29.206   1.139
65275W        W33669  16.160  13.769   0.971
65276W        W33670  43.192  40.807   3.175
65277W        W33671   5.324  13.664   3.830
65278W        W33672  24.169  42.408  14.727
65279W        W33673  25.305  37.690   3.628
65280W        W33674   1.095  23.155   4.865
65281W        W33675  15.064  20.471  13.839
65282W        W33676  41.867  27.428  11.925
65283W        W33677  23.875  28.852   4.038
65284W        W33678  18.689  30.727  10.176
65285W        W33679  27.383  14.110  11.178
65286W        W33680  17.154  20.577  12.035
65287W        W33681  38.416  35.705  11.921
65288W        W33682  34.853  33.837  12.421
65289W        W33683   9.299  11.481   0.756
65290W        W33684   3.237  41.407   4.673
65291W        W33685  11.066  37.974   0.001
65292W        W33686  27.841  20.350   1.312
65293W        W33687  40.939  40.276  10.735
65294W        W33688   9.370  19.580  12.009
65295W        W33689  40.974  42.142  10.624
65296W        W33690  13.767   2.300  14.150
65297W        W33691   7.389  39.782   1.440
65298W        W33692  41.724  13.730  12.358
65299W        W33693  11.470   1.856   3.126
65300W        W33694  42.514   3.716  14.733
65301W        W33695   2.936  14.100   3.550
65302W        W33696   7.339  19.819  11.974
65303W        W33697  34.632  32.876   0.471
65304W        W33698  16.968  41.084   4.173
65305W        W33699  17.320  23.435   4.292
65306W        W33700  13.022   9.278   3.728
65307W        W33701   3.354  26.437   1.753
65308W        W33702   5.215  39.173   3.577
65309W        W33703  23.636  21.308  10.722
65310W        W33704   8.374   4.338  10.956
65311W        W33705  17.079   7.908  13.434
65312W        W33706  37.995  30.662   9.939
65313W        W33707  13.489  27.208   3.108
65314W        W33708  39.467   5.758   2.386
65315W        W33709  10.267  18.469   2.765
65316W        W33710  26.566  35.071   2.559
65317W        W33711  40.578  19.195   3.397
65318W        W33712  41.670  29.474  10.804
65319W        W33713  21.503  13.290  13.994
65320W        W33714  23.473   6.681   0.886
65321W        W33715  28.869   1.402  13.624
65322W        W33716  41.065  29.895  13.886
65323W        W33717  23.840  20.506  14.928
65324W        W33718  16.602   8.902  11.115
65325W        W33719   8.733  41.029  10.921
65326W        W33720  20.965  36.851  10.394
65327W        W33721  44.729  15.633  12.502
65328W        W33722  30.253  22.448  12.472
65329W        W33723  23.344  36.073  13.496
65330W        W33724  41.784  37.817  13.905
65331W        W33725   8.065   0.500  12.678
65332W        W33726  28.994  13.594   3.279
65333W        W33727  27.166   3.386   4.734
65334W        W33728   7.702  36.873  12.449
65335W        W33729  16.741  38.990   1.830
65336W        W33730  24.351  19.565   4.497
65337W        W33731  38.907  42.425   4.950
65338W        W33732  11.326  42.480   4.624
65339W        W33733  27.186  15.171  10.763
65340W        W33734   4.080  36.085   2.468
65341W        W33735  36.925  31.641  12.661
65342W        W33736  28.381   3.842  12.656
65343W        W33737  21.140  32.164  11.257
65344W        W33738  39.402  32.301   2.370
65345W        W33739  43.327   0.218   3.688
65346W        W33740  21.002   6.006   1.171
65347W        W33741  10.301  40.877  12.659
65348W        W33742  15.469   8.272  11.930
65349W        W33743   3.837  26.074  10.555
65350W        W33744  12.140   9.862   0.825
65351W        W33745  29.836  23.237  11.138
65352W        W33746  41.551  25.492   0.476
65353W        W33747   7.491   4.121  11.065
65354W        W33748  17.353  40.597   5.005
65355W        W33749  17.259  21.526   3.689
65356W        W33750  33.408   9.747   1.749
65357W        W33751   9.242   7.495   2.136
65358W        W33752   2.337  20.371   3.855
65359W        W33753  36.136  17.039  11.612
65360W        W33754  35.502  13.210  13.320
65361W        W33755  39.811  30.628   0.926
65362W        W33756  26.959  12.666  11.608
65363W        W33757  10.896   5.803   4.559
65364W        W33758  16.818  40.863  10.712
65365W        W33759  21.553  39.989  13.724
65366W        W33760   4.283  31.428  11.130
65367W        W33761  13.782  10.135  13.994
65368W        W33762  12.880  28.155  13.509
65369W        W33763  12.601  26.004  11.098
65370W        W33764  40.891  33.642  10.669
65371W        W33765  17.845   9.189   1.202
65372W        W33766   5.746  11.130  13.853
65373W        W33767  37.349   7.276   2.971
65374W        W33768  22.667   6.195   4.650
65375W        W33769  28.895  23.639   1.837
65376W        W33770  24.017   2.990   4.602
65377W        W33771  37.305  16.754   4.484
65378W        W33772  11.622  12.053   1.017
65379W        W33773  13.289  40.594   3.842
65380W        W33774  13.185  43.244  11.214
65381W        W33775  10.229  35.897   1.002
65382W        W33776  13.257  28.564  10.682
65383W        W33777  24.670  10.169   3.718
65384W        W33778   6.865  37.372   2.344
65385W        W33779  21.341  16.242   0.437
65386W        W33780  29.626  13.076   4.838
65387W        W33781   1.542  31.552   1.247
65388W        W33782  33.626  26.000   1.775
65389W        W33783  37.596  19.054  11.587
65390W        W33784  24.851  34.056  11.168
65391W        W33785  39.012  37.241  11.191
65392W        W33786  10.567   8.226   0.695
65393W        W33787  41.718  29.898  11.164
65394W        W33788  44.563  41.170  14.831
65395W        W33789  44.867  37.489  11.605
65396W        W33790  25.060   6.013   4.046
65397W        W33791  11.258  32.996   4.185
65398W        W33792  17.681  43.427  10.607
65399W        W33793  10.811  21.043  11.903
65400W        W33794  17.477  22.112  10.812
65401W        W33795  22.399  44.677  13.536
65402W        W33796   3.135   2.893  12.918
65403W        W33797  34.072  29.479   2.555
65404W        W33798  15.066  11.720  10.611
65405W        W33799   3.806  39.919  13.005
65406W        W33800  41.840   8.879   5.205
65407W        W33801  23.639  29.034  10.999
65408W        W33802  40.161  14.596  14.665
65409W        W33803  43.934   6.342   5.078
65410W        W33804   4.575   7.915   4.544
65411W        W33805  23.494  23.549   1.849
65412W        W33806  20.049  14.560  12.642
65413W        W33807  25.657  41.028  12.990
65414W        W33808  23.395  44.292   3.559
65415W        W33809  26.723  28.442  10.995
65416W        W33810  31.988  43.087  12.883
65417W        W33811  41.896  36.203   3.084
65418W        W33812  29.876  30.999  12.343
65419W        W33813  28.901  43.942   1.335
65420W        W33814  38.954  38.929  14.247
65421W        W33815  24.022  11.866  12.958
65422W        W33816   9.321   5.421   4.099
65423W        W33817  24.043  35.252   4.709
65424W        W33818  10.794  33.644  13.408
65425W        W33819  30.688   3.418   1.629
65426W        W33820  13.423  23.671  10.934
65427W        W33821  14.747  11.879  11.900
65428W        W33822  26.044  14.520   2.249
65429W        W33823  34.743  26.757   0.074
65430W        W33824  31.813  27.358  12.285
65431W        W33825  36.192  16.728   0.678
65432W        W33826  13.451  33.956   2.245
65433W        W33827   4.382  35.322   4.189
65434W        W33828  19.570  43.947   0.720
65435W        W33829  30.533  12.153  11.541
65436W        W33830  39.894  12.712  13.163
65437W        W33831  23.753   9.209   0.062
65438W        W33832  33.941  19.299   5.033
65439W        W33833  27.752  22.713  13.968
65440W        W33834  21.639  39.798   2.923
65441W        W33835  27.834  11.679   1.036
65442W        W33836   5.877  41.334   1.306
65443W        W33837  41.664   7.126   0.347
65444W        W33838   1.366  44.808   3.567
65445W        W33839  25.232  30.219   4.003
65446W        W33840  21.364  36.488   2.504
65447W        W33841  30.460  10.728   0.993
65448W        W33842   9.938  33.995   0.831
65449W        W33843   9.788  43.194  11.587
65450W        W33844   9.631  32.644  14.846
65451W        W33845  19.989  27.520  12.991
65452W        W33846  23.790  10.309  14.425
65453W        W33847   6.927  35.967   3.295
65454W        W33848   3.906   6.315   1.914
65455W        W33849  10.959  26.373   3.404
65456W        W33850  27.942  33.438  10.666
65457W        W33851  15.767  21.138  14.417
65458W        W33852  11.357  19.460   0.325
65459W        W33853  23.458  22.690   1.230
65460W        W33854  27.652  16.166  10.587
65461W        W33855  28.032  10.940   2.490
65462W        W33856  37.353  15.644  12.920
65463W        W33857   6.230  42.011   4.961
65464W        W33858   2.199  31.670  12.516
65465W        W33859  40.136  40.962  11.064
65466W        W33860  23.582  18.591   1.423
65467W        W33861  40.483  27.089  14.128
65468W        W33862   3.703   9.121   2.847
65469W        W33863  10.734  25.469  10.661
65470W        W33864  11.781  18.536  11.581
65471W        W33865  27.588  36.138   4.712
65472W        W33866  34.626  25.044  14.371
65473W        W33867  32.839  40.201   3.430
65474W        W33868   9.746   8.435   4.288
65475W        W33869  35.804  11.432   3.212
65476W        W33870  44.853  38.097   2.425
65477W        W33871  43.279  24.945   3.283
65478W        W33872  36.397  21.723   3.567
65479W        W33873   4.972   0.334  10.230
65480W        W33874  11.163  41.413   2.768
65481W        W33875  35.350   4.823   3.180
65482W        W33876  24.536  39.043   3.680
65483W        W33877   6.276  22.544   1.751
65484W        W33878   8.879  29.029   3.166
65485W        W33879  30.146  14.571  12.058
65486W        W33880   9.653  29.370  12.098
65487W        W33881  41.899  23.561   0.863
65488W        W33882  20.578   8.250  12.452
65489W        W33883   5.601  22.189  12.467
65490W        W33884  14.608  29.232   0.301
65491W        W33885   0.875  28.720  11.372
65492W        W33886  19.959  24.430   4.221
65493W        W33887  34.442   6.727   0.323
65494W        W33888   9.822   0.620  13.963
65495W        W33889  42.825  39.116  12.906
65496W        W33890  20.566   2.730   4.643
65497W        W33891  20.049   1.327  11.360
65498W        W33892  22.582  32.367   3.669
65499W        W33893   4.819  17.494   1.844
65500W        W33894  41.663  28.596  13.987
65501W        W33895  28.659  36.379   3.363
65502W        W33896   3.590   4.789   3.817
65503W        W33897  43.889  10.670  10.903
65504W        W33898  44.298   6.950  12.081
65505W        W33899  15.234   0.504  10.712
65506W        W33900  26.632   1.301  11.519
65507W        W33901  36.483   6.816  13.407
65508W        W33902  19.711  10.230  12.082
65509W        W33903  11.133  21.660  13.856
65510W        W33904  30.150  23.612  13.607
65511W        W33905   2.548  29.081   4.215
65512W        W33906  28.471  10.333  14.096
65513W        W33907  19.058   9.446  14.367
65514W        W33908  17.260  42.405  11.113
65515W        W33909  29.329  37.433  11.509
65516W        W33910  26.202  38.023   4.711
65517W        W33911  27.666  36.776  12.451
65518W        W33912  23.104   2.419  13.339
65519W        W33913  24.453  42.503  13.446
65520W        W33914  24.507  37.284   2.883
65521W        W33915   5.219  32.148  14.340
65522W        W33916  37.552  42.812  11.433
65523W        W33917  26.686   7.296   4.674
65524W        W33918  10.292  33.028  11.395
65525W        W33919  18.177   3.967   0.647
65526W        W33920   9.360  19.207   0.951
65527W        W33921  30.999  30.060   3.362
65528W        W33922   1.443  27.514  13.809
65529W        W33923  17.542  30.891  14.054
65530W        W33924  13.545  16.046   1.347
65531W        W33925  16.836   1.199  11.338
65532W        W33926  21.161   4.601   0.877
65533W        W33927   6.784  42.482  11.951
65534W        W33928   4.624  33.845   0.955
65535W        W33929   5.952   6.984  11.153
65536W        W33930  15.345  33.013  11.194
65537W        W33931   8.706  41.058   3.550
65538W        W33932  11.622  15.504   3.803
65539W        W33933  41.635  23.962   4.756
65540W        W33934   5.213  40.672   1.706
65541W        W33935  30.157  33.618  14.403
65542W        W33936  23.428   9.993  14.727
65543W        W33937  15.397  23.983  14.351
65544W        W33938  30.983   0.229   4.056
65545W        W33939   6.682  30.124  10.769
65546W        W33940  40.993  25.617  10.777
65547W        W33941   1.451   9.055  14.716
65548W        W33942   3.753  29.850   3.150
65549W        W33943  13.741  38.427  14.058
65550W        W33944  37.598  34.402  12.365
65551W        W33945  21.574  28.547  14.562
65552W        W33946  43.758   1.992  11.047
65553W        W33947   3.223  21.533   3.314
65554W        W33948  44.064  11.114   0.292
65555W        W33949  44.070  19.508  14.997
65556W        W33950  30.928   7.213  13.434
65557W        W33951   7.647   3.122  12.924
65558W        W33952  20.447  39.384  12.474
65559W        W33953   0.820   7.230   4.563
65560W        W33954   3.247  43.406   3.694
65561W        W33955  23.592  29.623  12.031
65562W        W33956  21.183  16.772  10.852
65563W        W33957   3.211  37.492   1.467
65564W        W33958  17.096  13.328  12.681
65565W        W33959  29.559  40.356   1.977
65566W        W33960  34.063  23.615  11.955
65567W        W33961   4.401  14.508   0.333
65568W        W33962  17.029  18.587  11.028
65569W        W33963  32.659  13.483  13.087
65570W        W33964   1.334   0.546  12.049
65571W        W33965  14.050   1.400  11.542
65572W        W33966  43.169  27.639   2.825
65573W        W33967   6.970  36.377   4.244
65574W        W33968  12.817  39.454   0.396
65575W        W33969  44.717  35.089   0.926
65576W        W33970  19.229  22.603  12.464
65577W        W33971   5.216   2.711  14.921
65578W        W33972   2.814   3.411  14.941
65579W        W33973  37.368  29.625   3.366
65580W        W33974   8.388  15.075  11.790
65581W        W33975  15.697  19.072   9.927
65582W        W33976   1.894  26.459   1.513
65583W        W33977   7.657  42.338  13.772
65584W        W33978  37.536  43.187  11.040
65585W        W33979  17.564  32.613   1.973
65586W        W33980   6.907  13.188  13.065
65587W        W33981  35.134  22.501   1.291
65588W        W33982  13.236   5.315  12.466
65589W        W33983   0.518  26.362  14.350
65590W        W33984  13.527  31.076  13.993
65591W        W33985  43.989  32.185  13.500
65592W        W33986  44.936  19.006  12.965
65593W        W33987  16.332  20.668  11.471
65594W        W33988  32.010   3.448   2.329
65595W        W33989   5.398  29.850   3.602
65596W        W33990   1.890  21.478  14.764
65597W        W33991   1.924  32.427   3.790
65598W        W33992  35.913  20.967  12.509
65599W        W33993  36.511  10.290   3.199
65600W        W33994  42.867  25.570  14.468
65601W        W33995  17.860  15.735  14.448
65602W        W33996  29.498  28.673  12.458
65603W        W33997  17.812  19.641   1.323
65604W        W33998  38.429  20.271   5.080
65605W        W33999  32.311  18.144   4.220
65606W        W34000  12.803  12.872   3.755
65607W        W34001  36.504  13.099   1.942
65608W        W34002  36.542  41.827   1.460
65609W        W34003  20.370   4.370  12.885
65610W        W34004  39.494  37.390  11.401
65611W        W34005  28.867   5.688  13.381
65612W        W34006  29.905  17.634   3.705
65613W        W34007  23.807  15.361  13.573
65614W        W34008  10.326  31.938  12.564
65615W        W34009   5.664  18.817  10.833
65616W        W34010  12.916  27.930  12.020
65617W        W34011  41.666   7.080   5.079
65618W        W34012  15.253  21.896   0.998
65619W        W34013  11.419  17.202   0.737
65620W        W34014  15.543  37.643   1.249
65621W        W34015  16.058  30.840  11.441
65622W        W34016  41.575  17.558   0.325
65623W        W34017  33.537   8.800  13.157
65624W        W34018   4.272  11.695   2.741
65625W        W34019  11.434  15.512   5.366
65626W        W34020   3.365  12.886  11.992
65627W        W34021  32.158   4.045   2.603
65628W        W34022  39.587   7.232   1.374
65629W        W34023  40.381  19.089  11.677
65630W        W34024  20.702  12.290   4.904
65631W        W34025  38.028  22.341   4.753
65632W        W34026  20.541  24.565  14.733
65633W        W34027   4.936  24.718   4.479
65634W        W34028  16.162  12.425  11.600
65635W        W34029  10.875  20.126  11.385
65636W        W34030  42.130   2.579  11.437
65637W        W34031  44.821  11.235  13.914
65638W        W34032   2.939  35.871  14.881
65639W        W34033  20.170  40.539   0.296
65640W        W34034  15.344  22.118   1.854
65641W        W34035  32.940  39.723  11.588
65642W        W34036   8.203  15.530  13.123
65643W        W34037   6.293   0.865   2.877
65644W        W34038  41.341  26.969  13.996
65645W        W34039  40.076  39.046   2.200
65646W        W34040  41.480  14.112   2.465
65647W        W34041  40.515  17.082  14.836
65648W        W34042  21.246  28.043   1.788
65649W        W34043  23.439  32.929   3.884
65650W        W34044  21.265  37.436   0.283
65651W        W34045  18.066  31.756   2.179
65652W        W34046  15.156  33.135  12.133
65653W        W34047  21.969  11.708   1.771
65654W        W34048  21.517  25.036  11.515
65655W        W34049  25.522   6.300   3.919
65656W        W34050  26.948  43.172   1.540
65657W        W34051  32.016  37.473   1.282
65658W        W34052   6.743  42.721  14.837
65659W        W34053  33.619   8.757  12.653
65660W        W34054  14.074  12.575  12.552
65661W        W34055  15.333   9.767   0.523
65662W        W34056   0.141  14.015   4.300
65663W        W34057   5.290   8.029  12.594
65664W        W34058  27.256   7.410  14.892
65665W        W34059  43.441  30.034  10.764
65666W        W34060  37.104  23.520  13.406
65667W        W34061   5.649  39.759  12.570
65668W        W34062   2.275  19.481  11.252
65669W        W34063  13.226  40.006  13.390
65670W        W34064   2.352  28.030  12.975
65671W        W34065  14.133  43.529   4.099
65672W        W34066  39.903  26.612  12.296
65673W        W34067  14.272  14.636  10.978
65674W        W34068   7.667   1.501   4.238
65675W        W34069  36.039  22.191  12.873
65676W        W34070   9.143  40.076  13.459
65677W        W34071   4.869  41.777   4.332
65678W        W34072  23.867  27.041  10.954
65679W        W34073  19.162  17.649  11.531
65680W        W34074  14.919  43.377  10.738
65681W        W34075   0.575  43.068   3.734
65682W        W34076  31.437  41.405  14.020
65683W        W34077  22.165  19.317  11.129
65684W        W34078  39.480  37.064   0.598
65685W        W34079  38.340  30.698  11.490
65686W        W34080  16.831  32.933   4.180
65687W        W34081  17.992  19.129  11.488
65688W        W34082  18.135  43.834  12.538
65689W        W34083  15.808   8.380   3.169
65690W        W34084  27.951   5.747  10.947
65691W        W34085   3.441  40.343  14.281
65692W        W34086  30.314   3.108  13.597
65693W        W34087  19.819  40.381  13.359
65694W        W34088  13.951  41.827  10.789
65695W        W34089  39.468  37.050   3.374
65696W        W34090  12.585  34.620   2.824
65697W        W34091  27.711  11.162  13.478
65698W        W34092  16.522  13.842   2.748
65699W        W34093  33.455  26.443  11.491
65700W        W34094  38.752  30.657  10.589
65701W        W34095  41.332  35.791   3.773
65702W        W34096  10.744  41.875  12.719
65703W        W34097  20.435  12.726  11.688
65704W        W34098   9.962  32.610  13.996
65705W        W34099  32.941  37.981  14.959
65706W        W34100  39.494  25.772  14.281
65707W        W34101  19.181  19.211   0.260
65708W        W34102  17.507   4.424   3.415
65709W        W34103   9.900  28.131   1.775
65710W        W34104  40.993   2.825  14.362
65711W        W34105  30.921   0.389   0.551
65712W        W34106  26.098  28.551  13.829
65713W        W34107   6.726  13.352   1.937
65714W        W34108  21.202  29.769   2.273
65715W        W34109  40.970  40.792  10.810
65716W        W34110  16.561  21.205   0.576
65717W        W34111  42.363   8.307   2.382
65718W        W34112  38.730  43.403   2.683
65719W        W34113  25.155   7.755   5.186
65720W        W34114   5.347  19.764   4.415
65721W        W34115  16.672  23.014  14.774
65722W        W34116  43.785   7.907   0.344
65723W        W34117  17.662   7.471   4.903
65724W        W34118  31.997  38.478   1.151
65725W        W34119  13.271  39.334  14.763
65726W        W34120   1.297  10.864  10.720
65727W        W34121  32.769  27.363   4.061
65728W        W34122  20.735   9.825  14.391
65729W        W34123  21.175  36.660  13.473
65730W        W34124  32.531   4.942  13.344
65731W        W34125  12.311  29.878  12.105
65732W        W34126  41.580  22.124  13.987
65733W        W34127   0.092  13.079   4.429
65734W        W34128  11.355  24.532   0.749
65735W        W34129  29.265  22.530   0.850
65736W        W34130   5.257  29.500   4.572
65737W        W34131   6.854  26.766   9.802
65738W        W34132   9.555  30.745  13.579
65739W        W34133  17.773  14.570   2.173
65740W        W34134  10.822   7.452   1.686
65741W        W34135  40.972  22.185   2.149
65742W        W34136   1.000  10.178  12.478
65743W        W34137  41.870  13.379   3.197
65744W        W34138  39.472  11.146   4.921
65745W        W34139  37.374  31.029  13.531
65746W        W34140  15.735  21.752  11.146
65747W        W34141  14.737  20.796   3.533
65748W        W34142  19.967  42.767   2.503
65749W        W34143  30.576  18.600  14.215
65750W        W34144  24.216  43.426   5.413
65751W        W34145  10.157  20.598   4.244
65752W        W34146  25.502  38.923   2.813
65753W        W34147  35.554  38.558  11.091
65754W        W34148  23.437   9.748  13.358
65755W        W34149   7.665  44.882   4.985
65756W        W34150  16.027  29.072  11.519
65757W        W34151   3.281  41.940   1.306
65758W        W34152  38.897  38.004   3.202
65759W        W34153  27.487  26.928  14.972
65760W        W34154  26.940  19.550   0.503
65761W        W34155  34.878   7.781   2.324
65762W        W34156  16.991  41.402  10.700
65763W        W34157   3.425  13.651  14.320
65764W        W34158  41.971  22.550  11.277
65765W        W34159  25.158  36.384   3.689
65766W        W34160  11.200  17.546   3.879
65767W        W34161  40.828  42.432  11.046
65768W        W34162  27.047   3.506   2.390
65769W        W34163   7.961  18.396  13.188
65770W        W34164  31.805  40.882  10.390
65771W        W34165   3.493  41.475   2.311
65772W        W34166   3.579   1.753  12.576
65773W        W34167  25.123   4.985  11.558
65774W        W34168  28.496   4.729   1.376
65775W        W34169  24.673  29.202   4.532
65776W        W34170  36.934  30.766  14.421
65777W        W34171  27.226  38.814  14.428
65778W        W34172  44.745  34.596  12.972
65779W        W34173  15.230  22.481   0.232
65780W        W34174  38.295   2.336  12.172
65781W        W34175  39.266   3.048   3.984
65782W        W34176  18.039  40.979   0.558
65783W        W34177  12.729  24.014   3.223
65784W        W34178   9.313  26.831   0.878
65785W        W34179  12.628  38.530  13.573
65786W        W34180  24.851   0.334   0.154
65787W        W34181  25.772  10.347  13.295
65788W        W34182  31.875  30.995   4.815
65789W        W34183  17.406  37.053   3.103
65790W        W34184  38.451  24.257   1.645
65791W        W34185   4.740  26.344   1.350
65792W        W34186  10.475   5.317   0.824
65793W        W34187   2.919  33.198   1.474
65794W        W34188  34.492  29.925  11.658
65795W        W34189  36.973  43.915  11.361
65796W        W34190  23.357   8.692   9.810
65797W        W34191  36.877  42.823  14.834
65798W        W34192  41.035   4.185   4.654
65799W        W34193   2.779  42.636   2.746
65800W        W34194  38.853  14.590   4.533
65801W        W34195  22.557  15.857   1.799
65802W        W34196   0.989  19.338   2.947
65803W        W34197  30.798  18.128  10.286
65804W        W34198  40.968  39.311  12.723
65805W        W34199  30.804   3.356   4.140
65806W        W34200  23.090  23.737   4.036
65807W        W34201  36.639  38.478   2.767
65808W        W34202   1.016  18.622   5.051
65809W        W34203  19.334  23.076  11.731
65810W        W34204  21.401  43.268  14.386
65811W        W34205  22.532  31.193  13.417
65812W        W34206   2.183  33.469  11.970
65813W        W34207  15.207  20.198   3.343
65814W        W34208  26.923  11.742   2.260
65815W        W34209  22.873  34.580  13.283
65816W        W34210  19.855  29.462  11.560
65817W        W34211   8.797  42.767   0.407
65818W        W34212  25.901  33.160   3.947
65819W        W34213  42.515  39.766  13.443
65820W        W34214  10.369  13.150  12.641
65821W        W34215  13.876  42.014  13.097
65822W        W34216   8.447   6.466  11.914
65823W        W34217  15.047  19.369  13.509
65824W        W34218  25.032   6.504   3.133
65825W        W34219  15.234   6.791  13.482
65826W        W34220  13.688  35.606  10.803
65827W        W34221  42.277  31.086   3.244
65828W        W34222  27.450  30.366  11.107
65829W        W34223  21.593  33.469  13.032
65830W        W34224  36.668   7.768  10.474
65831W        W34225  42.827  16.016   4.637
65832W        W34226  35.640   7.438   3.303
65833W        W34227  12.065  10.370   2.734
65834W        W34228  33.548   6.121  14.000
65835W        W34229  24.166  19.653  13.523
65836W        W34230   1.166  42.343  11.831
65837W        W34231  40.992  22.024  12.884
65838W        W34232  22.747  37.524  12.480
65839W        W34233  26.723   3.968  10.353
65840W        W34234  30.580  40.928  13.434
65841W        W34235  43.361   8.675  12.374
65842W        W34236  38.033  31.506   3.728
65843W        W34237  37.862  40.496  14.460
65844W        W34238  12.318  24.937  11.279
65845W        W34239   4.632   7.301   5.053
65846W        W34240  41.298  31.585   1.323
65847W        W34241  44.164  19.283   5.241
65848W        W34242  28.637  42.453  13.355
65849W        W34243  44.308  10.080   0.770
65850W        W34244   2.765   1.879   0.299
65851W        W34245   3.869  33.198  11.798
65852W        W34246  21.857  22.909   3.502
65853W        W34247  27.762  25.472  11.187
65854W        W34248  11.094  18.362  12.165
65855W        W34249  37.590  41.802  14.342
65856W        W34250  16.037  22.276   1.241
65857W        W34251   1.268  34.080   3.225
65858W        W34252  33.841  37.400  11.450
65859W        W34253  40.251   4.926  10.381
65860W        W34254  15.020  29.128  14.337
65861W        W34255   0.500  22.705  14.270
65862W        W34256  38.518  38.120  10.406
65863W        W34257  27.700   2.505  13.134
65864W        W34258   2.513  29.466   2.677
65865W        W34259  35.089  11.855  12.475
65866W        W34260  34.898  23.086  10.692
65867W        W34261  31.405   3.709   4.886
65868W        W34262  30.431  19.262  11.711
65869W        W34263  23.912  11.131   4.026
65870W        W34264  26.002  26.256   3.000
65871W        W34265  10.173   9.315   3.534
65872W        W34266  22.107  16.814  11.929
65873W        W34267  13.057  28.146   4.123
65874W        W34268   5.374  21.525  10.508
65875W        W34269  30.755  33.380  14.989
65876W        W34270  13.341  29.201  11.277
65877W        W34271  21.540  29.407   4.152
65878W        W34272   1.079  27.120  13.927
65879W        W34273  28.905   2.967   2.613
65880W        W34274  39.925   0.951   4.165
65881W        W34275   8.699  28.918  14.343
65882W        W34276   7.717   5.952   4.655
65883W        W34277  41.537  27.436   0.034
65884W        W34278  35.191   7.984   4.097
65885W        W34279  20.348  31.945  10.799
65886W        W34280  14.705  15.169   4.598
65887W        W34281  15.640  44.579  11.231
65888W        W34282  41.393  17.997  12.618
65889W        W34283  21.419  30.592  14.791
65890W        W34284  44.561  28.968  12.541
65891W        W34285  30.403  41.318   0.218
65892W        W34286   7.952  43.802  11.170
65893W        W34287  37.561  11.106  13.535
65894W        W34288  34.908  15.697  11.952
65895W        W34289  41.381  21.745   3.230
65896W        W34290  35.143  41.517  11.160
65897W        W34291  43.580  12.198   4.046
65898W        W34292  25.510  21.797  12.066
65899W        W34293  30.543  33.921  10.994
65900W        W34294   1.946   7.993   2.196
65901W        W34295  41.788  40.467   1.422
65902W        W34296  13.430   1.307  12.621
65903W        W34297  33.497  24.615  10.197
65904W        W34298  18.121  41.030  12.095
65905W        W34299   5.427  11.429   1.444
65906W        W34300  43.292   2.309  10.666
65907W        W34301  13.106   0.367  14.208
65908W        W34302   1.641   3.413   0.938
65909W        W34303   7.256   2.968  13.538
65910W        W34304  21.072  26.669  12.151
65911W        W34305  25.245  19.827  14.738
65912W        W34306  10.251  12.760   1.798
65913W        W34307  31.054  20.858  14.786
65914W        W34308  44.236  11.378  10.756
65915W        W34309  41.325   5.411   1.287
65916W        W34310  36.918  12.706  10.704
65917W        W34311  24.474  34.385  14.985
65918W        W34312  23.109  20.983  14.986
65919W        W34313   4.793  18.291  14.418
65920W        W34314  44.276   1.682  12.060
65921W        W34315   1.270  13.347  14.376
65922W        W34316  14.863  29.794   1.412
65923W        W34317  21.493   8.489   0.763
65924W        W34318  34.910  26.043  10.775
65925W        W34319  18.497  25.141  10.747
65926W        W34320  10.892  25.694  14.421
65927W        W34321  23.052  17.570   1.161
65928W        W34322  36.332  34.830  12.079
65929W        W34323   2.249  24.028   3.454
65930W        W34324  22.127  16.304  11.905
65931W        W34325  29.742  10.619   2.764
65932W        W34326  21.798   6.803  12.447
65933W        W34327  35.429   1.698  11.990
65934W        W34328  40.739  18.198   2.354
65935W        W34329  26.583  15.134   1.747
65936W        W34330  30.280   3.720   1.704
65937W        W34331  34.620   2.199  10.728
65938W        W34332  10.713  12.717   2.081
65939W        W34333  42.933  35.854   5.484
65940W        W34334  18.137  27.601  13.402
65941W        W34335  17.098  33.083   0.491
65942W        W34336   5.979  25.099  12.905
65943W        W34337  33.656   7.742   4.307
65944W        W34338  38.781  42.596  12.063
65945W        W34339   4.523  39.804  11.057
65946W        W34340  28.668  31.076   2.976
65947W        W34341  10.144  41.356  12.535
65948W        W34342  28.104  36.334  10.836
65949W        W34343  17.142   1.847  12.109
65950W        W34344  39.265  26.528  10.719
65951W        W34345   1.273  12.737  12.234
65952W        W34346  15.515   2.965   4.538
65953W        W34347   4.967  39.524  14.905
65954W        W34348  15.816   5.505   3.616
65955W        W34349  26.061  26.237   3.927
65956W        W34350  13.694  32.845  10.645
65957W        W34351  34.887   8.973   1.494
65958W        W34352  27.738  18.949   0.265
65959W        W34353  36.052   4.974   3.130
65960W        W34354  20.255   5.131  10.066
65961W        W34355  35.536  26.303   0.510
65962W        W34356  18.837   6.789  14.465
65963W        W34357  18.531  23.528  12.061
65964W        W34358  37.308  26.807   4.167
65965W        W34359  18.667  29.004   1.932
65966W        W34360   3.657  24.331  11.156
65967W        W34361   2.877  13.161  10.580
65968W        W34362  29.197   9.829   0.271
65969W        W34363  14.932  40.355   1.699
65970W        W34364   8.920  32.365   0.419
65971W        W34365  10.844  15.752   3.235
65972W        W34366   7.798  22.579  13.733
65973W        W34367  35.269   3.321  14.011
65974W        W34368  27.566  40.680   2.104
65975W        W34369   2.227  11.591  14.515
65976W        W34370  20.813   3.771   0.961
65977W        W34371  20.669  18.114   3.644
65978W        W34372  14.942  28.114  11.214
65979W        W34373  22.259  24.732  12.048
65980W        W34374  10.907  19.297   3.198
65981W        W34375  39.948  37.490   2.166
65982W        W34376   2.405  36.084  10.106
65983W        W34377   4.465  30.566  10.916
65984W        W34378  25.112  34.539  12.321
65985W        W34379  13.357  12.868   2.385
65986W        W34380  28.154  32.949  14.345
65987W        W34381  20.526  15.130  14.952
65988W        W34382  13.621  32.355  10.745
65989W        W34383  41.307  12.977  10.840
65990W        W34384  29.649  33.747   1.539
65991W        W34385  42.533  29.919  11.635
65992W        W34386  13.145  35.816   3.789
65993W        W34387  37.431  17.212  13.742
65994W        W34388  31.491  14.664   3.567
65995W        W34389  29.437  26.169   3.403
65996W        W34390  24.990  10.756  13.365
65997W        W34391  37.317   8.414  11.405
65998W        W34392   4.331  27.606  12.164
65999W        W34393  28.341  40.255  11.042
66000W        W34394  24.024  25.683  11.689
66001W        W34395  23.701  23.853   2.209
66002W        W34396  30.139  36.793  12.495
66003W        W34397   5.876  38.495  11.910
66004W        W34398   6.385  16.257   9.823
66005W        W34399  23.634   0.765   2.680
66006W        W34400  34.313  38.231  12.948
66007W        W34401  10.798  19.663  12.140
66008W        W34402  18.164  10.624  12.656
66009W        W34403  43.036  39.938  12.871
66010W        W34404  21.256  31.355  11.827
66011W        W34405  15.665  43.990  13.314
66012W        W34406   2.843  43.404  13.637
66013W        W34407  19.521  10.618   4.193
66014W        W34408  38.329  24.564   0.579
66015W        W34409   3.910  15.042  12.570
66016W        W34410  37.974  33.386  10.739
66017W        W34411  29.650  43.784  13.983
66018W        W34412  17.519  21.625  13.114
66019W        W34413  28.098  21.969  13.863
66020W        W34414   4.790  16.729  13.023
66021W        W34415  27.166  12.690  12.832
66022W        W34416   7.749  40.399   2.619
66023W        W34417  22.760  13.289   0.267
66024W        W34418  32.637  18.588  11.149
66025W        W34419  29.607  40.373  14.536
66026W        W34420  11.248  18.499   3.615
66027W        W34421  21.383  17.176   1.286
66028W        W34422  24.554  19.696  13.895
66029W        W34423  11.234  43.809   4.066
66030W        W34424  27.986  37.968  11.908
66031W        W34425  25.722  44.533  13.395
66032W        W34426  16.726   3.999  14.596
66033W        W34427  25.465  30.514   2.194
66034W        W34428   8.400  20.041   1.245
66035W        W34429   9.001  36.836  11.964
66036W        W34430   4.226  12.392  13.954
66037W        W34431  40.882  35.547   0.180
66038W        W34432  10.210  27.622  14.889
66039W        W34433  16.789   0.947  12.579
66040W        W34434   2.868  37.574  13.180
66041W        W34435  36.526  16.141  12.059
66042W        W34436  21.077  26.450  10.639
66043W        W34437  43.572   3.745   5.045
66044W        W34438  19.561  30.163  11.105
66045W        W34439  35.379  42.050  11.527
66046W        W34440  20.558  22.327  11.796
66047W        W34441  17.722   0.817   4.421
66048W        W34442  10.917  17.189   0.866
66049W        W34443  20.933  44.145  14.896
66050W        W34444  39.653  30.457   5.081
66051W        W34445  24.554   1.525  13.304
66052W        W34446  34.435  25.717  13.745
66053W        W34447  14.631  17.367  11.452
66054W        W34448   5.730   4.820  10.910
66055W        W34449  30.085  10.695  12.163
66056W        W34450   7.672  32.337  12.682
66057W        W34451  15.308  44.709   4.231
66058W        W34452   9.163  42.714  13.032
66059W        W34453   7.300  29.112  12.189
66060W        W34454  29.379   1.973   0.855
66061W        W34455   0.777   8.720   3.878
66062W        W34456   1.886  15.286   2.266
66063W        W34457  39.283   8.455   0.902
66064W        W34458  17.339  20.773  11.540
66065W        W34459  33.022   0.248  10.609
66066W        W34460  31.367   1.241  13.528
66067W        W34461  31.687   4.730  13.840
66068W        W34462  30.785  42.756   4.515
66069W        W34463  25.384  30.004   2.310
66070W        W34464  27.492  39.071  14.053
66071W        W34465  22.502  28.387  12.540
66072W        W34466  24.030  29.892  11.935
66073W        W34467  29.626  34.810   0.239
66074W        W34468  17.466  40.506  11.969
66075W        W34469   1.981  28.339  14.135
66076W        W34470  25.022  41.733   4.105
66077W        W34471  43.740  43.933   3.315
66078W        W34472  13.072   5.638   1.372
66079W        W34473  38.988   2.302  11.107
66080W        W34474  39.739  16.228  11.072
66081W        W34475  33.474  14.711   4.135
66082W        W34476  35.140  39.407   0.772
66083W        W34477  25.136  20.759  11.591
66084W        W34478   9.830  19.764  11.872
66085W        W34479  18.906  25.120  13.578
66086W        W34480  29.890   9.973  13.991
66087W        W34481  20.151  32.206   5.047
66088W        W34482  42.630  34.819  14.472
66089W        W34483   3.644  26.505  14.761
66090W        W34484  34.862  19.721  11.779
66091W        W34485  22.120  40.326   3.351
66092W        W34486  36.883  26.980  12.472
66093W        W34487  36.433  21.781   0.795
66094W        W34488  25.593  39.743   1.671
66095W        W34489   2.531  10.345  11.556
66096W        W34490  22.610  20.670   4.723
66097W        W34491  36.205  19.002   0.741
66098W        W34492  13.856   5.872   1.304
66099W        W34493  21.005   7.553   3.687
66100W        W34494  14.795  24.347   3.262
66101W        W34495  19.647  40.258  10.175
66102W        W34496  33.500  21.493   4.978
66103W        W34497  22.500  18.414  12.539
66104W        W34498   9.197  41.614   2.811
66105W        W34499  23.028  25.713   2.275
66106W        W34500   4.195  11.583  14.692
66107W        W34501  19.139  25.913  12.016
66108W        W34502   9.913  10.021   5.250
66109W        W34503  10.085  34.405   3.860
66110W        W34504  30.140  28.824   3.837
66111W        W34505  36.056  18.073   0.933
66112W        W34506  41.806  28.688   4.535
66113W        W34507  15.324  37.035  14.974
66114W        W34508   6.996  15.279  13.464
66115W        W34509  37.869  12.700   0.633
66116W        W34510  22.878  39.983   3.932
66117W        W34511  37.133  32.234  13.952
66118W        W34512  21.656  32.638   0.540
66119W        W34513   0.792  28.573   4.278
66120W        W34514  18.721   8.868  13.887
66121W        W34515   2.234  19.736   2.372
66122W        W34516  15.610  16.720   1.762
66123W        W34517  19.779  36.528   2.520
66124W        W34518  31.986   9.232  11.623
66125W        W34519  20.110  29.563  13.316
66126W        W34520  13.829  23.038  12.534
66127W        W34521  30.656   7.940   5.087
66128W        W34522  43.440  17.201  10.659
66129W        W34523  27.561  16.213   0.454
66130W        W34524  43.919  28.189  14.882
66131W        W34525  15.878  30.717  12.958
66132W        W34526   6.483  30.824   1.540
66133W        W34527  32.502  10.716   2.163
66134W        W34528   8.202   3.161   5.202
66135W        W34529  27.958  22.667   3.099
66136W        W34530  12.658  44.750   4.296
66137W        W34531  37.099  34.094  14.845
66138W        W34532  30.787  13.898   3.846
66139W        W34533  29.981  42.064  14.247
66140W        W34534  43.498   7.769   4.613
66141W        W34535   7.447  44.460  11.313
66142W        W34536  16.759   2.281   1.315
66143W        W34537   8.955  14.709   2.346
66144W        W34538  35.835  41.186  12.434
66145W        W34539  18.031  27.437  12.924
66146W        W34540  17.314  22.706  10.722
66147W        W34541  44.359  12.464   0.759
66148W        W34542   9.649  43.735  11.451
66149W        W34543  18.844   2.972   2.789
66150W        W34544  25.796  19.597  10.976
66151W        W34545   2.386  20.683  12.397
66152W        W34546  43.341  22.488  14.801
66153W        W34547   6.949  30.023  12.094
66154W        W34548  15.771  43.395  14.747
66155W        W34549  16.300  28.908   0.796
66156W        W34550  43.522  20.048  13.026
66157W        W34551  20.580  19.530  12.944
66158W        W34552  43.807  20.193  11.113
66159W        W34553   0.943  19.634  13.474
66160W        W34554  37.495  35.506   4.777
66161W        W34555   9.374  23.270  11.219
66162W        W34556  40.297  43.484  11.579
66163W        W34557  12.611  27.103  14.914
66164W        W34558   2.747  39.047  12.667
66165W        W34559   3.646  28.744  12.424
66166W        W34560  18.589  28.739  14.219
66167W        W34561  21.621  29.966   2.475
66168W        W34562  17.671  37.186  13.949
66169W        W34563  24.942  27.868   3.842
66170W        W34564  13.615  11.717   3.230
66171W        W34565   4.306  22.127   0.949
66172W        W34566  21.993   8.890   2.247
66173W        W34567  34.386  30.663  13.977
66174W        W34568  39.287  11.375   2.452
66175W        W34569  18.287  13.574   1.939
66176W        W34570  42.502  27.123  12.572
66177W        W34571   5.243  24.530  14.495
66178W        W34572  21.765  38.407  12.385
66179W        W34573  31.020  39.320   2.788
66180W        W34574  28.210  18.579  14.387
66181W        W34575  43.425  17.902   1.296
66182W        W34576  42.969  42.791  10.912
66183W        W34577   5.566  35.953  11.165
66184W        W34578   2.350  43.413   2.292
66185W        W34579  13.697   5.981  12.545
66186W        W34580  18.063  31.891  11.291
66187W        W34581  20.529  11.282   1.955
66188W        W34582  35.098  34.922   3.716
66189W        W34583  40.379   6.875   2.112
66190W        W34584  28.552  21.938   1.348
66191W        W34585  28.645   5.905  14.873
66192W        W34586  12.977  31.016  14.131
66193W        W34587  19.636  42.510  10.521
66194W        W34588  32.689  20.504  13.784
66195W        W34589  35.038  33.802  13.883
66196W        W34590  36.027  24.209  10.721
66197W        W34591  20.227  33.370   3.214
66198W        W34592   4.983  42.710   0.777
66199W        W34593  26.496  19.065  13.387
66200W        W34594  23.732   0.519   2.170
66201W        W34595  35.855   9.089   1.409
66202W        W34596   2.449  18.744  12.812
66203W        W34597   7.872  11.132   1.889
66204W        W34598  32.097  29.447   5.023
66205W        W34599  19.226  40.447  11.220
66206W        W34600  27.428  36.169  13.825
66207W        W34601   9.950   1.271  12.816
66208W        W34602   6.769  18.208   2.447
66209W        W34603  38.031   5.267  14.222
66210W        W34604   8.814  44.263  11.797
66211W        W34605  42.428  21.709  14.852
66212W        W34606  16.007  25.067   4.265
66213W        W34607   9.976  41.473   1.149
66214W        W34608   9.305  35.487  10.685
66215W        W34609   4.355  25.147  13.573
66216W        W34610  37.404  12.824  13.854
66217W        W34611   1.907  42.219  14.973
66218W        W34612   1.195   9.130   1.172
66219W        W34613  28.531  23.407   2.867
66220W        W34614  34.967   1.737   4.774
66221W        W34615  38.855  27.173   0.891
66222W        W34616   8.711  36.353  12.963
66223W        W34617   8.576  34.043   1.901
66224W        W34618  30.176  24.123   2.315
66225W        W34619  25.638  30.946  10.396
66226W        W34620   2.804  32.621   2.302
66227W        W34621  23.514  31.332  11.220
66228W        W34622  14.145  27.883   5.022
66229W        W34623  37.926  12.890   3.051
66230W        W34624   6.199  23.164   2.780
66231W        W34625  16.599  22.038   4.096
66232W        W34626  31.199   3.373  13.993
66233W        W34627  25.207  12.278  10.728
66234W        W34628  31.497   1.502  13.987
66235W        W34629   2.528  43.009   4.588
66236W        W34630   4.118  43.510  12.924
66237W        W34631  15.130  23.880   1.193
66238W        W34632  41.556   2.855  13.316
66239W        W34633  28.854  27.986  11.099
66240W        W34634   3.248  21.117   0.999
66241W        W34635  27.088  40.552   2.749
66242W        W34636  41.080  32.770   4.022
66243W        W34637  34.571  35.606  14.872
66244W        W34638  32.643   7.113   1.992
66245W        W34639  37.583  36.850   3.934
66246W        W34640  26.182  36.057  14.416
66247W        W34641   9.373  20.316  13.005
66248W        W34642   4.840  42.123   4.745
66249W        W34643  44.238  43.985   4.166
66250W        W34644  43.241  20.314  12.493
66251W        W34645  22.732  33.720  10.754
66252W        W34646  20.758   2.840  14.235
66253W        W34647  42.929  17.822   1.834
66254W        W34648   6.961  18.337   4.983
66255W        W34649  42.776  22.186   1.396
66256W        W34650  26.231   0.215   1.862
66257W        W34651  40.996  27.234  12.032
66258W        W34652  35.600  35.600   1.806
66259W        W34653  11.862  20.768   0.297
66260W        W34654  13.029  32.802  14.358
66261W        W34655  21.166   2.044   3.442
66262W        W34656  32.896  12.561  14.335
66263W        W34657  14.928  42.782   0.668
66264W        W34658  21.235   5.842   0.278
66265W        W34659  35.094  26.012   4.373
66266W        W34660  23.072  21.169   2.216
66267W        W34661  11.698  24.924  14.253
66268W        W34662   3.301  39.975  10.751
66269W        W34663  31.428  24.514  12.855
66270W        W34664   4.656   2.255  14.619
66271W        W34665   7.759  12.292   3.990
66272W        W34666  40.278  38.050  12.144
66273W        W34667  20.251  10.149   2.884
66274W        W34668  20.654   5.013   0.271
66275W        W34669  38.823   3.023   3.273
66276W        W34670  38.894  10.144  12.422
66277W        W34671  25.510   4.377  13.771
66278W        W34672  33.818  21.286  13.906
66279W        W34673  39.045  30.137   2.216
66280W        W34674  37.041  40.910  10.914
66281W        W34675  12.039  39.584   4.063
66282W        W34676  26.263  27.960   3.349
66283W        W34677  37.777  18.832  12.040
66284W        W34678  30.929  40.634  13.139
66285W        W34679  20.992  40.505   1.906
66286W        W34680  21.961  26.136   4.736
66287W        W34681  28.438  29.341   4.501
66288W        W34682  37.344  37.774   1.928
66289W        W34683  22.162  37.773  10.764
66290W        W34684  31.701  29.953   2.369
66291W        W34685  20.102  33.817   2.922
66292W        W34686  40.355  10.491  14.431
66293W        W34687  23.860  32.111   3.142
66294W        W34688  17.019  27.578  11.383
66295W        W34689  16.666   9.276   1.421
66296W        W34690  24.981  32.394   0.491
66297W        W34691  19.557  23.624  14.832
66298W        W34692  38.694  37.313  12.519
66299W        W34693   3.051  39.063  10.617
66300W        W34694   1.267  19.230  13.464
66301W        W34695  34.933  29.531   4.953
66302W        W34696  13.090   0.852  11.965
66303W        W34697  34.326  44.391   4.418
66304W        W34698  16.215  12.238   3.412
66305W        W34699  13.159  29.821  13.235
66306W        W34700   2.606  36.010   1.196
66307W        W34701  15.784  41.908   2.238
66308W        W34702  37.391  29.621  13.795
66309W        W34703  34.507  28.762  10.779
66310W        W34704  15.007  30.436  12.400
66311W        W34705  23.569  39.089  12.970
66312W        W34706  38.522   7.677   0.779
66313W        W34707  23.434  19.184  13.650
66314W        W34708  17.514  32.020  10.765
66315W        W34709  19.550  44.318  11.015
66316W        W34710  30.880  25.067   0.711
66317W        W34711  41.984  29.894  10.722
66318W        W34712  16.120   0.530  13.884
66319W        W34713  44.348  11.344  13.554
66320W        W34714  21.317  43.944   0.704
66321W        W34715  37.814  36.467   0.768
66322W        W34716  33.794  33.878  11.331
66323W        W34717   6.633  32.706  14.784
66324W        W34718  20.193  29.627  10.351
66325W        W34719  10.818   5.403   2.424
66326W        W34720   0.486  19.141   1.712
66327W        W34721  13.374  33.180  13.391
66328W        W34722   5.668   5.263  11.504
66329W        W34723  15.196  19.173   4.333
66330W        W34724   8.029   5.076   4.765
66331W        W34725   8.316  23.616   0.606
66332W        W34726  33.989  41.235   0.893
66333W        W34727  15.635  10.015   3.673
66334W        W34728  33.484  30.407  14.103
66335W        W34729  13.106  26.508   4.093
66336W        W34730  20.588  44.561   1.473
66337W        W34731   4.211   2.247   4.062
66338W        W34732  25.669  12.090   3.696
66339W        W34733  44.834   5.409  12.827
66340W        W34734  39.121   5.321  13.964
66341W        W34735  25.758   5.946   3.622
66342W        W34736  32.183  21.237   4.535
66343W        W34737  39.084   0.245  12.705
66344W        W34738   1.864  39.373  13.834
66345W        W34739  42.072  31.511   0.314
66346W        W34740   8.095   7.294  13.354
66347W        W34741  26.661  29.075  12.105
66348W        W34742   6.453  44.641   2.152
66349W        W34743  34.512  11.289   3.553
66350W        W34744  15.189  31.088  10.765
66351W        W34745  44.497  16.031  14.307
66352W        W34746  32.067   7.190  14.473
66353W        W34747   1.004   7.651   2.436
66354W        W34748   0.395  33.579   4.280
66355W        W34749  25.066  32.305   2.247
66356W        W34750   8.076  15.384   1.707
66357W        W34751  23.573  13.679  14.899
66358W        W34752  26.766  28.326   1.808
66359W        W34753  10.151  10.333  13.961
66360W        W34754  42.801  18.988   3.249
66361W        W34755  13.417  37.943   0.840
66362W        W34756   3.930  38.153  12.057
66363W        W34757  23.617  25.977   1.105
66364W        W34758  13.215   6.846  14.310
66365W        W34759  36.324  22.611   2.261
66366W        W34760  29.217  24.636   2.180
66367W        W34761  17.045  41.850  13.493
66368W        W34762   1.871  25.560  10.578
66369W        W34763  19.086  23.758  14.922
66370W        W34764  40.024  23.256   0.355
66371W        W34765  11.584  23.854   2.349
66372W        W34766  21.819  21.813  11.866
66373W        W34767  30.457  32.995   4.511
66374W        W34768  13.290  38.172   0.379
66375W        W34769  31.040  39.463   0.772
66376W        W34770   3.741  12.644   4.535
66377W        W34771   2.695  12.763   1.930
66378W        W34772  25.179   2.170   4.508
66379W        W34773   1.504  14.761   0.428
66380W        W34774   6.358  38.144  13.145
66381W        W34775   0.446  16.092  14.396
66382W        W34776   6.907   5.924   3.682
66383W        W34777   7.660  41.385   1.901
66384W        W34778  31.971  43.015  13.443
66385W        W34779  14.275  41.346   4.207
66386W        W34780  24.619  37.788  11.661
66387W        W34781  34.495  23.569   3.460
66388W        W34782  36.897  31.286  14.118
66389W        W34783   8.093  12.138   1.430
66390W        W34784  31.401  41.558  13.496
66391W        W34785  30.605   1.646   2.276
66392W        W34786   4.999  27.645   1.822
66393W        W34787  38.774  18.187  14.379
66394W        W34788  40.497  22.181  13.791
66395W        W34789  18.653  31.814  14.454
66396W        W34790  34.600   4.070   0.340
66397W        W34791  28.916  44.869  11.630
66398W        W34792   4.901  24.497   5.187
66399W        W34793   8.676  39.981   2.745
66400W        W34794  34.558   2.355   1.774
66401W        W34795  22.664  12.829  14.348
66402W        W34796  22.678  26.050  14.366
66403W        W34797  14.109  10.135   2.721
66404W        W34798  30.643  37.888   0.466
66405W        W34799  24.625  31.398   3.794
66406W        W34800  12.721  34.384  10.790
66407W        W34801  41.760  32.606  14.238
66408W        W34802  21.231  24.915   0.741
66409W        W34803  41.921   7.004  14.893
66410W        W34804  20.680  30.104   2.878
66411W        W34805  41.682   2.546   4.701
66412W        W34806  15.069   1.803  12.180
66413W        W34807  32.469  20.453  14.976
66414W        W34808   0.196  23.598   2.312
66415W        W34809  20.297  38.507   3.132
66416W        W34810  33.058  23.113   0.908
66417W        W34811   2.751  22.582   0.388
66418W        W34812  37.479  37.270   3.607
66419W        W34813   1.647  29.591   3.308
66420W        W34814  20.181  29.885   1.139
66421W        W34815  23.019   2.949   1.749
66422W        W34816  18.493  28.498   2.766
66423W        W34817  32.371  44.655  14.752
66424W        W34818  43.439  40.914   2.332
66425W        W34819  32.113  10.327   4.076
66426W        W34820   8.941  28.872   0.266
66427W        W34821  40.899  18.240   2.859
66428W        W34822  29.066  44.041   3.737
66429W        W34823  25.066  24.972   1.966
66430W        W34824  12.047  38.092   1.864
66431W        W34825  17.491  10.809   3.693
66432W        W34826  28.906  16.270  14.809
66433W        W34827  38.359  16.863  11.147
66434W        W34828  24.189   6.319   3.973
66435W        W34829  31.920  16.366  11.551
66436W        W34830  33.399  36.047  12.858
66437W        W34831  18.940  35.487  10.068
66438W        W34832  43.099  40.127   4.983
66439W        W34833  32.605  40.780  12.055
66440W        W34834  28.941   3.841  14.504
66441W        W34835  42.223  38.609   0.997
66442W        W34836  13.157  20.139   0.448
66443W        W34837   1.725  44.936  10.542
66444W        W34838   8.763  22.147  13.069
66445W        W34839  29.684  14.593  12.862
66446W        W34840  15.075  32.776   3.585
66447W        W34841  14.932  28.188  14.466
66448W        W34842  43.393  25.265  13.012
66449W        W34843   6.789  29.105  12.088
66450W        W34844  14.084  42.047  12.192
66451W        W34845  35.536  23.772   2.108
66452W        W34846  39.005  18.049  14.833
66453W        W34847  15.010  41.292   2.602
66454W        W34848  37.756  24.516  10.754
66455W        W34849  41.566  44.036  13.131
66456W        W34850  20.816   2.753   0.796
66457W        W34851  10.819   1.728  13.998
66458W        W34852  13.400  17.216   4.985
66459W        W34853   6.728   6.129   3.215
66460W        W34854  21.040  22.836  14.964
66461W        W34855  35.479  40.961   2.190
66462W        W34856  25.170   9.141   4.502
66463W        W34857  39.378  27.503  12.978
66464W        W34858  31.639  13.228   4.710
66465W        W34859  15.256  13.909  10.759
66466W        W34860  35.865  17.595   4.757
66467W        W34861  37.842  42.320  13.986
66468W        W34862  31.535  13.744   1.521
66469W        W34863  15.086  44.848  10.452
66470W        W34864  20.585  26.563   3.362
66471W        W34865   5.151  29.304  10.871
66472W        W34866   2.955  10.100   3.670
66473W        W34867   9.197   2.010  13.851
66474W        W34868  30.266  11.880  10.854
66475W        W34869  40.249  38.829   2.666
66476W        W34870  31.534  35.125   4.811
66477W        W34871  19.894   3.887  14.393
66478W        W34872  13.312  33.774  12.571
66479W        W34873  18.680   1.302   2.825
66480W        W34874   2.181  37.389  11.089
66481W        W34875  24.384  41.075   3.695
66482W        W34876  29.526  32.662  12.180
66483W        W34877  14.989  31.907   4.518
66484W        W34878  25.547   3.789   1.851
66485W        W34879  25.557  33.220  10.403
66486W        W34880   5.213   4.862  14.561
66487W        W34881  14.397  34.414   3.347
66488W        W34882  20.282  23.165  11.572
66489W        W34883   9.183  34.302  12.179
66490W        W34884  41.553   0.889   4.158
66491W        W34885  19.455  24.243  11.060
66492W        W34886  13.633  14.094   0.869
66493W        W34887  34.651  42.310  11.062
66494W        W34888  39.038  20.739  14.942
66495W        W34889  34.139  32.150  11.363
66496W        W34890   5.774  26.983   0.281
66497W        W34891  39.994  34.685   3.286
66498W        W34892  31.230   0.479   3.615
66499W        W34893  21.704  42.979  10.512
66500W        W34894  11.550   5.427   4.931
66501W        W34895  10.217   8.845  13.963
66502W        W34896  43.998  29.395   3.327
66503W        W34897  22.720  35.181  12.464
66504W        W34898  26.809  39.484   1.212
66505W        W34899  25.072  29.484  11.149
66506W        W34900  22.894  26.894   3.771
66507W        W34901  30.324  38.930  11.878
66508W        W34902  33.890   9.918   0.399
66509W        W34903  39.017  31.975  11.977
66510W        W34904  32.303   1.414  12.332
66511W        W34905  25.294   1.412  11.662
66512W        W34906  37.427  21.100   0.726
66513W        W34907  11.299  11.702   1.229
66514W        W34908   9.587   1.748   2.653
66515W        W34909  29.272   5.441   3.764
66516W        W34910  35.042  28.612   4.886
66517W        W34911  43.660  28.358   1.879
66518W        W34912  20.763  32.963   3.392
66519W        W34913   0.677  43.956  13.896
66520W        W34914  16.420  14.302   2.214
66521W        W34915  21.103   1.225   2.323
66522W        W34916   0.043  22.070  11.106
66523W        W34917  13.702  34.505  12.922
66524W        W34918  26.497  23.235   4.568
66525W        W34919  11.274  17.594  12.405
66526W        W34920  14.376   8.287   4.130
66527W        W34921  40.722  40.542   4.202
66528W        W34922  11.425  23.052  12.016
66529W        W34923  44.288  34.422   4.353
66530W        W34924  13.457   7.200   3.975
66531W        W34925   5.861  20.557  14.926
66532W        W34926  25.028  32.601   3.238
66533W        W34927  20.878   5.388   3.315
66534W        W34928   8.331  37.846  12.464
66535W        W34929   4.322  30.169   0.791
66536W        W34930  10.261  34.818   2.377
66537W        W34931  44.676  22.134   1.759
66538W        W34932  19.054  44.227   5.060
66539W        W34933   4.983  11.259  11.687
66540W        W34934  18.995  11.284  12.385
66541W        W34935  17.996  16.300   4.518
66542W        W34936  34.049  12.116  13.058
66543W        W34937  15.635  33.394   2.761
66544W        W34938   0.203  26.501   2.278
66545W        W34939  31.977  26.609   3.129
66546W        W34940  10.695  25.612  14.907
66547W        W34941  29.391   0.791  14.962
66548W        W34942  16.494  10.705   3.765
66549W        W34943  41.346  44.949  12.942
66550W        W34944  33.183  25.055  11.021
66551W        W34945  29.544   0.507  14.499
66552W        W34946  21.534  41.817  12.454
66553W        W34947  15.340  32.214  14.380
66554W        W34948  19.485   1.218   4.557
66555W        W34949  44.913   5.346  11.087
66556W        W34950  16.038  24.465   0.039
66557W        W34951  31.181  43.843   1.299
66558W        W34952  25.954   3.060   3.618
66559W        W34953  15.741   8.187   4.616
66560W        W34954  35.362  32.481  12.411
66561W        W34955  38.986   2.167  14.284
66562W        W34956  16.634  10.315   0.193
66563W        W34957  38.454  10.856  11.049
66564W        W34958  34.119   6.762   1.043
66565W        W34959  26.691   0.608   3.731
66566W        W34960   1.425  26.715   4.820
66567W        W34961  36.998  34.573   3.126
66568W        W34962  14.238  29.474  14.089
66569W        W34963  38.844  23.627   4.364
66570W        W34964  37.839  25.913   0.260
66571W        W34965  22.516  25.707   2.255
66572W        W34966  14.871  42.761   4.134
66573W        W34967  28.912  26.472   1.798
66574W        W34968   3.279  28.045  14.773
66575W        W34969  16.285  37.096  13.892
66576W        W34970  39.785  28.131  14.550
66577W        W34971  19.763  34.121   2.566
66578W        W34972  40.950   2.524  13.924
66579W        W34973  33.579  15.812   2.115
66580W        W34974  17.075  40.970   4.762
66581W        W34975  14.786  13.666   2.684
66582W        W34976  42.562   6.444  13.802
66583W        W34977  36.040  21.473   0.956
66584W        W34978   9.167  24.311   3.322
66585W        W34979  35.227  12.856   2.547
66586W        W34980  37.598  41.375  12.954
66587W        W34981   3.381  19.587  14.751
66588W        W34982   5.713   2.694   0.006
66589W        W34983   6.888  37.387   3.388
66590W        W34984  36.119  29.525   1.269
66591W        W34985  11.600   3.753  12.999
66592W        W34986  22.791  14.626   2.170
66593W        W34987  33.647  35.715  14.934
66594W        W34988  20.264   8.211  11.635
66595W        W34989  30.421  28.060  14.733
66596W        W34990  44.626  25.460  11.557
66597W        W34991  12.171  31.989   4.316
66598W        W34992  37.386  35.761  12.030
66599W        W34993  28.408  20.147   2.784
66600W        W34994  33.601  44.811  14.548
66601W        W34995  35.603  35.339   1.328
66602W        W34996   2.227  40.864   3.149
66603W        W34997  17.640  20.118  10.026
66604W        W34998  19.089  15.864  11.044
66605W        W34999  41.884  13.375  14.954
66606W        W35000  34.525  41.346   4.369
66607W        W35001  33.387  37.310   3.031
66608W        W35002  22.463  27.748  11.131
66609W        W35003   7.650   4.856  12.639
66610W        W35004   7.482  39.988  11.902
66611W        W35005   3.367  29.576   2.894
66612W        W35006  29.041  17.082  14.383
66613W        W35007  21.627  17.026  12.015
66614W        W35008   1.924  35.683  11.203
66615W        W35009  30.126  44.751   3.189
66616W        W35010  43.348  10.738   1.347
66617W        W35011  22.188  24.173  11.994
66618W        W35012  15.269   3.841  11.451
66619W        W35013  20.145   2.350  10.302
66620W        W35014  18.813   8.769   1.269
66621W        W35015  33.959  30.346  13.762
66622W        W35016  28.941   1.460   2.731
66623W        W35017  10.241  39.531  11.083
66624W        W35018  24.987  26.146  11.552
66625W        W35019  41.331   2.645   3.413
66626W        W35020  36.418  24.278  13.501
66627W        W35021  11.243  10.343  11.866
66628W        W35022  34.939  44.672  10.763
66629W        W35023  11.896  40.444  12.825
66630W        W35024  32.009  37.566   9.801
66631W        W35025  39.468  10.850  12.531
66632W        W35026  13.281  34.525   4.357
66633W        W35027  10.305  14.951   2.014
66634W        W35028  12.382  20.042  12.007
66635W        W35029   8.840  35.387   4.660
66636W        W35030  16.905  13.671  12.038
66637W        W35031  34.815   2.299  12.996
66638W        W35032  29.862   9.636  11.578
66639W        W35033  21.099   4.978  12.953
66640W        W35034  10.192  44.939   0.718
66641W        W35035   4.403  43.679  12.550
66642W        W35036  42.255  15.648   0.343
66643W        W35037  31.411  23.511   1.781
66644W        W35038  36.359  13.881   4.576
66645W        W35039  20.517  14.632  10.487
66646W        W35040   1.971  13.519   0.860
66647W        W35041  24.731  31.929   2.817
66648W        W35042   0.480  13.393   1.828
66649W        W35043  36.548  23.495   2.249
66650W        W35044   4.661  25.291   5.004
66651W        W35045  37.163  21.168  10.824
66652W        W35046  21.426   4.836   3.881
66653W        W35047  25.017   7.078   0.326
66654W        W35048  31.926   4.112   1.120
66655W        W35049  27.061  38.769   1.877
66656W        W35050  35.160   9.802   3.256
66657W        W35051  19.532   3.289   1.646
66658W        W35052   1.934  33.336   0.243
66659W        W35053  43.070  16.941   5.101
66660W        W35054   4.678   0.938  13.209
66661W        W35055   3.379  16.179   4.047
66662W        W35056   3.388  38.321  13.079
66663W        W35057   4.457   3.944  11.903
66664W        W35058  42.568  27.753  12.967
66665W        W35059  14.252  10.248  11.516
66666W        W35060   9.373   1.814   0.978
66667W        W35061  15.360  19.941   3.924
66668W        W35062  15.556  22.604   1.941
66669W        W35063   4.833   4.016  11.515
66670W        W35064  29.709  26.549   3.652
66671W        W35065  31.081  20.678   1.215
66672W        W35066   9.812   0.280   1.417
66673W        W35067  10.595  13.619   2.017
66674W        W35068  12.366  18.722   4.245
66675W        W35069   8.918  23.649   3.741
66676W        W35070  36.533  18.018   2.686
66677W        W35071   2.153  36.954  10.752
66678W        W35072   6.028   7.288   4.934
66679W        W35073  42.795   5.731   4.711
66680W        W35074   1.309  42.720  14.532
66681W        W35075  22.502   6.722   4.637
66682W        W35076  17.270   7.308   3.153
66683W        W35077  14.321   0.864  12.553
66684W        W35078  26.092  18.175  12.532
66685W        W35079   4.932  38.811  14.346
66686W        W35080  34.754  41.387   2.999
66687W        W35081   1.998  14.036  12.829
66688W        W35082  27.640  17.112   1.971
66689W        W35083  37.453  14.272  10.840
66690W        W35084   2.645   2.478   3.564
66691W        W35085   4.676   3.241  12.815
66692W        W35086  19.723  26.387   0.274
66693W        W35087  28.953   0.740   0.728
66694W        W35088  24.604  23.751  11.668
66695W        W35089  32.949  17.740  12.499
66696W        W35090  22.979   9.263   1.290
66697W        W35091  28.606  36.848  13.365
66698W        W35092  28.041  36.460   5.028
66699W        W35093  17.394  28.508  14.922
66700W        W35094  42.675  32.378  14.504
66701W        W35095   3.777  33.000  10.833
66702W        W35096   5.131   5.304  14.285
66703W        W35097  13.260  28.581  12.540
66704W        W35098  24.934  14.690   2.831
66705W        W35099  34.410  30.508   2.587
66706W        W35100  38.153   5.283   1.337
66707W        W35101  43.450  35.204   1.945
66708W        W35102  10.692  16.298   4.665
66709W        W35103  12.084  27.017   1.896
66710W        W35104  39.390  31.150  12.925
66711W        W35105  30.720  13.562   2.207
66712W        W35106   9.336  15.901  13.935
66713W        W35107  21.279  42.557  11.992
66714W        W35108   8.854   7.318   4.644
66715W        W35109  18.278  24.115  13.746
66716W        W35110  19.368  17.772  11.988
66717W        W35111  15.575  36.999   4.644
66718W        W35112  32.462  20.739   0.951
66719W        W35113   9.937  42.673  11.529
66720W        W35114  36.041  20.565  10.757
66721W        W35115   2.314  16.115  14.675
66722W        W35116  37.938  42.282   0.816
66723W        W35117  15.630  15.587  12.302
66724W        W35118  22.329   0.399   3.684
66725W        W35119   6.629   3.739  11.016
66726W        W35120  42.336  14.227  10.367
66727W        W35121  17.911  12.825  14.035
66728W        W35122  37.246   8.397  14.043
66729W        W35123  33.815  20.188  13.319
66730W        W35124  25.424  27.595  13.356
66731W        W35125  12.945  32.308   1.970
66732W        W35126  12.644  35.401  13.094
66733W        W35127  15.263  30.615   4.002
66734W        W35128  42.056  23.255   1.335
66735W        W35129  36.089  15.635   0.182
66736W        W35130  30.624  10.791   3.293
66737W        W35131  35.049  11.729  11.625
66738W        W35132  19.691  25.150   4.979
66739W        W35133  25.076  10.190  13.841
66740W        W35134   0.170  41.839   4.196
66741W        W35135  29.739   6.347  12.613
66742W        W35136  19.770  24.638   1.936
66743W        W35137  36.459  21.163  11.256
66744W        W35138   5.224  17.664  12.956
66745W        W35139   2.794  20.532  12.114
66746W        W35140  37.348  37.520   2.796
66747W        W35141  32.759  22.615   1.942
66748W        W35142  11.616  35.283  13.414
66749W        W35143  39.076  23.527  13.927
66750W        W35144  14.378  24.304  12.458
66751W        W35145  27.556  40.448  12.109
66752W        W35146  23.665  38.392   0.161
66753W        W35147  11.100  34.641  13.344
66754W        W35148  32.450   0.084  11.618
66755W        W35149  21.816  21.197  14.453
66756W        W35150  11.108  14.347   3.330
66757W        W35151   1.410  41.219  11.182
66758W        W35152  17.495  13.259  12.339
66759W        W35153   8.745  40.845  13.903
66760W        W35154  22.598  39.401   1.853
66761W        W35155   5.326  26.842   2.783
66762W        W35156  19.448  30.316  14.481
66763W        W35157  17.798   5.077   4.467
66764W        W35158  21.596  17.623   4.737
66765W        W35159  23.257  16.219   0.866
66766W        W35160  31.540  10.822   3.720
66767W        W35161  34.300  38.821  11.914
66768W        W35162  21.955   6.924  11.784
66769W        W35163  30.937   0.356  14.069
66770W        W35164  35.838  42.365  13.344
66771W        W35165  20.916  36.301  11.082
66772W        W35166  19.223  18.591   5.587
66773W        W35167  32.547   5.015  10.348
66774W        W35168   2.858   4.645   1.006
66775W        W35169  32.656  29.908   0.804
66776W        W35170  25.717  30.266   2.614
66777W        W35171  27.249   1.560   3.762
66778W        W35172  30.844  16.587   2.684
66779W        W35173  28.913  36.473   4.721
66780W        W35174  36.199  17.617  13.840
66781W        W35175  22.549  21.412  10.567
66782W        W35176  28.560  10.308  12.836
66783W        W35177  19.661  43.364   2.877
66784W        W35178   4.265  14.654  12.521
66785W        W35179  14.718  34.666   5.009
66786W        W35180  40.553  44.793  13.310
66787W        W35181  35.434  20.694   4.235
66788W        W35182  15.670  21.743  12.432
66789W        W35183  44.558  18.166   2.652
66790W        W35184  18.070   2.836   4.074
66791W        W35185   6.216   0.915  10.919
66792W        W35186  36.500   8.664  12.103
66793W        W35187  22.117  26.887  11.962
66794W        W35188   5.895  11.942  11.907
66795W        W35189   3.670  29.276   4.387
66796W        W35190  10.397  33.684  11.183
66797W        W35191  37.353   4.220  13.520
66798W        W35192  22.244  32.209   1.922
66799W        W35193   3.885  29.130   3.934
66800W        W35194  32.325  38.933  10.781
66801W        W35195  38.808  13.709   4.718
66802W        W35196   1.932   9.038  13.760
66803W        W35197  12.361   8.319  11.870
66804W        W35198  42.840  28.234  12.924
66805W        W35199  24.928  24.337  14.821
66806W        W35200  16.675   7.919   4.597
66807W        W35201  18.348  23.649   4.864
66808W        W35202  16.248  32.504   2.756
66809W        W35203   3.690   5.898   3.217
66810W        W35204  17.083  34.033   2.841
66811W        W35205  13.123  38.043   4.576
66812W        W35206  29.563  26.939   0.761
66813W        W35207  21.725   4.223  11.940
66814W        W35208  13.250  34.118  10.802
66815W        W35209  44.813  17.753  10.512
66816W        W35210  16.068  25.595  11.009
66817W        W35211  18.897   4.192  11.097
66818W        W35212  23.158   4.236  12.642
66819W        W35213   8.352  28.379  11.342
66820W        W35214  21.683  27.051   4.621
66821W        W35215   4.434  35.083  11.419
66822W        W35216  21.335   3.201   4.179
66823W        W35217  38.771  29.150   3.422
66824W        W35218  39.366  26.659  14.590
66825W        W35219  34.524  22.548  13.810
66826W        W35220  19.604   6.201  11.715
66827W        W35221  44.146   9.349  11.152
66828W        W35222  35.938  31.674   0.431
66829W        W35223  44.464  43.208  12.467
66830W        W35224  38.889  34.873  12.839
66831W        W35225  17.509  29.431   0.924
66832W        W35226  20.038  14.286  14.758
66833W        W35227  28.658  34.076  14.437
66834W        W35228  35.088   4.015  11.219
66835W        W35229   8.810  27.437   1.365
66836W        W35230   8.814  31.975  14.070
66837W        W35231  25.667   7.495   1.723
66838W        W35232  41.545  35.090   4.209
66839W        W35233  29.380   8.840  14.613
66840W        W35234   2.350  35.814  10.650
66841W        W35235   9.214   6.613   2.614
66842W        W35236  24.033   2.408   4.538
66843W        W35237  18.721  11.619   3.366
66844W        W35238  10.538  24.946  10.551
66845W        W35239  18.286  39.079   2.728
66846W        W35240  34.604  36.030  11.241
66847W        W35241   5.366  40.451   2.810
66848W        W35242  33.321  19.249   2.821
66849W        W35243  34.731  14.376  12.103
66850W        W35244  16.070   8.731  11.189
66851W        W35245  31.221  39.598   3.731
66852W        W35246  37.090  17.239   4.646
66853W        W35247  44.756  26.983  10.464
66854W        W35248   1.067  15.999  11.583
66855W        W35249   7.672  21.268  11.948
66856W        W35250  34.375  40.806  11.244
66857W        W35251  15.291  24.501  14.339
66858W        W35252  26.488  24.641  14.054
66859W        W35253  27.574  28.400   3.646
66860W        W35254   2.653   2.674  12.809
66861W        W35255   3.289  22.534   2.899
66862W        W35256  30.598  37.853  11.379
66863W        W35257  37.087  28.732  12.908
66864W        W35258  37.830  12.224  11.694
66865W        W35259   5.443  29.934   4.745
66866W        W35260  36.750  30.600  12.265
66867W        W35261  28.013  38.929  12.581
66868W        W35262   3.772  13.751   1.193
66869W        W35263  16.516  34.891  12.863
66870W        W35264  13.080  29.949  14.238
66871W        W35265  17.812   8.319  12.998
66872W        W35266   7.500  18.144   1.276
66873W        W35267  43.769   1.720  14.433
66874W        W35268  27.679  29.946  14.870
66875W        W35269   5.883  30.779  11.670
66876W        W35270  26.508  26.004   3.865
66877W        W35271   1.328  19.752   3.106
66878W        W35272  11.924  28.655  14.920
66879W        W35273  31.932  23.962  12.038
66880W        W35274  10.012  17.377  11.889
66881W        W35275  21.555   8.109  12.652
66882W        W35276  16.408  43.453   0.117
66883W        W35277  44.904   3.432   0.200
66884W        W35278  10.375  37.355   2.677
66885W        W35279   2.476   3.293  11.139
66886W        W35280  39.350  10.146   2.209
66887W        W35281  23.087  24.947  10.916
66888W        W35282  19.617   7.148  12.404
66889W        W35283  44.897   3.340   3.705
66890W        W35284  42.302  43.945   2.200
66891W        W35285  19.224   2.606   4.626
66892W        W35286  30.132  31.148   2.444
66893W        W35287  39.029  34.363  14.869
66894W        W35288  17.157  42.123   2.947
66895W        W35289  23.105  41.578  10.795
66896W        W35290  39.392  37.580   0.548
66897W        W35291  20.091   8.827  14.908
66898W        W35292   1.028   8.721   2.930
66899W        W35293   7.346  29.345   2.320
66900W        W35294   0.441  36.878   0.152
66901W        W35295  40.968   5.934   4.452
66902W        W35296   6.977  23.000   0.156
66903W        W35297  32.987  28.148   3.624
66904W        W35298  31.480  35.949  12.747
66905W        W35299  42.129   3.241   5.231
66906W        W35300   1.228  28.224   0.284
66907W        W35301  12.831   6.668   0.282
66908W        W35302  38.623  38.956   1.810
66909W        W35303  42.105  36.158  12.142
66910W        W35304  10.796  25.971  11.943
66911W        W35305  11.868  27.632   4.558
66912W        W35306  41.771  23.525  12.020
66913W        W35307   7.878  16.805   4.623
66914W        W35308  34.839   9.292   4.365
66915W        W35309  10.408  10.185   0.454
66916W        W35310  40.032  12.881   4.068
66917W        W35311   8.849   3.834  11.529
66918W        W35312  22.459  34.268  13.453
66919W        W35313  32.496  23.978  12.460
66920W        W35314  31.579  16.816   4.436
66921W        W35315  10.254  18.131  14.884
66922W        W35316  26.116  44.905  13.147
66923W        W35317  31.157  41.311   4.275
66924W        W35318  38.803  18.213  10.443
66925W        W35319  37.238   0.496  10.684
66926W        W35320  21.130   7.159   0.378
66927W        W35321   6.157  10.085  12.001
66928W        W35322  18.088  39.446   1.870
66929W        W35323  11.580  11.799   3.280
66930W        W35324  30.426  18.242   4.289
66931W        W35325  16.760   2.791   2.762
66932W        W35326  17.430   4.301   1.578
66933W        W35327  31.517  31.535   0.907
66934W        W35328  42.984   7.500  13.029
66935W        W35329  19.834   4.815  12.378
66936W        W35330  43.557  39.845  12.934
66937W        W35331   9.601  20.303   4.033
66938W        W35332  24.907  35.102   1.878
66939W        W35333  13.763   2.242   0.260
66940W        W35334  30.455  32.656   2.755
66941W        W35335   7.873  21.503  11.543
66942W        W35336   4.823   9.835   2.838
66943W        W35337  32.127  38.148   2.187
66944W        W35338  41.554   7.245  12.070
66945W        W35339  44.724  21.883   3.982
66946W        W35340  34.575  13.109  14.235
66947W        W35341   5.937  20.516  11.228
66948W        W35342  36.458  42.764  14.533
66949W        W35343   4.439   9.472   1.346
66950W        W35344  14.711   0.336  11.100
66951W        W35345  33.895  37.609   0.823
66952W        W35346  38.032  21.597  10.727
66953W        W35347   7.896   2.386   3.146
66954W        W35348  37.079  31.131   2.197
66955W        W35349  33.697  32.438   2.289
66956W        W35350  30.983   5.522   4.600
66957W        W35351  12.707  42.414  14.377
66958W        W35352  42.364   1.494  13.052
66959W        W35353  25.870  31.472  14.505
66960W        W35354  25.769  24.002   3.282
66961W        W35355  22.552   4.800  11.741
66962W        W35356   3.339  31.867  13.027
66963W        W35357  24.708  27.793  12.581
66964W        W35358  31.997  27.084   0.309
66965W        W35359   0.299  35.571   4.885
66966W        W35360  38.329   3.161  11.057
66967W        W35361  29.355   0.927  11.262
66968W        W35362  22.821  20.135   1.350
66969W        W35363  33.525  41.523   1.703
66970W        W35364  32.625  14.212   0.690
66971W        W35365  15.507   4.407  13.405
66972W        W35366   8.872  43.516  13.613
66973W        W35367  13.516  21.805  12.966
66974W        W35368  21.053  29.503   0.386
66975W        W35369   3.921   3.280   1.393
66976W        W35370  34.418  24.975   0.818
66977W        W35371  36.616   1.423   1.342
66978W        W35372  36.190  26.991   4.746
66979W        W35373  26.218  41.543   3.718
66980W        W35374  42.860   2.634   4.383
66981W        W35375  39.981   7.814   2.294
66982W        W35376   6.228  21.506   3.203
66983W        W35377  38.033  22.712  11.096
66984W        W35378  22.169  29.072   9.848
66985W        W35379  11.741  20.494  12.611
66986W        W35380  25.619  15.096   3.390
66987W        W35381  17.779  39.884   3.684
66988W        W35382  32.637  19.679  14.228
66989W        W35383   1.801  36.909  12.217
66990W        W35384  18.504  43.904   0.528
66991W        W35385  44.716   8.944  14.410
66992W        W35386   7.491  30.943  13.531
66993W        W35387  36.970  24.276   4.223
66994W        W35388  12.462  22.421   2.116
66995W        W35389   1.713  33.036   4.880
66996W        W35390  15.222  27.306  11.560
66997W        W35391  32.510  28.453   0.944
66998W        W35392  13.749   5.098   4.606
66999W        W35393  34.491  30.185  13.019
67000W        W35394  33.676   2.518  14.133
67001W        W35395  33.449  32.021   1.933
67002W        W35396  19.129  43.376  12.612
67003W        W35397  12.199   1.724  11.412
67004W        W35398  23.054  38.404  12.903
67005W        W35399  34.999   2.808   2.245
67006W        W35400  41.335  42.984  12.388
67007W        W35401  30.446   9.683   3.250
67008W        W35402  37.282  34.576   2.190
67009W        W35403   4.655  36.117   3.840
67010W        W35404  29.452  21.644  12.111
67011W        W35405  44.607   3.203   4.281
67012W        W35406  16.521   6.897   0.870
67013W        W35407  37.611  33.299   1.706
67014W        W35408   6.231  18.126   3.200
67015W        W35409  12.426  42.780   4.234
67016W        W35410  14.691  18.476  10.217
67017W        W35411  35.050   6.332   0.286
67018W        W35412  40.594  13.319   1.763
67019W        W35413  26.585  16.253   1.839
67020W        W35414   7.645  15.694   4.049
67021W        W35415  18.283  33.919  10.806
67022W        W35416  37.971  29.549   0.356
67023W        W35417  26.138  42.675   1.702
67024W        W35418   1.292  43.721  12.368
67025W        W35419   4.675  25.464   0.834
67026W        W35420  19.781   1.520   0.538
67027W        W35421  34.096  28.196  11.570
67028W        W35422  27.048  35.044   0.045
67029W        W35423  36.260  35.213  14.103
67030W        W35424  36.506   9.946  11.062
67031W        W35425  20.355  38.015   5.006
67032W        W35426   2.886  35.189  11.097
67033W        W35427  31.456  20.564  13.902
67034W        W35428  40.143  36.105   4.128
67035W        W35429  32.493  18.873  11.593
67036W        W35430  14.841   0.584  13.915
67037W        W35431  36.286   0.478   1.435
67038W        W35432   8.571  20.503  11.513
67039W        W35433  14.544  40.919   4.814
67040W        W35434  36.269  14.597   0.862
67041W        W35435  13.623  39.956  12.086
67042W        W35436  29.974   2.384  14.888
67043W        W35437  15.586  23.032  10.719
67044W        W35438  43.301  32.161   0.626
67045W        W35439   2.878  38.279  14.947
67046W        W35440   9.793  41.863  11.525
67047W        W35441  43.972  24.847   1.168
67048W        W35442  26.164  24.021  14.792
67049W        W35443  34.855  27.782  14.010
67050W        W35444  15.419  27.918   2.274
67051W        W35445  36.644   8.197   0.366
67052W        W35446  17.160  42.346  10.603
67053W        W35447  26.947  10.360   2.297
67054W        W35448  31.006  23.068  11.995
67055W        W35449   1.828  10.261  11.177
67056W        W35450  33.601  29.701   3.315
67057W        W35451   1.436  39.113  13.753
67058W        W35452  15.792  19.737   3.689
67059W        W35453  23.602  22.332  14.889
67060W        W35454  26.383  32.473   3.799
67061W        W35455  28.714  28.701   2.844
67062W        W35456   3.249  37.547   0.482
67063W        W35457   3.391  10.313   2.838
67064W        W35458  10.756  15.270  10.756
67065W        W35459  35.619   0.680   2.779
67066W        W35460  29.957   7.808   4.098
67067W        W35461  42.161  30.777   4.244
67068W        W35462   2.775   3.980   2.632
67069W        W35463  24.307  37.506   5.007
67070W        W35464   8.591   2.394  12.491
67071W        W35465  38.896  31.793   1.227
67072W        W35466  15.174  11.574  12.037
67073W        W35467  21.660  26.281  10.033
67074W        W35468  17.430  40.452   3.281
67075W        W35469  35.432  29.166   1.952
67076W        W35470  31.994   5.154  10.947
67077W        W35471  29.505  28.511   4.038
67078W        W35472  10.404  25.477  14.374
67079W        W35473   8.135  15.936  12.190
67080W        W35474  40.896  33.261   4.047
67081W        W35475  20.702  11.581  10.413
67082W        W35476  25.472  20.812  13.559
67083W        W35477   8.131  43.231   2.286
67084W        W35478   5.938  33.784  11.993
67085W        W35479  33.309  24.287   2.748
67086W        W35480  16.981  12.101   1.515
67087W        W35481  26.011  43.443   0.760
67088W        W35482  17.026   9.757  13.052
67089W        W35483  20.567  27.375  11.005
67090W        W35484  29.119  30.497   0.339
67091W        W35485   7.143  37.047  11.578
67092W        W35486  24.558  38.983  14.452
67093W        W35487   9.892  33.141  13.068
67094W        W35488  26.478  37.869   3.894
67095W        W35489  19.960  11.177   1.954
67096W        W35490  36.537  18.571  13.355
67097W        W35491  38.836   4.275   2.898
67098W        W35492   6.399   4.310   3.302
67099W        W35493  20.054   9.167  12.486
67100W        W35494   9.856   4.855   2.536
67101W        W35495  24.112  13.898  12.998
67102W        W35496  41.786  40.366  14.627
67103W        W35497  11.587   9.039   2.802
67104W        W35498   1.212  38.302  12.992
67105W        W35499  13.292  23.146   3.050
67106W        W35500  34.595  34.231   2.216
67107W        W35501   7.716   6.810  10.984
67108W        W35502  41.297  21.592  11.774
67109W        W35503  21.545   8.663   1.961
67110W        W35504  16.635   5.636   2.435
67111W        W35505  10.356   0.920   4.646
67112W        W35506  38.289   7.742   1.278
67113W        W35507  34.488  41.350  14.248
67114W        W35508   4.360  20.766   5.201
67115W        W35509   2.505  12.474  13.344
67116W        W35510  18.011   4.920   0.847
67117W        W35511  26.665  16.105   3.326
67118W        W35512  26.366  36.639  12.220
67119W        W35513  32.139  34.111   4.113
67120W        W35514   7.598  42.505   4.642
67121W        W35515  14.329  22.223   2.737
67122W        W35516  29.895  41.024  10.627
67123W        W35517   8.762  15.255  12.577
67124W        W35518  14.177  26.280   1.244
67125W        W35519  12.073  28.277  11.792
67126W        W35520  31.651  29.979  13.940
67127W        W35521  24.755   2.494   1.136
67128W        W35522  21.497  36.418   3.354
67129W        W35523  19.632  34.568   2.847
67130W        W35524  18.848  36.835   1.894
67131W        W35525   0.542  43.903  11.188
67132W        W35526  43.770  35.462  12.630
67133W        W35527  30.273  26.232  14.026
67134W        W35528  21.758  41.499   4.227
67135W        W35529  27.431  31.793  14.053
67136W        W35530  27.098   6.656   3.211
67137W        W35531  19.761  23.774   3.582
67138W        W35532   7.459  38.199   1.495
67139W        W35533  22.772  43.476  14.468
67140W        W35534  13.184   1.210   1.918
67141W        W35535  40.756  16.194  11.068
67142W        W35536  19.631   2.008   1.458
67143W        W35537   3.995  21.640   1.850
67144W        W35538  31.280   0.001  13.955
67145W        W35539  37.221  12.372   4.496
67146W        W35540  27.278  35.696  13.839
67147W        W35541  40.498   9.647   0.880
67148W        W35542  41.288   6.036   1.148
67149W        W35543  10.116  23.176   3.337
67150W        W35544   1.838   0.817   3.191
67151W        W35545  15.737  42.135   4.946
67152W        W35546  25.986  20.318  14.905
67153W        W35547  31.569   5.820   1.518
67154W        W35548  35.540  38.294  13.813
67155W        W35549   9.891  30.207   4.153
67156W        W35550  39.549  26.875   1.884
67157W        W35551  25.992  41.768  10.254
67158W        W35552  18.873  28.404  11.610
67159W        W35553  44.215  18.156   0.923
67160W        W35554  38.014  42.788   0.364
67161W        W35555   6.157  35.028   4.546
67162W        W35556  36.992  32.912   2.742
67163W        W35557  15.243  22.018  12.429
67164W        W35558  43.022  44.944   0.443
67165W        W35559   3.974  32.622  14.875
67166W        W35560  19.933  12.801  12.584
67167W        W35561  14.913  24.132  14.296
67168W        W35562  16.986  16.676   5.337
67169W        W35563  21.719  22.999   4.371
67170W        W35564  13.770  40.642   0.399
67171W        W35565  22.696  31.694  10.681
67172W        W35566  18.703  29.643   2.729
67173W        W35567   8.700  13.152  12.531
67174W        W35568   7.209  16.483  13.809
67175W        W35569   0.766  10.949  14.770
67176W        W35570   0.682   0.281  13.437
67177W        W35571  40.932  39.889   2.829
67178W        W35572   7.905  32.465   1.249
67179W        W35573  39.123  33.960  14.532
67180W        W35574   2.809  27.423   3.259
67181W        W35575  21.069  30.913   0.425
67182W        W35576  33.354  20.453  10.221
67183W        W35577  18.697  35.792  13.698
67184W        W35578  44.546  19.588  13.412
67185W        W35579  26.876  14.974   2.161
67186W        W35580  14.729   5.194   4.581
67187W        W35581  14.244   0.419   1.898
67188W        W35582   5.392  18.703   2.721
67189W        W35583  26.166   2.348   3.069
67190W        W35584  22.757  23.590   0.216
67191W        W35585   9.819  16.530   2.890
67192W        W35586  33.069   7.162   2.338
67193W        W35587   3.301  10.134   4.197
67194W        W35588  14.706   5.214  12.853
67195W        W35589  36.850   6.720  12.892
67196W        W35590  28.879  32.868   3.198
67197W        W35591  12.676  30.191  12.323
67198W        W35592   3.884  25.207  11.163
67199W        W35593  21.981   1.458   0.949
67200W        W35594  38.503  34.779   3.890
67201W        W35595  36.315   4.954   3.636
67202W        W35596   1.046  26.229  13.754
67203W        W35597  18.569   7.013   4.779
67204W        W35598  20.183  25.519   1.615
67205W        W35599   0.009  23.746   4.294
67206W        W35600  24.180  17.180   2.864
67207W        W35601  35.606  19.328   4.697
67208W        W35602  26.535  43.859  11.566
67209W        W35603  37.999   1.185  12.480
67210W        W35604  35.564  23.560  10.732
67211W        W35605  19.615  43.964   0.190
67212W        W35606  42.439  30.823  14.894
67213W        W35607  30.905  38.980  11.212
67214W        W35608  24.072  16.820  14.204
67215W        W35609  10.589  33.484   0.600
67216W        W35610  36.135   2.232   5.028
67217W        W35611  38.019  10.439   3.174
67218W        W35612  42.919   9.219   2.353
67219W        W35613   8.907  19.100  12.695
67220W        W35614  31.200  23.060  10.977
67221W        W35615  33.445   9.940  13.103
67222W        W35616  29.204  41.885   0.883
67223W        W35617  25.146  28.148   2.505
67224W        W35618   2.904   4.691  12.415
67225W        W35619   8.882  36.419  10.635
67226W        W35620  38.507   4.500   4.274
67227W        W35621  17.835  31.106   1.899
67228W        W35622  40.868  12.193   1.919
67229W        W35623  25.474  43.945  11.532
67230W        W35624  24.680  27.425  14.507
67231W        W35625  12.321  30.582   0.028
67232W        W35626  18.537  37.514   2.261
67233W        W35627  34.518  32.566   2.808
67234W        W35628  27.123  19.042  13.068
67235W        W35629  12.854  39.428  13.459
67236W        W35630  25.725   3.908   2.896
67237W        W35631   2.725   6.714   3.760
67238W        W35632   3.974  20.354   2.277
67239W        W35633  24.153   9.727   0.192
67240W        W35634  13.630  19.706   4.588
67241W        W35635  18.566  30.815   1.408
67242W        W35636   6.178  10.273   1.254
67243W        W35637  23.273  33.375   4.088
67244W        W35638  16.580   9.048   9.923
67245W        W35639  15.449  27.118   1.909
67246W        W35640  12.536  38.128   2.045
67247W        W35641  25.642  31.104   4.781
67248W        W35642  11.151  16.119   2.903
67249W        W35643   3.708   1.403  12.143
67250W        W35644   6.502   0.923  11.343
67251W        W35645  34.215  31.514  13.536
67252W        W35646  44.854  24.186  10.668
67253W        W35647  18.659  43.741   3.789
67254W        W35648  39.296  43.299  10.463
67255W        W35649  38.993  43.280  14.908
67256W        W35650   7.383  24.564   4.005
67257W        W35651  16.224  14.237  14.679
67258W        W35652  15.132  28.855   1.878
67259W        W35653  10.137  19.144  13.845
67260W        W35654   7.687  37.503  12.930
67261W        W35655  42.599  18.219   3.841
67262W        W35656   2.543  28.312  10.241
67263W        W35657  32.516  38.422   0.383
67264W        W35658  23.000  30.488   4.168
67265W        W35659  17.970  31.630   0.359
67266W        W35660  44.831  44.472   2.511
67267W        W35661  10.682  16.946  11.185
67268W        W35662   7.986  34.496  11.071
67269W        W35663  12.141   6.976   2.882
67270W        W35664  39.773  29.394  12.926
67271W        W35665  29.679  15.906   0.162
67272W        W35666  35.122  27.502  13.495
67273W        W35667  25.102  16.239   0.455
67274W        W35668   5.908  27.349   2.194
67275W        W35669   7.508   9.476   0.395
67276W        W35670  10.439  22.720  14.511
67277W        W35671   4.687   8.634   1.585
67278W        W35672  11.163  33.918   4.675
67279W        W35673  36.904   8.542   2.689
67280W        W35674  44.924   6.090  14.978
67281W        W35675  41.972  30.443  13.976
67282W        W35676  41.465   7.891   0.994
67283W        W35677  40.586   6.104  14.818
67284W        W35678  10.752  16.556   0.292
67285W        W35679  28.716  42.871   1.723
67286W        W35680  14.730  23.024  12.587
67287W        W35681  17.219   3.870  14.862
67288W        W35682  15.739  33.687   2.336
67289W        W35683  25.085   8.702   5.013
67290W        W35684   8.688  27.678   0.893
67291W        W35685  31.688  22.678   0.512
67292W        W35686  40.926  11.287   0.719
67293W        W35687  27.419  18.417   4.283
67294W        W35688  41.437  25.389   1.837
67295W        W35689  35.903   3.208  10.898
67296W        W35690   0.504  22.985  14.729
67297W        W35691   4.594   0.074   3.692
67298W        W35692  13.559  42.272  12.030
67299W        W35693  44.489  14.170  11.713
67300W        W35694  17.824   8.249  10.711
67301W        W35695  14.485  30.303  12.532
67302W        W35696   3.165   0.457  12.517
67303W        W35697  21.794  34.779   5.119
67304W        W35698  26.103  30.469  10.973
67305W        W35699   4.090  41.904   2.790
67306W        W35700  24.472  28.766  12.410
67307W        W35701  12.268  41.456  12.600
67308W        W35702   9.216   1.509  10.548
67309W        W35703   1.417  27.614   3.177
67310W        W35704  19.610  32.335   1.301
67311W        W35705   0.925  39.621   3.799
67312W        W35706  37.590  38.963   3.180
67313W        W35707  40.053  22.078   2.506
67314W        W35708  19.630  38.870   3.710
67315W        W35709  34.388  29.485  11.425
67316W        W35710  28.366   0.800   2.361
67317W        W35711   8.398   3.403  12.909
67318W        W35712   5.750  14.220  11.904
67319W        W35713  44.877   2.764  13.007
67320W        W35714  12.741  22.178   0.677
67321W        W35715   7.837  39.944   4.536
67322W        W35716  18.571  38.484  11.183
67323W        W35717  29.528  39.426   4.761
67324W        W35718  35.827  13.761   4.641
67325W        W35719  17.486  40.045  14.756
67326W        W35720  44.311  32.526  10.657
67327W        W35721   0.250  23.063  11.152
67328W        W35722  17.788  12.892   3.607
67329W        W35723   9.725  35.983   3.896
67330W        W35724  10.544  34.179  14.318
67331W        W35725   8.388  42.105   0.767
67332W        W35726   7.272  36.613  12.597
67333W        W35727   1.988  23.320   4.320
67334W        W35728  29.497  20.505  13.389
67335W        W35729  33.953  30.742   4.305
67336W        W35730   9.385  41.581   4.972
67337W        W35731  20.348   9.448   1.922
67338W        W35732  31.594  10.108  11.435
67339W        W35733  43.587   2.876  14.266
67340W        W35734  18.673  17.068  11.009
67341W        W35735   3.925  36.864   3.752
67342W        W35736  38.578  24.711   3.317
67343W        W35737  31.062   4.184  13.418
67344W        W35738  23.296  38.064  13.710
67345W        W35739  32.300  25.673  14.871
67346W        W35740  32.396  28.140   3.676
67347W        W35741  43.582  44.802  13.356
67348W        W35742  36.032  42.509   2.978
67349W        W35743  33.402  30.495  11.781
67350W        W35744  15.813  22.736   2.832
67351W        W35745  11.261  29.446   3.761
67352W        W35746  33.608  10.852  14.770
67353W        W35747   4.752  31.106  12.166
67354W        W35748  26.230  29.165   3.677
67355W        W35749  40.675  39.554   5.696
67356W        W35750  24.549   8.899  12.144
67357W        W35751  12.688   9.202  11.194
67358W        W35752  12.917  32.534  13.421
67359W        W35753  20.856  26.177   4.102
67360W        W35754  20.843  32.892   4.423
67361W        W35755  29.118   8.590   3.141
67362W        W35756  28.017  26.954   0.153
67363W        W35757  18.642  17.504   4.140
67364W        W35758  34.830  44.399  11.629
67365W        W35759  17.243   6.080  13.828
67366W        W35760  27.155  18.443  12.944
67367W        W35761  16.796   0.028  12.727
67368W        W35762  44.311  23.942  12.381
67369W        W35763   6.005  24.022   3.711
67370W        W35764   0.783  15.740  13.023
67371W        W35765  32.644  24.539   3.685
67372W        W35766  20.755   1.236  14.940
67373W        W35767  16.939  43.287   2.092
67374W        W35768  23.240  21.556  11.572
67375W        W35769  17.855  43.463  14.950
67376W        W35770   4.382  31.112   3.279
67377W        W35771  41.921  21.749   1.376
67378W        W35772  40.686  20.171   0.385
67379W        W35773  36.406  11.316   1.774
67380W        W35774  24.252   4.447   3.770
67381W        W35775   1.944  14.402   1.792
67382W        W35776   7.696  32.106  11.519
67383W        W35777   2.671  42.950   0.435
67384W        W35778  37.441  38.354  11.161
67385W        W35779   1.408   0.879  12.432
67386W        W35780  19.799   6.230   0.732
67387W        W35781  11.972  25.171   1.864
67388W        W35782  25.678  32.914   4.881
67389W        W35783  23.257  39.248   0.791
67390W        W35784   6.659  38.422   1.769
67391W        W35785   2.463   7.260  13.580
67392W        W35786  24.091  42.655   2.601
67393W        W35787  26.076   2.551  14.802
67394W        W35788  42.937   8.877   4.168
67395W        W35789  19.281  28.454   3.445
67396W        W35790  19.152  24.005   0.366
67397W        W35791   6.370  19.744  14.381
67398W        W35792  24.628  14.037  12.061
67399W        W35793  27.015  25.949  14.224
67400W        W35794   2.597  23.631  11.405
67401W        W35795  19.129  21.265   4.554
67402W        W35796  17.061   1.323  10.337
67403W        W35797  34.519   1.489   2.124
67404W        W35798   4.792  32.236   0.407
67405W        W35799  43.516  35.815   4.054
67406W        W35800   3.266  11.589   0.726
67407W        W35801  37.132  39.992  10.421
67408W        W35802  44.772   9.223  12.078
67409W        W35803  29.601  18.007   0.951
67410W        W35804  24.118  24.932   5.173
67411W        W35805  33.129  26.024   2.467
67412W        W35806   9.670  12.921   4.665
67413W        W35807  37.085  18.490  14.167
67414W        W35808  42.442  28.397  14.553
67415W        W35809  35.904  42.319  10.726
67416W        W35810  39.476  31.350  14.948
67417W        W35811  22.706  33.651   2.655
67418W        W35812   2.342  39.050  13.630
67419W        W35813  27.139  12.375  13.812
67420W        W35814  21.611  19.364  12.408
67421W        W35815   2.227  10.672  14.918
67422W        W35816  38.508  41.818   0.194
67423W        W35817  11.584  23.640  13.180
67424W        W35818  14.382  18.469   0.487
67425W        W35819  44.218  34.599  12.599
67426W        W35820   3.292   4.126   1.375
67427W        W35821  14.292  43.399   0.694
67428W        W35822  34.452  15.723   2.607
67429W        W35823  24.513  12.666   3.506
67430W        W35824  39.097  13.871  10.661
67431W        W35825  39.431  19.046  12.486
67432W        W35826  20.185  17.574  12.316
67433W        W35827  12.403  34.589  11.258
67434W        W35828   5.444  39.288  11.973
67435W        W35829   2.096   0.989   0.948
67436W        W35830  13.184   4.355   0.963
67437W        W35831  13.763  44.342  12.189
67438W        W35832   8.762  20.927   4.120
67439W        W35833  28.918  44.395   0.384
67440W        W35834  38.810   7.806   1.452
67441W        W35835   3.739  20.268   0.405
67442W        W35836  25.486  16.096   1.412
67443W        W35837   8.877  40.106  11.257
67444W        W35838   2.937  25.402   4.552
67445W        W35839  40.970  42.627   4.279
67446W        W35840  31.860  32.292   0.470
67447W        W35841   0.827  37.334  11.606
67448W        W35842  39.516  41.044   4.152
67449W        W35843  13.408  14.645   2.420
67450W        W35844  27.487  21.991  12.935
67451W        W35845  14.099  36.630  11.660
67452W        W35846  43.922  27.041   0.905
67453W        W35847  39.277   5.412  11.991
67454W        W35848   5.712  38.124  11.553
67455W        W35849  28.938   3.331   3.366
67456W        W35850   3.278  23.466   2.642
67457W        W35851   6.421  14.245   4.507
67458W        W35852  40.874  12.724  11.566
67459W        W35853  36.490  24.918   3.054
67460W        W35854  33.660   2.543   2.256
67461W        W35855  29.488  22.779   3.655
67462W        W35856  19.045  35.011  13.078
67463W        W35857  39.997  38.577  13.815
67464W        W35858   3.347  41.269   2.769
67465W        W35859  43.490  42.975   0.316
67466W        W35860  40.802  42.936   3.908
67467W        W35861  34.431  22.001  13.787
67468W        W35862  23.639   2.385  13.374
67469W        W35863  19.563   8.847  14.919
67470W        W35864  10.127   4.999  11.928
67471W        W35865  29.404  32.070  14.437
67472W        W35866  26.825  16.176   3.933
67473W        W35867  42.438  25.777   1.817
67474W        W35868   9.421  38.007  13.979
67475W        W35869   0.618  15.162  14.585
67476W        W35870  43.533   8.422  11.941
67477W        W35871   9.373   6.236  13.470
67478W        W35872  24.266  10.830  13.865
67479W        W35873  38.035   6.695   3.406
67480W        W35874  37.858  16.245   3.942
67481W        W35875  15.742   2.953  13.697
67482W        W35876   2.081  12.237   2.253
67483W        W35877  41.535   2.964   2.485
67484W        W35878  23.575  13.658   0.890
67485W        W35879  30.736  44.894   0.427
67486W        W35880   3.250  32.270  12.198
67487W        W35881   0.040   3.034   2.929
67488W        W35882  35.115   2.512  14.906
67489W        W35883  15.834  24.079   4.980
67490W        W35884  14.639  37.318  14.110
67491W        W35885  14.818  40.083   4.122
67492W        W35886   2.600   7.213   5.039
67493W        W35887  44.688  32.058   0.945
67494W        W35888  22.972  35.321   0.491
67495W        W35889   7.936  13.853  11.822
67496W        W35890  33.308  26.203   1.384
67497W        W35891  18.616  10.945   2.326
67498W        W35892  36.173  32.278   4.186
67499W        W35893  34.532  33.016  14.465
67500W        W35894  22.582  42.019  13.925
67501W        W35895   7.846   3.290   3.653
67502W        W35896  35.160  16.381  14.768
67503W        W35897   0.906  35.339  13.359
67504W        W35898   2.028  36.292  14.797
67505W        W35899  29.974   2.689  11.059
67506W        W35900  15.819  10.458   1.679
67507W        W35901  31.630   3.185  13.716
67508W        W35902  38.476  40.616  12.908
67509W        W35903  20.012  13.686   2.736
67510W        W35904   6.507  29.342   1.366
67511W        W35905  17.145   6.965  14.398
67512W        W35906  38.195   3.222   4.703
67513W        W35907  21.199   9.493   3.218
67514W        W35908  35.166  24.065  12.304
67515W        W35909   2.395  11.088  13.572
67516W        W35910  44.030   4.773  10.412
67517W        W35911  13.320  35.023  13.295
67518W        W35912   6.269  39.442  11.926
67519W        W35913  13.812  12.322  13.368
67520W        W35914   7.156   6.446  11.994
67521W        W35915  30.410  11.450  11.099
67522W        W35916  25.762  41.810   3.701
67523W        W35917   6.136  22.634   2.649
67524W        W35918  24.074  15.672  14.599
67525W        W35919  24.112  39.285   0.845
67526W        W35920  34.662   0.386   3.625
67527W        W35921  43.467  11.511  11.714
67528W        W35922   8.878  31.959  14.616
67529W        W35923  15.470   6.831   3.288
67530W        W35924  32.607  44.211  14.917
67531W        W35925  25.601  13.106   2.587
67532W        W35926  15.198  22.240  12.919
67533W        W35927  23.778  36.521  12.900
67534W        W35928  26.426  14.626   0.799
67535W        W35929  41.037  16.141   2.826
67536W        W35930   8.119  43.944   4.548
67537W        W35931  36.508   2.285  11.663
67538W        W35932   1.439  34.169   0.061
67539W        W35933  14.859   3.283  13.265
67540W        W35934  40.362  29.877  14.959
67541W        W35935  24.535  42.753  10.239
67542W        W35936   6.406  19.777  10.990
67543W        W35937   2.246   4.354   0.435
67544W        W35938   4.249  28.086  11.668
67545W        W35939  41.091  23.927  12.675
67546W        W35940   2.682  15.294  12.902
67547W        W35941   3.913  34.502  10.739
67548W        W35942  29.317  10.202  13.435
67549W        W35943  26.714  30.330   0.930
67550W        W35944   6.893  10.618  12.653
67551W        W35945  25.409   2.435   1.843
67552W        W35946  32.410  38.936   0.412
67553W        W35947  23.775   8.633  12.797
67554W        W35948  38.348   5.672  14.751
67555W        W35949  27.522  23.251  14.782
67556W        W35950  25.207   5.050   0.219
67557W        W35951  32.681  41.395  11.286
67558W        W35952  44.162   4.570   1.796
67559W        W35953  14.492  10.740  11.519
67560W        W35954   0.721  16.495  13.431
67561W        W35955  19.428  17.103  13.812
67562W        W35956   2.831  31.592  11.184
67563W        W35957  37.413  28.960   0.656
67564W        W35958  17.288  23.169   2.235
67565W        W35959   6.222   1.338  11.533
67566W        W35960  38.097   7.930  10.604
67567W        W35961  32.115  30.482  14.473
67568W        W35962   7.195  26.567   4.580
67569W        W35963  25.045  31.725  13.016
67570W        W35964  38.801  10.720   1.793
67571W        W35965  41.354  15.328  10.564
67572W        W35966  15.051  35.322   1.471
67573W        W35967   4.903  21.178  11.118
67574W        W35968  35.582  31.676  11.023
67575W        W35969  37.530  12.748   3.350
67576W        W35970  22.513  26.388   1.163
67577W        W35971   1.688   9.550  14.443
67578W        W35972  20.085  21.670  14.083
67579W        W35973  41.966  10.904  13.485
67580W        W35974  34.422   0.929   1.991
67581W        W35975  31.271  21.005  11.944
67582W        W35976  16.067  11.050   1.230
67583W        W35977   9.477  30.588   2.315
67584W        W35978   6.393  38.923  14.042
67585W        W35979  37.513   3.903  14.844
67586W        W35980  27.962  35.071  14.434
67587W        W35981  35.091   3.506  11.196
67588W        W35982  11.703   8.444   5.052
67589W        W35983  31.379  28.486  11.151
67590W        W35984   1.161  32.152  12.517
67591W        W35985  20.174  15.632  13.840
67592W        W35986  22.647  28.584   0.393
67593W        W35987  34.792   8.717   5.156
67594W        W35988  32.950   7.681   3.108
67595W        W35989  11.895   4.234  11.174
67596W        W35990  43.427  29.947   4.344
67597W        W35991  27.663  23.181   0.455
67598W        W35992  42.826   7.542   4.158
67599W        W35993  36.503   6.848  14.252
67600W        W35994   4.926  38.629  12.979
67601W        W35995  42.494  13.758   4.627
67602W        W35996   5.497  13.109  12.477
67603W        W35997  34.889  22.614   3.058
67604W        W35998   2.148   2.708   2.370
67605W        W35999  27.200   0.533   3.682
67606W        W36000   0.863   7.372   3.562
67607W        W36001  35.703  38.319   0.304
67608W        W36002  40.832   7.351  14.955
67609W        W36003  10.918  13.565   1.587
67610W        W36004  22.333  29.760  14.813
67611W        W36005  23.769   0.351   0.393
67612W        W36006  29.411  44.585  14.385
67613W        W36007  29.926  17.781   1.785
67614W        W36008  18.432  19.628   0.674
67615W        W36009  16.040  21.534   3.264
67616W        W36010  28.036   5.845   3.295
67617W        W36011   9.121  29.128  14.608
67618W        W36012   3.072  35.139  11.865
67619W        W36013   3.676  13.814  14.734
67620W        W36014  22.667  18.801  12.245
67621W        W36015   9.666  13.836   3.116
67622W        W36016  26.655  20.299  13.072
67623W        W36017  38.533  19.189   3.205
67624W        W36018  19.198  41.189   0.309
67625W        W36019   2.294   3.738  14.427
67626W        W36020  34.499   6.955   0.783
67627W        W36021  13.030   9.100   2.739
67628W        W36022   6.871  38.874   4.766
67629W        W36023   0.384  43.207   3.262
67630W        W36024  10.291  23.629  10.673
67631W        W36025  19.161  24.006  12.993
67632W        W36026  14.565  42.034  13.604
67633W        W36027  33.622  23.990   3.138
67634W        W36028  10.982   2.301  13.971
67635W        W36029  29.648  43.272  14.075
67636W        W36030   1.947  37.559  11.546
67637W        W36031  40.125  33.866   1.443
67638W        W36032   7.759  26.176   3.443
67639W        W36033  23.376  25.722   3.116
67640W        W36034  27.888  12.272   2.533
67641W        W36035  38.991  14.070  14.899
67642W        W36036  19.097  27.968   2.139
67643W        W36037  34.872  25.057   0.230
67644W        W36038  10.685  40.771  11.143
67645W        W36039  16.540   0.304  11.083
67646W        W36040   7.128  38.876   4.203
67647W        W36041  27.451   4.796  12.019
67648W        W36042  33.818  32.895   0.757
67649W        W36043   7.315  31.105   0.484
67650W        W36044   6.936   7.297  14.069
67651W        W36045  34.396   7.796  14.473
67652W        W36046   1.794  37.350   4.720
67653W        W36047  15.834  22.206   1.700
67654W        W36048  22.183  42.794  10.398
67655W        W36049  34.386  12.242  12.682
67656W        W36050  44.561  44.285   0.315
67657W        W36051  19.174  15.340  11.142
67658W        W36052   1.301  14.383  11.878
67659W        W36053  35.484   9.676  11.175
67660W        W36054  23.112   0.305  14.065
67661W        W36055  34.908   8.562   0.470
67662W        W36056  41.794  20.316  14.348
67663W        W36057  35.639  26.061   4.342
67664W        W36058  28.496  34.019  13.597
67665W        W36059  30.185   1.459   1.491
67666W        W36060  29.110  24.959  11.452
67667W        W36061  32.434  13.328  13.545
67668W        W36062   0.916  24.701  10.602
67669W        W36063   6.671   5.361  10.286
67670W        W36064  36.985  10.468  13.958
67671W        W36065  18.761  29.148  13.037
67672W        W36066  43.096   3.333  12.113
67673W        W36067  37.375  13.609  14.449
67674W        W36068  44.729  12.971   4.089
67675W        W36069  33.009  25.422  10.715
67676W        W36070   2.740  31.606  13.778
67677W        W36071   2.696   3.197  12.890
67678W        W36072  31.596   5.786   3.244
67679W        W36073  14.681  40.894   2.644
67680W        W36074  14.336  13.302   2.211
67681W        W36075  26.567  21.918  10.287
67682W        W36076  39.855   3.855   2.153
67683W        W36077  22.997  34.612  11.016
67684W        W36078   7.257  19.106  12.796
67685W        W36079  26.209  23.608   3.045
67686W        W36080  17.275   2.265  13.218
67687W        W36081   7.815  25.982  13.976
67688W        W36082  28.484  16.695   2.034
67689W        W36083  22.201  18.665   0.826
67690W        W36084  38.395   4.838   3.338
67691W        W36085  36.861  37.399  11.556
67692W        W36086  40.431  22.773  12.588
67693W        W36087   6.563  11.468   0.403
67694W        W36088   1.523   5.552   3.632
67695W        W36089  35.446  33.947   3.710
67696W        W36090  14.529  43.092   3.226
67697W        W36091  26.014  19.345   4.553
67698W        W36092  25.546  20.000   5.065
67699W        W36093  16.621  21.963  12.329
67700W        W36094  25.534  21.553   2.390
67701W        W36095  17.358  34.470  14.761
67702W        W36096  41.433  40.467  10.756
67703W        W36097   3.316  33.101  12.542
67704W        W36098  18.089   9.288  14.388
67705W        W36099   0.309   7.503   4.668
67706W        W36100  28.971   5.663   1.408
67707W        W36101  35.621   9.975  14.863
67708W        W36102   1.033  27.876  14.929
67709W        W36103   5.900  13.058   4.132
67710W        W36104  17.512  37.560   1.548
67711W        W36105  12.839  22.480   4.343
67712W        W36106  25.555  16.719   0.235
67713W        W36107  20.029  27.672  14.360
67714W        W36108   3.930  34.007   4.600
67715W        W36109   9.773   0.278   2.891
67716W        W36110  28.470   2.523  11.140
67717W        W36111  28.124  31.240   1.159
67718W        W36112  39.403  18.787  13.987
67719W        W36113  34.973  29.017  10.766
67720W        W36114  11.724  30.825  14.726
67721W        W36115  43.781  32.145   4.531
67722W        W36116  32.763  22.980  12.104
67723W        W36117   7.682  13.107   3.602
67724W        W36118  19.579   4.001  13.130
67725W        W36119  22.601  25.586  12.994
67726W        W36120  22.544  18.212   0.678
67727W        W36121  27.548   0.795   5.003
67728W        W36122   7.918  34.760  12.488
67729W        W36123  41.993  35.645  12.136
67730W        W36124  15.782   9.532   4.570
67731W        W36125  36.276  41.445  12.303
67732W        W36126  41.484  20.679   2.594
67733W        W36127  20.883  22.040  10.611
67734W        W36128   5.171   0.198   4.638
67735W        W36129  42.964   1.377   3.826
67736W        W36130  36.983   6.880   0.704
67737W        W36131   7.950   7.458  14.259
67738W        W36132  34.364   1.008  12.453
67739W        W36133  11.911  18.460  10.293
67740W        W36134  14.036  26.560  11.492
67741W        W36135  35.828  27.165   1.050
67742W        W36136  21.295  25.007   2.252
67743W        W36137  23.669  39.270  11.429
67744W        W36138   0.484  36.446  14.828
67745W        W36139   5.302  22.045  10.593
67746W        W36140   6.912  26.670   2.279
67747W        W36141   0.210   7.445  11.398
67748W        W36142  27.701  40.370  13.832
67749W        W36143   1.313  20.727   2.451
67750W        W36144  20.796  43.244   2.340
67751W        W36145  39.437  19.863   4.287
67752W        W36146  20.087  24.703  10.084
67753W        W36147  39.014  31.906   0.244
67754W        W36148  41.939  21.451   4.030
67755W        W36149  38.719  39.219   5.021
67756W        W36150  20.717   8.385  11.507
67757W        W36151  35.611  11.093  12.966
67758W        W36152  31.058  19.307   4.584
67759W        W36153   0.148  44.470   3.389
67760W        W36154   1.098   3.852   0.878
67761W        W36155  11.830  26.962   3.759
67762W        W36156  15.102  26.481   2.652
67763W        W36157   9.117  27.842   0.067
67764W        W36158  18.120   5.807  12.763
67765W        W36159  36.062   4.443   3.283
67766W        W36160  31.841  34.598   4.140
67767W        W36161  44.950  16.255   3.755
67768W        W36162  16.806  36.729  12.893
67769W        W36163  28.883  25.952   1.701
67770W        W36164  32.337  26.682  10.953
67771W        W36165   2.459  19.235   0.723
67772W        W36166  24.989  19.271   2.382
67773W        W36167   0.238  40.698  10.342
67774W        W36168  12.672   1.967   3.368
67775W        W36169   5.419  32.392   2.575
67776W        W36170  13.407  29.246   3.151
67777W        W36171  15.334  18.388  13.303
67778W        W36172  27.731  39.017   2.407
67779W        W36173  24.015  40.897  13.897
67780W        W36174  40.368  19.689   4.652
67781W        W36175  15.654  39.114  14.427
67782W        W36176  22.501  35.926   1.482
67783W        W36177   1.177  20.947  14.082
67784W        W36178  26.991  20.108   3.992
67785W        W36179   7.203  21.863   4.978
67786W        W36180  26.905  42.637  11.136
67787W        W36181   5.283  36.803   1.764
67788W        W36182  11.886  38.020  11.028
67789W        W36183  18.115  33.555   4.537
67790W        W36184  22.294  17.099   3.213
67791W        W36185   6.744  41.051  12.107
67792W        W36186   4.225  23.952  14.494
67793W        W36187  18.182  29.642  13.327
67794W        W36188  33.147  31.538   0.812
67795W        W36189   2.296  22.589   4.607
67796W        W36190  17.790  33.996  10.972
67797W        W36191  43.352  13.764  10.518
67798W        W36192  41.533  17.079  13.972
67799W        W36193  39.993  31.023  14.597
67800W        W36194  30.395  31.354   3.752
67801W        W36195   5.863  31.394   4.547
67802W        W36196  17.979  39.675  13.326
67803W        W36197  22.728   4.262  11.911
67804W        W36198  44.841   8.839  11.537
67805W        W36199  10.993  28.211  14.476
67806W        W36200   5.944  14.634  12.145
67807W        W36201   9.771  30.356   1.890
67808W        W36202  34.162  28.981  13.077
67809W        W36203  20.126   0.044   1.333
67810W        W36204   9.734   4.250  13.870
67811W        W36205  19.177  12.098   2.182
67812W        W36206  44.200  20.264   0.020
67813W        W36207  28.096  42.271   0.247
67814W        W36208   4.479  29.720  10.624
67815W        W36209  18.066  36.833   1.187
67816W        W36210  42.555  10.866   2.707
67817W        W36211   2.301  40.504  13.083
67818W        W36212  12.192  37.313  13.931
67819W        W36213  11.660  26.079  11.398
67820W        W36214   1.298  15.683  12.963
67821W        W36215   5.991  43.531  13.810
67822W        W36216  42.052   6.278  12.953
67823W        W36217  17.129  36.569  14.292
67824W        W36218   4.295  27.110  13.014
67825W        W36219  39.815  17.052   4.163
67826W        W36220  22.542  19.134   1.769
67827W        W36221  36.380  43.530  10.950
67828W        W36222  16.914  28.090  14.970
67829W        W36223   8.222  36.575   1.792
67830W        W36224  28.021  12.273  14.858
67831W        W36225   2.148  32.550   2.896
67832W        W36226  13.453  14.857   4.167
67833W        W36227  16.714  40.196   0.781
67834W        W36228   0.957  25.749  13.511
67835W        W36229  41.415   3.716   0.291
67836W        W36230  21.636  30.943  11.077
67837W        W36231  13.673  14.426  14.700
67838W        W36232  12.273  14.185  13.986
67839W        W36233  25.171  28.089   5.282
67840W        W36234   7.151  21.078  12.895
67841W        W36235  33.148  20.571  10.692
67842W        W36236  33.380  39.533   2.241
67843W        W36237  29.288  42.106   0.337
67844W        W36238   6.565  19.726   3.513
67845W        W36239  11.930  30.700   1.403
67846W        W36240   6.372  41.567   4.650
67847W        W36241   8.250  27.917   2.347
67848W        W36242  42.737  21.285  13.827
67849W        W36243  19.522  20.041   2.796
67850W        W36244   6.630  36.469  12.010
67851W        W36245  22.697  33.288   2.268
67852W        W36246  20.991  26.092  14.973
67853W        W36247  40.637  40.958  11.167
67854W        W36248   2.551  42.010   4.840
67855W        W36249  28.771  20.725   2.832
67856W        W36250  11.272  17.659  10.392
67857W        W36251  31.793  11.264  11.276
67858W        W36252  21.116  20.669  14.480
67859W        W36253   4.396  36.408   3.229
67860W        W36254  32.511   7.425  12.428
67861W        W36255  26.689  26.041   1.982
67862W        W36256  15.810  31.630   0.983
67863W        W36257  18.137   0.223  12.786
67864W        W36258   8.288  39.593   1.066
67865W        W36259   5.740  39.517  13.963
67866W        W36260   2.661  30.616   1.355
67867W        W36261  29.428  37.271   2.956
67868W        W36262  33.928  13.535   0.933
67869W        W36263   4.831  43.155   4.528
67870W        W36264   3.724  21.366  11.578
67871W        W36265  25.288   7.118  13.734
67872W        W36266  30.910   9.748   0.991
67873W        W36267  20.279  19.610   0.844
67874W        W36268  39.484  12.758   2.181
67875W        W36269   1.268  30.697   1.176
67876W        W36270  18.770   4.584   1.183
67877W        W36271   6.642   5.954   1.085
67878W        W36272  32.689  38.901   1.437
67879W        W36273   7.880  11.565   2.218
67880W        W36274   5.626  12.627   4.152
67881W        W36275  39.736  29.619  10.433
67882W        W36276  27.779  30.812   3.157
67883W        W36277  18.275   4.833  13.307
67884W        W36278  40.982  16.220  12.858
67885W        W36279  26.606  31.677  13.895
67886W        W36280   4.866   8.395   4.619
67887W        W36281  32.606  41.796  13.491
67888W        W36282   8.661  34.599   0.772
67889W        W36283   2.487  34.088  10.411
67890W        W36284   3.385  22.075   2.652
67891W        W36285   1.034  33.972  12.625
67892W        W36286  30.865   9.477   1.499
67893W        W36287   8.116   1.765   2.244
67894W        W36288   9.323   3.449  14.014
67895W        W36289  13.636  20.196   2.628
67896W        W36290  25.398  29.104  14.324
67897W        W36291   5.676  38.374   3.749
67898W        W36292   2.646  43.719  12.872
67899W        W36293  12.844  36.887   3.113
67900W        W36294  16.648  36.570  12.164
67901W        W36295  14.626   1.795  12.650
67902W        W36296   1.702  30.617   1.445
67903W        W36297  39.705  15.297  11.482
67904W        W36298  41.522   0.940   1.193
67905W        W36299  42.872  24.103   1.412
67906W        W36300   1.313  25.024  10.639
67907W        W36301  27.950  29.676   2.246
67908W        W36302  19.758  29.367   3.629
67909W        W36303   5.384  12.762   3.697
67910W        W36304  35.481   8.712   4.660
67911W        W36305  19.590  43.759   2.561
67912W        W36306  41.542  33.669   0.478
67913W        W36307  36.401  17.649   2.318
67914W        W36308  10.801  40.292   3.150
67915W        W36309  11.143  17.590  14.948
67916W        W36310  29.317  39.464   0.028
67917W        W36311  29.929  22.215  14.294
67918W        W36312   0.004  22.641  14.461
67919W        W36313   2.555  25.093  11.135
67920W        W36314  21.547   1.673  10.951
67921W        W36315  33.004   0.733  10.822
67922W        W36316   1.958  38.815  12.984
67923W        W36317  28.488  41.475   1.814
67924W        W36318  21.915  21.434   2.269
67925W        W36319   9.136   0.934   1.474
67926W        W36320  43.761  23.445   0.160
67927W        W36321   6.722  30.548   0.727
67928W        W36322  20.343   5.246  11.374
67929W        W36323  22.736  35.082  14.801
67930W        W36324  13.781   2.658   1.741
67931W        W36325  35.564  38.429  14.306
67932W        W36326  23.368  20.352  13.734
67933W        W36327   1.796  40.099  10.649
67934W        W36328  12.824  29.305  12.511
67935W        W36329  22.928  34.769  12.020
67936W        W36330  43.905  15.522   0.570
67937W        W36331  37.684  34.558   0.014
67938W        W36332  27.860  28.985   2.903
67939W        W36333  19.102  28.871   0.278
67940W        W36334  34.559  44.089  12.967
67941W        W36335  16.186  44.903   2.807
67942W        W36336  24.748  37.605  14.564
67943W        W36337  40.153  35.462  10.370
67944W        W36338  28.043  16.297   2.820
67945W        W36339   8.648  20.695   2.255
67946W        W36340  36.993  35.802   2.682
67947W        W36341   3.028  37.882   2.212
67948W        W36342   3.225  17.436  13.016
67949W        W36343   8.229  17.433  12.430
67950W        W36344   6.682   1.816   2.731
67951W        W36345  36.167  38.095   0.224
67952W        W36346  40.964  35.852  10.218
67953W        W36347  34.122   7.979   1.636
67954W        W36348   2.610  19.871   1.426
67955W        W36349  26.226  37.138  13.394
67956W        W36350  42.454   7.917   2.721
67957W        W36351  38.362  39.447  12.531
67958W        W36352  35.777  14.236   4.106
67959W        W36353  20.621  15.312   1.747
67960W        W36354  14.679  10.594   2.161
67961W        W36355   0.830  28.234   2.282
67962W        W36356  41.993   5.696  11.524
67963W        W36357  27.226  19.735   1.754
67964W        W36358  17.360  26.142  13.145
67965W        W36359  24.526   1.876  12.680
67966W        W36360  33.364   6.705  10.816
67967W        W36361   9.874  25.395  11.101
67968W        W36362  40.787  34.633   0.353
67969W        W36363  35.719   8.201  12.861
67970W        W36364  37.616  34.655  13.395
67971W        W36365  36.012  10.818   0.140
67972W        W36366  19.887  10.210   1.512
67973W        W36367   4.841  10.443  11.469
67974W        W36368   0.690  15.457  13.593
67975W        W36369  40.814  29.598   3.188
67976W        W36370  39.280  32.934  13.051
67977W        W36371  37.916  39.381  13.365
67978W        W36372  30.879  36.819  13.462
67979W        W36373  12.328  31.331  12.430
67980W        W36374   8.379  37.070   2.774
67981W        W36375  22.506   2.451  14.949
67982W        W36376  41.294  28.704  11.070
67983W        W36377   6.483  43.520  12.059
67984W        W36378  40.917  24.712  14.188
67985W        W36379  16.381  22.433   3.488
67986W        W36380  22.534  32.377   4.658
67987W        W36381  20.626  33.953   2.246
67988W        W36382  12.071  24.253  14.462
67989W        W36383  12.597   0.328   2.085
67990W        W36384   4.973  19.180  14.287
67991W        W36385   7.295  32.643   2.354
67992W        W36386  34.916  39.515   3.689
67993W        W36387   9.946   1.233  13.331
67994W        W36388   4.047  30.826  13.042
67995W        W36389  29.026  36.101  12.866
67996W        W36390  14.607   3.151  11.950
67997W        W36391   8.899  15.686   0.677
67998W        W36392  17.383  44.898  11.218
67999W        W36393  23.210  15.447  12.138
68000W        W36394  40.365  39.636   1.707
68001W        W36395  18.254   8.918  12.023
68002W        W36396  33.241  31.364  11.622
68003W        W36397  42.569   1.455  14.907
68004W        W36398   4.801  10.238   4.264
68005W        W36399  26.679   6.872  14.021
68006W        W36400   8.929  15.507   2.770
68007W        W36401  38.336   1.600  11.863
68008W        W36402  30.932  18.061   2.229
68009W        W36403  42.436  17.311   1.218
68010W        W36404  42.311  24.168  13.993
68011W        W36405  21.321  43.250   2.337
68012W        W36406  12.725  40.213  12.536
68013W        W36407  12.285  40.020  12.330
68014W        W36408   1.526   0.535   1.796
68015W        W36409  42.570  25.156  11.134
68016W        W36410   2.382  41.778  11.974
68017W        W36411  20.888   3.767  14.535
68018W        W36412   0.047   6.907  14.741
68019W        W36413  26.687  35.627  14.317
68020W        W36414  20.502  40.747  12.021
68021W        W36415  33.400  22.479   4.702
68022W        W36416  40.624  37.407   3.800
68023W        W36417  43.894   7.416   1.188
68024W        W36418  31.449   7.664   1.445
68025W        W36419  28.927  38.405   2.430
68026W        W36420  39.671  42.907  11.626
68027W        W36421  14.145  33.109  10.754
68028W        W36422  13.823  13.239   3.090
68029W        W36423  29.701  32.663   3.399
68030W        W36424  44.287   4.956  11.821
68031W        W36425  11.735  37.030   4.737
68032W        W36426  14.835  24.037  12.522
68033W        W36427  10.722  10.113   4.812
68034W        W36428  38.140  16.493  12.418
68035W        W36429   8.312  12.332  14.033
68036W        W36430  26.636  27.955  13.281
68037W        W36431  32.341  24.593   2.726
68038W        W36432   8.314  11.936  12.528
68039W        W36433  23.815  11.972   3.045
68040W        W36434   8.161  14.275   2.241
68041W        W36435  33.974  24.003   0.268
68042W        W36436  37.332  38.066  12.144
68043W        W36437  42.545  16.029   2.840
68044W        W36438   0.305  38.589   0.776
68045W        W36439   0.568  37.199   5.349
68046W        W36440   3.402  42.566   4.235
68047W        W36441  19.578  10.141  12.575
68048W        W36442  23.584  24.255  13.644
68049W        W36443  27.449  28.728   3.168
68050W        W36444  35.940   1.275  12.974
68051W        W36445   8.753   6.497   1.329
68052W        W36446  14.449   3.716   3.140
68053W        W36447  42.817  27.041   4.714
68054W        W36448   0.820   3.308  13.890
68055W        W36449  17.536  34.635   3.297
68056W        W36450  42.830   3.820  13.005
68057W        W36451   7.789  28.671  13.933
68058W        W36452  23.564  32.503   0.844
68059W        W36453  27.092  43.995  14.313
68060W        W36454  34.967  27.757  12.063
68061W        W36455  40.037  41.572   0.028
68062W        W36456   1.500  29.059  12.102
68063W        W36457  30.996  22.515   3.261
68064W        W36458  33.377  11.423  11.120
68065W        W36459  36.918  42.409   4.577
68066W        W36460   2.329  22.605   2.841
68067W        W36461   8.634  40.079   3.908
68068W        W36462   4.534  16.184  11.973
68069W        W36463  30.302  31.326  11.495
68070W        W36464   6.417   4.907   2.071
68071W        W36465  43.689   6.764  13.510
68072W        W36466  21.053  15.076  10.654
68073W        W36467  42.130   8.759   3.714
68074W        W36468  41.799   0.537  12.452
68075W        W36469  26.113  41.773   3.249
68076W        W36470  26.159  30.381   4.176
68077W        W36471   2.815  17.486   1.713
68078W        W36472  31.320  21.148   1.219
68079W        W36473  37.016  38.138   2.206
68080W        W36474   4.019  35.590  13.339
68081W        W36475  13.439   2.827   3.073
68082W        W36476  16.467   6.092  13.450
68083W        W36477  31.822   6.370   3.700
68084W        W36478  44.763   2.989   4.743
68085W        W36479   6.437  30.997   2.401
68086W        W36480  38.314  33.431   3.681
68087W        W36481  18.849  39.421  13.624
68088W        W36482  30.975  34.490   1.581
68089W        W36483  37.618  27.463   0.304
68090W        W36484  26.223  22.579  11.935
68091W        W36485  30.508  15.130  10.698
68092W        W36486  25.165  33.298   4.247
68093W        W36487  39.891   2.920  13.501
68094W        W36488   9.659   6.267   4.210
68095W        W36489  33.599  34.175   5.031
68096W        W36490  23.075  17.737   2.256
68097W        W36491  13.238  31.984  13.963
68098W        W36492  25.128  22.124  13.592
68099W        W36493  40.894  36.077   1.648
68100W        W36494   1.611  41.956   4.491
68101W        W36495  38.435  22.847   3.159
68102W        W36496   7.920  39.665  14.951
68103W        W36497  44.457  37.789   3.760
68104W        W36498   6.378  12.175  11.959
68105W        W36499  39.515   2.934  13.870
68106W        W36500  22.221   3.374  10.626
68107W        W36501   2.669  23.005   2.024
68108W        W36502  27.456   3.851  14.471
68109W        W36503   1.475  40.061   4.428
68110W        W36504  17.649  14.274   1.725
68111W        W36505  33.124  23.546  11.027
68112W        W36506  40.733  35.004  13.459
68113W        W36507   8.438  13.650   4.628
68114W        W36508  22.121  37.011   3.215
68115W        W36509  15.743  25.499   1.267
68116W        W36510   5.208  17.250  14.256
68117W        W36511  11.862  19.041  14.249
68118W        W36512  33.529  10.617  10.769
68119W        W36513  16.563  31.682   4.443
68120W        W36514  33.929  24.233   3.524
68121W        W36515  42.427  17.751   4.074
68122W        W36516   0.830  20.708   2.210
68123W        W36517  10.813  35.871  10.724
68124W        W36518   2.882  17.995   1.714
68125W        W36519  44.957   2.375  13.357
68126W        W36520  41.174  21.731   3.721
68127W        W36521   6.762   6.632   4.011
68128W        W36522  44.048  28.046  10.820
68129W        W36523  13.621  31.970  12.872
68130W        W36524  37.614  27.442  13.921
68131W        W36525  24.464  35.436  13.036
68132W        W36526  20.257  30.223  14.713
68133W        W36527  20.719  30.822  13.404
68134W        W36528  38.538  40.983   0.626
68135W        W36529  13.068  21.049   0.324
68136W        W36530   9.568  41.350   1.437
68137W        W36531  13.176  24.817   0.459
68138W        W36532  30.869  32.422  12.116
68139W        W36533  44.243  36.007  14.087
68140W        W36534  43.542   3.411  13.060
68141W        W36535  12.688  23.087   4.302
68142W        W36536  18.802  11.946   2.506
68143W        W36537   7.951   6.349   3.755
68144W        W36538  12.339  21.230  14.410
68145W        W36539  30.680   5.531   4.177
68146W        W36540  36.649  43.752  12.142
68147W        W36541  17.584  27.623  12.101
68148W        W36542  10.073  30.507   0.234
68149W        W36543  19.234  26.465   0.397
68150W        W36544  42.624   6.713  14.394
68151W        W36545   6.937  27.247   4.897
68152W        W36546  19.689  36.112   4.720
68153W        W36547  14.252  23.199  13.439
68154W        W36548   7.928   6.922   1.749
68155W        W36549  27.651  31.159  11.550
68156W        W36550  31.480   0.012   1.173
68157W        W36551  30.379  30.353  13.501
68158W        W36552  33.908  23.013  10.750
68159W        W36553  31.181   7.877   3.762
68160W        W36554   8.190  19.797   2.599
68161W        W36555  41.856  26.011  11.471
68162W        W36556   5.493  11.703   4.806
68163W        W36557  15.029  32.011  14.770
68164W        W36558  34.124  27.997   0.299
68165W        W36559  39.461  15.371  13.987
68166W        W36560   9.694  41.421   0.723
68167W        W36561  26.017  32.858   0.270
68168W        W36562  35.600  41.030   4.082
68169W        W36563  37.599   8.738   2.521
68170W        W36564  44.252   7.799   1.337
68171W        W36565  22.308  21.723  13.899
68172W        W36566  40.772  28.949  12.912
68173W        W36567   5.228  31.654   4.690
68174W        W36568   9.827  40.235   1.466
68175W        W36569  31.358  26.622  12.505
68176W        W36570   9.396   1.773   0.453
68177W        W36571  31.697  33.066  13.884
68178W        W36572   0.319  18.752   3.360
68179W        W36573  10.565  21.903  10.774
68180W        W36574   3.874   5.812  13.303
68181W        W36575  22.183  24.740  11.191
68182W        W36576  38.653  28.759   0.397
68183W        W36577  10.687   9.848   3.370
68184W        W36578   9.572  12.278  12.342
68185W        W36579  28.377  29.468  12.374
68186W        W36580   2.956  15.830  13.991
68187W        W36581   9.095  40.707  13.033
68188W        W36582  34.010   6.412   3.259
68189W        W36583  43.688   5.835  10.852
68190W        W36584  27.593  43.004   1.152
68191W        W36585  27.523  10.857  11.151
68192W        W36586   9.474  11.442  11.525
68193W        W36587  14.566   3.648  11.960
68194W        W36588  34.861   6.375   1.221
68195W        W36589   7.801  39.113   3.252
68196W        W36590  42.898  16.665  10.154
68197W        W36591  43.735  10.137  13.531
68198W        W36592  26.745  41.957   0.278
68199W        W36593  17.275  18.824   3.912
68200W        W36594  19.219  17.593  13.765
68201W        W36595  36.569  33.146  12.328
68202W        W36596  11.635   3.808   1.466
68203W        W36597  22.191  44.465   0.871
68204W        W36598  14.044  19.673   4.264
68205W        W36599   9.715   0.790  12.089
68206W        W36600   0.380   7.834   0.492
68207W        W36601   8.112  35.590  14.335
68208W        W36602  37.364  38.151   3.347
68209W        W36603  32.616  33.139   4.125
68210W        W36604  29.504  44.302  13.929
68211W        W36605  43.006  33.052   0.901
68212W        W36606  15.763   7.714   3.760
68213W        W36607  25.778  15.751  12.567
68214W        W36608  28.091   7.489   4.130
68215W        W36609  34.621  23.090   0.877
68216W        W36610  16.119   4.226   0.886
68217W        W36611  29.566   7.329   3.638
68218W        W36612   4.992  41.956  13.977
68219W        W36613  15.032  36.092   3.273
68220W        W36614  42.429   7.670  13.395
68221W        W36615   7.044  14.672   0.131
68222W        W36616   4.322  33.621  12.424
68223W        W36617  21.478  21.132  13.878
68224W        W36618  18.049  42.147   5.094
68225W        W36619   0.328   1.363   0.234
68226W        W36620   2.307   5.316   2.637
68227W        W36621   8.860   9.991  10.351
68228W        W36622  10.217  41.421   0.704
68229W        W36623  40.408  10.169   0.775
68230W        W36624  22.028  41.676  14.784
68231W        W36625  15.629  23.572   4.301
68232W        W36626   3.280  33.112  10.719
68233W        W36627  42.503  10.610  11.606
68234W        W36628  10.558  38.321  13.380
68235W        W36629  34.256  33.166  14.872
68236W        W36630  30.397  34.081   3.805
68237W        W36631  19.703  15.877   2.816
68238W        W36632  10.146  18.198   0.413
68239W        W36633   2.399  39.514  10.632
68240W        W36634  27.112  31.161  10.719
68241W        W36635  33.602  44.526  12.027
68242W        W36636  26.348   6.878  14.441
68243W        W36637  25.755   2.526  12.999
68244W        W36638  14.458  27.478  14.016
68245W        W36639   5.916  22.819  14.529
68246W        W36640  16.378  15.569   2.413
68247W        W36641  12.907  14.575   2.172
68248W        W36642  22.883  28.588  12.839
68249W        W36643  12.750   7.487   3.309
68250W        W36644  11.071  39.141   0.428
68251W        W36645   0.921  22.430   3.783
68252W        W36646  34.323   7.659   3.155
68253W        W36647  10.795  25.570   1.241
68254W        W36648   8.385  44.998   0.974
68255W        W36649  41.870   8.652   1.491
68256W        W36650   1.061  40.546  13.899
68257W        W36651  12.794  25.117   4.691
68258W        W36652   6.672  31.855   3.246
68259W        W36653   3.230  32.856  13.907
68260W        W36654  27.186  20.788   4.573
68261W        W36655   1.513  26.774   4.317
68262W        W36656  26.019   3.426  11.530
68263W        W36657  24.684  22.950  14.858
68264W        W36658  18.555   1.839  14.715
68265W        W36659   2.236  14.927   2.961
68266W        W36660  29.276  18.277  12.808
68267W        W36661  35.074  25.114   3.091
68268W        W36662   5.260   3.930   1.220
68269W        W36663  21.515   8.663  10.557
68270W        W36664  17.193  42.000  14.792
68271W        W36665  29.373   5.022  11.695
68272W        W36666   4.944  35.185  13.202
68273W        W36667  34.835  33.256  10.185
68274W        W36668  42.438  40.042  13.918
68275W        W36669  19.570   9.685  11.192
68276W        W36670  20.741   8.415   3.905
68277W        W36671  40.390   5.884   1.444
68278W        W36672  35.289   2.750  14.472
68279W        W36673  32.607  38.570   3.281
68280W        W36674  44.424  34.110   1.770
68281W        W36675  29.876  31.404   3.294
68282W        W36676  25.173   1.421   5.084
68283W        W36677  18.221  41.357   9.806
68284W        W36678  21.196  26.525   1.757
68285W        W36679  23.514  10.199   4.053
68286W        W36680  26.899   7.314  13.917
68287W        W36681  44.979   7.585  13.510
68288W        W36682  30.503  43.000   4.136
68289W        W36683   6.793  42.931  12.224
68290W        W36684  41.375  14.100   4.986
68291W        W36685  14.544  18.942   3.758
68292W        W36686  27.137  41.062   2.798
68293W        W36687  21.239   7.067   2.314
68294W        W36688  43.049  25.274  12.544
68295W        W36689  29.855  34.672   4.111
68296W        W36690  23.339   9.494  11.908
68297W        W36691  44.638  31.029  12.179
68298W        W36692  21.310  37.834  13.966
68299W        W36693  41.364  28.689   4.261
68300W        W36694  34.682   8.102   0.404
68301W        W36695   4.316  22.986  12.020
68302W        W36696  41.669  21.337  14.453
68303W        W36697  30.143  42.855  11.352
68304W        W36698  40.351   2.246  14.840
68305W        W36699  43.535   3.808   1.952
68306W        W36700   3.215  14.715   1.420
68307W        W36701  14.475   8.848  12.993
68308W        W36702  44.694   7.870  13.997
68309W        W36703  29.576  36.255   2.290
68310W        W36704  19.141   5.627   2.636
68311W        W36705  38.991  29.269   2.560
68312W        W36706  21.297  29.945   0.259
68313W        W36707   8.383  20.489   3.205
68314W        W36708   7.125  23.503  10.563
68315W        W36709  27.677   6.704   1.493
68316W        W36710   7.016  34.014   3.624
68317W        W36711  15.824  24.205   1.712
68318W        W36712   8.853  18.078   0.865
68319W        W36713  11.852  28.118  12.871
68320W        W36714  16.792  37.933   0.171
68321W        W36715  21.399  38.819   1.407
68322W        W36716  38.812  35.082  11.967
68323W        W36717   1.010  20.627   3.811
68324W        W36718  17.597  10.837   1.258
68325W        W36719  38.914  25.482   2.827
68326W        W36720  20.813  35.242   2.104
68327W        W36721   2.690  39.986   2.697
68328W        W36722  19.653   4.859   3.118
68329W        W36723  11.816  44.532   0.472
68330W        W36724  32.309  21.744   0.151
68331W        W36725  43.714   5.271  14.869
68332W        W36726  39.557  17.703   0.552
68333W        W36727  22.535  21.949  10.588
68334W        W36728  19.857  34.126   0.918
68335W        W36729   6.242  24.483   1.178
68336W        W36730  11.045  44.886   1.778
68337W        W36731  24.555   4.192  14.894
68338W        W36732  43.781  17.052  12.851
68339W        W36733  33.191  11.620   0.231
68340W        W36734  23.619  10.836   1.027
68341W        W36735  27.535  21.224   2.720
68342W        W36736  44.388  40.718   2.802
68343W        W36737  18.792  23.161   3.316
68344W        W36738  18.187  25.235  14.924
68345W        W36739   0.275  20.373  11.624
68346W        W36740  43.111  26.712  11.994
68347W        W36741   8.226  14.786   3.068
68348W        W36742  14.526   0.263   4.671
68349W        W36743  22.591  23.762  11.208
68350W        W36744  18.226  42.948   2.424
68351W        W36745   4.210  12.376   3.427
68352W        W36746  22.007  37.492  14.824
68353W        W36747   5.259   5.779   1.742
68354W        W36748  34.540  21.160   2.399
68355W        W36749  30.958  20.980   4.156
68356W        W36750   2.658  42.670  11.104
68357W        W36751  14.206  32.937   3.173
68358W        W36752   8.979  14.284   0.957
68359W        W36753  36.197  38.675   4.095
68360W        W36754  25.565   4.324   2.161
68361W        W36755  16.853  31.415   2.799
68362W        W36756  32.218   5.669   2.401
68363W        W36757   8.930  11.222   4.540
68364W        W36758  42.787  36.539   0.337
68365W        W36759  31.775   3.954  13.493
68366W        W36760   3.448  24.670  13.900
68367W        W36761  24.528   8.252   4.071
68368W        W36762  33.000  34.495   3.171
68369W        W36763  20.245   5.369  13.272
68370W        W36764  43.439  31.026  13.748
68371W        W36765  28.385  35.618  12.023
68372W        W36766  11.135   7.487  13.954
68373W        W36767  22.804   7.261  14.383
68374W        W36768  39.054   8.301  12.673
68375W        W36769  29.385  40.056  12.020
68376W        W36770  32.592  36.993  14.782
68377W        W36771  44.651  25.136   3.068
68378W        W36772  43.058   0.884  12.430
68379W        W36773   8.325  41.959   2.589
68380W        W36774  10.907  14.249  13.581
68381W        W36775  16.656  23.975   2.189
68382W        W36776   8.822   0.877   4.733
68383W        W36777  10.079   5.511  14.738
68384W        W36778  11.386  35.691   3.290
68385W        W36779  31.865  26.023   4.787
68386W        W36780  15.826  19.169  14.990
68387W        W36781  11.585  35.566   2.366
68388W        W36782   1.487  23.963   3.903
68389W        W36783  22.607  26.698  11.983
68390W        W36784  24.085  12.931  10.240
68391W        W36785  15.587  17.206   1.217
68392W        W36786  10.155  44.941  12.113
68393W        W36787  29.412  40.549   0.993
68394W        W36788  14.648  25.683  11.125
68395W        W36789  36.550  18.622  11.456
68396W        W36790  39.464  34.684   3.154
68397W        W36791   8.691  16.804   2.145
68398W        W36792  41.484  35.434  12.850
68399W        W36793   3.015  41.061  13.117
68400W        W36794  44.406  39.028  11.992
68401W        W36795  28.507   9.668  14.226
68402W        W36796   1.789  41.514   4.708
68403W        W36797   9.430  43.450  10.632
68404W        W36798  41.350  39.555   4.111
68405W        W36799  13.802   2.259  11.746
68406W        W36800   0.758   4.800  11.472
68407W        W36801  28.673  33.873   0.263
68408W        W36802  42.928   0.416  12.809
68409W        W36803  14.678   2.365  12.524
68410W        W36804  13.698   2.825   4.460
68411W        W36805  14.817  31.069  11.146
68412W        W36806  20.004  26.472   0.693
68413W        W36807  12.321  39.384   0.159
68414W        W36808  34.082   2.013  14.478
68415W        W36809  36.221  18.444   0.446
68416W        W36810  18.030  23.626  13.811
68417W        W36811   8.794  44.652  11.410
68418W        W36812  23.945  19.842   2.912
68419W        W36813  21.551  10.577  13.280
68420W        W36814   5.808  27.506   1.204
68421W        W36815   0.181  13.315  13.959
68422W        W36816   2.875  14.408  11.653
68423W        W36817  22.719  18.357  13.944
68424W        W36818   7.570  27.581   3.521
68425W        W36819  28.122  39.628   4.293
68426W        W36820  26.602   0.988   4.085
68427W        W36821  22.209  35.642   1.827
68428W        W36822  24.421   5.631  11.080
68429W        W36823   4.534   5.309   1.552
68430W        W36824  23.506   5.877   2.167
68431W        W36825   7.725   4.907  10.675
68432W        W36826  18.710  30.645   3.888
68433W        W36827  24.485   8.843  11.641
68434W        W36828   0.761   5.211   1.013
68435W        W36829  24.370  31.426  14.233
68436W        W36830   1.254  12.094   4.280
68437W        W36831  40.037  25.242  12.778
68438W        W36832  25.368  17.483  12.822
68439W        W36833   6.074  12.421  12.730
68440W        W36834   5.389  27.544  13.391
68441W        W36835  29.915  12.162   4.199
68442W        W36836  37.009  13.035   3.694
68443W        W36837  18.610  10.780  12.881
68444W        W36838  29.843  43.681  12.613
68445W        W36839  44.447  17.515  12.619
68446W        W36840  26.607   8.268  13.338
68447W        W36841  44.385  20.496   2.257
68448W        W36842  16.965  29.653  13.863
68449W        W36843  12.260  28.927   0.864
68450W        W36844  15.503  34.010  11.081
68451W        W36845   6.611  11.924   2.597
68452W        W36846  22.181  43.263  11.196
68453W        W36847  28.434  37.868  11.618
68454W        W36848  33.042   2.256   1.733
68455W        W36849  14.997   3.665  11.029
68456W        W36850   1.347  36.398   2.760
68457W        W36851   8.280  37.779  10.736
68458W        W36852   9.145  13.886  12.408
68459W        W36853  16.963  12.602  11.980
68460W        W36854  27.479  34.958  14.284
68461W        W36855  35.574  26.185  12.921
68462W        W36856  43.281  38.074  12.304
68463W        W36857  20.198  40.026   0.450
68464W        W36858  31.504  16.565  12.386
68465W        W36859   7.419  11.368   4.236
68466W        W36860  35.795  23.941  11.089
68467W        W36861  26.692   9.241  11.956
68468W        W36862  27.110  17.252   1.976
68469W        W36863  33.888  34.070   0.554
68470W        W36864  25.739  26.488  10.799
68471W        W36865  16.688  23.523  10.707
68472W        W36866  34.446   1.666  14.282
68473W        W36867  33.071  42.281   2.216
68474W        W36868   8.754  36.001   3.794
68475W        W36869  38.029  25.121   2.694
68476W        W36870  36.328  15.047  10.790
68477W        W36871   2.908  44.266  12.013
68478W        W36872  43.759  15.401  11.059
68479W        W36873   4.946  43.863  14.751
68480W        W36874   7.681  13.788   1.364
68481W        W36875  21.333   7.655  12.571
68482W        W36876   0.340   4.289   2.419
68483W        W36877   2.951  30.573   3.943
68484W        W36878   9.883  27.508  12.100
68485W        W36879  34.245  30.966   1.649
68486W        W36880  16.196   4.675  12.488
68487W        W36881  31.306  17.261   4.218
68488W        W36882  16.805  15.541  11.055
68489W        W36883  40.185   1.138  13.059
68490W        W36884   8.861   6.304  13.441
68491W        W36885  26.883  34.661   2.719
68492W        W36886  22.669  21.499  12.170
68493W        W36887  38.799  16.998  14.001
68494W        W36888  19.290   7.430   2.251
68495W        W36889  21.378  32.063   4.505
68496W        W36890  16.256  27.043   3.791
68497W        W36891   6.865  39.780   0.838
68498W        W36892  33.052  27.171  13.278
68499W        W36893  21.282   0.740   0.685
68500W        W36894  43.285  33.476   0.799
68501W        W36895  23.742   3.879   3.307
68502W        W36896   0.939   8.572  12.514
68503W        W36897  36.801   0.690  12.895
68504W        W36898  41.328  28.014   2.849
68505W        W36899  31.189   8.501  11.687
68506W        W36900  41.555  34.978   4.712
68507W        W36901   2.111  42.749  12.843
68508W        W36902  28.162  10.443   4.654
68509W        W36903  12.349   3.721   0.863
68510W        W36904  38.993  24.181   3.777
68511W        W36905   7.820  35.021  12.931
68512W        W36906  42.972  24.233  12.472
68513W        W36907  21.546  14.684   0.903
68514W        W36908  29.518  42.999   2.267
68515W        W36909  23.642  31.167   1.041
68516W        W36910  17.727   6.275   4.085
68517W        W36911   8.408  20.716   1.793
68518W        W36912  25.409  23.210   2.844
68519W        W36913  29.802   2.472   3.707
68520W        W36914  42.330  25.201  11.573
68521W        W36915  22.739  24.596   4.914
68522W        W36916  20.463   0.215  12.518
68523W        W36917  33.542  14.819   2.316
68524W        W36918  13.297  39.528   4.905
68525W        W36919  19.783  17.725   2.722
68526W        W36920  38.801  41.882   3.579
68527W        W36921  13.244  10.392  14.019
68528W        W36922  36.913  32.951  11.980
68529W        W36923   9.420  29.901  14.960
68530W        W36924  27.173   1.469   0.041
68531W        W36925   6.311  19.771   4.493
68532W        W36926  31.879  17.128  13.891
68533W        W36927  27.502  20.689  12.139
68534W        W36928  15.621  37.332   2.926
68535W        W36929  16.586  40.388  12.361
68536W        W36930  39.895  27.528  12.954
68537W        W36931  35.370   8.844   2.771
68538W        W36932  19.534   2.464   2.756
68539W        W36933   3.642   0.917   1.377
68540W        W36934  37.847  36.463   0.219
68541W        W36935  21.675   4.455   4.114
68542W        W36936  23.232   7.845   1.078
68543W        W36937  44.351   8.858  11.859
68544W        W36938   3.800   6.458  13.968
68545W        W36939   1.303  31.125   0.292
68546W        W36940  37.186   5.618   1.256
68547W        W36941  14.045  23.228   0.684
68548W        W36942  36.367   6.368  14.411
68549W        W36943  23.449  15.173  10.668
68550W        W36944  22.130  40.016   0.900
68551W        W36945  26.239  12.648  12.017
68552W        W36946   3.232  38.664   4.569
68553W        W36947  11.618   5.794  10.990
68554W        W36948  16.290   9.530   0.567
68555W        W36949  30.036  20.288  14.901
68556W        W36950  44.928  33.133   3.409
68557W        W36951  31.628  27.042  12.666
68558W        W36952   7.550   0.746  12.028
68559W        W36953  14.106   6.139   2.108
68560W        W36954  33.033  34.512  13.108
68561W        W36955  26.116  42.043  13.747
68562W        W36956   0.677  40.987   1.739
68563W        W36957  31.647  38.870   2.306
68564W        W36958  25.106  22.302  10.742
68565W        W36959  34.859  10.189  13.564
68566W        W36960  24.417   0.632  10.935
68567W        W36961  39.482  18.234   1.973
68568W        W36962   8.138  30.921   2.129
68569W        W36963  26.257  29.073   4.588
68570W        W36964   7.934  33.442   1.710
68571W        W36965  28.089   1.796  13.531
68572W        W36966  20.608  25.449  13.157
68573W        W36967   5.196  16.087  12.576
68574W        W36968   6.006  22.546  11.215
68575W        W36969  28.874  41.812   0.410
68576W        W36970  41.427  38.301  11.696
68577W        W36971  39.985   8.055   2.790
68578W        W36972  24.743   7.928  12.500
68579W        W36973  14.399  26.937  10.596
68580W        W36974   1.978  20.008  11.932
68581W        W36975  32.628  29.689   2.849
68582W        W36976  33.753   5.536  11.190
68583W        W36977  26.192  36.413  14.863
68584W        W36978  38.935  34.968   4.126
68585W        W36979   4.797  37.565   2.122
68586W        W36980   7.851  11.188   2.860
68587W        W36981  23.529  42.067  14.416
68588W        W36982  20.290  14.062  13.312
68589W        W36983  10.182   8.416  12.593
68590W        W36984  24.560  35.862  12.792
68591W        W36985  32.010  35.863  14.944
68592W        W36986  27.020  20.097  10.665
68593W        W36987  18.963  39.402   0.286
68594W        W36988  43.340   9.199   0.912
68595W        W36989  14.107   9.324   4.518
68596W        W36990  31.032  16.094  12.121
68597W        W36991  42.302  28.588  12.394
68598W        W36992  26.131  14.544  14.976
68599W        W36993  30.874  31.779   4.548
68600W        W36994   4.869  33.199   3.653
68601W        W36995   7.304  38.692  14.024
68602W        W36996  14.246  25.938  10.669
68603W        W36997  42.536   4.774  10.689
68604W        W36998  14.349  34.475   2.112
68605W        W36999   2.941  26.499  13.989
68606W        W37000  33.106   3.790   0.764
68607W        W37001   6.338  35.024   5.039
68608W        W37002  20.321  30.359   1.295
68609W        W37003  11.422  16.239  14.028
68610W        W37004  22.214  16.779  12.759
68611W        W37005  19.160   0.566   4.902
68612W        W37006  15.074  36.421   2.867
68613W        W37007   0.846   9.337  12.997
68614W        W37008   7.160  36.352   4.946
68615W        W37009  27.707  35.651   3.759
68616W        W37010   5.072  43.193  10.713
68617W        W37011  35.868  40.359   3.588
68618W        W37012   2.255  44.509  11.185
68619W        W37013  34.260  41.330   2.835
68620W        W37014   0.037  21.645   3.545
68621W        W37015  17.753   4.038   1.918
68622W        W37016  34.028  18.583  10.655
68623W        W37017  28.011  40.566  11.931
68624W        W37018  23.285  36.615  12.690
68625W        W37019  15.208  14.794  10.954
68626W        W37020  28.075   6.216   3.699
68627W        W37021   3.713   9.132   3.801
68628W        W37022  18.519  36.827  13.650
68629W        W37023   5.733   0.428  11.429
68630W        W37024  29.892  33.953   2.740
68631W        W37025  15.113  13.680  11.699
68632W        W37026  23.385  39.786   3.196
68633W        W37027  30.582  30.491  14.398
68634W        W37028  27.366  42.843   3.211
68635W        W37029  37.893  31.408  12.989
68636W        W37030  15.274  30.754   3.493
68637W        W37031  22.801  38.452   1.365
68638W        W37032   6.226  17.750   2.832
68639W        W37033   8.909  21.130  11.569
68640W        W37034  34.080  41.478   4.192
68641W        W37035   1.012  13.952   5.255
68642W        W37036  40.333  44.788   1.496
68643W        W37037  29.504  29.053   0.844
68644W        W37038  15.323   2.546   2.200
68645W        W37039  44.326  44.203  12.401
68646W        W37040  39.177  42.893   1.198
68647W        W37041  29.527  13.864   0.784
68648W        W37042   0.457  19.186   1.183
68649W        W37043  29.975  42.301   0.387
68650W        W37044  38.715  27.985  13.246
68651W        W37045   9.345  10.108  10.048
68652W        W37046  32.044  40.187  10.869
68653W        W37047  27.279   8.226   2.614
68654W        W37048  25.973  19.743  11.925
68655W        W37049  42.077  18.098   1.430
68656W        W37050  19.704  20.509   3.174
68657W        W37051   5.894  27.870   4.212
68658W        W37052  13.631  35.979  11.146
68659W        W37053   5.134   7.262  10.994
68660W        W37054   9.414  28.089  12.530
68661W        W37055   6.407  10.309  11.598
68662W        W37056  28.739  15.329  12.982
68663W        W37057  24.571   8.302   4.575
68664W        W37058  44.378  25.579   1.695
68665W        W37059  28.443  40.791  11.168
68666W        W37060   4.951   6.202   1.898
68667W        W37061  25.210   9.028   0.395
68668W        W37062  34.365  34.042  13.095
68669W        W37063  23.944   3.739   3.797
68670W        W37064  28.923  25.988  11.137
68671W        W37065  44.784  26.555  14.022
68672W        W37066   7.504   1.723   3.794
68673W        W37067  40.599   7.201   2.452
68674W        W37068  19.695  36.853  12.642
68675W        W37069  23.525  42.510   2.375
68676W        W37070   2.784   3.631   1.633
68677W        W37071  42.483  29.116  12.659
68678W        W37072  15.487  32.977   3.826
68679W        W37073   7.496  26.142  14.370
68680W        W37074  17.857  42.591  12.412
68681W        W37075  20.002  20.296   1.668
68682W        W37076   5.267  30.596  13.291
68683W        W37077  42.604  34.396   3.525
68684W        W37078   4.873  35.519   1.440
68685W        W37079  28.979  26.505   4.128
68686W        W37080  38.867  44.832  12.487
68687W        W37081  40.960  41.728   2.320
68688W        W37082   4.994  36.806  11.985
68689W        W37083  29.150  18.758   0.715
68690W        W37084   8.750  36.413   0.920
68691W        W37085  43.291  12.382  13.630
68692W        W37086   2.552  16.577   3.156
68693W        W37087   4.408  23.908   4.045
68694W        W37088   4.919  10.148   1.285
68695W        W37089  39.891  26.550  12.799
68696W        W37090  28.517  30.973   2.473
68697W        W37091   8.290  18.474  12.387
68698W        W37092  20.932  20.760   0.808
68699W        W37093  22.580  35.973   1.991
68700W        W37094  17.687  11.789   2.798
68701W        W37095  30.047   2.254  10.749
68702W        W37096  33.553   0.757  14.462
68703W        W37097   6.910  42.713  14.315
68704W        W37098  42.064  12.144   0.921
68705W        W37099  30.522  30.050   4.630
68706W        W37100   8.677  21.749   2.293
68707W        W37101  36.441  18.330   1.185
68708W        W37102  30.446  13.381  14.811
68709W        W37103  14.023   7.071  12.150
68710W        W37104  44.226  26.625   2.508
68711W        W37105  40.557  37.252  11.515
68712W        W37106   6.927   3.211   2.875
68713W        W37107  40.816  38.101   1.192
68714W        W37108  18.305  34.462  14.240
68715W        W37109   6.785  43.434   0.884
68716W        W37110  12.747  27.547  13.982
68717W        W37111  10.956  44.372  14.837
68718W        W37112  21.257  42.988  14.828
68719W        W37113  32.203  18.064  11.932
68720W        W37114  33.361  44.423   1.453
68721W        W37115  23.445  42.919   4.996
68722W        W37116  29.232  24.574   0.441
68723W        W37117  34.613  38.306   4.569
68724W        W37118   0.331  20.440   4.564
68725W        W37119  12.642   6.953   5.438
68726W        W37120  39.374   3.921  11.054
68727W        W37121   3.879  12.702   3.186
68728W        W37122  25.050  41.944   0.859
68729W        W37123   0.363  31.543  14.319
68730W        W37124  25.129  34.421  14.021
68731W        W37125  13.982  25.182   3.071
68732W        W37126  32.042  44.967  10.859
68733W        W37127  21.502  11.187   1.220
68734W        W37128  12.584  32.333  13.820
68735W        W37129   7.296  35.708   1.868
68736W        W37130   8.636   5.119  14.086
68737W        W37131  33.398  19.859   4.668
68738W        W37132  32.181  11.312   4.123
68739W        W37133  17.342  12.164   1.923
68740W        W37134  42.507   4.362   1.392
68741W        W37135   6.907   3.813  14.255
68742W        W37136  21.139  22.051   1.868
68743W        W37137   2.406   0.613   4.131
68744W        W37138  10.616  30.158   3.684
68745W        W37139  17.523  41.760   0.653
68746W        W37140  37.349  25.485   0.521
68747W        W37141  19.083  44.372  11.205
68748W        W37142  21.232  11.481   0.439
68749W        W37143  18.919  40.997   2.318
68750W        W37144  37.524  26.569  11.491
68751W        W37145  15.952  11.093   2.487
68752W        W37146  13.655  34.364   4.046
68753W        W37147  16.172  17.887  12.835
68754W        W37148  36.977  32.428   0.110
68755W        W37149  18.062  23.227   1.685
68756W        W37150   1.409   0.970  14.286
68757W        W37151  26.397  38.372   0.767
68758W        W37152   8.903  30.920   1.753
68759W        W37153  23.738  14.707  11.157
68760W        W37154   3.951   7.540   4.327
68761W        W37155   1.004  27.504   0.308
68762W        W37156  21.498  10.932  12.908
68763W        W37157   9.173  12.895   3.260
68764W        W37158  44.996  39.289   3.699
68765W        W37159   5.392   7.046  14.204
68766W        W37160  29.340  28.188   3.287
68767W        W37161  22.005   0.788  14.270
68768W        W37162   5.706   7.643  11.610
68769W        W37163  28.645  31.849   0.793
68770W        W37164  24.845   7.240  11.432
68771W        W37165  33.653   3.060   2.217
68772W        W37166  19.653   7.619   0.813
68773W        W37167  15.337   3.059   5.136
68774W        W37168  41.003  29.925  11.648
68775W        W37169  38.086  44.306  13.955
68776W        W37170  14.104   8.316   0.275
68777W        W37171  37.950  44.554   3.638
68778W        W37172  16.577   4.199   1.820
68779W        W37173  33.980  21.553   4.543
68780W        W37174  35.928  23.203  13.815
68781W        W37175  24.071  10.095  10.584
68782W        W37176  37.166  11.763  14.373
68783W        W37177   5.207  10.195   2.414
68784W        W37178  26.076  40.184   0.785
68785W        W37179  43.330  44.834   4.055
68786W        W37180  32.463  39.274  12.047
68787W        W37181  37.785  22.666  13.963
68788W        W37182  28.981   2.824   1.399
68789W        W37183  26.978  22.930  13.519
68790W        W37184  41.041  16.311   3.732
68791W        W37185  35.980  13.576   0.334
68792W        W37186  13.875  21.546  14.751
68793W        W37187  12.547  37.801  10.536
68794W        W37188  20.249  28.700  12.545
68795W        W37189  21.138  18.204  14.869
68796W        W37190  16.393  23.160  11.504
68797W        W37191  22.477  39.196  10.215
68798W        W37192  35.774  39.388   3.778
68799W        W37193  40.221   6.129   4.083
68800W        W37194  25.146   7.628  13.800
68801W        W37195  17.200  40.279  11.555
68802W        W37196  41.384  18.256  12.162
68803W        W37197  11.872   7.625  13.978
68804W        W37198  34.899  33.666   4.188
68805W        W37199  36.160  41.437  14.414
68806W        W37200  40.009   5.245  14.744
68807W        W37201  24.438  19.155  11.936
68808W        W37202  37.373  19.726   4.348
68809W        W37203  40.793   4.940  14.083
68810W        W37204   1.029   4.360  11.532
68811W        W37205  35.194   0.339   3.567
68812W        W37206   1.036   8.945   0.034
68813W        W37207   8.225  35.318  12.044
68814W        W37208  16.513  29.709  10.285
68815W        W37209  35.573  28.922  11.505
68816W        W37210  31.029  24.835   1.865
68817W        W37211  44.546  18.967  14.460
68818W        W37212  10.683   7.899  12.479
68819W        W37213  11.568  12.585  11.014
68820W        W37214  20.797  29.652   4.660
68821W        W37215  22.107   4.375   4.440
68822W        W37216  20.269   8.629   4.855
68823W        W37217  28.895  24.719   4.524
68824W        W37218   9.336  38.142  11.582
68825W        W37219   6.069   5.847  12.932
68826W        W37220  11.552  16.519  11.528
68827W        W37221  25.372  11.402  12.463
68828W        W37222  38.547  30.291  11.704
68829W        W37223  39.972  16.357  14.899
68830W        W37224  20.803  26.987   3.585
68831W        W37225  32.334  14.882   4.605
68832W        W37226   2.352  31.488  14.088
68833W        W37227  18.555  22.813   3.042
68834W        W37228  14.809   1.788   5.004
68835W        W37229  27.318  41.538   2.902
68836W        W37230  19.638  28.263   0.568
68837W        W37231  39.095  33.081   4.122
68838W        W37232   8.311  17.944  12.362
68839W        W37233  26.044  24.021   4.747
68840W        W37234  38.944   2.327  13.371
68841W        W37235   6.500  18.287   5.219
68842W        W37236  10.864  43.270   3.216
68843W        W37237  17.955  38.607  12.024
68844W        W37238  39.550  38.842  13.770
68845W        W37239  34.130  29.659   2.080
68846W        W37240  28.968  37.548  13.190
68847W        W37241   7.625   7.890   2.965
68848W        W37242  14.091  38.413   1.247
68849W        W37243   0.308  13.633  13.504
68850W        W37244  38.945   0.498   2.376
68851W        W37245  40.352  10.900   4.692
68852W        W37246  34.146  41.273  12.936
68853W        W37247  18.565  29.497  12.471
68854W        W37248   7.908  43.569  12.057
68855W        W37249  27.370  18.073   1.249
68856W        W37250  39.132  29.261   4.245
68857W        W37251  10.272   3.677   2.229
68858W        W37252   7.706  23.990   3.272
68859W        W37253  36.190  41.864  14.073
68860W        W37254  33.866  39.200   0.492
68861W        W37255  40.183   4.937   3.712
68862W        W37256  42.016  29.016   0.895
68863W        W37257  43.572  12.081   3.104
68864W        W37258  20.120   4.040   2.330
68865W        W37259   1.806  24.917  12.503
68866W        W37260  18.589  18.524  12.632
68867W        W37261   7.007  16.648  12.533
68868W        W37262  30.465  40.188  11.771
68869W        W37263  14.605  31.392  13.851
68870W        W37264   8.400  32.647   1.252
68871W        W37265  26.526   5.278   0.746
68872W        W37266  29.976  38.124  12.157
68873W        W37267  40.528  11.404  14.798
68874W        W37268  25.055   4.185   0.461
68875W        W37269  29.200  12.410   0.996
68876W        W37270  34.414  26.183  10.804
68877W        W37271  42.927  32.868   4.151
68878W        W37272  31.596  40.857   0.367
68879W        W37273   3.752   1.578  10.333
68880W        W37274   2.595  33.492   4.741
68881W        W37275  19.590  43.594  11.528
68882W        W37276   6.391   2.987  14.066
68883W        W37277  12.378  38.959  14.819
68884W        W37278   8.865  14.073   0.071
68885W        W37279  21.488  11.821   0.790
68886W        W37280  25.105  16.231   4.386
68887W        W37281  34.071  27.676  11.612
68888W        W37282   7.896  24.549   3.263
68889W        W37283   3.572   7.477   2.233
68890W        W37284  16.707  19.742  12.962
68891W        W37285  42.485  43.938  13.068
68892W        W37286  18.476  25.010   0.906
68893W        W37287  20.122  31.443  10.817
68894W        W37288   5.542  19.711  11.133
68895W        W37289  26.038   8.077   1.256
68896W        W37290  12.837   9.446   2.395
68897W        W37291  25.731  11.115  11.202
68898W        W37292   8.736  28.359   1.628
68899W        W37293  27.862   3.568   1.772
68900W        W37294  13.371   0.706  13.368
68901W        W37295  41.002  17.204   3.610
68902W        W37296   2.188   2.793   1.225
68903W        W37297  19.356  31.480  13.927
68904W        W37298  24.771   0.698  12.860
68905W        W37299  26.239  11.693   4.404
68906W        W37300  25.050  42.235  14.633
68907W        W37301  38.392  11.172   2.556
68908W        W37302  29.368  39.021   0.361
68909W        W37303   3.969  17.192  12.586
68910W        W37304  40.747   1.231   0.318
68911W        W37305  38.247   2.732   1.988
68912W        W37306  14.139   1.368   1.090
68913W        W37307   6.398  11.858  14.870
68914W        W37308  14.657   3.187   4.805
68915W        W37309  36.265  29.422   4.386
68916W        W37310   6.635  29.339  11.251
68917W        W37311  44.518   8.185   3.696
68918W        W37312   6.827  21.784   1.610
68919W        W37313  30.592  16.107  12.607
68920W        W37314   7.497  34.826   1.991
68921W        W37315  15.236  25.013   0.296
68922W        W37316  16.978  22.054   4.897
68923W        W37317   4.086  42.833  14.428
68924W        W37318  38.150   0.968   3.962
68925W        W37319  10.685  10.242  10.210
68926W        W37320  18.138   9.204   4.417
68927W        W37321  35.027   6.472   4.162
68928W        W37322  25.516  44.827  14.054
68929W        W37323  12.900  38.136  13.286
68930W        W37324   4.919  25.011  12.025
68931W        W37325   3.669   8.085   3.805
68932W        W37326  28.109   0.748  11.041
68933W        W37327   5.857  28.820  11.702
68934W        W37328  33.198  38.387   4.730
68935W        W37329  38.572   4.993  11.740
68936W        W37330  30.676  17.772   1.245
68937W        W37331  10.879  16.879  14.064
68938W        W37332  33.044   7.286   3.823
68939W        W37333  20.107  38.322  12.807
68940W        W37334  10.137  16.537   2.161
68941W        W37335  32.567   2.710  12.596
68942W        W37336  42.694  21.529   2.634
68943W        W37337  23.637  25.174   0.350
68944W        W37338  10.263  27.138   2.155
68945W        W37339  11.540  34.399   0.422
68946W        W37340  11.254  19.694   4.374
68947W        W37341  43.304  38.039   1.352
68948W        W37342  17.304  22.472   3.370
68949W        W37343  16.446  20.686   4.071
68950W        W37344  13.183  33.456   2.881
68951W        W37345  16.908  27.017   1.695
68952W        W37346  39.879  25.376   0.646
68953W        W37347  44.329  23.408  12.396
68954W        W37348  30.489   9.780  12.284
68955W        W37349  36.494  22.504   1.776
68956W        W37350   5.966  36.065   0.004
68957W        W37351  42.346  24.080   3.021
68958W        W37352  39.241  16.170   3.760
68959W        W37353  28.155  23.268   1.395
68960W        W37354   0.351  44.093  10.533
68961W        W37355  19.494  15.169   2.420
68962W        W37356  42.508  37.967  12.425
68963W        W37357   6.947  16.365   2.645
68964W        W37358  11.990  17.979   2.976
68965W        W37359  13.312   9.443  13.816
68966W        W37360  35.844  44.485  14.430
68967W        W37361  10.146  18.237   1.473
68968W        W37362  13.571  37.963   2.820
68969W        W37363  36.836  26.134  11.046
68970W        W37364  14.351   3.847  10.316
68971W        W37365  17.369  30.177   1.350
68972W        W37366   0.369  20.578  12.107
68973W        W37367   2.487   5.762   1.193
68974W        W37368  23.694   6.956   3.110
68975W        W37369   4.305   4.461  14.374
68976W        W37370  29.713  43.325   2.828
68977W        W37371  13.270  11.801  13.432
68978W        W37372  21.661  44.962   0.337
68979W        W37373  34.425   7.321  14.892
68980W        W37374  18.030  41.902   3.067
68981W        W37375  43.266  39.826  14.321
68982W        W37376   8.143   5.242  14.311
68983W        W37377  35.844   1.993  14.130
68984W        W37378  16.826  18.682  13.724
68985W        W37379  36.435  31.503   2.692
68986W        W37380  43.954  28.457   1.196
68987W        W37381  42.297  15.699  12.519
68988W        W37382  25.798  44.025   3.612
68989W        W37383  32.570  15.105   2.808
68990W        W37384  16.669  36.731  14.398
68991W        W37385  43.277  13.431  11.970
68992W        W37386   2.757  27.125  12.162
68993W        W37387  24.555  36.437   4.535
68994W        W37388  41.549  34.941  11.734
68995W        W37389   9.757  29.065  11.128
68996W        W37390  44.136  39.323  14.424
68997W        W37391   8.647  33.118   2.843
68998W        W37392  32.086  27.403  10.710
68999W        W37393  30.946  16.589   1.721
69000W        W37394  41.817  10.402   4.986
69001W        W37395  32.009  12.257  11.655
69002W        W37396  40.334  40.466   3.328
69003W        W37397  28.202  31.157  14.755
69004W        W37398  18.130   1.664  12.943
69005W        W37399  19.319  23.057  13.798
69006W        W37400  26.421  11.783  12.081
69007W        W37401  21.014  37.062   4.284
69008W        W37402  30.247  39.250  12.279
69009W        W37403  37.358  43.755   4.683
69010W        W37404   9.621  39.834  12.968
69011W        W37405  28.971  31.607   3.015
69012W        W37406  16.348  23.605   4.553
69013W        W37407  30.691   3.386   1.116
69014W        W37408  20.466  10.263  14.332
69015W        W37409  40.449  42.395  14.701
69016W        W37410   7.764  13.688  10.514
69017W        W37411  11.425   1.233   2.435
69018W        W37412   3.146  25.091  14.012
69019W        W37413  33.416  33.516   0.171
69020W        W37414  20.253   9.383  12.907
69021W        W37415  12.867  23.707  11.595
69022W        W37416  41.551  37.886   0.809
69023W        W37417  35.901  41.389  12.920
69024W        W37418  39.970  18.139   1.750
69025W        W37419  31.206  26.365   2.715
69026W        W37420   2.860  35.290   3.255
69027W        W37421   5.410   9.323   0.316
69028W        W37422  32.298  24.728   4.008
69029W        W37423   4.412  29.652   2.279
69030W        W37424  35.874  42.953   3.400
69031W        W37425  20.965  29.203  14.955
69032W        W37426  41.981   0.772  10.379
69033W        W37427   2.641  44.330  10.221
69034W        W37428  17.157  37.311  10.744
69035W        W37429  43.382   6.388   1.764
69036W        W37430   8.481  20.816  12.883
69037W        W37431  22.953  13.215   4.583
69038W        W37432  37.098  23.599   2.306
69039W        W37433   2.693  12.715  10.425
69040W        W37434   9.733  32.666   2.689
69041W        W37435  35.069  26.245  12.931
69042W        W37436  29.639   7.063   3.202
69043W        W37437  36.687  31.614   4.927
69044W        W37438  30.151  15.609  11.991
69045W        W37439   0.452  43.024   4.702
69046W        W37440   9.413   4.227   5.762
69047W        W37441  27.436  13.185   2.307
69048W        W37442  23.007   3.734  12.430
69049W        W37443  17.971  17.054  11.512
69050W        W37444  20.529  41.233   3.726
69051W        W37445  12.737   6.274  14.924
69052W        W37446  34.145   2.706  13.989
69053W        W37447  25.549  10.364   0.038
69054W        W37448  14.255   6.219  13.384
69055W        W37449  40.537  20.303  14.903
69056W        W37450  41.826  15.573  10.571
69057W        W37451  11.217  12.847   2.834
69058W        W37452  37.824  41.993   1.378
69059W        W37453  23.707  21.904  12.708
69060W        W37454   1.123   1.864   1.457
69061W        W37455  36.433  10.619  11.633
69062W        W37456   5.910   2.854   2.231
69063W        W37457  12.395  14.211   3.475
69064W        W37458   7.109  21.140   2.935
69065W        W37459   2.218  12.394  12.525
69066W        W37460   5.326  24.237   1.281
69067W        W37461   6.917  26.113   2.847
69068W        W37462  13.571  11.073   0.913
69069W        W37463  12.431  26.997  10.630
69070W        W37464  22.934  26.608  13.383
69071W        W37465  29.025  35.948  10.642
69072W        W37466   9.864   7.361   1.834
69073W        W37467  15.666  27.960   3.369
69074W        W37468  42.218   4.617  14.679
69075W        W37469  24.595   4.908  12.066
69076W        W37470  39.963  44.087   0.378
69077W        W37471  26.925  17.874   3.609
69078W        W37472  40.233  12.212   3.317
69079W        W37473   1.073  20.179  13.936
69080W        W37474  44.838   1.453  13.443
69081W        W37475  27.478  26.987   1.468
69082W        W37476  23.570  16.758  12.540
69083W        W37477  16.179  34.952   4.785
69084W        W37478  15.900  18.056  10.681
69085W        W37479  21.459   0.895   1.976
69086W        W37480  43.001  28.213   3.761
69087W        W37481  30.533   7.397   2.388
69088W        W37482  39.506  20.161   3.515
69089W        W37483  34.664  13.345   0.385
69090W        W37484   2.786  41.455  11.949
69091W        W37485   7.860  26.817  14.882
69092W        W37486   1.551  10.334  10.732
69093W        W37487  33.083   5.767  13.584
69094W        W37488  22.271  36.880   3.705
69095W        W37489  25.048   8.149  14.814
69096W        W37490  44.022   1.703  12.545
69097W        W37491  11.358  38.241  11.002
69098W        W37492  35.705  35.608   4.921
69099W        W37493  33.121   3.794  12.512
69100W        W37494  31.874  25.966  10.789
69101W        W37495  42.218  27.027  11.216
69102W        W37496   7.382  35.333  14.900
69103W        W37497  15.799  14.617  12.227
69104W        W37498   5.884   1.527  10.280
69105W        W37499  15.861  23.257   1.341
69106W        W37500  31.569   6.675   1.632
69107W        W37501  28.886  22.951   2.878
69108W        W37502  13.207  21.706  13.341
69109W        W37503   5.620   9.171  13.009
69110W        W37504  21.646   3.321   1.539
69111W        W37505   1.491  12.108  12.118
69112W        W37506  34.618  44.897  14.479
69113W        W37507  22.718  37.472  14.962
69114W        W37508  33.168  18.818   4.507
69115W        W37509  11.582  28.092   4.525
69116W        W37510  14.492  35.678  11.154
69117W        W37511  22.768  18.034   3.925
69118W        W37512  30.354  25.358  11.976
69119W        W37513  18.768  13.694   3.738
69120W        W37514  18.313   1.976   0.254
69121W        W37515  22.677  37.834  14.293
69122W        W37516  44.740  18.088   3.393
69123W        W37517  27.570  13.857   0.634
69124W        W37518   9.418  21.470   1.653
69125W        W37519  17.207  21.592   0.946
69126W        W37520  13.352  38.469   2.839
69127W        W37521  11.914  25.741  12.492
69128W        W37522  25.197   5.620  13.944
69129W        W37523   9.333  44.513  10.362
69130W        W37524  38.859  20.273   4.800
69131W        W37525  11.509   2.854  12.145
69132W        W37526   6.771  17.121  14.103
69133W        W37527   4.826  18.507  12.417
69134W        W37528  36.769   5.852  12.420
69135W        W37529  18.200  42.961   1.915
69136W        W37530  13.937  41.350  11.016
69137W        W37531   6.448  43.520  12.934
69138W        W37532  26.054  27.635   4.576
69139W        W37533  37.753  39.750   4.167
69140W        W37534  41.306  34.602   4.340
69141W        W37535  27.240  25.558  12.850
69142W        W37536  18.109  14.730  14.951
69143W        W37537  23.677   9.153  11.702
69144W        W37538   0.984  32.667  11.870
69145W        W37539  27.015  36.008  12.505
69146W        W37540  42.280  32.414  10.622
69147W        W37541  20.310  35.020   3.662
69148W        W37542  33.399  26.720   4.069
69149W        W37543  11.564  15.391  11.135
69150W        W37544  37.018  17.768   2.705
69151W        W37545   3.732  26.770   0.214
69152W        W37546  12.291  10.187  12.497
69153W        W37547  42.052  22.494   2.889
69154W        W37548  28.666  41.125  14.699
69155W        W37549  33.876   1.128  11.382
69156W        W37550   7.849  16.301   1.867
69157W        W37551  35.964  18.520  12.747
69158W        W37552  18.584  20.232   5.147
69159W        W37553  41.891  34.480  14.305
69160W        W37554  19.155   7.449  10.188
69161W        W37555   8.638  41.577  11.918
69162W        W37556  29.567  38.976   1.802
69163W        W37557  41.926  41.780   2.136
69164W        W37558  30.746   7.378   1.910
69165W        W37559  21.704  38.585  10.598
69166W        W37560   4.808   3.819   0.190
69167W        W37561  44.813  35.674   2.297
69168W        W37562  31.612  14.320  13.937
69169W        W37563   7.727  29.599  14.409
69170W        W37564  27.344  32.418  12.376
69171W        W37565  17.106  41.753   0.247
69172W        W37566   5.276  42.545  12.882
69173W        W37567  13.330  44.555  12.003
69174W        W37568   9.375  10.629  12.807
69175W        W37569  11.408  21.548  12.883
69176W        W37570  43.825  37.369   0.179
69177W        W37571  10.815  43.455  14.884
69178W        W37572   5.045  30.960  10.335
69179W        W37573  20.558  22.714   0.102
69180W        W37574  40.040   0.460  13.498
69181W        W37575  41.834   9.598   1.319
69182W        W37576  33.965  24.552   0.426
69183W        W37577  34.253   0.176  11.216
69184W        W37578  10.737   2.751   2.767
69185W        W37579  42.328  11.808   3.728
69186W        W37580   1.178  40.121   1.439
69187W        W37581  21.460  35.446   3.345
69188W        W37582  14.213   4.706  14.454
69189W        W37583  32.339  37.271   0.946
69190W        W37584  30.552  41.897   2.240
69191W        W37585  13.541  10.751  11.637
69192W        W37586  11.463  42.318  13.568
69193W        W37587  16.604  30.364  13.364
69194W        W37588   9.155  23.057  12.962
69195W        W37589  26.337  24.091   0.909
69196W        W37590  33.833   1.299   1.302
69197W        W37591   2.839  24.050  14.003
69198W        W37592   9.934  39.983  13.843
69199W        W37593  42.796  42.964  12.003
69200W        W37594   5.910  38.251  11.032
69201W        W37595   4.220  33.458  14.347
69202W        W37596  22.179  36.846  13.715
69203W        W37597  39.883  27.055  11.131
69204W        W37598  21.510   4.890  13.227
69205W        W37599  20.619  16.734   3.646
69206W        W37600  10.795  15.675   3.790
69207W        W37601  13.020  27.393  12.047
69208W        W37602  40.488   3.162   4.083
69209W        W37603  33.185   6.176  12.497
69210W        W37604  29.096  22.578   3.929
69211W        W37605  36.137  23.117  13.352
69212W        W37606  19.710  21.265   3.733
69213W        W37607  10.246  34.425  10.783
69214W        W37608  12.341  25.957   4.405
69215W        W37609  15.803  38.338   3.290
69216W        W37610  24.288  24.593  11.644
69217W        W37611  38.966  15.014   4.158
69218W        W37612  28.623  11.615  12.411
69219W        W37613  38.552  16.890   1.769
69220W        W37614  26.711  16.724   4.574
69221W        W37615  24.006  17.635   4.026
69222W        W37616  34.546   3.196   4.350
69223W        W37617   0.308  22.409   4.225
69224W        W37618  27.658  19.998  14.936
69225W        W37619  17.313  30.129   0.441
69226W        W37620  27.659  39.204  11.611
69227W        W37621  30.061   6.362   4.870
69228W        W37622  34.773  21.801  13.442
69229W        W37623  41.725  34.102  10.724
69230W        W37624  43.711   4.918  14.396
69231W        W37625   2.477  34.385  10.850
69232W        W37626  15.903   6.789  11.326
69233W        W37627  16.367  16.623  10.908
69234W        W37628  22.642  20.480   4.230
69235W        W37629  42.332   4.947  12.130
69236W        W37630  30.970  44.228   2.204
69237W        W37631  23.834  38.153  13.564
69238W        W37632  24.402  30.733  14.722
69239W        W37633  10.783   0.336   4.470
69240W        W37634  19.694  29.175   0.452
69241W        W37635  10.902  18.220   1.773
69242W        W37636   8.172   6.710  11.225
69243W        W37637  32.560  25.664   3.723
69244W        W37638  43.999  32.224   0.452
69245W        W37639  43.004   5.680  13.034
69246W        W37640  34.420  31.539  14.028
69247W        W37641  16.547  20.208  11.231
69248W        W37642  11.900   1.755   0.208
69249W        W37643  32.048  22.978  10.423
69250W        W37644   9.284  42.540  10.504
69251W        W37645   4.303  21.701   4.128
69252W        W37646  20.439  43.553  14.250
69253W        W37647  30.931  39.499  13.790
69254W        W37648  42.279   5.452  12.157
69255W        W37649  15.094  12.172  12.946
69256W        W37650  14.334  22.029  11.515
69257W        W37651  28.759   8.533  11.633
69258W        W37652  32.651  13.183  11.419
69259W        W37653   7.407   1.534  14.253
69260W        W37654  39.518   9.165  14.363
69261W        W37655   0.392  44.974   4.383
69262W        W37656   8.940  34.997   3.231
69263W        W37657  28.989  13.110  13.421
69264W        W37658   2.259  40.556   4.925
69265W        W37659   5.339  19.463   3.994
69266W        W37660  18.847  42.983  13.293
69267W        W37661  44.666  26.511  14.545
69268W        W37662  29.191  42.640   3.868
69269W        W37663  14.743  42.560  14.852
69270W        W37664  36.810  41.454  12.448
69271W        W37665  14.259  30.555   2.444
69272W        W37666  19.936   0.062  12.985
69273W        W37667  22.303  20.056  11.732
69274W        W37668  43.768  28.484   0.713
69275W        W37669  14.768  23.837   3.382
69276W        W37670  19.158  30.399   4.022
69277W        W37671  41.082  39.362   2.844
69278W        W37672   3.754  41.138   3.066
69279W        W37673  16.249  28.727   5.481
69280W        W37674  18.075  43.418  13.814
69281W        W37675  28.267  11.116   3.678
69282W        W37676  24.721  12.093   0.759
69283W        W37677  35.150  31.670  12.710
69284W        W37678   8.848  11.967   1.280
69285W        W37679   5.883  44.199  14.277
69286W        W37680  44.766  25.583   3.278
69287W        W37681   1.778   3.052  10.448
69288W        W37682  17.747   5.287  12.070
69289W        W37683   8.241  11.019  11.174
69290W        W37684  36.072  14.313   4.517
69291W        W37685  43.842  12.719   4.513
69292W        W37686  37.655  40.316  13.985
69293W        W37687   4.724  40.702  12.191
69294W        W37688  17.072  18.096  13.279
69295W        W37689  36.390  10.746  10.771
69296W        W37690  21.560  24.230  11.237
69297W        W37691  25.898  29.635  10.688
69298W        W37692  25.263  34.598   1.228
69299W        W37693   8.692   2.629  13.458
69300W        W37694  44.011  43.483  13.352
69301W        W37695  24.655  14.866  12.452
69302W        W37696  43.792  32.077  11.732
69303W        W37697  19.223  34.886   0.401
69304W        W37698  28.798  24.077  11.300
69305W        W37699  15.548  41.835  12.477
69306W        W37700  44.641  41.902   4.219
69307W        W37701  21.808  19.429  12.888
69308W        W37702  34.017  20.089   3.652
69309W        W37703  21.471   0.410  12.550
69310W        W37704   2.267  43.231  12.947
69311W        W37705  14.106  31.945   4.416
69312W        W37706  15.729  13.340   4.577
69313W        W37707   4.426   2.053   1.763
69314W        W37708  20.409  39.327  13.328
69315W        W37709  22.649  39.930   0.821
69316W        W37710  35.012  32.594   3.093
69317W        W37711  23.831  12.667  14.425
69318W        W37712  41.498   4.876  13.261
69319W        W37713  22.193  29.998   3.814
69320W        W37714  35.780  25.193  14.986
69321W        W37715  36.494  17.654  14.268
69322W        W37716  29.116  19.356   3.962
69323W        W37717  19.586  26.798   3.133
69324W        W37718  10.139  29.420  11.172
69325W        W37719  23.235   1.565  11.885
69326W        W37720  21.500  20.912  11.653
69327W        W37721  17.576  34.133   0.679
69328W        W37722  11.137  37.526   3.307
69329W        W37723  12.658  25.042   3.095
69330W        W37724  13.679   1.467   3.364
69331W        W37725  25.380  33.045  13.998
69332W        W37726  41.923   9.575  13.969
69333W        W37727  18.039   6.463   2.159
69334W        W37728  42.679  29.054   1.421
69335W        W37729   5.198   0.905  14.411
69336W        W37730   7.068  40.953   2.320
69337W        W37731  31.342  17.857  14.426
69338W        W37732  30.586   3.361  10.875
69339W        W37733  29.235   6.246  12.622
69340W        W37734   8.762  31.454   4.954
69341W        W37735  43.847  42.277   3.731
69342W        W37736  28.431   7.467   2.729
69343W        W37737  19.843  42.008  13.680
69344W        W37738  22.988  44.195   9.970
69345W        W37739  31.559   3.514  11.436
69346W        W37740  12.643   8.351   1.355
69347W        W37741  17.286   7.161   0.251
69348W        W37742  23.171  42.459  14.498
69349W        W37743  25.604  19.243   1.312
69350W        W37744   3.998   1.887   0.898
69351W        W37745  39.517  10.948  14.397
69352W        W37746  35.113  10.826  14.667
69353W        W37747   7.450  29.450  11.063
69354W        W37748  40.888  26.009   0.478
69355W        W37749  24.066  38.540   2.865
69356W        W37750  14.927  23.223   2.260
69357W        W37751  13.328  30.893  12.230
69358W        W37752  42.792  25.778  11.196
69359W        W37753  31.576  11.195  10.782
69360W        W37754   6.444   7.822   2.187
69361W        W37755  40.934  37.541  13.884
69362W        W37756  25.463  12.714   3.891
69363W        W37757  15.573  31.524   4.481
69364W        W37758  37.952  14.623  11.419
69365W        W37759  17.960  14.303  10.770
69366W        W37760  12.537  28.767  11.160
69367W        W37761  16.089   9.159   9.811
69368W        W37762  29.171  24.882  14.039
69369W        W37763   8.802  30.012   3.307
69370W        W37764   2.042  28.425   4.640
69371W        W37765   5.206   1.815  11.326
69372W        W37766  14.119  21.779   2.019
69373W        W37767  38.906  23.215  10.494
69374W        W37768  43.530  44.149  10.650
69375W        W37769  26.735  23.614  11.972
69376W        W37770  42.329  23.607   2.272
69377W        W37771  35.325  40.190  11.396
69378W        W37772  38.795  36.324   4.347
69379W        W37773   6.384   1.314  13.462
69380W        W37774   8.522  35.188  11.634
69381W        W37775  28.951   4.602  12.378
69382W        W37776  44.381   9.653   2.763
69383W        W37777   0.911  39.889  13.607
69384W        W37778  12.231   7.344  10.521
69385W        W37779  18.597  38.712   0.971
69386W        W37780  11.284  16.501  13.283
69387W        W37781  36.518   0.915  10.809
69388W        W37782  20.120  28.229   0.330
69389W        W37783  27.066  28.138  13.509
69390W        W37784  32.364   4.977   4.150
69391W        W37785  36.009  23.528   2.226
69392W        W37786   2.023  36.761   1.731
69393W        W37787  28.998  16.366  12.529
69394W        W37788   1.428  18.545  12.957
69395W        W37789  27.384  28.532  13.590
69396W        W37790  30.160   2.123  14.477
69397W        W37791  11.691  16.250  13.573
69398W        W37792  19.200  25.023   0.291
69399W        W37793  15.569  23.610  13.879
69400W        W37794   3.962  23.646  10.612
69401W        W37795  31.691  22.270   4.221
69402W        W37796  13.208  34.559  14.870
69403W        W37797  42.345  26.089   0.747
69404W        W37798  16.517  16.807  10.416
69405W        W37799  40.365  27.964  12.081
69406W        W37800   4.462  14.727  14.855
69407W        W37801  25.472  28.979   2.368
69408W        W37802  40.276  30.888  10.269
69409W        W37803  19.837  38.957  10.955
69410W        W37804  30.479  43.349   4.511
69411W        W37805  19.604  20.716   4.604
69412W        W37806   3.805  22.509  13.916
69413W        W37807  21.109  31.423  12.777
69414W        W37808  34.894  13.726  13.460
69415W        W37809  19.799   8.401  13.130
69416W        W37810  43.633   8.171  11.525
69417W        W37811  34.420  43.987  13.966
69418W        W37812  28.295  42.410   2.728
69419W        W37813  12.821   9.760  10.991
69420W        W37814  30.060  11.614   1.934
69421W        W37815  19.409  12.164  13.285
69422W        W37816  19.511  28.203  13.478
69423W        W37817  20.612  16.985  12.066
69424W        W37818   6.831  20.236   4.129
69425W        W37819  42.480  38.409   0.584
69426W        W37820   8.448  17.801  11.169
69427W        W37821  15.761   6.792  14.455
69428W        W37822   9.427  13.800   4.867
69429W        W37823  19.492  38.405   2.749
69430W        W37824   8.130  21.309  12.896
69431W        W37825  40.387   1.171   4.234
69432W        W37826   5.347  26.704  14.346
69433W        W37827   8.919  11.867  11.060
69434W        W37828  27.057  43.678   1.375
69435W        W37829  22.305  41.653   2.378
69436W        W37830  44.837  26.281   3.715
69437W        W37831   7.381  13.262   4.120
69438W        W37832  23.031  10.703  14.715
69439W        W37833  20.542  31.047  12.973
69440W        W37834  10.851  30.525  11.499
69441W        W37835   6.178   3.179  10.626
69442W        W37836  35.984  24.650  12.498
69443W        W37837  35.972  33.615   1.056
69444W        W37838  12.271  12.825   4.539
69445W        W37839  43.969  31.017   2.176
69446W        W37840  43.382  25.225   3.684
69447W        W37841  18.073  39.913   2.424
69448W        W37842  27.414   8.233  13.725
69449W        W37843   7.666  23.501  13.842
69450W        W37844  28.909  38.714  11.444
69451W        W37845  32.450  28.655  12.050
69452W        W37846  34.399  30.719  12.049
69453W        W37847  35.868  28.904  14.136
69454W        W37848   1.337  39.097  11.901
69455W        W37849   6.208   9.118  14.960
69456W        W37850  44.030  11.236  12.166
69457W        W37851  36.307  41.504   4.166
69458W        W37852  32.306  34.528  14.861
69459W        W37853  24.945   0.327  12.516
69460W        W37854  18.133  25.416  13.630
69461W        W37855   6.970  22.984   3.614
69462W        W37856  35.822  28.752   4.095
69463W        W37857  18.657  32.450   1.665
69464W        W37858   2.911  35.041   0.122
69465W        W37859  23.368  16.222  12.596
69466W        W37860  39.074  16.023   2.651
69467W        W37861   0.826   2.724   3.757
69468W        W37862  14.273   3.309  14.906
69469W        W37863  19.505   1.552   4.149
69470W        W37864  34.459  19.645   4.170
69471W        W37865  11.126  41.865   0.737
69472W        W37866  36.975  36.274  13.871
69473W        W37867  29.607  40.256  11.606
69474W        W37868   1.527   6.202   4.542
69475W        W37869  35.888   2.705  11.081
69476W        W37870   0.306  42.321  12.001
69477W        W37871  40.295  32.091  13.488
69478W        W37872  31.572   9.350   0.508
69479W        W37873  17.463  18.145   0.863
69480W        W37874  41.403  10.602   1.621
69481W        W37875  22.419  21.255   0.216
69482W        W37876  23.525  43.453  11.617
69483W        W37877   4.436  42.070  13.112
69484W        W37878  37.376   6.332  11.769
69485W        W37879  25.014   3.263  12.967
69486W        W37880  30.938  35.847   3.406
69487W        W37881  29.719   6.496  14.469
69488W        W37882  44.601  28.161   2.833
69489W        W37883  40.184  36.552   0.222
69490W        W37884   2.431  32.093   4.914
69491W        W37885  21.673  22.299  11.024
69492W        W37886  24.285  33.874   3.971
69493W        W37887  42.929  31.045  11.429
69494W        W37888   2.951   4.309   4.518
69495W        W37889   7.895  19.522  12.481
69496W        W37890  17.536  26.815  11.499
69497W        W37891  41.481  10.730  13.576
69498W        W37892  20.125  38.930   4.575
69499W        W37893  29.094  21.716   4.856
69500W        W37894  37.422  25.392  11.958
69501W        W37895   1.298  19.074  14.705
69502W        W37896  43.380  34.807  13.396
69503W        W37897  20.180  31.244  14.979
69504W        W37898  32.833  23.133   4.191
69505W        W37899  22.189   8.545  12.094
69506W        W37900  22.337  27.499  12.499
69507W        W37901  25.948  22.745  14.288
69508W        W37902   1.395  28.440  12.808
69509W        W37903  39.743  33.972   2.703
69510W        W37904  33.540  20.743   4.486
69511W        W37905  17.273  33.371  10.722
69512W        W37906  27.505  33.860   1.150
69513W        W37907   3.909   1.380   0.216
69514W        W37908  33.815  21.313   4.101
69515W        W37909  29.112  41.843   2.172
69516W        W37910  16.020   1.815   3.704
69517W        W37911  11.388   5.327  11.156
69518W        W37912  24.474  31.183   0.093
69519W        W37913  22.052   9.344   4.384
69520W        W37914  29.740   6.982  14.252
69521W        W37915  41.259  42.027   1.396
69522W        W37916  33.476  10.362   4.928
69523W        W37917  27.734   8.098  13.313
69524W        W37918  29.330   9.846   2.175
69525W        W37919  37.522  15.249   3.175
69526W        W37920  14.268   1.657   4.130
69527W        W37921  11.154   7.225   1.332
69528W        W37922  15.385  13.766  14.046
69529W        W37923   2.339  13.758   4.099
69530W        W37924   8.137  33.660  11.024
69531W        W37925   4.865  37.112  12.378
69532W        W37926  20.091  11.660  13.717
69533W        W37927  40.970  33.905  11.099
69534W        W37928  28.869   5.893  10.404
69535W        W37929  26.938  30.891  14.551
69536W        W37930  17.501  14.781   3.707
69537W        W37931  44.286  18.125   3.129
69538W        W37932  15.749  40.745   0.776
69539W        W37933  33.461  18.317  11.361
69540W        W37934  42.002   4.624   5.039
69541W        W37935  32.008  23.000   3.227
69542W        W37936   3.741  11.827  14.710
69543W        W37937  15.714  11.240   1.562
69544W        W37938   7.326  15.801   1.463
69545W        W37939  26.096   0.556  14.338
69546W        W37940  15.462  37.015  14.454
69547W        W37941  35.506  34.614  13.019
69548W        W37942  36.333  39.896  14.842
69549W        W37943  15.280  29.191  14.807
69550W        W37944  42.818  38.554  14.464
69551W        W37945  24.818   2.906  14.453
69552W        W37946  44.962  19.226  12.072
69553W        W37947   5.688  40.456   3.376
69554W        W37948  18.504  22.904  13.426
69555W        W37949  25.240  16.605   4.744
69556W        W37950  26.262   4.939   2.183
69557W        W37951  40.396  31.975  14.935
69558W        W37952   4.172  33.440   4.584
69559W        W37953  32.689  11.354   4.259
69560W        W37954  37.637  18.758   4.079
69561W        W37955  28.620  26.232  13.180
69562W        W37956  43.919  15.111  14.754
69563W        W37957   2.610  17.753   1.269
69564W        W37958  44.501  19.274  13.006
69565W        W37959  34.354  29.743  10.514
69566W        W37960  20.177  36.848  11.914
69567W        W37961  22.922  22.484  12.407
69568W        W37962  40.268  31.420   4.323
69569W        W37963   1.046  25.930  11.033
69570W        W37964  42.028  26.782   3.295
69571W        W37965   4.823  26.292   0.789
69572W        W37966  16.338  26.785   1.718
69573W        W37967  26.517  19.708  10.917
69574W        W37968  16.291   3.402   2.157
69575W        W37969  10.917  28.025  12.402
69576W        W37970  26.372  25.178  11.119
69577W        W37971  39.764   0.962   1.445
69578W        W37972  27.003  32.481   4.606
69579W        W37973  43.232  36.910   2.732
69580W        W37974  22.230   5.718  14.300
69581W        W37975  14.490  34.561  12.418
69582W        W37976  14.314  21.563   3.614
69583W        W37977  22.586  17.987  11.068
69584W        W37978  41.971  23.597  10.657
69585W        W37979  40.890  11.812   4.102
69586W        W37980  23.450  18.383   4.616
69587W        W37981  42.189  15.107  11.446
69588W        W37982   4.518  39.821   2.364
69589W        W37983  22.996  13.597   1.586
69590W        W37984   2.159  19.193  13.196
69591W        W37985  11.055   7.239   3.744
69592W        W37986  16.048   0.840  11.630
69593W        W37987   5.531  11.164  10.480
69594W        W37988   6.888  19.230   2.337
69595W        W37989  28.985  15.189  12.537
69596W        W37990  10.166  29.641   3.039
69597W        W37991   8.220   2.349   0.741
69598W        W37992   0.254   0.008   0.675
69599W        W37993  40.536   0.490  12.056
69600W        W37994  21.276  18.216  10.973
69601W        W37995  19.397  12.544   2.339
69602W        W37996  44.792   7.698  12.185
69603W        W37997  38.693  28.465   2.034
69604W        W37998  26.474   2.321   3.478
69605W        W37999  16.384  10.834   0.895
69606W        W38000  11.331   4.926   4.905
69607W        W38001   9.373   4.825  14.008
69608W        W38002  42.038  40.424  13.567
69609W        W38003   8.741  22.581   3.167
69610W        W38004  10.122  44.869  11.086
69611W        W38005  36.363   3.708  12.442
69612W        W38006  10.585  38.922  10.606
69613W        W38007  40.364   7.361  11.609
69614W        W38008  37.961  31.184  12.511
69615W        W38009   1.995  42.835  13.355
69616W        W38010  16.605   6.321  13.005
69617W        W38011  12.466   8.215  10.007
69618W        W38012  44.085   2.156   3.149
69619W        W38013   4.756  21.545  13.843
69620W        W38014  17.493  12.882  13.755
69621W        W38015  36.019   2.797   4.745
69622W        W38016   6.406  38.626  12.936
69623W        W38017  42.993   3.229   0.786
69624W        W38018  29.957   4.209  12.044
69625W        W38019  41.939  32.537   4.427
69626W        W38020  40.342  24.327  12.968
69627W        W38021  11.326  17.276  14.273
69628W        W38022   0.888  15.726   4.477
69629W        W38023   4.815  28.743  14.743
69630W        W38024  14.209  27.845   3.585
69631W        W38025  31.859  32.536  13.855
69632W        W38026  16.668  35.330  10.432
69633W        W38027  41.454   9.474   3.657
69634W        W38028  29.145  40.493  14.332
69635W        W38029   3.904  42.574   2.874
69636W        W38030   3.693  10.231   2.356
69637W        W38031  17.789  42.198   9.734
69638W        W38032  15.027  33.883  11.290
69639W        W38033  24.260  42.006   0.358
69640W        W38034  35.086  28.907   2.276
69641W        W38035  32.627  17.356   3.811
69642W        W38036  37.331  36.674  11.673
69643W        W38037  31.510  14.427   4.049
69644W        W38038  10.242  30.056   4.822
69645W        W38039  28.156  34.436   1.271
69646W        W38040  18.052  30.393  12.430
69647W        W38041  31.760   4.803  10.574
69648W        W38042  21.659   2.449   4.593
69649W        W38043   6.653  43.068  13.079
69650W        W38044   3.722  29.186  11.651
69651W        W38045  42.039  38.826   4.317
69652W        W38046  35.427  40.037  11.907
69653W        W38047  43.571  15.013   3.382
69654W        W38048  19.129  27.238  11.615
69655W        W38049   4.241   9.431   5.004
69656W        W38050   5.661  21.546  13.959
69657W        W38051  42.490   2.217   1.161
69658W        W38052   0.884  23.133   0.989
69659W        W38053  42.944  28.640   1.203
69660W        W38054  43.466   9.158  13.280
69661W        W38055  28.375  37.976  12.655
69662W        W38056  29.091   2.974   1.875
69663W        W38057  31.196   7.207  11.174
69664W        W38058  13.668  15.045  13.494
69665W        W38059  44.398   7.609   2.854
69666W        W38060   6.105  27.639  13.874
69667W        W38061  30.194  19.173   1.186
69668W        W38062  15.092  40.467   3.564
69669W        W38063  38.634  19.257   2.252
69670W        W38064  38.559  43.044   4.025
69671W        W38065  12.407   8.811   1.243
69672W        W38066  26.702   1.045   9.793
69673W        W38067  35.008  43.803  12.631
69674W        W38068   3.352  17.250  14.315
69675W        W38069  41.979  32.929  13.894
69676W        W38070  23.374  20.082   1.324
69677W        W38071  18.406  31.980  10.893
69678W        W38072  44.408   0.457   1.923
69679W        W38073   3.261  13.663  13.490
69680W        W38074   8.463  25.446  12.582
69681W        W38075  15.789  22.233   2.746
69682W        W38076  39.090   9.221   2.142
69683W        W38077  29.449   2.850  13.483
69684W        W38078  32.560  42.386  12.893
69685W        W38079   8.074  31.688  14.802
69686W        W38080  19.582  16.772  13.018
69687W        W38081   9.391  25.600  13.487
69688W        W38082  24.253  39.044   1.395
69689W        W38083  12.876  42.803  12.550
69690W        W38084  28.023  18.753  10.615
69691W        W38085  17.879  38.942   2.993
69692W        W38086  16.564   4.863  13.971
69693W        W38087   7.923  44.857  14.348
69694W        W38088   1.352  15.748  14.358
69695W        W38089   4.181  18.085   0.790
69696W        W38090   6.199  27.080   1.856
69697W        W38091  37.571  28.157   3.740
69698W        W38092  22.257  31.465  14.270
69699W        W38093  42.227  28.808  13.372
69700W        W38094   1.262   3.279   3.343
69701W        W38095   2.088  15.338  12.487
69702W        W38096  34.180  24.744   4.664
69703W        W38097  40.952  15.721  11.134
69704W        W38098  31.328   3.880   4.377
69705W        W38099  16.319  32.114  10.570
69706W        W38100  19.497   0.912   4.139
69707W        W38101   9.255  11.866   3.377
69708W        W38102  42.073  28.478   2.502
69709W        W38103  13.114   7.187   1.743
69710W        W38104  43.904   5.891  13.403
69711W        W38105  33.445   4.963  12.083
69712W        W38106  15.552  14.250  11.965
69713W        W38107  11.085   1.315   4.904
69714W        W38108   2.951  38.508  12.862
69715W        W38109  27.983  20.991   4.882
69716W        W38110  43.390  22.484   2.648
69717W        W38111   8.799  40.001  14.451
69718W        W38112  11.619  39.970  10.608
69719W        W38113  15.163  27.558  11.058
69720W        W38114  43.040  30.635   3.592
69721W        W38115  23.203   7.923  11.259
69722W        W38116  16.599  35.871   4.212
69723W        W38117  18.763  13.008   1.213
69724W        W38118   3.683  26.037   2.630
69725W        W38119  11.151  29.335  13.040
69726W        W38120  24.298  11.149   0.798
69727W        W38121   6.999  11.179   3.296
69728W        W38122  20.262  40.882  12.924
69729W        W38123  11.385  19.217   2.223
69730W        W38124  12.807  34.001   4.033
69731W        W38125  23.012  15.239   3.266
69732W        W38126  40.721  38.238   5.079
69733W        W38127  37.029   8.774   4.701
69734W        W38128  31.584  42.282  14.020
69735W        W38129  33.143  10.326  10.518
69736W        W38130  16.233  34.405   3.280
69737W        W38131  23.580  31.045   0.071
69738W        W38132   4.455  36.360   0.042
69739W        W38133   5.703  39.500   0.360
69740W        W38134   8.565  29.972   0.920
69741W        W38135  21.336   4.447  10.614
69742W        W38136  16.335  28.134  14.702
69743W        W38137   4.247   5.925   1.869
69744W        W38138  37.521  22.678   2.753
69745W        W38139  19.754  30.165   3.262
69746W        W38140   4.012  21.070  12.541
69747W        W38141   2.279  31.651   4.671
69748W        W38142  43.335  20.566  13.951
69749W        W38143   8.212   4.808  10.530
69750W        W38144   1.480  26.736   1.363
69751W        W38145  36.530  27.196   3.730
69752W        W38146  13.377  13.171  13.587
69753W        W38147  19.835   3.428   2.579
69754W        W38148  16.201  44.356   1.941
69755W        W38149  29.595  25.731   3.640
69756W        W38150   5.879  17.641   1.051
69757W        W38151  21.446   3.062   3.132
69758W        W38152  23.046  24.093   0.876
69759W        W38153  37.094  28.790   3.190
69760W        W38154  30.266  28.234   0.199
69761W        W38155  17.303   4.317  11.987
69762W        W38156  31.955   0.459  13.011
69763W        W38157  24.906  17.603   3.805
69764W        W38158  11.524   2.932  13.519
69765W        W38159  30.110  26.163  10.419
69766W        W38160  25.737  22.755   4.562
69767W        W38161  32.463   1.241  14.061
69768W        W38162  13.252   4.732   5.185
69769W        W38163  28.869  20.161   0.678
69770W        W38164  38.406  40.494  11.501
69771W        W38165  10.676   5.796   4.031
69772W        W38166  10.193  39.613  14.562
69773W        W38167  23.724  38.985  13.884
69774W        W38168  34.020  33.849  14.084
69775W        W38169   0.841  42.881  14.416
69776W        W38170   5.237  40.518   1.194
69777W        W38171  24.535  30.995   1.087
69778W        W38172  16.940   3.739  13.858
69779W        W38173  33.153   1.932   0.497
69780W        W38174  40.016  20.783  11.199
69781W        W38175  38.990  10.539   4.124
69782W        W38176  39.886   4.858  11.021
69783W        W38177   2.412  17.306  11.924
69784W        W38178   4.925  42.218  10.565
69785W        W38179  43.315   4.346   4.447
69786W        W38180  37.010   1.351   2.862
69787W        W38181  22.498  42.772   4.676
69788W        W38182  39.374   6.626   3.668
69789W        W38183  34.590   8.134   4.485
69790W        W38184  20.623  17.839  12.454
69791W        W38185  14.645  29.997  12.105
69792W        W38186   3.353  18.736   0.291
69793W        W38187  41.339   2.295   1.674
69794W        W38188  11.215   2.209   4.381
69795W        W38189  34.356  18.287  11.407
69796W        W38190  17.578  44.756  13.071
69797W        W38191  10.740  26.501  10.481
69798W        W38192  37.806  30.103  13.586
69799W        W38193  29.524  32.505  14.234
69800W        W38194  13.628  26.952   1.720
69801W        W38195  33.335   0.516   0.288
69802W        W38196  30.946  41.047   4.682
69803W        W38197  25.930  14.341  12.479
69804W        W38198  27.840   3.989   0.429
69805W        W38199  38.583  34.669  14.978
69806W        W38200   0.819   4.904   4.312
69807W        W38201  38.452  18.852   1.939
69808W        W38202  29.747   2.416   1.413
69809W        W38203  39.602   8.375   1.305
69810W        W38204   0.285   4.279  10.981
69811W        W38205  21.423  37.855   4.244
69812W        W38206  15.198  11.666  12.952
69813W        W38207   2.704  24.758   0.823
69814W        W38208  33.108  21.253   2.403
69815W        W38209   4.752  17.861  13.852
69816W        W38210  12.605  30.156  14.291
69817W        W38211   7.367  31.933   0.760
69818W        W38212  19.484  10.198   1.187
69819W        W38213  19.832  26.154  13.802
69820W        W38214  11.261  28.476   3.589
69821W        W38215  30.106  20.965  10.721
69822W        W38216  44.555  24.664   2.882
69823W        W38217   7.265  43.445   0.696
69824W        W38218  31.465  10.645  12.988
69825W        W38219   3.311  11.883   3.651
69826W        W38220  24.007  20.548   3.287
69827W        W38221  27.021   6.479  11.710
69828W        W38222  33.215  26.735   1.417
69829W        W38223  28.507  41.067   2.117
69830W        W38224   1.865   1.322  12.984
69831W        W38225  33.878  21.250   1.785
69832W        W38226   4.378  42.086  14.800
69833W        W38227  23.508   1.760  11.047
69834W        W38228  43.467  21.643   0.165
69835W        W38229  21.726   1.328  12.023
69836W        W38230   8.148  17.707  13.981
69837W        W38231  13.875  32.059  11.092
69838W        W38232  13.917   0.460  11.740
69839W        W38233  27.066  22.976  14.493
69840W        W38234  18.649  16.488  14.938
69841W        W38235   6.209  31.985   1.808
69842W        W38236  12.067   5.424   5.033
69843W        W38237  21.791  18.791   2.684
69844W        W38238   9.810  20.036  12.929
69845W        W38239  23.318  15.682  11.289
69846W        W38240  21.197   8.389   2.274
69847W        W38241  44.545  19.049   2.416
69848W        W38242   8.210   9.193  12.321
69849W        W38243  12.837  42.102  11.552
69850W        W38244   4.345  42.544   2.092
69851W        W38245  24.632  30.140   0.091
69852W        W38246  33.558  38.310  11.999
69853W        W38247  30.312  22.078  11.221
69854W        W38248  44.675   8.025  13.493
69855W        W38249  13.903  16.270  12.646
69856W        W38250  32.402  28.625  11.096
69857W        W38251  33.447  25.507   3.619
69858W        W38252   3.699  18.070  11.644
69859W        W38253  18.770  12.510  13.070
69860W        W38254  19.943  15.551   1.254
69861W        W38255  34.683  31.613   3.350
69862W        W38256  40.566   0.575   1.395
69863W        W38257  42.536  42.838   3.634
69864W        W38258  38.244  25.663   4.286
69865W        W38259  41.064  17.732   3.665
69866W        W38260  27.264  43.292  11.681
69867W        W38261  25.095  12.155   1.866
69868W        W38262   5.994  18.902   4.087
69869W        W38263  22.024  39.697  13.807
69870W        W38264   8.725  30.966  14.578
69871W        W38265  40.500  10.104  13.591
69872W        W38266  43.481  40.392   1.502
69873W        W38267  29.628  26.584  13.505
69874W        W38268  35.773  30.049  10.813
69875W        W38269  37.470  39.916  14.249
69876W        W38270  22.092  12.639   4.713
69877W        W38271  35.966  39.793  12.598
69878W        W38272   6.888  12.804  12.339
69879W        W38273  41.008  40.366   3.660
69880W        W38274  18.110  22.310   1.021
69881W        W38275  35.634  21.334   0.666
69882W        W38276  12.840  29.468  14.974
69883W        W38277  26.499  12.619  10.692
69884W        W38278  25.905  37.067  12.145
69885W        W38279   1.013  17.614   3.142
69886W        W38280  15.112  34.337  11.070
69887W        W38281  21.489  32.723  14.223
69888W        W38282  38.069  14.332  13.959
69889W        W38283   5.734  18.666  12.432
69890W        W38284  42.554   2.813  13.426
69891W        W38285  30.852  19.100   3.341
69892W        W38286  38.287  20.358  13.810
69893W        W38287  19.498  33.585  13.633
69894W        W38288  34.406  16.341   5.023
69895W        W38289  13.272   5.922   3.696
69896W        W38290  32.599  32.150  13.862
69897W        W38291  11.565  10.584  14.484
69898W        W38292  22.437  39.832  10.731
69899W        W38293   7.864  26.591  11.690
69900W        W38294  26.589  20.046   0.643
69901W        W38295  31.730   3.893  11.742
69902W        W38296   6.634  32.052  10.690
69903W        W38297  42.724  21.680   3.990
69904W        W38298   5.756  34.087  14.838
69905W        W38299  33.666  29.455   4.079
69906W        W38300  39.258  25.180   1.751
69907W        W38301  15.653  38.385   2.288
69908W        W38302  15.584  29.945  11.846
69909W        W38303  42.329  19.743   2.145
69910W        W38304  36.145   8.295   3.083
69911W        W38305  17.788  37.883  13.159
69912W        W38306   8.327  18.727  11.951
69913W        W38307  40.215  40.461   4.179
69914W        W38308  34.762  38.066  13.844
69915W        W38309  33.450   5.270  10.853
69916W        W38310  15.266  34.501   4.756
69917W        W38311  15.119  17.534  11.606
69918W        W38312  28.545  25.293  13.487
69919W        W38313  32.151   4.666  11.511
69920W        W38314  30.050  30.094   4.394
69921W        W38315  23.643  34.497  13.116
69922W        W38316  34.426  37.283   3.184
69923W        W38317   1.211   6.385   2.773
69924W        W38318  19.240  27.453  12.118
69925W        W38319  24.140  37.548   0.186
69926W        W38320   3.819  15.479  14.436
69927W        W38321   2.326  34.512   4.507
69928W        W38322   0.411  29.380  12.110
69929W        W38323  42.193   1.030   2.704
69930W        W38324  15.066  33.716  13.858
69931W        W38325  18.986  11.688   4.665
69932W        W38326  12.231  23.151   2.423
69933W        W38327  33.573  14.511  14.566
69934W        W38328  25.703  31.769   2.712
69935W        W38329  26.161  18.916  13.843
69936W        W38330  19.236  40.966   1.897
69937W        W38331  30.027  15.511  14.318
69938W        W38332  29.297   3.757   2.609
69939W        W38333  36.598   6.084   1.621
69940W        W38334  11.604   1.331  13.769
69941W        W38335  33.592  13.811   4.112
69942W        W38336  10.649  11.825   2.166
69943W        W38337  23.287   2.713   4.204
69944W        W38338  42.763  31.641   2.617
69945W        W38339   7.435  22.178  12.037
69946W        W38340  42.391  17.097  13.737
69947W        W38341  37.960   5.161   3.308
69948W        W38342  37.447  22.289   2.207
69949W        W38343  40.634  33.820   1.526
69950W        W38344  14.740  25.987  11.548
69951W        W38345  21.236  37.079  11.208
69952W        W38346  44.373  14.442   3.676
69953W        W38347  21.703  24.145  11.746
69954W        W38348  10.165  19.459  11.001
69955W        W38349  15.447  33.140  14.463
69956W        W38350   4.360  31.008  13.429
69957W        W38351  41.056  29.923   0.108
69958W        W38352  43.595   5.880   3.452
69959W        W38353  37.415  11.334  12.347
69960W        W38354  34.485  13.341  12.992
69961W        W38355  17.638  35.272   2.479
69962W        W38356  27.111  28.200   0.943
69963W        W38357  22.683  41.862  13.455
69964W        W38358  27.496  28.116  13.873
69965W        W38359  43.529  13.168  11.567
69966W        W38360  21.459  27.728  11.985
69967W        W38361  35.007  18.711  13.597
69968W        W38362   5.350  39.547   4.540
69969W        W38363   4.447  26.520   4.733
69970W        W38364   6.925   4.397  14.933
69971W        W38365   2.045  36.791   4.019
69972W        W38366  23.712  37.918   1.958
69973W        W38367   6.033  40.578   3.825
69974W        W38368   8.250  11.419  13.806
69975W        W38369  34.465  31.006  12.593
69976W        W38370  16.684   7.317  13.961
69977W        W38371  12.174  41.231   4.867
69978W        W38372  39.290  13.625   1.708
69979W        W38373  35.726  29.867   1.258
69980W        W38374  29.202  20.944   0.741
69981W        W38375  27.583  41.118   3.040
69982W        W38376  29.230  28.472  12.851
69983W        W38377  17.283   9.666   3.203
69984W        W38378  18.368  28.351  11.486
69985W        W38379  17.090  23.316   0.105
69986W        W38380  18.074  15.360  12.982
69987W        W38381  27.088  11.234   4.618
69988W        W38382  20.676   2.559   1.932
69989W        W38383   0.974  28.548   1.511
69990W        W38384  29.376  13.920   3.369
69991W        W38385  40.771  27.995   3.350
69992W        W38386  17.965   4.233   3.652
69993W        W38387  39.272   0.739  11.993
69994W        W38388  38.803  33.993   1.821
69995W        W38389  27.440  44.329  14.043
69996W        W38390  13.841  13.872   1.386
69997W        W38391  36.666  15.623  13.870
69998W        W38392   5.281   0.223  14.991
69999W        W38393  12.699  34.579  12.945
70000W        W38394  44.466   8.799   1.539
70001W        W38395   4.913  35.883  10.566
70002W        W38396  38.005  35.596  12.434
70003W        W38397  30.414  29.951   2.516
70004W        W38398  40.253  31.444  11.810
70005W        W38399  33.581   6.121   3.163
70006W        W38400  10.148   1.622  11.875
70007W        W38401  29.889  18.189  10.603
70008W        W38402  11.835  24.652   1.823
70009W        W38403   1.978  24.481  11.587
70010W        W38404  43.649  26.397  13.877
70011W        W38405  39.759   4.355   3.843
70012W        W38406  41.881   3.438   2.806
70013W        W38407  31.870  40.040  11.418
70014W        W38408  30.193  36.816  13.006
70015W        W38409  44.413   7.998  10.629
70016W        W38410  11.263  13.522   1.196
70017W        W38411  16.365  21.040   1.025
70018W        W38412  10.809  38.254  11.513
70019W        W38413  40.040   8.795  14.480
70020W        W38414   0.189  15.962   2.672
70021W        W38415  41.944  20.466  13.037
70022W        W38416  33.828  31.012   2.559
70023W        W38417   5.813  10.256   1.632
70024W        W38418  25.567  29.443   0.810
70025W        W38419  15.579  25.893   4.613
70026W        W38420   1.831   8.238   3.227
70027W        W38421  13.636  17.412   1.080
70028W        W38422   6.161  20.047   4.099
70029W        W38423  40.876  32.437   3.499
70030W        W38424   3.180   9.583  13.581
70031W        W38425  19.277  30.110   3.075
70032W        W38426  33.841  39.344  14.978
70033W        W38427  18.736  42.040  13.295
70034W        W38428  29.213  44.753   3.231
70035W        W38429   5.734  31.401   1.520
70036W        W38430  10.254  40.278   1.782
70037W        W38431  10.649  24.697   4.597
70038W        W38432   0.119  41.905  12.957
70039W        W38433  23.158  20.242  11.208
70040W        W38434  34.853   3.274  11.572
70041W        W38435  29.698  35.971   4.688
70042W        W38436  27.751  20.616   3.693
70043W        W38437  44.785  17.768   0.017
70044W        W38438  36.783   2.041   4.126
70045W        W38439   8.145   0.745  14.364
70046W        W38440  13.755  37.965  10.421
70047W        W38441  33.351   0.759   4.790
70048W        W38442  19.975   3.858  11.437
70049W        W38443  14.579  35.956   0.368
70050W        W38444   6.210   6.972   2.736
70051W        W38445   9.401  24.779  13.965
70052W        W38446   4.308  22.021   0.434
70053W        W38447  11.384   8.754   0.002
70054W        W38448  27.488  19.568   1.266
70055W        W38449  17.930   4.297   1.465
70056W        W38450  42.851  18.643   3.700
70057W        W38451  41.346  34.768   3.835
70058W        W38452  32.325  43.429  13.573
70059W        W38453  22.767  12.632  13.840
70060W        W38454  23.830  14.743  14.960
70061W        W38455  11.692  21.070   3.233
70062W        W38456  11.788  17.928  10.142
70063W        W38457   1.062   8.281  13.846
70064W        W38458  20.281  14.519  10.924
70065W        W38459  18.102  25.712   3.768
70066W        W38460  36.162  11.746   2.906
70067W        W38461  41.565  11.362  12.193
70068W        W38462   9.058  34.039   2.800
70069W        W38463  19.749   6.117  14.457
70070W        W38464  41.411  16.241  14.979
70071W        W38465  32.350   0.886   1.742
70072W        W38466  34.781  27.193  14.738
70073W        W38467  40.790  30.032  14.693
70074W        W38468   0.024   3.944   2.192
70075W        W38469  25.469  23.653  13.016
70076W        W38470  38.402   3.687  11.161
70077W        W38471  41.870  36.431   0.749
70078W        W38472   0.985   8.996  13.450
70079W        W38473  31.126   9.131  13.789
70080W        W38474  21.690  28.262   4.927
70081W        W38475   3.968  11.351  10.684
70082W        W38476  42.044  41.273  14.635
70083W        W38477  24.537  21.528  14.845
70084W        W38478   1.718   7.835   0.794
70085W        W38479  34.500  29.747  11.006
70086W        W38480   4.422  29.113   2.285
70087W        W38481   7.466  43.517  12.963
70088W        W38482   7.745  37.175  14.755
70089W        W38483  42.914  37.479  10.354
70090W        W38484  13.856  20.321  12.966
70091W        W38485  24.945   1.993   4.077
70092W        W38486  23.954  22.808  12.565
70093W        W38487  17.672   1.975  12.078
70094W        W38488  42.016  10.937  14.964
70095W        W38489  22.743  22.090   0.405
70096W        W38490  30.067   8.190   2.406
70097W        W38491  21.187  14.728  14.375
70098W        W38492  18.468  22.318   4.084
70099W        W38493  22.528  21.753   4.793
70100W        W38494  15.265   3.276  14.811
70101W        W38495  34.040  13.096  12.879
70102W        W38496  24.178  19.490  12.236
70103W        W38497   3.708  35.167   2.342
70104W        W38498   4.021   6.652   4.632
70105W        W38499  34.356  44.918  14.023
70106W        W38500  24.271   2.763   4.220
70107W        W38501  42.025  40.495   2.901
70108W        W38502   3.190   2.259   2.743
70109W        W38503  10.934  30.581  13.322
70110W        W38504  13.483   5.323  12.977
70111W        W38505  38.141   0.012   3.780
70112W        W38506  21.140  12.789  11.209
70113W        W38507   8.495  38.368  12.473
70114W        W38508  25.000  27.558  14.114
70115W        W38509  16.773  25.119  10.711
70116W        W38510  30.650   9.397  11.180
70117W        W38511  30.999  19.702  11.530
70118W        W38512  39.229  16.195   4.707
70119W        W38513  24.147   2.738  11.491
70120W        W38514  22.184   5.257   4.133
70121W        W38515  26.496  26.467  10.354
70122W        W38516  16.076  17.609  11.984
70123W        W38517  40.331   1.895   1.310
70124W        W38518  21.614   3.075   2.631
70125W        W38519  14.677  44.957  14.844
70126W        W38520  11.760  13.105   3.152
70127W        W38521  43.499  31.952   2.365
70128W        W38522  13.745  33.957   0.749
70129W        W38523  38.090  11.747  13.443
70130W        W38524  44.213   9.849   3.279
70131W        W38525  42.956  30.624  14.961
70132W        W38526  44.250   9.325  12.063
70133W        W38527  31.827   4.211  13.942
70134W        W38528  43.757  40.340  14.014
70135W        W38529   6.186   1.777  11.179
70136W        W38530   2.153  16.728   3.436
70137W        W38531  16.751  12.162  12.414
70138W        W38532  10.794  27.936  12.954
70139W        W38533  25.265   2.828   2.172
70140W        W38534  39.281  33.910  11.516
70141W        W38535  18.531  19.081   0.454
70142W        W38536  42.156  34.450  14.857
70143W        W38537  13.182  34.671  13.638
70144W        W38538  24.600   0.193   3.072
70145W        W38539  30.507   5.818   4.588
70146W        W38540  38.578  35.521   4.643
70147W        W38541  19.100  29.878   0.368
70148W        W38542  38.856   8.221  13.568
70149W        W38543  21.092  25.047  10.666
70150W        W38544   3.828  11.220  13.490
70151W        W38545  18.644  16.889  13.448
70152W        W38546  12.645  19.326  11.952
70153W        W38547  18.808  26.541  13.171
70154W        W38548  43.996  25.971   0.956
70155W        W38549   1.482  11.244   3.084
70156W        W38550  19.748  20.411  14.577
70157W        W38551  30.963   9.238  14.278
70158W        W38552  18.139  20.975  12.616
70159W        W38553  43.391   6.021  13.970
70160W        W38554  41.860   2.654   3.430
70161W        W38555   8.822  15.628  13.833
70162W        W38556   3.984   3.751   1.664
70163W        W38557  35.040  36.021  11.494
70164W        W38558  33.041  21.884   1.211
70165W        W38559  32.542  33.928   1.368
70166W        W38560  33.079  31.904   0.086
70167W        W38561  40.941   5.251  12.095
70168W        W38562  23.011  30.048   1.789
70169W        W38563  20.041  26.484   3.743
70170W        W38564  15.729  34.471   0.878
70171W        W38565  23.887  29.137  12.944
70172W        W38566  41.345  10.939   3.193
70173W        W38567  40.047  11.382  12.831
70174W        W38568  17.638  28.533  11.157
70175W        W38569   4.911  32.874   1.854
70176W        W38570  13.397  31.952  12.040
70177W        W38571   4.906   6.847  12.604
70178W        W38572  31.918  30.113   1.504
70179W        W38573  25.213  29.902  10.459
70180W        W38574  44.459  39.250   3.673
70181W        W38575  28.314   4.773   5.051
70182W        W38576  19.605   4.414  13.481
70183W        W38577  10.644  11.913   0.782
70184W        W38578  13.594   9.915   1.791
70185W        W38579  24.071  27.040  11.410
70186W        W38580  18.692   7.757  13.902
70187W        W38581  30.494  12.571  13.578
70188W        W38582  28.126   2.126   3.351
70189W        W38583  36.152  22.172   4.196
70190W        W38584   4.971  16.163   1.972
70191W        W38585  32.926  20.498   1.791
70192W        W38586  39.334  23.430   0.950
70193W        W38587   8.098  38.129  11.084
70194W        W38588  17.801  12.432  14.800
70195W        W38589  34.322  14.295   3.841
70196W        W38590  14.762  39.405  13.955
70197W        W38591  10.333  38.215  11.275
70198W        W38592  42.993  11.716   3.654
70199W        W38593  43.364  20.112  14.425
70200W        W38594   8.731  38.147   2.107
70201W        W38595  38.424  43.218  10.697
70202W        W38596  18.319  20.968   1.282
70203W        W38597  41.836  14.814   3.644
70204W        W38598  27.296   5.293  12.006
70205W        W38599  22.337  10.735   1.795
70206W        W38600  14.322  43.406   1.194
70207W        W38601  25.131   6.252   3.582
70208W        W38602  31.431  20.058  13.785
70209W        W38603  17.127  40.509   1.264
70210W        W38604  26.115  25.719   3.746
70211W        W38605  26.310  11.734  14.006
70212W        W38606   1.382   3.972   0.013
70213W        W38607  10.304  24.572  12.116
70214W        W38608  32.850  42.011   0.111
70215W        W38609   5.393  25.805  13.806
70216W        W38610   6.575   9.297   3.797
70217W        W38611   0.114  38.798   3.880
70218W        W38612  31.869  16.118   3.310
70219W        W38613  16.800  41.360   3.731
70220W        W38614  21.339  11.841  11.507
70221W        W38615   0.815   9.719  14.559
70222W        W38616   0.268   8.712  14.056
70223W        W38617  36.138  12.175   1.312
70224W        W38618   5.903  10.359  12.330
70225W        W38619  36.084  27.826  12.500
70226W        W38620   4.196   9.226   3.626
70227W        W38621  11.147  13.637  10.660
70228W        W38622   8.753  25.959  13.890
70229W        W38623  26.157   5.787   5.091
70230W        W38624  18.450  18.196   0.625
70231W        W38625  15.481  30.486   9.707
70232W        W38626  17.687   0.536  13.451
70233W        W38627  43.225  14.027   5.146
70234W        W38628  17.180  24.159  12.842
70235W        W38629  28.378  15.699  12.994
70236W        W38630  36.549  32.136   0.090
70237W        W38631  36.924  15.564  11.948
70238W        W38632  24.309  32.465   4.538
70239W        W38633   4.392  14.141  10.727
70240W        W38634  33.529  31.916  14.362
70241W        W38635  14.668  20.594   0.845
70242W        W38636   1.185  41.491  13.299
70243W        W38637  23.712  33.518   0.882
70244W        W38638  29.060  17.340  10.693
70245W        W38639   6.158  32.077  12.818
70246W        W38640   4.909  23.271   2.571
70247W        W38641   2.885  15.603  10.791
70248W        W38642  30.145  21.264   4.562
70249W        W38643  38.446  27.386   2.815
70250W        W38644   0.658  44.494  12.660
70251W        W38645  40.417  24.596   0.333
70252W        W38646  42.264   3.434   1.905
70253W        W38647   2.168  40.326   3.245
70254W        W38648  38.226  20.742  11.133
70255W        W38649  38.091   1.444   4.112
70256W        W38650   6.304  12.330   0.624
70257W        W38651  18.894  13.151  11.967
70258W        W38652  12.585  23.234  10.637
70259W        W38653  14.718  22.220   4.105
70260W        W38654  21.466  24.268  10.254
70261W        W38655  44.310  15.132  11.692
70262W        W38656  44.861  27.924   2.172
70263W        W38657  28.603  36.927   1.718
70264W        W38658  44.940   4.801   1.881
70265W        W38659  14.172  41.460  13.092
70266W        W38660  16.870  26.976   2.902
70267W        W38661  20.994  26.558   1.282
70268W        W38662  21.621   4.265  14.987
70269W        W38663   2.016   2.949   3.703
70270W        W38664  13.432   4.821  12.913
70271W        W38665  14.128  42.962  12.175
70272W        W38666  36.392  38.806  13.882
70273W        W38667  15.815  28.099   3.858
70274W        W38668  17.681  29.168  12.832
70275W        W38669  29.730  10.058  12.567
70276W        W38670  38.514  32.940   1.385
70277W        W38671  40.869  21.568  12.104
70278W        W38672  42.076  18.122  10.571
70279W        W38673  22.599   0.922   2.906
70280W        W38674  37.360  11.330   2.666
70281W        W38675   6.877  15.141   3.294
70282W        W38676  19.957   1.390  13.348
70283W        W38677  24.587   9.254  10.785
70284W        W38678   6.863   1.342   0.321
70285W        W38679  41.817   3.742   4.170
70286W        W38680   8.703   6.675   3.225
70287W        W38681  25.730  18.090   0.437
70288W        W38682  14.529  26.638  13.656
70289W        W38683  39.545  11.654   4.763
70290W        W38684  36.689  33.627   4.499
70291W        W38685   4.860  32.742   0.412
70292W        W38686  25.614  40.280   4.770
70293W        W38687  20.792  44.049   4.636
70294W        W38688  29.483  15.373   3.363
70295W        W38689  26.645  36.670  10.770
70296W        W38690  30.863   5.761  10.782
70297W        W38691  34.881   8.272   0.892
70298W        W38692  19.248  30.026  11.638
70299W        W38693  30.844   0.125  11.081
70300W        W38694  34.351  39.570   4.141
70301W        W38695  15.568  30.929  11.633
70302W        W38696  42.104  39.989  14.776
70303W        W38697  39.120  42.395   2.422
70304W        W38698   7.764  35.938  11.010
70305W        W38699  24.908  18.275  13.587
70306W        W38700  21.352  26.172   0.777
70307W        W38701  32.079  27.297  12.791
70308W        W38702  16.108  30.516   0.161
70309W        W38703  11.141  44.140  12.749
70310W        W38704  28.552  32.804   2.713
70311W        W38705  27.260   1.856  14.727
70312W        W38706  19.205  23.565  10.755
70313W        W38707  22.154  23.197  14.439
70314W        W38708  10.356  21.499   3.391
70315W        W38709  33.624   5.746  10.727
70316W        W38710  13.164  39.328   2.511
70317W        W38711  12.723   4.265  10.051
70318W        W38712  42.061   7.673   3.570
70319W        W38713  15.420  21.025   0.812
70320W        W38714  41.074  22.724   3.994
70321W        W38715  20.664   3.367   3.647
70322W        W38716   2.692   6.542   0.442
70323W        W38717  19.616  11.819  12.951
70324W        W38718   4.397  13.658  14.962
70325W        W38719  13.886  34.827   4.051
70326W        W38720  11.310  12.182  10.812
70327W        W38721  16.545   0.815  13.876
70328W        W38722  25.995  23.130   3.808
70329W        W38723  34.314   2.239  12.904
70330W        W38724  17.198  17.838   3.200
70331W        W38725  38.244  43.312   2.802
70332W        W38726  27.650   6.304   2.423
70333W        W38727  17.735   9.365  11.278
70334W        W38728   9.050  23.947   1.353
70335W        W38729  38.864  30.441   2.589
70336W        W38730  27.187  28.855  12.787
70337W        W38731   4.139  35.981   3.833
70338W        W38732  43.820   2.982  14.757
70339W        W38733  17.765   4.600   4.825
70340W        W38734  21.985  13.586  13.928
70341W        W38735  28.848  14.718   3.652
70342W        W38736  17.358  36.920  11.710
70343W        W38737  43.351   1.569  12.861
70344W        W38738  29.533  23.813  10.664
70345W        W38739  24.040   0.421  12.132
70346W        W38740  37.281  19.110  10.762
70347W        W38741  41.120  19.980   0.584
70348W        W38742  37.114  22.283   3.319
70349W        W38743  14.655  36.559   1.305
70350W        W38744   9.621  40.481   4.748
70351W        W38745  21.168  28.472   0.365
70352W        W38746  39.315  10.273   1.245
70353W        W38747   4.686  40.352   0.305
70354W        W38748  37.411  16.292   4.191
70355W        W38749  31.962  42.049   1.870
70356W        W38750  26.391   8.012   0.861
70357W        W38751   0.498  39.139   1.712
70358W        W38752  38.961  32.438   3.856
70359W        W38753  36.549   2.960  10.835
70360W        W38754  28.082  25.499  13.407
70361W        W38755  12.139  34.613   0.697
70362W        W38756  40.483  21.838  10.704
70363W        W38757  42.320  24.554   4.975
70364W        W38758  39.306  28.669  11.415
70365W        W38759  39.434  40.581   0.222
70366W        W38760  37.369  29.284  14.759
70367W        W38761  12.604  14.900   1.908
70368W        W38762  31.467  10.721   2.265
70369W        W38763  33.479  10.585   4.065
70370W        W38764  31.837  17.780  14.527
70371W        W38765  24.714  10.617  12.931
70372W        W38766   9.153  29.694  12.969
70373W        W38767  32.096  24.261   4.157
70374W        W38768   9.408  31.855  14.769
70375W        W38769   8.860  32.797   2.447
70376W        W38770   7.659  37.688  13.937
70377W        W38771  19.796  20.448  10.991
70378W        W38772  23.369  15.108  13.504
70379W        W38773  40.236  28.518   2.216
70380W        W38774  39.841  18.267   4.763
70381W        W38775   7.989   0.459  10.731
70382W        W38776   1.940  27.399  13.678
70383W        W38777  14.845  20.927  10.906
70384W        W38778  30.262  36.987   2.621
70385W        W38779  20.220  29.578   3.796
70386W        W38780  40.895  44.031  14.256
70387W        W38781  32.567  36.568   2.837
70388W        W38782  38.766  25.041   1.833
70389W        W38783  14.587  24.736  13.621
70390W        W38784  43.561  19.760   3.741
70391W        W38785   0.276  34.115   2.599
70392W        W38786  10.279  12.786   1.261
70393W        W38787  10.637  31.702  13.537
70394W        W38788  25.819   9.167  14.344
70395W        W38789   4.609  42.545  14.495
70396W        W38790  15.127   4.045  13.457
70397W        W38791   1.401  26.088   3.617
70398W        W38792  43.539  34.238   3.197
70399W        W38793  26.109  29.980  12.460
70400W        W38794  12.572   0.481  11.265
70401W        W38795  25.579  25.357   1.580
70402W        W38796  10.278  28.606  13.974
70403W        W38797  19.977   7.847  14.314
70404W        W38798   9.687   9.921  14.017
70405W        W38799  26.433  36.046   2.131
70406W        W38800  19.836  40.721   3.431
70407W        W38801  12.808   6.182   4.613
70408W        W38802  37.060  30.056   3.356
70409W        W38803  21.205  35.953  12.090
70410W        W38804   1.023  27.968   0.752
70411W        W38805  19.903  31.969   1.511
70412W        W38806  43.889  13.664  10.636
70413W        W38807  24.733  34.628   0.353
70414W        W38808  32.337  38.740   3.729
70415W        W38809  31.845  12.413   0.721
70416W        W38810  20.826  24.717   2.749
70417W        W38811   5.953  29.919  11.840
70418W        W38812  10.580  26.701  14.424
70419W        W38813  44.922   8.624   0.221
70420W        W38814  18.762   4.799  14.203
70421W        W38815  34.915  42.804   3.605
70422W        W38816   4.283  30.845  11.326
70423W        W38817  33.381  17.816  13.593
70424W        W38818   3.207   8.260  14.151
70425W        W38819  42.124  31.734   9.971
70426W        W38820  33.412  32.176   0.384
70427W        W38821   8.799  18.214  14.855
70428W        W38822  13.183  10.876   2.123
70429W        W38823   2.786   0.006   4.109
70430W        W38824  38.770   1.642  10.343
70431W        W38825  19.915  14.401  13.574
70432W        W38826   6.714  29.490  11.762
70433W        W38827  34.260  10.306   0.360
70434W        W38828  42.385   7.071  11.579
70435W        W38829  41.510  40.530   4.567
70436W        W38830  22.735  44.022   4.556
70437W        W38831  40.828  37.526  11.136
70438W        W38832   8.846  20.005  13.027
70439W        W38833  24.823  41.781  14.489
70440W        W38834  26.000  17.680  10.622
70441W        W38835   6.267   2.996  13.061
70442W        W38836  18.312  29.500  14.867
70443W        W38837  10.423  15.808   0.878
70444W        W38838  14.335  26.153   0.232
70445W        W38839  10.853  29.505  11.677
70446W        W38840   3.855   7.859   3.351
70447W        W38841  43.427  14.905   0.167
70448W        W38842  27.973   2.052  12.965
70449W        W38843  15.753   4.977   3.613
70450W        W38844  25.633  36.994   4.018
70451W        W38845  18.843   1.777   1.822
70452W        W38846   7.654  33.505  11.116
70453W        W38847   6.735  11.289   3.751
70454W        W38848  28.929   2.734  11.031
70455W        W38849  27.586  12.770   3.281
70456W        W38850  26.156  20.353   0.816
70457W        W38851  13.010  27.070   0.267
70458W        W38852   1.070  14.568   2.243
70459W        W38853  19.987  10.861   2.361
70460W        W38854  39.373  10.550   3.786
70461W        W38855  29.930  35.898   0.937
70462W        W38856   3.044  26.330   4.111
70463W        W38857  11.434  44.266  14.670
70464W        W38858   4.184  13.017   1.243
70465W        W38859  29.970  44.910   1.787
70466W        W38860  36.982  43.578   0.398
70467W        W38861  24.192  44.780   0.371
70468W        W38862  24.073   0.294  14.425
70469W        W38863  37.924  10.664   2.644
70470W        W38864   5.312   6.317  11.472
70471W        W38865  25.964   6.405  12.838
70472W        W38866  39.731   2.396  12.532
70473W        W38867  18.160  16.451   5.392
70474W        W38868  15.266  41.838   0.319
70475W        W38869  16.182  44.223  12.430
70476W        W38870  14.293  20.323   4.672
70477W        W38871  40.614  30.799  14.026
70478W        W38872  22.766  24.077   3.774
70479W        W38873  35.573  39.431   1.222
70480W        W38874  31.543  34.498   3.752
70481W        W38875   7.561  40.222  11.453
70482W        W38876  28.394   6.633  10.420
70483W        W38877  39.377   6.356   4.124
70484W        W38878  25.799   9.744  13.004
70485W        W38879   2.441   6.753  13.375
70486W        W38880  31.309  43.395   4.069
70487W        W38881  14.709  37.055  12.778
70488W        W38882  35.836   9.018  13.426
70489W        W38883  20.602  10.259  11.294
70490W        W38884  10.350  36.817   2.718
70491W        W38885  21.452  19.160   1.709
70492W        W38886  43.513  25.963   3.283
70493W        W38887  28.557   4.740   2.414
70494W        W38888  22.308  26.500   1.620
70495W        W38889  18.327  40.939   5.071
70496W        W38890  12.195  25.640   2.620
70497W        W38891  34.185  33.368   4.701
70498W        W38892  11.797  18.129  14.396
70499W        W38893   9.261  39.232   0.558
70500W        W38894   5.718  15.987   4.690
70501W        W38895  25.539  28.054  12.680
70502W        W38896  40.290  42.920   0.276
70503W        W38897  37.298   5.084  12.345
70504W        W38898  25.099  27.625  10.824
70505W        W38899  24.514   5.899   2.424
70506W        W38900   7.409  28.997   0.307
70507W        W38901   5.870  10.799  14.805
70508W        W38902   8.554  26.240  14.292
70509W        W38903  20.265  24.658   4.580
70510W        W38904  36.469  39.374  14.852
70511W        W38905  36.983  14.635  11.931
70512W        W38906  34.015  40.932  12.086
70513W        W38907  38.604   1.417   1.793
70514W        W38908  43.080  23.520  13.823
70515W        W38909  41.442  25.633  14.308
70516W        W38910  31.444   0.285  12.456
70517W        W38911   8.055  23.199  12.070
70518W        W38912  11.479  12.903   4.124
70519W        W38913  39.123   2.387   0.466
70520W        W38914  35.755  32.166   0.490
70521W        W38915  29.670  42.020   0.693
70522W        W38916   7.341  33.675  13.994
70523W        W38917   6.953  35.007  12.499
70524W        W38918  44.743  24.533  11.886
70525W        W38919  13.832   8.895   3.664
70526W        W38920  43.958  26.320  11.044
70527W        W38921  34.633  37.131  13.933
70528W        W38922   9.578  21.023  10.211
70529W        W38923  18.329   7.198   1.011
70530W        W38924   0.921   1.030   2.452
70531W        W38925  42.558  18.902  14.421
70532W        W38926  17.071  11.348   4.276
70533W        W38927  20.983  13.296  12.001
70534W        W38928   0.758  41.632   4.723
70535W        W38929  35.934  26.179   0.205
70536W        W38930   1.501  17.737   2.155
70537W        W38931   2.722  11.806   4.322
70538W        W38932   8.889  44.554  14.413
70539W        W38933   8.940  21.305   2.340
70540W        W38934  39.724  22.151   3.612
70541W        W38935  15.589  30.531   2.651
70542W        W38936   3.182  14.374  12.069
70543W        W38937  42.441   4.774   5.268
70544W        W38938  44.314  19.806  12.193
70545W        W38939   2.924   5.496  12.081
70546W        W38940  43.987  11.447  12.996
70547W        W38941   4.984  40.057  11.110
70548W        W38942  10.735  16.655  11.706
70549W        W38943   6.985  37.850  13.882
70550W        W38944   6.862   1.713   1.287
70551W        W38945  31.895  36.219  14.563
70552W        W38946  24.866  29.149  13.974
70553W        W38947  16.809  34.762  10.693
70554W        W38948  17.909  24.152  13.355
70555W        W38949  27.081  32.429   3.262
70556W        W38950  13.066  14.747  14.208
70557W        W38951  42.021  37.991  12.302
70558W        W38952   7.877  30.016  13.038
70559W        W38953  20.140  34.403   0.547
70560W        W38954   8.233   7.862   2.189
70561W        W38955  21.189  37.503   4.554
70562W        W38956  15.293  29.499   1.280
70563W        W38957  14.451   2.389  13.377
70564W        W38958  36.528  20.459   1.680
70565W        W38959  28.484  44.229  12.895
70566W        W38960  44.349   8.075  14.774
70567W        W38961  20.177  27.507   2.158
70568W        W38962  26.631  29.337   2.741
70569W        W38963  20.661  12.459   3.397
70570W        W38964  38.474   6.163   0.483
70571W        W38965  25.582  34.785  12.327
70572W        W38966  13.023  21.189  12.431
70573W        W38967  43.669  20.842   2.222
70574W        W38968  31.052  27.642   1.334
70575W        W38969  19.964  14.453  11.624
70576W        W38970  44.352   2.752  13.018
70577W        W38971  26.543  15.231   3.263
70578W        W38972  35.462  15.597  14.443
70579W        W38973  34.043  38.841   0.107
70580W        W38974   5.758  29.668   1.836
70581W        W38975  20.546  44.001   0.240
70582W        W38976  26.701  26.634   1.446
70583W        W38977   0.866  33.535  11.924
70584W        W38978  10.436  28.477   2.377
70585W        W38979  22.248  21.014  14.754
70586W        W38980  20.564  11.326   2.742
70587W        W38981  36.312   8.377  13.476
70588W        W38982  22.931  13.649  14.314
70589W        W38983   4.607  28.665   3.792
70590W        W38984   4.467   0.697  12.574
70591W        W38985  10.079  40.410  12.491
70592W        W38986  14.030  41.403   0.019
70593W        W38987  27.577  30.936   2.671
70594W        W38988  11.152  11.262  13.387
70595W        W38989  16.278  39.284   2.431
70596W        W38990  15.781  24.981  13.796
70597W        W38991  44.417  31.453  10.798
70598W        W38992   2.928  38.069   3.649
70599W        W38993  25.493  41.764   4.378
70600W        W38994  23.530  19.748   3.747
70601W        W38995   6.348   5.426   5.083
70602W        W38996  27.605   8.872   0.785
70603W        W38997  41.833  36.960   2.625
70604W        W38998  13.219   5.438  10.126
70605W        W38999  10.908   6.428   3.342
70606W        W39000  26.963  16.809   2.788
70607W        W39001  19.875  37.904   0.494
70608W        W39002   1.415  38.062  14.724
70609W        W39003  38.925  19.188  12.476
70610W        W39004  27.428  16.185  14.080
70611W        W39005  23.212   4.382   3.533
70612W        W39006  39.265  41.062  11.620
70613W        W39007   6.754  32.721   3.649
70614W        W39008  11.242  31.832   0.415
70615W        W39009  11.099  38.005  10.596
70616W        W39010  30.737   6.471  11.533
70617W        W39011  16.194  18.289   0.429
70618W        W39012   3.326  33.673   0.741
70619W        W39013  19.502  29.210   2.338
70620W        W39014  33.599  27.734  14.333
70621W        W39015  43.608   0.888   3.166
70622W        W39016  31.231  22.331  12.705
70623W        W39017  38.563   5.845  13.896
70624W        W39018  13.612   0.811  13.844
70625W        W39019  31.752  38.693  14.528
70626W        W39020  43.436  41.422  12.078
70627W        W39021  20.134  20.802  11.147
70628W        W39022  10.647  27.962  14.815
70629W        W39023   6.185  29.629  14.815
70630W        W39024  36.530   2.797  12.371
70631W        W39025   2.133  23.703  13.119
70632W        W39026  30.351  18.560   2.578
70633W        W39027  41.756  10.625  10.472
70634W        W39028  44.523  38.679  13.780
70635W        W39029   1.289  41.596   4.712
70636W        W39030  23.503   1.689  12.731
70637W        W39031  25.006  28.426  13.544
70638W        W39032  38.344  19.294   0.630
70639W        W39033   4.461  19.696  13.621
70640W        W39034  25.639  44.955  14.524
70641W        W39035  14.393  34.352  14.036
70642W        W39036  11.191  10.738   1.221
70643W        W39037  30.638  34.014   1.914
70644W        W39038  33.951  21.783  12.924
70645W        W39039  27.109   6.278  12.177
70646W        W39040  44.131   3.432  14.866
70647W        W39041  23.594  43.591  10.738
70648W        W39042  31.409   9.448  13.512
70649W        W39043  42.819  38.319  11.578
70650W        W39044  13.950  19.276  11.226
70651W        W39045  22.074  27.252   0.819
70652W        W39046  42.287  40.181  11.260
70653W        W39047  16.895  37.006  13.365
70654W        W39048  34.665  24.672   1.574
70655W        W39049  25.849  14.045  10.773
70656W        W39050  39.077   5.176   1.752
70657W        W39051  42.362  35.984   9.775
70658W        W39052  20.736  22.230   3.887
70659W        W39053  32.709  33.967  13.918
70660W        W39054  24.927   7.549   0.539
70661W        W39055   5.330  32.991   3.843
70662W        W39056  33.830  44.350   4.389
70663W        W39057  12.323   3.955  12.001
70664W        W39058  42.779  37.155   2.698
70665W        W39059  24.727  31.405   4.301
70666W        W39060  28.912  37.408   0.952
70667W        W39061  15.963  43.338  11.862
70668W        W39062  22.613  35.526  13.825
70669W        W39063  36.275  41.413   1.304
70670W        W39064   9.204  32.493   1.786
70671W        W39065  24.549  14.032  11.168
70672W        W39066   4.674  12.816   0.920
70673W        W39067  32.401  37.989   3.173
70674W        W39068   9.613   2.650   2.636
70675W        W39069  23.154  34.964  10.634
70676W        W39070  31.537  23.583   3.677
70677W        W39071  18.329  42.461   1.831
70678W        W39072   9.390  42.828   4.084
70679W        W39073  31.177  10.207  12.917
70680W        W39074  31.206  31.644   0.406
70681W        W39075  42.928  16.159   0.910
70682W        W39076  15.143   8.407   0.336
70683W        W39077  37.735  26.169  11.219
70684W        W39078  31.440   7.671   2.361
70685W        W39079  31.661  13.203   2.333
70686W        W39080  12.120  26.053  13.144
70687W        W39081  15.150  41.716   1.337
70688W        W39082  30.824   5.339   0.385
70689W        W39083  13.802  37.636  10.001
70690W        W39084  14.574  11.629  13.247
70691W        W39085   1.908  41.398   1.461
70692W        W39086  28.541  15.285   1.284
70693W        W39087   4.416  43.095  14.800
70694W        W39088  29.240  19.057  12.413
70695W        W39089   3.255  27.227   4.970
70696W        W39090   8.660  11.066  13.177
70697W        W39091  41.119  34.525  10.576
70698W        W39092  33.913  18.334   0.365
70699W        W39093  14.901  17.348   4.073
70700W        W39094  26.131  37.514  11.982
70701W        W39095  40.879  22.938   3.152
70702W        W39096  32.332   4.753   3.682
70703W        W39097  20.670  11.162   3.812
70704W        W39098  41.874  35.346  11.641
70705W        W39099  33.001   4.125   4.129
70706W        W39100  24.424  28.792  13.900
70707W        W39101  17.601   2.684  10.730
70708W        W39102  25.467  31.964  12.623
70709W        W39103   4.000   7.953   1.221
70710W        W39104  41.965   3.038  11.651
70711W        W39105   0.131  26.701  14.388
70712W        W39106  37.539  42.108  11.998
70713W        W39107   6.753  37.350   0.772
70714W        W39108   2.279  19.311   0.247
70715W        W39109   3.378   9.541  11.002
70716W        W39110  23.785  16.222  13.548
70717W        W39111  28.999   8.164   0.976
70718W        W39112  14.691  13.653   1.037
70719W        W39113  38.803  38.457  10.685
70720W        W39114   5.055  33.967   0.706
70721W        W39115  44.959  41.409  13.025
70722W        W39116   5.886  23.105   4.720
70723W        W39117  16.415  41.437  12.082
70724W        W39118   6.139  39.021   2.288
70725W        W39119  25.994  24.527   1.901
70726W        W39120  20.182  44.778  11.668
70727W        W39121   3.032  33.139  12.998
70728W        W39122   8.373   3.522  11.960
70729W        W39123  17.762   4.983  13.353
70730W        W39124  22.399   2.155   1.672
70731W        W39125  29.756   8.687  12.386
70732W        W39126  13.584  15.211   0.756
70733W        W39127  33.915  26.412   0.911
70734W        W39128  10.469   6.773  14.111
70735W        W39129  33.857  24.588  14.509
70736W        W39130  14.466  39.559   2.713
70737W        W39131  21.467   1.834  12.401
70738W        W39132   4.876  40.283   2.717
70739W        W39133  30.544   4.741   3.584
70740W        W39134  18.207   1.803  14.298
70741W        W39135  28.352  41.813   0.227
70742W        W39136   3.562  15.092  14.686
70743W        W39137   3.372  15.807  10.728
70744W        W39138  26.594  33.982  13.884
70745W        W39139  15.841  12.599   0.995
70746W        W39140  27.296   1.374   1.583
70747W        W39141   3.677  24.545  14.405
70748W        W39142  35.323  14.571   3.331
70749W        W39143  12.330   2.249   0.085
70750W        W39144  18.963  11.240   4.256
70751W        W39145   7.441  10.272   4.577
70752W        W39146  41.011  25.158  12.100
70753W        W39147  35.088  24.391   3.677
70754W        W39148  22.975  34.904  14.343
70755W        W39149  15.725  11.037  13.302
70756W        W39150  16.598  28.474   0.852
70757W        W39151  30.701  14.770   0.165
70758W        W39152  36.313  27.435  10.770
70759W        W39153  24.959  15.384  11.626
70760W        W39154  30.665   9.850  13.411
70761W        W39155  11.647   7.848  11.546
70762W        W39156  39.908  34.685   0.274
70763W        W39157  27.940   8.246   0.891
70764W        W39158  28.015  33.336   5.011
70765W        W39159  19.673  17.940   0.873
70766W        W39160  42.310  20.516   4.071
70767W        W39161  40.050  24.319  12.481
70768W        W39162  13.446  21.312   4.955
70769W        W39163   7.919  16.644  10.799
70770W        W39164  15.305  35.357   3.669
70771W        W39165  31.562  21.613   2.640
70772W        W39166   4.198  11.683   2.169
70773W        W39167   2.262   3.648  13.534
70774W        W39168  31.059  38.729  12.260
70775W        W39169  43.962   6.339   1.368
70776W        W39170  26.079  32.119   1.489
70777W        W39171   2.451  16.324  11.127
70778W        W39172  22.466   1.327   1.299
70779W        W39173  15.643  19.514  14.637
70780W        W39174  12.139   2.198   4.528
70781W        W39175  42.026  15.056   1.404
70782W        W39176  35.529  17.083   1.466
70783W        W39177  35.497   4.908  12.297
70784W        W39178   6.446  30.618   0.253
70785W        W39179  40.921  16.077  15.000
70786W        W39180  10.319  23.599   3.557
70787W        W39181  37.306  10.079   2.181
70788W        W39182  18.827   4.464  12.126
70789W        W39183  38.804  19.273  12.997
70790W        W39184   9.606  15.642   3.420
70791W        W39185  33.012  13.642   3.743
70792W        W39186  31.199  14.073   1.788
70793W        W39187  30.069  25.044   4.897
70794W        W39188  39.347  18.232   4.663
70795W        W39189  19.241  37.067  11.023
70796W        W39190  35.986  17.739  13.388
70797W        W39191  21.156  17.343   2.792
70798W        W39192   0.964  13.312  11.930
70799W        W39193  13.899  14.782   2.535
70800W        W39194  28.027  43.607  12.407
70801W        W39195  37.012   2.419  12.395
70802W        W39196  36.931  19.114  14.922
70803W        W39197  26.947   7.852  13.317
70804W        W39198  27.197  35.853  11.957
70805W        W39199   9.945  40.677  14.469
70806W        W39200  33.016  32.691  11.973
70807W        W39201  18.685  40.402   2.813
70808W        W39202   6.914  26.426  12.081
70809W        W39203  17.746  34.038   2.681
70810W        W39204   3.382  36.911   4.137
70811W        W39205  21.192  19.812  11.132
70812W        W39206  36.421   4.735  12.339
70813W        W39207  15.995  40.365   0.096
70814W        W39208   4.036  17.850  14.309
70815W        W39209  35.600  43.946   0.575
70816W        W39210  37.390   4.911  14.909
70817W        W39211  31.569  37.480  13.987
70818W        W39212  36.397  27.915   0.771
70819W        W39213  36.916  28.073  14.356
70820W        W39214  13.837  40.102   4.330
70821W        W39215  10.580  41.426  13.445
70822W        W39216  19.064  31.505   3.326
70823W        W39217  11.934  27.643  12.182
70824W        W39218  26.173  28.040   2.503
70825W        W39219  29.132   9.329  12.025
70826W        W39220   2.287  36.935   0.831
70827W        W39221  30.945  21.623  12.616
70828W        W39222  41.760   2.474  12.456
70829W        W39223  38.046  43.856  11.833
70830W        W39224  36.920  42.085   3.866
70831W        W39225   6.134  32.305  13.446
70832W        W39226  23.416  18.338  13.224
70833W        W39227  17.745   4.808   1.419
70834W        W39228   5.503   4.300  13.533
70835W        W39229  21.006  43.311  12.530
70836W        W39230  30.121  13.406   1.429
70837W        W39231   9.848  27.809  14.419
70838W        W39232  36.532   2.209   4.552
70839W        W39233  33.242  36.287  13.982
70840W        W39234  26.279  44.871  12.241
70841W        W39235   5.354  43.271   4.610
70842W        W39236   9.153  30.049  14.527
70843W        W39237   6.827  32.283  13.071
70844W        W39238   2.873  40.251   2.277
70845W        W39239   7.387  34.443   0.794
70846W        W39240   5.714  31.929  12.592
70847W        W39241  40.551  13.721  14.433
70848W        W39242  22.630  29.958   0.447
70849W        W39243  16.552  12.849  11.673
70850W        W39244   6.361  33.514  12.104
70851W        W39245   5.876   1.543   2.662
70852W        W39246  42.227   9.790  10.630
70853W        W39247  29.423  12.291   2.299
70854W        W39248  37.419  35.574  13.173
70855W        W39249  42.038  15.370  14.674
70856W        W39250   4.286   4.539   2.188
70857W        W39251  33.068  18.148   0.363
70858W        W39252  11.123  17.505  13.412
70859W        W39253   5.195  12.374  13.028
70860W        W39254  38.477  18.197   2.583
70861W        W39255  22.061  26.164  12.610
70862W        W39256  43.520  44.410   0.333
70863W        W39257   1.286   7.431   2.031
70864W        W39258  32.431  44.395   4.487
70865W        W39259  44.137  17.166  14.842
70866W        W39260  21.960   8.387   0.417
70867W        W39261  15.072  28.703  11.745
70868W        W39262  36.406   1.790  13.481
70869W        W39263  36.878   4.403   2.891
70870W        W39264  28.182  27.563   3.739
70871W        W39265   7.132  26.236  11.649
70872W        W39266  38.614  12.739  12.525
70873W        W39267  22.669  24.961   3.751
70874W        W39268   1.661  35.141   3.800
70875W        W39269  29.606   1.392  10.541
70876W        W39270  13.591  24.080   3.525
70877W        W39271   5.185  11.406   4.482
70878W        W39272  26.125  44.473   2.317
70879W        W39273  26.618  24.081  14.055
70880W        W39274  32.423  19.594   4.118
70881W        W39275  21.530  43.228  12.463
70882W        W39276   0.814  27.165  13.471
70883W        W39277  20.287  40.293  11.222
70884W        W39278  25.689   7.153   4.573
70885W        W39279  39.301  25.049   4.904
70886W        W39280   9.894  42.993   4.191
70887W        W39281  22.372  35.159   1.815
70888W        W39282   2.309  42.442   2.159
70889W        W39283   1.318  42.755   4.097
70890W        W39284   7.800  40.557  13.796
70891W        W39285  18.093  39.477   3.670
70892W        W39286  23.350  38.002  12.811
70893W        W39287   4.708  36.034  12.038
70894W        W39288  31.990  32.572   2.280
70895W        W39289  27.475  33.303   3.368
70896W        W39290  25.100  18.109   4.526
70897W        W39291   2.398  21.570   4.570
70898W        W39292  38.557  16.166  10.385
70899W        W39293  13.147  42.130  11.103
70900W        W39294  17.290  13.071  14.989
70901W        W39295  18.915  29.521   4.989
70902W        W39296  42.523  20.033   4.273
70903W        W39297  18.866  40.591   3.261
70904W        W39298  32.433  38.749  12.051
70905W        W39299  36.421  21.199   4.278
70906W        W39300   6.644  41.581  10.947
70907W        W39301  39.796   0.401  10.652
70908W        W39302  35.123  44.768   1.371
70909W        W39303  29.623  32.363   3.812
70910W        W39304  41.785  31.575   4.702
70911W        W39305  19.248  35.902   4.568
70912W        W39306  17.606   8.659   4.125
70913W        W39307  42.691   0.894  12.789
70914W        W39308  34.387  14.594  14.393
70915W        W39309  33.932  25.519  11.046
70916W        W39310  40.297  32.998   0.877
70917W        W39311   1.142  44.897   4.955
70918W        W39312  22.113   9.741  13.247
70919W        W39313  41.601  23.674  11.087
70920W        W39314  26.850   0.505   5.458
70921W        W39315   2.489   5.842  13.127
70922W        W39316   7.153  24.916  14.318
70923W        W39317  44.835  43.376   0.530
70924W        W39318  40.308   0.427   0.447
70925W        W39319  42.073  28.343  11.991
70926W        W39320  13.427  24.969   1.887
70927W        W39321  10.708  17.081   1.757
70928W        W39322  16.763  40.420   2.092
70929W        W39323  38.877  27.609   4.220
70930W        W39324  21.525   6.770   4.916
70931W        W39325  28.403  22.320   2.244
70932W        W39326  30.531  39.370  13.491
70933W        W39327  13.995   2.372   3.276
70934W        W39328  21.194  37.813  10.179
70935W        W39329   4.201   8.330  14.522
70936W        W39330  29.587  17.384  13.320
70937W        W39331  18.006  15.292   2.499
70938W        W39332  34.522  18.952   3.139
70939W        W39333   7.738  33.523   2.450
70940W        W39334  37.771  29.616  13.462
70941W        W39335   8.729  14.630  11.165
70942W        W39336   4.773   6.110  12.994
70943W        W39337  22.128  17.661   4.886
70944W        W39338  36.406  36.182  12.591
70945W        W39339  33.124  44.771   4.163
70946W        W39340  39.497  18.056  12.515
70947W        W39341  34.829  10.746  10.466
70948W        W39342  29.568   6.788  13.794
70949W        W39343  38.219   6.052   9.998
70950W        W39344   3.686  32.483  10.666
70951W        W39345  40.290   6.170  12.565
70952W        W39346  39.322   9.038   2.580
70953W        W39347  42.880  15.374  14.793
70954W        W39348  39.825  40.601   1.474
70955W        W39349  27.978  14.283  13.873
70956W        W39350  41.375  10.743   4.625
70957W        W39351  32.982  42.837   1.448
70958W        W39352  21.497  34.112  11.462
70959W        W39353  13.259  39.603  11.094
70960W        W39354  41.511  19.399   3.450
70961W        W39355  43.084  35.508   4.058
70962W        W39356  36.444  12.368   2.413
70963W        W39357   7.021   2.140  13.454
70964W        W39358  10.701  16.476  12.577
70965W        W39359   4.992  40.298  13.420
70966W        W39360  23.286   3.246   1.413
70967W        W39361  40.851  30.498  12.527
70968W        W39362  40.850  32.028   0.283
70969W        W39363  43.920  27.689   3.082
70970W        W39364   3.515  30.399  11.272
70971W        W39365  20.898  19.139  13.815
70972W        W39366  36.053  36.096   1.177
70973W        W39367  10.628  41.510  14.323
70974W        W39368  38.125   0.224   4.263
70975W        W39369   7.034  27.596   5.262
70976W        W39370  18.609  32.398  13.347
70977W        W39371  21.550   7.870  12.122
70978W        W39372  19.515  18.179   2.872
70979W        W39373  35.831  42.092   1.782
70980W        W39374   4.156  13.860  14.547
70981W        W39375  16.726  44.452  10.427
70982W        W39376  26.525  24.562   3.138
70983W        W39377  32.626  12.676   2.702
70984W        W39378  23.635  16.239  12.006
70985W        W39379   5.964  13.112   0.722
70986W        W39380  41.445  35.535   1.894
70987W        W39381  15.303   9.242   3.155
70988W        W39382  17.852  29.252   0.577
70989W        W39383  29.474  18.877  10.747
70990W        W39384  30.898  27.215   1.048
70991W        W39385  43.838  27.160   4.602
70992W        W39386  19.493   5.460   4.334
70993W        W39387  41.132  32.298   1.728
70994W        W39388  42.919   6.653   1.678
70995W        W39389  12.967  18.279   0.319
70996W        W39390   1.684  30.180   2.636
70997W        W39391  14.220  38.549  11.129
70998W        W39392  34.461   6.895  14.281
70999W        W39393  24.465  37.089  10.740
71000W        W39394   6.413   2.821   1.178
71001W        W39395  18.908   9.272   4.661
71002W        W39396  42.958  37.557  14.534
71003W        W39397  18.144  12.262  11.009
71004W        W39398  17.490  19.753  14.420
71005W        W39399  16.622   5.638   2.936
71006W        W39400  17.373  16.885   1.235
71007W        W39401  10.387  41.970  13.474
71008W        W39402  14.188   8.617  10.878
71009W        W39403  39.882  42.555  13.966
71010W        W39404  21.957  44.877  12.831
71011W        W39405  39.792  18.179  14.387
71012W        W39406   9.574  26.940  14.356
71013W        W39407  43.763  37.913   0.008
71014W        W39408  19.702  38.929   1.793
71015W        W39409  30.257  27.421   2.806
71016W        W39410  18.587   0.563   1.379
71017W        W39411  11.810  41.570   1.232
71018W        W39412  33.142  32.490  10.693
71019W        W39413  12.239  32.049  11.675
71020W        W39414  34.803  35.080   3.322
71021W        W39415  20.244  23.338   0.936
71022W        W39416  24.462  20.761  12.390
71023W        W39417  24.240  18.666  14.980
71024W        W39418   9.234  36.449  12.929
71025W        W39419  40.422  43.817  14.360
71026W        W39420  28.720  12.820   0.314
71027W        W39421  14.841  31.338  12.538
71028W        W39422   7.488  13.120  11.549
71029W        W39423  15.783  32.699   0.046
71030W        W39424  11.873  22.458  14.377
71031W        W39425  18.215  28.687   0.458
71032W        W39426  10.164  37.883   1.813
71033W        W39427  15.244   1.807   0.312
71034W        W39428  29.031  16.755   1.817
71035W        W39429  27.138  31.047   4.452
71036W        W39430  43.157   4.269  12.978
71037W        W39431  28.996   5.375  11.652
71038W        W39432  42.757  32.314  11.561
71039W        W39433  11.215  17.168  13.790
71040W        W39434  38.088  25.940  11.565
71041W        W39435  37.545  22.754  11.241
71042W        W39436  33.085  17.160   0.191
71043W        W39437   0.032  41.449  13.932
71044W        W39438  36.518   6.755   2.760
71045W        W39439  16.337  42.837   1.921
71046W        W39440  33.953   3.409   1.189
71047W        W39441  39.398  11.756   0.491
71048W        W39442   3.727  20.221   1.816
71049W        W39443   1.317  38.419   4.342
71050W        W39444  31.393  26.449  11.979
71051W        W39445   9.250   5.268  12.810
71052W        W39446  19.222  42.427  11.105
71053W        W39447  13.225  26.592   0.257
71054W        W39448  21.524  26.503   3.558
71055W        W39449  33.996   0.830   4.101
71056W        W39450  17.620  27.224  13.852
71057W        W39451  15.823  39.595  12.487
71058W        W39452  35.330   2.291  13.048
71059W        W39453  32.676  31.393  12.147
71060W        W39454  14.377   4.888   5.335
71061W        W39455   7.302  42.408   1.866
71062W        W39456  19.961  33.052   4.759
71063W        W39457   5.233  20.258   2.162
71064W        W39458   2.860  19.046   3.661
71065W        W39459  12.452  11.348  11.202
71066W        W39460  29.510  15.772   0.633
71067W        W39461  44.103  44.412   4.418
71068W        W39462  31.851  36.414   0.413
71069W        W39463  44.017  22.792   2.907
71070W        W39464  18.852  34.450   2.982
71071W        W39465  12.685  10.620  13.546
71072W        W39466  29.008  24.439  10.705
71073W        W39467  38.051   3.711   4.546
71074W        W39468  30.056  23.214   1.902
71075W        W39469   5.043  18.745   2.319
71076W        W39470  19.092  15.253  14.016
71077W        W39471  26.722  13.130   3.155
71078W        W39472  25.003  40.060  10.704
71079W        W39473  11.827   0.937  11.103
71080W        W39474  44.492  41.475  13.955
71081W        W39475  14.137  43.883  14.793
71082W        W39476  13.692  20.560   2.245
71083W        W39477  18.764  20.735   4.153
71084W        W39478  42.772  11.802   3.178
71085W        W39479   6.913   5.589   3.287
71086W        W39480  39.010  42.117  12.103
71087W        W39481  17.936   5.159   9.737
71088W        W39482   5.177  12.673  12.465
71089W        W39483  32.595   7.338   2.494
71090W        W39484  33.927  13.414  12.451
71091W        W39485  33.810   1.826  10.814
71092W        W39486   7.655   5.045   3.505
71093W        W39487  27.939  40.567  11.132
71094W        W39488   6.783  11.279   1.293
71095W        W39489  40.858  38.461   4.151
71096W        W39490  44.388  17.807  13.342
71097W        W39491  43.423  11.568  14.041
71098W        W39492  22.865  26.965   2.615
71099W        W39493   6.954  36.242  11.645
71100W        W39494   2.832  25.257  14.379
71101W        W39495  20.153  14.593  12.090
71102W        W39496   1.271  12.333  12.534
71103W        W39497  16.245  34.527   1.954
71104W        W39498  22.520  14.618   1.711
71105W        W39499  20.054   2.957   1.335
71106W        W39500  14.523  37.512   0.427
71107W        W39501  26.789  15.131   2.661
71108W        W39502   3.843  17.188  11.483
71109W        W39503  32.197  34.572   0.768
71110W        W39504  38.945   7.190   4.732
71111W        W39505   7.938  15.673  11.516
71112W        W39506  29.396  19.617  13.125
71113W        W39507  36.631  40.857  10.598
71114W        W39508  10.956  21.210   2.638
71115W        W39509  40.510  10.814   2.687
71116W        W39510   0.449  23.313   0.734
71117W        W39511  32.717  24.107   0.773
71118W        W39512   3.737  30.098  10.572
71119W        W39513  40.089  25.702  11.130
71120W        W39514  39.151  33.041  14.000
71121W        W39515  20.072  26.723  12.724
71122W        W39516  21.547  35.659  12.954
71123W        W39517  10.162  41.812   1.970
71124W        W39518  44.318  28.880   1.718
71125W        W39519  28.611  20.679  10.819
71126W        W39520  34.111  28.856   0.561
71127W        W39521  13.888  26.400  11.971
71128W        W39522  22.619  37.299   1.321
71129W        W39523  17.547  37.546   3.205
71130W        W39524  30.529  19.245   2.922
71131W        W39525  24.982   8.908   4.065
71132W        W39526  13.110   9.363  11.909
71133W        W39527   7.928  42.938  13.556
71134W        W39528   4.786  28.931  10.891
71135W        W39529  36.470  17.133   4.124
71136W        W39530  18.059  25.071   1.776
71137W        W39531   1.435  40.881   0.431
71138W        W39532   6.689   5.433  14.743
71139W        W39533  43.428   2.586   3.780
71140W        W39534  30.218  14.659   1.151
71141W        W39535  21.113  43.378  13.418
71142W        W39536  29.382  13.982   0.016
71143W        W39537  28.603  25.002  11.248
71144W        W39538  42.768   9.657  11.474
71145W        W39539  27.490  28.044   2.638
71146W        W39540   7.455   9.271  14.519
71147W        W39541  13.636  16.650  12.429
71148W        W39542  28.599   9.757   4.932
71149W        W39543  38.641  16.661   2.762
71150W        W39544  24.062  12.429   3.527
71151W        W39545  24.061  33.460  13.808
71152W        W39546  33.359   8.315  12.589
71153W        W39547  11.791  43.498   3.632
71154W        W39548  29.200  17.577   2.730
71155W        W39549   6.416  28.904   2.756
71156W        W39550  14.036  20.092  14.499
71157W        W39551  11.615  23.604   1.831
71158W        W39552  20.368  36.619   3.162
71159W        W39553  32.820   9.223   2.301
71160W        W39554  19.606  17.424   0.923
71161W        W39555   7.187  40.082   4.682
71162W        W39556   0.832  36.952  11.193
71163W        W39557   3.489   9.998  11.786
71164W        W39558  41.381  27.474  13.313
71165W        W39559   3.278  14.971   3.595
71166W        W39560   1.931   1.820   3.298
71167W        W39561  23.624  13.902   4.656
71168W        W39562  33.959  29.060   4.206
71169W        W39563  37.434  18.947  13.516
71170W        W39564  41.834  21.653  14.895
71171W        W39565  10.872  10.046  10.664
71172W        W39566  18.142  43.855   0.916
71173W        W39567  22.784  15.716  12.979
71174W        W39568  13.188  35.632  11.670
71175W        W39569  10.103   0.946  10.511
71176W        W39570   3.887  23.703  13.939
71177W        W39571  26.154   3.890  12.436
71178W        W39572   6.775   0.604  10.369
71179W        W39573   4.772  15.043  11.583
71180W        W39574  34.808  27.116  11.616
71181W        W39575  42.759  39.030  10.281
71182W        W39576  44.425   1.358   0.931
71183W        W39577  13.335  27.504  10.637
71184W        W39578  11.175  21.574   2.945
71185W        W39579  16.704  33.496   4.477
71186W        W39580  27.474  39.090   1.939
71187W        W39581  23.605  10.401   0.742
71188W        W39582  33.197  10.741  11.166
71189W        W39583  30.489  25.696  12.324
71190W        W39584  20.314  30.440   2.681
71191W        W39585  22.975  37.494   4.319
71192W        W39586  41.662  29.732  10.334
71193W        W39587  13.605  12.306   1.208
71194W        W39588  26.093   5.945  10.612
71195W        W39589  28.617  15.239   3.864
71196W        W39590  22.012  29.611   0.741
71197W        W39591  33.524   3.827   0.425
71198W        W39592  25.003  18.063   0.186
71199W        W39593  28.049  34.569   0.734
71200W        W39594  37.335   6.838   2.699
71201W        W39595  18.987  37.240   4.799
71202W        W39596  37.438   3.408   0.519
71203W        W39597  24.787  12.057  12.641
71204W        W39598   9.761  36.456  11.057
71205W        W39599  31.744  44.237   4.177
71206W        W39600  11.699  24.876   2.257
71207W        W39601  40.451  23.133  13.807
71208W        W39602  13.233  25.120   3.849
71209W        W39603  33.856  13.642   0.440
71210W        W39604  17.163  37.010  14.013
71211W        W39605   1.982   9.773  13.076
71212W        W39606   4.210  23.482  11.084
71213W        W39607   5.925  20.507  13.804
71214W        W39608  30.266  36.653   4.509
71215W        W39609  31.672  22.489   2.632
71216W        W39610  23.750  24.161   3.715
71217W        W39611  28.892  25.484  14.633
71218W        W39612   0.233  14.284  10.684
71219W        W39613  42.087  17.266   0.054
71220W        W39614   3.673  10.540   4.199
71221W        W39615  26.938  40.137  11.627
71222W        W39616   7.321  35.614  14.469
71223W        W39617  38.166   5.272   1.902
71224W        W39618   0.390  23.592  13.813
71225W        W39619  29.933  41.924  14.727
71226W        W39620  22.105  28.451  14.485
71227W        W39621  44.018  29.196   1.443
71228W        W39622  38.851  13.303   3.908
71229W        W39623  20.527   4.948   4.303
71230W        W39624  37.586  35.672  10.370
71231W        W39625  40.436  37.876   1.478
71232W        W39626  33.578  39.535   3.127
71233W        W39627   5.503  28.078  12.831
71234W        W39628   5.690  23.667   0.061
71235W        W39629  37.613   0.869   3.441
71236W        W39630  19.999  23.425  11.234
71237W        W39631  41.989  28.568   3.003
71238W        W39632  16.723  40.553   1.604
71239W        W39633  17.268  15.260  11.250
71240W        W39634   0.540   6.402  12.072
71241W        W39635  35.430  12.218   0.035
71242W        W39636  13.878  40.612  11.585
71243W        W39637   5.601  26.934   4.535
71244W        W39638  11.918   3.417  12.436
71245W        W39639  17.660  42.708  10.921
71246W        W39640  17.511   8.394  12.571
71247W        W39641  10.753  32.908  12.082
71248W        W39642   6.396  12.068  11.221
71249W        W39643  20.221   0.491   1.089
71250W        W39644  24.294  22.652  11.548
71251W        W39645  30.992  17.077   4.601
71252W        W39646  44.943  29.675  13.823
71253W        W39647  27.512   7.641   4.762
71254W        W39648   5.227  13.899   3.094
71255W        W39649  44.021  12.754  12.778
71256W        W39650  16.261  43.531  13.912
71257W        W39651  32.905   1.250  11.512
71258W        W39652  41.374  26.038   2.747
71259W        W39653  23.127  11.927  14.324
71260W        W39654   0.386  32.507   1.396
71261W        W39655  34.309  13.920   5.115
71262W        W39656  42.727  37.673   0.902
71263W        W39657  24.956   8.726   0.768
71264W        W39658  23.480  38.777  14.864
71265W        W39659  18.912  41.498  10.325
71266W        W39660  12.053   2.886   0.678
71267W        W39661  11.280   3.274   3.160
71268W        W39662  13.914  29.433  13.135
71269W        W39663  34.077  21.479  14.339
71270W        W39664  44.006  12.234  11.915
71271W        W39665  30.797   8.942   4.621
71272W        W39666  26.635   9.630  13.852
71273W        W39667  42.950  29.600   4.412
71274W        W39668  14.619  36.801   0.856
71275W        W39669  32.534   8.605   1.764
71276W        W39670  26.640   6.720  14.833
71277W        W39671  19.525  32.287   1.981
71278W        W39672  30.970   2.881   1.692
71279W        W39673  43.500   5.314   4.453
71280W        W39674  33.243  39.984   4.939
71281W        W39675  15.579  39.916   1.443
71282W        W39676  41.443  39.267  13.511
71283W        W39677  29.586  11.184  11.455
71284W        W39678   5.348   9.103  12.370
71285W        W39679  38.021  22.459   1.813
71286W        W39680  20.637  19.650   2.686
71287W        W39681   1.362  26.278   2.729
71288W        W39682  28.393  26.105  11.153
71289W        W39683  38.969  39.006  14.769
71290W        W39684  43.829  24.162  10.633
71291W        W39685   9.900   8.812   2.476
71292W        W39686  40.896  10.344   0.713
71293W        W39687  14.760   7.019  13.557
71294W        W39688  33.415   4.250  13.810
71295W        W39689  28.000  12.415   4.331
71296W        W39690  38.501  43.235   2.248
71297W        W39691  10.172   4.611   3.766
71298W        W39692  37.733   2.092  12.870
71299W        W39693   0.646  37.814  11.733
71300W        W39694  27.840  34.594  11.185
71301W        W39695  37.564  22.661   0.432
71302W        W39696  13.608  27.178   2.593
71303W        W39697  22.079  26.459   0.240
71304W        W39698  13.375   4.392  12.644
71305W        W39699  14.256  22.106  14.289
71306W        W39700   9.678  24.449   3.172
71307W        W39701   5.671  25.134   0.301
71308W        W39702  16.535  12.331  11.959
71309W        W39703  24.006   1.795  12.650
71310W        W39704   9.639   9.770  14.822
71311W        W39705  31.561  20.212   3.796
71312W        W39706   8.955  12.647  14.375
71313W        W39707   5.894  15.196   4.085
71314W        W39708  20.181  13.792   1.372
71315W        W39709  11.547  38.039   1.814
71316W        W39710   0.915  13.638   1.617
71317W        W39711  21.020  16.346   4.734
71318W        W39712  17.084  36.501  12.459
71319W        W39713  19.329  42.095   2.681
71320W        W39714  21.077   4.939  14.024
71321W        W39715   0.260  44.753  12.422
71322W        W39716  25.013  10.871  14.293
71323W        W39717   3.882  28.556   0.418
71324W        W39718  31.872  11.694   3.546
71325W        W39719   4.719  44.251   1.724
71326W        W39720   9.824  30.648  11.546
71327W        W39721  35.614  30.546  14.772
71328W        W39722  11.650  34.369  14.334
71329W        W39723  13.021  33.465   4.429
71330W        W39724   1.940  37.936  11.936
71331W        W39725  29.848  12.355  12.496
71332W        W39726  22.188  44.216  11.675
71333W        W39727  28.329  39.531  14.664
71334W        W39728  17.597  17.309   1.885
71335W        W39729  14.285  20.862   4.687
71336W        W39730   5.366  33.649   0.968
71337W        W39731  14.908  29.003   4.206
71338W        W39732   4.964  29.115   2.345
71339W        W39733  33.137  13.798  11.645
71340W        W39734  41.357  28.925  12.048
71341W        W39735  28.533  39.929  13.802
71342W        W39736   6.238   2.373   4.550
71343W        W39737  23.430  17.663  11.910
71344W        W39738  38.987   3.870  13.398
71345W        W39739  19.920   9.905  10.773
71346W        W39740  37.417   6.974   1.672
71347W        W39741  44.992  17.187   1.461
71348W        W39742   0.989  18.309   3.790
71349W        W39743   6.690  27.205  14.017
71350W        W39744   6.658   9.273  13.612
71351W        W39745   3.952  42.790  12.656
71352W        W39746  13.020  31.856   0.725
71353W        W39747   5.396   1.964  11.772
71354W        W39748  22.426  29.038   1.736
71355W        W39749  26.339   8.599  10.018
71356W        W39750  16.234  21.579  13.745
71357W        W39751  29.101  40.078  12.446
71358W        W39752  10.079  30.015   1.652
71359W        W39753   6.949   2.764   0.974
71360W        W39754  10.442  40.742   3.138
71361W        W39755  10.643   8.031   3.714
71362W        W39756  36.212  11.662   3.404
71363W        W39757  12.136  18.583   0.363
71364W        W39758  13.302  36.582   3.630
71365W        W39759  12.430  16.322   2.348
71366W        W39760   0.805   8.111   0.149
71367W        W39761  13.012  30.477  12.036
71368W        W39762  24.144  19.079   3.097
71369W        W39763   6.008  31.855   2.295
71370W        W39764   7.766  12.455  11.062
71371W        W39765  33.489  12.136  10.667
71372W        W39766  26.094  19.336   0.000
71373W        W39767   4.646  27.061   4.562
71374W        W39768  31.120  32.518  11.672
71375W        W39769  44.191  21.100  10.022
71376W        W39770  34.560   8.474  13.417
71377W        W39771  27.648  31.959  13.628
71378W        W39772  28.273  22.820   2.252
71379W        W39773   5.791  30.875  12.584
71380W        W39774  27.384  36.875   0.881
71381W        W39775  12.032   2.946   4.073
71382W        W39776  28.982   0.243   1.815
71383W        W39777  29.053  11.871  12.892
71384W        W39778  33.067  32.171  12.067
71385W        W39779  18.832  32.061   2.423
71386W        W39780  28.848  38.952  11.985
71387W        W39781  14.124  11.638   0.523
71388W        W39782  10.813   0.484  11.169
71389W        W39783  34.460  25.230  10.624
71390W        W39784  16.666  43.034   0.215
71391W        W39785  34.395  25.097  11.542
71392W        W39786   0.700  28.095   3.189
71393W        W39787  35.943   5.213   2.119
71394W        W39788   1.928   2.622  10.731
71395W        W39789  37.557  21.823   2.400
71396W        W39790   5.250  30.108  14.831
71397W        W39791  42.417  19.821   3.192
71398W        W39792  16.301   0.519   1.495
71399W        W39793  22.778  12.075  14.713
71400W        W39794  27.488  34.589  13.308
71401W        W39795  44.860  10.997   4.631
71402W        W39796  32.305  41.358  14.902
71403W        W39797   3.588   7.058  11.608
71404W        W39798  35.357  41.050  14.870
71405W        W39799   0.008   1.997  14.044
71406W        W39800  19.495  31.471  11.550
71407W        W39801  42.270  30.703   2.876
71408W        W39802  22.754  13.823  11.944
71409W        W39803  11.292   0.433   0.638
71410W        W39804   3.470  32.116  13.460
71411W        W39805   0.255  19.827  11.690
71412W        W39806   4.813  14.143   0.329
71413W        W39807   2.183   9.300   3.254
71414W        W39808  24.720  43.212   1.713
71415W        W39809  17.622  20.529  10.346
71416W        W39810  16.835  29.663   1.815
71417W        W39811  27.916  42.376  10.659
71418W        W39812  28.900   3.241  10.647
71419W        W39813  27.993  40.292  12.911
71420W        W39814  25.005  37.509  13.370
71421W        W39815  35.851  16.837  11.172
71422W        W39816  41.488  33.020   2.793
71423W        W39817  17.610  15.568  13.063
71424W        W39818  44.506  12.893   1.027
71425W        W39819   2.184  19.264  11.709
71426W        W39820   8.704  26.707  14.537
71427W        W39821  37.433  27.699  14.821
71428W        W39822  42.753  33.935  13.480
71429W        W39823  18.320   5.214  14.999
71430W        W39824  39.830  13.648   0.844
71431W        W39825   4.730  13.802   4.384
71432W        W39826  39.058  11.103  13.320
71433W        W39827  25.856  16.984   4.098
71434W        W39828  22.234  24.180   1.655
71435W        W39829   7.484  33.059   1.375
71436W        W39830  14.305  12.105   0.423
71437W        W39831   3.654  41.728  13.481
71438W        W39832   6.148  18.670  10.665
71439W        W39833  29.607  23.522   1.440
71440W        W39834  15.382  17.052   3.033
71441W        W39835  30.519  33.694   2.319
71442W        W39836  12.931   5.313   2.444
71443W        W39837  38.538  22.289   1.850
71444W        W39838  17.185  33.756   3.287
71445W        W39839  43.574  27.082   4.166
71446W        W39840  10.923  27.404  12.929
71447W        W39841  10.133   1.691  11.092
71448W        W39842  22.647  23.575   3.701
71449W        W39843  41.432  40.728   1.735
71450W        W39844  31.971   9.626  12.230
71451W        W39845  43.877  21.139   4.900
71452W        W39846  16.642  13.151  12.548
71453W        W39847   2.413  17.195  13.887
71454W        W39848  10.407  33.151   3.190
71455W        W39849  29.067   3.157  11.916
71456W        W39850  40.460  29.642  14.486
71457W        W39851  13.480  40.134   0.935
71458W        W39852  34.635  37.949   3.189
71459W        W39853  31.089  13.193  13.557
71460W        W39854  21.712  15.769  10.369
71461W        W39855  16.525  42.381   2.089
71462W        W39856  20.546  15.209  13.176
71463W        W39857  22.065   6.224  14.311
71464W        W39858  10.764  32.061   0.428
71465W        W39859  16.259  33.536   3.655
71466W        W39860  26.634  20.466  11.640
71467W        W39861  35.143  44.989  11.111
71468W        W39862  14.022  23.065   1.182
71469W        W39863  35.780  11.943   3.365
71470W        W39864  14.619  25.532   3.889
71471W        W39865  18.186  36.579   2.843
71472W        W39866  29.466   7.231   2.747
71473W        W39867  39.968  11.694   1.186
71474W        W39868  23.533  40.454   0.882
71475W        W39869  13.159   4.487  14.179
71476W        W39870  21.489  39.580   1.683
71477W        W39871  22.597   6.369   0.276
71478W        W39872   8.409  35.817  11.057
71479W        W39873   6.982  23.971  13.132
71480W        W39874  40.533  12.362  12.608
71481W        W39875  41.720   6.994  13.558
71482W        W39876  17.821   3.795  11.513
71483W        W39877  10.707  36.043   1.168
71484W        W39878   3.721   7.838  14.755
71485W        W39879  35.472  29.711  12.913
71486W        W39880  13.517  33.476   4.603
71487W        W39881  43.812  41.999   1.286
71488W        W39882  21.224  30.524  10.677
71489W        W39883  26.225   0.880   1.349
71490W        W39884  21.570  11.432  13.018
71491W        W39885  14.449  15.573   0.509
71492W        W39886   6.117  44.421  10.702
71493W        W39887  39.212   7.632  12.861
71494W        W39888   9.597  12.656  13.993
71495W        W39889  17.603  20.505   1.810
71496W        W39890  40.476  43.325   3.989
71497W        W39891  43.107   4.838   9.973
71498W        W39892  30.746  24.890   1.175
71499W        W39893  40.801  37.156   0.946
71500W        W39894   8.780  36.408  13.544
71501W        W39895   0.635   1.492   1.630
71502W        W39896  23.565  32.583   2.202
71503W        W39897  14.091  17.835  14.414
71504W        W39898  33.112  18.165   0.915
71505W        W39899   4.987  30.218   1.354
71506W        W39900  10.399  19.035  12.511
71507W        W39901  26.470  41.517  10.266
71508W        W39902   1.961  25.040  11.608
71509W        W39903  20.330  26.064  11.113
71510W        W39904  44.672  30.948   0.162
71511W        W39905  19.373  12.109   4.050
71512W        W39906   0.613  44.480   3.165
71513W        W39907  22.203  13.242   2.357
71514W        W39908   4.968  29.411   2.775
71515W        W39909  30.569  32.584   0.723
71516W        W39910  26.584  11.680  10.668
71517W        W39911  44.496  13.400   1.851
71518W        W39912   8.611  13.841   4.186
71519W        W39913  10.251  24.996  11.149
71520W        W39914  21.005  21.659  12.973
71521W        W39915  11.174   0.407   2.717
71522W        W39916  40.615  28.371   3.724
71523W        W39917  19.045  29.457  10.999
71524W        W39918  28.667  36.876  11.690
71525W        W39919  37.846  33.718  13.582
71526W        W39920  36.511  14.682  12.240
71527W        W39921  13.273  21.734   2.252
71528W        W39922  19.227  33.148   4.129
71529W        W39923  17.255  18.950   1.296
71530W        W39924  36.178  25.986   3.480
71531W        W39925  26.663  22.964   1.548
71532W        W39926   8.304  32.312  10.713
71533W        W39927  41.061  17.083  13.470
71534W        W39928   8.134   9.508  11.418
71535W        W39929  19.621  27.059   4.023
71536W        W39930  26.056  26.198  13.919
71537W        W39931  19.732  31.217  11.105
71538W        W39932   6.196   9.585   1.856
71539W        W39933  30.927   9.233  10.758
71540W        W39934  20.650  43.069  11.593
71541W        W39935  18.607  29.895  11.618
71542W        W39936  31.985  36.823   4.568
71543W        W39937  29.754  13.778   2.716
71544W        W39938  20.509   8.913  10.676
71545W        W39939  25.854  24.657  14.837
71546W        W39940  11.721  10.189  10.805
71547W        W39941  10.294  23.800  11.598
71548W        W39942   6.416   7.902  12.044
71549W        W39943  29.107   2.286  11.931
71550W        W39944  15.086  15.950   3.611
71551W        W39945  10.014  36.507   1.212
71552W        W39946  22.861  40.885  14.908
71553W        W39947  20.004  27.312   2.623
71554W        W39948  29.909  19.870   0.705
71555W        W39949  35.769  23.496   1.746
71556W        W39950  44.347  10.245   4.584
71557W        W39951  27.616  41.009  10.611
71558W        W39952  41.847  30.399  10.858
71559W        W39953  23.778  31.627  13.115
71560W        W39954  23.975  44.334  11.965
71561W        W39955  44.277   5.188  10.613
71562W        W39956  41.317   5.343  10.613
71563W        W39957  35.185  12.900  12.040
71564W        W39958  33.907  34.834   0.028
71565W        W39959  14.110  39.908   2.069
71566W        W39960  26.229  24.322   1.359
71567W        W39961  33.130  40.557  13.835
71568W        W39962  11.431  31.080  11.257
71569W        W39963  29.956   6.116  11.856
71570W        W39964   2.993  16.191  11.999
71571W        W39965  17.558  31.051  14.533
71572W        W39966   5.902  18.150   0.941
71573W        W39967  15.482   4.901  11.597
71574W        W39968  37.829   2.677  11.464
71575W        W39969  38.559  35.148   0.233
71576W        W39970  32.653  10.422  11.512
71577W        W39971  42.357  43.327  14.091
71578W        W39972   1.315  14.649  14.846
71579W        W39973   3.348  24.437  12.936
71580W        W39974  23.977  12.822   0.864
71581W        W39975  14.665  35.730  12.914
71582W        W39976  27.218  11.254   0.323
71583W        W39977   9.397  24.875   1.434
71584W        W39978  12.163  32.937  13.977
71585W        W39979  13.124  18.795   0.335
71586W        W39980   4.822  43.758  11.647
71587W        W39981  40.933  35.681   1.219
71588W        W39982   6.954   6.423   3.584
71589W        W39983  36.938  18.043  11.055
71590W        W39984  20.188  41.059   0.277
71591W        W39985  44.583  12.321  11.006
71592W        W39986  40.458  36.997  10.668
71593W        W39987   0.460  41.019   2.242
71594W        W39988  15.556  16.414   4.417
71595W        W39989  41.449  16.712  14.728
71596W        W39990   5.693   1.171   3.658
71597W        W39991  24.027  39.298   4.190
71598W        W39992  38.417  11.532  14.439
71599W        W39993  10.369  23.114   3.784
71600W        W39994  17.975  32.599  11.836
71601W        W39995  37.970   1.272   1.828
71602W        W39996   3.446  16.753   0.973
71603W        W39997  34.561  16.106   0.909
71604W        W39998  42.866  40.296  13.841
71605W        W39999  20.915   1.942  12.520
71606W        W40000   9.701  40.008  10.696
71607W        W40001  30.375  11.831  14.174
71608W        W40002  11.791  42.885  11.272
71609W        W40003  28.197  27.119   4.036
71610W        W40004  14.593  35.522   1.296
71611W        W40005   1.701  21.163  12.548
71612W        W40006  10.750  43.656   4.148
71613W        W40007  19.125  31.492  12.071
71614W        W40008  31.055  27.362   2.753
71615W        W40009  11.695  39.099   4.117
71616W        W40010  30.181   1.033   1.191
71617W        W40011  36.114  35.310   5.039
71618W        W40012   8.883  42.705  12.578
71619W        W40013   6.705  36.212  13.006
71620W        W40014  17.332  28.922   3.333
71621W        W40015  33.436  17.596  12.710
71622W        W40016  24.970  16.312  14.258
71623W        W40017   4.771  16.761  14.906
71624W        W40018  39.288  28.126  14.330
71625W        W40019  28.373  10.896  12.158
71626W        W40020  18.196  20.572  14.437
71627W        W40021  34.669  11.161   4.883
71628W        W40022   9.392  13.479   0.231
71629W        W40023  20.050  29.546  12.808
71630W        W40024  21.430  29.056   3.209
71631W        W40025  40.813  31.007   0.235
71632W        W40026   8.747   4.295   0.249
71633W        W40027  33.031  22.725   4.435
71634W        W40028  35.346  17.766  12.888
71635W        W40029   1.208  29.487  12.114
71636W        W40030  37.114   6.744  14.778
71637W        W40031  25.741  30.556   0.832
71638W        W40032  44.823  21.159   3.686
71639W        W40033  38.166  41.799   1.710
71640W        W40034  40.815   8.205  14.620
71641W        W40035  28.250  23.628  10.285
71642W        W40036  24.305  41.438   3.304
71643W        W40037   1.201  16.225   0.364
71644W        W40038  30.535  22.222  10.782
71645W        W40039   4.809  14.136  12.974
71646W        W40040  11.083  23.712   4.523
71647W        W40041   7.558  20.569  11.717
71648W        W40042  38.859  31.770   2.180
71649W        W40043   0.484   4.052   3.809
71650W        W40044  23.258   6.696  12.581
71651W        W40045  31.869  32.142  10.886
71652W        W40046  28.720  14.326  12.974
71653W        W40047   5.768   3.039  13.379
71654W        W40048  20.804  18.151   2.308
71655W        W40049  39.591  15.279   4.782
71656W        W40050  35.447  38.862   4.476
71657W        W40051  40.398  26.693  12.862
71658W        W40052  38.589  33.097   3.962
71659W        W40053  14.681  19.574  11.083
71660W        W40054  26.517   8.704  12.880
71661W        W40055  17.145  39.149  10.681
71662W        W40056   1.796   4.288  12.870
71663W        W40057  27.923   5.666  14.334
71664W        W40058  26.628  19.782  12.913
71665W        W40059   9.569  30.376  14.417
71666W        W40060  37.343  11.644  12.959
71667W        W40061   9.776  31.296  12.264
71668W        W40062   5.207  42.365   2.442
71669W        W40063  39.079   6.346  13.171
71670W        W40064  23.036  14.027   1.024
71671W        W40065  27.358  33.025  10.806
71672W        W40066   7.241  41.908   2.181
71673W        W40067  12.187  32.992  12.964
71674W        W40068  31.691  37.803  13.584
71675W        W40069  33.660  34.087   4.165
71676W        W40070  44.522   5.116  14.134
71677W        W40071  19.868   4.426  13.027
71678W        W40072  29.272  19.604  14.598
71679W        W40073  11.932  35.545   4.824
71680W        W40074   0.919   9.710  14.034
71681W        W40075  34.056   2.293   2.492
71682W        W40076   0.243   8.672  11.191
71683W        W40077  43.257  24.531  11.271
71684W        W40078  42.996  34.975  11.929
71685W        W40079  15.155  17.674   5.385
71686W        W40080  31.496  40.010   3.232
71687W        W40081  18.296   6.694   2.699
71688W        W40082  39.043   5.232  14.876
71689W        W40083  24.906  31.924  10.740
71690W        W40084  34.419  44.430  13.375
71691W        W40085   1.836  12.301   5.116
71692W        W40086  14.616  28.424  13.006
71693W        W40087   6.687  37.639   0.292
71694W        W40088   8.697   7.296   0.755
71695W        W40089  41.451  37.034   3.222
71696W        W40090  31.412  32.392   0.059
71697W        W40091  38.858  26.406   5.247
71698W        W40092  25.576   9.398   1.605
71699W        W40093  36.780  19.208   1.166
71700W        W40094   7.880  38.196  14.019
71701W        W40095   1.531  31.727  13.860
71702W        W40096  22.174  41.956  11.851
71703W        W40097  27.443  34.778  12.473
71704W        W40098  16.651  13.295   2.831
71705W        W40099   0.204  38.627  11.982
71706W        W40100  20.570  16.244  14.105
71707W        W40101  21.968  16.772   2.913
71708W        W40102  16.071  15.682   2.852
71709W        W40103  15.247  21.991  13.902
71710W        W40104   3.426  21.757  12.985
71711W        W40105  30.012  18.968   0.262
71712W        W40106  41.866  39.212   4.764
71713W        W40107  33.171   1.813   4.442
71714W        W40108  23.133  42.101   0.705
71715W        W40109  13.281  25.928  10.734
71716W        W40110   0.645   2.009   4.967
71717W        W40111  15.285  39.934  11.659
71718W        W40112  21.670   1.393   4.631
71719W        W40113   1.860  33.851  14.342
71720W        W40114  17.817  16.595  11.877
71721W        W40115  14.932  20.021  14.802
71722W        W40116  33.754  17.219   0.921
71723W        W40117  21.131  38.304  14.045
71724W        W40118   2.540  29.786  12.937
71725W        W40119  22.301  19.155   3.432
71726W        W40120  27.405  10.344  11.430
71727W        W40121  31.127  42.400   2.741
71728W        W40122   6.129  22.203  11.595
71729W        W40123  31.669  30.102  11.852
71730W        W40124   4.290   9.516  10.755
71731W        W40125  20.481  35.207  12.890
71732W        W40126  15.306   0.014   1.329
71733W        W40127  11.148  14.262   2.810
71734W        W40128  29.822  37.085   2.370
71735W        W40129   5.725  33.723   3.749
71736W        W40130  27.945  40.359   2.221
71737W        W40131  41.911  26.288   3.238
71738W        W40132  37.350  10.148   0.805
71739W        W40133  33.599  12.349  13.074
71740W        W40134  37.457  31.388   2.412
71741W        W40135   2.119   1.916   0.007
71742W        W40136  22.626   7.382  12.379
71743W        W40137  37.045   8.983  12.518
71744W        W40138  20.673  20.747   0.297
71745W        W40139  16.667   0.320  13.841
71746W        W40140   8.384   6.219  14.419
71747W        W40141   9.004   0.986  13.770
71748W        W40142   5.490  18.990   2.274
71749W        W40143   2.956  17.605  14.895
71750W        W40144  15.234  28.001   0.710
71751W        W40145  27.967  17.214   4.587
71752W        W40146   1.389   3.586  11.893
71753W        W40147  31.564  11.821   2.626
71754W        W40148  22.304   9.718  10.207
71755W        W40149  17.963   3.051  11.503
71756W        W40150  19.171  41.955  14.460
71757W        W40151   6.615  42.691   3.123
71758W        W40152  43.886  30.031  14.633
71759W        W40153  42.174   1.257  10.425
71760W        W40154  37.360  29.624   1.726
71761W        W40155  31.992  34.523   0.294
71762W        W40156  16.704  30.511  14.197
71763W        W40157  36.285  20.693   4.507
71764W        W40158  39.856  44.927  13.991
71765W        W40159  32.674  14.692  11.371
71766W        W40160   1.401  15.174   1.755
71767W        W40161  15.114  23.270  11.549
71768W        W40162  30.548  12.858  14.007
71769W        W40163   9.787  22.302   3.170
71770W        W40164  40.790  32.102  13.919
71771W        W40165   3.808   2.059   2.247
71772W        W40166  25.465  38.970   0.806
71773W        W40167  37.147  42.095  14.382
71774W        W40168  42.328  24.558   2.184
71775W        W40169  30.211  44.791   0.471
71776W        W40170  31.436  22.242   0.395
71777W        W40171  33.531  16.740   0.889
71778W        W40172  34.032  33.519  12.034
71779W        W40173  21.452  44.909  14.115
71780W        W40174  14.139   2.144   4.215
71781W        W40175  26.463   4.203  10.742
71782W        W40176  42.529  42.038   4.275
71783W        W40177  35.136  15.884   4.074
71784W        W40178  13.648  43.470   0.479
71785W        W40179  43.335  15.783   0.348
71786W        W40180  11.817  18.663  13.500
71787W        W40181  10.106  22.358  14.926
71788W        W40182   8.310   0.861   4.054
71789W        W40183  42.788  22.481   0.939
71790W        W40184   2.190  22.970  12.038
71791W        W40185  11.616  16.118   2.666
71792W        W40186   9.186  18.202   9.801
71793W        W40187   7.682  17.064  14.450
71794W        W40188   6.439  42.777  13.457
71795W        W40189  12.774  27.494   4.689
71796W        W40190  19.448  19.702   0.390
71797W        W40191  28.705  41.659  13.841
71798W        W40192  38.961  40.820  12.510
71799W        W40193  19.347  11.338   0.823
71800W        W40194  10.652   2.903  10.748
71801W        W40195  15.117   9.861   3.572
71802W        W40196  20.609  16.355  13.594
71803W        W40197   8.498  19.232   4.146
71804W        W40198   0.355  14.707   0.990
71805W        W40199  28.778  37.844  10.837
71806W        W40200  28.435  43.101  11.957
71807W        W40201  34.911  42.958   2.686
71808W        W40202  39.073  12.850  10.722
71809W        W40203  31.156  42.272   1.438
71810W        W40204   5.844   3.235  12.896
71811W        W40205  41.165  17.248  12.054
71812W        W40206  36.859  37.567  10.676
71813W        W40207  20.728  13.971   1.388
71814W        W40208  14.469   0.159  11.521
71815W        W40209  37.798  16.604  13.736
71816W        W40210   2.419  12.678   3.221
71817W        W40211  31.425  40.794  12.668
71818W        W40212   4.625  25.817  11.519
71819W        W40213   5.075  18.583  11.430
71820W        W40214   5.219  40.538  11.434
71821W        W40215  24.862   0.426   2.279
71822W        W40216   1.282  21.069   3.846
71823W        W40217   2.240  39.572   0.898
71824W        W40218  13.367   7.773  14.497
71825W        W40219  40.929  34.170  13.466
71826W        W40220  10.872  27.768   4.081
71827W        W40221  18.745  28.897   3.918
71828W        W40222  10.602   5.671  10.775
71829W        W40223  15.911  35.460  11.371
71830W        W40224  19.387  27.523   2.989
71831W        W40225  44.826  39.857  11.171
71832W        W40226  31.038  37.579   0.826
71833W        W40227  32.668  11.385  11.607
71834W        W40228   8.063   6.001   0.880
71835W        W40229  19.808   0.292   1.676
71836W        W40230  32.073  36.393  11.221
71837W        W40231  15.237  41.409  12.743
71838W        W40232  33.082  31.970  10.568
71839W        W40233  24.283  38.005  13.342
71840W        W40234  32.377  11.688   1.162
71841W        W40235  19.941  11.558   3.247
71842W        W40236  14.107   6.059   0.016
71843W        W40237  13.117  30.853  10.424
71844W        W40238  44.003   2.208   0.842
71845W        W40239   4.432  40.372  13.408
71846W        W40240   1.421  30.374   2.094
71847W        W40241   3.620  26.515   5.136
71848W        W40242  29.902  15.188   2.677
71849W        W40243  40.027   3.218   0.925
71850W        W40244  43.351  33.884  13.437
71851W        W40245  41.864  41.510   2.720
71852W        W40246  20.314  39.893  12.107
71853W        W40247  24.110  18.685   2.719
71854W        W40248   1.025  24.916  13.079
71855W        W40249   2.047  30.983   0.771
71856W        W40250  39.451  22.174  12.021
71857W        W40251  34.657  21.094   0.905
71858W        W40252  33.924  43.498   0.401
71859W        W40253  27.158  33.835   3.628
71860W        W40254  39.325   7.706   3.068
71861W        W40255  35.304  26.185  13.409
71862W        W40256   2.302   7.630   4.355
71863W        W40257  27.750  17.222  12.173
71864W        W40258   8.452  26.032   4.630
71865W        W40259   1.106  41.419   1.949
71866W        W40260  28.087  29.382   3.157
71867W        W40261  12.517  38.732  12.455
71868W        W40262  42.772   7.489  14.729
71869W        W40263  30.674  33.803   4.135
71870W        W40264  37.858  31.443   1.022
71871W        W40265  33.413  26.034   4.492
71872W        W40266   0.394   5.097   4.093
71873W        W40267  32.458   1.107   2.249
71874W        W40268   3.929  13.037  11.043
71875W        W40269  25.953  42.787  11.947
71876W        W40270  25.635   4.702  11.532
71877W        W40271  44.438  41.400   4.776
71878W        W40272   0.039  43.533   3.474
71879W        W40273  37.642  21.007   3.399
71880W        W40274  14.964  26.466   3.651
71881W        W40275   2.270  22.050  13.524
71882W        W40276  13.464  42.407   2.118
71883W        W40277  10.239   3.045  14.273
71884W        W40278   9.615  42.317  13.844
71885W        W40279  26.606  14.177  14.814
71886W        W40280  20.549   5.655  12.960
71887W        W40281  25.596  34.249  12.483
71888W        W40282  36.055  24.311   2.841
71889W        W40283  40.270   8.729  11.596
71890W        W40284  33.185  12.736  10.193
71891W        W40285  15.787  20.551  14.381
71892W        W40286  42.446  22.577  12.552
71893W        W40287  15.552  19.090   2.189
71894W        W40288  29.678  38.643   0.171
71895W        W40289  10.769  26.626  13.785
71896W        W40290  39.802  37.514   5.104
71897W        W40291  26.084  25.296   2.674
71898W        W40292  12.685  18.760   0.061
71899W        W40293  40.003  21.211   4.361
71900W        W40294  14.873  29.014   0.763
71901W        W40295  34.378  27.714   3.709
71902W        W40296  44.159  20.172   3.186
71903W        W40297   3.284  12.451  14.910
71904W        W40298  28.780  24.129  13.815
71905W        W40299   6.955  13.573   2.347
71906W        W40300  10.614   5.369  13.941
71907W        W40301  32.970  37.629  13.763
71908ION    NA+40302  44.536  36.753   2.922
71909ION    NA+40303  43.255  42.318  13.580
71910ION    NA+40304  31.108  16.562   4.480
71911ION    NA+40305   6.615  29.235  12.879
71912ION    NA+40306  19.071  13.231   3.863
71913ION    NA+40307  30.744  20.643   3.785
71914ION    NA+40308  40.745  28.169   1.508
71915ION    NA+40309  14.159  29.131   1.241
71916ION    NA+40310  12.039  36.666   4.519
71917ION    NA+40311  38.764  25.258  12.086
71918ION    NA+40312  35.705  29.431   4.369
71919ION    NA+40313   6.997   4.405   3.306
71920ION    NA+40314  42.524  26.004   1.279
71921ION    NA+40315  11.702  21.776   1.562
71922ION    NA+40316  32.624  17.572  13.969
71923ION    NA+40317  12.878  33.130   2.434
71924ION    NA+40318  18.214  33.168  13.498
71925ION    NA+40319  32.503   0.817  12.081
71926ION    NA+40320   4.368  24.549   3.841
71927ION    NA+40321  37.479  43.584  13.308
71928ION    NA+40322  23.473  22.814  14.742
71929ION    NA+40323  16.324   9.025  12.864
71930ION    NA+40324  17.139   0.434   2.331
71931ION    NA+40325   7.808   5.318  13.762
71932ION    NA+40326   1.978   6.200  12.038
71933ION    NA+40327  24.771  25.096  14.247
71934ION    NA+40328  20.760   4.700  12.713
71935ION    NA+40329  37.678   9.252   2.030
71936ION    NA+40330  23.644  23.981   4.850
71937ION    NA+40331  12.027   1.606  12.489
71938ION    NA+40332  27.120  27.824   2.338
71939ION    NA+40333  13.104   5.264  13.627
71940ION    NA+40334  26.223  42.040   2.323
71941ION    NA+40335  17.394  44.423   5.066
71942ION    NA+40336  41.117   8.137  11.644
71943ION    NA+40337  41.726  34.108   1.491
71944ION    NA+40338  27.219  23.504  14.294
71945ION    NA+40339  38.514  37.940  14.695
71946ION    NA+40340  18.129  34.278   4.153
71947ION    NA+40341  43.063  40.602   4.698
71948ION    NA+40342  24.120  12.182  10.834
71949ION    NA+40343  27.036  14.602  14.346
71950ION    NA+40344  30.573  35.268  14.781
71951ION    NA+40345  31.516  40.102   0.763
71952ION    NA+40346  27.139  25.632   0.885
71953ION    NA+40347  27.773   9.916   3.779
71954ION    NA+40348  38.054  12.531   1.936
71955ION    NA+40349  28.733  11.747   1.227
71956ION    NA+40350  33.749  35.215   2.811
71957ION    NA+40351  40.392   8.888   4.186
71958ION    NA+40352  30.602  37.593  12.177
71959ION    NA+40353  11.897  12.907   0.972
71960ION    NA+40354  15.220  30.360   0.968
71961ION    NA+40355   1.122  44.280   3.051
71962ION    NA+40356  17.863  26.074  13.067
71963ION    NA+40357  29.041  19.596   4.454
71964ION    NA+40358  37.345  41.044   0.560
71965ION    NA+40359   3.683  14.745   3.302
71966ION    NA+40360   6.152  16.873  12.963
71967ION    NA+40361  13.291  22.299   3.194
71968ION    NA+40362  16.797   1.514  14.308
71969ION    NA+40363  11.854  25.368   2.338
71970ION    NA+40364   8.956  37.314  11.803
71971ION    NA+40365  24.474   1.017  12.598
71972ION    NA+40366  13.122  36.989  11.956
71973ION    NA+40367  16.067  23.128  11.902
71974ION    NA+40368  44.195  40.907   3.255
71975ION    NA+40369  20.698  35.882  14.610
71976ION    NA+40370  15.071  36.106   0.508
71977ION    NA+40371  12.338  29.289   2.373
71978ION    NA+40372  37.462   3.206  11.146
71979ION    NA+40373   4.699  26.921   3.223
71980ION    NA+40374  18.739  29.089  13.799
71981ION    NA+40375  41.038  17.686   0.315
71982ION    NA+40376  43.300  36.857  12.323
71983ION    NA+40377  18.503  15.370  11.755
71984ION    NA+40378  13.630  44.923  13.655
71985ION    NA+40379  44.682  12.860   2.636
71986ION    NA+40380  27.701   5.448  13.874
71987ION    NA+40381   3.535  40.898  14.056
71988ION    NA+40382   7.322  29.061  13.642
71989ION    NA+40383  43.079  43.671  10.072
71990ION    NA+40384  12.692  17.463   3.740
71991ION    NA+40385  43.988  39.051   3.871
71992ION    NA+40386   7.372  37.936   1.973
71993ION    NA+40387  16.395  41.703   4.480
71994ION    NA+40388  32.689  43.662  12.938
71995ION    NA+40389  15.829  34.914  10.502
71996ION    NA+40390  28.034  27.178  12.437
71997ION    NA+40391   3.541  19.987   5.136
71998ION    NA+40392  38.079  31.924  10.608
71999ION    NA+40393  23.218  31.012   9.894
72000ION    NA+40394  41.359   0.128   2.259
72001ION    NA+40395  37.443   7.908  10.313
72002ION    NA+40396  39.720  37.495   2.738
72003ION    NA+40397  27.534   5.579   5.012
72004ION    NA+40398   6.817   3.078  12.091
72005ION    NA+40399  11.324  11.427   3.501
72006ION    NA+40400  19.120  22.226  11.228
72007ION    NA+40401  32.345  32.192  11.083
72008ION    NA+40402   0.825   5.475  14.137
72009ION    NA+40403  42.239  32.853  11.883
72010ION    NA+40404  13.507   2.648  12.556
72011ION    NA+40405  31.688  19.725  11.787
72012ION    NA+40406  25.162  33.536  10.307
72013ION    NA+40407  11.579  19.763   0.692
72014ION    NA+40408  42.559  29.865  13.409
72015ION    NA+40409  41.677  20.007  13.030
72016ION    NA+40410  19.745   0.084  13.564
72017ION    NA+40411  43.883  11.786   3.342
72018ION    NA+40412  21.737   3.823   0.790
72019ION    NA+40413  18.380   3.190  11.934
72020ION    NA+40414  33.143   6.587   0.852
72021ION    NA+40415  40.928   5.761  12.112
72022ION    NA+40416  21.483  21.032   2.333
72023ION    NA+40417  23.156  18.854   3.418
72024ION    NA+40418  23.445  20.722  14.656
72025ION    NA+40419  24.514  31.502   0.935
72026ION    NA+40420  27.114  29.314  11.384
72027ION    NA+40421  22.316  21.813  11.948
72028ION    NA+40422  35.632  18.007  10.978
72029ION    NA+40423   1.950  16.173   1.980
72030ION    NA+40424  13.393  37.632  14.801
72031ION    NA+40425   7.416  35.290  12.129
72032ION    NA+40426  31.606   3.989  12.426
72033ION    NA+40427  33.225  36.033  10.723
72034ION    NA+40428  42.493   7.181  12.067
72035ION    NA+40429   2.018   1.793  13.127
72036ION    NA+40430  44.065  25.847  11.170
72037ION    NA+40431  10.501  31.539  11.324
72038ION    NA+40432   6.286  32.431   2.834
72039ION    NA+40433   7.790  24.227  13.480
72040ION    NA+40434  29.706   4.487   4.782
72041ION    NA+40435   9.270  20.680   2.759
72042ION    NA+40436  43.762  20.721  13.341
72043ION    NA+40437   3.786  23.882   4.034
72044ION    NA+40438  17.535  14.143  13.040
72045ION    NA+40439   8.931  19.258  11.513
72046ION    NA+40440  43.567  25.985  12.487
72047ION    NA+40441  26.627   4.693  10.746
72048ION    NA+40442  20.171  22.925   4.177
72049ION    NA+40443  34.679   5.178  13.830
72050ION    NA+40444  43.654  22.452   1.571
72051ION    NA+40445  26.246  35.904   2.615
72052ION    NA+40446  12.340  17.521  13.273
72053ION    NA+40447  10.694  34.044   2.041
72054ION    NA+40448  17.785  29.005  11.014
72055ION    NA+40449  39.394  44.647   1.938
72056ION    NA+40450  22.013  35.426  12.961
72057ION    NA+40451  16.609  10.951  13.862
72058ION    NA+40452  26.348  33.322  14.568
72059ION    NA+40453  23.276  30.306  10.600
72060ION    NA+40454   5.685  32.286  11.849
72061ION    NA+40455  36.720  36.736  12.220
72062ION    NA+40456  13.437  23.908   2.741
72063ION    NA+40457   9.766  31.157  12.781
72064ION    NA+40458  19.058   3.977  13.089
72065ION    NA+40459  26.936  11.761  13.180
72066ION    NA+40460   9.370  11.781   0.344
72067ION    NA+40461  12.126  13.657  12.594
72068ION    NA+40462  38.850  22.864  14.767
72069ION    NA+40463  20.115   4.115  14.960
72070ION    NA+40464  31.301  33.411  13.809
72071ION    NA+40465  20.639  19.281   1.229
72072ION    NA+40466  36.976  35.251  13.795
72073ION    NA+40467  21.822  37.659   2.907
72074ION    NA+40468  44.905  30.620  12.967
72075ION    NA+40469   4.555  11.424   3.985
72076ION    NA+40470   9.193  32.410   0.843
72077ION    NA+40471   3.001  34.167   1.696
72078ION    NA+40472  15.947   9.641   9.707
72079ION    NA+40473  35.949  31.380   1.437
72080ION    NA+40474  43.001   3.070   4.673
72081ION    NA+40475  36.595  29.258   1.241
72082ION    NA+40476  26.690   9.296   0.225
72083ION    NA+40477  32.654  23.037  12.835
72084ION    NA+40478  19.391   9.961  10.811
72085ION    NA+40479  31.260  35.402  11.194
72086ION    NA+40480  20.511  11.703  14.917
72087ION    NA+40481   2.690  24.458   0.404
72088ION    NA+40482  18.928   8.324   4.333
72089ION    NA+40483  17.831   9.334  14.835
72090ION    NA+40484  41.948  29.667  11.657
72091ION    NA+40485  37.529  12.284  11.271
72092ION    NA+40486  37.588  12.735  12.513
72093ION    NA+40487  39.041  40.219   0.277
72094ION    NA+40488  17.763   5.676  10.557
72095ION    NA+40489   9.713  25.745  13.883
72096ION    NA+40490  32.298   1.348   1.378
72097ION    NA+40491  23.462  22.553  12.459
72098ION    NA+40492  16.638  44.543   2.134
72099ION    NA+40493  42.313  16.716  12.682
72100ION    NA+40494  33.759  21.821   4.161
72101ION    NA+40495  20.648  24.548   0.232
72102ION    NA+40496  23.906  43.298   4.222
72103ION    NA+40497  37.493  25.605  14.579
72104ION    NA+40498  20.338  28.561   1.947
72105ION    NA+40499  21.599   6.009   2.296
72106ION    NA+40500  42.888  28.632   0.658
72107ION    NA+40501  17.992   3.878  13.690
72108ION    NA+40502  15.755  29.126  13.866
72109ION    NA+40503  19.360  28.233  11.754
72110ION    NA+40504   3.435   5.310   0.849
72111ION    NA+40505  27.194  12.381   3.334
72112ION    NA+40506  28.504   8.684   3.898
72113ION    NA+40507   4.289  17.328  14.367
72114ION    NA+40508  30.767  41.518   3.064
72115ION    NA+40509   1.998  41.474  14.368
72116ION    NA+40510  39.003  18.644   3.761
72117ION    NA+40511  27.271   5.405   3.293
72118ION    NA+40512   2.966  30.893   4.734
72119ION    NA+40513  22.254   4.680  14.413
72120ION    NA+40514   7.364  12.967   0.325
72121ION    NA+40515  23.728  31.398  13.568
72122ION    NA+40516  43.015   5.116   1.878
72123ION    NA+40517   7.799   3.785   1.522
72124ION    NA+40518  24.082  38.850  12.380
72125ION    NA+40519  37.667  36.888   2.220
72126ION    NA+40520  24.253   6.231  12.758
72127ION    NA+40521  43.884  44.053  14.782
72128ION    NA+40522  43.400  42.490   0.165
72129ION    NA+40523  21.549  43.014   0.897
72130ION    NA+40524  37.839  29.598   3.105
72131ION    NA+40525  29.067  12.255  13.959
72132ION    NA+40526   1.446  34.615  13.509
72133ION    NA+40527  13.253  22.226   2.117
72134ION    NA+40528  12.360  21.538  11.216
72135ION    NA+40529  42.916   0.647   1.883
72136ION    NA+40530  40.245  16.467  11.879
72137ION    NA+40531   0.716  35.782   3.193
72138ION    NA+40532  28.232  11.310   0.192
72139ION    NA+40533  41.190  11.100   1.754
72140ION    NA+40534  23.574   1.718   4.600
72141ION    NA+40535   2.191  26.800   2.727
72142ION    NA+40536  43.461  30.193   1.824
72143ION    NA+40537   6.191  28.987  13.750
72144ION    NA+40538  31.079  19.260  13.987
72145ION    NA+40539  35.511  38.304  14.812
72146ION    NA+40540  30.941  39.243  12.397
72147ION    NA+40541  29.414  39.046   3.302
72148ION    NA+40542  20.586  43.566   4.566
72149ION    NA+40543  37.860  38.336   2.111
72150ION    NA+40544   7.853  18.231  12.356
72151ION    NA+40545  34.895  44.133  13.471
72152ION    NA+40546  32.305  11.609   3.243
72153ION    NA+40547  40.226   3.242   4.901
72154ION    NA+40548  39.011  24.703   4.148
72155ION    NA+40549  12.748  30.673  13.486
72156ION    NA+40550  18.153   4.118   4.317
72157ION    NA+40551  35.606  42.522   4.112
72158ION    NA+40552  38.507  35.223  11.580
72159ION    NA+40553  22.955  36.429  13.637
72160ION    NA+40554   8.920  21.411   3.952
72161ION    NA+40555  33.992  22.209   2.488
72162ION    NA+40556  39.377  31.905   1.433
72163ION    NA+40557  19.164  31.742   4.736
72164ION    NA+40558  15.527   4.182   2.076
72165ION    NA+40559  35.354  19.711  12.679
72166ION    NA+40560   2.887  33.348   1.984
72167ION    NA+40561  23.730  29.699  11.534
72168ION    NA+40562  13.865   4.147   4.264
72169ION    NA+40563  44.764  19.441   4.154
72170ION    NA+40564  39.257  32.886  12.146
72171ION    NA+40565  36.850  42.145   2.539
72172ION    NA+40566  10.371   4.346   4.146
72173ION    NA+40567   9.458  15.479   4.250
72174ION    NA+40568   0.713  17.980   3.430
72175ION    NA+40569  31.494   4.776   4.245
72176ION    NA+40570  36.297  30.488   0.716
72177ION    NA+40571  25.169  30.451  12.427
72178ION    NA+40572  24.588  24.708   0.628
72179ION    NA+40573  33.264  10.371  14.027
72180ION    NA+40574  18.675  10.078   4.478
72181ION    NA+40575  42.382  29.396   1.058
72182ION    NA+40576   4.658   3.776  13.429
72183ION    NA+40577   7.270  13.871   2.617
72184ION    NA+40578   1.536  44.266  11.653
72185ION    NA+40579  11.336  44.600  13.568
72186ION    NA+40580  23.619   8.874  13.766
72187ION    NA+40581  32.300  19.504   1.473
72188ION    NA+40582  25.099  14.128   1.986
72189ION    NA+40583  30.807  18.963   4.283
72190ION    NA+40584  29.453   9.358  13.295
72191ION    NA+40585  25.546  23.756   3.709
72192ION    NA+40586  34.217  23.077   1.833
72193ION    NA+40587  19.541  30.073   4.179
72194ION    NA+40588  14.329  22.586   3.368
72195ION    NA+40589   3.517   9.468   1.530
72196ION    NA+40590  36.674  13.901  11.067
72197ION    NA+40591  29.406  43.359  14.997
72198ION    NA+40592  38.022   1.726  13.454
72199ION    NA+40593  17.633  13.141  13.320
72200ION    NA+40594   6.408  15.256  10.726
72201ION    NA+40595  26.507  17.719  13.180
72202ION    NA+40596   6.398  20.237  14.503
72203ION    NA+40597  22.956  43.465   3.071
72204ION    NA+40598   1.794  22.353   0.552
72205ION    NA+40599   4.508   8.788  11.904
72206ION    NA+40600  11.395  25.059   0.907
72207ION    NA+40601   4.760  27.993  11.679
72208ION    NA+40602   5.529   1.497   5.183
72209ION    NA+40603  16.433  20.185  12.974
72210ION    NA+40604  41.122   8.321  10.661
72211ION    NA+40605  33.989  35.208   1.950
72212ION    NA+40606   8.925  40.122   3.401
72213ION    NA+40607  25.181   8.857  11.086
72214ION    NA+40608  10.209   4.512  10.722
72215ION    NA+40609  30.167   6.541   2.496
72216ION    NA+40610  37.501  43.287  12.351
72217ION    NA+40611  40.245  36.865  11.686
72218ION    NA+40612  32.058  14.126  11.982
72219ION    NA+40613   4.812  44.890   0.208
72220ION    NA+40614  13.296   9.237   2.259
72221ION    NA+40615  37.793  18.799   1.094
72222ION    NA+40616   0.204  11.244  11.537
72223ION    NA+40617  42.484  32.457  14.022
72224ION    NA+40618  27.259  37.020   2.141
72225ION    NA+40619  43.800  40.164   2.932
72226ION    NA+40620  17.681  29.580   2.659
72227ION    NA+40621  35.357  27.045   0.847
72228ION    NA+40622  15.666   2.765   3.715
72229ION    NA+40623  27.441  28.205  11.556
72230ION    NA+40624  26.198  41.602  11.491
72231ION    NA+40625  21.781  10.939  11.799
72232ION    NA+40626   3.405  21.075   3.192
72233ION    NA+40627  30.065  44.027   2.089
72234ION    NA+40628  24.041  32.241   1.748
72235ION    NA+40629  26.646  26.076  13.074
72236ION    NA+40630  22.557   8.883   2.883
72237ION    NA+40631  31.378  38.802   4.582
72238ION    NA+40632  13.494   9.243  12.635
72239ION    NA+40633   8.871  18.522   1.163
72240ION    NA+40634  18.991  43.049   2.727
72241ION    NA+40635  29.210  20.069   3.245
72242ION    NA+40636  16.859  25.558   0.036
72243ION    NA+40637  25.598  44.970  11.640
72244ION    NA+40638   6.940  30.865  11.935
72245ION    NA+40639  26.461   7.691   2.482
72246ION    NA+40640  24.066  10.940   2.795
72247ION    NA+40641  41.309  13.477  11.055
72248ION    NA+40642  40.368   4.366   1.503
72249ION    NA+40643  21.552  33.293  14.099
72250ION    NA+40644  11.843  38.626   0.276
72251ION    NA+40645  14.592   1.296   3.338
72252ION    NA+40646  24.221  35.651   4.438
72253ION    NA+40647  43.805   2.384  10.709
72254ION    NA+40648   8.180  12.204   1.923
72255ION    NA+40649   1.513  13.047   4.106
72256ION    NA+40650   0.008  13.583  11.619
72257ION    NA+40651  43.797  16.980  11.521
72258ION    NA+40652   5.102   4.759  10.074
72259ION    NA+40653  31.094  24.141  12.717
72260ION    NA+40654  30.070   1.647   3.203
72261ION    NA+40655  18.007  24.001  14.160
72262ION    NA+40656  11.469   6.015   1.938
72263ION    NA+40657  11.112   0.907   0.946
72264ION    NA+40658  31.565  41.439   1.126
72265ION    NA+40659  32.559  11.435   0.226
72266ION    NA+40660  44.884  14.561  11.790
72267ION    NA+40661   3.837  16.171   1.163
72268ION    NA+40662  18.960  36.825   3.516
72269ION    NA+40663  24.504   9.279   1.455
72270ION    NA+40664  17.168   3.760  14.328
72271ION    NA+40665  33.317  24.508   1.730
72272ION    NA+40666  25.831   7.792  10.634
72273ION    NA+40667  33.496  38.192  11.488
72274ION    NA+40668  11.457  16.860  10.389
72275ION    NA+40669  18.285   4.576   0.554
72276ION    NA+40670  10.640  38.244   2.475
72277ION    NA+40671  36.341  29.377  11.806
72278ION    NA+40672   1.827   1.181   4.698
72279ION    NA+40673  33.861   2.981  14.319
72280ION    NA+40674  41.735  26.113  14.507
72281ION    NA+40675  27.759  23.952   1.253
72282ION    NA+40676  19.273   2.709  12.958
72283ION    NA+40677   6.926   0.430  10.832
72284ION    NA+40678  24.404  38.634   4.952
72285ION    NA+40679  33.092  29.710  13.239
72286ION    NA+40680  27.196  13.583   0.867
72287ION    NA+40681  35.296  14.780   2.397
72288ION    NA+40682  23.870  28.917   3.017
72289ION    NA+40683  36.122  20.826  12.043
72290ION    NA+40684   6.219  13.670   0.789
72291ION    NA+40685  42.378  40.989  11.012
72292ION    NA+40686  13.813   7.456   1.187
72293ION    NA+40687  34.931  40.572   1.747
72294ION    NA+40688  43.434  10.660   4.588
72295ION    NA+40689   1.020  12.605   1.804
72296ION    NA+40690  17.639  43.803   1.353
72297ION    NA+40691  31.934   7.329  13.526
72298ION    NA+40692  32.633  12.661  11.218
72299ION    NA+40693  14.189   0.369  14.637
72300ION    NA+40694  39.132  29.056   2.099
72301ION    NA+40695  10.027  12.737   2.801
72302ION    NA+40696  11.055  23.715   1.621
72303ION    NA+40697  16.348   2.960  11.167
72304ION    NA+40698  28.497  28.375  14.894
72305ION    NA+40699  39.590  16.872  12.348
72306ION    NA+40700  20.214   3.879   1.791
72307ION    NA+40701  18.251  22.761  10.656
72308ION    NA+40702  33.233  34.063  12.959
72309ION    NA+40703  18.504  28.258   3.218
72310ION    NA+40704  12.693  31.606   3.102
72311ION    NA+40705  12.516  15.273  10.717
72312ION    NA+40706  26.608  41.529  13.014
72313ION    NA+40707   4.709  18.208  13.452
72314ION    NA+40708  31.587  44.259  13.746
72315ION    NA+40709  15.992   1.860  11.868
72316ION    NA+40710  12.318  12.154   1.094
72317ION    NA+40711  24.186  16.193  14.511
72318ION    NA+40712  37.367   4.443   3.101
72319ION    NA+40713   7.561  33.018  12.315
72320ION    NA+40714  11.110  21.488   4.590
72321ION    NA+40715  29.603  37.391  11.935
72322ION    NA+40716  37.076   7.287   4.430
72323ION    NA+40717  28.365   4.186   3.361
72324ION    NA+40718   6.155  31.031   1.944
72325ION    NA+40719  15.488   3.952   0.381
72326ION    NA+40720  39.402  25.273  10.334
72327ION    NA+40721  42.015  34.723   3.172
72328ION    NA+40722  13.534  35.834   3.238
72329ION    NA+40723  29.933   4.732   2.276
72330ION    NA+40724  41.350  13.773   1.635
72331ION    NA+40725  24.636   7.580  11.760
72332ION    NA+40726  37.121  44.880  11.719
72333ION    NA+40727  13.391   3.461  12.682
72334ION    NA+40728  14.188  24.363  12.937
72335ION    NA+40729  14.260   4.186  13.535
72336ION    NA+40730  17.785  14.829   1.724
72337ION    NA+40731  12.707   0.525   2.547
72338ION    NA+40732  27.914  28.233   1.352
72339ION    NA+40733   6.452   6.896  14.334
72340ION    NA+40734   4.938  35.227  14.585
72341ION    NA+40735  34.108   1.427  11.783
72342ION    NA+40736  35.931  28.073  14.255
72343ION    NA+40737   1.420  27.575  10.953
72344ION    NA+40738  14.330  44.034  12.760
72345ION    NA+40739  37.002  27.827  10.794
72346ION    NA+40740  27.283   2.392   5.298
72347ION    NA+40741  40.217   8.437  12.969
72348ION    NA+40742  38.462  36.687   3.551
72349ION    NA+40743  34.998   4.935  11.144
72350ION    NA+40744  17.736  37.275   5.202
72351ION    NA+40745  20.960  37.636   1.971
72352ION    NA+40746  11.942  37.638   0.392
72353ION    NA+40747  31.789  11.590   0.047
72354ION    NA+40748  37.881  12.022   4.855
72355ION    NA+40749  25.596  34.420  10.676
72356ION    NA+40750   2.692  21.162  11.611
72357ION    NA+40751  35.454  24.448   0.180
72358ION    NA+40752  23.598  35.687   1.696
72359ION    NA+40753  17.872  40.753   4.940
72360ION    NA+40754  28.940  23.493   3.586
72361ION    NA+40755  10.456  11.863   1.257
72362ION    NA+40756  36.563  39.858   3.800
72363ION    NA+40757  13.056  29.938   3.627
72364ION    NA+40758  23.298  44.024  10.763
72365ION    NA+40759   0.739  32.830   2.808
72366ION    NA+40760  29.554  38.783  12.540
72367ION    NA+40761  42.261  28.106  14.971
72368ION    NA+40762  27.546  22.119   1.879
72369ION    NA+40763  19.960   2.926  13.857
72370ION    NA+40764  22.788  35.531  10.989
72371ION    NA+40765  17.295  11.982   0.752
72372ION    NA+40766  33.336  41.436  14.844
72373ION    NA+40767  31.959  36.766  10.351
72374ION    NA+40768  16.164   7.749  14.759
72375ION    NA+40769  26.193  23.473   2.423
72376ION    NA+40770  43.927  36.665   1.395
72377ION    NA+40771  30.353  34.294  14.713
72378ION    NA+40772  14.467  35.010   0.396
72379ION    NA+40773   5.531  13.584   3.366
72380ION    NA+40774  37.091  35.705   5.052
72381ION    NA+40775  24.619  24.052  12.450
72382ION    NA+40776  43.118  37.905  14.108
72383ION    NA+40777  16.181  12.225   0.828
72384ION    NA+40778  41.023  15.932  10.670
72385ION    NA+40779  22.435  39.292  14.018
72386ION    NA+40780  32.834  30.306   4.150
72387ION    NA+40781  34.091  37.670   3.126
72388ION    NA+40782  42.335  34.179  13.684
72389ION    NA+40783  27.753  22.821   4.384
72390ION    NA+40784  14.213  26.812   2.649
72391ION    NA+40785  33.969  10.242   2.892
72392ION    NA+40786  17.052  16.351  12.003
72393ION    NA+40787  35.607  17.866   0.078
72394ION    NA+40788  20.526  44.147   3.890
72395ION    NA+40789  13.391   6.661   1.055
72396ION    NA+40790  10.372  37.619  13.841
72397ION    NA+40791   2.761  42.875   3.237
72398ION    NA+40792  15.721  30.031   0.166
72399ION    NA+40793  19.354  29.394  14.526
72400ION    NA+40794  34.050  11.469  14.159
72401ION    NA+40795  17.538  35.967   1.386
72402ION    NA+40796  30.030  20.634  13.973
72403ION    NA+40797  18.573   2.253   0.733
72404ION    NA+40798  14.195  43.727   2.389
72405ION    NA+40799  43.498  14.863  13.732
72406ION    NA+40800  22.119  30.168  11.226
72407ION    NA+40801   6.951  26.066  10.745
72408ION    NA+40802  36.728  37.369  14.390
72409ION    NA+40803  21.521  22.497  14.217
72410ION    NA+40804  29.782   2.257   5.261
72411ION    NA+40805  18.542  35.672  14.701
72412ION    NA+40806  30.708   2.463  10.831
72413ION    NA+40807  39.057  30.639  11.010
72414ION    NA+40808  10.293   4.713   1.438
72415ION    NA+40809  34.098  25.144   2.832
72416ION    NA+40810   7.541  12.426   4.457
72417ION    NA+40811  30.801  35.924   5.319
72418ION    NA+40812   3.919  10.678  12.219
72419ION    NA+40813  42.640  13.822  12.070
72420ION    NA+40814  11.336  14.785  11.325
72421ION    NA+40815  35.441   7.572   0.499
72422ION    NA+40816  44.005  43.020  13.115
72423ION    NA+40817   4.369  41.836   3.308
72424ION    NA+40818   8.438  21.157   2.372
72425ION    NA+40819   7.710  30.317   0.535
72426ION    NA+40820  12.751  13.012  12.156
72427ION    NA+40821  22.865  21.166  11.419
72428ION    NA+40822  16.888   6.702  12.368
72429ION    NA+40823  17.677  10.252   2.687
72430ION    NA+40824   5.667   6.561   1.556
72431ION    NA+40825  29.275   2.377   1.188
72432ION    NA+40826  34.233  23.396   4.965
72433ION    NA+40827   3.364  22.797  13.928
72434ION    NA+40828  18.226   8.349  11.987
72435ION    NA+40829  14.040  38.972   2.586
72436ION    NA+40830   1.325  17.664   0.122
72437ION    NA+40831  43.027  34.515  14.513
72438ION    NA+40832  36.150   2.289   1.397
72439ION    NA+40833  13.350   0.726   1.447
72440ION    NA+40834  16.239  43.333   2.645
72441ION    NA+40835  42.403   7.242  14.993
72442ION    NA+40836   1.318   6.905   2.064
72443ION    NA+40837  22.563  25.457  10.690
72444ION    NA+40838  22.087   9.983  12.816
72445ION    NA+40839   0.908  14.807  12.417
72446ION    NA+40840  35.282  39.294  12.537
72447ION    NA+40841  30.543  34.101  12.541
72448ION    NA+40842  25.007  12.695  11.516
72449ION    NA+40843  44.312  17.212   0.682
72450ION    NA+40844  23.663  42.590  14.362
72451ION    NA+40845  22.484  38.558   1.753
72452ION    NA+40846  15.748   3.502   1.324
72453ION    NA+40847   8.384  41.733  14.842
72454ION    NA+40848   9.794  44.050   0.918
72455ION    NA+40849  22.091  32.652  12.316
72456ION    NA+40850  29.744   4.250  12.519
72457ION    NA+40851  38.113   4.032   1.649
72458ION    NA+40852  40.421  22.173   4.008
72459ION    NA+40853  28.287  34.494   2.380
72460ION    NA+40854  22.715  22.030   1.334
72461ION    NA+40855  14.222  21.549   0.548
72462ION    NA+40856   1.742  15.981  13.986
72463ION    NA+40857  12.560  24.530   2.162
72464ION    NA+40858  33.965  26.074   4.172
72465ION    NA+40859  32.183  21.706   3.805
72466ION    NA+40860  42.557  28.559  11.955
72467ION    NA+40861   9.637   9.220  12.784
72468ION    NA+40862  32.512  39.776   2.749
72469ION    NA+40863   1.250   8.254  14.883
72470ION    NA+40864  41.938  19.025  13.870
72471ION    NA+40865  37.917  26.687   0.729
72472ION    NA+40866  15.702   0.484  11.464
72473ION    NA+40867   7.319  26.634  10.009
72474ION    NA+40868   9.677  28.258  11.214
72475ION    NA+40869  14.521  12.523   1.834
72476ION    NA+40870  27.717   9.161   0.316
72477ION    NA+40871  21.377   1.668  13.816
72478ION    NA+40872  30.580  41.613   1.228
72479ION    NA+40873  10.005  28.777   2.362
72480ION    NA+40874  28.346  14.553   5.234
72481ION    NA+40875  37.000  43.046   2.130
72482ION    NA+40876  35.130  39.894  10.551
72483ION    NA+40877  27.363   7.704   2.570
72484ION    NA+40878   8.502   0.833   3.130
72485ION    NA+40879  34.266  24.760   1.923
72486ION    NA+40880   8.235  18.634   3.921
72487ION    NA+40881   4.381  42.815   2.513
72488ION    NA+40882  21.520  30.417   4.221
72489ION    NA+40883   0.827  14.149  11.782
72490ION    NA+40884  22.895  35.930   4.384
72491ION    NA+40885  43.824  32.652   4.496
72492ION    NA+40886  17.604  13.855   3.306
72493ION    NA+40887  26.572   9.205  12.898
72494ION    NA+40888   5.377  43.086  14.903
72495ION    NA+40889  39.745  17.525   1.018
72496ION    NA+40890  16.626  31.874   2.668
72497ION    NA+40891  13.523  23.937  13.552
72498ION    NA+40892  18.832  30.260   5.512
72499ION    NA+40893   4.213  17.144   5.246
72500ION    NA+40894   2.106   0.422  14.895
72501ION    NA+40895  15.800  34.962   4.412
72502ION    NA+40896  25.612  43.978   4.111
72503ION    NA+40897  15.029   6.339  14.271
72504ION    NA+40898  32.148  22.595  12.626
72505ION    NA+40899   9.153   8.343   3.725
72506ION    NA+40900   6.672  33.226   3.502
72507ION    NA+40901  39.328  39.741  11.148
72508ION    NA+40902   1.277  19.482  13.964
72509ION    NA+40903  34.531   7.911  13.376
72510ION    NA+40904  11.657  20.788   1.353
72511ION    NA+40905  43.806   3.407  14.455
72512ION    NA+40906   1.288  38.863  12.357
72513ION    NA+40907  16.693  37.296   3.460
72514ION    NA+40908   1.136  44.663   0.841
72515ION    NA+40909  38.333   8.945   1.129
72516ION    NA+40910  11.312   1.906  13.846
72517ION    NA+40911  26.678  17.659  11.581
72518ION    NA+40912  15.864  23.806   0.124
72519ION    NA+40913  20.475  25.985  14.932
72520ION    NA+40914  27.950  18.466   1.515
72521ION    NA+40915  42.021  33.580   5.270
72522ION    NA+40916  31.155  15.441  13.521
72523ION    NA+40917  30.564   3.730   4.713
72524ION    NA+40918  32.458   4.361   0.344
72525ION    NA+40919  14.705  35.647  13.865
72526ION    NA+40920  14.388  17.951   0.425
72527ION    NA+40921  41.052   3.509  12.987
72528ION    NA+40922  21.009  33.889   4.705
72529ION    NA+40923   4.694   6.950  11.203
72530ION    NA+40924  44.386  17.385   4.572
72531ION    NA+40925  18.509  42.132  10.310
72532ION    NA+40926  14.305   9.466  12.006
72533ION    NA+40927  16.485  29.613  11.144
72534ION    NA+40928  21.648  11.750   0.298
72535ION    NA+40929   5.385   6.383  10.959
72536ION    NA+40930  13.730  19.664   0.174
72537ION    NA+40931  44.862  44.460  13.677
72538ION    NA+40932  36.835  27.526   2.439
72539ION    NA+40933  39.514  21.038   4.903
72540ION    NA+40934  15.877   0.213   4.881
72541ION    NA+40935  29.974   0.537   0.893
72542ION    NA+40936  24.998  29.590   3.529
72543ION    NA+40937   3.876  12.046   0.165
72544ION    NA+40938  22.626  27.776   9.927
72545ION    NA+40939  31.459  29.944  10.873
72546ION    NA+40940   3.688  38.351  14.257
72547ION    NA+40941  19.677  21.566   4.150
72548ION    NA+40942  33.337   3.895  10.841
72549ION    NA+40943  42.514   9.437   4.626
72550ION    NA+40944   3.339   2.604  13.895
72551ION    NA+40945   2.770  16.986   0.557
72552ION    NA+40946  15.474  30.036  11.352
72553ION    NA+40947   2.438  20.340  11.315
72554ION    NA+40948  31.499  28.435   1.414
72555ION    NA+40949  14.717  37.775   2.697
72556ION    NA+40950   3.312  20.026  10.599
72557ION    NA+40951  39.199  43.189   2.599
72558ION    NA+40952  31.673   8.057  11.713
72559ION    NA+40953   1.477  14.637  13.017
72560ION    NA+40954  36.586   4.591  11.868
72561ION    NA+40955  23.068  36.608   1.886
72562ION    NA+40956  27.598  24.549  10.806
72563ION    NA+40957  41.005  31.129   2.085
72564ION    NA+40958   0.649  24.391   0.823
72565ION    NA+40959  25.501  44.991   0.927
72566ION    NA+40960  32.059   0.784   3.484
72567ION    NA+40961  32.009  22.532  10.694
72568ION    NA+40962  36.593  33.295  13.270
72569ION    NA+40963  28.994  44.991  12.957
72570ION    NA+40964  44.502  33.308   1.748
72571ION    NA+40965  33.415  43.398   3.159
72572ION    NA+40966  20.644  13.350   2.106
72573ION    NA+40967  14.128  23.545   1.999
72574ION    NA+40968  16.687   6.026  11.120
72575ION    NA+40969   1.491  38.771  13.357
72576ION    NA+40970   5.356  15.810  10.704
72577ION    NA+40971   2.710  35.196  13.056
72578ION    NA+40972  31.539  33.049   1.707
72579ION    NA+40973  10.189  15.530  12.437
72580ION    NA+40974  25.798   7.981   1.913
72581ION    NA+40975  34.839  40.993   4.202
72582ION    NA+40976  16.007  24.073   3.700
72583ION    NA+40977   1.558  21.865   5.135
72584ION    NA+40978  28.436  17.168   3.855
72585ION    NA+40979  10.662   8.970  11.881
72586ION    NA+40980   8.726  29.700   1.346
72587ION    NA+40981   9.698   2.428   0.435
72588ION    NA+40982  29.000  31.454  11.159
72589ION    NA+40983  19.011  34.945   3.094
72590ION    NA+40984  14.659   6.911   1.588
72591ION    NA+40985  11.778   7.936  13.582
72592ION    NA+40986  15.703  13.999   1.647
72593ION    NA+40987  39.243  13.145  11.130
72594ION    NA+40988  38.549   2.809   0.011
72595ION    NA+40989   6.925  34.461   3.132
72596ION    NA+40990  32.324  32.488  13.557
72597ION    NA+40991   5.614   2.184   3.713
72598ION    NA+40992   1.113  12.191   3.776
72599ION    NA+40993   1.631   8.815  13.382
72600ION    NA+40994  27.941  17.188   1.163
72601ION    NA+40995   8.633   6.380  13.988
72602ION    NA+40996  34.010  12.336   2.957
72603ION    NA+40997  10.251  17.773   0.721
72604ION    NA+40998   0.300  11.578   0.781
72605ION    NA+40999   4.967  14.843   1.219
72606ION    NA+41000   9.636  27.441   3.849
72607ION    NA+41001  17.204  27.595   3.412
72608ION    NA+41002  34.680  21.999   1.786
72609ION    NA+41003  25.314  32.892   4.519
72610ION    NA+41004  35.871   2.742  14.431
72611ION    NA+41005  40.242  35.329   0.604
72612ION    NA+41006  27.565  17.190  10.788
72613ION    NA+41007  15.267   8.869  12.542
72614ION    NA+41008  18.239  24.949   0.373
72615ION    NA+41009  38.661  26.708   4.854
72616ION    NA+41010  26.196  26.757   1.304
72617ION    NA+41011  28.435   9.765   0.367
72618ION    NA+41012  12.945  23.200   2.180
72619ION    NA+41013  39.420  36.764   1.588
72620ION    NA+41014   1.248  33.559   3.270
72621ION    NA+41015  11.136   1.314   3.997
72622ION    NA+41016   6.903  44.432   3.355
72623ION    NA+41017  25.549  11.582   3.635
72624ION    NA+41018  31.332  12.096   2.154
72625ION    NA+41019  10.027   1.058  13.802
72626ION    NA+41020  13.075   3.193   2.358
72627ION    NA+41021  24.682  30.827   3.252
72628ION    NA+41022  22.203   9.791   4.583
72629ION    NA+41023   4.730   7.553  13.773
72630ION    NA+41024   4.731  25.144  10.972
72631ION    NA+41025  18.878   0.222  12.053
72632ION    NA+41026  35.362   5.456   3.350
72633ION    NA+41027  30.756  32.648   1.853
72634ION    NA+41028  28.086   0.974   2.768
72635ION    NA+41029   6.510  14.204   2.010
72636ION    NA+41030  23.948  29.435  13.359
72637ION    NA+41031  41.082  12.296   3.671
72638ION    NA+41032  14.624  36.479  12.191
72639ION    NA+41033  13.097  37.743   4.984
72640ION    NA+41034   2.540  36.862  13.390
72641ION    NA+41035  38.967  42.556   0.623
72642ION    NA+41036  22.686   8.301  11.365
72643ION    NA+41037  17.912  41.695   3.553
72644ION    NA+41038  14.408  43.802  13.616
72645ION    NA+41039  18.120  29.072  14.584
72646ION    NA+41040  22.196  12.505   2.413
72647ION    NA+41041  21.558  38.589   2.650
72648ION    NA+41042   6.244  28.372  12.534
72649ION    NA+41043  17.883  36.535   9.581
72650ION    NA+41044  23.376  33.460  12.542
72651ION    NA+41045  19.544  43.003  10.705
72652ION    NA+41046   3.455   8.801   2.431
72653ION    NA+41047  34.046  13.295   3.208
72654ION    NA+41048  14.051   4.857   4.943
72655ION    NA+41049  25.643   4.005   3.388
72656ION    NA+41050  22.271  31.759  11.902
72657ION    NA+41051  20.577  40.326   0.072
72658ION    NA+41052  12.003  28.837  11.672
72659ION    NA+41053   1.833   3.445   1.797
72660ION    NA+41054   0.149  44.593   0.986
72661ION    NA+41055  22.182  27.914   1.274
72662ION    NA+41056  39.347  26.161  13.343
72663ION    NA+41057  24.525   4.351  10.770
72664ION    NA+41058  10.258  42.897  10.631
72665ION    NA+41059  38.305  22.202   0.989
72666ION    NA+41060  31.156  27.413  11.614
72667ION    NA+41061  33.372  22.103  12.657
72668ION    NA+41062  28.880  26.996   1.907
72669ION    NA+41063   5.138  38.167  13.041
72670ION    NA+41064  22.205  42.414   1.642
72671ION    NA+41065  44.329  24.219  11.900
72672ION    NA+41066  11.305  37.489  11.474
72673ION    NA+41067  32.395  18.617   1.418
72674ION    NA+41068  42.382  26.347   4.086
72675ION    NA+41069  11.940  17.249   0.785
72676ION    NA+41070  41.858  15.210   4.071
72677ION    NA+41071  26.799  29.755  10.685
72678ION    NA+41072  25.879  22.310  14.676
72679ION    NA+41073  34.197  44.589  11.232
72680ION    NA+41074  22.381  18.130   3.601
72681ION    NA+41075  43.718  35.057   3.378
72682ION    NA+41076   2.528  12.218  12.154
72683ION    NA+41077  44.374  36.912   2.107
72684ION    NA+41078   1.253  20.474  10.740
72685ION    NA+41079  31.459  25.168   2.040
72686ION    NA+41080  16.180   4.585  10.723
72687ION    NA+41081   4.953  40.671  10.319
72688ION    NA+41082  17.637  18.583   0.659
72689ION    NA+41083  35.035  20.596  13.099
72690ION    NA+41084   4.778  25.918  14.986
72691ION    NA+41085   2.069   1.856  11.980
72692ION    NA+41086  11.851  26.031   3.133
72693ION    NA+41087  35.768  19.459   2.203
72694ION    NA+41088   6.584  16.747   3.338
72695ION    NA+41089  15.022  32.802   4.112
72696ION    NA+41090  35.702  20.245  11.503
72697ION    NA+41091  29.514   0.948   3.653
72698ION    NA+41092   5.460  42.146  13.843
72699ION    NA+41093  21.257  42.053  12.061
72700ION    NA+41094  20.155  43.459  14.668
72701ION    NA+41095  37.038   8.511  12.367
72702ION    NA+41096  38.419  35.679   3.760
72703ION    NA+41097  41.748  13.364   0.737
72704ION    NA+41098   4.206   1.462  12.091
72705ION    NA+41099  14.877  37.754   4.659
72706ION    NA+41100  14.156  44.061   4.133
72707ION    NA+41101   0.489  18.017  11.183
72708ION    NA+41102  33.106  38.409  14.717
72709ION    NA+41103  22.591  30.380   9.876
72710ION    NA+41104  16.096  41.250  11.501
72711ION    NA+41105  32.205  16.759   4.309
72712ION    NA+41106  18.457  12.913  12.735
72713ION    NA+41107  31.762  22.232   1.917
72714ION    NA+41108   3.268  21.990  12.532
72715ION    NA+41109  39.030  42.387  14.734
72716ION    NA+41110  28.142  20.692  13.350
72717ION    NA+41111  38.916  43.888  10.526
72718ION    NA+41112  29.010   4.725   3.258
72719ION    NA+41113   6.806   1.427   3.209
72720ION    NA+41114  29.175   6.929   4.506
72721ION    NA+41115  39.493  35.432   2.392
72722ION    NA+41116  16.508  27.275   1.870
72723ION    NA+41117  39.496  23.286   0.482
72724ION    NA+41118  23.713  14.433  12.183
72725ION    NA+41119   9.608   8.871   0.821
72726ION    NA+41120  16.909  27.740   0.387
72727ION    NA+41121  44.023  14.876  13.174
72728ION    NA+41122  16.792  33.955  14.243
72729ION    NA+41123  43.255   4.419   3.383
72730ION    NA+41124   1.625  12.837  12.623
72731ION    NA+41125  43.878   8.385   2.525
72732ION    NA+41126   8.254  27.088   5.070
72733ION    NA+41127   8.867  25.136  12.495
72734ION    NA+41128  32.963   0.944  13.354
72735ION    NA+41129  33.537  34.312   3.247
72736ION    NA+41130  43.877   8.439  13.110
72737ION    NA+41131   8.834  26.016  12.970
72738ION    NA+41132  22.646  25.882   4.673
72739ION    NA+41133   2.706  16.073   0.034
72740ION    NA+41134  11.293  41.514  14.808
72741ION    NA+41135   7.380  25.665   0.525
72742ION    NA+41136  42.529  24.501   2.670
72743ION    NA+41137  16.930  38.183  10.787
72744ION    NA+41138  30.170  14.989   0.370
72745ION    NA+41139  26.932  14.438  11.781
72746ION    NA+41140  24.919  20.270   1.473
72747ION    NA+41141  11.764  44.683  14.585
72748ION    NA+41142  10.122  10.697  14.336
72749ION    NA+41143  31.889   6.228   3.202
72750ION    NA+41144  41.854  33.638   2.365
72751ION    NA+41145   3.158  44.564   2.913
72752ION    NA+41146  16.245  36.380  13.169
72753ION    NA+41147  23.832  19.588   3.360
72754ION    NA+41148  19.112  39.057  13.349
72755ION    NA+41149  43.512   0.075   2.066
72756ION    NA+41150  23.090   0.063   0.633
72757ION    NA+41151  22.373  19.254   2.927
72758ION    NA+41152  25.197  17.326  13.690
72759ION    NA+41153  41.970  37.559  12.574
72760ION    NA+41154   7.071   2.918   0.041
72761ION    NA+41155   3.629  16.805  12.727
72762ION    NA+41156  38.438   2.914  11.986
72763ION    NA+41157  33.529  38.770  13.440
72764ION    NA+41158  27.336  14.926  13.129
72765ION    NA+41159  40.289  14.522   2.885
72766ION    NA+41160  41.515  19.382  12.062
72767ION    NA+41161  18.598  23.874  12.483
72768ION    NA+41162  39.256  23.291   4.236
72769ION    NA+41163  44.736  34.259  11.583
72770ION    NA+41164  40.370  29.312  11.198
72771ION    NA+41165   5.534  13.424   2.379
72772ION    NA+41166  39.301  19.679   3.334
72773ION    NA+41167   3.849  20.265   0.941
72774ION    NA+41168  30.238  19.441  14.538
72775ION    NA+41169  25.511  34.731  11.623
72776ION    NA+41170   2.888  32.900   3.787
72777ION    NA+41171  23.190   3.547  14.154
72778ION    NA+41172  37.216  37.849  10.997
72779ION    NA+41173  17.673  18.288  14.159
72780ION    NA+41174  41.737  37.245   2.194
72781ION    NA+41175  10.335  41.018   0.395
72782ION    NA+41176  27.502  34.478   1.761
72783ION    NA+41177  26.721  16.288   9.635
72784ION    NA+41178  43.932   0.359   1.204
72785ION    NA+41179  23.105  35.583  13.544
72786ION    NA+41180  39.920  38.788   4.407
72787ION    NA+41181  43.814  37.768   3.081
72788ION    NA+41182  31.586  13.159  13.366
72789ION    NA+41183  36.054  34.812   1.937
72790ION    NA+41184   5.354  30.614  11.066
72791ION    NA+41185  32.126  32.854   3.187
72792ION    NA+41186  26.616  34.258  14.340
72793ION    NA+41187   4.290  35.862  13.711
72794ION    NA+41188  10.298  30.907   3.735
72795ION    NA+41189  39.535  38.009  10.769
72796ION    NA+41190  13.148  34.392   3.834
72797ION    NA+41191  28.810   3.845   3.433
72798ION    NA+41192   0.868  20.474  11.967
72799ION    NA+41193  20.322   9.619  12.407
72800ION    NA+41194  24.626   9.485  11.637
72801ION    NA+41195  22.532   0.052  14.489
72802ION    NA+41196  21.699   2.582  13.240
72803ION    NA+41197  33.231  23.246   1.828
72804ION    NA+41198  20.601  36.542  10.642
72805ION    NA+41199  15.156  17.235   4.511
72806ION    NA+41200   3.101  39.773  12.640
72807ION    NA+41201  43.091  10.547  12.883
72808ION    NA+41202  24.790   8.310  14.380
72809ION    NA+41203  44.880  34.994   1.865
72810ION    NA+41204  13.707   7.419   4.797
72811ION    NA+41205  30.606  32.882  13.812
72812ION    NA+41206  27.052  11.437   0.824
72813ION    NA+41207  16.853  31.266  11.180
72814ION    NA+41208  19.759  30.731  14.385
72815ION    NA+41209  42.554   2.840   3.809
72816ION    NA+41210  23.228  15.351   2.790
72817ION    NA+41211  13.247  17.845  13.005
72818ION    NA+41212  23.831  44.985   5.015
72819ION    NA+41213  22.913  40.388  12.051
72820ION    NA+41214  24.421  37.787   3.103
72821ION    NA+41215  20.813  38.687   0.532
72822ION    NA+41216   7.550  13.753  14.914
72823ION    NA+41217  44.832   5.891   0.762
72824ION    NA+41218   9.212  16.937  12.516
72825ION    NA+41219   2.702  25.666  14.126
72826ION    NA+41220  33.545   6.411  12.733
72827ION    NA+41221   1.257   7.203  11.596
72828ION    NA+41222   9.553  18.557  12.499
72829ION    NA+41223  29.113  27.850  13.950
72830ION    NA+41224  20.790  44.116  11.522
72831ION    NA+41225  14.541  30.338   1.533
72832ION    NA+41226   8.417  18.523   2.944
72833ION    NA+41227  14.472  41.107  12.520
72834ION    NA+41228  39.164  43.282   1.549
72835ION    NA+41229  11.565  12.241   1.490
72836ION    NA+41230   1.958  11.760  10.317
72837ION    NA+41231  21.598  36.170   0.575
72838ION    NA+41232   4.331  42.539  11.751
72839ION    NA+41233  28.681   4.054   2.592
72840ION    NA+41234   7.059   7.450  11.390
72841ION    NA+41235   8.663  21.977   3.299
72842ION    NA+41236  11.033  11.857  13.056
72843ION    NA+41237  38.515  36.370   2.107
72844ION    NA+41238   8.931   5.140   0.883
72845ION    NA+41239  26.551  39.497  14.401
72846ION    NA+41240  22.075  36.657   1.779
72847ION    NA+41241   1.102  35.966   0.306
72848ION    NA+41242  29.384  29.773  13.020
72849ION    NA+41243  11.329  32.008  14.530
72850ION    NA+41244   2.433  40.283   3.680
72851ION    NA+41245  15.666   1.477  14.946
72852ION    NA+41246   3.598  25.145  12.221
72853ION    NA+41247  26.306  14.083   0.212
72854ION    NA+41248  36.874  38.838  13.656
72855ION    NA+41249   2.545  34.751   3.674
72856ION    NA+41250  40.579  32.300   3.919
72857ION    NA+41251  34.834   3.456   3.086
72858ION    NA+41252  43.035  16.429  12.205
72859ION    NA+41253  42.514  23.805   4.546
72860ION    NA+41254  35.873  11.948   0.650
72861ION    NA+41255   0.964  38.706   2.880
72862ION    NA+41256  21.410  34.352  13.553
72863ION    NA+41257  12.683  42.802   1.517
72864ION    NA+41258  16.837  13.031   2.352
72865ION    NA+41259  25.652  22.188  13.680
72866ION    NA+41260  31.452  16.980  14.827
72867ION    NA+41261   5.999  42.814   1.723
72868ION    NA+41262   8.175  12.201  11.764
72869ION    NA+41263  29.719   9.122  14.230
72870ION    NA+41264  23.410   1.156  14.874
72871ION    NA+41265  16.986  30.146   5.127
72872ION    NA+41266  15.381  28.328   3.721
72873ION    NA+41267  44.306  15.899  11.185
72874ION    NA+41268  37.943  18.925  10.818
72875ION    NA+41269  28.980  15.779   1.792
72876ION    NA+41270  17.626  22.278  14.348
72877ION    NA+41271   4.993   1.467   1.579
72878ION    NA+41272  12.096   5.609  10.954
72879ION    NA+41273  15.405  18.945  14.748
72880ION    NA+41274  18.326  15.749  14.237
72881ION    NA+41275   2.245   0.595  11.984
72882ION    NA+41276  31.794   8.778   4.293
72883ION    NA+41277  17.923  20.380   2.412
72884ION    NA+41278  12.312  32.865   1.554
72885ION    NA+41279  30.170  18.645  11.204
72886ION    NA+41280  20.073   3.727  12.404
72887ION    NA+41281   7.369  41.349   1.435
72888ION    NA+41282  15.243  27.400   3.736
72889ION    NA+41283  43.067  30.601   0.463
72890ION    NA+41284   9.956   0.381  12.267
72891ION    NA+41285  24.693  27.457  11.677
72892ION    NA+41286  16.174  20.298   4.317
72893ION    NA+41287  25.784  20.756   3.760
72894ION    NA+41288  25.892  40.710  13.796
72895ION    NA+41289  28.088  21.634   1.193
72896ION    NA+41290  30.922  13.844  12.508
72897ION    NA+41291  11.385  16.675  13.750
72898ION    NA+41292  32.603   5.682   1.444
72899ION    NA+41293  30.384  39.307   1.226
72900ION    NA+41294  43.171   1.236   2.862
72901ION    NA+41295  13.641  38.531   3.261
72902ION    NA+41296   2.857  13.367  14.861
72903ION    NA+41297  35.359  25.589   1.899
72904ION    NA+41298  42.122  33.298  13.558
72905ION    NA+41299  37.448  36.388   3.760
72906ION    NA+41300   1.966  23.867   4.061
72907ION    NA+41301  24.237  43.841  12.844
72908ION    NA+41302  40.926  13.510   0.769
72909ION    NA+41303  37.116  23.677   1.416
72910ION    NA+41304  40.969  11.852  11.564
72911ION    NA+41305  10.562   3.594  10.906
72912ION    NA+41306  31.176  29.031   3.736
72913ION    NA+41307   6.180  23.632   3.114
72914ION    NA+41308  32.995  25.153   1.182
72915ION    NA+41309  25.070  34.109   1.924
72916ION    NA+41310  15.383   4.627   3.506
72917ION    NA+41311   2.495  20.079  13.828
72918ION    NA+41312   5.761   0.704   2.482
72919ION    NA+41313  19.724  19.841  11.863
72920ION    NA+41314  41.053  44.095   4.134
72921ION    NA+41315  19.748  14.613   3.571
72922ION    NA+41316  28.228   0.225  11.235
72923ION    NA+41317  42.845  26.536   5.281
72924ION    NA+41318  18.634  28.273  13.229
72925ION    NA+41319  16.082  44.207  11.906
72926ION    NA+41320  12.198  27.880   0.751
72927ION    NA+41321   0.156  11.542   3.399
72928ION    NA+41322  17.949  24.757   2.716
72929ION    NA+41323   6.931  43.120   3.212
72930ION    NA+41324   3.078  25.727  13.202
72931ION    NA+41325  38.281  11.328  12.683
72932ION    NA+41326   2.813  14.146   0.711
72933ION    NA+41327   7.431  37.800  14.757
72934ION    NA+41328   4.359  18.541   2.853
72935ION    NA+41329  28.746   6.137  14.410
72936ION    NA+41330  44.490  18.538   1.315
72937ION    NA+41331  38.900  35.902  12.342
72938ION    NA+41332  22.103  18.772   0.030
72939ION    NA+41333  31.031   1.236   3.132
72940ION    NA+41334  26.135  32.677  11.229
72941ION    NA+41335  26.720  15.551  13.608
72942ION    NA+41336  39.354   2.375   3.559
72943ION    NA+41337  26.184  27.560   2.739
72944ION    NA+41338  35.808  16.274   0.650
72945ION    NA+41339   5.996  19.497  13.558
72946ION    NA+41340  35.442   2.397  11.567
72947ION    NA+41341   5.104  10.179  13.992
72948ION    NA+41342  20.715  11.940  13.843
72949ION    NA+41343  24.203  22.501   4.393
72950ION    NA+41344  22.529   2.210   2.756
72951ION    NA+41345  16.116  40.377  10.677
72952ION    NA+41346   7.784   6.367  13.460
72953ION    NA+41347  19.277  39.662   0.616
72954ION    NA+41348  14.972   0.600   4.706
72955ION    NA+41349  22.206   7.807  14.014
72956ION    NA+41350   5.749  36.789  12.514
72957ION    NA+41351  22.771  10.451  13.448
72958ION    NA+41352  19.262  19.739  10.982
72959ION    NA+41353  29.850  36.836   1.522
72960ION    NA+41354  40.568  44.762   0.264
72961ION    NA+41355  36.919   3.779   1.016
72962ION    NA+41356  14.043  40.527  10.744
72963ION    NA+41357   0.364  31.450   3.988
72964ION    NA+41358  41.047  31.069   1.050
72965ION    NA+41359  35.579  30.524  10.787
72966ION    NA+41360  12.048  14.336  11.864
72967ION    NA+41361  20.753  29.169   0.661
72968ION    NA+41362  44.773   3.842   1.228
72969ION    NA+41363  38.320   4.325   2.774
72970ION    NA+41364  21.745  16.243   3.551
72971ION    NA+41365  20.239  32.392   4.193
72972ION    NA+41366   7.865  23.135  10.691
72973ION    NA+41367  11.958   2.128  11.602
72974ION    NA+41368  12.499  42.888  12.104
72975ION    NA+41369  43.051  40.880   0.271
72976ION    NA+41370  35.490  27.631   2.246
72977ION    NA+41371  18.521   5.670  12.245
72978ION    NA+41372  31.396  17.806  13.562
72979ION    NA+41373  31.054  27.976   0.365
72980ION    NA+41374  21.078  36.614   1.720
72981ION    NA+41375   1.210  17.271   0.609
72982ION    NA+41376  43.928  31.634  13.355
72983ION    NA+41377   7.568  21.260   1.890
72984ION    NA+41378   8.393  11.240   2.917
72985ION    NA+41379  29.091  18.155  12.320
72986ION    NA+41380  24.596  18.510  13.950
72987ION    NA+41381  32.094  24.302  13.617
72988ION    NA+41382   3.555  29.362  14.006
72989ION    NA+41383  18.966  37.209  11.471
72990ION    NA+41384  14.887  43.017  14.626
72991ION    NA+41385   5.778  24.613  12.230
72992ION    NA+41386   0.510  10.366  12.441
72993ION    NA+41387  10.655  39.618   4.801
72994ION    NA+41388   1.135  19.599   0.813
72995ION    NA+41389  34.913  37.126  13.396
72996ION    NA+41390   7.490   8.357   2.747
72997ION    NA+41391  13.075  32.490  14.805
72998ION    NA+41392  13.438  43.139   1.734
72999ION    NA+41393  32.995  22.619  11.567
73000ION    NA+41394  41.364  37.078  13.557
73001ION    NA+41395   4.773   0.303   1.500
73002ION    NA+41396  44.877  15.535  12.016
73003ION    NA+41397  36.254  19.423  14.360
73004ION    NA+41398  26.633   8.279   4.820
73005ION    NA+41399  15.740  17.072  12.358
73006ION    NA+41400  28.111  22.063  14.755
73007ION    NA+41401  25.505  14.364   0.739
73008ION    NA+41402  20.203   5.326  13.769
73009ION    NA+41403  18.344   2.954   0.030
73010ION    NA+41404  21.493  17.851  12.402
73011ION    NA+41405  35.848  13.863   1.277
73012ION    NA+41406   6.336  35.067   1.855
73013ION    NA+41407   7.804  36.308   3.748
73014ION    NA+41408  39.447  20.261  14.297
73015ION    NA+41409  20.567  34.634  13.735
73016ION    NA+41410  39.344   0.635   1.796
73017ION    NA+41411   4.545  39.957  14.886
73018ION    NA+41412  41.851  43.103  10.728
73019ION    NA+41413   1.658  24.011  12.443
73020ION    NA+41414  33.050  15.062   4.156
73021ION    NA+41415  14.825  33.787   2.309
73022ION    NA+41416  36.010   4.721  10.597
73023ION    NA+41417  27.282  33.034  13.656
73024ION    NA+41418  34.131  19.071   3.724
73025ION    NA+41419  29.771  33.357   4.076
73026ION    NA+41420  40.187  32.951  14.828
73027ION    NA+41421  42.844   9.775  12.824
73028ION    NA+41422  11.128   4.770  14.330
73029ION    NA+41423  31.841   3.375  11.835
73030ION    NA+41424  24.358  26.162   0.103
73031ION    NA+41425  19.277   9.250  11.952
73032ION    NA+41426  34.050  25.898   0.896
73033ION    NA+41427  41.048  31.400  12.820
73034ION    NA+41428  25.714  33.584  11.218
73035ION    NA+41429  22.253   3.457  13.709
73036ION    NA+41430   2.013  12.282   3.240
73037ION    NA+41431  23.831  26.222   2.267
73038ION    NA+41432  23.847  39.955  12.215
73039ION    NA+41433  12.048  14.989   9.880
73040ION    NA+41434  38.681   0.047  12.952
73041ION    NA+41435  29.220  29.082   0.395
73042ION    NA+41436  31.594  43.109   1.238
73043ION    NA+41437  41.545  15.021  12.565
73044ION    NA+41438  44.996   6.065   3.152
73045ION    NA+41439   8.485  23.684  11.279
73046ION    NA+41440  25.832   6.162   9.927
73047ION    NA+41441  26.735  27.901  10.917
73048ION    NA+41442  15.464  31.868  13.372
73049ION    NA+41443   2.078  25.211   3.556
73050ION    NA+41444  20.515  30.453  12.416
73051ION    NA+41445  41.505  25.931   1.777
73052ION    NA+41446   6.394   4.905   3.859
73053ION    NA+41447   4.716  37.199  11.773
73054ION    NA+41448  43.579  29.201   1.775
73055ION    NA+41449   4.006   3.055  14.487
73056ION    NA+41450  34.733   7.309  14.441
73057ION    NA+41451  41.489  27.196   2.412
73058ION    NA+41452  38.482  12.097   4.210
73059ION    NA+41453  34.168   8.803   2.277
73060ION    NA+41454   0.466  25.223   4.178
73061ION    NA+41455  44.121  34.371  10.802
73062ION    NA+41456  19.224  31.732   2.866
73063ION    NA+41457   4.725  15.904   0.701
73064ION    NA+41458  11.588  19.783  13.045
73065ION    NA+41459  24.570  41.353  12.947
73066ION    NA+41460  37.334  39.842  14.987
73067ION    NA+41461  29.607   7.962   4.576
73068ION    NA+41462  21.877  12.453   5.153
73069ION    NA+41463  25.616  20.929   1.190
73070ION    NA+41464  15.206  10.767   2.177
73071ION    NA+41465  19.008   4.256  11.699
73072ION    NA+41466   4.651  26.303  12.318
73073ION    NA+41467  11.012   0.535  13.421
73074ION    NA+41468  35.153  34.930  12.804
73075ION    NA+41469  42.389  34.779   0.506
73076ION    NA+41470   6.072  30.064  12.317
73077ION    NA+41471  34.564  14.755  12.551
73078ION    NA+41472  32.598  11.299   1.899
73079ION    NA+41473  41.950   1.875  11.857
73080ION    NA+41474  25.157  30.713   4.124
73081ION    NA+41475  39.427  22.113  14.446
73082ION    NA+41476  23.432  25.520  13.952
73083ION    NA+41477  36.920   0.092  12.675
73084ION    NA+41478   4.350  13.338   2.697
73085ION    NA+41479  27.424  18.646  12.514
73086ION    NA+41480  41.032  27.306   1.529
73087ION    NA+41481   1.501   4.879  13.168
73088ION    NA+41482  33.929  38.435   1.147
73089ION    NA+41483   0.457   2.654  10.474
73090ION    NA+41484  44.250   6.078   4.602
73091ION    NA+41485  33.528   8.846  13.988
73092ION    NA+41486  12.984  40.543  11.677
73093ION    NA+41487  21.318  43.796  14.347
73094ION    NA+41488  26.732  35.399  14.789
73095ION    NA+41489  14.652   5.879  14.956
73096ION    NA+41490   0.726  37.744   2.744
73097ION    NA+41491   5.175  31.768  14.747
73098ION    NA+41492   0.232  43.481  14.644
73099ION    NA+41493   5.373  26.936  12.597
73100ION    NA+41494  16.190  21.014  10.196
73101ION    NA+41495   5.407  42.060  14.734
73102ION    NA+41496   5.844  41.238   3.999
73103ION    NA+41497  40.943   5.755  11.112
73104ION    NA+41498  14.149   6.288   4.002
73105ION    NA+41499   1.725  22.777   4.760
73106ION    NA+41500  20.854  30.464   1.271
73107ION    NA+41501  33.241  24.968   2.616
73108ION    NA+41502  38.148   9.161   3.293
73109ION    NA+41503  36.053  43.359   2.195
73110ION    NA+41504  18.443   7.564   5.475
73111ION    NA+41505  21.474   5.329  10.671
73112ION    NA+41506  32.782  41.135   3.004
73113ION    NA+41507   1.250  40.502   3.190
73114ION    NA+41508   7.927  34.299   4.981
73115ION    NA+41509  27.968  20.610   0.383
73116ION    NA+41510   5.113  30.196   3.207
73117ION    NA+41511  39.289  43.578  12.934
73118ION    NA+41512  15.588  30.762  10.863
73119ION    NA+41513   7.336   5.307  11.624
73120ION    NA+41514  35.611  20.287   1.865
73121ION    NA+41515  17.571  24.525  13.541
73122ION    NA+41516  15.078  39.895  13.482
73123ION    NA+41517  35.443  29.709   2.147
73124ION    NA+41518  28.679  13.289   3.531
73125ION    NA+41519  27.019  17.763   2.727
73126ION    NA+41520  34.080  16.619  11.587
73127ION    NA+41521  21.644  17.378  14.913
73128ION    NA+41522   6.701  28.035  10.574
73129ION    NA+41523  43.523  12.018  11.697
73130ION    NA+41524  10.362   2.789   3.132
73131ION    NA+41525  23.096  23.981   2.707
73132ION    NA+41526  25.886  25.745  12.417
73133ION    NA+41527  42.285  19.089   4.698
73134ION    NA+41528  22.107  24.017   2.849
73135ION    NA+41529  13.712   6.194  13.871
73136ION    NA+41530   7.045  39.616  12.574
73137ION    NA+41531  13.369  42.548  12.463
73138ION    NA+41532   4.473  23.917   1.621
73139ION    NA+41533   0.362  16.735  11.470
73140ION    NA+41534  32.232   6.944   2.929
73141ION    NA+41535  33.327  17.047   5.131
73142ION    NA+41536   4.366  42.014  13.972
73143ION    NA+41537  16.745   5.203  11.502
73144ION    NA+41538  44.386  28.083   3.731
73145ION    NA+41539   1.258   0.489   0.175
73146ION    NA+41540  29.892   4.546  14.184
73147ION    NA+41541  26.877  38.797   4.069
73148ION    NA+41542  35.397  36.899  12.528
73149ION    NA+41543   3.318  27.538  10.088
73150ION    NA+41544  24.837  14.420   4.255
73151ION    NA+41545   2.210  12.754  10.245
73152ION    NA+41546  39.217  33.769   3.634
73153ION    NA+41547  16.741  42.590   2.871
73154ION    NA+41548   9.224  26.496  12.153
73155ION    NA+41549  17.562  29.735  11.661
73156ION    NA+41550  36.501   9.629  11.996
73157ION    NA+41551  37.648   1.219  14.828
73158ION    NA+41552   8.869  44.497  12.325
73159ION    NA+41553  21.534  29.166  14.850
73160ION    NA+41554   4.160  28.120   1.775
73161ION    NA+41555  10.177  44.070  12.620
73162ION    NA+41556  30.143  24.726   1.654
73163ION    NA+41557  28.513  40.660  14.863
73164ION    NA+41558  34.043  41.893   0.033
73165ION    NA+41559   6.168  42.188  11.924
73166ION    NA+41560  19.076   3.705   1.505
73167ION    NA+41561  10.188  36.074   4.635
73168ION    NA+41562  41.251  12.966   0.234
73169ION    NA+41563  23.289  12.126   0.720
73170ION    NA+41564  25.907  42.331   0.449
73171ION    NA+41565  32.410  24.004   3.412
73172ION    NA+41566  20.106  41.573  13.344
73173ION    NA+41567   8.213   5.531  12.049
73174ION    NA+41568   6.046   4.841  13.195
73175ION    NA+41569  22.825  26.463   1.567
73176ION    NA+41570  17.675  16.346   3.083
73177ION    NA+41571  38.442  37.413   0.542
73178ION    NA+41572  32.385   9.768  10.486
73179ION    NA+41573  29.654  39.262  11.668
73180ION    NA+41574   6.811   5.327  10.773
73181ION    NA+41575   6.739   2.377   0.641
73182ION    NA+41576  35.825  16.735   4.652
73183ION    NA+41577   7.740   3.565  14.468
73184ION    NA+41578  19.130  30.553   4.954
73185ION    NA+41579  25.636  10.747   1.442
73186ION    NA+41580  35.913  21.137   2.455
73187ION    NA+41581  32.477  30.053   1.692
73188ION    NA+41582  38.962  15.126   3.384
73189ION    NA+41583  21.494  11.059   2.143
73190ION    NA+41584  26.153  27.699  10.259
73191ION    NA+41585   6.656  21.202  12.881
73192ION    NA+41586  37.263  38.889   4.468
73193ION    NA+41587  14.184  17.520  12.878
73194ION    NA+41588   4.980  12.587  11.583
73195ION    NA+41589  24.900  27.077   2.679
73196ION    NA+41590  25.547  35.452   0.956
73197ION    NA+41591  30.697  27.527  13.102
73198ION    NA+41592  16.577  32.536   1.479
73199ION    NA+41593  42.050  34.886  12.488
73200ION    NA+41594  28.300   0.961   1.183
73201ION    NA+41595  13.307  36.601   0.369
73202ION    NA+41596  35.083  13.512  11.449
73203ION    NA+41597   6.450  24.380   1.655
73204ION    NA+41598  38.958  37.279   4.718
73205ION    NA+41599  23.004   1.970   3.818
73206ION    NA+41600  17.393   5.403   3.243
73207ION    NA+41601  43.662  26.428   0.977
73208ION    NA+41602  13.723  12.231   2.152
73209ION    NA+41603  31.632  15.939  11.531
73210ION    NA+41604  11.589  16.434   1.924
73211ION    NA+41605  12.022   9.207   0.665
73212ION    NA+41606  12.032  42.964  14.734
73213ION    NA+41607  18.052  32.911   0.105
73214ION    NA+41608   0.416   3.472   2.202
73215ION    NA+41609  16.181  38.983   2.872
73216ION    NA+41610  44.163  35.700  13.452
73217ION    NA+41611  12.796   7.652  10.954
73218ION    NA+41612  21.409  32.803  13.334
73219ION    NA+41613  12.941  27.072  13.902
73220ION    NA+41614  28.630   1.512  10.819
73221ION    NA+41615   3.242   3.554   9.895
73222ION    NA+41616  40.213   2.706   4.186
73223ION    NA+41617   7.597  17.077  11.708
73224ION    NA+41618   8.411  16.898   3.862
73225ION    NA+41619  13.398  35.929  13.001
73226ION    NA+41620  36.844  26.314   1.930
73227ION    NA+41621  12.200  35.483  14.519
73228ION    NA+41622  30.714   6.729  13.371
73229ION    NA+41623   6.471   2.692   3.621
73230ION    NA+41624   8.467  28.076   4.283
73231ION    NA+41625  10.648  12.054  14.711
73232ION    NA+41626  18.177  32.443   1.416
73233ION    NA+41627  16.481   5.904   0.716
73234ION    NA+41628  42.351  28.205  13.107
73235ION    NA+41629  21.110  33.864   1.991
73236ION    NA+41630  24.167  44.129  13.993
73237ION    NA+41631  42.014  34.832  10.400
73238ION    NA+41632  18.234  43.581  11.034
73239ION    NA+41633  35.164  22.760   1.761
73240ION    NA+41634  25.935  36.865  14.888
73241ION    NA+41635  15.954  28.536  13.202
73242ION    NA+41636   5.415  18.385  11.751
73243ION    NA+41637  29.196  16.629  13.854
73244ION    NA+41638  19.423  28.547   1.544
73245ION    NA+41639  20.667  39.515  14.053
73246ION    NA+41640  15.405  14.077  14.912
73247ION    NA+41641  43.306  32.648   1.948
73248ION    NA+41642  10.350  22.639   3.990
73249ION    NA+41643  14.893   2.790   1.067
73250ION    NA+41644   9.094  33.036  11.470
73251ION    NA+41645  21.839  12.873  13.968
73252ION    NA+41646  11.643  26.008  12.898
73253ION    NA+41647  28.244  26.248   9.902
73254ION    NA+41648   1.155   4.791   4.672
73255ION    NA+41649  27.097  33.587  14.876
73256ION    NA+41650  33.187   1.307   0.921
73257ION    NA+41651   8.592  19.037  13.097
73258ION    NA+41652  42.817  35.470  11.202
73259ION    NA+41653  14.689   2.852   3.522
73260ION    NA+41654  35.861  41.803  11.578
73261ION    NA+41655  21.759  26.305  14.388
73262ION    NA+41656  21.222  33.074   3.593
73263ION    NA+41657  15.417  14.716  14.266
73264ION    NA+41658  17.832  32.122   4.548
73265ION    NA+41659  41.914   2.125   3.527
73266ION    NA+41660  28.350   9.327  14.631
73267ION    NA+41661  23.045  42.149  13.670
73268ION    NA+41662   3.807  30.895  13.901
73269ION    NA+41663   9.638  31.326  11.133
73270ION    NA+41664  38.614  29.899   1.239
73271ION    NA+41665  36.415   6.891   3.255
73272ION    NA+41666  30.486   6.506  11.086
73273ION    NA+41667  16.649   8.442   3.071
73274ION    NA+41668  14.993  34.047   9.811
73275ION    NA+41669  35.527  25.709   3.284
73276ION    NA+41670  30.023   1.773  10.579
73277ION    NA+41671  23.319   4.262   2.570
73278ION    NA+41672  18.690  39.552  11.053
73279ION    NA+41673   1.951  18.227  10.936
73280ION    NA+41674  43.915  29.067  10.990
73281ION    NA+41675  17.528  36.547  12.754
73282ION    NA+41676   3.634  35.863   1.972
73283ION    NA+41677  13.575  35.576   0.405
73284ION    NA+41678   5.400   9.451  11.979
73285ION    NA+41679  21.519   6.187   3.713
73286ION    NA+41680   2.584  14.927   4.635
73287ION    NA+41681   0.323   7.376  11.906
73288ION    NA+41682   4.484  21.887  12.963
73289ION    NA+41683  27.656  12.130   0.791
73290ION    NA+41684  22.063  42.803  11.874
73291ION    NA+41685  23.471  16.703   0.743
73292ION    NA+41686  44.714   9.083   1.897
73293ION    NA+41687  28.651  32.092   1.268
73294ION    NA+41688  30.593  27.786   2.618
73295ION    NA+41689  39.065   8.362  14.650
73296ION    NA+41690  34.554  23.961   0.696
73297ION    NA+41691  31.904  39.178   5.313
73298ION    NA+41692  31.616  28.649  10.728
73299ION    NA+41693  43.814  38.653   1.594
73300ION    NA+41694  24.482  11.794   0.367
73301ION    NA+41695   5.938   0.762  12.716
73302ION    NA+41696  42.287   1.205  12.581
73303ION    NA+41697   6.146  31.737  12.401
73304ION    NA+41698  34.463   3.370  13.227
73305ION    NA+41699  31.761   4.994   1.628
73306ION    NA+41700   1.277  29.943   2.400
73307ION    NA+41701  25.534  27.255   4.760
73308ION    NA+41702   5.393  43.810   1.430
73309ION    NA+41703  26.963  32.606   0.749
73310ION    NA+41704   8.136  44.432  14.770
73311ION    NA+41705  33.462  37.405  10.872
73312ION    NA+41706  14.061  27.272  14.874
73313ION    NA+41707   7.856  30.977  13.117
73314ION    NA+41708  12.381  27.353  10.989
73315ION    NA+41709  15.213   7.744   1.580
73316ION    NA+41710   7.549  29.959   4.723
73317ION    NA+41711  24.780  39.170  12.769
73318ION    NA+41712  21.293  28.372   1.241
73319ION    NA+41713   5.159  26.653   4.074
73320ION    NA+41714  14.964  19.276  11.689
73321ION    NA+41715  43.736  36.033  10.448
73322ION    NA+41716  22.233  26.136   2.381
73323ION    NA+41717  39.363   7.752   2.217
73324ION    NA+41718  27.256  11.923  14.114
73325ION    NA+41719  25.233  34.188   4.068
73326ION    NA+41720  33.590  11.134  10.775
73327ION    NA+41721   4.837  34.981   5.325
73328ION    NA+41722  30.032  14.352   3.735
73329ION    NA+41723  31.970  11.034   0.634
73330ION    NA+41724  41.333  33.783  14.762
73331ION    NA+41725  34.659  44.041   4.198
73332ION    NA+41726  24.539  10.808  11.984
73333ION    NA+41727  34.374  25.173   3.792
73334ION    NA+41728   4.738  18.550   1.928
73335ION    NA+41729  33.415  12.224  13.893
73336ION    NA+41730   8.818  43.453  12.211
73337ION    NA+41731  30.086   6.116   0.870
73338ION    NA+41732  34.506  21.949  10.927
73339ION    NA+41733  42.957  12.788  13.876
73340ION    NA+41734   0.717  34.396  11.448
73341ION    NA+41735  37.209  16.764   1.730
73342ION    NA+41736  34.209  12.804   2.495
73343ION    NA+41737  34.974  17.395  10.942
73344ION    NA+41738  15.005  24.869   4.800
73345ION    NA+41739  39.403  14.651  11.991
73346ION    NA+41740   0.021   2.589   2.669
73347ION    NA+41741  36.848  21.431  12.508
73348ION    NA+41742  23.806  44.562  13.168
73349ION    NA+41743  12.912  21.921  11.804
73350ION    NA+41744  33.647  15.892   0.702
73351ION    NA+41745  16.156  15.572   3.743
73352ION    NA+41746  29.629  32.613  12.745
73353ION    NA+41747   3.916  15.931  11.546
73354ION    NA+41748  35.438   9.612  14.556
73355ION    NA+41749   3.206  39.630  14.869
73356ION    NA+41750   4.848   6.204   2.842
73357ION    NA+41751  16.030   2.277   2.921
73358ION    NA+41752  36.919  29.498  13.582
73359ION    NA+41753  18.923  36.972  10.500
73360ION    NA+41754  32.367  29.151   2.832
73361ION    NA+41755  34.971  34.791  11.117
73362ION    NA+41756  18.863  13.733  12.793
73363ION    NA+41757  30.488  31.505  13.981
73364ION    NA+41758  32.296  25.067   2.927
73365ION    NA+41759  26.505   4.975  12.897
73366ION    NA+41760   8.602  34.527   2.636
73367ION    NA+41761  11.344  44.864   2.219
73368ION    NA+41762  32.935  24.992  13.796
73369ION    NA+41763  22.771   0.977  13.107
73370ION    NA+41764  42.877  16.127   1.442
73371ION    NA+41765   8.184  17.658   3.414
73372ION    NA+41766  42.962  18.135  13.453
73373ION    NA+41767  42.506   7.965  12.508
73374ION    NA+41768  40.369  21.680  12.031
73375ION    NA+41769  29.908   5.127   1.358
73376ION    NA+41770  25.360  25.993   4.676
73377ION    NA+41771  19.630   0.061  11.294
73378ION    NA+41772  23.852  44.643   1.290
73379ION    NA+41773  41.550  18.521  12.570
73380ION    NA+41774  18.462  42.161   4.246
73381ION    NA+41775  43.284  12.551   3.103
73382ION    NA+41776  24.277  30.253  13.831
73383ION    NA+41777   5.504   2.043  13.395
73384ION    NA+41778  37.864  44.937  12.386
73385ION    NA+41779   3.251  15.407   0.890
73386ION    NA+41780  14.592  23.719  14.308
73387ION    NA+41781   4.688  26.457   2.337
73388ION    NA+41782  41.256  23.848  13.780
73389ION    NA+41783  42.520  29.854   4.350
73390ION    NA+41784  15.354  27.932  14.312
73391ION    NA+41785   1.949  19.561   2.790
73392ION    NA+41786  37.455  37.589  12.003
73393ION    NA+41787  15.804  32.326  14.655
73394ION    NA+41788  31.070  27.168  14.524
73395ION    NA+41789  10.689   3.852  12.530
73396ION    NA+41790  30.197  22.010   3.487
73397ION    NA+41791  24.878  16.779  11.612
73398ION    NA+41792  40.435  10.323   4.040
73399ION    NA+41793   6.591  30.248   1.960
73400ION    NA+41794  17.536  37.250  10.402
73401ION    NA+41795  13.893  13.128  13.602
73402ION    NA+41796  38.193  24.884   4.499
73403ION    NA+41797  14.011  33.670   4.614
73404ION    NA+41798  15.141  14.659   1.590
73405ION    NA+41799  31.764   1.994   4.662
73406ION    NA+41800  30.367  37.677   2.680
73407ION    NA+41801  28.458  35.624   2.186
73408ION    NA+41802  13.703  37.109   1.405
73409ION    NA+41803  13.597  16.065  13.555
73410ION    NA+41804  18.209  31.374  12.876
73411ION    NA+41805  34.895  37.312  11.133
73412ION    NA+41806  12.740  37.342   3.981
73413ION    NA+41807   8.547  38.044   0.938
73414ION    NA+41808   7.270  20.017   2.168
73415ION    NA+41809  12.010  42.434   0.626
73416ION    NA+41810  12.790  35.570  11.339
73417ION    NA+41811  10.326  33.908   4.358
73418ION    NA+41812  42.193  23.015  12.731
73419ION    NA+41813  23.166  42.191   1.805
73420ION    NA+41814  26.996  15.737  12.292
73421ION    NA+41815  33.657  11.501   3.129
73422ION    NA+41816   9.842  12.298  10.755
73423ION    NA+41817   0.426   3.510   3.742
73424ION    NA+41818  33.572   3.627  12.719
73425ION    NA+41819  20.021  14.942  10.704
73426ION    NA+41820  33.705  44.340   9.743
73427ION    NA+41821  43.306   6.773  10.621
73428ION    NA+41822  14.207  24.537   2.375
73429ION    NA+41823  11.196   4.289   3.584
73430ION    NA+41824  11.346  34.683  12.424
73431ION    NA+41825  17.818  17.147   4.119
73432ION    NA+41826  29.899   6.154  14.829
73433ION    NA+41827  25.132   7.663   0.088
73434ION    NA+41828  30.515  18.748  12.407
73435ION    NA+41829  22.068  17.573   0.860
73436ION    NA+41830   2.125   7.163  11.099
73437ION    NA+41831  35.359   8.861  13.830
73438ION    NA+41832  17.285  35.545  12.968
73439ION    NA+41833  15.641  34.053  14.961
73440ION    NA+41834  26.166  19.750  11.312
73441ION    NA+41835  10.659  39.143  13.445
73442ION    NA+41836   1.412  23.502  14.255
73443ION    NA+41837  30.384  29.838  14.472
73444ION    NA+41838  33.547  11.375  11.967
73445ION    NA+41839  14.305   0.625  13.879
73446ION    NA+41840  27.241   5.910   3.681
73447ION    NA+41841  28.121  42.531  13.520
73448ION    NA+41842   1.056  10.282  10.781
73449ION    NA+41843  38.860  11.642  13.931
73450ION    NA+41844  24.332  26.096  11.057
73451ION    NA+41845  41.408  27.928  13.546
73452ION    NA+41846   1.818  18.793   1.726
73453ION    NA+41847  36.133  36.018   4.972
73454ION    NA+41848  40.462  40.211  12.530
73455ION    NA+41849   8.660  36.184   0.456
73456ION    NA+41850  34.650  29.561   1.200
73457ION    NA+41851  17.115  27.658   2.418
73458ION    NA+41852  17.691   1.386  12.930
73459ION    NA+41853  14.627  32.771   2.445
73460ION    NA+41854  24.260  20.577  10.666
73461ION    NA+41855  17.547   4.766  13.803
73462ION    NA+41856  36.913  22.565  13.277
73463ION    NA+41857  20.181   6.016   4.857
73464ION    NA+41858  25.713  14.033   3.969
73465ION    NA+41859  14.251  22.882  13.880
73466ION    NA+41860   9.889  41.952   4.011
73467ION    NA+41861  41.148  34.800  11.016
73468ION    NA+41862  12.496  35.750  13.439
73469ION    NA+41863  36.248  23.408   2.689
73470ION    NA+41864  31.451  15.549  14.905
73471ION    NA+41865   6.028  37.713  13.094
73472ION    NA+41866   4.532   6.282  13.476
73473ION    NA+41867   9.592  38.352   0.988
73474ION    NA+41868   1.729  22.992   1.502
73475ION    NA+41869  15.904   0.783  14.267
73476ION    NA+41870   8.909   2.888   3.088
73477ION    NA+41871  29.505   5.373   4.880
73478ION    NA+41872  30.955  14.485  13.305
73479ION    NA+41873   3.922  32.594  13.025
73480ION    NA+41874   9.611   3.190   2.599
73481ION    NA+41875  41.211  17.121  12.534
73482ION    NA+41876   8.815   4.661   3.526
73483ION    NA+41877  39.996  25.087   5.193
73484ION    NA+41878  44.212  36.313   2.164
73485ION    NA+41879  38.716  28.507   1.502
73486ION    NA+41880   1.534  15.926   0.765
73487ION    NA+41881  17.318   5.682   1.258
73488ION    NA+41882  33.855   7.784  14.511
73489ION    NA+41883  18.345  26.936   3.375
73490ION    NA+41884  16.219   5.492   4.134
73491ION    NA+41885  26.684  31.981  14.763
73492ION    NA+41886   0.782  32.049   1.284
73493ION    NA+41887   4.923  33.244   0.300
73494ION    NA+41888  23.900  15.039  11.492
73495ION    NA+41889   5.549  40.264  12.667
73496ION    NA+41890  11.218  22.993   2.368
73497ION    NA+41891  32.746  17.230   0.977
73498ION    NA+41892  28.864  42.877  14.308
73499ION    NA+41893  36.306   7.046   0.074
73500ION    NA+41894   7.946  11.591  12.573
73501ION    NA+41895   3.808   9.623   2.879
73502ION    NA+41896   1.266   2.771   4.620
73503ION    NA+41897  18.900  12.238   4.153
73504ION    NA+41898  19.860  29.504   0.961
73505ION    NA+41899  31.313  10.756   1.334
73506ION    NA+41900  31.104   1.262  11.035
73507ION    NA+41901  35.046   7.603   2.790
73508ION    NA+41902   5.971   1.282   1.679
73509ION    NA+41903  44.020  18.365  11.882
73510ION    NA+41904  32.652   8.647  10.790
73511ION    NA+41905  23.999  23.544  13.223
73512ION    NA+41906  21.706   3.403   3.861
73513ION    NA+41907   8.638   7.286  14.020
73514ION    NA+41908  13.137  40.792   1.402
73515ION    NA+41909  39.804  31.943   3.593
73516ION    NA+41910   1.352  37.509  14.468
73517ION    NA+41911  42.855  40.036   1.699
73518ION    NA+41912  38.048  14.396   3.960
73519ION    NA+41913  15.029  22.714   2.666
73520ION    NA+41914  36.934  17.263  12.564
73521ION    NA+41915  38.678   9.137  14.919
73522ION    NA+41916  41.502  41.212  12.026
73523ION    NA+41917  33.139  24.937  12.771
73524ION    NA+41918  12.174  39.840   2.778
73525ION    NA+41919  38.894  28.745   4.272
73526ION    NA+41920  34.997  34.630   2.365
73527ION    NA+41921   5.976  30.038   0.927
73528ION    NA+41922  31.981  10.625   2.304
73529ION    NA+41923  31.393  31.330   4.635
73530ION    NA+41924  44.372  25.502   4.576
73531ION    NA+41925  18.141  16.237  13.106
73532ION    NA+41926  31.798  20.997   4.792
73533ION    NA+41927  34.151  24.258  11.558
73534ION    NA+41928  32.143  20.159   5.129
73535ION    NA+41929  25.861  11.358  14.947
73536ION    NA+41930   0.989  26.996   0.787
73537ION    NA+41931   2.064   6.611  10.268
73538ION    NA+41932  30.151   9.577   2.071
73539ION    NA+41933  21.448  27.187   2.486
73540ION    NA+41934  21.256   3.425  11.523
73541ION    NA+41935  13.398  44.091  14.180
73542ION    NA+41936  24.450  20.639  13.273
73543ION    NA+41937   0.026  34.776  13.489
73544ION    NA+41938   5.413  23.778  11.745
73545ION    NA+41939  21.343   6.270   4.977
73546ION    NA+41940   4.200   7.150  11.818
73547ION    NA+41941  13.300   9.895  11.188
73548ION    NA+41942  35.100  25.915  14.932
73549ION    NA+41943   1.933  17.802   0.716
73550ION    NA+41944  26.516  14.960  12.278
73551ION    NA+41945  36.692  30.844  12.847
73552ION    NA+41946  40.809  28.191   0.476
73553ION    NA+41947  27.224  26.895  12.983
73554ION    NA+41948  12.209   3.278   2.469
73555ION    NA+41949   8.983  13.615   1.513
73556ION    NA+41950   5.099  10.298   9.710
73557ION    NA+41951  15.554  41.224   4.161
73558ION    NA+41952  36.895  33.828   0.248
73559ION    NA+41953  23.166  23.507   3.585
73560ION    NA+41954   6.963  22.272   2.292
73561ION    NA+41955   9.756  28.821  14.721
73562ION    NA+41956  23.333  34.724  13.458
73563ION    NA+41957  13.832  23.575  11.913
73564ION    NA+41958   6.321  17.432   0.236
73565ION    NA+41959  30.219  39.309   5.018
73566ION    NA+41960  26.185  16.874  11.205
73567ION    NA+41961  35.450  25.199   4.556
73568ION    NA+41962  43.042  20.114  13.998
73569ION    NA+41963  10.415   1.182  12.293
73570ION    NA+41964  38.858   3.812  12.861
73571ION    NA+41965  10.791   0.377   3.942
73572ION    NA+41966  11.159  19.177  11.105
73573ION    NA+41967   2.887  24.166   3.701
73574ION    NA+41968  17.937  40.318   1.695
73575ION    NA+41969  17.997  36.304  11.901
73576ION    NA+41970  18.635  23.886   2.929
73577ION    NA+41971  42.265  40.368   4.142
73578ION    NA+41972  44.470  35.212  11.220
73579ION    NA+41973  36.439  26.503  12.512
73580ION    NA+41974  41.549  26.265   5.292
73581ION    NA+41975  26.920  29.396   0.331
73582ION    NA+41976  18.621  42.778   0.909
73583ION    NA+41977   6.405  25.446   0.171
73584ION    NA+41978   5.706  31.347  13.550
73585ION    NA+41979   9.679  13.491   1.043
73586ION    NA+41980  11.269   3.878   1.830
73587ION    NA+41981  40.797  28.189  12.370
73588ION    NA+41982  25.249  38.318   3.287
73589ION    NA+41983  11.339  12.500   3.584
73590ION    NA+41984  17.548  20.107  12.882
73591ION    NA+41985  32.003  41.758   4.062
73592ION    NA+41986  43.421  22.477   3.617
73593ION    NA+41987  23.555  41.044  11.247
73594ION    NA+41988   9.585  23.120   3.348
73595ION    NA+41989  26.043  17.631   2.425
73596ION    NA+41990  43.408   3.677   2.730
73597ION    NA+41991  27.518  17.146   4.323
73598ION    NA+41992   1.281  15.090   3.166
73599ION    NA+41993   8.820  13.703  13.709
73600ION    NA+41994  37.144   6.336   0.719
73601ION    NA+41995  27.556  14.419  12.430
73602ION    NA+41996  13.853   0.643  12.561
73603ION    NA+41997   8.714  25.241   5.262
73604ION    NA+41998  22.974  29.087   2.607
73605ION    NA+41999  35.341  23.347   2.715
73606ION    NA+42000   5.157  40.574   3.258
73607ION    NA+42001  23.534   8.197   3.949
73608ION    NA+42002  27.417   0.316   4.117
73609ION    NA+42003  35.991  39.630  14.007
73610ION    NA+42004   9.352  25.589   2.867
73611ION    NA+42005  32.126  29.473   9.668
73612ION    NA+42006  44.586   6.956  12.666
73613ION    NA+42007  15.428  16.681   3.971
73614ION    NA+42008  22.933  29.082  13.086
73615ION    NA+42009  40.292   0.918   1.647
73616ION    NA+42010  42.157  10.490  12.955
73617ION    NA+42011  36.647  16.468   2.329
73618ION    NA+42012  24.762   7.913   3.767
73619ION    NA+42013  14.230   8.489  12.671
73620ION    NA+42014  29.421  36.325  14.228
73621ION    NA+42015  34.015   1.283   2.229
73622ION    NA+42016  27.723  30.119  11.684
73623ION    NA+42017  28.266  25.618   0.265
73624ION    NA+42018  23.445  18.729  12.875
73625ION    NA+42019   8.728  21.582  10.885
73626ION    NA+42020  35.086  21.593   3.918
73627ION    NA+42021  18.977  32.371  10.744
73628ION    NA+42022   0.421  35.018   3.572
73629ION    NA+42023  23.187  19.598  12.647
73630ION    NA+42024   1.999  36.677  11.435
73631ION    NA+42025  25.016  39.000  14.859
73632ION    NA+42026  34.084  36.800  12.891
73633ION    NA+42027   3.552  27.702   1.621
73634ION    NA+42028  23.011  13.393  11.052
73635ION    NA+42029   5.244   1.260  13.960
73636ION    NA+42030  11.347  10.472  11.384
73637ION    NA+42031  35.024  15.204  11.912
73638ION    NA+42032  42.499  29.878  14.792
73639ION    NA+42033  36.790  28.884  10.876
73640ION    NA+42034  25.747  13.129  10.729
73641ION    NA+42035  16.192   7.657   4.056
73642ION    NA+42036   3.851  43.925  10.499
73643ION    NA+42037  20.868   2.019  14.656
73644ION    NA+42038   1.854  23.467  11.628
73645ION    NA+42039  27.063  35.298   1.386
73646ION    NA+42040   9.940   6.728   4.199
73647ION    NA+42041  22.598  22.593  12.992
73648ION    NA+42042   4.349  30.963   0.299
73649ION    NA+42043  32.561  41.453   1.515
73650ION    NA+42044  21.625  15.539  12.965
73651ION    NA+42045   0.761  21.318  12.513
73652ION    NA+42046  32.271   5.707  13.482
73653ION    NA+42047  33.366   2.805  13.352
73654ION    NA+42048  20.155  25.549   3.920
73655ION    NA+42049  18.288   5.462   3.084
73656ION    NA+42050  27.790  37.216   9.691
73657ION    NA+42051  38.134  37.233  12.888
73658ION    NA+42052  42.939  31.118  10.901
73659ION    NA+42053  15.264  21.029   4.514
73660ION    NA+42054  28.295  13.491   2.743
73661ION    NA+42055  22.366  18.594   2.275
73662ION    NA+42056  24.174  18.135  12.840
73663ION    NA+42057  34.789  37.621   2.544
73664ION    NA+42058  39.411   4.414  10.923
73665ION    NA+42059   4.740  20.460   2.330
73666ION    NA+42060  28.024  38.097   4.463
73667ION    NA+42061  21.877  44.508  14.239
73668ION    NA+42062  34.587  43.125   4.499
73669ION    NA+42063   1.744  28.839   2.070
73670ION    NA+42064  34.279  34.761  13.334
73671ION    NA+42065   4.984  13.705   1.378
73672ION    NA+42066   9.167  10.985  13.117
73673ION    NA+42067  19.368  28.392   2.934
73674ION    NA+42068  29.805  19.997   4.943
73675ION    NA+42069  13.117  11.217   3.705
73676ION    NA+42070  11.743   9.226  11.678
73677ION    NA+42071  29.395  43.939  12.646
73678ION    NA+42072  44.991  37.137  10.853
73679ION    NA+42073  44.027   6.554  11.941
73680ION    NA+42074  19.870  44.762   1.785
73681ION    NA+42075  37.116  15.577  12.451
73682ION    NA+42076  31.622   9.567  11.384
73683ION    NA+42077  37.268   3.580   1.932
73684ION    NA+42078  41.426  30.207   3.087
73685ION    NA+42079  35.711   8.170   3.433
73686ION    NA+42080   6.410   9.623  11.978
73687ION    NA+42081  27.283  19.736  10.898
73688ION    NA+42082  44.111   0.965   4.135
73689ION    NA+42083  30.123  16.018  14.372
73690ION    NA+42084  44.001  23.453   1.157
73691ION    NA+42085  16.780  25.699  13.426
73692ION    NA+42086  43.771   8.056  14.032
73693ION    NA+42087  11.201  27.135  12.042
73694ION    NA+42088  37.466   9.580  12.868
73695ION    NA+42089  32.648  22.134   1.462
73696ION    NA+42090  20.787   0.242  11.185
73697ION    NA+42091  27.613  18.329  10.736
73698ION    NA+42092  39.316  12.644  14.770
73699ION    NA+42093  37.025   5.766   2.179
73700ION    NA+42094  39.878  42.878   4.447
73701ION    NA+42095   4.754   0.144   4.951
73702ION    NA+42096  37.628  25.065  12.909
73703ION    NA+42097   8.142  33.928  12.135
73704ION    NA+42098  26.335  37.969  10.751
73705ION    NA+42099   0.479  16.822   4.516
73706ION    NA+42100  40.512  24.178   2.604
73707ION    NA+42101  39.791  31.848  11.564
73708ION    NA+42102  12.914  40.271  10.815
73709ION    NA+42103  28.336   4.634  14.927
73710ION    NA+42104  43.861  32.837  10.666
73711ION    NA+42105  18.032  18.500   3.512
73712ION    NA+42106   5.333   8.637  11.329
73713ION    NA+42107  44.262   8.905  10.850
73714ION    NA+42108  30.154  31.850  10.493
73715ION    NA+42109  17.377  39.885   4.928
73716ION    NA+42110  36.263   3.669   3.063
73717ION    NA+42111  14.586  33.186   3.446
73718ION    NA+42112  35.561  10.199   0.714
73719ION    NA+42113  29.752  17.097   4.801
73720ION    NA+42114  14.794  39.358  12.359
73721ION    NA+42115  27.754  44.058   3.775
73722ION    NA+42116  38.101  10.159   2.030
73723ION    NA+42117  32.004  39.145   3.882
73724ION    NA+42118  16.181  43.772   0.777
73725ION    NA+42119  22.611   6.944   4.159
73726ION    NA+42120  38.711  18.300  10.961
73727ION    NA+42121  22.743  18.203  12.125
73728ION    NA+42122  32.997  34.876  12.368
73729ION    NA+42123  35.432  40.329   4.657
73730ION    NA+42124  15.405  43.916  11.565
73731ION    NA+42125   2.460   9.416   0.426
73732ION    NA+42126   0.391  13.164  12.593
73733ION    NA+42127  38.327  44.100   0.153
73734ION    NA+42128  13.024   8.799   4.012
73735ION    NA+42129  40.570   3.879  14.263
73736ION    CL-42130  21.786  23.241   0.228
73737ION    CL-42131  18.447   4.680   0.150
73738ION    CL-42132  33.797  14.076  14.814
73739ION    CL-42133  20.658  43.817   4.192
73740ION    CL-42134   1.219  14.905  12.752
73741ION    CL-42135  38.830  24.818  12.134
73742ION    CL-42136  20.103  39.366   2.832
73743ION    CL-42137  21.581  25.887  14.354
73744ION    CL-42138   2.746  43.036  14.106
73745ION    CL-42139   2.422   4.846  12.300
73746ION    CL-42140  29.878   4.616  14.626
73747ION    CL-42141  41.495  41.642  11.874
73748ION    CL-42142  41.496  27.142  12.218
73749ION    CL-42143  40.906  31.177  12.460
73750ION    CL-42144  13.029   6.370  11.050
73751ION    CL-42145  33.867  11.895   3.021
73752ION    CL-42146  18.123  41.327   3.700
73753ION    CL-42147  39.998   2.477   2.103
73754ION    CL-42148  26.060  34.040   2.796
73755ION    CL-42149  24.832  13.098   3.338
73756ION    CL-42150  31.682  12.820   0.990
73757ION    CL-42151   3.810  36.338   2.851
73758ION    CL-42152  26.024  19.005   3.307
73759ION    CL-42153  27.765  10.434  11.779
73760ION    CL-42154   5.345  13.232  14.364
73761ION    CL-42155  28.286  39.635  14.133
73762ION    CL-42156   7.772  27.927  12.876
73763ION    CL-42157  14.245  16.426   2.616
73764ION    CL-42158  24.551  32.690   0.577
73765ION    CL-42159  22.806   6.755   3.805
73766ION    CL-42160  35.850  20.599  11.755
73767ION    CL-42161  36.385  34.862   0.911
73768ION    CL-42162  10.675  15.595   1.284
73769ION    CL-42163  36.002  18.266  10.898
73770ION    CL-42164  26.098   7.835   2.224
73771ION    CL-42165  43.816  27.594   1.647
73772ION    CL-42166   7.700  31.367  13.270
73773ION    CL-42167  28.269  43.463   9.863
73774ION    CL-42168  24.982  44.463   0.229
73775ION    CL-42169  34.476   1.273  11.990
73776ION    CL-42170  11.880  26.138   0.057
73777ION    CL-42171  19.608  21.427   2.762
73778ION    CL-42172   2.097  25.429   3.972
73779ION    CL-42173  31.569   3.615   9.944
73780ION    CL-42174  34.296  43.111  13.885
73781ION    CL-42175  32.998   0.493  13.294
73782ION    CL-42176   7.486   9.825  12.022
73783ION    CL-42177  21.870  10.512  14.449
73784ION    CL-42178  10.033  37.030  11.126
73785ION    CL-42179  38.789   8.884  12.900
73786ION    CL-42180  37.782   1.756   1.860
73787ION    CL-42181   1.177  37.494  12.439
73788ION    CL-42182  36.298  22.108   2.866
73789ION    CL-42183   5.133  11.533  14.926
73790ION    CL-42184  14.050   0.404  14.185
73791ION    CL-42185  12.829   7.287  13.785
73792ION    CL-42186   9.448  44.301   0.789
73793ION    CL-42187   1.454   2.014   0.586
73794ION    CL-42188   7.254  34.729   2.997
73795ION    CL-42189  20.763  24.440   1.846
73796ION    CL-42190  16.300   5.431   0.161
73797ION    CL-42191  35.251  26.628   0.969
73798ION    CL-42192  42.795  18.101   2.256
73799ION    CL-42193  20.451  14.923  14.093
73800ION    CL-42194  13.155  43.400   3.797
73801ION    CL-42195   3.163  25.270  12.217
73802ION    CL-42196  13.367  19.984  13.085
73803ION    CL-42197  20.923  25.237  12.814
73804ION    CL-42198  27.576  40.844   2.607
73805ION    CL-42199  41.633  35.033  12.562
73806ION    CL-42200  41.778  14.629   2.747
73807ION    CL-42201   6.502  23.325   3.180
73808ION    CL-42202  38.632  18.770  13.029
73809ION    CL-42203  40.200  32.182   3.691
73810ION    CL-42204  12.422   9.132  13.527
73811ION    CL-42205  15.836  32.201   0.084
73812ION    CL-42206  28.214  32.448   0.152
73813ION    CL-42207   7.718  16.342  13.058
73814ION    CL-42208  38.264  30.102  13.774
73815ION    CL-42209   2.031  13.838  11.632
73816ION    CL-42210   7.795  19.141  10.805
73817ION    CL-42211  39.525  43.204  13.001
73818ION    CL-42212  42.912  33.912   4.141
73819ION    CL-42213  25.519  23.324  12.593
73820ION    CL-42214  29.204  26.560   3.679
73821ION    CL-42215   4.517  22.934   2.497
73822ION    CL-42216   3.782  28.994  14.120
73823ION    CL-42217  27.322   6.782   4.975
73824ION    CL-42218  43.695  15.071  12.925
73825ION    CL-42219   2.626  38.518  14.549
73826ION    CL-42220  29.659  43.985  13.015
73827ION    CL-42221  32.738   4.426   0.700
73828ION    CL-42222   4.062  16.181   1.550
73829ION    CL-42223  41.403  12.903  14.024
73830ION    CL-42224  34.085  28.510  12.465
73831ION    CL-42225  15.690  27.639  14.276
73832ION    CL-42226   7.134  14.064   2.234
73833ION    CL-42227  18.698  23.250   4.273
73834ION    CL-42228   4.925  15.024   5.384
73835ION    CL-42229  22.183  12.542  12.045
73836ION    CL-42230   5.270  31.927   0.167
73837ION    CL-42231   3.923  19.483  13.999
73838ION    CL-42232  18.307  26.054  13.054
73839ION    CL-42233  35.375  42.928  14.781
73840ION    CL-42234  43.608  42.514  13.797
73841ION    CL-42235  33.575  17.101  13.586
73842ION    CL-42236  27.038  20.303   4.482
73843ION    CL-42237   3.218  43.613   5.083
73844ION    CL-42238  20.692   6.732  14.635
73845ION    CL-42239  26.436   1.340  12.402
73846ION    CL-42240  41.828  19.083   4.722
73847ION    CL-42241  10.105  28.633  14.500
73848ION    CL-42242  17.854  36.441  13.044
73849ION    CL-42243  35.220  10.262   1.009
73850ION    CL-42244  10.977   9.527  10.660
73851ION    CL-42245  32.504   9.121   1.890
73852ION    CL-42246  14.559   0.928   3.603
73853ION    CL-42247  25.281  34.891   5.066
73854ION    CL-42248  40.368  20.707  13.041
73855ION    CL-42249   5.932  15.548  11.774
73856ION    CL-42250  35.095  15.413  11.515
73857ION    CL-42251  28.325   2.179   4.871
73858ION    CL-42252  17.554  29.040  10.634
73859ION    CL-42253   7.918  28.965   0.337
73860ION    CL-42254  23.650  10.364  11.076
73861ION    CL-42255  32.862  20.134  14.347
73862ION    CL-42256   6.659   7.249  14.512
73863ION    CL-42257  44.569  29.937  10.800
73864ION    CL-42258  39.861  13.337   4.224
73865ION    CL-42259  18.531   7.604  12.959
73866ION    CL-42260  26.214  36.454   3.717
73867ION    CL-42261  31.124  12.031  10.904
73868ION    CL-42262  32.622  30.988  13.888
73869ION    CL-42263   0.704  23.075  12.007
73870ION    CL-42264  38.290  34.023   1.505
73871ION    CL-42265   3.849   0.254   3.170
73872ION    CL-42266  11.751  32.605   3.639
73873ION    CL-42267  33.048   2.212   4.135
73874ION    CL-42268  28.498  11.001  10.767
73875ION    CL-42269  15.284  43.483  11.521
73876ION    CL-42270  23.252  35.485   1.493
73877ION    CL-42271  43.766  26.219   1.356
73878ION    CL-42272  31.144  40.174   0.527
73879ION    CL-42273  41.849  27.182   4.686
73880ION    CL-42274  38.497   8.450  10.340
73881ION    CL-42275   2.242  30.667  13.470
73882ION    CL-42276   9.734   9.202  10.966
73883ION    CL-42277   1.553  17.602   0.532
73884ION    CL-42278  26.231  19.432  13.686
73885ION    CL-42279   4.677  26.996  13.951
73886ION    CL-42280   0.945  41.036   0.267
73887ION    CL-42281  26.942  38.057   1.379
73888ION    CL-42282   9.908  21.623   1.662
73889ION    CL-42283  16.755  29.848  13.411
73890ION    CL-42284  11.334  22.146  13.976
73891ION    CL-42285  25.730  31.138   1.400
73892ION    CL-42286  15.828  36.160   3.621
73893ION    CL-42287  29.677  37.013  11.687
73894ION    CL-42288   5.839  22.699  13.197
73895ION    CL-42289  20.043  11.039   3.457
73896ION    CL-42290   1.116  24.686  13.610
73897ION    CL-42291  19.686  15.234  10.766
73898ION    CL-42292   9.815  23.493  12.505
73899ION    CL-42293  12.029  18.783   5.116
73900ION    CL-42294   0.309  20.028   1.758
73901ION    CL-42295  43.060  14.958  13.689
73902ION    CL-42296  42.538  35.044   4.490
73903ION    CL-42297  28.409  10.185   0.537
73904ION    CL-42298   4.996   4.396   0.843
73905ION    CL-42299   7.525  13.362   0.151
73906ION    CL-42300  29.630   8.763   4.976
73907ION    CL-42301  29.278  37.320  14.029
73908ION    CL-42302  24.450  10.830  14.389
73909ION    CL-42303  10.223   0.753  12.266
73910ION    CL-42304  13.830  15.063  12.682
73911ION    CL-42305  14.823  17.929   0.563
73912ION    CL-42306  14.280  29.037   3.351
73913ION    CL-42307   6.939   2.747   0.441
73914ION    CL-42308  43.695  38.181   2.956
73915ION    CL-42309  25.701  18.625  13.427
73916ION    CL-42310  24.225  25.780   0.298
73917ION    CL-42311   7.513  29.498   4.744
73918ION    CL-42312  27.680  33.328  11.108
73919ION    CL-42313  19.635  31.883   2.781
73920ION    CL-42314  22.389  23.845   4.591
73921ION    CL-42315  17.799  42.917  12.802
73922ION    CL-42316  12.883   8.046  10.773
73923ION    CL-42317  39.411  41.429   1.417
73924ION    CL-42318   1.613  15.624  13.753
73925ION    CL-42319  17.689  20.705  14.311
73926ION    CL-42320   6.044  40.263  14.883
73927ION    CL-42321  23.667   9.889   4.527
73928ION    CL-42322  17.088  34.050  14.566
73929ION    CL-42323  32.607  33.566  14.261
73930ION    CL-42324  23.155  16.738  11.086
73931ION    CL-42325  16.566  35.633  12.147
73932ION    CL-42326  33.502   2.392  13.243
73933ION    CL-42327  16.852  16.711  12.176
73934ION    CL-42328  41.774  25.954   4.989
73935ION    CL-42329  36.962  15.984   4.686
73936ION    CL-42330  25.039  39.239  11.019
73937ION    CL-42331  38.702  43.885   0.030
73938ION    CL-42332  36.588  27.237   2.671
73939ION    CL-42333  40.334  19.711  12.965
73940ION    CL-42334  27.062  24.195   0.380
73941ION    CL-42335  34.677  21.720   4.037
73942ION    CL-42336  27.273  16.076  12.402
73943ION    CL-42337  38.590   5.309   1.067
73944ION    CL-42338  44.622  30.250   4.933
73945ION    CL-42339  26.269  28.566   1.770
73946ION    CL-42340  25.693  13.838   3.567
73947ION    CL-42341  22.030  36.478  14.091
73948ION    CL-42342   3.609   9.564   1.104
73949ION    CL-42343   8.803  38.707  14.902
73950ION    CL-42344  20.645  13.797   2.080
73951ION    CL-42345  33.812  20.627   2.225
73952ION    CL-42346  15.465   8.169  10.742
73953ION    CL-42347  34.656  19.722   1.961
73954ION    CL-42348  24.001   4.156  12.025
73955ION    CL-42349  13.983  41.027   5.162
73956ION    CL-42350   2.474  25.029   3.368
73957ION    CL-42351  38.463  38.615   3.625
73958ION    CL-42352  44.220  42.985   1.427
73959ION    CL-42353  25.911  17.782   3.675
73960ION    CL-42354  12.684  35.829  11.684
73961ION    CL-42355  21.504  26.521  13.046
73962ION    CL-42356   0.930  14.826  10.723
73963ION    CL-42357  37.968  22.151  13.902
73964ION    CL-42358   2.924  21.476  13.931
73965ION    CL-42359  43.422  16.812   3.706
73966ION    CL-42360   4.057  42.975   2.248
73967ION    CL-42361  11.278  26.676  10.404
73968ION    CL-42362   1.292  38.912   2.656
73969ION    CL-42363   1.878   3.880   1.888
73970ION    CL-42364  27.343  10.028   3.721
73971ION    CL-42365  33.099  15.080   3.707
73972ION    CL-42366   0.461  11.216   3.396
73973ION    CL-42367  39.166  39.959  14.936
73974ION    CL-42368  27.109  23.526  12.683
73975ION    CL-42369  38.897  40.280   4.576
73976ION    CL-42370   5.156  10.490  11.073
73977ION    CL-42371  36.559   6.306   4.922
73978ION    CL-42372  25.949  40.328  13.549
73979ION    CL-42373   7.481  35.189  10.715
73980ION    CL-42374   3.301  17.308  11.543
73981ION    CL-42375  24.703  30.216   5.070
73982ION    CL-42376  16.701  41.574   4.179
73983ION    CL-42377  43.567  42.708  14.814
73984ION    CL-42378  13.407  35.271   0.122
73985ION    CL-42379   9.884  39.990   2.620
73986ION    CL-42380  37.809  37.860  12.048
73987ION    CL-42381  20.795  33.847   0.325
73988ION    CL-42382  12.654  31.034  13.728
73989ION    CL-42383   4.010  31.924   1.074
73990ION    CL-42384  20.400  34.667  12.099
73991ION    CL-42385  32.171   4.177   0.043
73992ION    CL-42386   0.948  39.919  10.278
73993ION    CL-42387   5.768   4.014   1.351
73994ION    CL-42388  15.812  16.571   2.207
73995ION    CL-42389  13.978  13.628   4.524
73996ION    CL-42390  22.880  35.980  13.656
73997ION    CL-42391   8.207   3.764   1.345
73998ION    CL-42392  19.923  11.700   2.580
73999ION    CL-42393  32.470  22.602  12.942
74000ION    CL-42394  39.635  43.115   2.538
74001ION    CL-42395  24.325  12.792  14.493
74002ION    CL-42396  33.191  41.093   3.184
74003ION    CL-42397  36.390  11.729  10.744
74004ION    CL-42398  32.488  26.163   3.687
74005ION    CL-42399  34.476   2.665   1.376
74006ION    CL-42400   1.902  39.990  14.446
74007ION    CL-42401  12.045  13.290   0.776
74008ION    CL-42402  17.973  41.080   4.658
74009ION    CL-42403  14.888  41.221  12.402
74010ION    CL-42404  40.186  20.932  10.725
74011ION    CL-42405   0.022  31.157   4.004
74012ION    CL-42406  23.464  28.277   0.329
74013ION    CL-42407  29.986  20.734  13.539
74014ION    CL-42408  34.887   4.988  13.481
74015ION    CL-42409  37.915   9.711  10.279
74016ION    CL-42410  22.740  26.153   4.329
74017ION    CL-42411  43.078   0.175  11.297
74018ION    CL-42412  39.505  28.632  14.337
74019ION    CL-42413  30.320  20.509   3.875
74020ION    CL-42414  41.086  20.643   3.403
74021ION    CL-42415   4.318  21.510   0.341
74022ION    CL-42416  18.010  12.823   1.131
74023ION    CL-42417  16.386  10.260   4.056
74024ION    CL-42418  12.498  38.690   5.326
74025ION    CL-42419  19.038   9.028   3.118
74026ION    CL-42420  19.569   9.335  14.209
74027ION    CL-42421  34.924  42.380  13.335
74028ION    CL-42422  36.727  13.401   0.249
74029ION    CL-42423  42.005  22.962  13.134
74030ION    CL-42424  30.009   9.124   2.005
74031ION    CL-42425   5.850  18.892   1.381
74032ION    CL-42426   3.669  44.531   1.278
74033ION    CL-42427  30.334  32.829   1.852
74034ION    CL-42428  35.134  41.054   3.872
74035ION    CL-42429   8.608  32.022  13.535
74036ION    CL-42430  13.356   3.017  12.776
74037ION    CL-42431   3.232  27.417   1.793
74038ION    CL-42432  11.786  20.127   0.508
74039ION    CL-42433   8.668  18.173   1.371
74040ION    CL-42434  15.300   4.913  14.474
74041ION    CL-42435  10.156  30.834   0.633
74042ION    CL-42436  16.848  35.312   5.097
74043ION    CL-42437   9.349  13.734   1.246
74044ION    CL-42438   9.333  37.392  12.034
74045ION    CL-42439   5.792  38.816   2.638
74046ION    CL-42440  34.558  22.380  11.034
74047ION    CL-42441   0.076  13.394   4.028
74048ION    CL-42442  39.366  17.038  12.709
74049ION    CL-42443  27.113  41.154  10.512
74050ION    CL-42444  33.309  26.290  12.362
74051ION    CL-42445  17.762   3.033   4.953
74052ION    CL-42446  41.321  40.197  14.455
74053ION    CL-42447   1.627  43.623  13.046
74054ION    CL-42448  30.051  33.020   4.154
74055ION    CL-42449  28.873  25.998  14.156
74056ION    CL-42450  20.686   5.115  12.558
74057ION    CL-42451   0.809  18.211   0.807
74058ION    CL-42452  18.339  14.552  13.961
74059ION    CL-42453  11.353  11.388   3.050
74060ION    CL-42454   0.428  29.172   4.147
74061ION    CL-42455  20.660  15.847  13.772
74062ION    CL-42456  31.172  20.784   3.724
74063ION    CL-42457  37.011  16.516   2.056
74064ION    CL-42458  32.966  35.987  11.083
74065ION    CL-42459  20.366  29.413  13.779
74066ION    CL-42460  24.767  39.634  12.767
74067ION    CL-42461  16.489  44.057  12.040
74068ION    CL-42462  26.794  30.094  10.360
74069ION    CL-42463  27.891  12.513   0.705
74070ION    CL-42464  18.747  24.040   3.334
74071ION    CL-42465   5.386  27.037   4.069
74072ION    CL-42466   9.456   5.571  11.593
74073ION    CL-42467  20.058  44.550   1.435
74074ION    CL-42468  31.306  28.839   1.391
74075ION    CL-42469  17.649  22.784   2.744
74076ION    CL-42470  29.450  35.084   4.264
74077ION    CL-42471   3.653  22.040   3.681
74078ION    CL-42472  38.653  19.958  11.734
74079ION    CL-42473   4.889  20.615  11.762
74080ION    CL-42474  26.647  42.645   1.410
74081ION    CL-42475  26.512  43.959   0.070
74082ION    CL-42476  40.040  14.281   3.166
74083ION    CL-42477  34.886  24.513  14.404
74084ION    CL-42478  22.834  21.654  13.901
74085ION    CL-42479   5.685  11.334   3.712
74086ION    CL-42480   0.264   2.786  14.847
74087ION    CL-42481  12.990  43.050   1.743
74088ION    CL-42482  23.843  14.725  11.853
74089ION    CL-42483   9.739  28.813   2.003
74090ION    CL-42484  38.161   1.409  13.171
74091ION    CL-42485   8.323  10.207  12.414
74092ION    CL-42486  22.231  23.228   1.762
74093ION    CL-42487   6.368   0.744  12.594
74094ION    CL-42488  26.699   6.862   1.742
74095ION    CL-42489   9.479  26.000   4.846
74096ION    CL-42490  25.567  43.575   3.925
74097ION    CL-42491   0.705  16.558  14.343
74098ION    CL-42492   9.314   7.766  14.770
74099ION    CL-42493  26.760  33.571  14.556
74100ION    CL-42494   9.457  43.034   3.255
74101ION    CL-42495  18.763  16.695  11.513
74102ION    CL-42496  44.317  19.371   4.215
74103ION    CL-42497   4.764   2.569  11.559
74104ION    CL-42498  41.495   3.330  10.932
74105ION    CL-42499  39.863  44.749  13.138
74106ION    CL-42500  13.647  29.638  10.701
74107ION    CL-42501  38.241  12.356   1.568
74108ION    CL-42502  27.168  32.610  13.774
74109ION    CL-42503  42.429  38.897  12.600
74110ION    CL-42504   4.884  30.426   2.895
74111ION    CL-42505  16.082  12.111  12.011
74112ION    CL-42506  35.654  28.396  14.111
74113ION    CL-42507  44.819  36.281   0.532
74114ION    CL-42508  26.920  19.217   4.983
74115ION    CL-42509   5.563  20.571   4.174
74116ION    CL-42510   4.197   6.570  10.315
74117ION    CL-42511  39.120   7.835   2.593
74118ION    CL-42512  31.900  19.388  11.585
74119ION    CL-42513  43.145  10.097  12.724
74120ION    CL-42514   5.535   6.977   1.688
74121ION    CL-42515  22.701  22.672   2.448
74122ION    CL-42516   8.496   3.820   0.320
74123ION    CL-42517  44.829  39.545  13.033
74124ION    CL-42518  44.826  42.226  12.648
74125ION    CL-42519  35.342  17.647  10.857
74126ION    CL-42520  16.731   5.619  11.318
74127ION    CL-42521  17.301  28.076   2.336
74128ION    CL-42522  22.860  35.654   4.754
74129ION    CL-42523  41.635  37.678   2.143
74130ION    CL-42524   3.202   1.018   3.178
74131ION    CL-42525   9.983  31.150  14.700
74132ION    CL-42526   5.639  15.266  12.687
74133ION    CL-42527  44.768  31.899   0.069
74134ION    CL-42528  34.849  40.367  14.338
74135ION    CL-42529  40.158   4.840   5.021
74136ION    CL-42530  44.413  36.611   2.469
74137ION    CL-42531  18.092  18.954   9.724
74138ION    CL-42532  29.073  29.461  12.940
74139ION    CL-42533  42.412  20.797   3.634
74140ION    CL-42534   4.927   0.707  12.822
74141ION    CL-42535  16.947  44.865   0.350
74142ION    CL-42536   0.174  44.166   0.857
74143ION    CL-42537  21.338  32.507  12.993
74144ION    CL-42538  39.910  28.170   0.950
74145ION    CL-42539  33.190  31.792   3.292
74146ION    CL-42540  15.101  16.888   4.214
74147ION    CL-42541   1.452   7.439   0.582
74148ION    CL-42542  42.512   7.603  12.235
74149ION    CL-42543  40.040  38.375   4.519
74150ION    CL-42544   9.000   2.214  13.399
74151ION    CL-42545  23.992  34.615  12.358
74152ION    CL-42546  22.022  39.368  14.197
74153ION    CL-42547  43.402  25.448   3.218
74154ION    CL-42548  22.399  31.438  11.622
74155ION    CL-42549  14.828  13.186   0.839
74156ION    CL-42550  23.979  22.777   4.125
74157ION    CL-42551  28.112  32.484  14.122
74158ION    CL-42552  31.181  32.770   1.705
74159ION    CL-42553  17.525   2.826   2.296
74160ION    CL-42554  20.226   8.984  11.126
74161ION    CL-42555  22.164  28.334  11.638
74162ION    CL-42556  37.217  33.847   0.575
74163ION    CL-42557  10.124  29.959  14.369
74164ION    CL-42558  25.943  41.122  13.983
74165ION    CL-42559  13.621  42.790  12.183
74166ION    CL-42560  13.799  42.382   2.967
74167ION    CL-42561  33.960  32.567   1.157
74168ION    CL-42562  32.944   2.498   5.106
74169ION    CL-42563  35.626   5.680  11.948
74170ION    CL-42564  24.397  35.970   4.704
74171ION    CL-42565  11.697  15.116  12.779
74172ION    CL-42566  23.653  14.374   4.984
74173ION    CL-42567  44.914  42.042  14.952
74174ION    CL-42568   3.853  10.062   2.826
74175ION    CL-42569   9.428   1.626   4.088
74176ION    CL-42570  30.602  18.101  14.727
74177ION    CL-42571   9.600   1.106  13.934
74178ION    CL-42572  19.216  26.427  12.869
74179ION    CL-42573  26.695  15.384  12.343
74180ION    CL-42574   5.888   4.962   0.771
74181ION    CL-42575  20.382  25.701   0.264
74182ION    CL-42576  35.649  19.856   2.012
74183ION    CL-42577  16.529  32.137   3.015
74184ION    CL-42578  34.379  20.836   4.397
74185ION    CL-42579  42.886  42.073  13.462
74186ION    CL-42580  24.706  23.719  12.165
74187ION    CL-42581   4.134   4.473   0.342
74188ION    CL-42582   8.273  36.993   1.458
74189ION    CL-42583  20.864   1.723  11.561
74190ION    CL-42584  39.544  27.655   3.164
74191ION    CL-42585   1.811  26.900   2.514
74192ION    CL-42586  15.404   0.403   3.173
74193ION    CL-42587  42.494   9.150   4.270
74194ION    CL-42588   6.712   0.831  10.867
74195ION    CL-42589   9.373  44.261   3.743
74196ION    CL-42590   1.645  23.104  14.235
74197ION    CL-42591  24.938  13.815   2.264
74198ION    CL-42592  24.668  23.564   4.232
74199ION    CL-42593  26.156  31.172   3.404
74200ION    CL-42594   9.924  21.785  12.007
74201ION    CL-42595  31.034  33.053  13.725
74202ION    CL-42596  14.446   0.425   0.015
74203ION    CL-42597  26.696   2.414   9.887
74204ION    CL-42598   2.584  20.773  11.405
74205ION    CL-42599  21.453  33.107   0.470
74206ION    CL-42600  15.914  21.482   2.372
74207ION    CL-42601  24.311  42.082   5.362
74208ION    CL-42602   4.026  24.237   3.890
74209ION    CL-42603  44.861  30.177  12.997
74210ION    CL-42604  43.495   5.362   2.880
74211ION    CL-42605  37.409  23.984  12.404
74212ION    CL-42606  31.896  32.035  12.544
74213ION    CL-42607   8.605   6.831  14.027
74214ION    CL-42608  17.239   0.305  10.726
74215ION    CL-42609  11.086  36.527   3.686
74216ION    CL-42610  39.061   6.278   0.002
74217ION    CL-42611  38.175   7.167   5.081
74218ION    CL-42612  21.928  26.653  14.629
74219ION    CL-42613   7.628  20.180   5.176
74220ION    CL-42614  39.435   4.750  11.218
74221ION    CL-42615  20.507  31.862  13.317
74222ION    CL-42616  24.253   7.761  11.615
74223ION    CL-42617  16.893  27.388   2.083
74224ION    CL-42618  23.943  26.472   9.829
74225ION    CL-42619   2.996  19.499  12.086
74226ION    CL-42620  39.090  26.680   4.684
74227ION    CL-42621  23.229   1.079   0.277
74228ION    CL-42622  20.249   1.929   4.441
74229ION    CL-42623  17.247  38.517   4.555
74230ION    CL-42624  30.900  44.376  14.691
74231ION    CL-42625   7.683  23.176  13.035
74232ION    CL-42626  23.322   9.162  13.599
74233ION    CL-42627  23.905   5.949  12.861
74234ION    CL-42628   1.389  44.840  12.655
74235ION    CL-42629  14.354  43.831  13.166
74236ION    CL-42630  35.540  29.009   4.429
74237ION    CL-42631  27.563  22.698  12.174
74238ION    CL-42632  15.841  23.677   0.559
74239ION    CL-42633  37.011  30.909  13.168
74240ION    CL-42634  17.838   5.503   3.236
74241ION    CL-42635  32.590  12.781  14.704
74242ION    CL-42636   4.831  31.790  14.450
74243ION    CL-42637   8.352   6.574   1.666
74244ION    CL-42638  34.285  31.720   2.230
74245ION    CL-42639   4.843  34.822   9.837
74246ION    CL-42640   3.250   2.453  10.275
74247ION    CL-42641  31.455  42.272   2.306
74248ION    CL-42642  16.522  42.975   2.760
74249ION    CL-42643   9.858  10.955  14.081
74250ION    CL-42644  26.431  27.101  14.092
74251ION    CL-42645  29.916  30.943   0.318
74252ION    CL-42646  15.343  36.897  13.462
74253ION    CL-42647  23.108  33.817  12.528
74254ION    CL-42648  44.754  40.588  14.080
74255ION    CL-42649  41.306  13.289   0.577
74256ION    CL-42650  23.470  24.886   0.783
74257ION    CL-42651  17.479  17.930  11.606
74258ION    CL-42652   6.392  38.424  10.882
74259ION    CL-42653  23.555  22.286  13.617
74260ION    CL-42654  18.462  42.519   0.567
74261ION    CL-42655   4.449  18.161   3.068
74262ION    CL-42656   5.778  17.096  13.060
74263ION    CL-42657  25.183  27.546   4.776
74264ION    CL-42658  37.353  35.094  13.615
74265ION    CL-42659  30.415  39.954   2.857
74266ION    CL-42660  39.597  38.457  13.003
74267ION    CL-42661  20.703  31.858  11.198
74268ION    CL-42662  13.450  12.285  11.046
74269ION    CL-42663  30.860   1.743  14.738
74270ION    CL-42664  35.846  16.321  11.146
74271ION    CL-42665   0.985  20.013   0.889
74272ION    CL-42666  22.093   0.607   4.081
74273ION    CL-42667   5.735   4.530  13.112
74274ION    CL-42668   8.868  39.587   0.377
74275ION    CL-42669  37.326  17.459  12.427
74276ION    CL-42670  32.823  23.362  13.136
74277ION    CL-42671  16.750   1.790   4.584
74278ION    CL-42672  17.828  19.943   2.382
74279ION    CL-42673   3.004   2.842   3.249
74280ION    CL-42674  44.116  40.281  14.848
74281ION    CL-42675   3.383  10.024  10.784
74282ION    CL-42676  33.624  44.372  14.898
74283ION    CL-42677  20.424  36.996   0.508
74284ION    CL-42678   8.824  21.642   3.565
74285ION    CL-42679  17.722  23.137   4.456
74286ION    CL-42680  18.635  36.674   3.249
74287ION    CL-42681  12.636   6.205  11.956
74288ION    CL-42682  31.661   3.606  12.183
74289ION    CL-42683  39.732  27.434  12.473
74290ION    CL-42684  29.466  16.267   0.468
74291ION    CL-42685  12.383  13.972   1.425
74292ION    CL-42686  28.593   8.070  13.599
74293ION    CL-42687  16.021   1.258  10.654
74294ION    CL-42688   8.311  34.814   2.455
74295ION    CL-42689   4.149  18.246  11.478
74296ION    CL-42690  23.043  15.617   0.912
74297ION    CL-42691   6.391  30.651   2.004
74298ION    CL-42692  18.748   9.102   0.745
74299ION    CL-42693   6.297   2.488  13.941
74300ION    CL-42694  26.598  34.276  10.489
74301ION    CL-42695  15.325  14.237   1.554
74302ION    CL-42696   5.477  28.142  14.248
74303ION    CL-42697   6.875  15.136   1.398
74304ION    CL-42698  35.890  23.526   5.003
74305ION    CL-42699  29.552  23.006  14.515
74306ION    CL-42700  11.347  19.400   0.846
74307ION    CL-42701  35.983  31.955  12.160
74308ION    CL-42702  25.604  23.589  11.566
74309ION    CL-42703  21.454  19.609   5.002
74310ION    CL-42704   8.585   1.176   4.384
74311ION    CL-42705  21.981  35.759  13.255
74312ION    CL-42706  31.712  34.475  10.992
74313ION    CL-42707   6.437  26.118  12.076
74314ION    CL-42708  38.961   1.086   4.150
74315ION    CL-42709  28.060  23.841   0.939
74316ION    CL-42710  26.016  23.109  10.700
74317ION    CL-42711  30.516  27.721   2.180
74318ION    CL-42712   0.359   1.759  11.190
74319ION    CL-42713   5.804   6.136   1.467
74320ION    CL-42714  39.988   7.297  12.890
74321ION    CL-42715  32.818   4.051   3.142
74322ION    CL-42716   2.200  28.728   2.099
74323ION    CL-42717  21.542  27.526  13.000
74324ION    CL-42718  18.859  42.956   1.257
74325ION    CL-42719   7.931  32.811  12.162
74326ION    CL-42720  12.618  21.670  11.567
74327ION    CL-42721  25.829  44.770   0.663
74328ION    CL-42722  44.875  14.445   4.432
74329ION    CL-42723   6.780   2.647  12.207
74330ION    CL-42724  43.056  18.143   4.087
74331ION    CL-42725   2.546  31.157  12.067
74332ION    CL-42726  22.425  19.016  10.410
74333ION    CL-42727  38.486  43.709  11.558
74334ION    CL-42728  42.941   4.773   2.157
74335ION    CL-42729   8.137  37.899   0.835
74336ION    CL-42730   8.722  19.461  13.034
74337ION    CL-42731  32.674  33.942   2.342
74338ION    CL-42732  32.849  39.820   3.053
74339ION    CL-42733  24.617  41.016  12.661
74340ION    CL-42734  15.140  24.930  12.471
74341ION    CL-42735   7.507  16.923   9.717
74342ION    CL-42736  36.012   3.375  12.270
74343ION    CL-42737  38.423  37.583  12.864
74344ION    CL-42738   0.815  25.750  10.585
74345ION    CL-42739  41.761   2.149  11.558
74346ION    CL-42740  27.063  43.083   4.346
74347ION    CL-42741  36.636  41.158   9.776
74348ION    CL-42742  43.776  17.639  13.990
74349ION    CL-42743   9.251   3.035   2.830
74350ION    CL-42744  43.693   2.641  10.351
74351ION    CL-42745  28.743  24.702  14.268
74352ION    CL-42746  39.324  36.603  14.824
74353ION    CL-42747  17.253  33.843  11.527
74354ION    CL-42748  24.603   6.514  12.659
74355ION    CL-42749  10.568   7.255   3.522
74356ION    CL-42750  19.151   3.872  11.880
74357ION    CL-42751  20.274  43.298   2.238
74358ION    CL-42752  40.342   1.742   2.707
74359ION    CL-42753  28.557  13.368   3.096
74360ION    CL-42754  24.200  42.190   2.781
74361ION    CL-42755   0.039  22.088   1.315
74362ION    CL-42756  37.996  29.956   2.890
74363ION    CL-42757   2.238  43.897  14.126
74364ION    CL-42758  35.543  32.973  11.534
74365ION    CL-42759   8.295  17.281   3.645
74366ION    CL-42760  21.677  37.562   9.924
74367ION    CL-42761   1.771  22.440   5.082
74368ION    CL-42762  17.952  40.334   3.467
74369ION    CL-42763  15.823  16.856   3.833
74370ION    CL-42764  24.605  18.010  12.753
74371ION    CL-42765  21.682   1.403  14.007
74372ION    CL-42766  36.369  28.313  12.526
74373ION    CL-42767  35.037  30.660  11.731
74374ION    CL-42768  30.667  42.218  14.589
74375ION    CL-42769  35.762  41.833  13.331
74376ION    CL-42770  38.834  28.599  12.454
74377ION    CL-42771  11.019  12.657   3.305
74378ION    CL-42772  35.114  33.010   3.836
74379ION    CL-42773  19.105  13.556   0.893
74380ION    CL-42774  17.622  39.902  14.282
74381ION    CL-42775  38.706  11.263  14.114
74382ION    CL-42776  27.326  14.467  12.023
74383ION    CL-42777  29.931  17.963   0.563
74384ION    CL-42778  26.395  27.762  10.654
74385ION    CL-42779  40.859  27.728   1.526
74386ION    CL-42780  32.407   5.422  13.164
74387ION    CL-42781  21.333  22.600  14.608
74388ION    CL-42782  38.827  37.033  11.673
74389ION    CL-42783  23.953  44.183  12.962
74390ION    CL-42784   0.401  31.076  10.536
74391ION    CL-42785  32.871   1.633  11.163
74392ION    CL-42786  39.788  35.860  13.405
74393ION    CL-42787  12.091  37.337   0.689
74394ION    CL-42788   1.635  13.914   0.992
74395ION    CL-42789   7.842  32.773  10.320
74396ION    CL-42790   3.943  38.488  14.608
74397ION    CL-42791  37.387  37.558  10.704
74398ION    CL-42792  39.863   6.449  13.428
74399ION    CL-42793   6.014  25.190  13.828
74400ION    CL-42794   0.818  22.294   5.348
74401ION    CL-42795  23.652   1.272   4.577
74402ION    CL-42796  42.269   4.422  10.966
74403ION    CL-42797   1.540  28.877   2.494
74404ION    CL-42798  30.324   6.154   2.654
74405ION    CL-42799  34.514  15.184   4.409
74406ION    CL-42800  23.072   4.381   2.933
74407ION    CL-42801  12.376   8.942   0.739
74408ION    CL-42802  33.790  33.365  14.823
74409ION    CL-42803  37.325  19.524  12.416
74410ION    CL-42804   2.711  28.209   3.856
74411ION    CL-42805  15.108   8.168   1.675
74412ION    CL-42806  44.926  15.509   2.387
74413ION    CL-42807  27.503  14.600  12.859
74414ION    CL-42808   9.658  32.508   2.192
74415ION    CL-42809  43.476   6.421   1.195
74416ION    CL-42810   0.549  25.603  11.663
74417ION    CL-42811  21.581  23.265  11.483
74418ION    CL-42812  22.990   9.122   4.595
74419ION    CL-42813   7.419  27.704  11.607
74420ION    CL-42814  14.104  44.418  10.752
74421ION    CL-42815  16.155  29.497   3.885
74422ION    CL-42816  31.284   0.339   4.498
74423ION    CL-42817  19.057  28.727   1.726
74424ION    CL-42818  33.627   4.271   3.721
74425ION    CL-42819  22.967  31.960  14.331
74426ION    CL-42820  26.880  30.469   3.681
74427ION    CL-42821  15.730  24.033  14.754
74428ION    CL-42822   0.741   4.460   1.844
74429ION    CL-42823   8.684  33.824  14.298
74430ION    CL-42824  26.116  33.493  11.990
74431ION    CL-42825  40.571  12.481   9.676
74432ION    CL-42826  12.034  32.729   1.875
74433ION    CL-42827  37.058  17.984   0.074
74434ION    CL-42828  37.739  28.229   4.217
74435ION    CL-42829   8.709  19.124   4.971
74436ION    CL-42830  33.568  24.110  10.753
74437ION    CL-42831   2.419   6.244  12.100
74438ION    CL-42832  17.679  13.498   3.581
74439ION    CL-42833  18.686   2.902  11.752
74440ION    CL-42834   2.461  24.284   0.748
74441ION    CL-42835   1.200   3.369   0.662
74442ION    CL-42836  19.642  44.685  13.744
74443ION    CL-42837  19.359  37.003  11.518
74444ION    CL-42838  36.981   7.187   4.870
74445ION    CL-42839   4.698  26.339  14.837
74446ION    CL-42840   6.115  11.517   1.674
74447ION    CL-42841  18.017   7.603   5.238
74448ION    CL-42842   5.411  16.730   3.545
74449ION    CL-42843   0.683  23.332  14.385
74450ION    CL-42844  18.740  40.968  10.363
74451ION    CL-42845   0.946  36.292   0.039
74452ION    CL-42846  38.891   1.042   3.154
74453ION    CL-42847   9.390  29.719  13.433
74454ION    CL-42848   9.454  20.085   3.581
74455ION    CL-42849   4.617  21.650  13.317
74456ION    CL-42850  26.289  34.004   1.705
74457ION    CL-42851  39.997  16.177  13.515
74458ION    CL-42852  23.120   4.348   0.225
74459ION    CL-42853  33.218   6.734  12.729
74460ION    CL-42854  21.244  34.141   3.266
74461ION    CL-42855  20.296  12.094  13.881
74462ION    CL-42856  11.815  18.776  12.023
74463ION    CL-42857  26.793  23.627  14.358
74464ION    CL-42858   7.017  42.753   3.450
74465ION    CL-42859  13.124  17.104  12.054
74466ION    CL-42860  22.225  11.728  10.664
74467ION    CL-42861  34.568  12.396   0.332
74468ION    CL-42862   6.522   4.880   4.313
74469ION    CL-42863   6.710  11.790  10.776
74470ION    CL-42864  10.687   5.887  12.190
74471ION    CL-42865   2.629  26.213   4.800
74472ION    CL-42866  35.926  29.815   4.267
74473ION    CL-42867  32.011   6.674   3.224
74474ION    CL-42868  16.432   1.994  11.879
74475ION    CL-42869  34.921  38.969   3.713
74476ION    CL-42870  13.532   0.353   1.639
74477ION    CL-42871  39.483   5.535   2.847
74478ION    CL-42872  39.777   8.508  12.932
74479ION    CL-42873  23.144   1.157  13.276
74480ION    CL-42874  21.088  17.631   1.637
74481ION    CL-42875  37.344  41.043   0.115
74482ION    CL-42876  16.752  23.729  13.369
74483ION    CL-42877  42.732  12.417  10.618
74484ION    CL-42878  33.445  43.555  14.350
74485ION    CL-42879  42.464  21.212  14.733
74486ION    CL-42880  25.610  44.406   2.376
74487ION    CL-42881  14.242  40.549  14.950
74488ION    CL-42882  43.977   4.527   1.303
74489ION    CL-42883  15.810   4.488   3.517
74490ION    CL-42884   0.364  14.588   1.502
74491ION    CL-42885  34.923  20.926  13.378
74492ION    CL-42886  31.620  42.806   0.911
74493ION    CL-42887  30.153   9.872   1.700
74494ION    CL-42888  12.772  36.147   2.546
74495ION    CL-42889  13.173  40.876  11.921
74496ION    CL-42890  44.747   7.322   0.967
74497ION    CL-42891  43.371  17.748  10.786
74498ION    CL-42892   4.057  16.687  12.688
74499ION    CL-42893   7.633  35.647  12.303
74500ION    CL-42894   2.975  44.248   3.172
74501ION    CL-42895   2.742   9.131  10.287
74502ION    CL-42896  40.741  20.186   2.233
74503ION    CL-42897  38.998   7.615  11.085
74504ION    CL-42898  13.947  15.998  12.224
74505ION    CL-42899  20.613  21.272  12.371
74506ION    CL-42900   4.290  11.054  10.033
74507ION    CL-42901  27.184  13.221  12.908
74508ION    CL-42902  23.827   8.491   1.275
74509ION    CL-42903  23.298  19.167  12.761
74510ION    CL-42904  27.186  21.040   2.333
74511ION    CL-42905  15.153   5.455  12.040
74512ION    CL-42906  34.781  11.793  12.047
74513ION    CL-42907   6.410  24.020  14.021
74514ION    CL-42908  35.631   1.594   3.135
74515ION    CL-42909  36.640   8.412  12.559
74516ION    CL-42910  23.706  34.053   3.117
74517ION    CL-42911  35.794  23.386   2.703
74518ION    CL-42912  18.724   0.253   2.720
74519ION    CL-42913  34.128   9.356  12.061
74520ION    CL-42914  32.180  39.761   2.433
74521ION    CL-42915  14.049  31.403  11.165
74522ION    CL-42916  39.090   2.733   3.614
74523ION    CL-42917   5.779  21.826  11.647
74524ION    CL-42918   0.445  26.116   0.983
74525ION    CL-42919  28.180  15.585  14.399
74526ION    CL-42920  27.609   3.223   2.959
74527ION    CL-42921  10.285  34.933  10.873
74528ION    CL-42922   5.195  39.064  10.785
74529ION    CL-42923  44.419   6.419   4.879
74530ION    CL-42924  11.088  18.441   0.521
74531ION    CL-42925  20.328  27.164  13.140
74532ION    CL-42926  14.560  42.496  10.572
74533ION    CL-42927  38.891  40.772   1.962
74534ION    CL-42928  14.617   1.579   2.985
74535ION    CL-42929  39.886  35.063   0.656
74536ION    CL-42930  30.965  13.938   0.903
74537ION    CL-42931  30.171  15.367   0.610
74538ION    CL-42932  16.796   7.629  10.787
74539ION    CL-42933   5.861  22.237   1.700
74540ION    CL-42934   7.672  24.225   2.356
74541ION    CL-42935  40.190  32.789   2.334
74542ION    CL-42936  15.551  17.815   9.864
74543ION    CL-42937  35.152  24.857   4.565
74544ION    CL-42938  27.799  39.855   4.610
74545ION    CL-42939   4.948  25.521   0.124
74546ION    CL-42940  11.432  42.687   3.345
74547ION    CL-42941  27.483  10.056  12.661
74548ION    CL-42942   6.687   1.965   0.822
74549ION    CL-42943  24.686   2.972   0.979
74550ION    CL-42944  25.541  32.618   0.452
74551ION    CL-42945  31.306  13.057   9.856
74552ION    CL-42946  14.844  30.271   1.201
74553ION    CL-42947  17.271  30.551   0.970
74554ION    CL-42948   9.421  38.739   0.823
74555ION    CL-42949  44.741  44.269  14.059
74556ION    CL-42950   1.167  12.290   1.522
74557ION    CL-42951   4.916  37.349   0.306
74558ION    CL-42952  34.655  42.666   4.424
74559ION    CL-42953  40.823   0.419   3.254
74560ION    CL-42954  23.944   2.331  12.948
74561ION    CL-42955  10.620   7.303   4.818
74562ION    CL-42956  22.542  10.814   3.341
74563ION    CL-42957  12.091   6.028  11.112
74564ION    CL-42958  36.993  13.765  11.349
74565ION    CL-42959  15.646  37.917  11.955
74566ION    CL-42960  19.814  37.939  13.929
74567ION    CL-42961  34.686  16.636  13.381
74568ION    CL-42962  18.321  19.595   1.180
74569ION    CL-42963  28.162   2.356   2.859
74570ION    CL-42964  35.865  16.539   1.021
74571ION    CL-42965   3.357   4.033   4.276
74572ION    CL-42966  35.431  30.943   3.405
74573ION    CL-42967  14.660  30.716   2.767
74574ION    CL-42968  13.951  44.311   3.824
74575ION    CL-42969  36.452  31.569  14.354
74576ION    CL-42970  42.834  24.199   2.790
74577ION    CL-42971   5.054  43.575   4.914
74578ION    CL-42972  21.795   1.904  12.833
74579ION    CL-42973  25.538  30.779   2.722
74580ION    CL-42974  12.094  43.014  12.249
74581ION    CL-42975   2.259  30.990   1.776
74582ION    CL-42976   5.377  13.255  10.357
74583ION    CL-42977   4.820  40.264   1.664
74584ION    CL-42978  24.076  19.821   3.654
74585ION    CL-42979  24.035  23.785   9.737
74586ION    CL-42980  32.060  37.562  13.846
74587ION    CL-42981  19.696  34.651  10.939
74588ION    CL-42982   3.622  38.534   3.253
74589ION    CL-42983  10.059  27.303   3.834
74590ION    CL-42984  35.344  35.592  13.884
74591ION    CL-42985   6.639   2.850   3.240
74592ION    CL-42986  28.577   3.951   3.023
74593ION    CL-42987  14.880  17.291   5.069
74594ION    CL-42988   3.654  39.526   3.130
74595ION    CL-42989   9.296   7.397   3.133
74596ION    CL-42990  26.785  19.493   1.871
74597ION    CL-42991   8.839   5.086   3.388
74598ION    CL-42992   7.956   9.830  14.654
74599ION    CL-42993  21.214  39.990   3.607
74600ION    CL-42994   7.349   3.398   3.697
74601ION    CL-42995  30.197  32.867  14.015
74602ION    CL-42996  41.718  15.177  10.897
74603ION    CL-42997   8.235  43.364  13.484
74604ION    CL-42998  12.142   0.578  13.871
74605ION    CL-42999  42.317   5.440  14.336
74606ION    CL-43000   4.038   7.278  12.231
74607ION    CL-43001  31.857   5.965   2.834
74608ION    CL-43002   7.434  36.417   3.974
74609ION    CL-43003   5.942   5.004   3.777
74610ION    CL-43004  39.387   4.695   2.275
74611ION    CL-43005  32.613  31.652   0.280
74612ION    CL-43006  24.257  39.082   4.994
74613ION    CL-43007  13.177  44.135  14.567
74614ION    CL-43008  17.726  35.951  11.907
74615ION    CL-43009  17.742   7.419   0.385
74616ION    CL-43010  39.407  15.039   3.322
74617ION    CL-43011  17.399  27.016  12.375
74618ION    CL-43012   3.000  23.039  14.024
74619ION    CL-43013   2.289   6.045  14.878
74620ION    CL-43014  17.031  19.988  11.211
74621ION    CL-43015  27.070  10.849   2.221
74622ION    CL-43016   0.113  26.310  12.221
74623ION    CL-43017  39.570  30.362   3.211
74624ION    CL-43018   9.597   1.874   2.119
74625ION    CL-43019   8.977  40.487   3.146
74626ION    CL-43020  19.150  40.750  13.843
74627ION    CL-43021  37.919  31.863   1.340
74628ION    CL-43022  32.497   3.025  14.597
74629ION    CL-43023  11.350  34.518   4.623
74630ION    CL-43024  13.169  20.392  10.304
74631ION    CL-43025  20.021   6.536   0.350
74632ION    CL-43026  33.776   5.354   1.933
74633ION    CL-43027  25.990  22.289   3.728
74634ION    CL-43028  40.487  21.857   4.330
74635ION    CL-43029  14.273  39.019   2.196
74636ION    CL-43030  42.374   8.420  11.153
74637ION    CL-43031  35.892  37.923  13.844
74638ION    CL-43032  18.007   3.438  11.850
74639ION    CL-43033  35.939  12.341   0.447
74640ION    CL-43034   6.869   9.179  11.186
74641ION    CL-43035  27.849   0.913  14.942
74642ION    CL-43036  41.414  40.850  12.290
74643ION    CL-43037  39.015   6.760   2.684
74644ION    CL-43038  34.789  22.050   0.411
74645ION    CL-43039  26.179  12.737  14.768
74646ION    CL-43040   2.826  33.785   1.870
74647ION    CL-43041  17.515  14.121   2.949
74648ION    CL-43042  33.279  16.832  14.662
74649ION    CL-43043  29.953  31.990   4.110
74650ION    CL-43044  12.283  14.322  14.512
74651ION    CL-43045  34.638  29.943   0.969
74652ION    CL-43046   7.921  42.883  12.665
74653ION    CL-43047  40.885   2.792   3.228
74654ION    CL-43048  28.364   9.160  14.211
74655ION    CL-43049   4.741  37.286  11.334
74656ION    CL-43050  26.899  29.428  11.003
74657ION    CL-43051   7.914  37.151  11.992
74658ION    CL-43052   4.620  11.754   3.689
74659ION    CL-43053  15.668  19.603   2.190
74660ION    CL-43054  38.432  28.247   1.261
74661ION    CL-43055  35.311  18.253  11.621
74662ION    CL-43056   5.916  12.029  13.451
74663ION    CL-43057  39.598  23.582  13.960
74664ION    CL-43058  22.165  25.780   3.440
74665ION    CL-43059  43.798  23.336   4.556
74666ION    CL-43060  31.990  23.956  13.351
74667ION    CL-43061  31.408   5.008   3.869
74668ION    CL-43062  38.086   1.140  14.885
74669ION    CL-43063  12.579  19.526  11.145
74670ION    CL-43064  27.924  18.671   1.110
74671ION    CL-43065  44.916   8.787   2.163
74672ION    CL-43066  26.928   5.643   3.476
74673ION    CL-43067   5.907   4.857   1.873
74674ION    CL-43068  30.984  22.164  13.440
74675ION    CL-43069  13.593   7.059   1.147
74676ION    CL-43070   4.319  11.166   1.853
74677ION    CL-43071  36.474  29.302  12.227
74678ION    CL-43072  37.780  18.710   2.408
74679ION    CL-43073  29.647  35.405  10.304
74680ION    CL-43074  33.157  33.969   1.412
74681ION    CL-43075  39.716  39.576  11.000
74682ION    CL-43076   6.420  41.483  13.096
74683ION    CL-43077  34.088  44.880  13.568
74684ION    CL-43078  31.594  36.791   1.180
74685ION    CL-43079   2.859  37.508   1.868
74686ION    CL-43080  12.651   3.187   2.533
74687ION    CL-43081  12.018  12.696   3.345
74688ION    CL-43082  13.646  36.264   3.197
74689ION    CL-43083  31.979  22.476   2.222
74690ION    CL-43084  29.366  19.870   4.309
74691ION    CL-43085   4.705   7.412  14.197
74692ION    CL-43086  16.149   8.966  13.985
74693ION    CL-43087  23.523  37.426   4.613
74694ION    CL-43088   7.590   8.791   2.745
74695ION    CL-43089   1.531  16.284   1.868
74696ION    CL-43090  38.676  19.003  12.031
74697ION    CL-43091  16.440   8.593  12.854
74698ION    CL-43092  27.612  23.633  11.824
74699ION    CL-43093  35.365  27.950   2.530
74700ION    CL-43094  29.759   1.343  11.474
74701ION    CL-43095  32.925  38.008   0.877
74702ION    CL-43096  24.687  23.257   2.170
74703ION    CL-43097   8.240  38.628   4.113
74704ION    CL-43098  43.619  25.883  11.163
74705ION    CL-43099  16.337  20.802  10.577
74706ION    CL-43100  34.442  37.647   2.838
74707ION    CL-43101  15.189  18.071   1.623
74708ION    CL-43102   5.740  36.393  13.434
74709ION    CL-43103   0.990  17.366   0.221
74710ION    CL-43104  42.178  35.170   0.429
74711ION    CL-43105  19.313  39.541   1.045
74712ION    CL-43106   8.629   8.001  13.081
74713ION    CL-43107  13.681  19.335   3.358
74714ION    CL-43108  26.544  14.625  11.957
74715ION    CL-43109  43.436  39.182   2.781
74716ION    CL-43110   3.562  40.561   4.244
74717ION    CL-43111  26.138  19.016  14.591
74718ION    CL-43112  18.624  21.689  13.022
74719ION    CL-43113  24.503   1.518   1.257
74720ION    CL-43114  33.312   6.997   0.787
74721ION    CL-43115   8.769  32.574  14.930
74722ION    CL-43116  38.033  17.120  14.476
74723ION    CL-43117  14.462  34.662   0.679
74724ION    CL-43118  10.633  38.088   2.056
74725ION    CL-43119  22.328   1.469  10.611
74726ION    CL-43120  16.894   6.386  12.052
74727ION    CL-43121  18.772   5.321  12.118
74728ION    CL-43122  18.016  31.230  12.501
74729ION    CL-43123  39.533  24.730   1.762
74730ION    CL-43124  29.245  26.181  12.071
74731ION    CL-43125  32.327  28.189  11.334
74732ION    CL-43126  35.759  24.682  10.665
74733ION    CL-43127  44.421  26.965   2.178
74734ION    CL-43128  35.182  10.766  12.314
74735ION    CL-43129  25.521  16.027   4.578
74736ION    CL-43130  28.955  27.359   0.459
74737ION    CL-43131  23.113  42.071  13.236
74738ION    CL-43132  39.111  12.340  12.971
74739ION    CL-43133  43.106  11.863  11.751
74740ION    CL-43134   6.096  42.062  12.347
74741ION    CL-43135  19.268  12.936  11.140
74742ION    CL-43136   5.402  27.947   0.226
74743ION    CL-43137  21.488  35.339  14.930
74744ION    CL-43138  28.008  38.674  14.872
74745ION    CL-43139   3.425   5.834  14.214
74746ION    CL-43140  11.753  17.481   0.452
74747ION    CL-43141   7.652  16.094   2.323
74748ION    CL-43142   4.910   1.881   1.724
74749ION    CL-43143  19.253   8.580   4.953
74750ION    CL-43144  29.882  12.622   1.767
74751ION    CL-43145  15.432  30.387  11.067
74752ION    CL-43146  28.211  24.856  12.397
74753ION    CL-43147   0.763   3.623   4.012
74754ION    CL-43148  12.926  40.334  11.265
74755ION    CL-43149  25.946  33.189  14.738
74756ION    CL-43150  10.924   7.201   0.260
74757ION    CL-43151  26.787  21.787  11.660
74758ION    CL-43152  16.710  13.124   3.686
74759ION    CL-43153  33.467  43.420  11.801
74760ION    CL-43154  36.247  17.685   4.409
74761ION    CL-43155  16.650  42.009   0.371
74762ION    CL-43156  19.063   1.278   4.244
74763ION    CL-43157  38.018  33.895   3.749
74764ION    CL-43158  39.589  12.867  14.495
74765ION    CL-43159  28.226   9.422   0.089
74766ION    CL-43160  11.702  22.725  11.693
74767ION    CL-43161   6.269  25.246  14.794
74768ION    CL-43162  38.036   6.222  10.532
74769ION    CL-43163  10.071  31.355  11.266
74770ION    CL-43164  29.166  32.617  10.617
74771ION    CL-43165   0.994  29.200  11.228
74772ION    CL-43166  33.270  38.557  11.606
74773ION    CL-43167  31.114   2.521  11.013
74774ION    CL-43168  23.299  35.176  13.434
74775ION    CL-43169  18.273  12.562   2.060
74776ION    CL-43170  33.674  23.510  13.640
74777ION    CL-43171   1.652  25.157   3.374
74778ION    CL-43172  22.763  14.426   4.531
74779ION    CL-43173  28.128  38.114  13.418
74780ION    CL-43174  20.899  21.790   0.895
74781ION    CL-43175  38.471  32.851  14.553
74782ION    CL-43176  37.304   5.676   3.706
74783ION    CL-43177  10.726   2.212   4.494
74784ION    CL-43178  12.236   9.103   4.993
74785ION    CL-43179  33.660  25.098   2.733
74786ION    CL-43180  21.002  34.502  13.699
74787ION    CL-43181  13.229   1.071   1.172
74788ION    CL-43182  43.656  15.832   3.664
74789ION    CL-43183  39.859  16.635  12.048
74790ION    CL-43184  13.663  28.610   2.347
74791ION    CL-43185  28.039  18.242   1.903
74792ION    CL-43186  25.666  22.550  14.986
74793ION    CL-43187  33.431  15.003  14.732
74794ION    CL-43188  29.778  20.464   5.000
74795ION    CL-43189  36.044   4.277  13.809
74796ION    CL-43190  28.613  15.185  10.957
74797ION    CL-43191  27.461  33.929   0.609
74798ION    CL-43192  21.318  43.719  12.464
74799ION    CL-43193   2.063  34.013  10.724
74800ION    CL-43194   3.846  12.700   3.696
74801ION    CL-43195  12.682  20.696  12.529
74802ION    CL-43196  11.700  37.577   5.142
74803ION    CL-43197   2.898  35.105   5.010
74804ION    CL-43198  30.160  31.818  10.029
74805ION    CL-43199  29.477  31.231  12.954
74806ION    CL-43200  15.250  14.681  11.964
74807ION    CL-43201   2.312  25.295  10.715
74808ION    CL-43202  31.624  17.639  13.206
74809ION    CL-43203   3.204  17.604   2.620
74810ION    CL-43204   2.560  43.286  10.474
74811ION    CL-43205  23.968  13.742  14.186
74812ION    CL-43206  18.872  30.139   2.714
74813ION    CL-43207   9.946   3.931  13.518
74814ION    CL-43208  24.505  15.548   0.810
74815ION    CL-43209  15.890  27.151  12.525
74816ION    CL-43210  10.044  11.542   2.930
74817ION    CL-43211   9.879  43.890   2.596
74818ION    CL-43212  32.693  26.107  11.054
74819ION    CL-43213  35.430  40.139   0.213
74820ION    CL-43214   0.324  26.946  13.485
74821ION    CL-43215  43.426  19.563  10.776
74822ION    CL-43216   1.445  23.961  14.225
74823ION    CL-43217  38.461  43.975  14.064
74824ION    CL-43218  42.993   0.847  10.562
74825ION    CL-43219   6.706   4.694   3.504
74826ION    CL-43220  32.307  19.053   1.521
74827ION    CL-43221  33.018  19.257   3.235
74828ION    CL-43222  18.576  13.611  14.346
74829ION    CL-43223  15.012  22.092   1.441
74830ION    CL-43224  36.550   2.451  10.771
74831ION    CL-43225  18.441   2.811  14.616
74832ION    CL-43226  44.633  14.656  11.435
74833ION    CL-43227   8.917   7.396   1.597
74834ION    CL-43228  26.125  24.764  14.400
74835ION    CL-43229  18.613  24.726   0.474
74836ION    CL-43230  14.774  11.654   3.564
74837ION    CL-43231  27.302  33.486  13.586
74838ION    CL-43232   0.389  18.729  14.991
74839ION    CL-43233  11.114  26.107   4.850
74840ION    CL-43234  24.577  23.117  10.795
74841ION    CL-43235  41.285  44.351   3.848
74842ION    CL-43236  11.146  19.231  13.921
74843ION    CL-43237  37.245  30.514   3.243
74844ION    CL-43238  21.696  27.491   2.272
74845ION    CL-43239  25.862  19.465  11.473
74846ION    CL-43240   8.927  10.606  13.104
74847ION    CL-43241  34.548  20.598   0.332
74848ION    CL-43242  36.510  29.389   9.853
74849ION    CL-43243  14.914  29.518  13.236
74850ION    CL-43244  31.168  37.919   0.418
74851ION    CL-43245   7.992  16.880  11.784
74852ION    CL-43246  11.343   7.457   4.145
74853ION    CL-43247  11.796  11.553   5.058
74854ION    CL-43248   2.244  19.954  11.457
74855ION    CL-43249  22.318  21.372  11.849
74856ION    CL-43250   3.806   1.100  12.965
74857ION    CL-43251   0.513  35.412   3.366
74858ION    CL-43252  24.950  42.916  10.751
74859ION    CL-43253  42.062  16.194   3.761
74860ION    CL-43254   4.352  36.300  13.600
74861ION    CL-43255  34.885  14.665  13.961
74862ION    CL-43256  23.714  14.519   3.611
74863ION    CL-43257  26.628  34.189  11.485
74864ION    CL-43258  12.691  11.988   0.889
74865ION    CL-43259  44.964  20.556  12.910
74866ION    CL-43260  33.074  42.295  14.273
74867ION    CL-43261   0.718  18.422   3.320
74868ION    CL-43262  40.307   2.966   4.541
74869ION    CL-43263   5.039   6.681  10.928
74870ION    CL-43264  39.671   7.718   1.880
74871ION    CL-43265  32.865  44.283  11.651
74872ION    CL-43266   4.705   5.459  11.677
74873ION    CL-43267  38.285  12.089   4.623
74874ION    CL-43268   9.774  25.109  11.916
74875ION    CL-43269  18.323  23.760  14.381
74876ION    CL-43270  19.329   7.775  12.381
74877ION    CL-43271  36.055  26.643   5.113
74878ION    CL-43272  24.915  11.689   0.382
74879ION    CL-43273   7.284   0.383   4.587
74880ION    CL-43274  26.004  35.808   2.253
74881ION    CL-43275  28.457   6.724   2.112
74882ION    CL-43276  22.488  15.304   3.710
74883ION    CL-43277  14.458  27.104   2.883
74884ION    CL-43278  21.180  33.695  11.466
74885ION    CL-43279   2.484  39.560   1.790
74886ION    CL-43280  21.065  23.012  10.648
74887ION    CL-43281   0.919  30.962  11.691
74888ION    CL-43282  37.428   2.997  10.753
74889ION    CL-43283  22.338  18.931   2.608
74890ION    CL-43284  11.842   6.883  11.568
74891ION    CL-43285  27.290  13.305  14.512
74892ION    CL-43286  41.303  41.922  13.836
74893ION    CL-43287   6.604  16.250   0.892
74894ION    CL-43288  29.193  35.233  13.865
74895ION    CL-43289  34.632  30.383  14.723
74896ION    CL-43290  31.626   5.466  11.160
74897ION    CL-43291   5.166  11.353  10.144
74898ION    CL-43292  41.425   5.828   3.579
74899ION    CL-43293  31.293  18.073  13.916
74900ION    CL-43294   7.849   2.642  12.912
74901ION    CL-43295   2.427  35.181   3.725
74902ION    CL-43296  40.808  11.575  12.937
74903ION    CL-43297  11.296  11.463   3.954
74904ION    CL-43298  22.213  19.030  13.598
74905ION    CL-43299  29.851   4.603  12.775
74906ION    CL-43300   1.403  13.839  14.583
74907ION    CL-43301  34.132  19.672  13.800
74908ION    CL-43302  30.007  12.821  12.637
74909ION    CL-43303   7.120  35.978  11.211
74910ION    CL-43304  41.245  32.399  12.398
74911ION    CL-43305  25.121  43.529  13.910
74912ION    CL-43306   6.602  16.337   3.519
74913ION    CL-43307  30.595  31.111   2.226
74914ION    CL-43308   2.255  25.822  11.563
74915ION    CL-43309   1.944  40.618   0.254
74916ION    CL-43310   9.161  27.498  13.865
74917ION    CL-43311   3.426   2.465   2.351
74918ION    CL-43312  21.176   8.749   3.291
74919ION    CL-43313  30.965  39.390  12.816
74920ION    CL-43314  28.478  12.181  10.734
74921ION    CL-43315  25.805   6.528   1.445
74922ION    CL-43316  29.899  32.798  13.063
74923ION    CL-43317   6.368  37.710   2.932
74924ION    CL-43318  43.055  30.966   0.717
74925ION    CL-43319  34.899  15.423   0.718
74926ION    CL-43320  35.701  16.439  14.873
74927ION    CL-43321  43.497  36.903   3.974
74928ION    CL-43322  18.711  27.106   3.573
74929ION    CL-43323  15.646   5.196   0.881
74930ION    CL-43324  30.384  24.673  11.728
74931ION    CL-43325  20.896  10.133   1.329
74932ION    CL-43326  19.959  40.833   2.194
74933ION    CL-43327   7.356   2.814  10.763
74934ION    CL-43328  30.428  42.516  13.664
74935ION    CL-43329  29.382  42.366   1.019
74936ION    CL-43330  32.892  39.357   1.409
74937ION    CL-43331   2.125  22.784   1.517
74938ION    CL-43332  19.844   8.244   2.052
74939ION    CL-43333  38.782  32.359   4.579
74940ION    CL-43334  38.114  11.289  13.097
74941ION    CL-43335  22.183   3.933   2.110
74942ION    CL-43336  27.564  39.327  10.752
74943ION    CL-43337  41.867  29.433  11.288
74944ION    CL-43338  24.648   9.540   1.097
74945ION    CL-43339  31.884  31.932   0.905
74946ION    CL-43340  17.066  12.694   2.536
74947ION    CL-43341   4.490  28.007  14.334
74948ION    CL-43342  26.582   1.998  13.142
74949ION    CL-43343   3.791  28.089   1.502
74950ION    CL-43344  16.708  21.120  12.486
74951ION    CL-43345  24.084  14.712  10.805
74952ION    CL-43346  38.810   7.357  12.497
74953ION    CL-43347  43.035  42.977   3.592
74954ION    CL-43348  21.838  11.349   2.151
74955ION    CL-43349   0.717  13.671   0.679
74956ION    CL-43350   6.476   8.749   1.758
74957ION    CL-43351  13.802  27.577  11.696
74958ION    CL-43352  21.514  10.644  11.593
74959ION    CL-43353  14.355  20.615  11.713
74960ION    CL-43354  16.765  39.446  11.877
74961ION    CL-43355   3.213  26.225  11.378
74962ION    CL-43356  32.164  19.352   3.746
74963ION    CL-43357  13.138  32.286  14.411
74964ION    CL-43358  30.643   5.356   3.212
74965ION    CL-43359  37.328  28.604   1.922
74966ION    CL-43360  14.275  27.514   3.984
74967ION    CL-43361   2.157  40.520  10.650
74968ION    CL-43362  33.109  24.741  12.371
74969ION    CL-43363  27.986  25.838   2.878
74970ION    CL-43364  43.746  12.532   3.107
74971ION    CL-43365  24.936  30.912  14.333
74972ION    CL-43366   9.263  12.828   5.040
74973ION    CL-43367  32.822  15.064   4.561
74974ION    CL-43368  28.984  32.977  14.346
74975ION    CL-43369  43.771  41.746  10.793
74976ION    CL-43370  40.182  22.424   3.712
74977ION    CL-43371  44.155  36.619   1.805
74978ION    CL-43372  39.808   5.385   4.866
74979ION    CL-43373  34.096   8.721  14.899
74980ION    CL-43374   6.418  39.845   1.552
74981ION    CL-43375  26.911   7.660   2.601
74982ION    CL-43376  42.898   1.546   3.038
74983ION    CL-43377  41.219  28.267   0.313
74984ION    CL-43378  17.466  22.566  14.650
74985ION    CL-43379   7.140   0.068  10.660
74986ION    CL-43380  27.585   5.651   3.520
74987ION    CL-43381  33.892   3.911   0.050
74988ION    CL-43382  13.980   6.468  11.344
74989ION    CL-43383  29.161  12.577  13.651
74990ION    CL-43384  33.040   1.399  13.359
74991ION    CL-43385  32.600  17.440   0.608
74992ION    CL-43386  11.518   0.827  11.509
74993ION    CL-43387  34.924  23.059  12.631
74994ION    CL-43388  34.103  12.864   2.955
74995ION    CL-43389  34.165  22.990   4.725
74996ION    CL-43390   5.999  17.258  14.977
74997ION    CL-43391   3.843  11.002   5.117
74998ION    CL-43392  13.780  38.833   2.949
74999ION    CL-43393  16.304  14.118  13.717
75000ION    CL-43394   5.212  10.434   1.939
75001ION    CL-43395  17.278  11.290   3.792
75002ION    CL-43396  42.742  41.099  12.802
75003ION    CL-43397  15.327  41.319   2.184
75004ION    CL-43398   5.321  14.124  11.132
75005ION    CL-43399   9.990  13.734  13.441
75006ION    CL-43400  32.081   2.532   4.893
75007ION    CL-43401  27.683  11.862   1.841
75008ION    CL-43402  31.111  38.390  10.830
75009ION    CL-43403  34.225  12.423   2.252
75010ION    CL-43404  25.578  41.988  14.368
75011ION    CL-43405  29.914  34.343   2.329
75012ION    CL-43406  24.823  38.888  13.430
75013ION    CL-43407   3.420  38.289  13.893
75014ION    CL-43408  10.527   1.623  12.257
75015ION    CL-43409  15.858  28.806  13.557
75016ION    CL-43410   8.846  38.741  12.126
75017ION    CL-43411  44.438  37.002   4.300
75018ION    CL-43412  35.944  10.172   0.468
75019ION    CL-43413  14.954  43.024  14.184
75020ION    CL-43414  33.115  33.408  11.673
75021ION    CL-43415  30.198   9.790   2.488
75022ION    CL-43416  24.887   4.203   2.931
75023ION    CL-43417  31.538  21.938   0.825
75024ION    CL-43418  15.600   1.826  12.100
75025ION    CL-43419  41.114  32.667   2.696
75026ION    CL-43420  17.103  27.471   2.977
75027ION    CL-43421   8.716  15.370   0.316
75028ION    CL-43422  17.565   5.323   1.360
75029ION    CL-43423  33.608  42.403  10.372
75030ION    CL-43424  18.637  13.323  12.822
75031ION    CL-43425  33.918  39.467  11.203
75032ION    CL-43426  38.983  28.787   1.762
75033ION    CL-43427  37.067  17.193   4.119
75034ION    CL-43428  19.116   8.284  10.785
75035ION    CL-43429  12.271   7.264   0.163
75036ION    CL-43430  10.583  29.299  12.081
75037ION    CL-43431   4.214   1.324   4.509
75038ION    CL-43432  30.668  39.061   2.411
75039ION    CL-43433  11.087  28.778  14.621
75040ION    CL-43434  42.707  40.843  14.991
75041ION    CL-43435   2.917  25.470   1.320
75042ION    CL-43436   9.970   7.744  10.868
75043ION    CL-43437  39.029  36.330  12.355
75044ION    CL-43438  39.005   6.681  11.442
75045ION    CL-43439  42.583  41.959   3.779
75046ION    CL-43440   8.229  12.170  14.512
75047ION    CL-43441  22.833  39.255  13.797
75048ION    CL-43442  43.037  21.795   0.482
75049ION    CL-43443  43.561  15.229   2.872
75050ION    CL-43444  14.183  36.421  12.143
75051ION    CL-43445  11.219  38.395  11.990
75052ION    CL-43446  10.792  13.815   4.925
75053ION    CL-43447  11.690  32.955   0.963
75054ION    CL-43448  11.715  16.520   2.346
75055ION    CL-43449  30.814  35.382  11.123
75056ION    CL-43450  34.969  22.350   1.784
75057ION    CL-43451   6.177  38.900  11.734
75058ION    CL-43452   4.373  10.245   0.323
75059ION    CL-43453  14.877   6.074  14.608
75060ION    CL-43454  17.901   3.963   4.674
75061ION    CL-43455  41.485  16.286  13.477
75062ION    CL-43456  22.779  21.193  10.980
75063ION    CL-43457  21.450  12.212   3.275
75064ION    CL-43458  43.903  35.112   0.227
75065ION    CL-43459  30.899  12.023   0.917
75066ION    CL-43460  37.496   3.537   4.119
75067ION    CL-43461  20.110  12.988   3.291
75068ION    CL-43462  19.540  41.984   1.741
75069ION    CL-43463  20.597  15.996   0.103
75070ION    CL-43464  38.080  37.973  14.591
75071ION    CL-43465  13.552  12.787   3.291
75072ION    CL-43466  42.842  12.447   3.053
75073ION    CL-43467   0.662  17.538   3.529
75074ION    CL-43468   9.780  20.580  12.879
75075ION    CL-43469  29.335  32.336  12.536
75076ION    CL-43470   4.637  24.861   4.039
75077ION    CL-43471  31.442  11.788   3.851
75078ION    CL-43472   1.136  15.236  14.542
75079ION    CL-43473   0.610  30.691   1.166
75080ION    CL-43474   5.679  12.334   3.728
75081ION    CL-43475  35.365  44.451  11.638
75082ION    CL-43476  38.013  20.774  14.867
75083ION    CL-43477  42.204   7.029   0.331
75084ION    CL-43478  28.646  34.624  11.110
75085ION    CL-43479  18.722   5.570   2.977
75086ION    CL-43480  29.942  22.442  13.770
75087ION    CL-43481  25.275  32.601   4.878
75088ION    CL-43482  13.310  40.049   3.113
75089ION    CL-43483   4.656  16.311   0.534
75090ION    CL-43484  40.562   7.756   0.717
75091ION    CL-43485   5.884  33.315  13.573
75092ION    CL-43486  26.470  44.829   2.091
75093ION    CL-43487  40.253  26.208  12.613
75094ION    CL-43488  37.748  32.297   4.699
75095ION    CL-43489  10.495  39.367  11.515
75096ION    CL-43490  20.652   7.931   3.644
75097ION    CL-43491  38.964  42.477   0.173
75098ION    CL-43492  19.524  15.143  14.997
75099ION    CL-43493  30.584  29.429  14.467
75100ION    CL-43494  33.373  33.887  13.344
75101ION    CL-43495  24.786   8.687   1.481
75102ION    CL-43496  26.755  20.511   1.602
75103ION    CL-43497  19.569  33.164  11.920
75104ION    CL-43498  21.711  32.158   0.292
75105ION    CL-43499  43.946  40.564   3.090
75106ION    CL-43500  31.154  41.397   2.872
75107ION    CL-43501  32.105  11.356   0.310
75108ION    CL-43502  36.947  27.909  14.860
75109ION    CL-43503  21.066  40.363  12.467
75110ION    CL-43504   1.483  19.234  14.270
75111ION    CL-43505  12.695   4.209   0.365
75112ION    CL-43506  36.609   6.997  14.747
75113ION    CL-43507  44.593  32.988   2.049
75114ION    CL-43508   1.552  29.000   1.664
75115ION    CL-43509  33.704  41.592   0.086
75116ION    CL-43510  19.759  33.994  12.468
75117ION    CL-43511  23.066   0.775  10.535
75118ION    CL-43512  36.338  30.753  12.573
75119ION    CL-43513   3.995  35.594   2.042
75120ION    CL-43514  41.432  12.512  13.104
75121ION    CL-43515  43.705  29.519  12.686
75122ION    CL-43516  24.147   6.187   2.939
75123ION    CL-43517  35.173   2.089  11.743
75124ION    CL-43518  41.660  43.358   0.996
75125ION    CL-43519  17.975  19.972  12.857
75126ION    CL-43520  23.924  32.667   1.825
75127ION    CL-43521   2.555   0.438  11.692
75128ION    CL-43522  21.747   6.039  12.977
75129ION    CL-43523  35.960  28.023  11.661
75130ION    CL-43524  19.305  23.024   2.246
75131ION    CL-43525   6.912   7.423   0.964
75132ION    CL-43526   6.195  40.393  11.678
75133ION    CL-43527   9.601  41.616   4.075
75134ION    CL-43528  26.092  43.364  14.294
75135ION    CL-43529  41.314  21.020   2.229
75136ION    CL-43530  17.102   3.365   4.633
75137ION    CL-43531  30.578  12.142  14.534
75138ION    CL-43532   1.657   0.486  14.950
75139ION    CL-43533  28.188  15.766  11.682
75140ION    CL-43534  11.236  41.452  11.804
75141ION    CL-43535  18.792  17.345  12.628
75142ION    CL-43536   5.899  31.986  12.112
75143ION    CL-43537  38.776  14.255   1.251
75144ION    CL-43538  34.933   1.481  12.879
75145ION    CL-43539   6.457  37.370   1.996
75146ION    CL-43540  11.770  31.870   2.313
75147ION    CL-43541  17.463  16.701   3.253
75148ION    CL-43542  18.946  23.978   4.936
75149ION    CL-43543  43.632  39.038   1.458
75150ION    CL-43544  11.292  35.046   1.876
75151ION    CL-43545  11.388  39.783  12.406
75152ION    CL-43546  40.691  43.414   0.753
75153ION    CL-43547  38.282   2.584  11.728
75154ION    CL-43548  14.143  12.372   2.040
75155ION    CL-43549  16.480  37.130   3.098
75156ION    CL-43550  24.374  27.165  11.794
75157ION    CL-43551   4.565  37.282   9.898
75158ION    CL-43552   6.917  14.826  12.284
75159ION    CL-43553  25.885  38.530  12.020
75160ION    CL-43554   2.184   0.652  12.430
75161ION    CL-43555  18.981  35.255   3.415
75162ION    CL-43556  28.984  11.929  14.264
75163ION    CL-43557  40.729  34.719  10.876
75164ION    CL-43558  24.199  10.057  13.613
75165ION    CL-43559  34.300   7.725  13.040
75166ION    CL-43560   8.399  28.471   4.084
75167ION    CL-43561   4.219  29.599   3.178
75168ION    CL-43562  28.687   4.536   0.188
75169ION    CL-43563  28.869  12.064  12.441
75170ION    CL-43564  15.327  27.862   3.764
75171ION    CL-43565  15.500  28.768   3.687
75172ION    CL-43566  29.614  41.032   1.338
75173ION    CL-43567  34.615   4.688  12.473
75174ION    CL-43568  33.041  41.325  14.515
75175ION    CL-43569  31.384  15.305  14.536
75176ION    CL-43570  12.255  16.618  12.211
75177ION    CL-43571  19.179  14.033  12.670
75178ION    CL-43572  19.405   9.339   4.549
75179ION    CL-43573  17.837   7.380   2.231
75180ION    CL-43574  11.590   0.087  14.671
75181ION    CL-43575   0.175   6.598   4.480
75182ION    CL-43576  24.166   9.254  10.014
75183ION    CL-43577  37.408   8.744  12.235
75184ION    CL-43578  24.211   9.450   1.775
75185ION    CL-43579  35.860  15.818   0.640
75186ION    CL-43580  19.059  31.856  12.637
75187ION    CL-43581  16.572  21.524   3.224
75188ION    CL-43582  10.436   0.906   1.727
75189ION    CL-43583   0.155  27.175   2.823
75190ION    CL-43584  14.834  35.940   2.694
75191ION    CL-43585   4.222   9.768  10.304
75192ION    CL-43586   9.371  19.267  11.587
75193ION    CL-43587  10.828  31.845  11.249
75194ION    CL-43588   4.016  18.062   1.315
75195ION    CL-43589  19.250  15.444   4.321
75196ION    CL-43590  13.775  18.312   4.113
75197ION    CL-43591   9.265  30.918   1.267
75198ION    CL-43592  16.594  33.842   1.533
75199ION    CL-43593  43.456  22.657  11.351
75200ION    CL-43594  36.010  42.451   0.389
75201ION    CL-43595   9.683  27.812  11.190
75202ION    CL-43596   3.080  13.942  11.538
75203ION    CL-43597  30.430  23.293  13.964
75204ION    CL-43598  21.478  33.069  13.710
75205ION    CL-43599  23.164  12.287  13.340
75206ION    CL-43600   0.835  14.431  12.140
75207ION    CL-43601  35.190  35.016  12.368
75208ION    CL-43602  22.912  36.265   4.078
75209ION    CL-43603  30.519  38.012   4.306
75210ION    CL-43604   0.080  37.160  11.289
75211ION    CL-43605  11.346  14.564  13.554
75212ION    CL-43606  37.630  40.438  12.631
75213ION    CL-43607  14.699  37.746   5.086
75214ION    CL-43608  23.286  24.147   2.340
75215ION    CL-43609  28.151  20.494  11.537
75216ION    CL-43610  29.563  37.839  12.001
75217ION    CL-43611   1.165  27.155  12.532
75218ION    CL-43612  40.282  19.167   0.811
75219ION    CL-43613   1.988  42.944  12.365
75220ION    CL-43614  41.560  39.450   1.532
75221ION    CL-43615  41.217  11.464   1.495
75222ION    CL-43616  22.040  43.210  11.690
75223ION    CL-43617  22.249  23.181  12.221
75224ION    CL-43618  28.183  28.347  14.579
75225ION    CL-43619   5.471  42.033  14.282
75226ION    CL-43620   8.935  18.969   1.209
75227ION    CL-43621  34.609  11.473   0.821
75228ION    CL-43622   8.684   6.149   4.106
75229ION    CL-43623  19.557  44.124   2.188
75230ION    CL-43624  38.044  39.575  12.918
75231ION    CL-43625  34.389  25.233  13.905
75232ION    CL-43626   9.654  37.948   1.192
75233ION    CL-43627  43.806   0.663   0.902
75234ION    CL-43628  27.869  23.071   4.032
75235ION    CL-43629   5.822  17.240   4.420
75236ION    CL-43630  22.200  18.958  14.635
75237ION    CL-43631   9.271  27.129   1.825
75238ION    CL-43632  30.395   0.688   0.908
75239ION    CL-43633  35.982  37.897   3.713
75240ION    CL-43634  22.644  23.262   0.741
75241ION    CL-43635  34.752  30.906   2.575
75242ION    CL-43636  15.876  43.607   2.659
75243ION    CL-43637  21.770  44.995   5.042
75244ION    CL-43638  24.974  24.549   0.787
75245ION    CL-43639  31.620  39.246   3.676
75246ION    CL-43640  16.044   5.854   3.935
75247ION    CL-43641   5.916  40.095  12.860
75248ION    CL-43642   6.570  11.742   3.936
75249ION    CL-43643   4.070  41.424   5.084
75250ION    CL-43644  27.383   4.365  13.962
75251ION    CL-43645  32.272  12.639   2.214
75252ION    CL-43646  33.678  12.291   1.251
75253ION    CL-43647   3.130  40.786  14.199
75254ION    CL-43648   3.133  27.485  10.512
75255ION    CL-43649  36.739   6.392  13.479
75256ION    CL-43650  44.247   6.165  11.918
75257ION    CL-43651  10.924   6.710  13.860
75258ION    CL-43652   4.266   8.825   0.241
75259ION    CL-43653  33.154  24.799   1.420
75260ION    CL-43654  17.217  27.945   3.707
75261ION    CL-43655  28.593  44.440   1.896
75262ION    CL-43656   9.701  22.285  11.044
75263ION    CL-43657  35.915  12.120  13.796
75264ION    CL-43658   5.705  29.380   4.321
75265ION    CL-43659  32.655  43.356  12.601
75266ION    CL-43660   7.922  42.588   3.844
75267ION    CL-43661  40.138  30.851   4.395
75268ION    CL-43662  26.571   4.532  12.938
75269ION    CL-43663   1.306  42.808   0.375
75270ION    CL-43664  26.488  17.669  13.625
75271ION    CL-43665  19.817   9.612   3.347
75272ION    CL-43666   4.931  22.029  11.158
75273ION    CL-43667   7.539  36.298   9.976
75274ION    CL-43668  42.220  33.738  13.623
75275ION    CL-43669  31.712  35.455  11.193
75276ION    CL-43670  10.973  34.131  13.251
75277ION    CL-43671  20.274  44.379   3.589
75278ION    CL-43672  33.853  17.270   3.394
75279ION    CL-43673  16.180  10.571   1.320
75280ION    CL-43674  28.009   0.220  11.625
75281ION    CL-43675  37.277  25.118  11.521
75282ION    CL-43676  15.126  26.959   3.736
75283ION    CL-43677  31.835  25.433  14.806
75284ION    CL-43678   8.752  30.531   3.271
75285ION    CL-43679  17.016  34.795  11.717
75286ION    CL-43680  43.733  33.449  12.472
75287ION    CL-43681  42.569  36.278  11.911
75288ION    CL-43682   0.380   8.096   0.941
75289ION    CL-43683  12.327  28.885  11.979
75290ION    CL-43684  10.402  35.535  11.663
75291ION    CL-43685  11.839   5.870  12.469
75292ION    CL-43686  39.372  12.231   0.722
75293ION    CL-43687  11.687   3.280  11.447
75294ION    CL-43688   7.981  44.007   2.342
75295ION    CL-43689  33.636   5.965  12.664
75296ION    CL-43690  38.071  31.108  11.656
75297ION    CL-43691  36.077  16.124  13.790
75298ION    CL-43692   4.184  29.332   4.554
75299ION    CL-43693  42.654  16.561  12.420
75300ION    CL-43694  26.762   7.787  14.115
75301ION    CL-43695  19.798  28.293   2.821
75302ION    CL-43696  22.328  18.230   2.006
75303ION    CL-43697   1.146  34.339  11.333
75304ION    CL-43698  37.609  11.769  14.889
75305ION    CL-43699  28.741  40.898   0.164
75306ION    CL-43700  32.860  18.228   4.201
75307ION    CL-43701  13.538   2.313   1.362
75308ION    CL-43702  41.050  12.621   3.365
75309ION    CL-43703  13.909  39.874   1.049
75310ION    CL-43704  38.492  20.088  10.432
75311ION    CL-43705  23.482   4.224   2.146
75312ION    CL-43706  38.024  34.075  12.408
75313ION    CL-43707   4.076   3.383   2.802
75314ION    CL-43708  15.148   3.153  12.603
75315ION    CL-43709   7.117   9.957   2.853
75316ION    CL-43710  14.449   2.773   1.112
75317ION    CL-43711  26.996   6.433  10.671
75318ION    CL-43712   0.315   3.743   2.553
75319ION    CL-43713  27.377  21.766   1.655
75320ION    CL-43714  43.011  37.890  13.676
75321ION    CL-43715  24.524  38.891  12.476
75322ION    CL-43716   7.860  22.747   4.742
75323ION    CL-43717  38.507  15.065   3.354
75324ION    CL-43718  40.417  40.605  12.325
75325ION    CL-43719   8.349  32.619   4.048
75326ION    CL-43720   9.059  38.366  13.827
75327ION    CL-43721  33.299  32.441  14.412
75328ION    CL-43722  41.905   9.322   0.486
75329ION    CL-43723   5.015  32.040   5.055
75330ION    CL-43724  34.083  39.577   3.220
75331ION    CL-43725  14.132  33.051   0.237
75332ION    CL-43726  42.024  42.036   0.812
75333ION    CL-43727  43.894  36.353  10.717
75334ION    CL-43728  26.108  38.103  10.378
75335ION    CL-43729  21.052  27.426   0.269
75336ION    CL-43730  26.945  38.575   3.688
75337ION    CL-43731  30.011  22.231   3.149
75338ION    CL-43732   9.451  16.561  12.538
75339ION    CL-43733  32.362  22.976  12.465
75340ION    CL-43734   4.020  24.976  12.208
75341ION    CL-43735  36.552  33.724  14.960
75342ION    CL-43736   1.476  30.832   4.856
75343ION    CL-43737   6.844  44.537  12.018
75344ION    CL-43738  40.023   7.384   3.582
75345ION    CL-43739  15.721  14.686  11.081
75346ION    CL-43740  29.319  23.970  14.643
75347ION    CL-43741   0.056  16.811  11.787
75348ION    CL-43742   3.023  34.670  12.058
75349ION    CL-43743  10.038  12.509   3.184
75350ION    CL-43744  39.317  31.209   2.623
75351ION    CL-43745  32.546  34.966   3.773
75352ION    CL-43746  39.444  31.663   3.518
75353ION    CL-43747  29.085  43.905  12.310
75354ION    CL-43748  13.925  24.223   4.494
75355ION    CL-43749  31.037  44.895  10.662
75356ION    CL-43750   4.335   7.240  11.147
75357ION    CL-43751  28.513   8.754   1.956
75358ION    CL-43752  22.674  33.229  13.483
75359ION    CL-43753  18.195  44.866   1.467
75360ION    CL-43754  39.629  19.276  11.893
75361ION    CL-43755  26.560   1.800  11.381
75362ION    CL-43756   7.007  34.933  13.945
75363ION    CL-43757  36.923  28.877  10.442
75364ION    CL-43758  30.364   0.693  14.487
75365ION    CL-43759  43.143   0.251   1.859
75366ION    CL-43760  34.338   9.217   2.264
75367ION    CL-43761  16.223  19.480  13.866
75368ION    CL-43762  34.018  35.091  11.912
75369ION    CL-43763  19.766  13.048   4.942
75370ION    CL-43764   9.656  29.246   4.229
75371ION    CL-43765  36.415  34.675   2.163
75372ION    CL-43766   2.436  41.462  14.454
75373ION    CL-43767  19.634  16.998   3.665
75374ION    CL-43768  23.844  15.487  11.389
75375ION    CL-43769  34.609  43.600   4.303
75376ION    CL-43770  30.532  10.306  10.684
75377ION    CL-43771  23.182  27.009  13.001
75378ION    CL-43772   7.492  27.604  14.310
75379ION    CL-43773   9.372  28.828  14.968
75380ION    CL-43774  31.229  20.674   2.306
75381ION    CL-43775   7.671  25.072   1.753
75382ION    CL-43776  20.944   9.798  10.652
75383ION    CL-43777  15.666  44.267  11.712
75384ION    CL-43778  43.179  26.816  11.118
75385ION    CL-43779  36.586  33.411  13.701
75386ION    CL-43780  11.347  25.114  12.175
75387ION    CL-43781  43.696  34.478  10.717
75388ION    CL-43782  33.862  21.346   0.257
75389ION    CL-43783  24.318   5.909   5.153
75390ION    CL-43784   2.334  20.275  14.199
75391ION    CL-43785  44.343  17.558  10.564
75392ION    CL-43786  28.901  38.720  10.910
75393ION    CL-43787  13.838  31.056  13.345
75394ION    CL-43788  42.049  16.138   2.763
75395ION    CL-43789   5.977   8.423   4.247
75396ION    CL-43790   8.644  13.345   1.654
75397ION    CL-43791  18.919  28.415   3.071
75398ION    CL-43792  37.045  14.847   4.012
75399ION    CL-43793  17.232  12.401  11.580
75400ION    CL-43794  16.599  35.047   2.755
75401ION    CL-43795  26.186  43.799  11.123
75402ION    CL-43796   4.603   6.957  11.674
75403ION    CL-43797  41.510  30.574   3.331
75404ION    CL-43798   9.481  28.612  13.319
75405ION    CL-43799  38.576  24.827   4.221
75406ION    CL-43800  14.744  33.052   3.850
75407ION    CL-43801  36.061  31.745   3.281
75408ION    CL-43802  16.065  31.644   4.561
75409ION    CL-43803   4.212   3.918  10.862
75410ION    CL-43804   7.635  18.763   0.916
75411ION    CL-43805   7.281   1.942  11.247
75412ION    CL-43806  24.256   5.403  11.508
75413ION    CL-43807  34.823  15.030  12.299
75414ION    CL-43808  17.807  32.101   3.165
75415ION    CL-43809  18.718  37.504   0.260
75416ION    CL-43810   9.310  23.452   3.232
75417ION    CL-43811  30.082  23.204   4.110
75418ION    CL-43812  11.480  29.821  13.818
75419ION    CL-43813  21.885  12.794   2.554
75420ION    CL-43814  44.583  36.976   3.311
75421ION    CL-43815   0.491  23.973   0.789
75422ION    CL-43816   8.015  11.151  12.530
75423ION    CL-43817  31.122  25.684   0.961
75424ION    CL-43818  31.375  18.647   0.607
75425ION    CL-43819  26.615  24.685   4.788
75426ION    CL-43820   1.466  30.359   0.769
75427ION    CL-43821  15.166  20.664   4.276
75428ION    CL-43822  32.130  43.904   4.228
75429ION    CL-43823   7.640   4.899   2.699
75430ION    CL-43824  27.423  40.789  14.009
75431ION    CL-43825   0.699  29.489  14.415
75432ION    CL-43826  35.150  13.439  11.883
75433ION    CL-43827  38.250  36.106   1.860
75434ION    CL-43828  33.611  39.770  14.048
75435ION    CL-43829  16.834  37.362   3.884
75436ION    CL-43830  11.420  34.885  12.031
75437ION    CL-43831  28.809   4.327   3.360
75438ION    CL-43832  16.693  11.254  13.546
75439ION    CL-43833  29.628   8.193   2.702
75440ION    CL-43834   1.215   5.874   0.922
75441ION    CL-43835   0.153  43.510   0.083
75442ION    CL-43836  22.174  44.770  14.489
75443ION    CL-43837  23.794  18.410  12.888
75444ION    CL-43838   3.831  40.855  13.096
75445ION    CL-43839  12.659  32.019   2.931
75446ION    CL-43840   5.522  41.306   4.304
75447ION    CL-43841  15.103  19.165  11.277
75448ION    CL-43842  19.738  31.544   0.725
75449ION    CL-43843  39.008  23.021   4.503
75450ION    CL-43844  33.947  35.229   2.403
75451ION    CL-43845   2.976  22.576   2.000
75452ION    CL-43846  13.496  15.218   1.289
75453ION    CL-43847  27.663  19.731   5.012
75454ION    CL-43848  16.781   6.180  14.699
75455ION    CL-43849  31.343   4.846   1.694
75456ION    CL-43850  32.645  34.033   4.119
75457ION    CL-43851  38.159   6.668  12.058
75458ION    CL-43852   4.162  27.723   1.994
75459ION    CL-43853  21.500  20.722  11.167
75460ION    CL-43854  17.773  24.249  13.842
75461ION    CL-43855  42.267   8.134   3.186
75462ION    CL-43856  15.416  14.415  14.607
75463ION    CL-43857  42.361  36.925  14.059
75464ION    CL-43858  38.845   8.722  14.827
75465ION    CL-43859  31.797  44.341  13.362
75466ION    CL-43860  33.554  16.398   3.929
75467ION    CL-43861  14.719  11.705  11.407
75468ION    CL-43862  43.930  14.759  13.611
75469ION    CL-43863   1.447   7.072   1.669
75470ION    CL-43864  17.189  20.974   4.576
75471ION    CL-43865  32.608   9.498  10.197
75472ION    CL-43866  14.947  18.608   9.793
75473ION    CL-43867  42.082   4.654   1.306
75474ION    CL-43868  15.765  19.829  10.929
75475ION    CL-43869  30.166  30.222  14.577
75476ION    CL-43870  20.358  21.547   0.076
75477ION    CL-43871  44.902  22.812   1.998
75478ION    CL-43872  23.990   0.442  10.723
75479ION    CL-43873  32.789  43.954  13.277
75480ION    CL-43874  24.531  35.989  14.789
75481ION    CL-43875  17.149  38.542   2.717
75482ION    CL-43876  16.027   7.009   0.795
75483ION    CL-43877   6.289   9.523   2.497
75484ION    CL-43878  26.611  32.853   0.867
75485ION    CL-43879   3.314   7.799  12.866
75486ION    CL-43880  11.903  33.586  10.261
75487ION    CL-43881  27.336  11.793   0.838
75488ION    CL-43882   1.659  41.976  12.611
75489ION    CL-43883  44.020  36.118  13.379
75490ION    CL-43884  26.037  10.951  14.887
75491ION    CL-43885   6.833   7.581  11.025
75492ION    CL-43886  44.623   2.447   2.520
75493ION    CL-43887   2.489  32.029  12.846
75494ION    CL-43888  16.387  18.119   0.881
75495ION    CL-43889  13.499  23.595   3.746
75496ION    CL-43890   4.038  35.511  13.850
75497ION    CL-43891   5.111  35.354  14.191
75498ION    CL-43892  33.723  36.135  13.266
75499ION    CL-43893  24.363  32.970  12.307
75500ION    CL-43894   5.532  23.894  11.326
75501ION    CL-43895   7.137  31.254  12.049
75502ION    CL-43896   3.697  11.025  12.047
75503ION    CL-43897  20.404  12.001   3.411
75504ION    CL-43898  36.793  16.862  12.730
75505ION    CL-43899  38.238  34.433   0.313
75506ION    CL-43900  13.521  23.126  14.991
75507ION    CL-43901  18.236   4.724   2.759
75508ION    CL-43902  33.513   0.042   1.976
75509ION    CL-43903  38.126  26.882   0.386
75510ION    CL-43904  15.607  16.764   0.887
75511ION    CL-43905  31.346  24.233   5.185
75512ION    CL-43906  17.489   6.201   0.405
75513ION    CL-43907  12.707  29.687  11.236
75514ION    CL-43908  37.515  25.837  10.868
75515ION    CL-43909  38.544   8.876  11.286
75516ION    CL-43910  13.939  17.995   0.354
75517ION    CL-43911  15.571  36.622   1.277
75518ION    CL-43912   6.625  38.524   3.583
75519ION    CL-43913  24.463  37.049  13.869
75520ION    CL-43914   2.022  27.842   1.656
75521ION    CL-43915  42.020  23.995  12.008
75522ION    CL-43916  18.102  28.047   3.251
75523ION    CL-43917   5.672  27.174   0.800
75524ION    CL-43918   7.325  37.806  13.484
75525ION    CL-43919  22.288  32.779  11.935
75526ION    CL-43920   9.374  23.170   5.311
75527ION    CL-43921  30.194  18.383   4.709
75528ION    CL-43922  42.603  10.564  12.918
75529ION    CL-43923  19.973  32.983  13.801
75530ION    CL-43924  26.624   5.612  13.890
75531ION    CL-43925  24.496  22.090   3.615
75532ION    CL-43926  15.674   8.867   3.164
75533ION    CL-43927  26.262  14.324   2.745
75534ION    CL-43928  37.811  36.940  13.015
75535ION    CL-43929  24.314  44.185   3.869
75536ION    CL-43930  35.240  40.520  12.646
75537ION    CL-43931  12.165  17.325  12.912
75538ION    CL-43932  31.955   0.591   0.733
75539ION    CL-43933   8.600  12.356   1.879
75540ION    CL-43934   1.736  18.605  11.043
75541ION    CL-43935  34.943  18.957  14.859
75542ION    CL-43936  19.350  21.264   4.105
75543ION    CL-43937  28.729   3.630   3.830
75544ION    CL-43938  42.385   5.136   3.121
75545ION    CL-43939   8.504  28.465  13.473
75546ION    CL-43940   0.217  19.515   4.137
75547ION    CL-43941   0.002   0.326  14.277
75548ION    CL-43942  17.823  18.143   3.342
75549ION    CL-43943  36.804  18.619  12.848
75550ION    CL-43944  43.426  10.787  13.100
75551ION    CL-43945  16.191   4.388  10.316
75552ION    CL-43946  21.600  44.134  14.227
75553ION    CL-43947  10.939  27.995   1.750
75554ION    CL-43948   4.993  44.761  12.501
75555ION    CL-43949  31.097  38.094  13.342
75556ION    CL-43950  44.189  22.837  10.046
75557ION    CL-43951  23.403  32.956  11.408
75558ION    CL-43952  18.805  12.213   4.601
75559ION    CL-43953  33.194  26.592   4.555
75560ION    CL-43954  26.024  17.898   2.067
75561ION    CL-43955  32.705  40.170  13.909
75562ION    CL-43956  20.136  16.575   5.313
75563ION    CL-43957  11.919  12.413   1.229
  45.00000  45.00000  15.00000
